G5Pncore-PETIM in water
132070
    1aaa     N1    1   1.434   0.295   7.840 -0.2768 -0.4239 -0.2283
    1aaa     C1    2   1.579   0.311   7.888 -0.0881 -0.3017 -0.8691
    1aaa     H1    3   1.640   0.222   7.870  0.6203  0.1195 -0.5903
    1aaa     H2    4   1.633   0.388   7.831 -0.5856  1.7897  1.3353
    1aaa     C2    5   1.436   0.266   7.695 -0.4008 -0.2925  0.1927
    1aaa     H3    6   1.492   0.346   7.645  0.3161 -1.1179 -0.3322
    1aaa     H4    7   1.482   0.169   7.673 -1.0779 -0.3513 -1.1080
    1aaa     C3    8   1.332   0.395   7.876 -0.1366 -0.5724 -0.6549
    1aaa     H5    9   1.236   0.361   7.835  0.3136 -2.2564 -0.3806
    1aaa     H6   10   1.300   0.399   7.981 -3.2764 -1.4518 -1.4590
    1aaa     C4   11   1.364   0.539   7.831  0.3330  0.1133  0.0333
    1aaa     H7   12   1.459   0.573   7.874  0.2317 -0.0000  0.3524
    1aaa     H8   13   1.379   0.547   7.723  0.4704  0.4649  0.0760
    1aaa     C5   14   1.584   0.350   8.041 -0.3507  0.4244  0.0952
    1aaa     H9   15   1.516   0.436   8.052  0.6153  1.1203  0.8184
    1aaa    H10   16   1.554   0.261   8.098  3.3445 -0.0014  1.6508
    1aaa     C6   17   1.298   0.250   7.626 -0.0900  1.0703 -0.0129
    1aaa    H11   18   1.231   0.179   7.676  0.7311  0.1893 -0.1486
    1aaa    H12   19   1.256   0.351   7.632  1.4708  1.6361  2.5739
    1aaa     C7   20   1.312   0.209   7.480 -0.1615 -1.1108  0.5021
    1aaa    H13   21   1.391   0.271   7.437 -2.5283  2.1937  0.5121
    1aaa    H14   22   1.352   0.107   7.474  2.9568  0.1024 -1.4409
    1aaa     C8   23   1.262   0.642   7.884  0.1875 -0.4061 -0.1615
    1aaa    H15   24   1.306   0.737   7.851 -0.6440 -0.2472 -0.8523
    1aaa    H16   25   1.159   0.624   7.850  0.1867  0.0417 -0.4030
    1aaa     C9   26   1.726   0.388   8.073 -0.3557  0.2337  0.4312
    1aaa    H17   27   1.794   0.310   8.036 -0.9117 -0.2707  0.4637
    1aaa    H18   28   1.752   0.474   8.010  1.7478 -0.1272  0.7032
    2bbb     N1   29   0.941   0.496   7.079  0.2265 -0.5701 -0.3426
    2bbb     C1   30   0.941   0.625   7.147 -0.1464  0.5856 -0.0954
    2bbb     H1   31   0.954   0.605   7.254 -2.3087 -0.9285 -0.0473
    2bbb     H2   32   0.850   0.683   7.125 -1.0620 -1.0201 -0.7188
    2bbb     C2   33   0.813   0.426   7.107  0.3153 -0.8229 -0.6985
    2bbb     H3   34   0.733   0.501   7.099 -0.0997 -1.0567  0.9339
    2bbb     H4   35   0.807   0.399   7.213 -0.6635  1.3395 -0.1500
    2bbb     C3   36   1.062   0.411   7.100 -0.0966 -0.0092  0.1844
    2bbb     H5   37   1.155   0.461   7.073  0.8283 -1.4401  0.6368
    2bbb     H6   38   1.057   0.327   7.029  0.9412 -0.0068  0.1005
    2bbb     C4   39   1.087   0.367   7.251 -0.2016 -0.1703  0.5177
    2bbb     H7   40   0.992   0.327   7.289 -1.1350  1.7602  0.3113
    2bbb     H8   41   1.108   0.458   7.309 -1.9856 -0.4807  1.7406
    2bbb     C5   42   1.060   0.716   7.108  0.3924  0.7185 -0.5665
    2bbb     H9   43   1.153   0.670   7.142 -0.6351 -1.8372 -0.9543
    2bbb    H10   44   1.046   0.813   7.157 -0.2287  0.1533  0.4210
    2bbb     C6   45   0.775   0.299   7.031 -0.0886  0.2441  0.0386
    2bbb    H11   46   0.861   0.232   7.025 -0.7208 -0.5223 -0.7040
    2bbb    H12   47   0.739   0.318   6.929  0.1562 -1.3839 -0.3767
    2bbb     C7   48   1.204   0.266   7.278  0.0940  0.1021 -0.6339
    2bbb    H13   49   1.298   0.322   7.267 -0.6649  1.7284  0.7013
    2bbb    H14   50   1.200   0.182   7.208  0.6887 -1.2005  0.8523
    2bbb     C8   51   0.663   0.223   7.111  0.0528  0.0503  0.4318
    2bbb    H15   52   0.637   0.132   7.057  2.6837 -1.7816  2.0258
    2bbb    H16   53   0.578   0.292   7.120 -0.7272 -0.4316 -2.3765
    2bbb     C9   54   1.071   0.744   6.959 -0.3170  0.1520  0.2829
    2bbb    H17   55   0.986   0.807   6.927 -0.6487 -0.4202  0.0163
    2bbb    H18   56   1.059   0.649   6.906 -2.2528  0.9506 -0.8655
    2bbb     O1   57   1.183   0.226   7.415 -0.1186 -0.5874 -0.1343
    3bbb     N1   58   1.376   0.680   8.442  0.5281  0.5257  0.2535
    3bbb     C1   59   1.355   0.535   8.459  0.3415 -0.1293  0.3185
    3bbb     H1   60   1.265   0.499   8.408  0.3253 -0.6328  0.6954
    3bbb     H2   61   1.339   0.522   8.567  0.4688 -0.2786  0.3197
    3bbb     C2   62   1.490   0.739   8.524  0.2149 -0.0808 -0.3654
    3bbb     H3   63   1.579   0.736   8.461  0.2534 -1.2045 -0.2754
    3bbb     H4   64   1.518   0.673   8.607 -0.6259 -0.8436 -0.6675
    3bbb     C3   65   1.361   0.734   8.302  0.3690 -0.5317 -0.3109
    3bbb     H5   66   1.429   0.670   8.246  0.7406 -0.9915  0.6370
    3bbb     H6   67   1.401   0.834   8.281 -1.0836 -0.0408 -0.8657
    3bbb     C4   68   1.212   0.741   8.254 -0.0923 -0.3039  0.0420
    3bbb     H7   69   1.147   0.810   8.310  0.9189 -0.2923  1.2237
    3bbb     H8   70   1.172   0.640   8.262 -1.1645  0.0483 -0.5563
    3bbb     C5   71   1.466   0.450   8.414  0.5594  0.6995  0.0046
    3bbb     H9   72   1.559   0.477   8.465  1.1130  0.7536 -1.0040
    3bbb    H10   73   1.490   0.449   8.307  0.7004  2.0351  0.0078
    3bbb     C6   74   1.463   0.882   8.577 -0.4176  0.7017 -0.1442
    3bbb    H11   75   1.381   0.881   8.650  1.3193  0.4098  1.8666
    3bbb    H12   76   1.417   0.935   8.492 -2.9999 -0.8911  0.1715
    3bbb     C7   77   1.203   0.763   8.097  0.0572 -0.6345  0.2418
    3bbb    H13   78   1.255   0.859   8.086  0.4548 -0.7078  1.3726
    3bbb    H14   79   1.102   0.789   8.064 -0.4266 -0.2625  1.9258
    3bbb     C8   80   1.587   0.959   8.634  0.8401 -0.6307  0.9219
    3bbb    H15   81   1.567   1.059   8.675  2.3426 -0.0648  0.3504
    3bbb    H16   82   1.665   0.980   8.559  0.9735 -1.1044  0.9255
    3bbb     C9   83   1.435   0.303   8.461 -0.8406 -0.0863  0.4176
    3bbb    H17   84   1.449   0.300   8.569 -0.9982 -2.9804  0.4115
    3bbb    H18   85   1.516   0.241   8.422 -0.9551  1.5553 -2.7542
    3bbb     O1   86   1.262   0.647   8.033  0.2359  0.1579  0.3160
    4bbb     N1   87   2.020   0.561   8.595  0.1712 -0.5032 -0.0182
    4bbb     C1   88   2.161   0.539   8.652  0.3663  0.2154  0.3478
    4bbb     H1   89   2.234   0.598   8.596  0.4626 -0.4641 -0.2567
    4bbb     H2   90   2.184   0.432   8.649 -2.4848 -0.5299  1.6000
    4bbb     C2   91   1.963   0.695   8.616 -0.6478 -0.5318  0.4809
    4bbb     H3   92   1.958   0.726   8.721 -1.9222  2.5947 -0.4070
    4bbb     H4   93   1.858   0.711   8.590  0.3931  0.1372 -4.4236
    4bbb     C3   94   2.017   0.516   8.457  0.3760 -0.4781 -0.3533
    4bbb     H5   95   2.063   0.417   8.448  0.7793 -0.4996  1.5494
    4bbb     H6   96   2.075   0.582   8.391  0.7245 -0.3951  0.0303
    4bbb     C4   97   1.871   0.498   8.396 -0.0404 -0.2837 -0.5907
    4bbb     H7   98   1.815   0.592   8.393 -0.1529 -0.0996  2.9265
    4bbb     H8   99   1.820   0.409   8.435  0.0445 -0.5817 -1.1591
    4bbb     C5  100   2.178   0.572   8.803  0.5688 -0.1984 -0.3641
    4bbb     H9  101   2.140   0.670   8.832 -0.5469 -0.9016  0.6410
    4bbb    H10  102   2.282   0.572   8.838  0.7455  1.7311 -0.7854
    4bbb     C6  103   2.051   0.812   8.566  0.1163  0.0006 -0.4347
    4bbb    H11  104   2.061   0.802   8.457  0.9939 -2.8888 -0.1949
    4bbb    H12  105   2.155   0.812   8.600  0.7964 -1.8525 -2.2534
    4bbb     C7  106   1.886   0.445   8.253 -0.4827 -0.2533 -0.1479
    4bbb    H13  107   1.954   0.360   8.247  0.6796  0.6767 -0.6964
    4bbb    H14  108   1.937   0.521   8.191  1.5796  1.2363  3.1256
    4bbb     C8  109   1.990   0.942   8.607  1.7031 -0.5080  0.2610
    4bbb    H15  110   1.968   0.939   8.715 -0.2053  3.5828  0.1844
    4bbb    H16  111   1.892   0.947   8.559  2.5798 -0.6088 -1.6274
    4bbb     C9  112   2.109   0.474   8.903  0.0543 -0.2061 -0.1608
    4bbb    H17  113   2.162   0.378   8.893  0.4341  0.0511 -0.7105
    4bbb    H18  114   2.004   0.472   8.871 -0.3560  0.2409  1.1287
    4bbb     O1  115   1.746   0.416   8.208 -0.0865 -0.4893 -0.0291
    5bbb     N1  116   0.794  -0.058   7.597  0.0481  0.6054  0.1129
    5bbb     C1  117   0.818  -0.204   7.578  0.2147  0.5859  0.0184
    5bbb     H1  118   0.916  -0.225   7.534 -0.1356 -0.7018 -0.1848
    5bbb     H2  119   0.737  -0.259   7.528  0.2576 -0.4795  1.0892
    5bbb     C2  120   0.894   0.023   7.669 -1.0796  0.3543 -0.1691
    5bbb     H3  121   0.982   0.013   7.604 -2.7205 -3.0036 -2.1274
    5bbb     H4  122   0.920  -0.021   7.766 -1.5557  2.7262  1.1006
    5bbb     C3  123   0.739   0.003   7.473  0.1511 -0.0321  0.2226
    5bbb     H5  124   0.696   0.098   7.507 -1.0532  0.1872 -1.7461
    5bbb     H6  125   0.655  -0.046   7.422  0.3091 -0.5820  0.4876
    5bbb     C4  126   0.849   0.018   7.357  0.4629  0.0053 -0.6311
    5bbb     H7  127   0.905  -0.075   7.342 -0.1774 -0.9078  2.1073
    5bbb     H8  128   0.922   0.094   7.387 -0.6303  0.5872  0.6505
    5bbb     C5  129   0.831  -0.288   7.708 -0.3394  0.1499 -0.1209
    5bbb     H9  130   0.915  -0.245   7.765  0.2051 -0.6036 -0.3430
    5bbb    H10  131   0.864  -0.386   7.671 -2.6984 -0.6762 -0.1550
    5bbb     C6  132   0.855   0.161   7.705  0.2570 -0.2430  0.1156
    5bbb    H11  133   0.834   0.211   7.610  2.4393 -0.6153 -0.6098
    5bbb    H12  134   0.943   0.207   7.752  1.7141 -0.8702 -1.8606
    5bbb     C7  135   0.799   0.057   7.218 -0.2514 -0.4750  0.5764
    5bbb    H13  136   0.742  -0.019   7.164  1.6497 -0.9059 -0.9399
    5bbb    H14  137   0.886   0.081   7.156 -0.5460 -0.0948  0.3044
    5bbb     C8  138   0.729   0.167   7.792  0.5329 -0.0580  0.0616
    5bbb    H15  139   0.758   0.127   7.891  1.9526 -2.0797 -1.0927
    5bbb    H16  140   0.656   0.092   7.758  0.1929  0.1090  0.4108
    5bbb     C9  141   0.696  -0.287   7.784  0.1477  0.0123 -0.4458
    5bbb    H17  142   0.619  -0.340   7.727  0.8698 -2.1395  0.5015
    5bbb    H18  143   0.670  -0.184   7.810  1.7229  0.1277  0.8864
    5bbb     O1  144   0.716   0.174   7.233 -0.2715  0.2232 -0.7330
    6bbb     N1  145   1.395   1.174   6.688 -0.4469  0.1385 -0.2622
    6bbb     C1  146   1.361   1.285   6.600 -0.0161  0.3352 -0.4750
    6bbb     H1  147   1.253   1.303   6.611 -0.2588 -1.2769 -0.0150
    6bbb     H2  148   1.378   1.260   6.495  0.7341  3.1111 -1.0958
    6bbb     C2  149   1.541   1.154   6.712  0.5638  0.9366 -0.4637
    6bbb     H3  150   1.555   1.084   6.796 -0.0348  2.3816  0.8988
    6bbb     H4  151   1.591   1.243   6.751  0.8071 -0.1298  1.8732
    6bbb     C3  152   1.318   1.049   6.667 -0.0553 -0.2844 -0.5441
    6bbb     H5  153   1.341   1.000   6.571  2.4855 -3.6162  1.5317
    6bbb     H6  154   1.214   1.082   6.674  0.1339  0.2827 -0.4044
    6bbb     C4  155   1.334   0.948   6.782  0.1871  0.0294  0.2891
    6bbb     H7  156   1.340   1.000   6.878  0.2370  3.5791 -1.4725
    6bbb     H8  157   1.422   0.884   6.762  0.4805  0.6567 -0.4682
    6bbb     C5  158   1.431   1.420   6.623  0.3556  0.2822  0.3242
    6bbb     H9  159   1.395   1.489   6.546 -0.7324  0.9308  1.3778
    6bbb    H10  160   1.539   1.406   6.612  0.3474 -1.0723  1.6514
    6bbb     C6  161   1.614   1.093   6.594 -0.0088 -0.4397 -0.2244
    6bbb    H11  162   1.587   1.144   6.501  0.1594 -1.1033 -0.6401
    6bbb    H12  163   1.579   0.989   6.586 -2.5118  0.2570  0.6552
    6bbb     C7  164   1.217   0.841   6.787  0.2654 -1.5286  0.2987
    6bbb    H13  165   1.248   0.750   6.734  1.8204 -1.1198  0.4527
    6bbb    H14  166   1.127   0.891   6.751  1.6555  1.2526  0.4627
    6bbb     C8  167   1.762   1.098   6.606 -0.0881 -0.5041  0.6251
    6bbb    H15  168   1.793   1.201   6.630 -2.9568  0.3778  0.9682
    6bbb    H16  169   1.802   1.066   6.509 -0.0376 -2.8040  1.3510
    6bbb     C9  170   1.395   1.486   6.760 -0.3126  0.5297  0.4488
    6bbb    H17  171   1.425   1.416   6.838  0.0969  0.3945  0.1677
    6bbb    H18  172   1.287   1.510   6.762 -0.6355 -0.5293 -1.5388
    6bbb     O1  173   1.200   0.803   6.926  0.5598  0.3566  0.7183
    7bbb     N1  174   1.617   0.541   9.001  0.0841  0.4889 -0.5989
    7bbb     C1  175   1.717   0.479   8.905 -0.7333  0.6961  0.0301
    7bbb     H1  176   1.773   0.405   8.964  1.7379  2.3309 -0.1162
    7bbb     H2  177   1.788   0.553   8.865  1.5546 -2.6280 -2.5933
    7bbb     C2  178   1.663   0.566   9.139  0.6519  0.3846 -0.2191
    7bbb     H3  179   1.579   0.605   9.198 -0.9913 -0.6354 -1.7716
    7bbb     H4  180   1.740   0.644   9.147 -0.3131  1.3021  0.3500
    7bbb     C3  181   1.571   0.665   8.943 -0.2524  0.3363 -0.2322
    7bbb     H5  182   1.474   0.694   8.987 -1.5409 -1.7334 -1.5469
    7bbb     H6  183   1.538   0.652   8.839 -0.5235 -0.2457 -0.0754
    7bbb     C4  184   1.667   0.792   8.954 -0.1723 -0.0650 -0.3346
    7bbb     H7  185   1.766   0.771   8.912 -0.4771 -0.2886 -0.9566
    7bbb     H8  186   1.668   0.828   9.057 -2.3203 -0.0331 -0.2906
    7bbb     C5  187   1.662   0.413   8.781  0.3548 -0.8898  0.6222
    7bbb     H9  188   1.618   0.485   8.710  1.3450 -1.5467 -0.7088
    7bbb    H10  189   1.591   0.333   8.807 -0.4984  0.0520  1.2318
    7bbb     C6  190   1.714   0.448   9.225  0.5270 -0.3487 -0.4020
    7bbb    H11  191   1.792   0.388   9.176  0.7457 -0.7430  0.4111
    7bbb    H12  192   1.626   0.384   9.238  1.1271 -0.7373  2.1135
    7bbb     C7  193   1.615   0.906   8.869 -0.1006 -0.1412  0.0393
    7bbb    H13  194   1.671   0.997   8.893  0.2307 -0.7509  1.7374
    7bbb    H14  195   1.507   0.913   8.883  0.0678  0.0301  1.4203
    7bbb     C8  196   1.758   0.481   9.371  0.7671 -0.0582  0.5187
    7bbb    H15  197   1.674   0.531   9.420  1.2574  2.8357 -1.3392
    7bbb    H16  198   1.843   0.551   9.375  0.3018  0.6504 -1.1527
    7bbb     C9  199   1.778   0.336   8.709  0.0080 -0.4165 -0.2513
    7bbb    H17  200   1.842   0.409   8.659  0.9918 -0.7904  0.4348
    7bbb    H18  201   1.746   0.272   8.625  1.0421  0.0586 -1.0219
    7bbb     O1  202   1.654   0.868   8.733  0.4877 -0.0393 -1.1253
    8bbb     N1  203   0.933   0.222   8.166 -0.7199  0.2521  0.7454
    8bbb     C1  204   0.852   0.133   8.255  0.7441  0.1842 -0.4685
    8bbb     H1  205   0.826   0.187   8.347 -2.5277 -0.5662 -0.8161
    8bbb     H2  206   0.908   0.042   8.280  2.2903  1.0723 -0.5805
    8bbb     C2  207   0.855   0.344   8.125 -0.4892 -0.2590  0.7783
    8bbb     H3  208   0.835   0.407   8.212  2.3054  1.9010 -0.0117
    8bbb     H4  209   0.768   0.311   8.066  0.8262 -4.7127  0.9273
    8bbb     C3  210   1.057   0.267   8.228 -0.3712 -0.9817 -0.4526
    8bbb     H5  211   1.044   0.337   8.312  2.3069 -2.2755  1.1951
    8bbb     H6  212   1.113   0.322   8.152  1.4173 -1.5744  0.3495
    8bbb     C4  213   1.152   0.151   8.281  0.4437 -0.1963 -0.5876
    8bbb     H7  214   1.154   0.069   8.208  0.9011 -1.0146  0.3282
    8bbb     H8  215   1.115   0.094   8.367 -0.4484 -2.0058 -2.1013
    8bbb     C5  216   0.713   0.091   8.196 -0.3181  0.5734  0.4496
    8bbb     H9  217   0.719   0.061   8.090 -1.0092 -1.2290  0.8792
    8bbb    H10  218   0.643   0.176   8.196 -0.0849  0.7840  1.9261
    8bbb     C6  219   0.931   0.438   8.032 -0.8894  0.0968  0.4753
    8bbb    H11  220   0.958   0.373   7.948  0.6321 -0.2730  1.2129
    8bbb    H12  221   1.027   0.480   8.064 -0.4568 -0.1705 -0.4328
    8bbb     C7  222   1.295   0.193   8.300 -0.7094  0.2622  0.4175
    8bbb    H13  223   1.314   0.257   8.213  1.0632  0.1968  0.7092
    8bbb    H14  224   1.348   0.097   8.306 -2.5040 -0.9124 -1.2718
    8bbb     C8  225   0.840   0.551   7.981 -0.0160  0.7836 -0.1036
    8bbb    H15  226   0.748   0.511   7.936  0.5980  0.7833 -1.3895
    8bbb    H16  227   0.897   0.604   7.905  2.0823  0.6463  1.3004
    8bbb     C9  228   0.663  -0.037   8.272  0.1407 -0.7206 -0.2115
    8bbb    H17  229   0.743  -0.108   8.295 -1.1477 -1.3322  3.0122
    8bbb    H18  230   0.580  -0.088   8.221 -1.1000 -0.2989  1.2863
    8bbb     O1  231   1.305   0.257   8.425 -0.3878  0.6558 -0.1901
    9bbb     N1  232   2.172   1.448   8.304  0.3972  0.1536 -0.0152
    9bbb     C1  233   2.318   1.463   8.332  0.6656 -0.1060 -0.4825
    9bbb     H1  234   2.335   1.448   8.439 -1.7562 -0.0082 -0.0347
    9bbb     H2  235   2.361   1.562   8.309  1.1739 -0.4534 -1.0486
    9bbb     C2  236   2.085   1.553   8.363 -0.9137  0.4851  0.2561
    9bbb     H3  237   2.119   1.653   8.334 -1.2117  0.4973 -0.0504
    9bbb     H4  238   2.091   1.537   8.472 -0.2708  0.5882  0.2409
    9bbb     C3  239   2.116   1.310   8.299 -0.2576 -0.0604 -0.4295
    9bbb     H5  240   2.175   1.247   8.232 -0.7387  0.8287 -1.7200
    9bbb     H6  241   2.014   1.323   8.261 -0.7379 -2.0129  0.0438
    9bbb     C4  242   2.119   1.247   8.445 -0.1648 -0.5382 -0.4494
    9bbb     H7  243   2.040   1.283   8.513  1.0972 -1.9762  1.9354
    9bbb     H8  244   2.219   1.262   8.488 -0.1411 -1.0636 -0.3222
    9bbb     C5  245   2.411   1.361   8.256 -0.6393  0.4195 -0.5875
    9bbb     H9  246   2.392   1.255   8.277 -4.4979  1.0533 -0.1685
    9bbb    H10  247   2.513   1.377   8.294 -0.5386  0.1190 -0.7307
    9bbb     C6  248   1.929   1.552   8.327  0.0377  0.2187 -0.3022
    9bbb    H11  249   1.878   1.469   8.378  2.1428 -2.2550 -1.9302
    9bbb    H12  250   1.934   1.534   8.219 -1.3885 -1.5102 -0.1241
    9bbb     C7  251   2.084   1.099   8.441  0.8316 -0.8507 -0.5852
    9bbb    H13  252   2.161   1.046   8.384  2.5717  1.3118 -0.3864
    9bbb    H14  253   1.987   1.082   8.393 -0.7074  2.9314  0.7874
    9bbb     C8  254   1.869   1.688   8.351 -0.4002  0.6296 -0.1737
    9bbb    H15  255   1.926   1.761   8.293 -0.0319 -0.9403 -1.8994
    9bbb    H16  256   1.885   1.719   8.455 -0.5154 -1.5315  0.5490
    9bbb     C9  257   2.407   1.374   8.102  0.6991 -0.6288  0.0177
    9bbb    H17  258   2.422   1.476   8.066 -1.0936 -1.8009 -4.8448
    9bbb    H18  259   2.306   1.342   8.070  1.0864 -0.5771 -1.3450
    9bbb     O1  260   2.074   1.054   8.580  0.0017  0.5431 -0.0090
   10bbb     N1  261   2.323   0.529   9.418  0.1255  0.0084 -0.1332
   10bbb     C1  262   2.370   0.397   9.471  0.9469  0.7886  0.4192
   10bbb     H1  263   2.479   0.388   9.476  0.7291 -2.1884  1.0659
   10bbb     H2  264   2.334   0.318   9.404  1.0814  1.8905 -1.0266
   10bbb     C2  265   2.378   0.653   9.470  0.1911 -0.1821 -0.2493
   10bbb     H3  266   2.463   0.674   9.403 -0.7897  0.1464 -1.4181
   10bbb     H4  267   2.416   0.656   9.574  1.3554 -1.6771 -0.5954
   10bbb     C3  268   2.286   0.524   9.281  0.5126  0.7339 -0.0436
   10bbb     H5  269   2.346   0.449   9.228 -2.4477 -1.2961 -0.8064
   10bbb     H6  270   2.286   0.620   9.229 -2.0147 -0.5907 -2.7426
   10bbb     C4  271   2.137   0.473   9.273  0.0542 -0.2639 -0.2103
   10bbb     H7  272   2.077   0.561   9.300  0.5621  0.0582 -0.1145
   10bbb     H8  273   2.124   0.396   9.350  0.6121  0.2484  0.4127
   10bbb     C5  274   2.312   0.372   9.617 -0.1361  0.2235  0.2819
   10bbb     H9  275   2.204   0.360   9.623 -0.5224  2.6777 -0.7885
   10bbb    H10  276   2.341   0.460   9.676 -0.5835  0.9165 -0.5169
   10bbb     C6  277   2.286   0.776   9.457  0.0067 -0.0755  0.1709
   10bbb    H11  278   2.224   0.787   9.367  0.8014  0.4164 -0.3296
   10bbb    H12  279   2.338   0.870   9.438 -0.5905  0.4018  0.8690
   10bbb     C7  280   2.094   0.421   9.130 -0.2578 -0.5286  0.0159
   10bbb    H13  281   1.987   0.397   9.132  0.0462 -1.9345  2.1679
   10bbb    H14  282   2.157   0.335   9.105  2.5645  1.8971 -1.8515
   10bbb     C8  283   2.198   0.801   9.574  0.0551  0.4684  0.3035
   10bbb    H15  284   2.115   0.733   9.549 -0.9192  2.3617 -2.0153
   10bbb    H16  285   2.161   0.903   9.556  0.2787  1.0019  2.5889
   10bbb     C9  286   2.377   0.249   9.684  0.0434 -0.7992  0.3517
   10bbb    H17  287   2.356   0.168   9.613  1.5877  0.3219 -1.4745
   10bbb    H18  288   2.332   0.218   9.779  3.3000 -3.4193  1.2586
   10bbb     O1  289   2.124   0.520   9.032  0.1660 -0.9041  0.1646
   11bbb     N1  290   0.254   0.085   7.831 -0.0434 -0.4092  0.1060
   11bbb     C1  291   0.150   0.178   7.877  0.0803 -0.2713  0.2304
   11bbb     H1  292   0.136   0.255   7.800  0.4065  0.1642  0.6008
   11bbb     H2  293   0.174   0.226   7.973  1.4979 -2.8599  1.2617
   11bbb     C2  294   0.231   0.041   7.687 -0.3168  0.0252 -0.4744
   11bbb     H3  295   0.244   0.130   7.623  0.4432  0.2674 -0.0025
   11bbb     H4  296   0.131  -0.000   7.675 -0.0046 -2.0938  2.8503
   11bbb     C3  297   0.388   0.131   7.873 -0.1971  0.0062 -0.1488
   11bbb     H5  298   0.452   0.043   7.860  0.3830 -0.0529  2.3873
   11bbb     H6  299   0.372   0.150   7.980 -1.1822 -2.3387  0.1876
   11bbb     C4  300   0.437   0.251   7.801 -0.5545 -0.7709 -0.6895
   11bbb     H7  301   0.357   0.326   7.795 -1.4593 -1.4170  1.8120
   11bbb     H8  302   0.466   0.232   7.697  1.8253  1.5224 -0.5330
   11bbb     C5  303   0.011   0.121   7.878 -0.2147 -0.5692  0.0892
   11bbb     H9  304   0.014   0.019   7.918 -0.4913 -0.9796 -0.9117
   11bbb    H10  305  -0.019   0.106   7.774 -0.5324 -1.5102  0.3079
   11bbb     C6  306   0.314  -0.076   7.633 -0.3452  0.5255  0.1970
   11bbb    H11  307   0.422  -0.054   7.628 -0.2036 -0.0721  0.4619
   11bbb    H12  308   0.289  -0.102   7.529  1.8345 -2.5157  0.2848
   11bbb     C7  309   0.557   0.315   7.875 -0.1124 -0.1911 -0.7756
   11bbb    H13  310   0.563   0.274   7.977 -1.8329  0.9572 -0.1684
   11bbb    H14  311   0.543   0.423   7.877  0.6741 -0.0448 -2.0141
   11bbb     C8  312   0.295  -0.200   7.725  0.2497 -0.4169 -0.0107
   11bbb    H15  313   0.323  -0.179   7.829 -0.8181 -1.4114  0.4992
   11bbb    H16  314   0.365  -0.278   7.694  3.3446  2.3243 -0.4417
   11bbb     C9  315  -0.091   0.202   7.956  0.3087 -0.0747 -0.0784
   11bbb    H17  316  -0.104   0.303   7.916 -0.0318  0.1378  0.5490
   11bbb    H18  317  -0.057   0.228   8.057  0.5216  0.7170 -0.3464
   11bbb     O1  318   0.677   0.300   7.795 -0.0428  0.3139 -0.1009
   12bbb     N1  319   0.551  -0.497   8.348 -0.5473 -0.0215 -0.1214
   12bbb     C1  320   0.455  -0.489   8.455  0.0246 -0.0790  0.0509
   12bbb     H1  321   0.361  -0.517   8.405  0.2968 -1.7307  0.4007
   12bbb     H2  322   0.448  -0.385   8.488 -0.0758 -0.1003  0.0970
   12bbb     C2  323   0.573  -0.642   8.306  0.0963 -1.0186 -0.0425
   12bbb     H3  324   0.608  -0.702   8.391  2.5963  0.5683  0.1751
   12bbb     H4  325   0.644  -0.666   8.227 -0.5193 -0.6965 -0.7056
   12bbb     C3  326   0.523  -0.405   8.236  0.5310 -0.0918 -0.2537
   12bbb     H5  327   0.527  -0.299   8.265  1.8625 -0.2841  0.3033
   12bbb     H6  328   0.418  -0.423   8.209  0.1523 -0.8164  1.5680
   12bbb     C4  329   0.627  -0.413   8.121 -0.3652  0.4287  0.0634
   12bbb     H7  330   0.622  -0.514   8.078 -0.4296  0.3338  0.2938
   12bbb     H8  331   0.728  -0.397   8.162  0.0117  0.4047 -0.8196
   12bbb     C5  332   0.489  -0.579   8.578  0.4759  0.1213  0.3490
   12bbb     H9  333   0.598  -0.571   8.591  0.6811  0.1247 -1.2573
   12bbb    H10  334   0.472  -0.682   8.546  1.1401  0.1885 -0.2468
   12bbb     C6  335   0.443  -0.712   8.247 -0.0013 -0.6679 -0.7063
   12bbb    H11  336   0.413  -0.651   8.161  0.8231 -0.8403 -1.1238
   12bbb    H12  337   0.357  -0.708   8.316 -1.9727 -2.2025 -2.9034
   12bbb     C7  338   0.601  -0.319   8.003  0.4453  0.0598 -0.0471
   12bbb    H13  339   0.601  -0.212   8.026 -3.0887  0.0775  0.4478
   12bbb    H14  340   0.508  -0.336   7.949  1.5320  0.6141 -2.1899
   12bbb     C8  341   0.470  -0.860   8.219 -0.0867  1.2406 -0.2884
   12bbb    H15  342   0.559  -0.874   8.155 -1.0612 -1.7301 -1.1664
   12bbb    H16  343   0.392  -0.912   8.162 -0.0699 -0.4852  1.1787
   12bbb     C9  344   0.403  -0.533   8.696  0.6751  0.3194  0.7945
   12bbb    H17  345   0.447  -0.436   8.719 -0.0333  0.8954 -0.1969
   12bbb    H18  346   0.410  -0.599   8.783 -0.8876 -0.1129  0.6160
   12bbb     O1  347   0.711  -0.351   7.912  0.4313  0.2386 -0.2077
   13bbb     N1  348   1.972   0.880   7.084 -0.0978  0.1793 -0.1848
   13bbb     C1  349   1.869   0.875   7.185 -0.6363  0.1929 -0.4068
   13bbb     H1  350   1.863   0.775   7.229 -0.0809  0.3027 -0.0619
   13bbb     H2  351   1.770   0.887   7.140 -1.4262  0.6492  1.3689
   13bbb     C2  352   2.111   0.873   7.128  0.4693 -0.0505  0.4293
   13bbb     H3  353   2.136   0.957   7.195  0.6921  0.6637 -0.5256
   13bbb     H4  354   2.181   0.889   7.045 -0.9876 -1.9866 -1.2763
   13bbb     C3  355   1.946   0.985   6.983  0.2003 -0.9378 -0.1197
   13bbb     H5  356   1.974   1.086   7.015  2.8899 -1.0155 -1.9083
   13bbb     H6  357   1.839   0.987   6.960  0.2157 -1.5181 -0.2623
   13bbb     C4  358   2.005   0.948   6.845  0.1815  0.0507  0.1331
   13bbb     H7  359   1.978   0.843   6.823 -0.3109 -0.1165  1.4226
   13bbb     H8  360   2.114   0.958   6.838  0.0940  1.2747  0.3588
   13bbb     C5  361   1.889   0.977   7.293  0.5333  0.2156  0.3500
   13bbb     H9  362   1.910   1.072   7.242  2.0453 -1.1577 -1.7584
   13bbb    H10  363   1.980   0.962   7.352  1.3402 -1.4181 -1.2107
   13bbb     C6  364   2.163   0.733   7.191  0.0491 -0.9433  0.5154
   13bbb    H11  365   2.134   0.655   7.120 -0.4268 -0.9466  0.7088
   13bbb    H12  366   2.111   0.709   7.285  2.2209  0.0866  2.0622
   13bbb     C7  367   1.950   1.029   6.717  0.0536  0.2356 -0.2110
   13bbb    H13  368   2.002   0.987   6.630  2.9305  0.9503  1.0529
   13bbb    H14  369   1.968   1.136   6.734 -0.3001  0.1184  1.0773
   13bbb     C8  370   2.318   0.731   7.209  0.2979  0.1302 -0.7694
   13bbb    H15  371   2.360   0.783   7.123 -0.8143 -0.6417 -1.8080
   13bbb    H16  372   2.360   0.630   7.217  2.3537  0.9398 -0.6635
   13bbb     C9  373   1.760   0.987   7.383  0.1068  0.2942  0.4774
   13bbb    H17  374   1.724   0.898   7.435 -0.1810  0.0803 -0.0784
   13bbb    H18  375   1.679   1.021   7.317  0.3335 -2.0091 -1.1137
   13bbb     O1  376   1.812   1.004   6.697 -0.0772 -0.1415 -0.1879
   14bbb     N1  377   1.559   2.004   6.661 -0.8330 -0.1662 -0.1318
   14bbb     C1  378   1.688   2.030   6.595 -0.9131  0.2276  0.1870
   14bbb     H1  379   1.697   1.964   6.508  2.4390  0.5522  0.1538
   14bbb     H2  380   1.764   1.994   6.665 -1.5156 -3.0475 -0.6808
   14bbb     C2  381   1.442   2.042   6.577  0.2459 -0.1673  0.4029
   14bbb     H3  382   1.467   2.139   6.532  1.6928  0.7116  2.8792
   14bbb     H4  383   1.358   2.054   6.646  0.4413  1.1812  0.4337
   14bbb     C3  384   1.548   1.868   6.728 -0.1940 -0.0860 -0.3882
   14bbb     H5  385   1.629   1.847   6.799 -1.2251 -2.6218  0.1540
   14bbb     H6  386   1.541   1.792   6.648 -2.2361  1.3387 -1.6490
   14bbb     C4  387   1.418   1.833   6.808 -0.2150 -1.1437  0.5592
   14bbb     H7  388   1.338   1.827   6.733 -0.4613  0.5291  0.6564
   14bbb     H8  389   1.394   1.917   6.874  0.0055  0.6423 -1.5033
   14bbb     C5  390   1.723   2.173   6.552  0.0784  0.1104  0.3100
   14bbb     H9  391   1.719   2.228   6.647 -2.6400  0.2677  0.1830
   14bbb    H10  392   1.648   2.222   6.488 -0.2628  0.9348  1.3124
   14bbb     C6  393   1.389   1.958   6.460  0.3425  0.3066 -1.5640
   14bbb    H11  394   1.281   1.976   6.454 -0.1382 -1.0633  1.4150
   14bbb    H12  395   1.399   1.851   6.484 -0.5031 -0.0247 -2.5908
   14bbb     C7  396   1.435   1.698   6.881  0.0790  0.5667 -0.1019
   14bbb    H13  397   1.346   1.668   6.937 -0.1019  1.0233 -0.1474
   14bbb    H14  398   1.516   1.710   6.954  1.0924 -0.3832 -1.0131
   14bbb     C8  399   1.474   1.978   6.329 -0.1902  0.4146 -0.1862
   14bbb    H15  400   1.459   1.908   6.247 -2.5897  0.7398 -0.1083
   14bbb    H16  401   1.581   1.977   6.352 -0.1274 -1.2251 -0.4464
   14bbb     C9  402   1.858   2.177   6.474 -0.5552  0.0198  0.7289
   14bbb    H17  403   1.936   2.128   6.533  0.4498  1.3437  0.5546
   14bbb    H18  404   1.885   2.283   6.462  0.6012  0.0014  2.8248
   14bbb     O1  405   1.472   1.610   6.770 -0.2030 -0.0094 -0.3847
   15bbb     N1  406   1.901   0.347   9.863 -0.5252 -0.0981  0.7742
   15bbb     C1  407   1.893   0.361  10.016 -0.0417 -0.1239  0.1122
   15bbb     H1  408   1.954   0.440  10.061 -1.4733  1.4127 -0.5529
   15bbb     H2  409   1.909   0.266  10.069 -1.1451  0.1225  0.9193
   15bbb     C2  410   2.031   0.280   9.824  0.1967  0.2808  0.8897
   15bbb     H3  411   2.119   0.338   9.855 -0.8377  1.7764  1.1447
   15bbb     H4  412   2.034   0.269   9.714  1.1625 -0.7360  1.0068
   15bbb     C3  413   1.882   0.473   9.794  0.1475  0.2867  0.1751
   15bbb     H5  414   1.960   0.546   9.820  2.3354 -0.5669 -3.3723
   15bbb     H6  415   1.789   0.520   9.827 -1.2199 -1.7217 -0.6457
   15bbb     C4  416   1.890   0.465   9.637  0.5783 -0.9697  0.0416
   15bbb     H7  417   1.995   0.462   9.604  0.3227 -2.4641 -0.7207
   15bbb     H8  418   1.856   0.563   9.602  0.9557 -0.8542 -0.0088
   15bbb     C5  419   1.741   0.385  10.058  0.3617 -0.9008 -0.1439
   15bbb     H9  420   1.679   0.297  10.080 -1.6935  0.4800 -0.1164
   15bbb    H10  421   1.687   0.430   9.974  0.8431  1.8928  0.9270
   15bbb     C6  422   2.049   0.134   9.864 -0.5774  0.0780 -0.9542
   15bbb    H11  423   2.051   0.140   9.973 -1.3966  2.6729 -1.0144
   15bbb    H12  424   2.149   0.113   9.823  0.1509  3.8933 -1.5147
   15bbb     C7  425   1.797   0.358   9.582 -0.1433 -0.0119 -0.2094
   15bbb    H13  426   1.700   0.379   9.629  0.6761 -1.0635  2.0526
   15bbb    H14  427   1.838   0.265   9.623  0.9015  0.0762 -1.0241
   15bbb     C8  428   1.937   0.039   9.809 -0.7278  0.1297 -0.1145
   15bbb    H15  429   1.947   0.031   9.701  0.1041  2.2052 -0.2484
   15bbb    H16  430   1.835   0.075   9.826 -1.4244 -1.0983 -1.5622
   15bbb     C9  431   1.732   0.485  10.174 -0.0012  0.3031  0.2028
   15bbb    H17  432   1.631   0.525  10.187 -0.6791 -1.0228 -0.7717
   15bbb    H18  433   1.802   0.565  10.146  1.6786 -1.4261 -0.8219
   15bbb     O1  434   1.787   0.371   9.439  0.1753  0.1842 -0.2999
   16bbb     N1  435   2.192  -0.061   8.953 -0.1267  0.4436 -0.3929
   16bbb     C1  436   2.265   0.037   9.039 -0.0745  0.1311  0.1639
   16bbb     H1  437   2.301  -0.006   9.133  0.8822 -1.0873 -0.7254
   16bbb     H2  438   2.195   0.119   9.060 -2.0152 -0.7852 -2.2690
   16bbb     C2  439   2.121  -0.162   9.039  0.0658  0.2074 -0.2021
   16bbb     H3  440   2.036  -0.110   9.083 -0.5880 -1.9628  1.2564
   16bbb     H4  441   2.187  -0.206   9.114  1.0187  1.1694 -0.4539
   16bbb     C3  442   2.119  -0.007   8.833  0.6934  0.3482 -0.4476
   16bbb     H5  443   2.083  -0.086   8.766 -1.1986  1.3008 -0.6155
   16bbb     H6  444   2.179   0.057   8.768  0.7253  2.2910  1.3728
   16bbb     C4  445   1.992   0.077   8.869 -0.4071  0.0248  0.0734
   16bbb     H7  446   2.005   0.145   8.954 -0.3723  0.2205 -0.0904
   16bbb     H8  447   1.907   0.013   8.896 -1.1095  1.5513  1.6449
   16bbb     C5  448   2.391   0.096   8.968 -0.5707  0.0639  0.5336
   16bbb     H9  449   2.363   0.131   8.868 -1.5114 -3.8154 -0.7457
   16bbb    H10  450   2.462   0.017   8.941  0.8188  1.2480  0.5805
   16bbb     C6  451   2.079  -0.289   8.954 -0.5545 -0.3998 -0.4780
   16bbb    H11  452   2.170  -0.344   8.927  0.0052  0.2503  0.0579
   16bbb    H12  453   2.028  -0.260   8.861 -0.9754 -0.8755 -0.4008
   16bbb     C7  454   1.959   0.182   8.758  0.0498  0.8096  0.3527
   16bbb    H13  455   1.945   0.129   8.663  0.5961 -0.4463  0.9368
   16bbb    H14  456   2.046   0.248   8.752  1.0200  0.0011  3.6001
   16bbb     C8  457   1.996  -0.383   9.042  0.2509  0.3520 -0.3952
   16bbb    H15  458   1.962  -0.469   8.982 -2.1948  0.7418  0.3124
   16bbb    H16  459   1.906  -0.326   9.067 -0.2922 -0.4996 -0.3581
   16bbb     C9  460   2.470   0.205   9.053  0.1110 -0.2051  0.0713
   16bbb    H17  461   2.410   0.295   9.070 -1.5664 -1.2458 -0.1011
   16bbb    H18  462   2.559   0.239   8.998  0.1677  0.6422  0.6738
   16bbb     O1  463   1.844   0.252   8.798 -0.5517 -0.1825 -0.3758
   17bbb     N1  464   0.416   0.499   8.106  0.0781  0.3077 -1.0461
   17bbb     C1  465   0.303   0.594   8.131  0.1907  0.5179  0.6802
   17bbb     H1  466   0.313   0.696   8.093 -2.3545  0.7216  0.3386
   17bbb     H2  467   0.276   0.601   8.237  2.1425  2.4090  1.1178
   17bbb     C2  468   0.407   0.369   8.174  0.2517 -0.9143 -0.6344
   17bbb     H3  469   0.507   0.325   8.181  0.4511 -0.2223  2.1976
   17bbb     H4  470   0.348   0.301   8.111  0.5053 -1.1395 -0.6344
   17bbb     C3  471   0.534   0.569   8.153 -0.3075  0.5973 -0.1713
   17bbb     H5  472   0.614   0.495   8.142 -1.6786 -0.7255 -1.9715
   17bbb     H6  473   0.527   0.592   8.260  0.9797 -3.9638  1.1208
   17bbb     C4  474   0.567   0.683   8.061 -0.0994 -0.1201  0.8838
   17bbb     H7  475   0.499   0.766   8.082 -0.0699  0.2089 -0.2473
   17bbb     H8  476   0.545   0.655   7.957  0.8550 -3.1555  1.4065
   17bbb     C5  477   0.181   0.544   8.055 -0.3627 -0.1611  0.2309
   17bbb     H9  478   0.155   0.441   8.082 -0.4186 -0.3429 -0.5006
   17bbb    H10  479   0.214   0.548   7.951 -0.3323  0.9217  0.2644
   17bbb     C6  480   0.353   0.361   8.318 -0.3479  0.1538  0.3178
   17bbb    H11  481   0.250   0.399   8.323 -0.4275  0.8931 -3.5184
   17bbb    H12  482   0.408   0.426   8.387  0.1835  0.0137  0.0336
   17bbb     C7  483   0.708   0.736   8.071  0.6567 -0.1587  1.1054
   17bbb    H13  484   0.713   0.797   8.161  0.6659 -0.2927  1.1969
   17bbb    H14  485   0.727   0.804   7.987 -1.2221 -0.3733  0.4644
   17bbb     C8  486   0.349   0.220   8.376 -0.8074  0.2546 -0.5953
   17bbb    H15  487   0.316   0.223   8.480  1.4775  2.9753  0.1851
   17bbb    H16  488   0.451   0.179   8.382 -1.5759 -1.5935  0.5137
   17bbb     C9  489   0.058   0.629   8.075 -0.1278 -0.0035 -0.2310
   17bbb    H17  490   0.078   0.736   8.060 -3.7089  1.0695  1.7191
   17bbb    H18  491   0.010   0.625   8.173 -0.8825 -0.3636 -0.6074
   17bbb     O1  492   0.814   0.634   8.089 -0.3524  0.5158 -0.0790
   18bbb     N1  493   0.532  -0.113   8.884 -0.3998  0.9376  0.3619
   18bbb     C1  494   0.641  -0.021   8.938  0.3005  0.0384  0.0041
   18bbb     H1  495   0.706   0.025   8.862  1.3979 -1.7044 -0.1609
   18bbb     H2  496   0.712  -0.075   9.000 -1.1376 -0.2573  1.4584
   18bbb     C2  497   0.496  -0.226   8.974 -0.1473 -0.1711 -0.1675
   18bbb     H3  498   0.404  -0.280   8.946  1.2703 -2.5819 -0.4978
   18bbb     H4  499   0.490  -0.193   9.078 -0.9315  0.8595 -0.5289
   18bbb     C3  500   0.567  -0.160   8.746 -0.0831 -0.1283 -0.1109
   18bbb     H5  501   0.495  -0.239   8.720  0.0272 -0.3050  0.1135
   18bbb     H6  502   0.664  -0.211   8.747 -0.5047 -1.0733  2.5217
   18bbb     C4  503   0.555  -0.049   8.643  0.1483  0.1531  0.2311
   18bbb     H7  504   0.623   0.036   8.659  2.1568 -1.6027  1.6134
   18bbb     H8  505   0.451  -0.015   8.645 -0.0124 -0.0424  3.9894
   18bbb     C5  506   0.594   0.084   9.035  0.4877  0.1716 -0.3238
   18bbb     H9  507   0.542   0.040   9.121  1.3251 -0.5479 -0.1760
   18bbb    H10  508   0.522   0.143   8.976 -0.8354 -0.9984  0.0535
   18bbb     C6  509   0.602  -0.338   8.986  0.1957  0.1774 -0.2276
   18bbb    H11  510   0.695  -0.292   9.022  0.7480 -0.6318 -0.5902
   18bbb    H12  511   0.618  -0.392   8.892 -3.0934 -2.2382  0.4251
   18bbb     C7  512   0.598  -0.104   8.503 -0.3064  0.0875  0.3147
   18bbb    H13  513   0.505  -0.154   8.474 -1.0057  2.2660 -1.4653
   18bbb    H14  514   0.681  -0.176   8.505  0.8415  1.3376 -0.7225
   18bbb     C8  515   0.567  -0.440   9.092 -0.3032 -0.6854 -0.7487
   18bbb    H15  516   0.474  -0.490   9.066 -1.2007  0.0183  0.9425
   18bbb    H16  517   0.541  -0.394   9.188 -2.2813 -1.8535 -0.6695
   18bbb     C9  518   0.695   0.185   9.088  0.0140 -0.5167 -0.4443
   18bbb    H17  519   0.640   0.270   9.129  0.5561 -1.0616  1.4863
   18bbb    H18  520   0.746   0.238   9.006 -0.6370 -0.5545 -0.8845
   18bbb     O1  521   0.626  -0.000   8.405  0.3056  0.3106 -0.3696
   19bbb     N1  522   1.567   1.601   7.915  0.1258 -0.2974  1.2522
   19bbb     C1  523   1.500   1.471   7.946 -0.2428 -0.1268 -0.1433
   19bbb     H1  524   1.394   1.471   7.919 -0.3872 -3.3909 -0.0162
   19bbb     H2  525   1.501   1.460   8.055 -0.3371 -1.7460 -0.2826
   19bbb     C2  526   1.611   1.624   7.768  0.1124 -0.1185 -0.3976
   19bbb     H3  527   1.678   1.549   7.725  0.2492  0.0298 -0.4446
   19bbb     H4  528   1.666   1.718   7.759  1.2357 -0.4939  1.8656
   19bbb     C3  529   1.523   1.719   7.994  0.0983 -0.3894 -0.9844
   19bbb     H5  530   1.417   1.743   7.986  0.1180  0.5147  1.0832
   19bbb     H6  531   1.586   1.803   7.963  0.8881 -1.4100 -2.3092
   19bbb     C4  532   1.563   1.711   8.142 -0.0334 -0.1466  0.8846
   19bbb     H7  533   1.529   1.616   8.185 -0.3254 -0.7782 -0.6632
   19bbb     H8  534   1.514   1.792   8.198  0.7403  1.2651 -0.4299
   19bbb     C5  535   1.579   1.354   7.881  0.7319 -0.0609 -0.0316
   19bbb     H9  536   1.682   1.380   7.909  0.2159  3.0230 -0.6929
   19bbb    H10  537   1.585   1.369   7.773  0.9959 -0.9514 -0.1486
   19bbb     C6  538   1.490   1.638   7.685  0.1687 -0.5176 -0.2748
   19bbb    H11  539   1.420   1.705   7.736 -1.5790 -1.2030 -1.6930
   19bbb    H12  540   1.431   1.545   7.690 -1.9969  0.7918 -0.2873
   19bbb     C7  541   1.715   1.712   8.161  0.0619  0.0833  0.7560
   19bbb    H13  542   1.758   1.799   8.110 -0.8622  0.5111  0.6713
   19bbb    H14  543   1.747   1.619   8.113 -0.1616 -0.3800  1.4858
   19bbb     C8  544   1.502   1.677   7.534 -0.9369  0.2373  0.7409
   19bbb    H15  545   1.401   1.679   7.493 -0.7246  1.0788  0.2230
   19bbb    H16  546   1.559   1.600   7.480 -0.5223  0.5404  0.7373
   19bbb     C9  547   1.539   1.201   7.911 -0.6286 -0.0573  0.2537
   19bbb    H17  548   1.506   1.183   8.015  0.7524  0.9103  0.8898
   19bbb    H18  549   1.625   1.135   7.897 -1.4523 -1.0674 -0.2395
   19bbb     O1  550   1.735   1.700   8.307  0.0259  0.3034 -0.1947
   20bbb     N1  551   2.701   0.928   7.910 -0.0727 -0.2516  0.2704
   20bbb     C1  552   2.848   0.927   7.901 -0.2079 -0.4465  0.3426
   20bbb     H1  553   2.891   0.873   7.986  0.3310  1.5871  1.4336
   20bbb     H2  554   2.894   1.025   7.886  1.2994 -1.3354 -1.2698
   20bbb     C2  555   2.649   0.800   7.956  0.5851 -0.1619  0.0323
   20bbb     H3  556   2.667   0.799   8.065  0.7472  1.0348  0.0352
   20bbb     H4  557   2.699   0.713   7.912  0.1873  0.6385 -2.1029
   20bbb     C3  558   2.641   1.044   7.992  0.2199 -0.2033  0.6110
   20bbb     H5  559   2.673   1.038   8.097 -0.7223  2.1917  1.0930
   20bbb     H6  560   2.532   1.043   7.986  0.2321 -1.7013  0.1797
   20bbb     C4  561   2.693   1.183   7.951 -0.1076 -1.2527 -0.7704
   20bbb     H7  562   2.675   1.193   7.843  1.8927 -0.0670 -1.0379
   20bbb     H8  563   2.799   1.186   7.978 -0.5278 -0.0689  0.8644
   20bbb     C5  564   2.895   0.848   7.775  0.0142  0.0609  0.2857
   20bbb     H9  565   2.827   0.860   7.691  0.3132  0.0703  0.0418
   20bbb    H10  566   2.897   0.742   7.803  0.5650  0.2783  1.1253
   20bbb     C6  567   2.497   0.764   7.928  0.1099 -0.8366  0.3347
   20bbb    H11  568   2.477   0.767   7.820  0.3025  1.3444  0.2994
   20bbb    H12  569   2.432   0.837   7.978 -1.3497 -1.3465 -0.7432
   20bbb     C7  570   2.625   1.296   8.028 -0.0762 -1.0164  0.7731
   20bbb    H13  571   2.662   1.392   7.989 -0.1114 -1.5234 -0.5467
   20bbb    H14  572   2.660   1.286   8.132  0.7086  0.1207  0.6374
   20bbb     C8  573   2.473   0.618   7.977  0.1179 -0.3449 -0.6045
   20bbb    H15  574   2.506   0.617   8.081  0.1960  0.4149 -0.6133
   20bbb    H16  575   2.541   0.546   7.931  1.0096 -0.2691  0.5530
   20bbb     C9  576   3.040   0.886   7.726 -0.2633  0.2571 -0.0665
   20bbb    H17  577   3.055   0.828   7.634  1.8029 -2.4906  1.8635
   20bbb    H18  578   3.113   0.839   7.793 -0.3953  1.9824  1.3645
   20bbb     O1  579   2.484   1.280   8.029  0.6541 -0.0618 -0.0042
   21bbb     N1  580   2.320   0.546  10.063  0.1588  0.2329  0.1080
   21bbb     C1  581   2.436   0.623  10.123  0.1978 -0.2676  0.4444
   21bbb     H1  582   2.477   0.580  10.215  0.8114  0.4557  0.5163
   21bbb     H2  583   2.404   0.725  10.148 -1.1871 -0.3857 -0.6955
   21bbb     C2  584   2.330   0.399  10.066 -0.1143  0.1349  0.0915
   21bbb     H3  585   2.372   0.371   9.968  0.6952 -0.1244  0.5010
   21bbb     H4  586   2.224   0.372  10.060  0.0568 -1.1600  1.9530
   21bbb     C3  587   2.267   0.592   9.933  0.2388 -0.4100 -0.4304
   21bbb     H5  588   2.181   0.531   9.900 -0.8659  2.0458 -2.4411
   21bbb     H6  589   2.344   0.584   9.856  0.7371 -1.2877  0.1379
   21bbb     C4  590   2.214   0.739   9.932  0.4030 -0.3760 -0.7752
   21bbb     H7  591   2.295   0.810   9.957  0.0606 -0.2822  0.0898
   21bbb     H8  592   2.135   0.761  10.005 -0.0290 -0.1052 -1.3086
   21bbb     C5  593   2.560   0.636  10.027  0.0947  0.0461  0.3488
   21bbb     H9  594   2.519   0.693   9.943  1.5582 -0.7238 -0.9510
   21bbb    H10  595   2.574   0.533   9.993  0.8635 -0.0732  0.9941
   21bbb     C6  596   2.384   0.330  10.192 -0.5869 -0.1757  0.4586
   21bbb    H11  597   2.344   0.374  10.283 -1.2234  1.2377 -0.4676
   21bbb    H12  598   2.494   0.337  10.199 -0.4824 -1.9039  0.9405
   21bbb     C7  599   2.153   0.779   9.795  0.6249  0.0846 -0.6823
   21bbb    H13  600   2.111   0.881   9.794  0.9007  0.2156  0.1291
   21bbb    H14  601   2.069   0.712   9.774  1.0975 -0.6333 -0.3368
   21bbb     C8  602   2.332   0.181  10.193  0.1890 -0.7157  0.0399
   21bbb    H15  603   2.225   0.175  10.167  0.0598 -1.2371  0.6709
   21bbb    H16  604   2.356   0.145  10.294  0.8354  1.9678  0.9340
   21bbb     C9  605   2.683   0.704  10.094  0.1015  1.0459 -0.1817
   21bbb    H17  606   2.648   0.800  10.133  1.3343  0.9020  1.4261
   21bbb    H18  607   2.761   0.722  10.018  0.2086  0.8420 -0.1215
   21bbb     O1  608   2.260   0.774   9.698 -0.0447  0.6262  0.0249
   22bbb     N1  609   2.926   0.166   9.898 -0.2420 -0.2231  0.4235
   22bbb     C1  610   2.890   0.277   9.995  0.1525 -0.6122 -0.6282
   22bbb     H1  611   2.848   0.368   9.951 -0.8051  1.3071  3.7941
   22bbb     H2  612   2.974   0.315  10.053 -0.3677  1.6541 -1.2741
   22bbb     C2  613   3.042   0.194   9.806 -0.5729 -0.0058  0.0474
   22bbb     H3  614   3.027   0.287   9.749  0.6500 -0.3312 -0.8365
   22bbb     H4  615   3.048   0.111   9.735  1.8789 -0.9735  1.2661
   22bbb     C3  616   2.817   0.096   9.824  0.7018 -1.0508 -0.1573
   22bbb     H5  617   2.748   0.054   9.898  2.2089 -2.1223  0.7050
   22bbb     H6  618   2.850   0.009   9.766 -1.5430 -0.1660 -3.0086
   22bbb     C4  619   2.740   0.200   9.730  0.7803 -0.4420  0.2286
   22bbb     H7  620   2.752   0.190   9.622  3.5981 -0.4102  0.4780
   22bbb     H8  621   2.754   0.305   9.758  2.2533 -0.2431 -1.1589
   22bbb     C5  622   2.779   0.236  10.102 -0.5513 -0.2218 -0.3683
   22bbb     H9  623   2.689   0.211  10.044 -0.3862 -0.8876 -0.3471
   22bbb    H10  624   2.754   0.329  10.154  1.2051  1.1522 -1.8449
   22bbb     C6  625   3.182   0.218   9.871  0.5896  0.6264 -0.6152
   22bbb    H11  626   3.197   0.147   9.953  2.5872  0.6903 -0.8672
   22bbb    H12  627   3.173   0.312   9.926 -1.9669 -0.2873  0.6547
   22bbb     C7  628   2.587   0.173   9.759  0.0925 -0.2682  0.2884
   22bbb    H13  629   2.567   0.179   9.867 -0.0305 -1.4241  0.3415
   22bbb    H14  630   2.561   0.072   9.727  2.1014 -0.9144  0.5263
   22bbb     C8  631   3.307   0.206   9.775 -0.5201  0.0676 -0.6013
   22bbb    H15  632   3.397   0.222   9.835 -0.4293  0.5629 -0.8644
   22bbb    H16  633   3.299   0.282   9.696  3.0494  1.2596  0.0423
   22bbb     C9  634   2.830   0.117  10.190  0.1334  0.1245 -0.6956
   22bbb    H17  635   2.869   0.044  10.118 -0.6372 -0.0434 -0.9549
   22bbb    H18  636   2.751   0.068  10.248  0.5718 -0.4458 -0.5708
   22bbb     O1  637   2.511   0.277   9.695  0.0646 -0.4686 -0.1903
   23bbb     N1  638  -0.243  -0.300   7.818  0.1465 -0.0977  0.1643
   23bbb     C1  639  -0.309  -0.177   7.866  0.0073  0.1443 -0.5977
   23bbb     H1  640  -0.281  -0.079   7.825 -0.5589 -0.5876 -2.9177
   23bbb     H2  641  -0.304  -0.173   7.975  1.3268  0.3340 -0.6483
   23bbb     C2  642  -0.300  -0.439   7.854 -0.1653 -0.5397 -0.1436
   23bbb     H3  643  -0.239  -0.526   7.825  0.6648  0.0304 -0.1178
   23bbb     H4  644  -0.392  -0.453   7.796 -0.4690 -1.1293  0.4578
   23bbb     C3  645  -0.097  -0.281   7.841  0.6190  0.5712  0.3170
   23bbb     H5  646  -0.076  -0.263   7.947 -0.7776 -0.1552  0.7507
   23bbb     H6  647  -0.066  -0.189   7.792  0.5277 -0.3416 -1.5303
   23bbb     C4  648  -0.007  -0.400   7.792  0.0894  0.4089  0.9300
   23bbb     H7  649  -0.044  -0.418   7.690  0.5106  0.6339  0.7361
   23bbb     H8  650  -0.020  -0.499   7.838 -1.3879 -0.7414 -1.7260
   23bbb     C5  651  -0.463  -0.172   7.836 -0.2696  0.6941 -0.4256
   23bbb     H9  652  -0.514  -0.085   7.880 -0.7038  1.1511 -1.7676
   23bbb    H10  653  -0.506  -0.261   7.883  2.1124  0.1841  0.9926
   23bbb     C6  654  -0.335  -0.459   8.007 -0.2078 -0.1976  0.4792
   23bbb    H11  655  -0.408  -0.386   8.044  2.2803  1.1575  3.1808
   23bbb    H12  656  -0.249  -0.428   8.067  0.9850 -0.1889 -1.1727
   23bbb     C7  657   0.143  -0.353   7.789 -0.2346 -0.6476  0.4256
   23bbb    H13  658   0.202  -0.435   7.746  1.1018  0.5919 -0.1884
   23bbb    H14  659   0.175  -0.324   7.890 -0.7663  1.2409  0.0868
   23bbb     C8  660  -0.377  -0.610   8.040 -0.4506 -0.2076 -0.1024
   23bbb    H15  661  -0.298  -0.685   8.025 -0.4668 -0.5716  1.4752
   23bbb    H16  662  -0.460  -0.636   7.972  1.0250  0.3424 -2.2268
   23bbb     C9  663  -0.499  -0.184   7.682 -0.0059  0.5453  0.3214
   23bbb    H17  664  -0.607  -0.201   7.666  0.0023  0.1714  0.6388
   23bbb    H18  665  -0.449  -0.274   7.644  0.2734  0.8208  0.0448
   23bbb     O1  666   0.156  -0.236   7.715 -0.3978 -0.0349  0.1275
   24bbb     N1  667  -0.695   0.189   8.114 -0.4243  0.8088 -0.1724
   24bbb     C1  668  -0.760   0.175   7.978  0.3047 -0.0545  0.4624
   24bbb     H1  669  -0.859   0.129   7.988  1.0348 -1.4182  1.9710
   24bbb     H2  670  -0.700   0.100   7.925 -0.0026 -0.7382  1.0563
   24bbb     C2  671  -0.778   0.263   8.212  0.4077 -0.1439  0.1033
   24bbb     H3  672  -0.884   0.248   8.187 -0.3400  2.0303  1.6215
   24bbb     H4  673  -0.752   0.369   8.210  0.6761 -0.2181 -0.3305
   24bbb     C3  674  -0.556   0.236   8.117 -0.1565 -0.0605  0.1132
   24bbb     H5  675  -0.519   0.227   8.220  0.0931  0.1298  0.0405
   24bbb     H6  676  -0.546   0.343   8.094  0.1232  0.3963  2.1445
   24bbb     C4  677  -0.455   0.160   8.019  0.2999 -0.2789  0.4617
   24bbb     H7  678  -0.483   0.179   7.915  1.6263  0.2953  0.1887
   24bbb     H8  679  -0.456   0.051   8.031  0.6725 -0.6983 -2.6560
   24bbb     C5  680  -0.760   0.300   7.885 -0.2661  0.2776 -0.5420
   24bbb     H9  681  -0.659   0.327   7.851 -0.0307 -0.7948 -0.7438
   24bbb    H10  682  -0.792   0.384   7.947 -1.4628 -0.6249  0.1058
   24bbb     C6  683  -0.770   0.207   8.353  0.0976  0.0374  0.1785
   24bbb    H11  684  -0.668   0.188   8.389 -0.7337 -2.5243  1.4820
   24bbb    H12  685  -0.831   0.116   8.367  2.0978 -1.3203  0.3851
   24bbb     C7  686  -0.308   0.218   8.039 -0.2056 -0.4548 -0.6046
   24bbb    H13  687  -0.278   0.195   8.142 -0.0206 -0.4280 -0.6518
   24bbb    H14  688  -0.305   0.327   8.030 -1.8859  0.1738  3.8093
   24bbb     C8  689  -0.817   0.313   8.455 -0.3651  0.1339  0.7547
   24bbb    H15  690  -0.749   0.399   8.456  0.6121 -0.6066  2.3337
   24bbb    H16  691  -0.820   0.256   8.549 -1.6182 -0.2661  0.4879
   24bbb     C9  692  -0.859   0.294   7.764  0.0165 -0.1879  0.2495
   24bbb    H17  693  -0.959   0.273   7.802 -0.6206  0.2724 -1.1151
   24bbb    H18  694  -0.830   0.217   7.692  0.7041  1.0982 -0.8994
   24bbb     O1  695  -0.223   0.145   7.954  0.1229 -0.3462 -0.3707
   25bbb     N1  696   0.370  -1.317   8.592  0.3731 -0.2145  0.0888
   25bbb     C1  697   0.492  -1.319   8.681  0.5995  0.4293  0.0470
   25bbb     H1  698   0.484  -1.408   8.744  0.2033  1.0884  0.9632
   25bbb     H2  699   0.488  -1.235   8.751 -1.2584 -0.0349  0.5685
   25bbb     C2  700   0.339  -1.450   8.538  0.3570 -0.8275 -0.8767
   25bbb     H3  701   0.325  -1.528   8.614  0.2552 -0.6734 -0.7372
   25bbb     H4  702   0.421  -1.479   8.471 -0.5146 -3.1123 -1.0381
   25bbb     C3  703   0.370  -1.212   8.483 -0.5101 -0.1527  0.3145
   25bbb     H5  704   0.280  -1.217   8.420  0.7264 -0.7569 -1.4946
   25bbb     H6  705   0.457  -1.229   8.418 -0.8180  3.2588 -1.1508
   25bbb     C4  706   0.390  -1.069   8.528  0.6097  0.4072  0.5394
   25bbb     H7  707   0.492  -1.047   8.564  0.7592 -0.3246  0.5842
   25bbb     H8  708   0.323  -1.057   8.613  0.7684 -1.7705  1.0273
   25bbb     C5  709   0.628  -1.320   8.607 -0.2486  0.1627  0.1168
   25bbb     H9  710   0.644  -1.223   8.558 -0.4875  0.7051  1.0748
   25bbb    H10  711   0.631  -1.407   8.541  0.1832  1.0731 -1.0989
   25bbb     C6  712   0.208  -1.458   8.455  0.4485  0.0501  0.0840
   25bbb    H11  713   0.216  -1.403   8.361  1.4643  0.2551  0.2812
   25bbb    H12  714   0.123  -1.416   8.511  0.3216  1.0234 -0.8082
   25bbb     C7  715   0.362  -0.966   8.413  1.5908  0.0741 -0.4445
   25bbb    H13  716   0.323  -0.870   8.448  0.3400  0.4000 -2.5341
   25bbb    H14  717   0.285  -1.007   8.347  0.8836 -0.4758  0.6961
   25bbb     C8  718   0.165  -1.599   8.417  0.4417  0.8966 -0.7121
   25bbb    H15  719   0.198  -1.670   8.494  0.7901  0.6121 -1.1281
   25bbb    H16  720   0.224  -1.631   8.331  1.9222 -1.2849  1.0111
   25bbb     C9  721   0.736  -1.322   8.718 -0.6887 -0.0840  0.1287
   25bbb    H17  722   0.743  -1.415   8.775  1.6664  1.3836  2.4377
   25bbb    H18  723   0.721  -1.246   8.795  2.0346 -0.3966  1.0733
   25bbb     O1  724   0.489  -0.945   8.344  0.5155 -0.5795 -0.4208
   26bbb     N1  725  -0.050  -0.826   8.671  0.2253  0.2217  0.0836
   26bbb     C1  726  -0.104  -0.957   8.625 -0.3406 -0.2474 -0.7561
   26bbb     H1  727  -0.207  -0.947   8.590 -1.4678 -1.2785  1.9347
   26bbb     H2  728  -0.112  -1.031   8.707  1.5330 -0.9785 -1.1782
   26bbb     C2  729  -0.116  -0.779   8.795 -0.1041  0.1416  0.3940
   26bbb     H3  730  -0.064  -0.693   8.837  1.8444 -0.4432 -0.7043
   26bbb     H4  731  -0.119  -0.865   8.863  0.1733 -2.1826 -2.3281
   26bbb     C3  732  -0.041  -0.728   8.555 -0.4855  0.2758  0.2662
   26bbb     H5  733  -0.140  -0.693   8.525 -0.5049  1.7292  1.9031
   26bbb     H6  734   0.015  -0.779   8.475  0.7072 -0.0560  1.2739
   26bbb     C4  735   0.040  -0.603   8.600 -0.5001 -0.3942  0.3786
   26bbb     H7  736  -0.012  -0.565   8.689  0.5439 -0.4719  1.0449
   26bbb     H8  737   0.058  -0.519   8.532  0.5231 -0.0096  1.0855
   26bbb     C5  738  -0.026  -1.029   8.516  0.1777  0.3519 -0.7247
   26bbb     H9  739   0.069  -1.045   8.567 -0.2552 -0.5572 -0.1836
   26bbb    H10  740  -0.014  -0.972   8.422  1.7919 -2.4561 -2.3601
   26bbb     C6  741  -0.266  -0.743   8.780 -0.2966 -0.1492 -0.3698
   26bbb    H11  742  -0.313  -0.825   8.724  1.3002 -1.2892 -0.1054
   26bbb    H12  743  -0.283  -0.655   8.717  0.6903 -0.3171 -0.8808
   26bbb     C7  744   0.186  -0.635   8.636 -0.4574  0.4727  0.2076
   26bbb    H13  745   0.224  -0.690   8.549 -0.0549  1.0201  0.0287
   26bbb    H14  746   0.185  -0.702   8.722  1.3713  0.7785  0.4967
   26bbb     C8  747  -0.329  -0.727   8.919  0.5150  0.1375 -0.4140
   26bbb    H15  748  -0.431  -0.687   8.911 -0.4446 -2.1479 -0.5680
   26bbb    H16  749  -0.271  -0.652   8.975  0.6666  1.3464 -2.1095
   26bbb     C9  750  -0.067  -1.177   8.478  0.0373 -0.5431  1.0552
   26bbb    H17  751  -0.038  -1.240   8.564  0.2770 -2.0355 -0.0617
   26bbb    H18  752  -0.011  -1.214   8.390 -3.5173  1.4713 -2.3280
   26bbb     O1  753   0.264  -0.515   8.650 -0.2011 -0.0564 -0.6808
   27bbb     N1  754   2.249   1.059   7.678  0.1415  0.1434 -0.6637
   27bbb     C1  755   2.139   1.147   7.715  0.4754  0.1866  0.2230
   27bbb     H1  756   2.099   1.175   7.618  0.8594 -2.2511 -0.7182
   27bbb     H2  757   2.173   1.227   7.782  0.2003 -0.9667  1.8288
   27bbb     C2  758   2.385   1.110   7.710 -0.1896 -0.3947  0.7667
   27bbb     H3  759   2.470   1.040   7.713  0.2381  0.1512  1.7958
   27bbb     H4  760   2.381   1.143   7.815  1.7383 -2.1991  1.4886
   27bbb     C3  761   2.236   0.982   7.551 -0.0428 -0.1720  0.3519
   27bbb     H5  762   2.272   1.043   7.468 -1.5832 -0.4994 -0.6152
   27bbb     H6  763   2.130   0.959   7.531 -0.5416  1.3335  1.1310
   27bbb     C4  764   2.329   0.856   7.562 -0.3756 -0.5480  0.2338
   27bbb     H7  765   2.314   0.818   7.664  2.3688  2.1954  1.8317
   27bbb     H8  766   2.436   0.879   7.569 -0.2271 -1.6029  2.3896
   27bbb     C5  767   2.029   1.069   7.783  0.6354 -0.1262 -0.0380
   27bbb     H9  768   2.064   0.969   7.810 -2.0336 -1.4833 -1.2388
   27bbb    H10  769   1.964   1.045   7.698  1.5722  0.7050 -1.0242
   27bbb     C6  770   2.431   1.229   7.628 -0.5391 -0.3662 -0.1932
   27bbb    H11  771   2.432   1.211   7.520 -0.6228 -0.0913 -0.2418
   27bbb    H12  772   2.534   1.247   7.661 -1.0443  3.6310 -0.3146
   27bbb     C7  773   2.309   0.751   7.456 -0.6133 -0.3005  0.0225
   27bbb    H13  774   2.203   0.724   7.462 -0.5672 -0.4659  0.0881
   27bbb    H14  775   2.373   0.665   7.477  0.4208  0.1625 -1.0848
   27bbb     C8  776   2.352   1.358   7.651  1.0100  0.4940 -0.0847
   27bbb    H15  777   2.327   1.363   7.757 -2.2680 -0.3286 -0.7080
   27bbb    H16  778   2.260   1.359   7.592  0.7514  2.0541  0.3037
   27bbb     C9  779   1.954   1.145   7.898 -0.0424  0.2201  0.0397
   27bbb    H17  780   2.020   1.132   7.985  0.2805  0.6338 -0.1339
   27bbb    H18  781   1.862   1.092   7.923  1.4980 -2.3334  0.7217
   27bbb     O1  782   2.355   0.799   7.328  0.3057  0.1218  0.3410
   28bbb     N1  783   1.538   1.368   7.241 -0.8495  0.2095 -0.1115
   28bbb     C1  784   1.612   1.434   7.134  0.9444 -1.2862  0.3175
   28bbb     H1  785   1.652   1.534   7.157 -1.2834 -0.1606 -0.3931
   28bbb     H2  786   1.550   1.435   7.043 -2.0654  0.5604  2.1942
   28bbb     C2  787   1.410   1.437   7.267  0.7024 -0.5943 -0.1297
   28bbb     H3  788   1.414   1.546   7.255 -2.3661 -0.2007  1.3510
   28bbb     H4  789   1.377   1.429   7.371  1.2162  2.0282  0.2995
   28bbb     C3  790   1.628   1.330   7.361 -0.3034 -0.3940 -0.3594
   28bbb     H5  791   1.640   1.408   7.437 -2.3155 -0.0029 -0.3803
   28bbb     H6  792   1.725   1.292   7.328  0.5118 -1.0859  2.5326
   28bbb     C4  793   1.559   1.211   7.449 -0.6923  0.3121 -0.0705
   28bbb     H7  794   1.507   1.143   7.382 -2.2665 -0.1912  1.5681
   28bbb     H8  795   1.475   1.237   7.515 -1.3441 -1.5135 -0.1354
   28bbb     C5  796   1.739   1.353   7.084  0.1961 -0.2522  0.0237
   28bbb     H9  797   1.711   1.248   7.070  1.7740 -0.7265  0.1905
   28bbb    H10  798   1.830   1.352   7.145  0.9658  1.1158 -1.0432
   28bbb     C6  799   1.297   1.390   7.176 -0.0149 -0.2880 -0.8897
   28bbb    H11  800   1.267   1.290   7.208 -2.6462  0.4578 -0.7588
   28bbb    H12  801   1.331   1.386   7.072 -1.6228 -2.0737 -1.4109
   28bbb     C7  802   1.662   1.139   7.547  0.2823  0.7657  0.1470
   28bbb    H13  803   1.610   1.055   7.596 -2.6843  2.7185  0.6464
   28bbb    H14  804   1.694   1.206   7.628 -2.1776  2.7632 -0.3812
   28bbb     C8  805   1.177   1.478   7.177  0.0539 -0.2723 -0.5871
   28bbb    H15  806   1.198   1.564   7.242  3.6207  0.3045 -2.2794
   28bbb    H16  807   1.089   1.420   7.208  1.9272 -2.8151  0.2718
   28bbb     C9  808   1.783   1.412   6.941  0.1718 -0.0582  0.9923
   28bbb    H17  809   1.714   1.383   6.862 -0.1092  2.7487  0.1165
   28bbb    H18  810   1.769   1.521   6.935 -2.1469 -0.3872 -0.9012
   28bbb     O1  811   1.776   1.094   7.474  0.0714  0.6538  0.3314
   29bbb     N1  812   1.438   2.533   6.299 -0.1360  0.1501  0.0485
   29bbb     C1  813   1.527   2.627   6.219  0.3713  0.2986  0.3541
   29bbb     H1  814   1.495   2.731   6.212  0.2858  0.2069 -0.9569
   29bbb     H2  815   1.535   2.588   6.117 -0.7493 -0.1060  0.4073
   29bbb     C2  816   1.295   2.546   6.273 -0.0828  0.9821  0.2451
   29bbb     H3  817   1.239   2.477   6.338 -2.7781  0.6230 -2.2264
   29bbb     H4  818   1.272   2.504   6.174  2.6796 -1.2463  0.4416
   29bbb     C3  819   1.489   2.397   6.314  0.2319  0.3502  0.0420
   29bbb     H5  820   1.431   2.344   6.391  2.8163 -2.2791  0.3611
   29bbb     H6  821   1.594   2.394   6.343  0.2624  0.9906 -0.0099
   29bbb     C4  822   1.486   2.326   6.175  0.0756 -0.0061 -0.2790
   29bbb     H7  823   1.552   2.380   6.106 -0.6681  1.1320 -0.1297
   29bbb     H8  824   1.385   2.330   6.131 -0.6417  4.5669  1.2177
   29bbb     C5  825   1.677   2.634   6.279 -0.2108 -0.2433  0.7779
   29bbb     H9  826   1.742   2.547   6.264  2.1871  1.2766  1.6942
   29bbb    H10  827   1.658   2.629   6.387  0.0578 -0.3463  0.8201
   29bbb     C6  828   1.236   2.687   6.282  0.1481  0.3734  0.1937
   29bbb    H11  829   1.296   2.766   6.233  0.4068 -0.7658 -1.4037
   29bbb    H12  830   1.237   2.719   6.387 -0.0206 -1.9070  0.9287
   29bbb     C7  831   1.538   2.180   6.192  0.9552 -0.1879  0.1160
   29bbb    H13  832   1.641   2.181   6.229  0.4739  0.4093  1.5308
   29bbb    H14  833   1.533   2.123   6.099  1.5415  0.1535 -0.1325
   29bbb     C8  834   1.092   2.690   6.228 -0.4399  0.2930 -0.5606
   29bbb    H15  835   1.033   2.619   6.288  1.0179  0.4887  1.2120
   29bbb    H16  836   1.108   2.649   6.128  1.3611 -0.9986  0.1991
   29bbb     C9  837   1.743   2.777   6.249  0.5286  0.4640  0.2176
   29bbb    H17  838   1.828   2.793   6.317  0.2529  2.1086  0.2117
   29bbb    H18  839   1.667   2.853   6.274 -1.9654 -1.6833 -0.3153
   29bbb     O1  840   1.442   2.113   6.282 -0.1497  0.0966 -0.1270
   30bbb     N1  841   1.944   2.347   5.995 -0.4534  0.0660 -0.0622
   30bbb     C1  842   2.073   2.341   5.918 -0.5023  0.1285 -0.7753
   30bbb     H1  843   2.068   2.247   5.860 -0.7506 -0.0775 -0.4253
   30bbb     H2  844   2.151   2.314   5.990 -0.4153 -1.7003 -1.5032
   30bbb     C2  845   1.826   2.399   5.915  0.1108 -0.0818 -0.4033
   30bbb     H3  846   1.853   2.503   5.891  0.3366  0.1177  0.6410
   30bbb     H4  847   1.741   2.417   5.982 -0.9031 -0.3301 -1.6062
   30bbb     C3  848   1.927   2.228   6.076  0.0668  0.4071  1.2382
   30bbb     H5  849   1.939   2.143   6.008  0.0662  0.2466  1.4340
   30bbb     H6  850   1.825   2.236   6.115 -0.7036 -1.4391 -0.2640
   30bbb     C4  851   2.023   2.213   6.195 -0.1593 -1.0096 -0.7381
   30bbb     H7  852   2.021   2.308   6.250 -1.5996 -0.7579 -1.1941
   30bbb     H8  853   2.126   2.195   6.160  0.9970  0.0623  1.8303
   30bbb     C5  854   2.123   2.460   5.834  0.4899 -0.4502  0.2877
   30bbb     H9  855   2.113   2.556   5.886 -3.1702  0.0544 -1.0871
   30bbb    H10  856   2.072   2.462   5.737  0.6756 -0.2436  0.1949
   30bbb     C6  857   1.783   2.316   5.791  0.8322  0.5127 -0.3054
   30bbb    H11  858   1.748   2.214   5.813  0.5310  0.6529 -0.1222
   30bbb    H12  859   1.863   2.299   5.719  0.1153  2.5222 -1.6615
   30bbb     C7  860   1.984   2.092   6.273  0.0268  0.1525 -0.7824
   30bbb    H13  861   2.062   2.067   6.346 -1.0624 -1.4753 -0.1283
   30bbb    H14  862   1.976   2.006   6.207  0.6976  0.2984 -1.0566
   30bbb     C8  863   1.681   2.396   5.699 -0.2749  0.0726  0.1607
   30bbb    H15  864   1.641   2.338   5.615 -1.2505  1.7017 -0.5542
   30bbb    H16  865   1.743   2.472   5.650  0.3110 -0.4855  0.0146
   30bbb     C9  866   2.271   2.443   5.809  0.0453 -0.5834 -0.2498
   30bbb    H17  867   2.300   2.343   5.774  0.6301  0.6359 -3.7036
   30bbb    H18  868   2.316   2.460   5.907  0.7708  3.4148 -1.1018
   30bbb     O1  869   1.861   2.113   6.341  0.0460 -0.2877  0.5084
   31bbb     N1  870   1.879  -0.415  10.158  0.0251  0.5428  0.1493
   31bbb     C1  871   1.798  -0.402  10.280 -0.2030  0.3559 -0.8226
   31bbb     H1  872   1.692  -0.416  10.255 -0.2375  1.5981 -1.4490
   31bbb     H2  873   1.795  -0.299  10.319 -0.4944  0.0413  0.0103
   31bbb     C2  874   2.020  -0.457  10.177 -0.4360 -0.8145 -0.0866
   31bbb     H3  875   2.058  -0.485  10.078  0.3396 -0.3063  0.0555
   31bbb     H4  876   2.035  -0.549  10.236 -0.8842 -0.0729  1.2375
   31bbb     C3  877   1.847  -0.308  10.061  0.1549 -0.4829 -0.8419
   31bbb     H5  878   1.888  -0.220  10.111  0.2522 -1.7023  1.3936
   31bbb     H6  879   1.739  -0.294  10.051 -0.1210 -1.5940  0.2596
   31bbb     C4  880   1.915  -0.323   9.925 -0.2789  0.8582  0.0765
   31bbb     H7  881   1.881  -0.419   9.885 -0.8948  0.0788  2.3351
   31bbb     H8  882   2.025  -0.319   9.922 -0.2178 -0.5879 -0.4819
   31bbb     C5  883   1.842  -0.495  10.396  1.5773 -0.0457 -0.0344
   31bbb     H9  884   1.944  -0.465  10.420  2.6513 -2.1520 -1.6149
   31bbb    H10  885   1.841  -0.595  10.351 -0.1738 -0.1532  0.1487
   31bbb     C6  886   2.112  -0.337  10.226 -0.0723 -0.6242  0.2312
   31bbb    H11  887   2.076  -0.295  10.321  1.8033  0.3645  0.5543
   31bbb    H12  888   2.117  -0.252  10.157 -0.2204  1.1734  2.3436
   31bbb     C7  889   1.881  -0.203   9.832  0.4348  0.2233  1.1995
   31bbb    H13  890   1.774  -0.178   9.835  0.3782 -0.1126  2.6184
   31bbb    H14  891   1.918  -0.237   9.734  0.4341 -0.3325  1.3867
   31bbb     C8  892   2.256  -0.391  10.265  0.9962  0.3905 -1.2004
   31bbb    H15  893   2.296  -0.448  10.180  0.8499 -0.2644 -0.8316
   31bbb    H16  894   2.245  -0.450  10.356 -0.2009  0.7088 -1.1299
   31bbb     C9  895   1.757  -0.499  10.525 -0.3310  0.5553 -0.3501
   31bbb    H17  896   1.817  -0.554  10.598 -0.8291 -0.7681 -0.9103
   31bbb    H18  897   1.661  -0.552  10.518 -0.2902 -0.2471  3.3408
   31bbb     O1  898   1.963  -0.092   9.875  1.1172  0.5540 -0.0680
   32bbb     N1  899   1.867   0.450  10.776  0.2305 -0.4100  0.3597
   32bbb     C1  900   1.878   0.299  10.786  0.8126 -0.1546  0.3163
   32bbb     H1  901   1.938   0.277  10.875  0.1576 -2.4461  0.2518
   32bbb     H2  902   1.927   0.259  10.696 -1.0297 -1.6043 -0.1066
   32bbb     C2  903   1.997   0.526  10.787  0.2777 -0.1055  0.2519
   32bbb     H3  904   1.979   0.631  10.761 -3.0795 -0.0457  2.2410
   32bbb     H4  905   2.060   0.480  10.710 -1.3283 -1.9803 -0.0350
   32bbb     C3  906   1.778   0.495  10.667  0.0654  0.0753 -0.2991
   32bbb     H5  907   1.786   0.604  10.662 -3.1914  0.3839 -1.3844
   32bbb     H6  908   1.675   0.461  10.682  0.3140 -0.3471  0.5066
   32bbb     C4  909   1.822   0.445  10.532  0.2525  0.5622 -0.7051
   32bbb     H7  910   1.817   0.335  10.536  0.1879  0.5989  1.3717
   32bbb     H8  911   1.929   0.468  10.519  1.1699 -1.5433  2.0340
   32bbb     C5  912   1.743   0.221  10.801  0.6841  0.0662 -0.7018
   32bbb     H9  913   1.759   0.115  10.827 -0.8361  0.2554  1.2778
   32bbb    H10  914   1.682   0.219  10.710  2.0063 -0.3821 -1.6193
   32bbb     C6  915   2.068   0.528  10.918 -0.1345 -0.6979  0.0901
   32bbb    H11  916   2.106   0.428  10.943  1.6030 -0.3509 -0.9499
   32bbb    H12  917   1.996   0.553  10.996  0.5978  0.6031  0.3656
   32bbb     C7  918   1.742   0.502  10.408  0.1113 -0.0859 -0.0189
   32bbb    H13  919   1.761   0.610  10.398 -1.9124  0.3015 -0.1615
   32bbb    H14  920   1.633   0.497  10.420 -0.5023  2.9030 -2.7841
   32bbb     C8  921   2.173   0.642  10.906 -0.3741  0.2696 -0.6444
   32bbb    H15  922   2.195   0.664  11.011  1.0237 -0.6299 -0.7279
   32bbb    H16  923   2.131   0.721  10.842 -1.1527  0.3948  0.0029
   32bbb     C9  924   1.662   0.279  10.927  0.1830  0.6830  0.2448
   32bbb    H17  925   1.651   0.388  10.924 -1.0046  0.6178  1.2706
   32bbb    H18  926   1.714   0.246  11.018  1.2309 -3.5646 -1.6514
   32bbb     O1  927   1.776   0.426  10.292  0.1888  0.2165  0.4556
   33bbb     N1  928   2.194  -0.697   9.500  0.0729 -0.8301  0.5680
   33bbb     C1  929   2.211  -0.593   9.609 -0.3420 -0.3520 -0.4697
   33bbb     H1  930   2.119  -0.534   9.615 -1.3033 -1.6567 -1.5819
   33bbb     H2  931   2.300  -0.533   9.586 -1.0253  0.7843 -0.2425
   33bbb     C2  932   2.301  -0.803   9.486  0.0185 -0.5763 -0.0576
   33bbb     H3  933   2.298  -0.851   9.388  1.6241  2.4387 -1.7521
   33bbb     H4  934   2.294  -0.874   9.569 -1.7540  0.2316  0.5315
   33bbb     C3  935   2.155  -0.633   9.371  0.5280  0.0813 -0.2458
   33bbb     H5  936   2.134  -0.716   9.302  0.9161  0.0452 -0.3188
   33bbb     H6  937   2.235  -0.575   9.325  1.0180 -1.8975 -2.0296
   33bbb     C4  938   2.024  -0.546   9.371 -0.4108  0.3126 -0.7363
   33bbb     H7  939   2.036  -0.457   9.435 -0.0292 -0.7781  0.7682
   33bbb     H8  940   1.945  -0.602   9.423  0.4739 -0.8836 -0.6224
   33bbb     C5  941   2.230  -0.668   9.740  0.2199 -0.8612 -1.3141
   33bbb     H9  942   2.321  -0.727   9.732  1.1327  0.5775 -1.8582
   33bbb    H10  943   2.145  -0.738   9.749  0.2265 -0.5941  2.5102
   33bbb     C6  944   2.448  -0.746   9.499 -0.8015 -0.1719  0.0736
   33bbb    H11  945   2.516  -0.832   9.501  2.5248  2.2532 -0.6806
   33bbb    H12  946   2.461  -0.689   9.592  0.0881 -2.3270  1.3449
   33bbb     C7  947   1.964  -0.507   9.242  0.1521 -0.1961  0.2249
   33bbb    H13  948   1.877  -0.449   9.274  0.3990  1.3834 -1.7904
   33bbb    H14  949   1.938  -0.594   9.179  2.6847 -0.4704 -0.5653
   33bbb     C8  950   2.495  -0.648   9.383  0.7670  0.0591 -0.5240
   33bbb    H15  951   2.442  -0.552   9.388  0.6119 -0.0464  0.0039
   33bbb    H16  952   2.464  -0.695   9.290 -0.3854  0.9614 -0.6146
   33bbb     C9  953   2.220  -0.573   9.868  0.0857  0.2318  0.2828
   33bbb    H17  954   2.118  -0.535   9.881  0.6954  1.1166  3.1528
   33bbb    H18  955   2.288  -0.489   9.856  1.6751 -0.7934  1.6676
   33bbb     O1  956   2.056  -0.432   9.165 -0.9657 -0.0033 -0.1148
   34bbb     N1  957   2.700  -0.094   9.374  0.2039  0.3644 -0.2484
   34bbb     C1  958   2.624  -0.205   9.307  0.0944 -0.1027 -0.4075
   34bbb     H1  959   2.565  -0.257   9.383 -1.6812  1.7761 -0.4219
   34bbb     H2  960   2.701  -0.281   9.288  1.1333  0.7925  0.1330
   34bbb     C2  961   2.792  -0.129   9.487 -0.5164  0.3530  0.6479
   34bbb     H3  962   2.734  -0.195   9.552 -1.3622  1.2674  0.8679
   34bbb     H4  963   2.821  -0.046   9.553  1.6858 -0.1247  0.3299
   34bbb     C3  964   2.614   0.011   9.417  0.5264  0.4233  0.0091
   34bbb     H5  965   2.609   0.012   9.527  0.6007 -0.9645  0.0436
   34bbb     H6  966   2.513  -0.007   9.379  0.6816 -0.3369 -0.0625
   34bbb     C4  967   2.657   0.148   9.367  0.2900 -0.0555 -0.7432
   34bbb     H7  968   2.763   0.157   9.393  0.2360 -0.7224 -0.2570
   34bbb     H8  969   2.617   0.224   9.436  0.6787 -0.1499 -0.4096
   34bbb     C5  970   2.537  -0.179   9.182  0.0811  0.3952  0.2405
   34bbb     H9  971   2.594  -0.110   9.119 -0.5016 -0.5056 -1.3295
   34bbb    H10  972   2.443  -0.131   9.211  0.2682  0.1652  1.2669
   34bbb     C6  973   2.914  -0.209   9.437  0.6238  0.1510  0.3644
   34bbb    H11  974   2.917  -0.192   9.329 -2.3613 -0.0399  0.1707
   34bbb    H12  975   2.883  -0.311   9.460 -1.1767  0.8215  1.1021
   34bbb     C7  976   2.643   0.188   9.222  0.4150  0.2224  0.1602
   34bbb    H13  977   2.723   0.140   9.164 -0.3323  0.0774 -0.7708
   34bbb    H14  978   2.659   0.297   9.222  0.5049  0.2157  0.9364
   34bbb     C8  979   3.042  -0.185   9.517 -0.3628 -0.1663  0.0218
   34bbb    H15  980   3.047  -0.076   9.529 -0.0376 -0.3602  2.0628
   34bbb    H16  981   3.130  -0.231   9.471  1.0066  1.7473  0.6055
   34bbb     C9  982   2.503  -0.308   9.098  0.9976  0.0681  0.0318
   34bbb    H17  983   2.446  -0.282   9.008  0.6798  0.3362  0.3113
   34bbb    H18  984   2.439  -0.367   9.165  1.0769 -0.0279  0.0235
   34bbb     O1  985   2.513   0.149   9.174 -0.4484 -0.6344 -0.2177
   35bbb     N1  986   0.038  -0.191   8.281 -0.1059 -0.3067 -0.1197
   35bbb     C1  987  -0.107  -0.187   8.310 -0.2943 -0.1748  0.4208
   35bbb     H1  988  -0.121  -0.234   8.408  1.1402 -0.5109  0.4915
   35bbb     H2  989  -0.169  -0.240   8.237  1.6626  0.9936 -2.2275
   35bbb     C2  990   0.106  -0.318   8.294 -0.3830  0.2549  0.0486
   35bbb     H3  991   0.050  -0.364   8.376 -0.7886  2.3039  1.0026
   35bbb     H4  992   0.212  -0.301   8.317 -0.1272 -2.1012  0.8699
   35bbb     C3  993   0.096  -0.103   8.175 -0.0129  0.5551  0.5699
   35bbb     H5  994   0.041  -0.010   8.157  0.4769  0.6194 -0.6684
   35bbb     H6  995   0.083  -0.153   8.078 -1.8276  4.0959 -1.2161
   35bbb     C4  996   0.251  -0.081   8.184  0.1941  0.5636  0.7161
   35bbb     H7  997   0.290  -0.020   8.102  0.9848 -0.8410  0.0234
   35bbb     H8  998   0.307  -0.174   8.177  0.1243  0.6178 -0.8879
   35bbb     C5  999  -0.162  -0.045   8.316  0.3280  0.6476 -0.2150
   35bbb     H9 1000  -0.157  -0.005   8.213 -2.3651 -0.3343 -0.7939
   35bbb    H10 1001  -0.105   0.017   8.387  0.1652 -0.6162  1.0440
   35bbb     C6 1002   0.087  -0.406   8.164 -0.3731 -0.0353  0.1712
   35bbb    H11 1003   0.163  -0.379   8.089  0.9695  0.7497  1.7494
   35bbb    H12 1004  -0.005  -0.378   8.110  0.2731 -0.3191 -1.1279
   35bbb     C7 1005   0.295  -0.004   8.313 -0.1474  0.1151 -0.3670
   35bbb    H13 1006   0.403  -0.025   8.317 -0.2606 -1.8783 -3.4987
   35bbb    H14 1007   0.243  -0.046   8.399 -1.6249  1.1648 -0.7014
   35bbb     C8 1008   0.078  -0.555   8.200 -0.7383  0.3543  0.2786
   35bbb    H15 1009  -0.024  -0.581   8.231 -0.7566 -1.2341 -0.9688
   35bbb    H16 1010   0.149  -0.570   8.282  0.7043 -0.9942 -1.1428
   35bbb     C9 1011  -0.315  -0.040   8.351  0.6480 -0.3730 -0.4741
   35bbb    H17 1012  -0.342   0.066   8.364  0.6416 -0.5210  0.8049
   35bbb    H18 1013  -0.330  -0.084   8.450 -1.2792 -0.2806 -0.7025
   35bbb     O1 1014   0.268   0.139   8.295  0.2509 -0.3398 -0.5407
   36bbb     N1 1015  -0.459   0.694   8.210 -0.0972  0.5144 -0.2093
   36bbb     C1 1016  -0.462   0.580   8.307 -0.5236  0.2401 -0.2811
   36bbb     H1 1017  -0.362   0.540   8.328  0.2383  2.3031  0.2783
   36bbb     H2 1018  -0.530   0.497   8.281  0.3500 -1.3677  2.1476
   36bbb     C2 1019  -0.591   0.757   8.173 -0.0238 -0.2621 -0.1286
   36bbb     H3 1020  -0.571   0.843   8.108  2.8647 -1.5703 -1.1318
   36bbb     H4 1021  -0.622   0.802   8.269 -0.7707  1.9240 -1.3364
   36bbb     C3 1022  -0.388   0.657   8.084  0.5856 -0.3068 -0.0102
   36bbb     H5 1023  -0.384   0.756   8.037 -1.4909 -1.2485 -2.3777
   36bbb     H6 1024  -0.440   0.579   8.029  0.6132  0.2163 -0.7929
   36bbb     C4 1025  -0.244   0.617   8.112  0.0482  0.4758  0.4771
   36bbb     H7 1026  -0.244   0.511   8.141  2.0370 -0.0005 -1.0185
   36bbb     H8 1027  -0.210   0.671   8.201  0.2552 -0.2494  0.8517
   36bbb     C5 1028  -0.514   0.632   8.442 -0.0404 -0.3550  0.1396
   36bbb     H9 1029  -0.614   0.675   8.423  0.6393  1.2888  0.1018
   36bbb    H10 1030  -0.450   0.718   8.465 -0.0598  0.6484 -3.1216
   36bbb     C6 1031  -0.716   0.675   8.121 -0.6273  0.0311  0.0653
   36bbb    H11 1032  -0.734   0.600   8.198 -0.1246  0.7975  0.9539
   36bbb    H12 1033  -0.689   0.615   8.033 -0.3121 -2.5955  1.8750
   36bbb     C7 1034  -0.172   0.644   7.977 -0.0797  0.0841 -0.1268
   36bbb    H13 1035  -0.168   0.753   7.965  0.9086 -0.0248 -0.9502
   36bbb    H14 1036  -0.227   0.601   7.893  0.0863 -0.8083  0.2073
   36bbb     C8 1037  -0.842   0.758   8.090 -0.2523  0.0544 -0.6125
   36bbb    H15 1038  -0.824   0.810   7.994 -1.5824  0.0017 -0.9068
   36bbb    H16 1039  -0.861   0.825   8.174  0.3445  1.5851 -1.6485
   36bbb     C9 1040  -0.536   0.526   8.560  0.1530 -0.1811 -0.3445
   36bbb    H17 1041  -0.559   0.427   8.520  1.7986 -0.5449 -0.4797
   36bbb    H18 1042  -0.444   0.501   8.615 -1.6898 -2.0023  2.1708
   36bbb     O1 1043  -0.037   0.583   7.983 -0.3530 -0.4557 -0.1371
   37bbb     N1 1044   0.539  -0.911   8.965  0.1126 -0.1277 -0.2039
   37bbb     C1 1045   0.407  -0.955   8.915 -0.3109 -0.0490  0.1575
   37bbb     H1 1046   0.408  -1.062   8.894 -1.2746 -0.1101  0.3944
   37bbb     H2 1047   0.401  -0.906   8.817 -0.5393  2.3630  1.2938
   37bbb     C2 1048   0.645  -0.950   8.868  0.3924 -0.3471  0.1519
   37bbb     H3 1049   0.626  -1.051   8.830 -1.9581  1.2419 -3.4730
   37bbb     H4 1050   0.744  -0.954   8.914  1.1089 -2.0373 -1.4298
   37bbb     C3 1051   0.566  -0.774   9.025 -0.6243  0.2298  1.4929
   37bbb     H5 1052   0.479  -0.763   9.091 -1.2962 -1.8746  1.0361
   37bbb     H6 1053   0.553  -0.700   8.945 -1.3967 -0.0852  1.3188
   37bbb     C4 1054   0.686  -0.760   9.106 -0.4790  0.7297 -0.2245
   37bbb     H7 1055   0.777  -0.753   9.044  0.0639 -0.1202  0.4413
   37bbb     H8 1056   0.681  -0.853   9.165 -2.1635  1.9233  1.6614
   37bbb     C5 1057   0.283  -0.911   8.998  0.2303 -0.0307  0.4328
   37bbb     H9 1058   0.279  -0.803   8.984 -0.8099 -0.0521  0.5250
   37bbb    H10 1059   0.296  -0.919   9.106 -0.2022  0.4310  0.5195
   37bbb     C6 1060   0.653  -0.852   8.747  0.4248 -0.0548 -0.9532
   37bbb    H11 1061   0.678  -0.750   8.780  1.8482 -0.4682 -0.6631
   37bbb    H12 1062   0.558  -0.841   8.694  0.3207  1.0503 -0.5659
   37bbb     C7 1063   0.683  -0.638   9.197  0.0836  0.1853  0.5244
   37bbb    H13 1064   0.780  -0.644   9.248  1.1594 -2.7521 -1.5680
   37bbb    H14 1065   0.602  -0.641   9.271 -0.5318 -0.2710 -0.1564
   37bbb     C8 1066   0.763  -0.900   8.650  0.0959  0.5472 -0.6929
   37bbb    H15 1067   0.750  -1.002   8.613  1.7242  0.0954 -0.1261
   37bbb    H16 1068   0.860  -0.899   8.703  0.4402  1.1297 -1.3088
   37bbb     C9 1069   0.147  -0.989   8.971  0.0610  0.1105  0.1792
   37bbb    H17 1070   0.113  -0.980   8.867  1.2736 -3.1497 -0.6459
   37bbb    H18 1071   0.071  -0.962   9.045 -0.0934 -1.0885  0.4765
   37bbb     O1 1072   0.688  -0.520   9.109  0.3537 -0.4309  0.4073
   38bbb     N1 1073   1.247   0.284   9.301  0.4921  0.5713 -0.3327
   38bbb     C1 1074   1.310   0.164   9.362  0.1069  0.2325  0.1068
   38bbb     H1 1075   1.417   0.176   9.338  0.7913  0.8044  3.0941
   38bbb     H2 1076   1.260   0.074   9.324 -1.2533 -0.4781  3.2648
   38bbb     C2 1077   1.265   0.287   9.153 -0.6160 -0.6033  0.0660
   38bbb     H3 1078   1.214   0.203   9.106 -1.0092 -0.3544  0.0424
   38bbb     H4 1079   1.372   0.261   9.147 -0.0312  1.0751  1.9683
   38bbb     C3 1080   1.105   0.305   9.340  0.4052 -0.3418 -0.9451
   38bbb     H5 1081   1.063   0.397   9.297 -0.1295 -1.3231 -2.6102
   38bbb     H6 1082   1.096   0.297   9.449 -1.6933 -1.5049 -1.1569
   38bbb     C4 1083   1.005   0.196   9.294 -0.6086  0.4866  0.0671
   38bbb     H7 1084   0.945   0.172   9.382 -0.6981  0.0701 -0.1007
   38bbb     H8 1085   1.057   0.106   9.258 -0.6011  0.8580 -0.8895
   38bbb     C5 1086   1.319   0.147   9.523  0.2354  0.2215 -0.1310
   38bbb     H9 1087   1.387   0.066   9.551  0.2372  0.1172 -0.4302
   38bbb    H10 1088   1.221   0.131   9.569  1.4542 -4.6782  1.3202
   38bbb     C6 1089   1.243   0.429   9.086  0.8212 -0.2520  0.0208
   38bbb    H11 1090   1.311   0.500   9.135 -1.6034  1.6684  0.8533
   38bbb    H12 1091   1.143   0.463   9.116  0.4250 -0.8183 -0.6495
   38bbb     C7 1092   0.898   0.242   9.191 -0.6624  0.8231 -0.8020
   38bbb    H13 1093   0.948   0.279   9.100  0.7672  0.9387  0.0037
   38bbb    H14 1094   0.847   0.323   9.244 -1.4141  1.1795 -2.0122
   38bbb     C8 1095   1.253   0.431   8.931 -0.8389  0.1736 -0.8725
   38bbb    H15 1096   1.343   0.376   8.903  0.3425  1.6761 -0.2142
   38bbb    H16 1097   1.267   0.534   8.895  0.6068  0.0266 -0.7839
   38bbb     C9 1098   1.375   0.270   9.605  0.3790 -0.5611  0.2261
   38bbb    H17 1099   1.332   0.361   9.562  0.1093 -0.9317 -0.2947
   38bbb    H18 1100   1.483   0.283   9.589  0.2333  0.0951 -0.2609
   38bbb     O1 1101   0.798   0.132   9.173  0.3535 -0.7210  0.4337
   39bbb     N1 1102   1.938   1.788   7.287 -0.1946  0.7790 -0.0159
   39bbb     C1 1103   1.949   1.856   7.160  0.9948 -1.0524  0.4639
   39bbb     H1 1104   1.849   1.889   7.128  1.4662  2.4565  2.1362
   39bbb     H2 1105   1.983   1.790   7.079 -1.5662 -2.3131  0.3192
   39bbb     C2 1106   1.971   1.638   7.267  0.2986 -0.5272 -0.4537
   39bbb     H3 1107   2.067   1.624   7.218  0.1694 -2.9059 -0.1270
   39bbb     H4 1108   1.894   1.587   7.209  0.4059 -1.7719  0.4508
   39bbb     C3 1109   1.834   1.819   7.384 -0.2196  0.3371  0.3512
   39bbb     H5 1110   1.846   1.927   7.399 -0.6691  0.3707  0.4870
   39bbb     H6 1111   1.855   1.770   7.479 -0.4220  1.8826  1.2282
   39bbb     C4 1112   1.694   1.800   7.330  0.7090 -0.0788 -0.4312
   39bbb     H7 1113   1.684   1.691   7.335  2.4703 -0.2512  0.1473
   39bbb     H8 1114   1.689   1.830   7.225  1.9503 -0.8675 -0.7362
   39bbb     C5 1115   2.041   1.981   7.167  0.4345 -0.0840 -0.0123
   39bbb     H9 1116   1.996   2.057   7.232  2.0975 -0.8919  2.2176
   39bbb    H10 1117   2.039   2.035   7.072 -4.0336 -0.4021 -0.3315
   39bbb     C6 1118   1.986   1.561   7.403  0.8008 -0.5282 -0.0261
   39bbb    H11 1119   1.890   1.561   7.456  0.9864  2.5377  0.4732
   39bbb    H12 1120   2.061   1.624   7.454  0.5504 -0.8394  0.7381
   39bbb     C7 1121   1.578   1.860   7.406 -0.3459  0.5779  0.7658
   39bbb    H13 1122   1.486   1.832   7.352  0.0882  1.4768 -0.4741
   39bbb    H14 1123   1.604   1.965   7.420  2.5287  0.4060 -2.1913
   39bbb     C8 1124   2.030   1.419   7.383 -0.0130 -0.4545 -0.7637
   39bbb    H15 1125   1.945   1.371   7.333  0.2617 -0.4448 -1.2482
   39bbb    H16 1126   2.040   1.380   7.485 -0.6793  2.1383  0.3803
   39bbb     C9 1127   2.179   1.934   7.220  0.3059 -0.3701  0.2849
   39bbb    H17 1128   2.171   1.859   7.300  1.2321 -1.2038 -0.3906
   39bbb    H18 1129   2.235   2.018   7.263  0.9796 -1.1777  1.0045
   39bbb     O1 1130   1.570   1.796   7.533 -0.7749 -0.1820  0.1383
   40bbb     N1 1131   1.125   0.957   7.597  0.3831  0.4912 -0.1396
   40bbb     C1 1132   1.180   0.987   7.461 -0.1714  0.0123 -0.3714
   40bbb     H1 1133   1.178   1.095   7.444 -0.2448  0.4347  1.9442
   40bbb     H2 1134   1.115   0.952   7.380 -2.7121  0.6469  1.2572
   40bbb     C2 1135   0.981   0.986   7.615 -0.1027  0.1057  0.0431
   40bbb     H3 1136   0.964   1.083   7.565  2.1899  0.1191 -0.8469
   40bbb     H4 1137   0.960   1.002   7.721  0.5497  2.6880 -0.1503
   40bbb     C3 1138   1.214   1.005   7.714  0.4674 -0.4149 -0.0915
   40bbb     H5 1139   1.317   0.970   7.705  0.1097 -2.2421  1.9988
   40bbb     H6 1140   1.178   0.960   7.807 -0.4920 -0.0691 -0.2841
   40bbb     C4 1141   1.225   1.166   7.719 -0.2208  0.5693  0.1673
   40bbb     H7 1142   1.121   1.199   7.725 -1.0463 -1.8505  0.2482
   40bbb     H8 1143   1.261   1.204   7.622  1.6817  1.4741  1.1692
   40bbb     C5 1144   1.321   0.929   7.435 -0.4869 -0.0924  0.0872
   40bbb     H9 1145   1.398   0.975   7.499 -2.3675  0.2606  2.2245
   40bbb    H10 1146   1.333   0.950   7.328 -0.0101 -0.3045  0.0944
   40bbb     C6 1147   0.894   0.882   7.540 -0.5360  0.2472 -0.1843
   40bbb    H11 1148   0.943   0.838   7.452  1.6827 -2.6145  2.2581
   40bbb    H12 1149   0.802   0.933   7.508 -0.7102  0.4969  0.6989
   40bbb     C7 1150   1.316   1.228   7.823 -0.1596  0.5985 -0.0660
   40bbb    H13 1151   1.265   1.237   7.920 -1.9309  0.2310 -0.9346
   40bbb    H14 1152   1.334   1.333   7.798 -0.0215  1.1061  1.9808
   40bbb     C8 1153   0.867   0.757   7.633  0.4699 -1.1271  0.0823
   40bbb    H15 1154   0.828   0.777   7.734  2.0297  0.8478  0.3502
   40bbb    H16 1155   0.969   0.718   7.648  0.9108 -1.1430 -2.5717
   40bbb     C9 1156   1.327   0.773   7.456  0.2921  0.7041 -0.1105
   40bbb    H17 1157   1.228   0.728   7.440  0.9463 -0.6777 -0.4418
   40bbb    H18 1158   1.351   0.754   7.561 -0.8378  0.1488  0.0683
   40bbb     O1 1159   1.439   1.161   7.824 -0.4827  0.4278 -0.0395
   41bbb     N1 1160   2.042   0.408   7.688 -0.0648 -0.1165 -0.3305
   41bbb     C1 1161   1.926   0.490   7.728 -0.3465  0.0987  0.5738
   41bbb     H1 1162   1.890   0.456   7.826 -0.5449 -0.1684  0.4084
   41bbb     H2 1163   1.847   0.446   7.665 -0.2012  0.4809  0.1189
   41bbb     C2 1164   2.083   0.418   7.546  0.1656  0.1429 -0.1200
   41bbb     H3 1165   2.185   0.380   7.538  0.8219  1.9136 -0.6155
   41bbb     H4 1166   2.094   0.524   7.517 -0.6970  0.3117  0.1477
   41bbb     C3 1167   2.164   0.443   7.766 -1.1486  0.3674  0.4096
   41bbb     H5 1168   2.190   0.548   7.747  0.3926  0.1209  1.0149
   41bbb     H6 1169   2.249   0.377   7.747 -0.1505  1.1391  1.9969
   41bbb     C4 1170   2.156   0.432   7.921  0.5092 -0.0799 -0.2285
   41bbb     H7 1171   2.121   0.331   7.945 -3.0505  0.9499 -0.4451
   41bbb     H8 1172   2.080   0.503   7.955  2.9714  2.5107  0.2083
   41bbb     C5 1173   1.942   0.648   7.704  0.6875  0.2324  0.0770
   41bbb     H9 1174   1.977   0.666   7.602 -0.9482  0.6893 -0.4333
   41bbb    H10 1175   2.018   0.677   7.777  1.2007 -2.1523  0.5677
   41bbb     C6 1176   1.984   0.348   7.450  0.0958 -0.4607 -0.0006
   41bbb    H11 1177   2.029   0.364   7.351 -0.0004  3.0430  0.4106
   41bbb    H12 1178   1.886   0.396   7.443 -0.2316 -1.2394 -1.1158
   41bbb     C7 1179   2.289   0.466   7.996  0.1262 -0.0457  0.6854
   41bbb    H13 1180   2.365   0.390   7.970 -0.3823 -0.3670  0.1205
   41bbb    H14 1181   2.269   0.479   8.103  1.6561 -1.0811  1.1429
   41bbb     C8 1182   1.989   0.197   7.462  0.6143  0.0856 -0.2865
   41bbb    H15 1183   1.962   0.168   7.564 -1.0781  0.9957 -0.4316
   41bbb    H16 1184   2.087   0.149   7.450  0.9984  0.5281  0.9797
   41bbb     C9 1185   1.808   0.725   7.742  0.7333  0.8539  0.6182
   41bbb    H17 1186   1.725   0.691   7.679  0.1951 -0.8661  2.1395
   41bbb    H18 1187   1.829   0.829   7.717  2.1614  0.7960  1.4445
   41bbb     O1 1188   2.341   0.592   7.949 -0.2770  0.5877  0.4090
   42bbb     N1 1189   2.871   1.450   7.570  0.4206  0.1876  0.5485
   42bbb     C1 1190   2.840   1.537   7.450  0.5479 -0.1301 -0.3856
   42bbb     H1 1191   2.935   1.560   7.401  0.1879 -0.8573 -1.4540
   42bbb     H2 1192   2.806   1.632   7.492  1.0468  0.4928 -1.3696
   42bbb     C2 1193   2.772   1.478   7.675 -0.0754 -0.0414 -0.1739
   42bbb     H3 1194   2.774   1.398   7.751  1.1195 -0.6277 -0.7950
   42bbb     H4 1195   2.667   1.477   7.644 -0.4016 -0.2514  0.8841
   42bbb     C3 1196   2.900   1.313   7.531  0.0235  0.0960 -0.8185
   42bbb     H5 1197   2.955   1.309   7.436 -0.2845 -2.4591 -0.9535
   42bbb     H6 1198   2.803   1.262   7.521  0.4002 -1.1527  1.3608
   42bbb     C4 1199   2.990   1.241   7.634 -0.5749 -0.2330  0.5117
   42bbb     H7 1200   2.978   1.268   7.740  3.0620 -0.7252  1.1974
   42bbb     H8 1201   3.097   1.264   7.619 -0.3410 -2.3144 -1.6509
   42bbb     C5 1202   2.744   1.471   7.348 -0.4831  0.1009  0.2502
   42bbb     H9 1203   2.662   1.422   7.401 -0.1860  1.0222  1.5992
   42bbb    H10 1204   2.795   1.388   7.298 -2.3231 -0.8654 -0.1056
   42bbb     C6 1205   2.789   1.613   7.750 -0.1625  0.1785  0.6734
   42bbb    H11 1206   2.773   1.696   7.681 -4.0290  0.5565  1.8313
   42bbb    H12 1207   2.886   1.618   7.801  0.6498  0.3161 -0.8043
   42bbb     C7 1208   2.971   1.092   7.624 -0.3261  0.7329 -0.5935
   42bbb    H13 1209   2.978   1.050   7.523  0.0673 -2.0076  0.5099
   42bbb    H14 1210   2.873   1.075   7.670  0.7800 -0.9961  1.2455
   42bbb     C8 1211   2.691   1.640   7.866  0.7806  0.1762  0.2381
   42bbb    H15 1212   2.723   1.580   7.952  0.0978 -0.3189  0.1544
   42bbb    H16 1213   2.589   1.613   7.836 -0.3233 -0.0302  3.7436
   42bbb     C9 1214   2.699   1.570   7.240 -0.3220 -0.5299 -0.5640
   42bbb    H17 1215   2.615   1.627   7.281 -0.0849 -2.3203  2.7334
   42bbb    H18 1216   2.653   1.518   7.155 -2.1630 -0.6681  0.4715
   42bbb     O1 1217   3.072   1.028   7.707  0.0527 -0.0562  0.5910
   43bbb     N1 1218   2.413  -0.293   9.802 -0.5072 -0.2882 -0.4636
   43bbb     C1 1219   2.403  -0.220   9.676  0.2768 -0.2468  0.2770
   43bbb     H1 1220   2.452  -0.277   9.596 -0.4425 -0.2454 -0.1724
   43bbb     H2 1221   2.467  -0.131   9.673  1.6170 -1.1837 -1.0558
   43bbb     C2 1222   2.558  -0.335   9.824  0.1199 -0.3317 -0.1069
   43bbb     H3 1223   2.554  -0.386   9.921  0.1039  0.6884  0.4512
   43bbb     H4 1224   2.625  -0.248   9.827  1.0688 -1.0844  0.9882
   43bbb     C3 1225   2.357  -0.227   9.917  0.1087 -0.7415  0.0357
   43bbb     H5 1226   2.368  -0.289  10.007  0.2453 -1.0589 -0.2008
   43bbb     H6 1227   2.250  -0.209   9.905 -0.0047 -0.9323  0.7223
   43bbb     C4 1228   2.414  -0.086   9.953  0.0626  0.5525  0.0521
   43bbb     H7 1229   2.411  -0.020   9.866  0.3933  1.1388  0.4801
   43bbb     H8 1230   2.521  -0.099   9.969  0.4380 -0.6892 -2.7625
   43bbb     C5 1231   2.259  -0.175   9.639 -0.2773 -0.4168 -1.3664
   43bbb     H9 1232   2.226  -0.098   9.710 -1.5427 -0.2095 -2.1566
   43bbb    H10 1233   2.190  -0.259   9.652  0.0867 -0.5688 -0.3213
   43bbb     C6 1234   2.618  -0.436   9.719  0.0923 -0.2886  0.4142
   43bbb    H11 1235   2.622  -0.376   9.627 -0.7006  2.4775  2.0744
   43bbb    H12 1236   2.553  -0.521   9.698 -1.1099  0.7392 -0.1573
   43bbb     C7 1237   2.346  -0.015  10.074 -0.0295 -0.6570  0.3150
   43bbb    H13 1238   2.352  -0.084  10.159 -2.4328 -1.0451  0.2343
   43bbb    H14 1239   2.239   0.007  10.064  0.0930 -0.5458 -0.8801
   43bbb     C8 1240   2.762  -0.484   9.748 -0.4005  0.5698  0.0822
   43bbb    H15 1241   2.820  -0.392   9.756 -0.5367  0.8134 -1.3832
   43bbb    H16 1242   2.799  -0.537   9.659  0.1123  0.7066  0.2125
   43bbb     C9 1243   2.236  -0.106   9.503 -0.0041 -0.0921 -0.1245
   43bbb    H17 1244   2.254  -0.180   9.424  5.8401 -1.7316  2.1227
   43bbb    H18 1245   2.312  -0.029   9.484  0.9557 -0.8773  0.3965
   43bbb     O1 1246   2.409   0.112  10.101 -0.1101  0.4417 -0.3350
   44bbb     N1 1247   2.820   0.479  10.613 -0.5330 -0.4233  0.6658
   44bbb     C1 1248   2.944   0.501  10.684 -0.4164 -0.2800 -0.3383
   44bbb     H1 1249   3.026   0.476  10.616  0.0583 -0.2600  0.2254
   44bbb     H2 1250   2.953   0.441  10.775  0.6634 -0.3195 -0.4614
   44bbb     C2 1251   2.790   0.337  10.585 -0.5429 -0.0695 -0.6948
   44bbb     H3 1252   2.815   0.280  10.676 -0.3475  1.2914  0.1348
   44bbb     H4 1253   2.865   0.298  10.515 -0.1432 -1.2594  0.3589
   44bbb     C3 1254   2.808   0.567  10.489  0.0242  0.3539 -0.7077
   44bbb     H5 1255   2.814   0.670  10.525  3.0529  0.5000 -1.3785
   44bbb     H6 1256   2.703   0.572  10.459 -0.4914 -0.5692  0.8386
   44bbb     C4 1257   2.894   0.538  10.361 -0.0600  0.2502 -0.6467
   44bbb     H7 1258   2.876   0.438  10.319  0.0968 -0.7129  1.4638
   44bbb     H8 1259   3.000   0.540  10.389 -0.6865  0.9989  1.8341
   44bbb     C5 1260   2.967   0.653  10.736 -0.2518  0.2488 -0.2026
   44bbb     H9 1261   2.985   0.714  10.646 -0.6048  0.2990 -0.2401
   44bbb    H10 1262   3.052   0.663  10.804 -0.6505 -0.3941  0.4075
   44bbb     C6 1263   2.654   0.299  10.525  0.3897  0.3005 -0.3603
   44bbb    H11 1264   2.638   0.191  10.527  0.5802  0.2677 -0.5845
   44bbb    H12 1265   2.645   0.341  10.424  0.6816  0.0884 -0.4736
   44bbb     C7 1266   2.865   0.637  10.245  0.3575 -0.4362  0.5911
   44bbb    H13 1267   2.930   0.615  10.160 -1.9200 -1.2001 -1.0630
   44bbb    H14 1268   2.882   0.739  10.282 -1.4787  0.0587  0.1550
   44bbb     C8 1269   2.539   0.363  10.611  0.0167 -0.2096  0.1377
   44bbb    H15 1270   2.535   0.472  10.610 -2.8686 -0.2229 -0.0974
   44bbb    H16 1271   2.546   0.325  10.714 -1.3493 -0.6014  0.1071
   44bbb     C9 1272   2.846   0.712  10.812 -0.0849 -0.1497  0.4493
   44bbb    H17 1273   2.759   0.693  10.748  1.3331 -1.9837 -1.0509
   44bbb    H18 1274   2.831   0.663  10.908  2.9362  1.4366  1.8832
   44bbb     O1 1275   2.731   0.612  10.199  0.0317 -0.2059  0.5351
   45bbb     N1 1276   3.203   0.156   9.289 -0.5839 -1.1371  0.2959
   45bbb     C1 1277   3.106   0.048   9.260  0.6750 -0.3249  0.1896
   45bbb     H1 1278   3.022   0.057   9.330  1.3262  1.3211  0.8056
   45bbb     H2 1279   3.147  -0.051   9.283 -1.4523 -1.2689  0.1559
   45bbb     C2 1280   3.140   0.290   9.243 -0.2739  0.3803  0.4641
   45bbb     H3 1281   3.116   0.282   9.136 -0.1269 -1.3558  0.5420
   45bbb     H4 1282   3.216   0.369   9.234 -1.4615  1.6181  1.0171
   45bbb     C3 1283   3.257   0.167   9.431  0.4244  0.3132  0.1899
   45bbb     H5 1284   3.175   0.176   9.502 -0.1985  1.1467 -0.6173
   45bbb     H6 1285   3.317   0.259   9.436  1.5983  0.0719 -4.5761
   45bbb     C4 1286   3.355   0.055   9.469  0.3179 -0.5851  0.3102
   45bbb     H7 1287   3.443   0.051   9.404 -0.6485  1.0664 -1.1951
   45bbb     H8 1288   3.312  -0.043   9.445  1.6281 -0.9834 -0.5431
   45bbb     C5 1289   3.038   0.037   9.118 -0.1448  0.2416  0.2284
   45bbb     H9 1290   2.973   0.124   9.105 -0.1129  0.3144  0.5378
   45bbb    H10 1291   2.960  -0.040   9.121 -0.0727  0.1955  2.0502
   45bbb     C6 1292   3.026   0.343   9.325 -0.8173  0.6716 -0.5639
   45bbb    H11 1293   3.067   0.379   9.420 -1.4248 -0.9888  0.3690
   45bbb    H12 1294   2.960   0.265   9.366  2.1052 -0.2736  2.8055
   45bbb     C7 1295   3.408   0.062   9.612 -0.2832 -0.2792  0.4279
   45bbb    H13 1296   3.483   0.139   9.632  0.1894  0.0928 -2.3760
   45bbb    H14 1297   3.457  -0.032   9.643 -0.6198 -0.5509  0.1369
   45bbb     C8 1298   2.937   0.450   9.260 -0.1492 -0.9509  0.1888
   45bbb    H15 1299   2.934   0.429   9.152 -1.4276  0.1131 -0.0068
   45bbb    H16 1300   2.992   0.545   9.264 -0.9783 -0.4978  1.3595
   45bbb     C9 1301   3.148   0.004   9.007 -0.1945  0.2878  0.4222
   45bbb    H17 1302   3.176  -0.101   9.025  0.0241  0.4188  0.8767
   45bbb    H18 1303   3.227   0.079   9.007  0.5341 -0.4698  0.0736
   45bbb     O1 1304   3.308   0.072   9.718 -0.2129 -0.3089 -0.4510
   46bbb     N1 1305   3.353   0.306  10.307 -0.1357 -0.7216 -0.0758
   46bbb     C1 1306   3.309   0.419  10.395 -0.7824  0.4539  0.3143
   46bbb     H1 1307   3.202   0.422  10.420 -1.2819  1.6536 -1.6502
   46bbb     H2 1308   3.329   0.518  10.351 -1.6426  0.1980 -0.7038
   46bbb     C2 1309   3.447   0.344  10.201 -0.2760  0.6488  0.2076
   46bbb     H3 1310   3.389   0.386  10.118 -1.3370  0.7096  0.9540
   46bbb     H4 1311   3.483   0.249  10.159  0.7286  1.5742 -1.0925
   46bbb     C3 1312   3.244   0.223  10.256  0.3537 -0.3509  0.1970
   46bbb     H5 1313   3.290   0.146  10.194  1.9135 -2.4591  3.6447
   46bbb     H6 1314   3.171   0.274  10.192  0.2019 -1.3090 -0.3948
   46bbb     C4 1315   3.159   0.155  10.366 -0.3159  0.2899  0.3168
   46bbb     H7 1316   3.121   0.227  10.439 -0.8883  0.4807 -0.1541
   46bbb     H8 1317   3.219   0.074  10.408  0.7309  0.7749 -0.1986
   46bbb     C5 1318   3.373   0.426  10.534 -0.1285  0.3031  0.9063
   46bbb     H9 1319   3.313   0.499  10.590  1.5878  2.2758  0.3125
   46bbb    H10 1320   3.476   0.463  10.528 -0.2185  0.3549 -3.6786
   46bbb     C6 1321   3.566   0.440  10.230 -0.6633  0.0978  0.3393
   46bbb    H11 1322   3.619   0.413  10.323  0.5344 -1.7547 -0.8233
   46bbb    H12 1323   3.535   0.543  10.251 -3.5616 -0.5891 -0.2185
   46bbb     C7 1324   3.033   0.085  10.310  1.1719 -0.0307  0.9483
   46bbb    H13 1325   2.992   0.022  10.390 -0.7426 -1.8981 -1.3579
   46bbb    H14 1326   3.062   0.012  10.233  1.0156 -0.0248  0.8837
   46bbb     C8 1327   3.671   0.438  10.118  0.8615 -0.4433 -0.1637
   46bbb    H15 1328   3.716   0.338  10.121  0.1856 -0.7982 -1.3160
   46bbb    H16 1329   3.753   0.509  10.131  1.5344 -1.0141 -1.2009
   46bbb     C9 1330   3.365   0.294  10.603  0.3283  0.3480  0.8933
   46bbb    H17 1331   3.409   0.215  10.540 -0.2179  1.9509 -1.6117
   46bbb    H18 1332   3.259   0.265  10.609  0.4987 -0.7670 -0.8295
   46bbb     O1 1333   2.933   0.180  10.270 -0.4691  0.4707 -0.2340
   47bbb     N1 1334  -0.403  -0.456   8.616  0.1095  0.0085 -0.4990
   47bbb     C1 1335  -0.336  -0.331   8.666  0.2084  0.0396 -0.0738
   47bbb     H1 1336  -0.384  -0.299   8.759 -1.7055 -0.4080 -0.8752
   47bbb     H2 1337  -0.354  -0.253   8.591 -0.5202 -1.7735 -1.8464
   47bbb     C2 1338  -0.525  -0.496   8.684  0.3277 -0.5556  0.4012
   47bbb     H3 1339  -0.505  -0.479   8.790  0.6179 -0.5912  0.3537
   47bbb     H4 1340  -0.539  -0.603   8.663  1.2308 -0.7825  0.8908
   47bbb     C3 1341  -0.407  -0.472   8.466  0.4874 -0.1684  0.6827
   47bbb     H5 1342  -0.323  -0.419   8.420 -0.8054  1.4260  0.0366
   47bbb     H6 1343  -0.498  -0.424   8.426 -0.4145 -1.8409  0.6295
   47bbb     C4 1344  -0.396  -0.614   8.414  0.2631  0.2724  0.1018
   47bbb     H7 1345  -0.497  -0.655   8.402 -0.2703  1.1632  1.3181
   47bbb     H8 1346  -0.347  -0.678   8.489  0.0173  1.2232  1.0990
   47bbb     C5 1347  -0.189  -0.357   8.688 -0.4860 -0.3254  0.3960
   47bbb     H9 1348  -0.148  -0.407   8.598 -0.4745 -0.6793  0.5947
   47bbb    H10 1349  -0.172  -0.424   8.774 -0.5489 -1.5834 -0.5296
   47bbb     C6 1350  -0.643  -0.407   8.650 -0.1347  0.3395  0.3687
   47bbb    H11 1351  -0.680  -0.426   8.548 -0.4404 -0.6967  0.6568
   47bbb    H12 1352  -0.614  -0.303   8.635  0.8707  0.4145  2.4725
   47bbb     C7 1353  -0.325  -0.627   8.274  0.7567 -0.1864 -1.0718
   47bbb    H13 1354  -0.265  -0.719   8.271  0.8635 -0.0774 -2.5718
   47bbb    H14 1355  -0.252  -0.546   8.267  0.3021  0.3206 -0.1710
   47bbb     C8 1356  -0.754  -0.405   8.747  0.4397  0.2526 -0.3540
   47bbb    H15 1357  -0.772  -0.509   8.778  2.2205  0.0777  0.2525
   47bbb    H16 1358  -0.841  -0.358   8.700  1.4907 -0.9844 -3.9169
   47bbb     C9 1359  -0.113  -0.227   8.722 -0.7224  0.0806  0.2000
   47bbb    H17 1360  -0.121  -0.186   8.824  0.2653 -0.2488  0.4255
   47bbb    H18 1361  -0.156  -0.144   8.666 -0.9618  0.6751  1.2330
   47bbb     O1 1362  -0.425  -0.610   8.172 -0.2481  0.2386 -0.2748
   48bbb     N1 1363  -0.365   0.331   7.579  0.1494 -0.1380  0.1100
   48bbb     C1 1364  -0.484   0.394   7.518  0.5484  0.1926  0.8025
   48bbb     H1 1365  -0.577   0.350   7.557 -0.4364  1.1035 -0.4370
   48bbb     H2 1366  -0.497   0.373   7.411 -3.2630 -0.6955  1.3202
   48bbb     C2 1367  -0.246   0.360   7.501  0.1723 -0.1996 -0.1681
   48bbb     H3 1368  -0.243   0.467   7.477  1.0874 -0.1862 -0.0235
   48bbb     H4 1369  -0.245   0.310   7.403  3.0799  2.4801 -1.7139
   48bbb     C3 1370  -0.390   0.190   7.601  0.5579  0.3826  0.2098
   48bbb     H5 1371  -0.467   0.178   7.678 -1.3718 -0.7547 -1.7608
   48bbb     H6 1372  -0.309   0.135   7.651  0.0270  1.2673  2.1518
   48bbb     C4 1373  -0.433   0.100   7.475  0.0361 -0.0585  0.4446
   48bbb     H7 1374  -0.344   0.076   7.415  1.2185  1.7299  1.3760
   48bbb     H8 1375  -0.487   0.163   7.403  0.0894  1.4034  1.6250
   48bbb     C5 1376  -0.495   0.545   7.546 -0.1453 -0.0726  0.0980
   48bbb     H9 1377  -0.560   0.601   7.477  0.7144  0.7476 -0.0669
   48bbb    H10 1378  -0.404   0.594   7.509  0.2996 -0.7109  0.3227
   48bbb     C6 1379  -0.114   0.340   7.577 -0.7399  0.0798  0.2875
   48bbb    H11 1380  -0.122   0.303   7.680  0.5424  0.1305  0.4258
   48bbb    H12 1381  -0.067   0.439   7.579  1.7887 -0.9664 -1.4574
   48bbb     C7 1382  -0.516  -0.020   7.513  0.4435 -0.1992 -0.3209
   48bbb    H13 1383  -0.524  -0.085   7.425 -2.2633 -0.0628 -0.2521
   48bbb    H14 1384  -0.619   0.001   7.545  0.7836 -1.9373  2.1654
   48bbb     C8 1385  -0.009   0.250   7.499  0.0479 -0.3205 -0.5970
   48bbb    H15 1386   0.085   0.261   7.555 -0.3869 -0.8345  0.2567
   48bbb    H16 1387   0.009   0.299   7.403  0.7398  1.2372  0.2801
   48bbb     C9 1388  -0.516   0.571   7.699  0.2179 -0.7388 -0.1629
   48bbb    H17 1389  -0.425   0.559   7.760 -0.0747 -2.9193 -0.0895
   48bbb    H18 1390  -0.597   0.511   7.740  0.0493  1.3725  2.9320
   48bbb     O1 1391  -0.449  -0.071   7.625  0.2762  0.0376  1.0072
   49bbb     N1 1392  -1.007   0.833   8.530  0.2786  0.0954  0.2026
   49bbb     C1 1393  -0.867   0.873   8.563 -0.3317  0.3997 -0.3958
   49bbb     H1 1394  -0.796   0.803   8.517  0.4901  0.3143  0.9661
   49bbb     H2 1395  -0.844   0.876   8.670  3.8791  1.6262 -1.1332
   49bbb     C2 1396  -1.110   0.933   8.584  0.0620  0.7439  0.1216
   49bbb     H3 1397  -1.084   1.036   8.556  0.4886  0.0726 -2.1712
   49bbb     H4 1398  -1.117   0.923   8.693  3.0973  3.3213  0.7033
   49bbb     C3 1399  -1.030   0.693   8.561 -0.1382  1.1974 -0.3895
   49bbb     H5 1400  -1.137   0.671   8.572  0.1308  0.9839  2.6516
   49bbb     H6 1401  -1.002   0.676   8.666 -2.7319 -3.3158 -0.1723
   49bbb     C4 1402  -0.948   0.591   8.477 -0.4338 -0.4761 -0.5272
   49bbb     H7 1403  -0.843   0.590   8.509 -1.2087 -2.2617  2.2830
   49bbb     H8 1404  -0.953   0.611   8.369  0.5678  0.5463 -0.4091
   49bbb     C5 1405  -0.817   1.010   8.500  0.1986  0.2590 -0.0037
   49bbb     H9 1406  -0.889   1.090   8.523 -2.2934 -1.3138 -1.7925
   49bbb    H10 1407  -0.822   1.001   8.391 -1.7192  0.0536  0.0717
   49bbb     C6 1408  -1.249   0.907   8.513 -0.0450 -0.1420  0.0010
   49bbb    H11 1409  -1.319   0.982   8.554  1.3283  0.8832  0.5499
   49bbb    H12 1410  -1.298   0.812   8.539  0.4637 -0.6334 -0.7857
   49bbb     C7 1411  -1.015   0.450   8.504  0.1265  0.1595  0.1448
   49bbb    H13 1412  -1.123   0.449   8.486 -0.1436  1.6744  1.3971
   49bbb    H14 1413  -1.004   0.426   8.610 -1.4682  1.1346  0.5674
   49bbb     C8 1414  -1.250   0.932   8.358  0.4005  0.6906 -0.3666
   49bbb    H15 1415  -1.237   0.839   8.302  1.2146 -0.8218  2.1205
   49bbb    H16 1416  -1.174   1.006   8.331  1.0260 -0.9828 -3.7045
   49bbb     C9 1417  -0.676   1.040   8.534  0.2140 -1.0084 -0.4113
   49bbb    H17 1418  -0.638   1.135   8.494  0.7496 -1.4176 -0.8861
   49bbb    H18 1419  -0.610   0.968   8.485  0.7588 -0.3168 -0.7176
   49bbb     O1 1420  -0.958   0.348   8.425 -0.6162  0.6696 -0.1439
   50bbb     N1 1421  -0.898   0.808   7.458 -0.1212 -0.1550  0.2912
   50bbb     C1 1422  -0.949   0.931   7.527  0.0206  1.1538 -0.3953
   50bbb     H1 1423  -0.943   1.005   7.446 -0.9704 -0.9652 -2.5290
   50bbb     H2 1424  -0.877   0.942   7.608 -1.1736 -3.5266  1.6138
   50bbb     C2 1425  -0.756   0.829   7.413 -0.1454 -0.0902 -0.0070
   50bbb     H3 1426  -0.720   0.740   7.360  2.5512  0.3483  0.8932
   50bbb     H4 1427  -0.685   0.834   7.496 -0.6163  0.6142  0.3592
   50bbb     C3 1428  -0.918   0.695   7.544 -0.2196 -0.4653  0.7989
   50bbb     H5 1429  -1.027   0.684   7.556 -0.4378 -0.8044 -1.0810
   50bbb     H6 1430  -0.866   0.712   7.638  1.6801  1.1266 -0.4646
   50bbb     C4 1431  -0.879   0.554   7.491  0.4006 -0.5030  0.6994
   50bbb     H7 1432  -0.770   0.555   7.475 -0.0536 -0.1680 -3.5991
   50bbb     H8 1433  -0.921   0.544   7.390  3.2659 -0.5234 -0.5967
   50bbb     C5 1434  -1.094   0.932   7.572 -0.6350  0.2520 -0.3171
   50bbb     H9 1435  -1.112   1.039   7.586  0.4304  0.3762  0.2173
   50bbb    H10 1436  -1.097   0.878   7.667 -1.6535  0.9428  0.0653
   50bbb     C6 1437  -0.735   0.943   7.314 -0.4042  0.3317 -0.2867
   50bbb    H11 1438  -0.769   1.041   7.348 -0.5253  0.8256 -1.7533
   50bbb    H12 1439  -0.801   0.931   7.227 -0.3274 -0.1809 -0.2784
   50bbb     C7 1440  -0.931   0.440   7.581 -0.7532  1.0508  0.2946
   50bbb    H13 1441  -0.919   0.351   7.519 -0.6939  1.2556  0.0119
   50bbb    H14 1442  -1.035   0.463   7.605 -1.3540  0.2132 -1.4054
   50bbb     C8 1443  -0.586   0.957   7.268  0.0257 -0.5190  0.4977
   50bbb    H15 1444  -0.567   1.027   7.185 -1.0235  0.5569  1.1420
   50bbb    H16 1445  -0.535   0.867   7.231 -0.6765 -0.5814 -0.3482
   50bbb     C9 1446  -1.200   0.863   7.472 -0.3272 -0.2937  0.1870
   50bbb    H17 1447  -1.282   0.815   7.527 -0.3469 -0.7875 -0.2632
   50bbb    H18 1448  -1.141   0.794   7.411 -0.9821 -1.4077  0.7803
   50bbb     O1 1449  -0.852   0.423   7.698 -0.2665 -0.1134 -0.2066
   51bbb     N1 1450  -0.373  -1.892   8.432  0.4637 -0.7656 -0.6036
   51bbb     C1 1451  -0.466  -1.850   8.326 -0.5829  0.7696 -0.5364
   51bbb     H1 1452  -0.457  -1.750   8.283  0.0279 -0.2783 -3.0263
   51bbb     H2 1453  -0.566  -1.864   8.367 -0.1094 -0.2088  0.3636
   51bbb     C2 1454  -0.410  -1.813   8.559  0.4529 -0.4802  0.6575
   51bbb     H3 1455  -0.516  -1.826   8.584  0.6363  1.0072  2.4037
   51bbb     H4 1456  -0.397  -1.705   8.546  0.7838 -0.6176 -0.1795
   51bbb     C3 1457  -0.228  -1.887   8.396  0.7734  0.4352 -0.5077
   51bbb     H5 1458  -0.212  -1.943   8.303  1.4169 -0.3263  0.0503
   51bbb     H6 1459  -0.172  -1.937   8.476  1.2023  0.3808 -0.8381
   51bbb     C4 1460  -0.176  -1.747   8.369  0.5218  0.4221  0.1152
   51bbb     H7 1461  -0.210  -1.679   8.448 -1.3322 -0.5414  0.2274
   51bbb     H8 1462  -0.219  -1.711   8.275  0.2756 -0.5383 -0.1508
   51bbb     C5 1463  -0.459  -1.957   8.212  0.2038  0.0011  0.5418
   51bbb     H9 1464  -0.494  -2.057   8.239  1.9853 -0.9461 -0.4915
   51bbb    H10 1465  -0.361  -1.979   8.169 -0.9020 -1.4955 -1.3589
   51bbb     C6 1466  -0.327  -1.845   8.680 -0.3144 -0.4493 -0.3315
   51bbb    H11 1467  -0.363  -1.779   8.760 -0.1301 -2.7067  1.7014
   51bbb    H12 1468  -0.222  -1.822   8.658 -0.2868  2.0575  1.9304
   51bbb     C7 1469  -0.023  -1.742   8.358  0.3448  0.3363 -0.5109
   51bbb    H13 1470   0.030  -1.788   8.274  3.4433  0.3268  1.3053
   51bbb    H14 1471   0.008  -1.799   8.446 -1.5201  0.2096  0.0994
   51bbb     C8 1472  -0.350  -1.991   8.727 -0.8759 -0.0140  0.0082
   51bbb    H15 1473  -0.347  -2.059   8.641 -0.7613 -1.3460  1.0424
   51bbb    H16 1474  -0.440  -2.011   8.786  0.8761 -0.5563  2.6725
   51bbb     C9 1475  -0.553  -1.916   8.094  0.1035  0.3855  0.3630
   51bbb    H17 1476  -0.554  -1.807   8.081  0.1502  0.2361 -1.0649
   51bbb    H18 1477  -0.656  -1.948   8.113 -0.3566  0.5829 -1.6240
   51bbb     O1 1478   0.025  -1.608   8.383  0.4060 -0.0116  0.2637
   52bbb     N1 1479   1.261  -1.231   8.483 -0.6408 -0.3885  0.1085
   52bbb     C1 1480   1.253  -1.092   8.424  0.5324  0.2141  0.5077
   52bbb     H1 1481   1.232  -1.025   8.508 -3.5863 -0.6184  0.3579
   52bbb     H2 1482   1.173  -1.091   8.349  0.6899 -2.5900  0.1868
   52bbb     C2 1483   1.322  -1.325   8.386  0.5690  0.1228  0.2809
   52bbb     H3 1484   1.425  -1.292   8.367  0.5577  0.6159  1.0006
   52bbb     H4 1485   1.268  -1.319   8.291  0.1423  0.2336  0.5231
   52bbb     C3 1486   1.130  -1.276   8.530 -0.1021  0.0692  0.1540
   52bbb     H5 1487   1.119  -1.381   8.558  1.1920 -0.2674 -0.5241
   52bbb     H6 1488   1.050  -1.268   8.455 -0.1658 -0.5980  0.1446
   52bbb     C4 1489   1.081  -1.186   8.651 -0.1003  0.0068  0.0301
   52bbb     H7 1490   1.033  -1.095   8.612  0.3754  0.2182 -0.0740
   52bbb     H8 1491   1.160  -1.153   8.720  0.3621 -0.5141 -0.2407
   52bbb     C5 1492   1.384  -1.041   8.361  0.3520  0.2725 -0.7439
   52bbb     H9 1493   1.352  -0.945   8.318 -2.5002  0.0258  0.5912
   52bbb    H10 1494   1.424  -1.100   8.278  2.0519  0.6928 -0.2713
   52bbb     C6 1495   1.325  -1.466   8.436 -0.4224 -0.1578 -0.2664
   52bbb    H11 1496   1.378  -1.530   8.365 -1.7778 -0.0637 -1.4119
   52bbb    H12 1497   1.225  -1.512   8.435  0.0924 -1.2941 -1.4369
   52bbb     C7 1498   0.975  -1.272   8.726  0.0717  0.8884  0.2256
   52bbb    H13 1499   0.936  -1.208   8.806  1.5924  0.4216  1.3967
   52bbb    H14 1500   1.013  -1.367   8.766 -0.9052 -0.1782 -1.2481
   52bbb     C8 1501   1.384  -1.491   8.578  0.6246 -0.1338 -0.2162
   52bbb    H15 1502   1.325  -1.460   8.665  0.5742 -1.3454  0.1998
   52bbb    H16 1503   1.487  -1.452   8.584  0.4674  0.4851 -1.2122
   52bbb     C9 1504   1.491  -1.002   8.469 -0.1005  0.2005 -0.1726
   52bbb    H17 1505   1.524  -1.094   8.517 -0.4421 -1.1354 -2.3751
   52bbb    H18 1506   1.451  -0.941   8.551  2.2001  1.3296  0.1843
   52bbb     O1 1507   0.863  -1.293   8.640  0.0102 -0.0775  0.0363
   53bbb     N1 1508  -0.112  -0.950   9.344 -0.1559 -0.0799  0.4722
   53bbb     C1 1509  -0.027  -1.071   9.353  0.6133 -0.3059 -0.3615
   53bbb     H1 1510   0.024  -1.068   9.450  0.1825  2.7887 -0.1093
   53bbb     H2 1511   0.050  -1.069   9.276  1.6494 -0.8580  0.6377
   53bbb     C2 1512  -0.037  -0.822   9.380  0.4679  0.9395 -0.4476
   53bbb     H3 1513  -0.106  -0.738   9.393  0.5398  1.0372 -0.6891
   53bbb     H4 1514   0.037  -0.803   9.301 -0.0462  0.6404 -1.0108
   53bbb     C3 1515  -0.183  -0.945   9.220  0.4334  0.1495 -0.5565
   53bbb     H5 1516  -0.250  -1.031   9.204 -1.0642  1.3600 -1.0277
   53bbb     H6 1517  -0.115  -0.937   9.134 -0.0926  0.3420 -0.9627
   53bbb     C4 1518  -0.276  -0.825   9.209  0.7566 -0.2473  0.0266
   53bbb     H7 1519  -0.210  -0.744   9.178  0.1561  1.1328  2.1378
   53bbb     H8 1520  -0.333  -0.811   9.302 -1.0075  0.7268 -1.1523
   53bbb     C5 1521  -0.101  -1.207   9.345  0.0801 -0.3587  0.2118
   53bbb     H9 1522  -0.035  -1.291   9.370 -0.1286 -0.9854 -1.2149
   53bbb    H10 1523  -0.120  -1.221   9.238  0.5578 -1.7914  0.2957
   53bbb     C6 1524   0.044  -0.817   9.514  0.3019  0.2020  0.8591
   53bbb    H11 1525   0.136  -0.876   9.508  0.0996 -0.1376  1.0097
   53bbb    H12 1526  -0.017  -0.874   9.586 -0.5766 -0.7818 -0.5901
   53bbb     C7 1527  -0.391  -0.850   9.115  0.7482 -0.1298  0.8450
   53bbb    H13 1528  -0.469  -0.773   9.126  1.2471  0.7720 -1.4258
   53bbb    H14 1529  -0.432  -0.949   9.134  1.3351 -0.9099 -1.5748
   53bbb     C8 1530   0.070  -0.670   9.556  0.3560 -0.2359 -0.1277
   53bbb    H15 1531  -0.019  -0.614   9.585  0.2378 -0.3427 -0.2776
   53bbb    H16 1532   0.112  -0.623   9.466 -1.5681  0.2631 -0.8196
   53bbb     C9 1533  -0.230  -1.219   9.424 -0.7654 -0.6288  0.4564
   53bbb    H17 1534  -0.303  -1.146   9.386  0.7807  0.0486 -1.3710
   53bbb    H18 1535  -0.209  -1.194   9.528  1.1947  0.7062 -0.2148
   53bbb     O1 1536  -0.346  -0.855   8.983  0.3684  0.7693 -0.6988
   54bbb     N1 1537  -0.589  -1.513   8.375 -0.9170  0.1166 -0.5876
   54bbb     C1 1538  -0.615  -1.496   8.232  0.0286 -0.5015  0.0681
   54bbb     H1 1539  -0.542  -1.551   8.172 -0.0843 -2.5590  1.7076
   54bbb     H2 1540  -0.595  -1.397   8.189 -1.7027 -0.4522 -0.6928
   54bbb     C2 1541  -0.681  -1.428   8.456 -0.0953  0.8849 -0.4964
   54bbb     H3 1542  -0.785  -1.451   8.428 -0.3192  1.9986 -0.6534
   54bbb     H4 1543  -0.663  -1.321   8.434 -0.3317  1.1746  0.6777
   54bbb     C3 1544  -0.443  -1.477   8.399 -0.3222  0.8798  0.2141
   54bbb     H5 1545  -0.389  -1.539   8.326  0.1139 -0.1741  1.4075
   54bbb     H6 1546  -0.422  -1.523   8.496 -1.3123 -1.1812 -0.4804
   54bbb     C4 1547  -0.392  -1.324   8.393 -0.5573 -0.7313 -0.4908
   54bbb     H7 1548  -0.437  -1.259   8.469 -1.8995 -0.7279 -1.2554
   54bbb     H8 1549  -0.420  -1.290   8.293 -0.8322 -1.7167 -0.7627
   54bbb     C5 1550  -0.762  -1.540   8.190  0.4731  0.2569  0.4187
   54bbb     H9 1551  -0.769  -1.538   8.080 -0.1141  0.5293  0.4577
   54bbb    H10 1552  -0.833  -1.464   8.224  1.2896  0.0846  2.6669
   54bbb     C6 1553  -0.674  -1.440   8.612 -0.2263 -0.3316 -0.3602
   54bbb    H11 1554  -0.754  -1.372   8.644 -1.7916 -1.0015 -2.6119
   54bbb    H12 1555  -0.579  -1.404   8.654  1.0111 -1.8103 -1.7562
   54bbb     C7 1556  -0.241  -1.326   8.410  0.5330  0.2880 -0.5532
   54bbb    H13 1557  -0.191  -1.347   8.315  0.4344 -1.3911 -0.2686
   54bbb    H14 1558  -0.215  -1.409   8.478  0.8338  1.7286  1.1782
   54bbb     C8 1559  -0.704  -1.582   8.660 -0.1920 -0.0525  0.0920
   54bbb    H15 1560  -0.628  -1.643   8.609  0.9624 -1.6929  3.4582
   54bbb    H16 1561  -0.801  -1.618   8.625  0.5164 -1.7072 -0.2608
   54bbb     C9 1562  -0.806  -1.678   8.240  0.3454  0.1803 -0.4256
   54bbb    H17 1563  -0.829  -1.654   8.345  2.5371  2.8268 -0.4413
   54bbb    H18 1564  -0.724  -1.750   8.245  2.7782  2.8239  0.7019
   54bbb     O1 1565  -0.214  -1.189   8.461  0.1569 -0.4163  0.3088
   55bbb     N1 1566   2.501   1.927   7.478  0.6037  0.3989 -0.1744
   55bbb     C1 1567   2.642   1.908   7.479 -0.4062  0.1560 -0.4596
   55bbb     H1 1568   2.663   1.802   7.457 -0.3105  0.2468 -0.8126
   55bbb     H2 1569   2.679   1.930   7.580  1.5191 -0.1664 -1.0701
   55bbb     C2 1570   2.452   2.061   7.489  0.2382 -0.1861 -0.1383
   55bbb     H3 1571   2.345   2.046   7.474  0.4249 -3.2145  1.0128
   55bbb     H4 1572   2.486   2.123   7.404  0.1675  2.2654  1.5015
   55bbb     C3 1573   2.423   1.831   7.568 -0.4965  0.4707 -0.0824
   55bbb     H5 1574   2.323   1.869   7.592 -1.5247 -0.9581 -1.8607
   55bbb     H6 1575   2.479   1.832   7.662  0.2333 -0.0086 -0.4971
   55bbb     C4 1576   2.411   1.691   7.516 -0.6747  0.1342  0.6638
   55bbb     H7 1577   2.504   1.644   7.480  0.6892  0.4974  3.4177
   55bbb     H8 1578   2.344   1.692   7.429  1.1043  1.6962 -0.7685
   55bbb     C5 1579   2.728   1.997   7.386 -0.3038  0.7036 -0.9318
   55bbb     H9 1580   2.728   2.101   7.423 -0.2670  0.5488 -0.4962
   55bbb    H10 1581   2.687   1.998   7.284  0.7563 -1.0974 -1.3999
   55bbb     C6 1582   2.466   2.129   7.627 -0.4351 -0.7796  0.2026
   55bbb    H11 1583   2.573   2.131   7.651 -0.3722  0.7734 -0.0767
   55bbb    H12 1584   2.417   2.073   7.707  2.3730  0.0607  2.7062
   55bbb     C7 1585   2.357   1.593   7.621  0.0081 -0.0472  0.3037
   55bbb    H13 1586   2.252   1.574   7.596  0.0473  1.0202 -0.7298
   55bbb    H14 1587   2.364   1.625   7.726  1.4770 -2.1258  0.8803
   55bbb     C8 1588   2.409   2.271   7.631  0.0475 -0.0510  0.3190
   55bbb    H15 1589   2.305   2.267   7.596 -0.1638 -0.8153  0.9895
   55bbb    H16 1590   2.465   2.333   7.560  0.5427 -0.3579  0.4356
   55bbb     C9 1591   2.877   1.952   7.391  0.6410  0.8493 -0.1194
   55bbb    H17 1592   2.883   1.860   7.331 -1.9359  1.0260 -0.7834
   55bbb    H18 1593   2.904   1.925   7.493  3.1046  2.6499 -0.2036
   55bbb     O1 1594   2.428   1.468   7.610  0.0019  0.2665  0.1241
   56bbb     N1 1595   2.049   1.772   7.877  0.1247 -0.1270 -0.4577
   56bbb     C1 1596   2.086   1.885   7.968 -0.2149 -0.0539  0.4608
   56bbb     H1 1597   2.051   1.873   8.071 -0.5042 -0.3507  0.3266
   56bbb     H2 1598   2.039   1.975   7.928 -1.5978 -1.2146 -0.5899
   56bbb     C2 1599   2.078   1.805   7.736  0.0096  0.4802 -0.6227
   56bbb     H3 1600   2.050   1.723   7.669 -2.0455 -0.9324  1.7658
   56bbb     H4 1601   2.187   1.813   7.730 -0.0952  3.6521 -0.1049
   56bbb     C3 1602   2.088   1.635   7.923  0.4851 -0.4439  0.0170
   56bbb     H5 1603   2.071   1.629   8.031  1.5500  4.0955  0.5960
   56bbb     H6 1604   2.193   1.608   7.905  0.7901  1.4544 -1.3029
   56bbb     C4 1605   1.994   1.517   7.857  0.1813 -0.3775  0.4284
   56bbb     H7 1606   1.992   1.504   7.748 -1.4468 -2.2452  0.6402
   56bbb     H8 1607   1.889   1.541   7.875  0.2069  0.8930 -0.8820
   56bbb     C5 1608   2.230   1.922   7.977 -0.2778 -0.2004  0.1518
   56bbb     H9 1609   2.270   1.968   7.885 -1.0518 -0.1189 -0.1582
   56bbb    H10 1610   2.284   1.828   7.991  1.0833  0.1233 -2.2948
   56bbb     C6 1611   2.002   1.939   7.682 -1.6193  0.6243 -0.3975
   56bbb    H11 1612   1.997   1.916   7.575 -0.2105 -0.8572 -0.1785
   56bbb    H12 1613   2.063   2.029   7.700 -1.0382  0.1948 -0.1670
   56bbb     C7 1614   2.008   1.383   7.930  0.7639 -0.1065 -0.0671
   56bbb    H13 1615   1.961   1.406   8.027  1.0905 -2.4793  0.7111
   56bbb    H14 1616   2.114   1.361   7.948  0.0046 -3.4295  1.0405
   56bbb     C8 1617   1.855   1.946   7.736  0.0353 -0.8290 -0.3067
   56bbb    H15 1618   1.848   1.908   7.838  2.2007  0.9010  0.5671
   56bbb    H16 1619   1.783   1.887   7.678 -0.5666  0.6121 -1.1062
   56bbb     C9 1620   2.264   2.025   8.085 -0.1302 -0.5514 -0.4817
   56bbb    H17 1621   2.197   2.111   8.090  1.7066  0.9221 -0.0978
   56bbb    H18 1622   2.368   2.060   8.088  0.1421 -1.3470 -0.3300
   56bbb     O1 1623   1.933   1.283   7.861 -0.3619  0.3069 -1.0740
   57bbb     N1 1624   0.977   1.791   6.692 -0.4493 -0.2320 -1.0540
   57bbb     C1 1625   1.025   1.930   6.659  0.1100 -0.0729  0.0436
   57bbb     H1 1626   1.134   1.934   6.664  0.0483  0.5366  1.3986
   57bbb     H2 1627   1.000   2.002   6.737  1.4642  0.5279 -0.0540
   57bbb     C2 1628   0.985   1.690   6.588  0.5923 -0.1841 -0.0104
   57bbb     H3 1629   0.916   1.716   6.507  2.3545  0.8850 -1.2092
   57bbb     H4 1630   0.938   1.595   6.619  1.0549 -1.1575 -2.1533
   57bbb     C3 1631   1.037   1.749   6.820  0.0985  0.6496  0.2133
   57bbb     H5 1632   1.020   1.826   6.896 -2.4406 -0.0237  0.4175
   57bbb     H6 1633   1.144   1.734   6.800 -0.0115 -1.8442  1.1773
   57bbb     C4 1634   0.988   1.618   6.881  0.2671  0.6543 -0.0843
   57bbb     H7 1635   1.023   1.539   6.814 -1.6695  0.1221 -0.5096
   57bbb     H8 1636   0.880   1.602   6.883  0.3392  0.2087  1.1727
   57bbb     C5 1637   0.977   1.991   6.528  0.2320  0.3748 -0.5635
   57bbb     H9 1638   1.023   1.934   6.447 -1.9484 -2.2402 -0.0881
   57bbb    H10 1639   1.017   2.094   6.525  0.9648  0.1893  1.4953
   57bbb     C6 1640   1.126   1.658   6.531 -0.0288  0.1394 -0.9290
   57bbb    H11 1641   1.180   1.603   6.609 -0.1541 -0.2852 -1.1393
   57bbb    H12 1642   1.179   1.753   6.521  0.4417 -0.0711 -0.4731
   57bbb     C7 1643   1.033   1.596   7.021  0.3441  0.0087 -0.8973
   57bbb    H13 1644   0.957   1.547   7.083 -1.0695  0.9585 -1.8299
   57bbb    H14 1645   1.045   1.697   7.062 -0.2300 -0.1385 -0.3475
   57bbb     C8 1646   1.115   1.580   6.402  0.1040  0.5303 -0.1061
   57bbb    H15 1647   1.206   1.554   6.346 -1.8871 -3.0180 -1.9763
   57bbb    H16 1648   1.054   1.636   6.330  2.3354  1.9634 -1.0246
   57bbb     C9 1649   0.823   2.004   6.526  0.0795 -0.7557  0.0377
   57bbb    H17 1650   0.793   2.046   6.623  2.0228  1.1650 -0.1159
   57bbb    H18 1651   0.785   1.901   6.519 -1.0277 -0.2842 -0.9446
   57bbb     O1 1652   1.158   1.531   7.040  0.8400 -0.0241  0.2533
   58bbb     N1 1653   2.048   1.574   6.548  0.0616  0.2266  0.1835
   58bbb     C1 1654   1.903   1.580   6.508 -0.5864 -0.1199 -0.1369
   58bbb     H1 1655   1.899   1.655   6.429 -1.5316  1.0722  0.9968
   58bbb     H2 1656   1.856   1.633   6.592  2.1970  0.1055  1.4157
   58bbb     C2 1657   2.111   1.707   6.566 -0.3670 -0.4897 -0.4525
   58bbb     H3 1658   2.211   1.680   6.602  0.7893  0.3516 -2.7935
   58bbb     H4 1659   2.047   1.759   6.638  0.9403 -0.7492  0.9508
   58bbb     C3 1660   2.077   1.482   6.661  0.0387 -0.2522 -0.0782
   58bbb     H5 1661   2.184   1.460   6.663  0.2501  0.6874 -0.6858
   58bbb     H6 1662   2.023   1.390   6.637 -1.0832 -0.0721  1.5437
   58bbb     C4 1663   2.037   1.545   6.805 -0.7456 -0.3100 -0.3199
   58bbb     H7 1664   1.938   1.584   6.778 -1.4720  0.3215  2.8504
   58bbb     H8 1665   2.102   1.627   6.837 -0.9988 -0.7514  1.3814
   58bbb     C5 1666   1.835   1.454   6.466  0.0746 -0.6580  0.2019
   58bbb     H9 1667   1.806   1.409   6.562  0.1179  1.5611  1.3184
   58bbb    H10 1668   1.900   1.384   6.411  2.7138  0.5087  1.6530
   58bbb     C6 1669   2.145   1.789   6.435  0.1702  0.2650  0.0123
   58bbb    H11 1670   2.053   1.835   6.395 -0.1438 -0.4033 -0.0401
   58bbb    H12 1671   2.186   1.715   6.365 -4.4460 -1.0326 -1.6986
   58bbb     C7 1672   2.022   1.443   6.925 -0.6681 -0.1291 -0.2722
   58bbb    H13 1673   2.018   1.492   7.024 -2.8434 -1.9513  0.6320
   58bbb    H14 1674   2.110   1.379   6.938 -0.3132 -0.3829 -3.3597
   58bbb     C8 1675   2.254   1.896   6.466  0.1441  0.3193 -0.7380
   58bbb    H15 1676   2.292   1.946   6.376  0.9332  1.7846  0.3701
   58bbb    H16 1677   2.348   1.860   6.509 -0.8601 -0.8398  0.5974
   58bbb     C9 1678   1.706   1.486   6.387 -0.5680  0.4940 -0.3211
   58bbb    H17 1679   1.750   1.530   6.296  6.2162  0.5766  2.4081
   58bbb    H18 1680   1.643   1.562   6.434  0.2453 -0.4542  2.5089
   58bbb     O1 1681   1.913   1.361   6.901  0.0181  0.0737  0.1449
   59bbb     N1 1682   0.939   3.210   6.052  0.9042 -0.2000 -0.3883
   59bbb     C1 1683   0.899   3.291   6.173  0.2500 -0.0759 -0.4892
   59bbb     H1 1684   0.821   3.236   6.228  1.2192 -0.4919  0.5004
   59bbb     H2 1685   0.846   3.380   6.135 -0.6154 -1.1426 -1.8719
   59bbb     C2 1686   1.040   3.277   5.961 -1.0070  0.0420  0.1356
   59bbb     H3 1687   1.141   3.271   6.003 -0.0673 -2.7521 -2.1760
   59bbb     H4 1688   1.016   3.383   5.947 -0.4133 -0.0852 -2.3732
   59bbb     C3 1689   0.975   3.067   6.085  0.0225 -0.3350 -0.0857
   59bbb     H5 1690   1.076   3.066   6.128  0.2615 -1.2269 -0.6281
   59bbb     H6 1691   0.979   3.013   5.989  1.8349  1.2336 -0.9717
   59bbb     C4 1692   0.875   2.987   6.170  0.3677 -0.0401  0.1750
   59bbb     H7 1693   0.773   3.009   6.135  0.3336  0.4286  0.5480
   59bbb     H8 1694   0.866   3.027   6.272 -3.9187 -1.3498  0.4814
   59bbb     C5 1695   1.003   3.329   6.272  0.1774  0.7800 -0.5122
   59bbb     H9 1696   1.083   3.380   6.217  1.2782 -0.7663 -0.4254
   59bbb    H10 1697   1.046   3.236   6.312  1.0050  1.1920 -0.4288
   59bbb     C6 1698   1.080   3.220   5.821 -0.6324 -0.1519  0.5739
   59bbb    H11 1699   1.142   3.132   5.842 -0.6149 -0.0474  0.9686
   59bbb    H12 1700   1.139   3.288   5.759  0.5174  0.3448  2.1516
   59bbb     C7 1701   0.895   2.838   6.180 -0.3545 -0.3251  0.4076
   59bbb    H13 1702   0.880   2.792   6.081 -0.4532 -0.0467  0.2922
   59bbb    H14 1703   0.828   2.796   6.256  0.4492 -0.1682  1.2270
   59bbb     C8 1704   0.955   3.166   5.743  0.1450  0.1054  0.8161
   59bbb    H15 1705   0.865   3.224   5.769  0.2788  0.2980  0.8561
   59bbb    H16 1706   0.926   3.066   5.776  0.9304 -0.9602 -1.4673
   59bbb     C9 1707   0.944   3.433   6.380  0.2220  0.2177  0.1517
   59bbb    H17 1708   0.935   3.529   6.327 -2.6957 -0.5829 -1.0017
   59bbb    H18 1709   1.019   3.434   6.460  0.5666 -0.2393 -0.1601
   59bbb     O1 1710   1.034   2.822   6.224 -0.9514 -1.0261 -0.4420
   60bbb     N1 1711   1.965   2.906   5.701 -0.5652  0.1185 -0.0344
   60bbb     C1 1712   1.933   3.030   5.620  0.3240  0.0973 -0.1212
   60bbb     H1 1713   2.008   3.051   5.542 -2.1575  0.1384 -2.6477
   60bbb     H2 1714   1.917   3.113   5.690 -1.2143 -0.3486  0.0852
   60bbb     C2 1715   2.085   2.836   5.648 -0.1561  0.8542  0.3579
   60bbb     H3 1716   2.103   2.751   5.716  1.8712  1.9971  1.3466
   60bbb     H4 1717   2.176   2.896   5.644  1.9412 -1.9863  1.7607
   60bbb     C3 1718   1.970   2.906   5.845 -0.0372 -0.4494 -0.6215
   60bbb     H5 1719   2.038   2.983   5.883  1.4207 -1.8343 -0.2984
   60bbb     H6 1720   2.017   2.815   5.885 -1.6499 -0.9361  0.2626
   60bbb     C4 1721   1.836   2.911   5.921  0.0791 -0.1005 -0.0682
   60bbb     H7 1722   1.770   2.836   5.877 -1.4496  1.2843 -0.2563
   60bbb     H8 1723   1.787   3.006   5.895 -1.5330 -0.6833  0.6766
   60bbb     C5 1724   1.797   3.019   5.540  0.6911  0.1607  0.4009
   60bbb     H9 1725   1.712   3.007   5.608  1.4372  0.9723  1.4938
   60bbb    H10 1726   1.798   2.932   5.473 -0.0017 -0.1257  0.7436
   60bbb     C6 1727   2.056   2.780   5.505  0.0190  0.2396  0.7945
   60bbb    H11 1728   2.146   2.734   5.462 -0.8598 -1.5758  0.7948
   60bbb    H12 1729   2.020   2.860   5.440 -0.6191  0.7539  1.7635
   60bbb     C7 1730   1.836   2.907   6.070  0.3114 -0.4037 -0.4154
   60bbb    H13 1731   1.763   2.981   6.107 -0.5542 -0.8718 -1.1317
   60bbb    H14 1732   1.934   2.927   6.115  0.4983  2.0526 -1.6964
   60bbb     C8 1733   1.942   2.665   5.517 -0.6179 -0.1684  0.7558
   60bbb    H15 1734   1.879   2.707   5.596 -0.1635  0.0468  1.0088
   60bbb    H16 1735   1.977   2.566   5.548  2.3065  0.0012 -1.4803
   60bbb     C9 1736   1.768   3.145   5.450  0.2424  0.1855 -0.4625
   60bbb    H17 1737   1.858   3.155   5.388 -0.9142  1.4372 -2.0167
   60bbb    H18 1738   1.760   3.230   5.519 -1.9831 -0.5081  0.2385
   60bbb     O1 1739   1.784   2.778   6.114 -0.0496  0.2923 -0.2423
   61bbb     N1 1740   1.288   2.855   5.827 -0.2346  0.1820 -0.0775
   61bbb     C1 1741   1.322   2.905   5.964  0.4358  0.5418  0.4058
   61bbb     H1 1742   1.341   2.816   6.025 -1.8348  1.8989  3.3569
   61bbb     H2 1743   1.228   2.949   5.998  0.8425  0.8916  1.0941
   61bbb     C2 1744   1.153   2.791   5.821  0.6048 -0.2654 -0.9255
   61bbb     H3 1745   1.073   2.837   5.881  0.6115 -1.2693 -0.1269
   61bbb     H4 1746   1.157   2.689   5.862  0.6572 -0.3957 -1.2556
   61bbb     C3 1747   1.398   2.787   5.753  0.1500  0.3631  0.2936
   61bbb     H5 1748   1.486   2.852   5.742  1.2265 -0.5745  2.8256
   61bbb     H6 1749   1.357   2.774   5.652 -0.1777 -1.3890  0.6247
   61bbb     C4 1750   1.435   2.654   5.808 -0.2064  0.1241 -0.3537
   61bbb     H7 1751   1.344   2.598   5.833  0.3523 -0.7801 -0.2775
   61bbb     H8 1752   1.492   2.672   5.900  0.4817 -1.1346 -0.5081
   61bbb     C5 1753   1.435   3.007   5.982  0.4174 -0.6939  0.2756
   61bbb     H9 1754   1.449   3.060   5.887 -1.0692 -1.1234 -0.2172
   61bbb    H10 1755   1.526   2.946   5.987  0.9489 -0.1321 -1.6853
   61bbb     C6 1756   1.098   2.782   5.679  0.0053  0.0337  0.2033
   61bbb    H11 1757   1.161   2.720   5.614 -2.0518  1.8693 -3.9699
   61bbb    H12 1758   1.106   2.882   5.633  1.1019  0.7826  1.9372
   61bbb     C7 1759   1.516   2.568   5.707 -0.3641 -0.0986 -1.2635
   61bbb    H13 1760   1.590   2.628   5.653  4.1724 -3.3769  0.6365
   61bbb    H14 1761   1.446   2.524   5.636 -1.5003  0.2868 -0.4193
   61bbb     C8 1762   0.955   2.715   5.672  0.2975 -0.5692  0.0305
   61bbb    H15 1763   0.964   2.619   5.724  2.7912  0.4956  1.8035
   61bbb    H16 1764   0.927   2.693   5.568 -0.7772 -0.9277  0.3889
   61bbb     C9 1765   1.420   3.111   6.091  0.8852 -0.2102 -0.1635
   61bbb    H17 1766   1.330   3.172   6.075  0.9017  0.1753  1.1206
   61bbb    H18 1767   1.509   3.175   6.083  1.1818 -0.7532 -1.5903
   61bbb     O1 1768   1.578   2.461   5.779 -0.1467 -0.2221  0.1331
   62bbb     N1 1769   2.685   2.698   5.422 -0.1818  0.0286  0.1348
   62bbb     C1 1770   2.820   2.660   5.360 -0.0331 -0.3569 -0.1177
   62bbb     H1 1771   2.860   2.729   5.286  0.1954 -0.4985 -0.1282
   62bbb     H2 1772   2.807   2.561   5.314 -2.0680 -0.7445  1.1242
   62bbb     C2 1773   2.670   2.848   5.432 -0.2824  0.6342 -0.2871
   62bbb     H3 1774   2.760   2.892   5.477 -0.1286 -0.2105  0.2523
   62bbb     H4 1775   2.590   2.878   5.500  0.0345  0.7500  0.0386
   62bbb     C3 1776   2.649   2.625   5.547 -0.4178  0.0751 -0.2745
   62bbb     H5 1777   2.693   2.675   5.634  0.7479  1.3769 -1.5636
   62bbb     H6 1778   2.689   2.523   5.545 -0.3489  0.1055 -1.6478
   62bbb     C4 1779   2.499   2.625   5.563  0.5476  0.4501  0.0678
   62bbb     H7 1780   2.453   2.593   5.469  0.3268 -2.0845  0.9642
   62bbb     H8 1781   2.470   2.726   5.592  1.5598 -0.1202  3.4344
   62bbb     C5 1782   2.931   2.648   5.463  0.6930 -0.3650  0.5261
   62bbb     H9 1783   2.911   2.575   5.542  1.7273 -0.4029  0.7614
   62bbb    H10 1784   2.930   2.748   5.509 -2.0360 -1.1227  2.3727
   62bbb     C6 1785   2.632   2.894   5.292  0.7131 -0.0360  0.0745
   62bbb    H11 1786   2.549   2.831   5.256  0.2290 -0.1069  1.2804
   62bbb    H12 1787   2.707   2.868   5.216 -0.3181 -0.7832 -0.7241
   62bbb     C7 1788   2.462   2.526   5.674  0.0013  0.5830  0.5203
   62bbb    H13 1789   2.525   2.555   5.759  2.1124  0.0992 -0.8190
   62bbb    H14 1790   2.498   2.429   5.639  3.5361  2.1255 -0.6641
   62bbb     C8 1791   2.608   3.044   5.270  0.5004  0.1463  0.2643
   62bbb    H15 1792   2.701   3.103   5.268  1.0230 -0.6448  0.3875
   62bbb    H16 1793   2.551   3.080   5.357 -1.3768 -0.5419 -0.6379
   62bbb     C9 1794   3.064   2.608   5.394  0.4670 -0.1932 -0.0200
   62bbb    H17 1795   3.149   2.633   5.458  1.1812  1.1020 -1.4184
   62bbb    H18 1796   3.085   2.664   5.302 -0.3841 -0.9399 -0.6934
   62bbb     O1 1797   2.321   2.542   5.707  0.0505 -0.3341  0.0880
   63bbb     N1 1798   2.641  -0.233  10.591  0.3178 -0.2090  0.4789
   63bbb     C1 1799   2.555  -0.184  10.700  0.1025  0.2131  0.1789
   63bbb     H1 1800   2.453  -0.170  10.661  0.7240  2.2143 -0.8538
   63bbb     H2 1801   2.576  -0.082  10.732 -2.2639  0.3904  1.3390
   63bbb     C2 1802   2.780  -0.285  10.614  0.0002 -0.0781 -0.2275
   63bbb     H3 1803   2.807  -0.341  10.524  1.0161  1.6246 -1.0290
   63bbb     H4 1804   2.778  -0.348  10.703 -1.0509  0.7904  0.3939
   63bbb     C3 1805   2.633  -0.151  10.467 -0.8297 -0.1951 -0.7265
   63bbb     H5 1806   2.701  -0.198  10.395 -1.0228  2.1519 -2.5640
   63bbb     H6 1807   2.676  -0.054  10.495 -2.0182  0.3777 -0.8127
   63bbb     C4 1808   2.501  -0.140  10.384  0.6104  0.5277 -0.2707
   63bbb     H7 1809   2.518  -0.090  10.288 -1.7069 -0.6393 -1.3859
   63bbb     H8 1810   2.427  -0.090  10.448  0.0454  0.5036 -0.9002
   63bbb     C5 1811   2.544  -0.280  10.816  0.6453  0.1338 -0.1567
   63bbb     H9 1812   2.630  -0.304  10.880 -1.6863 -0.8654  2.8524
   63bbb    H10 1813   2.512  -0.373  10.767  0.7539 -0.5040  0.9443
   63bbb     C6 1814   2.892  -0.186  10.639 -0.4598 -1.2520 -0.2068
   63bbb    H11 1815   2.914  -0.133  10.546  2.9170  0.9478  1.6197
   63bbb    H12 1816   2.985  -0.241  10.660  0.2138  0.0925  0.4933
   63bbb     C7 1817   2.457  -0.281  10.344  0.0340  0.7867 -0.3486
   63bbb    H13 1818   2.470  -0.348  10.430 -0.7680  0.4455 -0.4860
   63bbb    H14 1819   2.530  -0.310  10.267  1.2464  3.4442 -0.2945
   63bbb     C8 1820   2.872  -0.076  10.744 -0.1662 -0.1116  0.4057
   63bbb    H15 1821   2.852  -0.125  10.840  0.9812 -1.3383  0.0543
   63bbb    H16 1822   2.789  -0.010  10.719  0.0592  0.5278  1.3025
   63bbb     C9 1823   2.426  -0.247  10.911  0.2827  0.4849  0.0925
   63bbb    H17 1824   2.439  -0.294  11.009 -1.8661 -0.0808  0.1479
   63bbb    H18 1825   2.329  -0.280  10.871  0.3433  1.1351 -0.6231
   63bbb     O1 1826   2.322  -0.272  10.290 -0.4394 -0.0242 -0.3574
   64bbb     N1 1827   1.355  -0.141  10.638  0.4575  0.5126 -0.4075
   64bbb     C1 1828   1.243  -0.062  10.579  0.8783  0.1072 -0.3145
   64bbb     H1 1829   1.163  -0.136  10.564  1.1809 -0.3414  0.2286
   64bbb     H2 1830   1.264  -0.012  10.484 -3.0266 -0.4532 -1.6735
   64bbb     C2 1831   1.327  -0.233  10.759  0.1975  0.5203  0.0986
   64bbb     H3 1832   1.341  -0.188  10.859 -3.1883 -2.6211  2.2486
   64bbb     H4 1833   1.390  -0.322  10.749  1.0205  1.0884  0.0705
   64bbb     C3 1834   1.488  -0.088  10.616 -0.4837  0.2768 -0.4152
   64bbb     H5 1835   1.501   0.006  10.671 -1.8501  0.0070  0.3989
   64bbb     H6 1836   1.487  -0.077  10.507  0.8229 -2.8012 -0.8581
   64bbb     C4 1837   1.608  -0.185  10.657 -0.2275 -0.2153 -0.2530
   64bbb     H7 1838   1.604  -0.233  10.755 -1.2949  0.7185  0.1825
   64bbb     H8 1839   1.698  -0.123  10.648 -0.3389 -0.0981 -0.5805
   64bbb     C5 1840   1.195   0.053  10.676 -0.6540  0.0606  0.0578
   64bbb     H9 1841   1.283   0.114  10.700 -0.0313 -0.4261 -0.8864
   64bbb    H10 1842   1.156  -0.001  10.763  1.4466 -1.3835  0.1933
   64bbb     C6 1843   1.187  -0.292  10.781  0.7145  0.0188 -0.4681
   64bbb    H11 1844   1.151  -0.351  10.696 -0.4891  0.8017 -0.5298
   64bbb    H12 1845   1.102  -0.224  10.795 -1.9456 -2.9849 -0.7209
   64bbb     C7 1846   1.622  -0.303  10.557 -0.0107 -0.1159 -0.4816
   64bbb    H13 1847   1.635  -0.259  10.458  2.2566 -0.0130 -0.1849
   64bbb    H14 1848   1.541  -0.377  10.556  1.5137 -1.8734 -2.1757
   64bbb     C8 1849   1.191  -0.380  10.905  0.1605  0.5800  0.4755
   64bbb    H15 1850   1.261  -0.337  10.978 -0.5035  2.3928  0.0784
   64bbb    H16 1851   1.227  -0.475  10.864 -0.5863  0.7579 -0.6186
   64bbb     C9 1852   1.081   0.144  10.630 -0.8114  0.3540  0.7110
   64bbb    H17 1853   1.107   0.205  10.542 -3.0259  0.3839  0.0139
   64bbb    H18 1854   1.063   0.210  10.715 -0.4461  0.8215  0.4309
   64bbb     O1 1855   1.741  -0.372  10.596  0.7607 -0.0691  0.2844
   65bbb     N1 1856   2.363   0.865  10.517 -0.4613  0.0502  0.6904
   65bbb     C1 1857   2.471   0.970  10.524 -0.4057 -0.4319 -0.8416
   65bbb     H1 1858   2.483   1.003  10.628 -0.5511 -0.9834 -0.6460
   65bbb     H2 1859   2.443   1.057  10.464 -0.7346 -1.2601 -1.9168
   65bbb     C2 1860   2.310   0.843  10.380  0.6225  0.2163  0.2398
   65bbb     H3 1861   2.391   0.793  10.325  3.8505  3.3580  1.7755
   65bbb     H4 1862   2.284   0.936  10.327  2.3340  0.0781 -0.9206
   65bbb     C3 1863   2.389   0.746  10.604  0.4544  0.5988  0.5555
   65bbb     H5 1864   2.483   0.708  10.562 -0.0730  0.4956 -0.5994
   65bbb     H6 1865   2.306   0.674  10.602  1.2596 -0.3481  0.7168
   65bbb     C4 1866   2.396   0.782  10.755  0.3022  0.4718  0.5752
   65bbb     H7 1867   2.313   0.846  10.787  1.7849  2.3766  0.7467
   65bbb     H8 1868   2.484   0.844  10.774  0.8038 -0.1218  0.2422
   65bbb     C5 1869   2.607   0.922  10.467  0.5992  0.8238  0.5852
   65bbb     H9 1870   2.586   0.870  10.373 -0.5931  0.0668  1.2417
   65bbb    H10 1871   2.645   0.851  10.542 -3.0982 -0.9950  1.0068
   65bbb     C6 1872   2.181   0.754  10.370 -0.4708  0.1083  0.8303
   65bbb    H11 1873   2.185   0.662  10.430 -1.2093 -1.4902 -1.4671
   65bbb    H12 1874   2.180   0.721  10.266  0.1002 -0.2680  0.9389
   65bbb     C7 1875   2.407   0.670  10.850 -0.2987  0.0300 -0.2039
   65bbb    H13 1876   2.429   0.708  10.950 -2.1547 -1.2410  0.7436
   65bbb    H14 1877   2.494   0.616  10.809 -0.0323  1.9515 -2.3884
   65bbb     C8 1878   2.052   0.837  10.400  0.3109  0.5589  0.1332
   65bbb    H15 1879   2.068   0.868  10.505  0.6851  1.2030 -0.1063
   65bbb    H16 1880   1.967   0.771  10.381  0.5063 -0.1815  1.6114
   65bbb     C9 1881   2.690   1.040  10.421 -0.1837  0.2179 -0.0847
   65bbb    H17 1882   2.650   1.078  10.326  1.1598  1.7942 -0.0625
   65bbb    H18 1883   2.795   1.021  10.398 -0.8357 -0.5640 -2.7183
   65bbb     O1 1884   2.291   0.591  10.844  0.0473  0.0874  0.0449
   66bbb     N1 1885   1.204  -0.043  11.162 -0.0252 -0.5704  0.1866
   66bbb     C1 1886   1.176  -0.093  11.296  0.4030  0.0897  0.6713
   66bbb     H1 1887   1.100  -0.170  11.275 -0.3340  1.6931 -3.5840
   66bbb     H2 1888   1.133  -0.010  11.353 -0.9479  2.0771 -2.8741
   66bbb     C2 1889   1.089  -0.050  11.065  0.0019 -0.0365  0.1101
   66bbb     H3 1890   1.066  -0.152  11.032 -1.6692  0.4779 -0.4084
   66bbb     H4 1891   1.118  -0.001  10.971  0.7595 -0.3671  0.1619
   66bbb     C3 1892   1.280   0.087  11.160 -0.3348 -0.4906 -0.1298
   66bbb     H5 1893   1.355   0.101  11.238 -0.0829  1.6558 -0.6851
   66bbb     H6 1894   1.212   0.171  11.182  0.8770  1.4591 -3.1559
   66bbb     C4 1895   1.340   0.128  11.027 -0.0486  0.1559  0.2895
   66bbb     H7 1896   1.254   0.166  10.972  0.6304 -0.3324 -1.1673
   66bbb     H8 1897   1.373   0.035  10.978 -0.5186 -0.6241  1.4057
   66bbb     C5 1898   1.288  -0.173  11.375  0.1398 -0.3341  0.3309
   66bbb     H9 1899   1.384  -0.120  11.380  0.3138 -0.5383 -0.6933
   66bbb    H10 1900   1.306  -0.264  11.317 -0.2148  0.2335 -0.6879
   66bbb     C6 1901   0.963   0.026  11.119 -0.6941  0.2496 -0.1969
   66bbb    H11 1902   0.984   0.129  11.152 -1.9864  0.3703  0.2861
   66bbb    H12 1903   0.918  -0.029  11.203 -0.0434 -0.8126 -0.5213
   66bbb     C7 1904   1.451   0.227  11.045  0.0087 -0.1812  0.3475
   66bbb    H13 1905   1.504   0.197  11.136  0.8220 -1.1948 -0.4348
   66bbb    H14 1906   1.399   0.323  11.053 -1.7287 -1.0693  0.0760
   66bbb     C8 1907   0.856   0.027  11.011  0.9021 -0.1224 -0.1490
   66bbb    H15 1908   0.837  -0.079  10.988 -1.2324 -0.1818  1.5438
   66bbb    H16 1909   0.892   0.076  10.919 -0.6402  1.7845  0.1994
   66bbb     C9 1910   1.246  -0.216  11.519 -0.2000 -0.4576  0.2523
   66bbb    H17 1911   1.226  -0.135  11.590  1.2096 -1.6858  2.1445
   66bbb    H18 1912   1.328  -0.269  11.570  0.5430 -0.9340 -1.3786
   66bbb     O1 1913   1.529   0.220  10.927 -0.0808  0.3598 -0.4636
   67bbb     N1 1914   3.116  -0.797   9.302 -0.0938  0.1747 -0.0527
   67bbb     C1 1915   3.181  -0.702   9.394 -0.0246  0.2979 -0.8226
   67bbb     H1 1916   3.130  -0.607   9.370  0.4131  1.1265  1.3134
   67bbb     H2 1917   3.285  -0.691   9.362 -0.1408  1.4012 -0.8809
   67bbb     C2 1918   3.138  -0.764   9.160  0.6762 -0.1552 -0.2685
   67bbb     H3 1919   3.236  -0.717   9.145  0.6265  0.0915  0.1527
   67bbb     H4 1920   3.067  -0.686   9.128  2.4630  1.9574  0.6427
   67bbb     C3 1921   2.970  -0.825   9.325  0.1619  0.1153  0.4254
   67bbb     H5 1922   2.957  -0.887   9.415  0.1656  0.8582  0.9373
   67bbb     H6 1923   2.931  -0.891   9.246 -0.4624  1.0708 -0.0770
   67bbb     C4 1924   2.871  -0.703   9.341 -0.0054  0.7966  0.3901
   67bbb     H7 1925   2.892  -0.630   9.263  0.6535 -0.6797 -0.8643
   67bbb     H8 1926   2.887  -0.666   9.443  1.5327  1.4525 -0.0672
   67bbb     C5 1927   3.173  -0.725   9.551 -0.4032 -0.4877 -0.2428
   67bbb     H9 1928   3.232  -0.814   9.576  0.0353 -0.6203 -1.6784
   67bbb    H10 1929   3.070  -0.748   9.578 -0.9067  2.4099  0.6081
   67bbb     C6 1930   3.125  -0.880   9.055  0.4976  0.5407  0.0022
   67bbb    H11 1931   3.153  -0.833   8.960 -0.8510 -0.4451 -0.9307
   67bbb    H12 1932   3.017  -0.900   9.051  0.7856 -0.9197 -1.1837
   67bbb     C7 1933   2.717  -0.738   9.332 -0.7214  0.0430 -0.3268
   67bbb    H13 1934   2.694  -0.833   9.382 -2.0867  0.6783  0.3150
   67bbb    H14 1935   2.699  -0.755   9.226  1.6179 -0.5338 -0.6970
   67bbb     C8 1936   3.223  -1.000   9.083  0.1968  0.2237  0.4743
   67bbb    H15 1937   3.199  -1.051   9.176 -0.1805  1.8414  1.2940
   67bbb    H16 1938   3.328  -0.967   9.078  0.1500  0.5445  1.4353
   67bbb     C9 1939   3.231  -0.620   9.641 -0.3325  0.1892  0.3143
   67bbb    H17 1940   3.232  -0.657   9.744  0.4567  0.5865  0.4577
   67bbb    H18 1941   3.162  -0.538   9.616 -1.3835 -0.9219 -0.5078
   67bbb     O1 1942   2.638  -0.628   9.385  0.0294 -0.1749 -1.3308
   68bbb     N1 1943   2.362  -0.830  10.350 -0.2511 -0.4779  0.1796
   68bbb     C1 1944   2.280  -0.798  10.472  0.3196  0.4066  0.7671
   68bbb     H1 1945   2.305  -0.865  10.555 -4.0577 -0.3048  1.7322
   68bbb     H2 1946   2.183  -0.843  10.450  0.2728  0.5676  0.6437
   68bbb     C2 1947   2.361  -0.976  10.307 -0.2180  0.1307  0.5549
   68bbb     H3 1948   2.450  -0.995  10.244  0.3866  1.7521  0.8794
   68bbb     H4 1949   2.271  -1.001  10.249  0.8151 -0.2795 -0.9389
   68bbb     C3 1950   2.336  -0.731  10.242 -0.6188 -0.3898 -0.0624
   68bbb     H5 1951   2.362  -0.630  10.274 -1.7343 -0.5510  1.4844
   68bbb     H6 1952   2.231  -0.733  10.209 -2.5900 -2.2296  5.2896
   68bbb     C4 1953   2.429  -0.756  10.119  0.2638 -0.2738  0.3143
   68bbb     H7 1954   2.418  -0.857  10.079 -0.8232  0.3140 -0.9743
   68bbb     H8 1955   2.531  -0.733  10.152 -0.1429  1.4968  0.4468
   68bbb     C5 1956   2.269  -0.661  10.534 -0.3236  0.3882  0.1641
   68bbb     H9 1957   2.183  -0.605  10.496 -0.3025  0.9751  0.9565
   68bbb    H10 1958   2.362  -0.610  10.509 -0.2332 -0.7236 -1.9798
   68bbb     C6 1959   2.372  -1.078  10.429 -0.1902 -0.5270  0.1261
   68bbb    H11 1960   2.289  -1.064  10.498 -0.3346  1.7200 -0.4341
   68bbb    H12 1961   2.460  -1.048  10.487  0.2624  0.2247 -0.9117
   68bbb     C7 1962   2.401  -0.661  10.003  0.2752 -0.2101 -0.2593
   68bbb    H13 1963   2.448  -0.703   9.913 -1.7399  0.2954 -1.6156
   68bbb    H14 1964   2.432  -0.557  10.021  1.4288 -0.5069 -0.4623
   68bbb     C8 1965   2.383  -1.224  10.385  0.1709 -0.2962 -0.4808
   68bbb    H15 1966   2.445  -1.250  10.298  1.2472 -1.0164  0.4756
   68bbb    H16 1967   2.282  -1.257  10.357 -0.0322  0.4819 -0.7127
   68bbb     C9 1968   2.251  -0.676  10.686  0.6906  0.4984  0.2580
   68bbb    H17 1969   2.326  -0.749  10.719  1.2596  0.4362 -1.1014
   68bbb    H18 1970   2.154  -0.724  10.707 -0.4209  2.5088 -0.0523
   68bbb     O1 1971   2.259  -0.651   9.984  0.2517 -0.1662 -0.2403
   69bbb     N1 1972   3.167  -0.338  10.102  0.1070  0.2027 -0.4474
   69bbb     C1 1973   3.261  -0.454  10.088  0.1842  0.2135 -0.3575
   69bbb     H1 1974   3.227  -0.519  10.006 -1.5189 -1.6799  1.7239
   69bbb     H2 1975   3.252  -0.517  10.178 -1.1832  1.6297  0.5474
   69bbb     C2 1976   3.030  -0.375  10.147 -0.6220 -0.3575  0.2475
   69bbb     H3 1977   3.048  -0.424  10.244 -1.5238  1.3912  1.3542
   69bbb     H4 1978   2.994  -0.445  10.071  2.2545  0.2735 -1.8654
   69bbb     C3 1979   3.172  -0.243   9.993 -0.4545  0.4131  0.1549
   69bbb     H5 1980   3.272  -0.205   9.971 -0.6839 -0.1157 -1.9929
   69bbb     H6 1981   3.113  -0.152  10.010 -1.2960  0.3154 -1.9319
   69bbb     C4 1982   3.118  -0.299   9.860  0.3315  0.1497  0.0184
   69bbb     H7 1983   3.015  -0.338   9.869  0.6603 -1.2010 -1.5827
   69bbb     H8 1984   3.178  -0.384   9.827 -1.7307 -1.3994  0.0196
   69bbb     C5 1985   3.405  -0.414  10.055 -0.3451  0.5193 -0.2327
   69bbb     H9 1986   3.455  -0.344  10.123  2.6637  0.6464 -2.3358
   69bbb    H10 1987   3.415  -0.366   9.957  0.1370  3.3221  1.0940
   69bbb     C6 1988   2.925  -0.261  10.157 -0.2450 -0.6878  0.3824
   69bbb    H11 1989   2.913  -0.196  10.070 -0.1121 -0.7327  0.3300
   69bbb    H12 1990   2.937  -0.192  10.241  0.8934  0.9011 -1.0354
   69bbb     C7 1991   3.118  -0.199   9.746  0.8852 -0.4850  0.3685
   69bbb    H13 1992   3.223  -0.207   9.714  1.2353 -0.8917  1.5351
   69bbb    H14 1993   3.080  -0.101   9.778 -1.9107  0.2510 -4.3952
   69bbb     C8 1994   2.782  -0.320  10.168  1.1171  0.5509  0.1887
   69bbb    H15 1995   2.755  -0.362  10.070  0.6111  0.8913  0.1784
   69bbb    H16 1996   2.711  -0.243  10.201 -0.2732 -0.8052  0.4892
   69bbb     C9 1997   3.490  -0.548  10.038  0.6849 -0.1443  0.4008
   69bbb    H17 1998   3.587  -0.518   9.995 -0.4986  2.3870 -0.6643
   69bbb    H18 1999   3.443  -0.610   9.960  0.2117 -0.5600  1.0101
   69bbb     O1 2000   3.023  -0.252   9.650  0.0296  0.4965 -0.0295
   70bbb     N1 2001   2.967  -0.557   8.870 -0.6343 -0.9903 -0.1535
   70bbb     C1 2002   2.984  -0.623   8.740 -0.2227 -0.0243  0.1010
   70bbb     H1 2003   2.907  -0.700   8.725 -0.7092  0.3591  0.5739
   70bbb     H2 2004   3.084  -0.670   8.744 -1.2230 -2.3524 -0.6363
   70bbb     C2 2005   3.093  -0.487   8.926 -1.3726 -0.0429 -0.5368
   70bbb     H3 2006   3.127  -0.412   8.853 -1.1724  0.5415  0.1541
   70bbb     H4 2007   3.173  -0.560   8.940 -0.8251  1.0072  2.5198
   70bbb     C3 2008   2.830  -0.490   8.883 -0.1150 -0.3714 -0.0393
   70bbb     H5 2009   2.788  -0.468   8.784 -1.7401 -1.3266  0.4070
   70bbb     H6 2010   2.847  -0.389   8.922  1.7247 -1.1144  1.2416
   70bbb     C4 2011   2.733  -0.572   8.966  0.0710  0.5159 -0.0163
   70bbb     H7 2012   2.777  -0.611   9.058 -2.1508 -0.5930  0.6420
   70bbb     H8 2013   2.700  -0.660   8.910 -1.8750  0.7564  0.6748
   70bbb     C5 2014   2.972  -0.534   8.612 -0.0743 -0.5858 -0.4440
   70bbb     H9 2015   3.032  -0.442   8.618 -1.1710  0.1233  0.0889
   70bbb    H10 2016   2.867  -0.509   8.591 -0.1545 -0.4777  0.0652
   70bbb     C6 2017   3.072  -0.413   9.062  0.1583 -0.1370 -0.1986
   70bbb    H11 2018   3.010  -0.475   9.129 -0.5586  1.7261  0.9490
   70bbb    H12 2019   3.016  -0.320   9.050 -0.4639 -0.1833  1.9266
   70bbb     C7 2020   2.599  -0.502   8.991 -0.0330 -0.2112 -0.4578
   70bbb    H13 2021   2.532  -0.562   9.054  0.8998  0.6505  1.4248
   70bbb    H14 2022   2.548  -0.475   8.897  0.6072  2.1414 -0.2035
   70bbb     C8 2023   3.204  -0.399   9.137 -0.1785  0.4195  0.1233
   70bbb    H15 2024   3.261  -0.492   9.152 -1.3938 -0.3788 -0.1100
   70bbb    H16 2025   3.186  -0.366   9.240  0.9183 -1.4168  0.9493
   70bbb     C9 2026   3.033  -0.612   8.492 -0.1311  0.1708  0.4734
   70bbb    H17 2027   2.966  -0.697   8.476 -1.3110  1.1416  0.0897
   70bbb    H18 2028   3.131  -0.653   8.519 -0.4575 -0.3269  0.9268
   70bbb     O1 2029   2.625  -0.380   9.053 -0.1724 -0.2323 -0.6788
   71bbb     N1 2030   0.280  -0.877   7.768  0.0470 -0.0908 -0.5343
   71bbb     C1 2031   0.428  -0.878   7.732 -0.0833  0.5103 -1.4414
   71bbb     H1 2032   0.460  -0.796   7.667 -0.0715 -0.7793 -3.1312
   71bbb     H2 2033   0.437  -0.968   7.669 -1.0187 -0.5339 -0.1573
   71bbb     C2 2034   0.186  -0.878   7.653  0.0496 -0.0852  0.4056
   71bbb     H3 2035   0.092  -0.903   7.704  0.8508  1.3011  2.7131
   71bbb     H4 2036   0.221  -0.957   7.586  1.8744 -0.9079  2.2145
   71bbb     C3 2037   0.252  -0.794   7.888 -0.9721 -0.2533 -0.5662
   71bbb     H5 2038   0.248  -0.688   7.861  2.1048  0.3301  0.8408
   71bbb     H6 2039   0.329  -0.828   7.958 -0.5361 -4.0465 -2.6070
   71bbb     C4 2040   0.123  -0.841   7.963 -0.5479  0.2413  1.0118
   71bbb     H7 2041   0.122  -0.950   7.968  0.3415  0.2538  2.2886
   71bbb     H8 2042   0.043  -0.813   7.894  0.8243 -0.3251 -0.9006
   71bbb     C5 2043   0.532  -0.899   7.848 -0.7147 -0.0542  0.0165
   71bbb     H9 2044   0.527  -0.816   7.919 -2.1920 -1.0829  1.1952
   71bbb    H10 2045   0.627  -0.897   7.794 -0.5990 -0.6899  0.1864
   71bbb     C6 2046   0.172  -0.742   7.582  0.1851 -0.1955 -0.4186
   71bbb    H11 2047   0.197  -0.657   7.647 -0.4299 -0.1344 -0.2622
   71bbb    H12 2048   0.069  -0.715   7.558  0.9651  1.6170 -1.9931
   71bbb     C7 2049   0.112  -0.773   8.102 -0.4367 -0.1899  0.1796
   71bbb    H13 2050   0.207  -0.786   8.156  0.9532  1.2243 -1.8033
   71bbb    H14 2051   0.032  -0.812   8.166  1.2289 -1.0811  1.8582
   71bbb     C8 2052   0.249  -0.758   7.444 -0.1976  0.3980 -0.0751
   71bbb    H15 2053   0.352  -0.784   7.471  0.0304  0.6309 -0.7146
   71bbb    H16 2054   0.254  -0.662   7.392  0.3516  0.7252  0.5605
   71bbb     C9 2055   0.528  -1.038   7.923 -0.8161 -0.1253  0.1012
   71bbb    H17 2056   0.430  -1.048   7.972 -0.3953  0.6084  1.1384
   71bbb    H18 2057   0.604  -1.045   8.002  0.5300 -0.5509 -1.1906
   71bbb     O1 2058   0.111  -0.632   8.088 -0.2057 -0.0849 -0.4001
   72bbb     N1 2059  -0.811  -0.332   8.131  0.4128  0.1351 -0.5093
   72bbb     C1 2060  -0.830  -0.262   8.004 -0.5154  0.0676  0.1579
   72bbb     H1 2061  -0.856  -0.345   7.937 -0.1879 -1.4466  1.8375
   72bbb     H2 2062  -0.732  -0.225   7.970 -0.2859 -0.1954  0.5318
   72bbb     C2 2063  -0.733  -0.453   8.104 -0.5549 -0.4817 -0.2419
   72bbb     H3 2064  -0.671  -0.463   8.194 -0.6951 -1.1100 -0.2086
   72bbb     H4 2065  -0.673  -0.446   8.013 -2.7778 -0.2498 -1.7617
   72bbb     C3 2066  -0.751  -0.240   8.231  0.7589  0.4906  0.4052
   72bbb     H5 2067  -0.723  -0.297   8.321 -1.2694  0.0290  0.7944
   72bbb     H6 2068  -0.821  -0.164   8.267 -0.2146 -0.9290  1.6406
   72bbb     C4 2069  -0.622  -0.170   8.184  0.7693 -0.3208  0.2161
   72bbb     H7 2070  -0.639  -0.085   8.116  0.3352 -0.7006 -0.1556
   72bbb     H8 2071  -0.572  -0.245   8.123  0.0711 -1.6660  1.2592
   72bbb     C5 2072  -0.935  -0.150   7.998 -0.2334  0.2508  0.5706
   72bbb     H9 2073  -0.906  -0.057   8.049  0.0392 -0.1768  1.1914
   72bbb    H10 2074  -1.014  -0.186   8.065  0.5928 -1.3446  0.7270
   72bbb     C6 2075  -0.821  -0.575   8.085  0.0714  0.0472  0.4089
   72bbb    H11 2076  -0.758  -0.656   8.048  0.8638  1.2816 -1.0532
   72bbb    H12 2077  -0.894  -0.552   8.007 -0.4295 -2.9615 -0.1268
   72bbb     C7 2078  -0.543  -0.116   8.301 -0.1880 -0.0926  0.2465
   72bbb    H13 2079  -0.542  -0.187   8.384  1.0161 -0.2206  0.1487
   72bbb    H14 2080  -0.586  -0.018   8.324  0.3555  0.6544 -1.6601
   72bbb     C8 2081  -0.880  -0.620   8.219 -0.3072 -0.4100  0.3914
   72bbb    H15 2082  -0.943  -0.537   8.254  1.0185  1.2976 -1.0316
   72bbb    H16 2083  -0.806  -0.627   8.300  2.3855  3.1838 -1.4213
   72bbb     C9 2084  -0.993  -0.141   7.851 -1.0381  0.0009  0.3682
   72bbb    H17 2085  -1.057  -0.227   7.832 -2.8143  1.2688  0.3534
   72bbb    H18 2086  -0.901  -0.147   7.791 -1.7703  2.8242 -1.2253
   72bbb     O1 2087  -0.400  -0.103   8.254 -0.3852  0.5971  0.2558
   73bbb     N1 2088  -1.252   0.413   7.893 -0.1415 -0.0648 -0.5041
   73bbb     C1 2089  -1.280   0.309   7.997  0.4594 -0.4106 -0.2641
   73bbb     H1 2090  -1.343   0.235   7.947 -0.1917  1.8570 -3.0754
   73bbb     H2 2091  -1.348   0.349   8.074 -0.3933  1.5770 -1.9435
   73bbb     C2 2092  -1.386   0.458   7.843 -0.2717 -0.3788 -0.0904
   73bbb     H3 2093  -1.422   0.521   7.925  1.5454 -2.0618  2.1061
   73bbb     H4 2094  -1.444   0.367   7.822 -1.1291  0.2841 -0.7057
   73bbb     C3 2095  -1.151   0.522   7.920  0.3641 -0.2019  0.0738
   73bbb     H5 2096  -1.143   0.589   7.833  1.3781  1.8989  1.7033
   73bbb     H6 2097  -1.049   0.485   7.934  0.8147  0.8729 -0.3173
   73bbb     C4 2098  -1.180   0.626   8.029  0.0599  0.5334 -0.0852
   73bbb     H7 2099  -1.179   0.566   8.121  1.1996 -1.5367 -1.3715
   73bbb     H8 2100  -1.278   0.672   8.014 -2.5162 -3.9085  1.3719
   73bbb     C5 2101  -1.149   0.253   8.060 -0.0502  0.0051 -0.5639
   73bbb     H9 2102  -1.111   0.330   8.128  1.5378 -1.2738  0.0706
   73bbb    H10 2103  -1.072   0.240   7.982 -0.7950 -2.7833 -0.9468
   73bbb     C6 2104  -1.383   0.544   7.712  0.2084 -0.1314 -0.3548
   73bbb    H11 2105  -1.309   0.625   7.713 -0.7346  0.7530 -0.7342
   73bbb    H12 2106  -1.478   0.597   7.700  0.8846  1.1229 -0.3327
   73bbb     C7 2107  -1.068   0.730   8.032 -0.1570 -0.6821 -0.1506
   73bbb    H13 2108  -1.092   0.813   8.100 -2.4861 -2.0273  0.7955
   73bbb    H14 2109  -1.050   0.777   7.935  0.7733  1.1569  0.8471
   73bbb     C8 2110  -1.363   0.452   7.588 -0.1320  0.5548  0.0227
   73bbb    H15 2111  -1.438   0.373   7.577  0.1550  0.6343 -3.9560
   73bbb    H16 2112  -1.271   0.399   7.615 -0.8698  0.2248  2.1227
   73bbb     C9 2113  -1.170   0.116   8.131  0.0113 -0.1594 -0.0183
   73bbb    H17 2114  -1.073   0.085   8.170 -0.1891 -1.0314 -0.1931
   73bbb    H18 2115  -1.205   0.037   8.063  0.4147 -1.9605  1.7563
   73bbb     O1 2116  -0.947   0.667   8.086  0.3565  0.4409  0.2895
   74bbb     N1 2117  -0.892   0.714   8.975  0.0807  0.3166  0.2526
   74bbb     C1 2118  -0.881   0.867   8.973  0.3237  0.8228 -0.9129
   74bbb     H1 2119  -0.858   0.903   8.873  0.6867  0.5134 -0.9432
   74bbb     H2 2120  -0.809   0.902   9.048  0.0552 -0.0189 -0.2414
   74bbb     C2 2121  -0.933   0.641   9.095 -0.1491 -0.9165 -0.0157
   74bbb     H3 2122  -0.949   0.540   9.055  0.9038 -1.3817  0.6866
   74bbb     H4 2123  -1.024   0.679   9.144  1.3490 -0.7941  2.8771
   74bbb     C3 2124  -0.773   0.658   8.899  0.3793 -0.0311 -0.3999
   74bbb     H5 2125  -0.677   0.678   8.948  0.8504 -0.6972 -1.0199
   74bbb     H6 2126  -0.772   0.709   8.802 -3.2918 -3.1317 -2.3368
   74bbb     C4 2127  -0.771   0.507   8.855  0.6114 -0.3640 -0.0308
   74bbb     H7 2128  -0.859   0.471   8.801  0.3918 -0.0674  0.1250
   74bbb     H8 2129  -0.770   0.447   8.947 -0.1436 -0.3556 -0.0064
   74bbb     C5 2130  -1.007   0.941   9.016 -0.1005 -0.4093  0.6724
   74bbb     H9 2131  -1.056   0.903   9.107 -1.5158  1.0534  0.5743
   74bbb    H10 2132  -1.082   0.937   8.936  0.5011 -0.1172  0.0906
   74bbb     C6 2133  -0.819   0.645   9.198 -0.2972 -0.5566 -0.3702
   74bbb    H11 2134  -0.752   0.726   9.166 -1.8152  1.8002  1.9966
   74bbb    H12 2135  -0.763   0.552   9.204  0.0390 -0.2989  0.7114
   74bbb     C7 2136  -0.650   0.469   8.760  0.9583 -0.0453 -0.5640
   74bbb    H13 2137  -0.668   0.368   8.722  0.1172 -0.8838  1.8581
   74bbb    H14 2138  -0.571   0.458   8.836 -1.6374 -3.5670  1.9583
   74bbb     C8 2139  -0.874   0.672   9.337  0.4468  0.0603  0.1645
   74bbb    H15 2140  -0.800   0.644   9.413  0.3761  0.2299  0.2957
   74bbb    H16 2141  -0.963   0.608   9.343  1.3510 -1.3164 -0.6236
   74bbb     C9 2142  -0.978   1.091   9.060 -0.4996  0.3185  0.0730
   74bbb    H17 2143  -0.924   1.091   9.156 -1.4132  0.6280  0.5945
   74bbb    H18 2144  -1.070   1.146   9.081 -1.9707 -0.9940 -2.5041
   74bbb     O1 2145  -0.630   0.567   8.661 -0.0382 -0.2731  0.1359
   75bbb     N1 2146   0.856  -1.121   8.168 -0.1155 -0.0037  0.7855
   75bbb     C1 2147   0.901  -1.125   8.027 -0.5634  0.3717 -0.5237
   75bbb     H1 2148   0.849  -1.042   7.977  0.9527  0.8561 -1.3659
   75bbb     H2 2149   0.873  -1.218   7.978  2.2725 -1.1083  0.4399
   75bbb     C2 2150   0.888  -1.239   8.243 -0.3641 -0.2211  0.2905
   75bbb     H3 2151   0.854  -1.230   8.347 -0.6053  0.0134  0.1929
   75bbb     H4 2152   0.997  -1.242   8.245 -0.1080  3.4693 -1.4443
   75bbb     C3 2153   0.887  -0.990   8.236  0.3857 -0.0789 -0.1107
   75bbb     H5 2154   0.840  -0.907   8.180 -1.7329 -1.7832 -1.0147
   75bbb     H6 2155   0.996  -0.977   8.233  0.9145 -2.8003  2.9043
   75bbb     C4 2156   0.832  -0.971   8.375  0.7694 -0.3586 -0.7296
   75bbb     H7 2157   0.878  -1.043   8.443  0.3286  0.6185  0.6420
   75bbb     H8 2158   0.723  -0.986   8.376  0.3666  2.1656 -0.0434
   75bbb     C5 2159   1.058  -1.102   8.009 -0.9229  0.4165 -0.0415
   75bbb     H9 2160   1.105  -1.176   8.074 -0.3989  0.2869 -0.5559
   75bbb    H10 2161   1.099  -1.003   8.034  2.2713 -1.1149  1.3202
   75bbb     C6 2162   0.843  -1.378   8.191  0.3172 -0.0599  0.3388
   75bbb    H11 2163   0.834  -1.385   8.082 -1.5153  0.6699  0.4153
   75bbb    H12 2164   0.739  -1.393   8.223  0.0124 -1.1662 -1.0873
   75bbb     C7 2165   0.862  -0.830   8.441  0.4140  0.3256 -0.5182
   75bbb    H13 2166   0.845  -0.746   8.373 -0.9104 -0.7016 -1.5338
   75bbb    H14 2167   0.966  -0.828   8.476  1.0591 -0.5232 -2.2388
   75bbb     C8 2168   0.922  -1.496   8.247 -0.5839  0.5253 -0.5880
   75bbb    H15 2169   0.922  -1.475   8.355 -1.8120  2.0585 -0.8439
   75bbb    H16 2170   1.027  -1.490   8.218 -0.8674 -1.4078 -2.1842
   75bbb     C9 2171   1.103  -1.141   7.868  0.5353  0.3914  1.0042
   75bbb    H17 2172   1.067  -1.060   7.803  0.9132 -0.8154 -0.7842
   75bbb    H18 2173   1.053  -1.229   7.827  0.8911  0.6449  0.0057
   75bbb     O1 2174   0.769  -0.798   8.547 -0.1047 -0.0830  0.1839
   76bbb     N1 2175  -0.050  -1.475   8.860  0.0006  0.0591  0.0485
   76bbb     C1 2176  -0.179  -1.550   8.843 -0.1148  0.1523 -0.7491
   76bbb     H1 2177  -0.184  -1.630   8.917 -3.1684 -1.3351 -2.3616
   76bbb     H2 2178  -0.189  -1.585   8.739 -0.7981 -0.4944 -0.4693
   76bbb     C2 2179   0.065  -1.539   8.785  0.1160 -0.2449  0.1588
   76bbb     H3 2180   0.155  -1.476   8.783 -1.1699  1.8068 -3.7661
   76bbb     H4 2181   0.040  -1.548   8.678  0.2458  0.7311  0.0410
   76bbb     C3 2182  -0.023  -1.447   9.003  0.0805 -0.2946 -1.0685
   76bbb     H5 2183  -0.007  -1.539   9.059 -0.5098  0.2041 -0.0546
   76bbb     H6 2184  -0.105  -1.395   9.055  0.0205 -0.9392 -0.5083
   76bbb     C4 2185   0.099  -1.350   9.020 -0.0527 -0.3648  0.3584
   76bbb     H7 2186   0.189  -1.399   8.980 -0.3501 -0.2911 -0.4339
   76bbb     H8 2187   0.115  -1.334   9.127  0.1354  0.9398  0.1515
   76bbb     C5 2188  -0.299  -1.463   8.862 -0.7862  0.4819  0.0562
   76bbb     H9 2189  -0.321  -1.450   8.968  1.1792  2.8171  0.2774
   76bbb    H10 2190  -0.379  -1.525   8.821 -0.6476 -0.0888  0.6374
   76bbb     C6 2191   0.091  -1.682   8.839 -0.4751 -0.8716  0.4476
   76bbb    H11 2192   0.015  -1.749   8.796 -0.0545 -0.5783 -0.7902
   76bbb    H12 2193   0.079  -1.683   8.948  0.0120  0.8474  0.5455
   76bbb     C7 2194   0.088  -1.217   8.942 -0.0226  0.4145  0.7546
   76bbb    H13 2195  -0.013  -1.173   8.940 -0.1135  0.1903  0.2300
   76bbb    H14 2196   0.105  -1.243   8.836  0.4910 -0.1923  0.9786
   76bbb     C8 2197   0.229  -1.740   8.808  0.6230  0.0098 -0.1074
   76bbb    H15 2198   0.246  -1.748   8.700  1.0848 -2.2256  0.0841
   76bbb    H16 2199   0.233  -1.845   8.838 -0.4536 -0.3847 -1.2735
   76bbb     C9 2200  -0.286  -1.323   8.802  0.0307  0.0219  0.3547
   76bbb    H17 2201  -0.260  -1.326   8.695 -0.3313 -0.4378  0.2776
   76bbb    H18 2202  -0.201  -1.269   8.846 -0.7137  0.5648  1.1679
   76bbb     O1 2203   0.186  -1.129   8.987 -1.0760 -0.0504 -0.2529
   77bbb     N1 2204   0.831   0.481   8.668 -0.4963  0.0953  0.0698
   77bbb     C1 2205   0.821   0.485   8.520 -0.1581 -0.2289 -0.0097
   77bbb     H1 2206   0.759   0.408   8.472  1.3269 -1.7479  0.4411
   77bbb     H2 2207   0.923   0.474   8.483 -0.5852  0.9137 -1.6827
   77bbb     C2 2208   0.864   0.602   8.752 -0.4824 -0.7137 -0.6152
   77bbb     H3 2209   0.799   0.682   8.716 -1.6555 -1.3805 -0.0587
   77bbb     H4 2210   0.969   0.632   8.764 -0.2794 -2.1292  1.9869
   77bbb     C3 2211   0.875   0.347   8.716 -0.4616 -0.1440  0.5233
   77bbb     H5 2212   0.804   0.267   8.691 -0.0979  0.1368 -1.6226
   77bbb     H6 2213   0.891   0.357   8.824  0.9240  1.0428  0.2399
   77bbb     C4 2214   1.012   0.297   8.660  0.3203  0.3305 -0.0872
   77bbb     H7 2215   1.014   0.301   8.550 -0.2055 -2.1981 -0.2633
   77bbb     H8 2216   1.025   0.192   8.689  1.0677 -0.4357 -2.8405
   77bbb     C5 2217   0.772   0.620   8.456  0.7966 -0.1583 -0.0958
   77bbb     H9 2218   0.760   0.604   8.348 -1.9726  0.5240  0.0413
   77bbb    H10 2219   0.841   0.702   8.476 -0.1304  0.3894  0.9068
   77bbb     C6 2220   0.817   0.584   8.903 -0.0396 -0.3329  0.5886
   77bbb    H11 2221   0.851   0.676   8.952  2.8024 -0.0893 -1.5795
   77bbb    H12 2222   0.879   0.508   8.952 -1.1406 -0.8688  1.1613
   77bbb     C7 2223   1.137   0.368   8.718  0.1799 -0.7716  0.6493
   77bbb    H13 2224   1.137   0.473   8.687  1.0510 -0.7278  0.7850
   77bbb    H14 2225   1.229   0.323   8.680 -0.2219 -0.5347 -0.6556
   77bbb     C8 2226   0.670   0.558   8.925  0.1625 -0.1355 -0.7378
   77bbb    H15 2227   0.660   0.457   8.884 -1.4528 -1.0388  1.7104
   77bbb    H16 2228   0.608   0.632   8.873 -2.1319 -2.2261 -1.1503
   77bbb     C9 2229   0.628   0.665   8.503 -0.5384  0.3865 -0.0544
   77bbb    H17 2230   0.614   0.683   8.610  0.5497  1.6425 -0.0910
   77bbb    H18 2231   0.568   0.580   8.471  0.1887  0.3442 -1.3953
   77bbb     O1 2232   1.141   0.371   8.867  0.8901  0.3106 -0.4256
   78bbb     N1 2233   1.315   0.385  10.215 -0.5257 -0.2455  0.4706
   78bbb     C1 2234   1.428   0.307  10.270  0.1864 -0.1812  0.0301
   78bbb     H1 2235   1.520   0.363  10.248  0.1762 -0.7262 -1.5109
   78bbb     H2 2236   1.444   0.212  10.219  1.6722 -0.5324  1.1002
   78bbb     C2 2237   1.179   0.329  10.234 -0.1063 -0.1049  0.6902
   78bbb     H3 2238   1.164   0.301  10.339 -2.1980 -2.0107 -0.0349
   78bbb     H4 2239   1.171   0.241  10.168 -2.2905 -0.4635  1.3858
   78bbb     C3 2240   1.335   0.431  10.075 -0.0777  0.3434 -0.5285
   78bbb     H5 2241   1.437   0.467  10.059 -0.1216  0.1456 -1.2919
   78bbb     H6 2242   1.264   0.514  10.061  1.0272  1.7976  1.9171
   78bbb     C4 2243   1.307   0.321   9.967  0.2769  0.4507 -0.0562
   78bbb     H7 2244   1.199   0.323   9.949 -0.1722 -0.4791  2.1852
   78bbb     H8 2245   1.331   0.222  10.007 -1.1258 -0.3262 -1.0928
   78bbb     C5 2246   1.421   0.282  10.423  0.2252 -0.6138 -0.8171
   78bbb     H9 2247   1.524   0.253  10.444  0.9367  1.8163 -0.5656
   78bbb    H10 2248   1.349   0.202  10.442 -1.9387  1.5394  0.7080
   78bbb     C6 2249   1.063   0.425  10.212 -0.0565 -0.4397  0.0823
   78bbb    H11 2250   0.967   0.370  10.213  0.7745 -2.1053 -2.2476
   78bbb    H12 2251   1.061   0.469  10.112 -0.0106  1.6119  0.9456
   78bbb     C7 2252   1.385   0.351   9.838 -0.7210  0.7794  0.3963
   78bbb    H13 2253   1.491   0.336   9.864 -0.4822  2.2080  0.2982
   78bbb    H14 2254   1.362   0.452   9.803  1.4078  1.3068  0.3894
   78bbb     C8 2255   1.054   0.525  10.329 -0.4564 -0.2629 -0.0411
   78bbb    H15 2256   0.981   0.603  10.302 -1.3537  0.2990  3.5225
   78bbb    H16 2257   1.154   0.567  10.344 -0.5593 -0.0920  0.1626
   78bbb     C9 2258   1.391   0.401  10.519 -0.1532  0.0537 -0.0428
   78bbb    H17 2259   1.290   0.443  10.502 -0.9907 -1.3875  1.1825
   78bbb    H18 2260   1.460   0.484  10.497 -1.5781  1.3231  0.0337
   78bbb     O1 2261   1.341   0.254   9.743 -0.2693 -0.8826 -0.0024
   79bbb     N1 2262   2.497   1.128   7.069  0.4835  0.0567  0.3943
   79bbb     C1 2263   2.485   1.018   6.966  0.5899 -0.5554  0.2580
   79bbb     H1 2264   2.442   0.931   7.017 -1.4314 -0.1251 -0.6108
   79bbb     H2 2265   2.584   1.004   6.922  0.2989  1.8538 -1.3709
   79bbb     C2 2266   2.620   1.125   7.155  0.5780  0.0433 -0.2705
   79bbb     H3 2267   2.639   1.221   7.206  1.6258 -1.1201  1.6955
   79bbb     H4 2268   2.711   1.119   7.094  1.3401  1.1767  0.6839
   79bbb     C3 2269   2.371   1.140   7.142  0.5295 -0.0845  0.4228
   79bbb     H5 2270   2.355   1.059   7.214 -0.2153 -0.3193  0.0072
   79bbb     H6 2271   2.285   1.130   7.075 -2.0794  2.5578  3.0852
   79bbb     C4 2272   2.346   1.274   7.214  0.1955  0.4342 -0.0375
   79bbb     H7 2273   2.358   1.364   7.152 -0.4991 -0.5376 -1.6492
   79bbb     H8 2274   2.439   1.282   7.273 -0.3321 -1.2434  1.0870
   79bbb     C5 2275   2.396   1.060   6.839  0.4094 -0.0360 -0.8018
   79bbb     H9 2276   2.293   1.083   6.868  0.9848 -0.1022  1.4329
   79bbb    H10 2277   2.400   0.980   6.764  2.9538  0.2038 -1.0003
   79bbb     C6 2278   2.627   1.005   7.262 -0.3803  0.0624  1.0672
   79bbb    H11 2279   2.577   0.921   7.212 -0.5472  0.7090  0.1391
   79bbb    H12 2280   2.577   1.036   7.355 -1.0026 -0.3770  0.8846
   79bbb     C7 2281   2.206   1.279   7.285 -0.4455  0.8350 -0.2970
   79bbb    H13 2282   2.215   1.223   7.379 -1.4393  0.2218 -0.5547
   79bbb    H14 2283   2.131   1.232   7.221 -2.0486  0.4528  1.7740
   79bbb     C8 2284   2.769   0.964   7.308 -0.0123  0.1132  0.5139
   79bbb    H15 2285   2.748   0.915   7.404 -3.5301 -1.5313 -0.9136
   79bbb    H16 2286   2.824   1.056   7.334 -0.5945  0.3913  0.7924
   79bbb     C9 2287   2.454   1.187   6.769  0.3088  0.6337  0.4597
   79bbb    H17 2288   2.550   1.162   6.722  0.4072  0.8850  0.5262
   79bbb    H18 2289   2.462   1.264   6.847  2.0504  0.5682  0.3971
   79bbb     O1 2290   2.156   1.413   7.304 -0.4397 -0.4099  0.4787
   80bbb     N1 2291   2.559   1.786   6.814  0.3808  0.3810 -0.0381
   80bbb     C1 2292   2.590   1.885   6.711 -0.1451 -0.5011  0.3098
   80bbb     H1 2293   2.502   1.913   6.653  0.5625  2.1884  0.3864
   80bbb     H2 2294   2.665   1.836   6.647  0.2678 -0.0706  0.4571
   80bbb     C2 2295   2.496   1.659   6.765  0.1412 -0.2925 -0.5051
   80bbb     H3 2296   2.401   1.682   6.714  0.4390  0.3132 -0.7958
   80bbb     H4 2297   2.464   1.591   6.845  0.1396 -0.4941 -0.6756
   80bbb     C3 2298   2.474   1.850   6.918 -0.6294  0.5988  0.2008
   80bbb     H5 2299   2.387   1.897   6.872 -0.6397  0.3226 -0.0625
   80bbb     H6 2300   2.529   1.931   6.968 -0.6353  0.3763  0.5741
   80bbb     C4 2301   2.428   1.754   7.030 -0.3468 -0.2309  0.0866
   80bbb     H7 2302   2.496   1.670   7.049 -0.2511  0.0295  0.9299
   80bbb     H8 2303   2.335   1.704   7.000 -0.9061 -0.3784  1.9178
   80bbb     C5 2304   2.663   2.012   6.761  0.2048  0.2544 -0.5856
   80bbb     H9 2305   2.733   1.991   6.843  0.2150 -2.7509 -1.2554
   80bbb    H10 2306   2.583   2.072   6.806 -1.7779 -2.3904 -0.3792
   80bbb     C6 2307   2.582   1.583   6.665  0.5604  0.0137  0.3431
   80bbb    H11 2308   2.602   1.650   6.580  0.3476 -0.7900 -0.3544
   80bbb    H12 2309   2.522   1.507   6.614 -0.0111 -0.0372  1.0714
   80bbb     C7 2310   2.375   1.818   7.154  1.0560  0.6239  0.6785
   80bbb    H13 2311   2.445   1.894   7.191  1.6538  0.5253 -0.2310
   80bbb    H14 2312   2.353   1.742   7.230 -2.3039 -1.5715 -2.1624
   80bbb     C8 2313   2.712   1.530   6.719 -0.3629  0.0126  0.8809
   80bbb    H15 2314   2.766   1.622   6.745 -3.1925  1.9317  0.4397
   80bbb    H16 2315   2.765   1.475   6.641  0.1944  1.3810  0.2488
   80bbb     C9 2316   2.723   2.100   6.652  0.3633  0.8520 -0.0509
   80bbb    H17 2317   2.743   2.201   6.691 -0.9336  1.2891 -0.4582
   80bbb    H18 2318   2.656   2.123   6.569 -0.1540 -2.1019 -0.5523
   80bbb     O1 2319   2.248   1.876   7.110 -0.1547 -0.8469  0.0815
   81bbb     N1 2320   0.430   0.452   7.403 -0.0322 -0.4485  0.0487
   81bbb     C1 2321   0.427   0.300   7.395  0.0633 -0.9413 -0.2060
   81bbb     H1 2322   0.386   0.264   7.491  0.0993 -1.9128 -0.5383
   81bbb     H2 2323   0.527   0.255   7.389  0.1536 -1.0350  1.5085
   81bbb     C2 2324   0.302   0.518   7.417  0.6707  0.4348  0.1697
   81bbb     H3 2325   0.248   0.481   7.505 -1.9194  2.7956 -0.3013
   81bbb     H4 2326   0.238   0.497   7.330  0.0064 -1.4663  1.0594
   81bbb     C3 2327   0.523   0.488   7.515 -0.3665  0.1412  0.3886
   81bbb     H5 2328   0.490   0.427   7.600 -1.1908  0.0188 -0.0125
   81bbb     H6 2329   0.528   0.594   7.540 -0.4648  0.5581 -1.2385
   81bbb     C4 2330   0.674   0.462   7.481  0.3074  0.9782  0.2982
   81bbb     H7 2331   0.694   0.500   7.380  0.3813 -2.2097 -1.0255
   81bbb     H8 2332   0.688   0.353   7.488 -2.2974  0.6484  1.7995
   81bbb     C5 2333   0.334   0.247   7.288  0.5842 -0.2668  0.3995
   81bbb     H9 2334   0.375   0.290   7.195  3.3578  1.4005  2.2443
   81bbb    H10 2335   0.227   0.265   7.303  0.5793 -0.0547  0.1238
   81bbb     C6 2336   0.304   0.672   7.421 -0.5149  0.5866 -0.7753
   81bbb    H11 2337   0.335   0.714   7.324  0.4805  0.1046 -0.6730
   81bbb    H12 2338   0.382   0.718   7.482  1.3526 -0.3011 -2.3874
   81bbb     C7 2339   0.762   0.530   7.585  0.7094 -0.6474  0.4159
   81bbb    H13 2340   0.859   0.479   7.592  1.2770  0.5125  1.3160
   81bbb    H14 2341   0.710   0.518   7.681 -0.5528 -1.7661 -0.3568
   81bbb     C8 2342   0.161   0.731   7.453 -0.1565  0.2503  0.0045
   81bbb    H15 2343   0.085   0.714   7.376  0.4530  1.6770 -0.9587
   81bbb    H16 2344   0.169   0.841   7.447 -1.7177  0.5148  1.6596
   81bbb     C9 2345   0.357   0.096   7.266  0.3361  0.8817  0.5060
   81bbb    H17 2346   0.314   0.045   7.353 -1.9149  2.0631  0.1700
   81bbb    H18 2347   0.461   0.067   7.249  1.1544  1.9117  3.3264
   81bbb     O1 2348   0.781   0.669   7.557  0.8059  0.2801  0.1518
   82bbb     N1 2349   1.504   0.486   7.024 -0.6449  0.0978  0.2588
   82bbb     C1 2350   1.436   0.523   6.897  0.3996 -0.6529 -0.1509
   82bbb     H1 2351   1.495   0.604   6.853 -0.6601 -1.2020 -2.8192
   82bbb     H2 2352   1.334   0.557   6.919 -0.5733 -3.1888 -0.4238
   82bbb     C2 2353   1.651   0.449   7.023  0.3822  0.2565  0.5603
   82bbb     H3 2354   1.671   0.361   6.961  0.9327 -0.1517  1.3092
   82bbb     H4 2355   1.696   0.423   7.120  1.0522 -0.0314  0.1804
   82bbb     C3 2356   1.450   0.560   7.134  0.1963 -0.1773 -0.3444
   82bbb     H5 2357   1.345   0.535   7.149  0.1480  0.5847  0.6622
   82bbb     H6 2358   1.459   0.668   7.115  0.0965 -0.2119 -0.5877
   82bbb     C4 2359   1.522   0.526   7.266  0.3366  0.5168 -0.1944
   82bbb     H7 2360   1.625   0.563   7.260 -0.6294  3.9273  1.5717
   82bbb     H8 2361   1.519   0.418   7.280 -1.5409  0.6506  0.7132
   82bbb     C5 2362   1.445   0.412   6.789 -0.2727 -0.5952  0.1922
   82bbb     H9 2363   1.549   0.381   6.772 -0.3708 -1.1172  0.5332
   82bbb    H10 2364   1.409   0.464   6.699 -2.2306  0.7563  1.6779
   82bbb     C6 2365   1.731   0.558   6.954 -0.9537  0.2707 -0.3096
   82bbb    H11 2366   1.708   0.654   7.002 -0.8056  0.1561 -0.0078
   82bbb    H12 2367   1.709   0.559   6.847 -1.9581 -0.8122 -0.1415
   82bbb     C7 2368   1.452   0.582   7.392 -0.4695 -0.0405  0.2790
   82bbb    H13 2369   1.506   0.557   7.484 -1.4245  0.7181  1.0507
   82bbb    H14 2370   1.352   0.538   7.396 -0.5123  0.1493  3.8429
   82bbb     C8 2371   1.880   0.542   6.989  0.1082 -0.2265 -0.4449
   82bbb    H15 2372   1.900   0.559   7.095 -0.3698  1.0488 -0.5388
   82bbb    H16 2373   1.929   0.629   6.943 -0.6654  1.0821  1.1226
   82bbb     C9 2374   1.353   0.292   6.819 -0.3928 -0.0456 -0.0929
   82bbb    H17 2375   1.371   0.255   6.921  1.1088 -0.0350 -0.3350
   82bbb    H18 2376   1.369   0.210   6.748 -0.9100 -0.9108  0.7644
   82bbb     O1 2377   1.427   0.722   7.371 -0.0558 -0.2378  1.0745
   83bbb     N1 2378   1.690  -0.021   6.991  0.3949  0.0065 -0.0290
   83bbb     C1 2379   1.674   0.003   6.847  0.3128  0.6450  0.7831
   83bbb     H1 2380   1.741  -0.063   6.791 -0.3571  1.4451 -1.0177
   83bbb     H2 2381   1.698   0.109   6.827  2.2300  0.4868  1.9568
   83bbb     C2 2382   1.636  -0.150   7.042  0.2894 -0.2512 -0.4152
   83bbb     H3 2383   1.532  -0.169   7.014  0.6553 -1.0140 -1.3136
   83bbb     H4 2384   1.622  -0.147   7.150  2.4534 -0.1153 -0.0969
   83bbb     C3 2385   1.816   0.027   7.039  1.0787  0.3910  0.2222
   83bbb     H5 2386   1.816   0.130   7.003 -0.4448  0.5731  0.6766
   83bbb     H6 2387   1.903  -0.018   6.990  0.1801 -0.2809 -0.8047
   83bbb     C4 2388   1.832   0.019   7.189 -0.4733  0.9863  0.1512
   83bbb     H7 2389   1.870  -0.081   7.212  0.9137  0.9632 -2.0067
   83bbb     H8 2390   1.736   0.036   7.239 -1.7494  2.4902 -2.5788
   83bbb     C5 2391   1.531  -0.017   6.793  0.2357 -0.0065 -0.7648
   83bbb     H9 2392   1.461   0.049   6.844  0.4522 -0.0745 -0.3798
   83bbb    H10 2393   1.497  -0.119   6.814  0.4839  0.4520  2.2832
   83bbb     C6 2394   1.724  -0.267   7.009  0.2480 -0.3550  1.2237
   83bbb    H11 2395   1.823  -0.253   7.055  1.6381 -0.7532 -1.4386
   83bbb    H12 2396   1.741  -0.273   6.900 -2.2402  1.2439  0.6687
   83bbb     C7 2397   1.935   0.120   7.239 -0.3542  0.0724 -0.2271
   83bbb    H13 2398   1.925   0.218   7.191 -2.5992 -0.2387 -0.4929
   83bbb    H14 2399   2.040   0.089   7.244  0.1532  1.7280 -0.0892
   83bbb     C8 2400   1.654  -0.403   7.031  0.6238  0.9465  0.4753
   83bbb    H15 2401   1.561  -0.407   6.972  0.6242  2.5128  0.3221
   83bbb    H16 2402   1.622  -0.400   7.136  0.6233  3.3989  0.4576
   83bbb     C9 2403   1.518   0.005   6.640  0.1978 -0.1348 -0.4159
   83bbb    H17 2404   1.415  -0.010   6.607  0.3441 -0.3374 -0.7866
   83bbb    H18 2405   1.577  -0.076   6.594  1.4444  0.7329 -0.4009
   83bbb     O1 2406   1.898   0.133   7.374  0.1731  0.6238 -0.0049
   84bbb     N1 2407   1.778   0.915   8.165 -0.4396  0.4994  0.4093
   84bbb     C1 2408   1.704   1.023   8.232  0.0220  1.0662 -0.4546
   84bbb     H1 2409   1.727   1.001   8.337  1.4300 -0.3323 -1.0267
   84bbb     H2 2410   1.597   1.013   8.209  0.1511 -0.2058 -0.5961
   84bbb     C2 2411   1.920   0.920   8.198 -1.0084  0.1880  0.3620
   84bbb     H3 2412   1.932   0.882   8.300 -1.0388  0.2606  0.3924
   84bbb     H4 2413   1.965   1.018   8.178  3.5140 -1.9718 -1.5403
   84bbb     C3 2414   1.701   0.785   8.165 -0.7602 -0.3799  0.3102
   84bbb     H5 2415   1.633   0.769   8.250 -2.0489  1.7152 -0.2537
   84bbb     H6 2416   1.770   0.700   8.167  0.4450  0.5403 -1.0108
   84bbb     C4 2417   1.600   0.779   8.051  0.5743 -0.8128 -0.4018
   84bbb     H7 2418   1.523   0.855   8.072  1.3975 -0.1742  0.3443
   84bbb     H8 2419   1.553   0.680   8.053  1.4138 -1.2174 -0.2619
   84bbb     C5 2420   1.748   1.172   8.203 -0.7858  0.2095 -0.2258
   84bbb     H9 2421   1.758   1.195   8.096 -0.7071  0.6082 -0.1385
   84bbb    H10 2422   1.849   1.185   8.246 -0.7314  0.7501 -0.5027
   84bbb     C6 2423   1.998   0.827   8.102 -0.7310  0.6204  0.1139
   84bbb    H11 2424   1.967   0.843   7.998  0.9144 -0.8645 -0.6550
   84bbb    H12 2425   1.968   0.725   8.129 -1.5653  0.6076 -0.8017
   84bbb     C7 2426   1.657   0.804   7.914 -0.4884  0.3571  0.4454
   84bbb    H13 2427   1.688   0.909   7.914 -1.6116  0.7220  1.6473
   84bbb    H14 2428   1.579   0.788   7.838  1.8411  1.1115 -2.2521
   84bbb     C8 2429   2.154   0.851   8.109  0.2101 -0.2215  0.2358
   84bbb    H15 2430   2.180   0.951   8.070  1.5499 -0.2577  0.9642
   84bbb    H16 2431   2.202   0.772   8.050 -0.6609 -1.3597  1.0085
   84bbb     C9 2432   1.658   1.276   8.272  0.4121 -0.2298 -0.1292
   84bbb    H17 2433   1.556   1.237   8.268  0.9347 -1.6751  0.2330
   84bbb    H18 2434   1.670   1.369   8.214 -2.4100 -1.9170 -3.9030
   84bbb     O1 2435   1.768   0.709   7.878  0.7809  0.2241  0.0229
   85bbb     N1 2436   2.731   2.186   8.016  0.3992 -0.9798  0.3066
   85bbb     C1 2437   2.873   2.198   7.965  0.2751 -0.0816  0.3561
   85bbb     H1 2438   2.940   2.116   7.991  1.2819  0.3810 -0.6984
   85bbb     H2 2439   2.906   2.291   8.013 -0.6062 -0.0952  1.0188
   85bbb     C2 2440   2.715   2.256   8.153 -0.0243 -0.0326  0.1176
   85bbb     H3 2441   2.768   2.352   8.152 -0.6846  0.3394 -0.0590
   85bbb     H4 2442   2.768   2.187   8.219  1.0839  0.8599  0.1832
   85bbb     C3 2443   2.651   2.065   7.984  0.3222 -0.2751 -1.3771
   85bbb     H5 2444   2.651   2.051   7.876  0.9145  1.7372 -1.6723
   85bbb     H6 2445   2.549   2.097   8.006  0.8407  1.5248 -1.4840
   85bbb     C4 2446   2.686   1.941   8.080 -0.4025 -0.6296  0.3611
   85bbb     H7 2447   2.639   1.957   8.178  0.4371 -1.0573  0.8520
   85bbb     H8 2448   2.791   1.930   8.111 -0.8329 -2.0010  1.4584
   85bbb     C5 2449   2.880   2.203   7.811  0.7232  0.0387 -0.0943
   85bbb     H9 2450   2.838   2.113   7.765  2.8232  0.0368 -2.2357
   85bbb    H10 2451   2.983   2.207   7.775  0.3711  1.0332 -1.0754
   85bbb     C6 2452   2.569   2.284   8.205 -0.5105  0.2845 -0.2594
   85bbb    H11 2453   2.518   2.195   8.246 -0.6284  0.6193  0.3462
   85bbb    H12 2454   2.522   2.309   8.109  0.0201 -2.6867 -1.3996
   85bbb     C7 2455   2.628   1.802   8.025  0.5088 -0.5487  0.1879
   85bbb    H13 2456   2.521   1.809   8.002  0.8379  1.3269 -1.0285
   85bbb    H14 2457   2.637   1.723   8.101 -0.9373 -2.3757 -1.4662
   85bbb     C8 2458   2.552   2.399   8.310 -0.5719 -0.2905 -0.4340
   85bbb    H15 2459   2.578   2.366   8.412 -0.4178  0.2183 -0.3059
   85bbb    H16 2460   2.449   2.433   8.331 -0.2446 -0.3629  1.5017
   85bbb     C9 2461   2.803   2.324   7.747  0.2003 -0.7635  0.6823
   85bbb    H17 2462   2.834   2.425   7.776 -1.2597  0.6045 -2.1019
   85bbb    H18 2463   2.702   2.332   7.790  0.4774 -0.2021  1.2438
   85bbb     O1 2464   2.697   1.777   7.896  0.2447 -0.6707 -0.6289
   86bbb     N1 2465   3.121   1.782   6.936  0.6164  0.3889 -0.2932
   86bbb     C1 2466   3.143   1.930   6.948 -0.2899  0.6558  0.0067
   86bbb     H1 2467   3.248   1.955   6.970  0.0306  0.4524 -1.2023
   86bbb     H2 2468   3.098   1.968   7.040  0.0994  1.6279 -0.1930
   86bbb     C2 2469   3.213   1.713   6.846 -0.0447 -0.3914  0.6553
   86bbb     H3 2470   3.312   1.760   6.841 -0.2452 -0.0736 -1.4637
   86bbb     H4 2471   3.167   1.704   6.746  0.6368  1.6295  0.1039
   86bbb     C3 2472   2.981   1.730   6.949 -0.2128 -0.1378 -0.2783
   86bbb     H5 2473   2.981   1.629   6.990  0.4768  1.0766  3.0165
   86bbb     H6 2474   2.915   1.734   6.861 -3.2539 -3.1142  1.6110
   86bbb     C4 2475   2.904   1.806   7.053  0.0670 -0.0024 -0.3625
   86bbb     H7 2476   2.886   1.911   7.026 -1.3981  0.2810  1.4471
   86bbb     H8 2477   2.969   1.815   7.142 -0.5229  1.4734 -0.0502
   86bbb     C5 2478   3.090   2.011   6.835 -0.1656 -0.7983 -0.5174
   86bbb     H9 2479   2.981   2.004   6.837 -0.1677 -0.7079 -0.2791
   86bbb    H10 2480   3.108   1.976   6.733  2.6956  0.2749 -0.4956
   86bbb     C6 2481   3.240   1.569   6.893 -0.1255  1.0727  0.4687
   86bbb    H11 2482   3.150   1.507   6.884  1.7006 -1.6448 -0.2926
   86bbb    H12 2483   3.275   1.557   6.996 -0.2399 -1.0755  0.3033
   86bbb     C7 2484   2.776   1.747   7.097  0.3943 -0.2065  0.7820
   86bbb    H13 2485   2.730   1.701   7.009 -0.8747 -0.0524  1.3363
   86bbb    H14 2486   2.720   1.829   7.144  0.5770  0.0561  0.5436
   86bbb     C8 2487   3.346   1.499   6.796  0.2158  0.0292  0.3277
   86bbb    H15 2488   3.348   1.394   6.826  1.6795  0.5923  2.3430
   86bbb    H16 2489   3.447   1.541   6.806 -0.1284  1.6002 -1.8584
   86bbb     C9 2490   3.125   2.166   6.843 -0.0551 -0.0180  0.0905
   86bbb    H17 2491   3.098   2.201   6.944  0.3251  1.7146 -0.3753
   86bbb    H18 2492   3.060   2.225   6.777 -0.3474 -1.4803 -0.9877
   86bbb     O1 2493   2.811   1.649   7.193  0.4558  0.1971 -0.0733
   87bbb     N1 2494   2.719  -0.999   9.854  0.4470  0.9622 -0.1167
   87bbb     C1 2495   2.703  -1.076   9.718  0.5979 -0.5589  0.2454
   87bbb     H1 2496   2.616  -1.040   9.662  1.9926  1.5078 -0.7121
   87bbb     H2 2497   2.680  -1.181   9.741 -0.3251  0.0740  2.3906
   87bbb     C2 2498   2.628  -1.038   9.964  0.2511  0.0314  0.1372
   87bbb     H3 2499   2.532  -0.994   9.935  1.6762  2.0914 -1.8624
   87bbb     H4 2500   2.645  -0.988  10.060  0.9964 -2.3596  1.3534
   87bbb     C3 2501   2.727  -0.853   9.835  0.0476  0.2141 -0.3052
   87bbb     H5 2502   2.633  -0.800   9.855  0.6545  1.3744 -0.4081
   87bbb     H6 2503   2.747  -0.831   9.729 -0.3564  3.0362  0.1207
   87bbb     C4 2504   2.837  -0.793   9.928  0.4666  0.6324  0.6297
   87bbb     H7 2505   2.925  -0.857   9.910  1.1620  1.2976  1.5357
   87bbb     H8 2506   2.806  -0.792  10.033  0.6882  2.0088  0.6949
   87bbb     C5 2507   2.832  -1.066   9.628 -0.0516 -0.6482 -0.2052
   87bbb     H9 2508   2.908  -1.117   9.689 -0.0377 -1.4205 -0.8423
   87bbb    H10 2509   2.862  -0.961   9.627 -1.3598 -0.2647 -0.6259
   87bbb     C6 2510   2.610  -1.188  10.002  0.3791 -0.4894 -0.3467
   87bbb    H11 2511   2.594  -1.187  10.111 -0.4442  0.9635 -0.4575
   87bbb    H12 2512   2.695  -1.252   9.976  1.5671  0.6144  0.6993
   87bbb     C7 2513   2.872  -0.649   9.887  0.5534  0.0651  0.7207
   87bbb    H13 2514   2.924  -0.655   9.790  2.2255  0.5276  1.5444
   87bbb    H14 2515   2.937  -0.594   9.957  1.8824 -0.3634 -0.1328
   87bbb     C8 2516   2.480  -1.268   9.955 -0.7676 -0.2195 -0.0049
   87bbb    H15 2517   2.481  -1.371   9.993  0.5884 -0.1118  0.3257
   87bbb    H16 2518   2.477  -1.269   9.845  1.3272 -1.8076 -0.1107
   87bbb     C9 2519   2.822  -1.144   9.499 -0.5324  0.6421 -0.3200
   87bbb    H17 2520   2.799  -1.250   9.517 -0.4478  0.5524 -0.7239
   87bbb    H18 2521   2.920  -1.149   9.450 -0.9501 -0.3015 -1.1128
   87bbb     O1 2522   2.756  -0.563   9.868  0.0202 -0.1919 -0.6897
   88bbb     N1 2523   1.772  -0.095   9.308  0.8239  0.1664 -0.2008
   88bbb     C1 2524   1.670  -0.196   9.362 -0.6519 -0.8316 -0.0873
   88bbb     H1 2525   1.663  -0.270   9.282 -1.4288  1.6480 -2.4619
   88bbb     H2 2526   1.568  -0.158   9.375  0.2482  2.6533 -2.0521
   88bbb     C2 2527   1.743  -0.062   9.165  0.6027 -0.3372  1.0321
   88bbb     H3 2528   1.719  -0.151   9.105 -2.0742  1.6703 -1.0995
   88bbb     H4 2529   1.832  -0.024   9.114  0.4969 -0.1199  1.0094
   88bbb     C3 2530   1.796   0.022   9.401 -0.1283  0.3898 -0.1764
   88bbb     H5 2531   1.801  -0.002   9.508 -0.1960  1.8778  0.1856
   88bbb     H6 2532   1.724   0.103   9.388  0.0995  0.8539  1.2706
   88bbb     C4 2533   1.933   0.080   9.370  0.8773 -0.1710  0.2105
   88bbb     H7 2534   1.955   0.164   9.436 -0.6651  1.2905 -1.0395
   88bbb     H8 2535   1.928   0.137   9.276  1.1634  2.3804  1.6718
   88bbb     C5 2536   1.718  -0.276   9.486  0.4481 -0.2732 -0.4918
   88bbb     H9 2537   1.709  -0.222   9.581  1.8462 -1.6287  0.4692
   88bbb    H10 2538   1.826  -0.288   9.470  0.7829  1.5036  0.1381
   88bbb     C6 2539   1.629   0.036   9.143  0.9718 -0.1636  0.3601
   88bbb    H11 2540   1.628   0.114   9.220 -3.7648 -0.3433  0.7857
   88bbb    H12 2541   1.538  -0.021   9.165  2.1341 -3.9318 -3.4013
   88bbb     C7 2542   2.048  -0.021   9.366 -0.1958 -0.4368 -0.1903
   88bbb    H13 2543   2.122   0.024   9.298 -1.1345  1.2451 -0.1498
   88bbb    H14 2544   2.020  -0.118   9.325 -2.2261  0.2085 -0.4054
   88bbb     C8 2545   1.612   0.091   9.003 -0.3890 -0.1251 -0.1375
   88bbb    H15 2546   1.704   0.148   8.984  1.9200 -2.0294  3.9944
   88bbb    H16 2547   1.524   0.156   8.998 -0.6854 -0.4201  0.9857
   88bbb     C9 2548   1.655  -0.412   9.505  0.0046  0.8399  0.8863
   88bbb    H17 2549   1.644  -0.477   9.418 -0.7994 -2.0922  3.0569
   88bbb    H18 2550   1.548  -0.399   9.523 -0.6864 -1.1322 -1.3608
   88bbb     O1 2551   2.103  -0.042   9.502  0.4797 -0.1811 -0.5320
   89bbb     N1 2552   2.076   0.052  10.522 -0.5830  0.0931 -1.5013
   89bbb     C1 2553   2.108  -0.092  10.555  0.0088  0.4854  0.8858
   89bbb     H1 2554   2.181  -0.134  10.484  0.8246  1.7626  0.9383
   89bbb     H2 2555   2.013  -0.145  10.544 -0.5726  1.7104 -0.2609
   89bbb     C2 2556   2.034   0.063  10.381  0.2239 -0.8178  0.0498
   89bbb     H3 2557   2.109   0.021  10.313 -0.8585 -1.2582 -0.9108
   89bbb     H4 2558   2.023   0.169  10.353 -1.5724 -0.6446  1.2200
   89bbb     C3 2559   2.192   0.136  10.561  0.8519  0.9721  0.0609
   89bbb     H5 2560   2.280   0.099  10.508 -0.9882  0.6717 -2.9925
   89bbb     H6 2561   2.208   0.126  10.669  0.2929  0.5858  0.1109
   89bbb     C4 2562   2.179   0.286  10.533  0.4595 -0.0729  0.4847
   89bbb     H7 2563   2.077   0.320  10.554  0.1920  0.1521 -1.0243
   89bbb     H8 2564   2.198   0.308  10.427  1.2369 -1.5680  0.2851
   89bbb     C5 2565   2.149  -0.125  10.701 -0.3320 -0.5399  0.3426
   89bbb     H9 2566   2.248  -0.083  10.723  0.6402 -1.3308 -2.1470
   89bbb    H10 2567   2.165  -0.234  10.697 -1.8300 -0.8037  0.9302
   89bbb     C6 2568   1.901  -0.010  10.368  0.2522 -0.4902  0.3936
   89bbb    H11 2569   1.837   0.004  10.456 -2.5447  0.4168 -1.6351
   89bbb    H12 2570   1.925  -0.117  10.368 -0.5349 -0.6855  1.0838
   89bbb     C7 2571   2.288   0.360  10.610  0.1877 -1.2445 -0.4465
   89bbb    H13 2572   2.286   0.348  10.719 -0.3607  2.7279  0.1215
   89bbb    H14 2573   2.281   0.467  10.588  2.2010 -0.6971  1.2995
   89bbb     C8 2574   1.814   0.022  10.245 -0.2473 -0.2155 -0.3122
   89bbb    H15 2575   1.883  -0.002  10.164  1.5345  0.8659  0.8251
   89bbb    H16 2576   1.779   0.126  10.248 -4.1687 -1.3890 -0.0637
   89bbb     C9 2577   2.035  -0.087  10.792 -0.6241 -0.1472  0.5539
   89bbb    H17 2578   1.941  -0.126  10.750 -1.3804  0.0909  1.9445
   89bbb    H18 2579   2.035   0.022  10.805  0.4478  0.1003 -1.3033
   89bbb     O1 2580   2.410   0.313  10.551 -0.1909  0.2884 -0.2202
   90bbb     N1 2581   2.789   0.890  11.247 -0.6970 -1.0707  0.5194
   90bbb     C1 2582   2.906   0.907  11.343  0.5232  0.6059 -0.8751
   90bbb     H1 2583   2.945   0.805  11.348 -1.3816 -0.1394  3.8825
   90bbb     H2 2584   2.866   0.935  11.441  2.4593 -1.4398  0.6054
   90bbb     C2 2585   2.698   0.772  11.269  0.1431 -0.3951 -0.0104
   90bbb     H3 2586   2.741   0.680  11.227  0.1291 -0.6444  0.5197
   90bbb     H4 2587   2.604   0.783  11.212 -0.6861  0.4554  1.4488
   90bbb     C3 2588   2.832   0.902  11.103  0.0265  0.5651 -0.3853
   90bbb     H5 2589   2.877   0.809  11.066 -1.3578  1.0247 -3.4999
   90bbb     H6 2590   2.876   0.998  11.073 -1.7240  1.5251  0.0126
   90bbb     C4 2591   2.715   0.903  11.006 -0.4816  0.0756 -0.4327
   90bbb     H7 2592   2.645   0.977  11.048 -0.4577 -0.0087 -0.2426
   90bbb     H8 2593   2.667   0.805  10.992 -2.4131  0.9132 -0.0453
   90bbb     C5 2594   3.015   1.019  11.312  0.3713  0.4563  0.6523
   90bbb     H9 2595   3.045   0.996  11.209 -0.0808 -0.0801  0.6346
   90bbb    H10 2596   3.109   0.999  11.364  0.9367  2.0461  0.3049
   90bbb     C6 2597   2.666   0.735  11.417  0.3613  0.0844 -0.2231
   90bbb    H11 2598   2.622   0.823  11.465 -0.4780 -1.3464  1.7798
   90bbb    H12 2599   2.756   0.720  11.478  0.4108 -0.7708 -0.4919
   90bbb     C7 2600   2.769   0.943  10.870  0.0808  0.3013 -0.6195
   90bbb    H13 2601   2.806   1.043  10.896  0.1056 -0.0304  0.7169
   90bbb    H14 2602   2.689   0.953  10.795 -0.4911 -3.8653 -0.7834
   90bbb     C8 2603   2.565   0.612  11.431  0.3554  0.0275 -0.1970
   90bbb    H15 2604   2.608   0.512  11.413 -0.8696 -0.6663  0.5497
   90bbb    H16 2605   2.481   0.628  11.362 -0.0654 -1.5824 -0.1214
   90bbb     C9 2606   2.950   1.167  11.313 -0.6922 -0.0204 -0.1024
   90bbb    H17 2607   2.888   1.178  11.402 -1.6160 -0.8030 -0.6367
   90bbb    H18 2608   2.897   1.175  11.217 -0.4429 -0.3058 -0.2690
   90bbb     O1 2609   2.872   0.853  10.825  0.3399  0.6573  0.6563
   91bbb     N1 2610   2.776   0.749   9.629 -0.0028 -0.1437 -0.1049
   91bbb     C1 2611   2.886   0.735   9.723  0.2586  0.4040  0.0783
   91bbb     H1 2612   2.862   0.660   9.799  2.1316  1.5217  1.8963
   91bbb     H2 2613   2.892   0.828   9.782 -2.2885  1.9230 -1.8356
   91bbb     C2 2614   2.653   0.829   9.679 -0.4870  0.2152 -0.3464
   91bbb     H3 2615   2.608   0.778   9.765  0.4376 -0.6122 -0.3350
   91bbb     H4 2616   2.576   0.833   9.600 -1.8668  0.5525  0.9607
   91bbb     C3 2617   2.738   0.632   9.547 -0.5468  0.8114 -0.1804
   91bbb     H5 2618   2.634   0.603   9.570 -0.2369 -0.6899 -0.5360
   91bbb     H6 2619   2.801   0.544   9.568 -2.4174 -0.5890 -0.1386
   91bbb     C4 2620   2.757   0.675   9.403  0.4832  0.4021 -0.2893
   91bbb     H7 2621   2.861   0.706   9.389  1.1503 -2.4069 -2.4021
   91bbb     H8 2622   2.691   0.763   9.393  0.0782  0.2199  0.6467
   91bbb     C5 2623   3.027   0.711   9.659  0.1307  0.3952 -0.1355
   91bbb     H9 2624   3.070   0.804   9.620  0.7279  0.1870  0.0056
   91bbb    H10 2625   3.012   0.641   9.576  1.5187  0.4276 -0.4520
   91bbb     C6 2626   2.685   0.975   9.727  0.0193  0.5453 -0.3983
   91bbb    H11 2627   2.756   0.972   9.811  1.4567 -1.2760 -1.5969
   91bbb    H12 2628   2.598   1.037   9.752 -0.1409 -0.5353  2.0099
   91bbb     C7 2629   2.718   0.565   9.299 -1.1320  0.0171 -0.6405
   91bbb    H13 2630   2.730   0.600   9.196 -0.5154 -0.6243 -0.7919
   91bbb    H14 2631   2.615   0.528   9.309  0.0242 -2.7876  2.8263
   91bbb     C8 2632   2.761   1.052   9.618 -0.5516 -0.3371  0.9476
   91bbb    H15 2633   2.714   1.041   9.519 -1.6822  2.6068  1.0453
   91bbb    H16 2634   2.866   1.020   9.616 -0.1829  0.8371  0.8913
   91bbb     C9 2635   3.142   0.647   9.745 -0.5092  0.0261  0.1768
   91bbb    H17 2636   3.232   0.620   9.689 -1.6141  0.4735 -1.9100
   91bbb    H18 2637   3.101   0.558   9.794 -1.9595  1.4773  1.7501
   91bbb     O1 2638   2.809   0.448   9.319  0.1850 -0.2358  0.1020
   92bbb     N1 2639   2.807  -0.110   8.547 -0.5518  0.0016 -0.3278
   92bbb     C1 2640   2.673  -0.167   8.549  0.3446  0.4990 -0.4827
   92bbb     H1 2641   2.677  -0.271   8.516 -0.8443  0.2241  0.1652
   92bbb     H2 2642   2.623  -0.127   8.460  1.6933 -0.6715 -1.8180
   92bbb     C2 2643   2.871  -0.122   8.409 -0.1075 -0.3255  0.0152
   92bbb     H3 2644   2.963  -0.063   8.403 -0.1577 -0.3353 -1.1160
   92bbb     H4 2645   2.803  -0.071   8.339  1.2632 -0.6859 -1.6315
   92bbb     C3 2646   2.897  -0.157   8.650  0.3709 -0.2902 -0.5109
   92bbb     H5 2647   2.907  -0.266   8.654 -1.0569 -0.4507 -0.7791
   92bbb     H6 2648   2.859  -0.124   8.747  0.1868  2.0035 -1.2913
   92bbb     C4 2649   3.036  -0.088   8.650  0.5498  0.0857 -0.0455
   92bbb     H7 2650   3.021   0.018   8.625  0.3247 -0.4225 -2.2242
   92bbb     H8 2651   3.102  -0.137   8.578  0.4647 -0.2223  0.0863
   92bbb     C5 2652   2.597  -0.173   8.686 -0.1064 -0.1006 -0.4253
   92bbb     H9 2653   2.579  -0.071   8.722  0.8896 -0.3843  0.9407
   92bbb    H10 2654   2.657  -0.226   8.761 -0.2799 -0.1392 -0.3126
   92bbb     C6 2655   2.892  -0.262   8.350  0.6520  0.4475 -0.0729
   92bbb    H11 2656   2.809  -0.332   8.365  1.5270 -0.2211  2.0277
   92bbb    H12 2657   2.973  -0.312   8.406  0.9710  0.2454 -0.6944
   92bbb     C7 2658   3.118  -0.096   8.780  0.2095  0.0291 -0.4209
   92bbb    H13 2659   3.222  -0.069   8.760 -0.5681  1.4319 -3.1127
   92bbb    H14 2660   3.105  -0.198   8.817  0.9619 -0.4137 -1.3503
   92bbb     C8 2661   2.924  -0.260   8.195  0.0071 -0.4860  0.3851
   92bbb    H15 2662   2.839  -0.222   8.137  0.2977 -1.2787 -0.5782
   92bbb    H16 2663   2.933  -0.361   8.154 -2.8372 -0.8259  0.4333
   92bbb     C9 2664   2.468  -0.253   8.680  0.2430 -0.4376  0.0655
   92bbb    H17 2665   2.404  -0.216   8.599  0.3135  0.7030  0.5181
   92bbb    H18 2666   2.402  -0.240   8.767  0.7942  1.0791  0.2829
   92bbb     O1 2667   3.069   0.001   8.878 -0.6676  0.0791 -0.0742
   93bbb     N1 2668   3.522   0.431   9.504 -0.1485 -0.0362 -0.3339
   93bbb     C1 2669   3.481   0.571   9.485 -0.4408 -0.5531  0.0048
   93bbb     H1 2670   3.563   0.634   9.447  0.1537 -0.7134  1.0092
   93bbb     H2 2671   3.450   0.631   9.571 -0.4577 -0.7852  0.1600
   93bbb     C2 2672   3.559   0.363   9.378  0.6446 -0.4047 -0.1611
   93bbb     H3 2673   3.480   0.370   9.302  1.2696  0.4060 -0.7589
   93bbb     H4 2674   3.569   0.257   9.404  0.4895 -0.1399  1.0358
   93bbb     C3 2675   3.627   0.417   9.609  0.2653 -0.8439  0.4818
   93bbb     H5 2676   3.721   0.462   9.576 -0.3462  0.2311  0.1580
   93bbb     H6 2677   3.645   0.309   9.613  1.1346 -0.7085  0.2632
   93bbb     C4 2678   3.579   0.463   9.755 -0.3808  0.1052  0.3572
   93bbb     H7 2679   3.485   0.417   9.790  0.3395 -0.7544  1.2197
   93bbb     H8 2680   3.557   0.570   9.760 -2.6862 -0.3296  0.7845
   93bbb     C5 2681   3.369   0.604   9.377 -0.0135 -0.9894 -0.1393
   93bbb     H9 2682   3.292   0.526   9.375 -1.8480  0.7727 -1.1785
   93bbb    H10 2683   3.416   0.591   9.278 -0.4806  1.5959 -0.7704
   93bbb     C6 2684   3.691   0.415   9.308  0.9298  0.4245  0.0101
   93bbb    H11 2685   3.781   0.385   9.363  1.8310  1.4452 -0.8878
   93bbb    H12 2686   3.693   0.524   9.316  1.8364  0.5999 -2.1122
   93bbb     C7 2687   3.676   0.453   9.875  0.0306 -0.5228  0.0017
   93bbb    H13 2688   3.754   0.530   9.866 -0.1699 -0.5039 -2.6438
   93bbb    H14 2689   3.715   0.351   9.864 -0.5478 -0.7563  0.0791
   93bbb     C8 2690   3.709   0.377   9.160  0.0926  0.2524  0.1904
   93bbb    H15 2691   3.632   0.420   9.095 -0.1295 -1.6959 -0.9030
   93bbb    H16 2692   3.716   0.268   9.154 -0.6600  0.2689 -1.4769
   93bbb     C9 2693   3.305   0.741   9.392  0.5404 -0.1562 -0.0163
   93bbb    H17 2694   3.376   0.822   9.370 -1.7440  1.5131 -1.7537
   93bbb    H18 2695   3.275   0.756   9.496  1.1098  2.1155 -0.1168
   93bbb     O1 2696   3.596   0.454   9.997  0.1181  0.0995 -0.2254
   94bbb     N1 2697   3.454  -0.202  10.821  0.1804  0.1283 -0.6201
   94bbb     C1 2698   3.327  -0.242  10.898  0.3255  0.1043  0.3815
   94bbb     H1 2699   3.305  -0.348  10.881 -2.2527  0.6790 -0.2083
   94bbb     H2 2700   3.243  -0.174  10.882  0.2749 -0.0817 -0.1584
   94bbb     C2 2701   3.444  -0.255  10.684 -0.6412  0.2961  0.1242
   94bbb     H3 2702   3.368  -0.199  10.629 -1.1754 -1.7347 -1.2986
   94bbb     H4 2703   3.408  -0.358  10.682 -0.3860  0.2042 -1.7193
   94bbb     C3 2704   3.518  -0.065  10.835 -0.2521  0.5860 -0.3125
   94bbb     H5 2705   3.617  -0.071  10.790 -0.4419  0.0956 -0.6799
   94bbb     H6 2706   3.517  -0.050  10.944 -1.8621 -1.0058 -0.0565
   94bbb     C4 2707   3.437   0.050  10.754 -0.0249 -0.1402  0.0164
   94bbb     H7 2708   3.339   0.069  10.798 -0.3044  0.5265 -0.8807
   94bbb     H8 2709   3.432   0.023  10.648  0.3580  0.4467 -0.1541
   94bbb     C5 2710   3.356  -0.233  11.050 -0.2365  0.5966  0.5847
   94bbb     H9 2711   3.355  -0.125  11.069 -0.9980  0.8669 -0.8554
   94bbb    H10 2712   3.454  -0.272  11.081  0.1648  0.6721 -0.5460
   94bbb     C6 2713   3.579  -0.249  10.602  0.7483 -0.4216  0.2797
   94bbb    H11 2714   3.654  -0.311  10.652  0.3210 -1.6641 -0.5960
   94bbb    H12 2715   3.615  -0.146  10.590  1.3652 -0.6228  0.3856
   94bbb     C7 2716   3.518   0.173  10.748 -0.0835  0.5469  0.0610
   94bbb    H13 2717   3.584   0.160  10.661 -0.0012 -0.4853  0.2639
   94bbb    H14 2718   3.570   0.188  10.843  1.9247 -1.3266 -0.6601
   94bbb     C8 2719   3.556  -0.308  10.462  0.1046  0.0692  0.5609
   94bbb    H15 2720   3.467  -0.260  10.420  0.5394 -0.6946 -1.3795
   94bbb    H16 2721   3.550  -0.417  10.477  2.0368  0.0820  1.8063
   94bbb     C9 2722   3.250  -0.311  11.131  0.0418  0.2180 -0.3158
   94bbb    H17 2723   3.155  -0.264  11.104 -0.2797 -0.6992 -0.8311
   94bbb    H18 2724   3.259  -0.293  11.239  0.4100 -1.0569 -0.1197
   94bbb     O1 2725   3.444   0.296  10.725 -0.2565 -0.2261  0.2390
   95ccc     C1 2726  -0.791  -0.507   9.203  0.0655  0.6840 -0.0435
   95ccc     H1 2727  -0.895  -0.539   9.199 -0.0745  1.2064 -0.7019
   95ccc     H2 2728  -0.789  -0.419   9.268 -1.2827 -1.3472  3.0258
   95ccc     C2 2729  -0.733  -0.493   9.062  0.3213 -0.9796  0.5083
   95ccc     H3 2730  -0.625  -0.479   9.076  0.1124  1.2195  0.3064
   95ccc     H4 2731  -0.747  -0.588   9.009  0.9762 -0.6683 -0.2437
   95ccc     C3 2732  -0.783  -0.360   8.994 -0.3506  0.0274 -0.1818
   95ccc     H5 2733  -0.758  -0.270   9.051  3.0739  0.2316 -1.7980
   95ccc     H6 2734  -0.892  -0.359   8.978 -0.0676  0.2271 -2.5643
   95ccc     N1 2735  -0.713  -0.600   9.293 -0.2572  0.3461  0.2652
   95ccc     H7 2736  -0.623  -0.556   9.319 -1.4862  3.1952  0.1396
   95ccc     H8 2737  -0.766  -0.617   9.379  0.1411  0.6217  0.5665
   95ccc     O1 2738  -0.706  -0.343   8.869 -0.0572 -0.5522  0.4661
   95ccc    H17 2739  -0.696  -0.693   9.253  1.4145  0.8339 -0.2299
   96ccc     C1 2740   0.183  -0.095   8.859  0.1753 -0.7423  0.5799
   96ccc     H1 2741   0.286  -0.125   8.840  0.3059  0.1620 -0.1723
   96ccc     H2 2742   0.123  -0.182   8.887 -0.7300  0.1841  1.6095
   96ccc     C2 2743   0.101  -0.023   8.742 -0.0567  0.1027 -0.0616
   96ccc     H3 2744   0.007   0.018   8.778  0.3520  0.4000  0.6815
   96ccc     H4 2745   0.149   0.064   8.695 -0.4705 -0.4752 -1.6320
   96ccc     C3 2746   0.077  -0.126   8.633  0.1520 -0.3919 -0.7696
   96ccc     H5 2747   0.166  -0.132   8.568  0.6081 -0.3118 -0.1576
   96ccc     H6 2748   0.005  -0.084   8.562 -2.7019 -2.9709  0.3826
   96ccc     N1 2749   0.182  -0.001   8.979  0.0087  0.1689 -0.0786
   96ccc     H7 2750   0.243  -0.047   9.048  1.2199 -1.4445 -2.0911
   96ccc     H8 2751   0.215   0.090   8.944 -2.7821  0.2489 -3.0137
   96ccc     O1 2752   0.022  -0.248   8.680  0.1148 -0.3824  0.4207
   96ccc    H17 2753   0.087  -0.002   9.018  0.1455  0.2505  0.2562
   97ccc     C1 2754  -0.124  -0.157   7.529 -0.3515  0.9472  0.0278
   97ccc     H1 2755  -0.157  -0.069   7.585 -1.3144  0.2327  0.5965
   97ccc     H2 2756  -0.044  -0.214   7.577 -2.5482 -2.6432 -0.2017
   97ccc     C2 2757  -0.080  -0.105   7.388  0.4387  0.2080 -0.2158
   97ccc     H3 2758  -0.041  -0.187   7.326 -0.3685  0.2492 -0.7886
   97ccc     H4 2759  -0.178  -0.081   7.345 -0.0367 -3.4755 -1.5893
   97ccc     C3 2760   0.010   0.020   7.408 -0.3253 -0.0075 -0.6181
   97ccc     H5 2761   0.032   0.067   7.311  0.3889  3.4161  1.0584
   97ccc     H6 2762   0.099  -0.022   7.458 -1.0758 -0.4084  0.4157
   97ccc     N1 2763  -0.235  -0.269   7.516 -0.0250 -0.3561 -0.4058
   97ccc     H7 2764  -0.202  -0.361   7.483  0.9434 -0.1690  0.0090
   97ccc     H8 2765  -0.274  -0.278   7.611  2.6670  1.1088  0.9650
   97ccc     O1 2766  -0.056   0.116   7.496 -0.6117  0.2056  0.3536
   97ccc    H17 2767  -0.305  -0.233   7.450  0.6623  0.7647 -0.5393
   98ccc     C1 2768  -0.594   0.995   7.883  0.4559 -0.1599  0.0501
   98ccc     H1 2769  -0.526   0.980   7.967  0.0531  0.4722  0.4992
   98ccc     H2 2770  -0.673   0.921   7.897  2.0599 -1.9268  0.1045
   98ccc     C2 2771  -0.517   0.954   7.754  0.6432 -0.5488  0.0187
   98ccc     H3 2772  -0.578   0.982   7.666  0.8913  1.2319  0.3679
   98ccc     H4 2773  -0.434   1.025   7.744  0.0726 -0.0355 -1.3597
   98ccc     C3 2774  -0.472   0.804   7.746 -0.5710 -0.2925 -0.0541
   98ccc     H5 2775  -0.421   0.771   7.838 -0.9027  0.3900  0.3871
   98ccc     H6 2776  -0.393   0.810   7.670 -0.8874 -1.2402 -0.4729
   98ccc     N1 2777  -0.635   1.139   7.909  0.1998 -0.0569  0.3890
   98ccc     H7 2778  -0.668   1.140   8.007 -2.0807  4.2434 -0.1427
   98ccc     H8 2779  -0.549   1.194   7.901  2.3522 -3.3496 -1.1451
   98ccc     O1 2780  -0.569   0.706   7.711  0.0899  0.2396 -0.3120
   98ccc    H17 2781  -0.717   1.173   7.857 -0.6277 -1.8537  0.4393
   99ccc     C1 2782  -1.608   1.118   8.052 -0.3843  0.2889  1.1019
   99ccc     H1 2783  -1.585   1.053   7.968 -2.0943  1.1381 -0.0885
   99ccc     H2 2784  -1.542   1.202   8.031 -0.9395  0.3769 -0.4102
   99ccc     C2 2785  -1.564   1.052   8.187  0.2900 -0.0717  0.3072
   99ccc     H3 2786  -1.586   1.116   8.273  1.3003  1.3180 -0.4237
   99ccc     H4 2787  -1.620   0.960   8.207  1.7130 -1.1667 -0.4974
   99ccc     C3 2788  -1.411   1.022   8.190 -0.0147 -0.1861  0.5114
   99ccc     H5 2789  -1.361   1.118   8.171 -0.2266 -0.2932 -0.6717
   99ccc     H6 2790  -1.376   0.949   8.116  1.5154 -0.2754  1.2747
   99ccc     N1 2791  -1.744   1.174   8.040  0.2254  0.1687 -0.4260
   99ccc     H7 2792  -1.779   1.213   8.129 -1.6985 -0.6038 -0.7827
   99ccc     H8 2793  -1.749   1.258   7.981  0.5500 -0.7402 -1.7944
   99ccc     O1 2794  -1.382   0.983   8.326 -0.1736  0.0266 -0.4655
   99ccc    H17 2795  -1.822   1.117   8.003 -0.2011 -0.1941  0.9769
  100ccc     C1 2796  -0.424   1.067   8.957  0.0594 -1.2353 -0.1823
  100ccc     H1 2797  -0.437   1.042   9.063  1.3261 -2.3027 -0.2430
  100ccc     H2 2798  -0.411   1.174   8.942 -0.9052 -0.8649  1.3510
  100ccc     C2 2799  -0.552   1.032   8.873  0.0108  0.3032  0.5290
  100ccc     H3 2800  -0.588   0.929   8.884 -2.4106  1.0568  0.1260
  100ccc     H4 2801  -0.629   1.098   8.915 -0.0537 -0.7500  2.1566
  100ccc     C3 2802  -0.534   1.048   8.724  0.0788 -0.0318  0.5831
  100ccc     H5 2803  -0.474   0.968   8.679 -1.1258 -0.8038  0.3084
  100ccc     H6 2804  -0.491   1.147   8.704 -0.8605 -0.0015 -1.5857
  100ccc     N1 2805  -0.298   0.993   8.917  0.3129 -0.3419  0.1578
  100ccc     H7 2806  -0.215   1.052   8.933  1.0055 -1.7043  1.8998
  100ccc     H8 2807  -0.287   0.904   8.968 -1.7455 -0.9854 -0.4451
  100ccc     O1 2808  -0.667   1.041   8.678 -0.2032 -0.3955  0.6806
  100ccc    H17 2809  -0.301   0.965   8.818 -1.4359 -1.7646  0.5598
  101ccc     C1 2810  -0.379   1.347   7.476 -0.2548  0.6192 -0.0151
  101ccc     H1 2811  -0.480   1.357   7.516 -0.1881 -0.7294  0.5261
  101ccc     H2 2812  -0.366   1.386   7.375  0.2092 -4.5951 -2.2787
  101ccc     C2 2813  -0.387   1.195   7.462  0.1480 -0.3986 -0.2777
  101ccc     H3 2814  -0.293   1.155   7.422  0.2505 -1.9255  1.3303
  101ccc     H4 2815  -0.417   1.137   7.551 -2.3716 -0.9677 -1.4145
  101ccc     C3 2816  -0.500   1.157   7.367 -1.1251 -0.4095  0.1182
  101ccc     H5 2817  -0.495   1.198   7.266 -1.5375  0.1862  0.3307
  101ccc     H6 2818  -0.592   1.200   7.410  0.3047  2.0606  0.9179
  101ccc     N1 2819  -0.259   1.394   7.558  0.2564  0.0967  0.1932
  101ccc     H7 2820  -0.181   1.327   7.553 -0.5923 -0.8677 -0.9237
  101ccc     H8 2821  -0.240   1.486   7.516  1.0918 -0.2265 -0.1468
  101ccc     O1 2822  -0.504   1.014   7.370  0.1279 -0.2753 -0.0458
  101ccc    H17 2823  -0.288   1.402   7.656 -0.5978 -1.3524  0.0962
  102ccc     C1 2824  -1.243   1.243   7.384  0.1171  0.0204 -0.3150
  102ccc     H1 2825  -1.172   1.164   7.358  2.2713  2.2848 -1.8326
  102ccc     H2 2826  -1.217   1.273   7.486  0.2223 -2.6319  0.5107
  102ccc     C2 2827  -1.380   1.175   7.391 -0.8319  0.1174  0.2926
  102ccc     H3 2828  -1.452   1.241   7.441 -1.0275  2.2200 -2.5174
  102ccc     H4 2829  -1.426   1.163   7.292 -0.5044 -0.6526  0.2270
  102ccc     C3 2830  -1.358   1.046   7.471 -0.1802 -0.1966  0.6127
  102ccc     H5 2831  -1.448   0.983   7.482  0.1708 -0.7462  0.3685
  102ccc     H6 2832  -1.327   1.069   7.574 -0.9497 -0.4102  0.9024
  102ccc     N1 2833  -1.234   1.367   7.289 -0.0436 -0.3931  0.0599
  102ccc     H7 2834  -1.215   1.330   7.195  2.6427 -3.2458  1.5482
  102ccc     H8 2835  -1.328   1.410   7.283 -0.8749 -2.1008  0.2732
  102ccc     O1 2836  -1.262   0.970   7.396  0.0233 -0.0147 -0.2999
  102ccc    H17 2837  -1.160   1.433   7.314 -0.0627 -0.1612 -0.4839
  103ccc     C1 2838  -0.123  -2.239   9.067 -0.2578  0.1034  0.8144
  103ccc     H1 2839  -0.219  -2.213   9.110 -0.3958 -1.0577  1.2505
  103ccc     H2 2840  -0.036  -2.239   9.133  0.6605 -0.7483 -0.3304
  103ccc     C2 2841  -0.104  -2.146   8.951 -0.2321  0.4325 -0.4897
  103ccc     H3 2842  -0.079  -2.046   8.988 -1.5269 -0.4096  3.1099
  103ccc     H4 2843  -0.016  -2.185   8.900 -0.7452 -0.6781 -0.5629
  103ccc     C3 2844  -0.223  -2.140   8.860  0.7108  0.2133  0.1445
  103ccc     H5 2845  -0.311  -2.159   8.922 -0.3089  1.0917 -0.9747
  103ccc     H6 2846  -0.206  -2.211   8.778  0.0078  1.6771 -1.3337
  103ccc     N1 2847  -0.141  -2.389   9.028  0.5590 -0.3305  0.3520
  103ccc     H7 2848  -0.167  -2.446   9.109  1.5940 -1.2002  0.0952
  103ccc     H8 2849  -0.204  -2.391   8.947  1.0228  3.4001 -0.3043
  103ccc     O1 2850  -0.229  -2.014   8.801  0.0190 -0.9419  0.1122
  103ccc    H17 2851  -0.044  -2.423   9.013  0.5344 -0.2569  0.0269
  104ccc     C1 2852  -0.640  -2.188   7.714 -0.2439 -0.0871 -0.7589
  104ccc     H1 2853  -0.740  -2.221   7.686 -0.6293  1.2317 -1.0024
  104ccc     H2 2854  -0.581  -2.279   7.719 -0.5750 -0.2795 -0.3214
  104ccc     C2 2855  -0.662  -2.132   7.857 -0.0272 -0.5997 -0.6399
  104ccc     H3 2856  -0.729  -2.046   7.861 -1.3865 -1.6459 -0.3203
  104ccc     H4 2857  -0.727  -2.202   7.912  2.7657 -2.9191 -0.0040
  104ccc     C3 2858  -0.537  -2.109   7.946 -0.8228 -0.4736  0.9377
  104ccc     H5 2859  -0.448  -2.153   7.899 -0.8391  0.1474  0.3107
  104ccc     H6 2860  -0.552  -2.166   8.039  0.0510 -1.4537  0.4918
  104ccc     N1 2861  -0.584  -2.085   7.619  0.5687  0.0406 -0.0687
  104ccc     H7 2862  -0.582  -2.123   7.523 -0.3213  1.3032 -0.6081
  104ccc     H8 2863  -0.641  -2.000   7.616 -1.6512 -1.2847  1.7767
  104ccc     O1 2864  -0.510  -1.973   7.967  0.0034 -0.3444  0.0782
  104ccc    H17 2865  -0.492  -2.048   7.646  0.7256 -0.1021 -0.3893
  105ccc     C1 2866   1.556  -1.886   8.825 -0.9385 -0.1170 -0.4666
  105ccc     H1 2867   1.537  -1.993   8.835 -2.2126  0.1767  0.3937
  105ccc     H2 2868   1.523  -1.836   8.916  2.3064  1.0090  0.2148
  105ccc     C2 2869   1.493  -1.830   8.699  0.3168 -0.8704  0.1356
  105ccc     H3 2870   1.568  -1.835   8.620  1.1372  3.1356  0.4896
  105ccc     H4 2871   1.408  -1.894   8.671 -0.4434  0.6573 -1.1836
  105ccc     C3 2872   1.445  -1.682   8.719 -0.5813  0.2686  0.7568
  105ccc     H5 2873   1.529  -1.617   8.746  1.3452 -1.6798 -0.1809
  105ccc     H6 2874   1.380  -1.676   8.807 -1.1220  1.0621  0.3172
  105ccc     N1 2875   1.698  -1.848   8.833 -0.4514 -0.1493  0.3457
  105ccc     H7 2876   1.739  -1.897   8.914 -2.4724 -1.3407  0.7033
  105ccc     H8 2877   1.751  -1.872   8.748  1.0660 -1.2616  1.5555
  105ccc     O1 2878   1.392  -1.635   8.591  0.1684 -0.4468 -0.3265
  105ccc    H17 2879   1.703  -1.751   8.866 -1.4163  0.2580 -0.6604
  106ccc     C1 2880   1.689  -0.677   8.318  0.5376  0.4951 -0.1989
  106ccc     H1 2881   1.614  -0.622   8.375 -0.3795 -2.2191  1.3867
  106ccc     H2 2882   1.644  -0.745   8.245  1.1841  1.4424 -1.5219
  106ccc     C2 2883   1.777  -0.762   8.415  0.4401 -0.1913 -0.2120
  106ccc     H3 2884   1.862  -0.805   8.361  1.1183 -0.4904  1.0637
  106ccc     H4 2885   1.825  -0.691   8.484 -1.1852  1.7361 -0.9673
  106ccc     C3 2886   1.693  -0.867   8.498  0.1285 -1.0674  0.2023
  106ccc     H5 2887   1.641  -0.816   8.579 -0.1914 -0.6317 -0.2683
  106ccc     H6 2888   1.762  -0.944   8.534 -2.4866 -4.0894 -0.8325
  106ccc     N1 2889   1.763  -0.569   8.247  0.1964 -0.2015 -0.4509
  106ccc     H7 2890   1.703  -0.523   8.177  0.7621 -1.0168 -1.5017
  106ccc     H8 2891   1.790  -0.496   8.314  1.9366 -3.1065  2.2831
  106ccc     O1 2892   1.601  -0.930   8.408  0.2277 -0.2664  0.8253
  106ccc    H17 2893   1.845  -0.592   8.189  1.1319  3.9775 -1.0996
  107ccc     C1 2894   0.320  -0.666   9.916 -0.2118 -1.0480 -0.3042
  107ccc     H1 2895   0.342  -0.764   9.874  1.2230 -0.8679 -0.0029
  107ccc     H2 2896   0.220  -0.668   9.960  0.0609  1.8301  0.5960
  107ccc     C2 2897   0.321  -0.559   9.802 -0.3976  0.0801 -0.4073
  107ccc     H3 2898   0.345  -0.463   9.850 -1.2432  0.6354 -1.0634
  107ccc     H4 2899   0.407  -0.584   9.738 -1.5375  2.0843 -2.9038
  107ccc     C3 2900   0.195  -0.553   9.717 -0.6647  0.4946 -0.4148
  107ccc     H5 2901   0.225  -0.479   9.641 -1.3813 -1.6259 -2.9213
  107ccc     H6 2902   0.106  -0.517   9.769 -0.5760  1.5846 -0.9853
  107ccc     N1 2903   0.410  -0.631  10.027 -0.6728 -0.0881 -0.4041
  107ccc     H7 2904   0.385  -0.544  10.076 -1.3855 -0.4804 -0.0496
  107ccc     H8 2905   0.407  -0.699  10.105 -1.9459 -1.3867 -1.5225
  107ccc     O1 2906   0.170  -0.677   9.655 -0.3164 -0.0899  0.2931
  107ccc    H17 2907   0.510  -0.614  10.005 -0.3088  1.2886  1.9573
  108ccc     C1 2908  -0.356  -1.622   9.376 -0.4933  0.2404  0.1703
  108ccc     H1 2909  -0.249  -1.619   9.397 -0.1243 -0.4810 -1.4310
  108ccc     H2 2910  -0.370  -1.591   9.272 -0.6480  0.3869  0.2351
  108ccc     C2 2911  -0.427  -1.522   9.464  0.6767  1.1056 -0.0220
  108ccc     H3 2912  -0.533  -1.551   9.473  1.2854 -0.7420  1.7360
  108ccc     H4 2913  -0.379  -1.529   9.562  2.0328 -2.2912 -0.7915
  108ccc     C3 2914  -0.414  -1.381   9.406 -0.8396  0.3537  0.2150
  108ccc     H5 2915  -0.472  -1.303   9.457 -2.6233 -0.5496 -0.3521
  108ccc     H6 2916  -0.441  -1.376   9.300 -0.9183 -0.4901  0.1892
  108ccc     N1 2917  -0.409  -1.767   9.391 -0.4224  0.8217 -0.7541
  108ccc     H7 2918  -0.387  -1.830   9.313  0.1080 -1.7701  1.3207
  108ccc     H8 2919  -0.376  -1.833   9.463  1.1019 -0.6937 -2.7344
  108ccc     O1 2920  -0.270  -1.355   9.414  0.1688  0.5256  0.4688
  108ccc    H17 2921  -0.512  -1.771   9.403 -0.1094 -0.8011  2.6881
  109ccc     C1 2922  -0.876  -1.739   9.004  0.0262  0.2375 -0.5279
  109ccc     H1 2923  -0.908  -1.729   9.108  1.2684 -0.2085 -0.0947
  109ccc     H2 2924  -0.912  -1.830   8.957 -0.9648  0.0904  0.4618
  109ccc     C2 2925  -0.723  -1.736   8.994 -0.1060  0.3005 -0.0648
  109ccc     H3 2926  -0.678  -1.656   9.055 -0.2538 -0.0002  0.4464
  109ccc     H4 2927  -0.673  -1.827   9.030  2.8545  2.1392  0.8799
  109ccc     C3 2928  -0.669  -1.722   8.849  0.2607 -0.2636  0.0673
  109ccc     H5 2929  -0.727  -1.794   8.789  1.7397 -0.9447 -0.6079
  109ccc     H6 2930  -0.563  -1.752   8.845  0.6469  1.0552  0.1557
  109ccc     N1 2931  -0.934  -1.620   8.926  0.0985  0.1266 -0.1760
  109ccc     H7 2932  -0.901  -1.628   8.828  3.1691 -0.9162  0.8363
  109ccc     H8 2933  -1.037  -1.623   8.923  0.1222 -1.3586 -0.1553
  109ccc     O1 2934  -0.687  -1.592   8.796 -0.4922 -0.0971 -0.5527
  109ccc    H17 2935  -0.911  -1.525   8.959  0.6296 -0.1537  0.2703
  110ccc     C1 2936  -1.128  -1.638   8.372 -0.0956  0.6213 -0.1913
  110ccc     H1 2937  -1.051  -1.573   8.331  1.9932 -1.5457  0.0524
  110ccc     H2 2938  -1.101  -1.669   8.473  1.2000 -2.2997 -1.3298
  110ccc     C2 2939  -1.137  -1.764   8.283  0.2966  0.0428 -0.3263
  110ccc     H3 2940  -1.189  -1.847   8.332  0.9820  0.0947  0.4997
  110ccc     H4 2941  -1.191  -1.737   8.191  1.7526 -1.9177 -1.8619
  110ccc     C3 2942  -0.999  -1.819   8.239 -0.6065 -0.7353 -0.2468
  110ccc     H5 2943  -1.020  -1.903   8.171 -0.4114 -0.4399 -0.6814
  110ccc     H6 2944  -0.950  -1.857   8.329 -0.0809  0.6077  0.0632
  110ccc     N1 2945  -1.261  -1.563   8.374  0.6082  0.1631 -0.0206
  110ccc     H7 2946  -1.338  -1.629   8.352  0.5572  0.3970 -0.5534
  110ccc     H8 2947  -1.274  -1.519   8.466 -0.4090 -2.5375  1.2444
  110ccc     O1 2948  -0.927  -1.711   8.170 -0.3265  0.0192  0.3831
  110ccc    H17 2949  -1.256  -1.498   8.294  0.8829 -0.0816 -0.2004
  111ccc     C1 2950   2.462   2.556   7.986  0.4640  0.1499  0.4523
  111ccc     H1 2951   2.562   2.524   7.954  0.1576 -1.8922  1.3872
  111ccc     H2 2952   2.463   2.553   8.095 -0.3271 -0.1633  0.4542
  111ccc     C2 2953   2.344   2.462   7.951 -0.1641 -0.2687  0.4146
  111ccc     H3 2954   2.357   2.369   8.008  0.2177 -0.5924 -0.1775
  111ccc     H4 2955   2.258   2.506   8.002 -0.2676 -1.8498  1.6856
  111ccc     C3 2956   2.328   2.423   7.802  0.3355 -0.8043  0.4082
  111ccc     H5 2957   2.347   2.511   7.739 -0.3384  0.7306  2.2628
  111ccc     H6 2958   2.225   2.385   7.790 -0.5871  1.4050  0.7897
  111ccc     N1 2959   2.442   2.692   7.930 -0.0057  0.2790 -0.1515
  111ccc     H7 2960   2.526   2.748   7.947  0.5408 -0.5094 -0.2146
  111ccc     H8 2961   2.430   2.672   7.829  0.7049 -3.0561  0.3247
  111ccc     O1 2962   2.416   2.318   7.768 -0.3406  0.0084  1.2081
  111ccc    H17 2963   2.358   2.739   7.967 -2.0185 -2.5236 -0.8283
  112ccc     C1 2964   3.173   2.226   7.492 -0.5602  0.1636  0.1718
  112ccc     H1 2965   3.065   2.231   7.512 -0.8671 -2.4088 -0.5803
  112ccc     H2 2966   3.221   2.322   7.470  0.1058 -0.6381 -2.0967
  112ccc     C2 2967   3.191   2.139   7.364  0.5024  0.1082  0.0281
  112ccc     H3 2968   3.170   2.195   7.272 -0.7624  0.6275  0.6088
  112ccc     H4 2969   3.292   2.097   7.353 -0.2874 -1.6996 -0.6785
  112ccc     C3 2970   3.101   2.016   7.360  0.4298  0.2000 -0.7964
  112ccc     H5 2971   3.115   1.948   7.446  0.5343 -0.6186 -1.4480
  112ccc     H6 2972   3.126   1.954   7.273 -2.4338 -1.7063 -0.3870
  112ccc     N1 2973   3.224   2.173   7.629 -0.3778  0.4003  0.1282
  112ccc     H7 2974   3.188   2.080   7.655  2.6308 -1.0756 -0.5186
  112ccc     H8 2975   3.323   2.146   7.628 -0.5279 -0.3557  2.0582
  112ccc     O1 2976   2.965   2.054   7.349 -0.8908 -0.7243 -0.0352
  112ccc    H17 2977   3.210   2.247   7.699  1.1289  0.9966 -0.1650
  113ccc     C1 2978   1.689   2.336   7.735  0.1950  0.8497 -0.2692
  113ccc     H1 2979   1.655   2.323   7.632  0.2131  2.2131 -0.4622
  113ccc     H2 2980   1.797   2.333   7.740  0.1630  0.0490  0.1824
  113ccc     C2 2981   1.632   2.228   7.830  0.0786 -1.1973 -0.4296
  113ccc     H3 2982   1.666   2.256   7.930  1.1781  1.5757 -1.4600
  113ccc     H4 2983   1.523   2.241   7.836 -0.0760 -0.4396 -3.2429
  113ccc     C3 2984   1.674   2.084   7.788  0.0290 -0.6106  0.2938
  113ccc     H5 2985   1.603   2.044   7.716 -1.1564  0.5607  0.7723
  113ccc     H6 2986   1.672   2.023   7.879  1.7772  1.3929  1.7892
  113ccc     N1 2987   1.656   2.472   7.777  0.2598 -0.3696  0.2048
  113ccc     H7 2988   1.573   2.507   7.728  0.6355 -0.2484 -0.3551
  113ccc     H8 2989   1.643   2.490   7.878  0.7968 -0.7787  0.3535
  113ccc     O1 2990   1.811   2.082   7.739 -0.2948 -0.2438 -0.1360
  113ccc    H17 2991   1.726   2.541   7.746 -1.0945  0.5521 -0.9160
  114ccc     C1 2992   2.221   2.056   8.580  0.4099 -0.7088 -0.3918
  114ccc     H1 2993   2.193   2.161   8.571  1.6855  0.0207  2.7692
  114ccc     H2 2994   2.326   2.052   8.609  0.8745 -0.3942 -1.9579
  114ccc     C2 2995   2.206   1.978   8.452 -0.8012  0.6280 -0.1590
  114ccc     H3 2996   2.262   1.885   8.470 -1.6284  0.2065  0.3227
  114ccc     H4 2997   2.100   1.952   8.436 -1.2156  0.2325  2.7470
  114ccc     C3 2998   2.262   2.044   8.332  0.0288  0.0203 -0.1041
  114ccc     H5 2999   2.370   2.064   8.338  0.1277 -0.7785  1.5301
  114ccc     H6 3000   2.218   2.143   8.319  0.3685  0.2708  0.5722
  114ccc     N1 3001   2.131   1.989   8.690 -0.3516  0.8154  0.2329
  114ccc     H7 3002   2.033   2.017   8.678 -0.3722  0.1688 -1.3736
  114ccc     H8 3003   2.145   1.888   8.678 -1.4786  0.6901 -0.0412
  114ccc     O1 3004   2.240   1.966   8.214  0.1485 -0.1590  0.2032
  114ccc    H17 3005   2.162   2.010   8.787 -1.3578 -1.5885  1.1591
  115ccc     C1 3006   0.822   1.338   6.320 -0.1583  0.3610 -0.2233
  115ccc     H1 3007   0.799   1.426   6.381 -1.7946 -1.2586  1.6464
  115ccc     H2 3008   0.854   1.255   6.384  4.0863  2.3032  0.5279
  115ccc     C2 3009   0.944   1.366   6.237  0.0177 -0.1516  0.1121
  115ccc     H3 3010   0.955   1.302   6.149  3.1855 -0.0489  0.3143
  115ccc     H4 3011   0.938   1.466   6.194  0.6300 -1.1054 -2.3564
  115ccc     C3 3012   1.067   1.353   6.336  0.0182 -0.3356  0.4562
  115ccc     H5 3013   1.164   1.358   6.286  0.7596 -0.4382  1.8546
  115ccc     H6 3014   1.073   1.256   6.385  1.5834 -0.1373  0.6842
  115ccc     N1 3015   0.697   1.292   6.249  0.2677 -0.3237  0.2361
  115ccc     H7 3016   0.714   1.198   6.210  1.2056  0.0081 -0.1846
  115ccc     H8 3017   0.620   1.291   6.317 -0.3296  0.8317 -0.4007
  115ccc     O1 3018   1.054   1.452   6.434 -0.9229 -0.0424 -0.0890
  115ccc    H17 3019   0.683   1.361   6.174  0.4584  0.8400  1.2381
  116ccc     C1 3020   0.656   2.332   6.518  0.2592  0.3577  1.0795
  116ccc     H1 3021   0.638   2.387   6.425  0.8886  1.6436  1.6993
  116ccc     H2 3022   0.763   2.316   6.531 -0.0379 -1.3118  1.8195
  116ccc     C2 3023   0.581   2.201   6.509  0.2212  0.2616  0.3362
  116ccc     H3 3024   0.606   2.157   6.606  1.9987  0.0341 -0.1798
  116ccc     H4 3025   0.472   2.209   6.498 -0.1870 -1.6866  2.2829
  116ccc     C3 3026   0.638   2.102   6.403 -1.2123  0.0554  0.0960
  116ccc     H5 3027   0.609   2.141   6.305  1.7956 -2.1712 -1.8706
  116ccc     H6 3028   0.597   2.001   6.413 -1.0009  0.1303  2.3009
  116ccc     N1 3029   0.605   2.428   6.625  0.4775  0.2889 -0.0139
  116ccc     H7 3030   0.632   2.526   6.607 -1.4645  0.2426 -4.3368
  116ccc     H8 3031   0.503   2.421   6.609  0.6465  0.8174 -1.4527
  116ccc     O1 3032   0.781   2.085   6.413  0.3218  0.1925 -0.2708
  116ccc    H17 3033   0.638   2.400   6.718  0.7416 -3.3699 -1.0633
  117ccc     C1 3034   2.133   2.319   6.608 -0.4427  0.9313 -0.4894
  117ccc     H1 3035   2.035   2.326   6.655 -0.3098 -2.0208  0.4362
  117ccc     H2 3036   2.109   2.281   6.509 -1.5039  1.2796 -0.3692
  117ccc     C2 3037   2.210   2.210   6.688 -0.0142  0.0646 -0.1630
  117ccc     H3 3038   2.284   2.263   6.749 -1.3037 -0.0281  1.5691
  117ccc     H4 3039   2.135   2.158   6.750 -2.3989  2.0889 -1.1482
  117ccc     C3 3040   2.282   2.108   6.594 -0.0645  0.3467 -0.3289
  117ccc     H5 3041   2.365   2.048   6.633  0.9891  1.3732 -0.9424
  117ccc     H6 3042   2.328   2.166   6.513  1.3409 -0.3132 -0.0398
  117ccc     N1 3043   2.212   2.451   6.603  0.8585 -0.4880  0.5953
  117ccc     H7 3044   2.299   2.442   6.549  1.3194 -1.2460  1.4322
  117ccc     H8 3045   2.157   2.526   6.558  0.9575 -0.7048  0.1118
  117ccc     O1 3046   2.191   2.005   6.542 -0.2263 -0.3163 -0.1014
  117ccc    H17 3047   2.235   2.486   6.698 -2.2776  0.9168  0.9954
  118ccc     C1 3048   1.603   1.189   6.114 -0.1929 -0.6376 -0.3834
  118ccc     H1 3049   1.696   1.179   6.171  1.2663 -0.4072 -2.6231
  118ccc     H2 3050   1.617   1.267   6.040  3.7433 -1.5414 -0.7687
  118ccc     C2 3051   1.487   1.229   6.215  0.3385  0.0432  0.3949
  118ccc     H3 3052   1.393   1.231   6.160  1.4137 -2.6019 -1.7826
  118ccc     H4 3053   1.474   1.151   6.291 -3.7198  0.7114  0.5753
  118ccc     C3 3054   1.525   1.373   6.262 -0.6012 -0.5972 -0.4836
  118ccc     H5 3055   1.444   1.423   6.317 -0.3294  0.0495 -0.6588
  118ccc     H6 3056   1.541   1.431   6.170 -0.0072  0.0466  0.0206
  118ccc     N1 3057   1.567   1.072   6.033  0.3698  0.3088  0.4997
  118ccc     H7 3058   1.485   1.088   5.974  0.5809  0.3571  0.2161
  118ccc     H8 3059   1.646   1.042   5.974 -0.5152 -0.9923 -0.0689
  118ccc     O1 3060   1.643   1.368   6.348 -0.1144 -0.1014  0.3511
  118ccc    H17 3061   1.542   0.996   6.098  1.0117 -0.7327 -0.4306
  119ccc     C1 3062   0.982   3.182   5.308  0.4172  0.3166  0.5721
  119ccc     H1 3063   1.077   3.193   5.360  2.4061 -1.0454 -2.4955
  119ccc     H2 3064   0.932   3.278   5.309  0.3506  0.2835  0.3539
  119ccc     C2 3065   0.897   3.072   5.383 -0.1654  0.4629 -0.7024
  119ccc     H3 3066   0.808   3.047   5.324  1.2573  0.6501 -3.0439
  119ccc     H4 3067   0.952   2.977   5.393 -1.8476 -0.4134  0.9076
  119ccc     C3 3068   0.855   3.115   5.526 -0.0021  0.2735  0.1738
  119ccc     H5 3069   0.806   3.030   5.575 -1.5646  0.1999 -1.4282
  119ccc     H6 3070   0.784   3.197   5.511  0.1700  0.2893 -0.5996
  119ccc     N1 3071   1.021   3.158   5.164 -0.5225 -0.3934  0.2066
  119ccc     H7 3072   1.078   3.234   5.127 -0.6098 -0.5130 -0.1762
  119ccc     H8 3073   1.080   3.073   5.158 -0.4394 -0.2595 -1.0155
  119ccc     O1 3074   0.971   3.163   5.602 -0.2449 -0.1233 -0.0060
  119ccc    H17 3075   0.931   3.151   5.114 -1.8901 -0.1756  2.4836
  120ccc     C1 3076   0.503   3.537   6.584 -0.8044 -0.7360  0.0494
  120ccc     H1 3077   0.509   3.505   6.688 -1.0991 -1.1939 -0.0719
  120ccc     H2 3078   0.399   3.528   6.551  0.4941 -0.9856 -4.6776
  120ccc     C2 3079   0.597   3.444   6.500 -0.4396  0.3904  0.8181
  120ccc     H3 3080   0.588   3.337   6.522  2.0986  0.2054  1.2476
  120ccc     H4 3081   0.562   3.444   6.396 -0.3239 -0.1425  0.7746
  120ccc     C3 3082   0.744   3.473   6.519  0.5778  0.5565  0.1846
  120ccc     H5 3083   0.781   3.439   6.617 -0.0682  3.7223  1.6437
  120ccc     H6 3084   0.782   3.573   6.498 -0.7642  1.2982  1.1407
  120ccc     N1 3085   0.544   3.686   6.592  0.0517 -0.1565  0.3426
  120ccc     H7 3086   0.644   3.700   6.611  0.2963  2.4807 -2.1688
  120ccc     H8 3087   0.534   3.732   6.500  0.8320  0.3380  0.4956
  120ccc     O1 3088   0.811   3.388   6.425  0.4132  0.0562  0.0873
  120ccc    H17 3089   0.485   3.727   6.666  1.8257  0.6932  1.3386
  121ccc     C1 3090   1.686   2.801   5.268  0.7845  0.2527  1.1171
  121ccc     H1 3091   1.788   2.826   5.239  0.6446 -0.3836  0.0159
  121ccc     H2 3092   1.662   2.828   5.371  1.8108  1.0815  1.1448
  121ccc     C2 3093   1.671   2.649   5.258 -0.7763  0.1137 -0.6638
  121ccc     H3 3094   1.567   2.621   5.277 -0.4209  0.3373  2.1110
  121ccc     H4 3095   1.697   2.609   5.160  0.3657  0.1916 -0.4059
  121ccc     C3 3096   1.763   2.583   5.373  0.4971 -0.7658  0.6153
  121ccc     H5 3097   1.787   2.478   5.350 -1.2609 -0.6983 -1.9178
  121ccc     H6 3098   1.705   2.598   5.465 -0.3823  2.1865 -0.3131
  121ccc     N1 3099   1.592   2.883   5.179 -0.0006  0.5332  0.8862
  121ccc     H7 3100   1.585   2.837   5.087  1.3744  2.0960 -0.0547
  121ccc     H8 3101   1.498   2.892   5.220  0.6267 -2.4701  3.3760
  121ccc     O1 3102   1.878   2.668   5.387  0.3934  0.5097 -0.2220
  121ccc    H17 3103   1.637   2.975   5.166  4.2647 -1.3530  0.5651
  122ccc     C1 3104   1.502   3.375   5.438 -0.9633  0.1906 -0.3346
  122ccc     H1 3105   1.545   3.329   5.527  0.5362  2.3870  0.1774
  122ccc     H2 3106   1.408   3.322   5.419 -1.0544 -0.3555  1.4693
  122ccc     C2 3107   1.606   3.365   5.319  0.5241  0.6366  0.1391
  122ccc     H3 3108   1.578   3.439   5.243  2.7292  2.0810  0.6297
  122ccc     H4 3109   1.701   3.398   5.363  1.3240  0.2084 -1.1870
  122ccc     C3 3110   1.624   3.219   5.264  0.3315  0.4502 -0.1417
  122ccc     H5 3111   1.701   3.219   5.185 -1.2875  1.3792 -1.8119
  122ccc     H6 3112   1.530   3.197   5.212  0.3331  0.7748 -0.2875
  122ccc     N1 3113   1.457   3.516   5.476  0.2421  0.3696  0.1797
  122ccc     H7 3114   1.534   3.572   5.517  1.7018  0.0806 -2.0243
  122ccc     H8 3115   1.424   3.572   5.396 -2.4781 -0.6336  0.4864
  122ccc     O1 3116   1.651   3.117   5.364  0.6379  0.3383  0.2242
  122ccc    H17 3117   1.388   3.514   5.552  0.8128  1.4962  0.7627
  123ccc     C1 3118   0.573   2.912   5.764  0.5673 -0.6020  0.2616
  123ccc     H1 3119   0.529   2.833   5.705  1.4280  0.7738 -2.3896
  123ccc     H2 3120   0.630   2.969   5.690 -1.2805  1.1673  0.1186
  123ccc     C2 3121   0.661   2.837   5.864  0.0294  0.2757  1.0897
  123ccc     H3 3122   0.713   2.901   5.936  0.6326 -0.3926  1.2664
  123ccc     H4 3123   0.584   2.784   5.921 -0.5581  0.7490  0.7477
  123ccc     C3 3124   0.754   2.733   5.790 -0.4953  0.2388 -0.8683
  123ccc     H5 3125   0.712   2.675   5.707 -0.7670  0.4136 -0.8531
  123ccc     H6 3126   0.790   2.662   5.865 -3.0462  0.3992  0.6164
  123ccc     N1 3127   0.461   2.994   5.830 -0.4234  0.0433 -0.0174
  123ccc     H7 3128   0.409   3.044   5.756  1.3115 -1.0743 -2.1101
  123ccc     H8 3129   0.395   2.950   5.896  2.3948 -2.7386  1.2147
  123ccc     O1 3130   0.858   2.806   5.730 -0.0763 -0.6123 -0.2357
  123ccc    H17 3131   0.503   3.074   5.880  0.3487  1.8583 -3.3168
  124ccc     C1 3132   1.332   3.119   6.584 -0.4155 -0.1997  0.4437
  124ccc     H1 3133   1.351   3.051   6.667  1.7121  0.4550  0.5539
  124ccc     H2 3134   1.228   3.149   6.573  0.1309  1.4664 -0.5661
  124ccc     C2 3135   1.385   3.046   6.459 -0.0813 -0.2484  0.1264
  124ccc     H3 3136   1.489   3.010   6.464  0.7282  1.8438 -0.5797
  124ccc     H4 3137   1.324   2.955   6.452 -1.1062  0.3702  0.7919
  124ccc     C3 3138   1.389   3.123   6.327  0.1925  0.1210  0.5125
  124ccc     H5 3139   1.478   3.187   6.322 -0.7366  1.3639 -0.6391
  124ccc     H6 3140   1.299   3.182   6.307 -0.4913 -0.8133  0.7889
  124ccc     N1 3141   1.398   3.244   6.620 -0.2423  0.2480 -0.0799
  124ccc     H7 3142   1.499   3.229   6.629 -0.0491  1.9161  0.8176
  124ccc     H8 3143   1.372   3.323   6.559  0.6117  0.9239  0.4125
  124ccc     O1 3144   1.403   3.039   6.215  1.2308 -0.1110 -0.0705
  124ccc    H17 3145   1.367   3.282   6.710 -2.6338 -1.5423 -0.0449
  125ccc     C1 3146   2.352   3.060   4.933  0.0550 -0.1973 -0.5295
  125ccc     H1 3147   2.262   3.042   4.992  0.4443  1.1912  0.5404
  125ccc     H2 3148   2.417   2.973   4.934  0.7909  0.3450 -0.3886
  125ccc     C2 3149   2.428   3.186   4.994 -0.1856 -0.1321 -0.1020
  125ccc     H3 3150   2.526   3.187   4.946 -0.7563 -1.1505 -1.3309
  125ccc     H4 3151   2.380   3.282   4.970  0.5081  0.6467  1.5010
  125ccc     C3 3152   2.456   3.193   5.148 -0.5426 -0.3783 -0.4704
  125ccc     H5 3153   2.357   3.195   5.197 -0.2585 -0.8651  0.1298
  125ccc     H6 3154   2.529   3.273   5.166  1.6195 -1.7123 -2.7375
  125ccc     N1 3155   2.307   3.081   4.792  0.3130  0.4202 -0.0414
  125ccc     H7 3156   2.234   3.016   4.759 -0.6307  2.3047 -1.8847
  125ccc     H8 3157   2.273   3.178   4.782  1.6655  1.1084  1.5083
  125ccc     O1 3158   2.531   3.070   5.157 -0.0046 -0.6324 -0.2186
  125ccc    H17 3159   2.378   3.068   4.719  0.4516 -2.6711  0.5343
  126ccc     C1 3160   3.191   2.209   5.460 -0.4003 -0.4164 -1.1735
  126ccc     H1 3161   3.138   2.284   5.519  1.4323  1.2243 -1.4897
  126ccc     H2 3162   3.292   2.213   5.502 -0.3236 -2.8961 -1.0092
  126ccc     C2 3163   3.172   2.254   5.316  0.1598  0.1595 -0.2739
  126ccc     H3 3164   3.247   2.208   5.251 -2.0784  0.4172 -3.2115
  126ccc     H4 3165   3.076   2.214   5.281  0.2133  0.1435 -0.4032
  126ccc     C3 3166   3.176   2.411   5.301  0.4449 -0.4317 -0.0806
  126ccc     H5 3167   3.186   2.448   5.198  2.1237  1.2163  0.6025
  126ccc     H6 3168   3.268   2.447   5.350 -0.0991 -0.2373  0.8386
  126ccc     N1 3169   3.151   2.070   5.500  0.0159 -0.1002 -0.1837
  126ccc     H7 3170   3.195   2.000   5.438  1.8250  0.4236  0.4420
  126ccc     H8 3171   3.179   2.049   5.597 -1.0457  2.6460  0.8276
  126ccc     O1 3172   3.060   2.471   5.371 -0.3126  0.4358  0.0845
  126ccc    H17 3173   3.048   2.062   5.500 -0.1237  1.4418 -0.4852
  127ccc     C1 3174   3.073   0.121  11.124 -0.0498  0.9512  0.3803
  127ccc     H1 3175   3.115   0.214  11.086 -1.2480  0.5432 -2.2042
  127ccc     H2 3176   3.132   0.067  11.199 -1.7969 -1.1516  0.3486
  127ccc     C2 3177   3.068   0.038  10.992  0.0234  0.3399 -0.4980
  127ccc     H3 3178   3.172   0.005  10.979  0.1214 -0.0293  1.0049
  127ccc     H4 3179   3.022  -0.061  11.001 -0.7666  0.7703  0.3636
  127ccc     C3 3180   3.007   0.099  10.872  0.6373  0.0542 -0.1858
  127ccc     H5 3181   3.071   0.185  10.852  2.2567 -0.9216  0.6499
  127ccc     H6 3182   2.909   0.139  10.901 -0.6151 -1.2882 -2.2869
  127ccc     N1 3183   2.936   0.152  11.184  0.1245 -0.7522 -0.2737
  127ccc     H7 3184   2.957   0.196  11.275  1.6401 -0.1983 -0.8475
  127ccc     H8 3185   2.874   0.215  11.131  1.5559  2.1288  1.2399
  127ccc     O1 3186   2.985   0.005  10.758  0.2288 -0.5135  0.0830
  127ccc    H17 3187   2.880   0.071  11.211 -1.5547  0.0857 -1.1234
  128ccc     C1 3188   2.477   0.161  11.066  0.1861  0.1978 -0.3327
  128ccc     H1 3189   2.550   0.123  10.994  0.2448 -0.9532  0.3111
  128ccc     H2 3190   2.501   0.122  11.165  0.8580  0.3756 -0.4179
  128ccc     C2 3191   2.340   0.100  11.031  0.7038 -0.1949  0.0566
  128ccc     H3 3192   2.260   0.134  11.098  1.1578 -0.2561  0.6450
  128ccc     H4 3193   2.307   0.124  10.930  1.4138 -2.0584 -0.6633
  128ccc     C3 3194   2.345  -0.054  11.042  0.4315 -0.3310 -0.1019
  128ccc     H5 3195   2.245  -0.096  11.059  1.2679 -2.2582  0.2342
  128ccc     H6 3196   2.401  -0.073  11.134 -0.1524  0.2121  0.3761
  128ccc     N1 3197   2.473   0.312  11.056 -0.1951  0.3494 -0.2689
  128ccc     H7 3198   2.418   0.353  10.980 -1.3746  2.6907  1.6993
  128ccc     H8 3199   2.420   0.346  11.138  0.3209  0.1465  0.1556
  128ccc     O1 3200   2.410  -0.108  10.927 -0.0245  0.3262  0.5661
  128ccc    H17 3201   2.565   0.358  11.063  0.1706 -0.3057 -0.7627
  129ccc     C1 3202   0.834  -0.569  11.004  0.3319  0.7787 -0.1438
  129ccc     H1 3203   0.881  -0.660  10.965 -0.5465  0.4971 -0.5705
  129ccc     H2 3204   0.822  -0.493  10.928  0.3891  0.8415 -0.0897
  129ccc     C2 3205   0.918  -0.519  11.124  1.0247  0.5252 -0.1454
  129ccc     H3 3206   0.870  -0.433  11.172 -2.1274 -1.1960  0.0551
  129ccc     H4 3207   0.927  -0.609  11.187 -1.2061 -0.5519 -1.2403
  129ccc     C3 3208   1.058  -0.475  11.082  0.4247 -0.2214  0.0960
  129ccc     H5 3209   1.128  -0.560  11.077  0.0566 -0.4902 -0.8120
  129ccc     H6 3210   1.087  -0.398  11.154  0.1571  1.3125 -1.3828
  129ccc     N1 3211   0.700  -0.620  11.029 -0.1597  0.0477  0.1999
  129ccc     H7 3212   0.659  -0.645  10.938 -0.9655 -0.5535  0.7221
  129ccc     H8 3213   0.694  -0.708  11.083  0.1046  0.0573  0.2479
  129ccc     O1 3214   1.059  -0.400  10.963  0.3215 -0.0342 -0.2797
  129ccc    H17 3215   0.640  -0.551  11.076 -1.0533  1.3945 -2.7022
  130ccc     C1 3216   0.691  -0.016  10.450  0.4449 -0.2961 -0.5822
  130ccc     H1 3217   0.669   0.071  10.388 -1.3921 -0.1746  0.1824
  130ccc     H2 3218   0.603  -0.080  10.458  1.6110 -1.9272 -0.0791
  130ccc     C2 3219   0.715   0.047  10.588 -0.0679  0.0942 -0.1275
  130ccc     H3 3220   0.629   0.107  10.621 -1.4109 -2.1093  0.5692
  130ccc     H4 3221   0.727  -0.041  10.652  0.9215 -0.9401 -1.6812
  130ccc     C3 3222   0.840   0.140  10.599 -0.5674  0.1774  0.3074
  130ccc     H5 3223   0.841   0.204  10.689  0.0800  1.7589 -0.7714
  130ccc     H6 3224   0.831   0.208  10.514 -1.3133 -1.8541 -1.3145
  130ccc     N1 3225   0.803  -0.099  10.397 -0.0058 -0.3049  0.5623
  130ccc     H7 3226   0.886  -0.040  10.377  1.8878 -2.5886  1.2033
  130ccc     H8 3227   0.828  -0.177  10.458  1.5671  0.5401  1.0578
  130ccc     O1 3228   0.966   0.055  10.602  0.0957 -0.7391 -0.3439
  130ccc    H17 3229   0.786  -0.147  10.307 -2.2743 -1.4745  1.5452
  131ccc     C1 3230   2.057   1.231  10.403  0.0012  0.4636 -0.2184
  131ccc     H1 3231   2.157   1.187  10.404 -0.3746 -0.4287 -0.7466
  131ccc     H2 3232   2.006   1.224  10.499  0.0378  0.1589 -0.2212
  131ccc     C2 3233   1.964   1.180  10.291  0.2684  0.3856 -0.0584
  131ccc     H3 3234   1.867   1.232  10.287 -0.1271 -0.2584  0.7194
  131ccc     H4 3235   2.009   1.184  10.191  1.3413 -3.0602  0.1727
  131ccc     C3 3236   1.929   1.034  10.321 -0.4283 -0.0680 -0.0197
  131ccc     H5 3237   1.849   1.004  10.252 -0.8465 -1.1685  0.9062
  131ccc     H6 3238   1.873   1.028  10.415 -0.5474 -0.9638 -0.1348
  131ccc     N1 3239   2.080   1.378  10.389 -0.2690 -0.3043  0.6553
  131ccc     H7 3240   2.073   1.416  10.294 -1.5275 -0.4185  0.6846
  131ccc     H8 3241   2.010   1.427  10.447  0.9834  0.6029  1.4409
  131ccc     O1 3242   2.050   0.951  10.319  0.1254  0.0164  0.7081
  131ccc    H17 3243   2.172   1.401  10.430  0.5334 -0.5944 -0.9151
  132ccc     C1 3244   2.929   1.282  10.650  0.5185  0.0406  0.1442
  132ccc     H1 3245   2.893   1.191  10.698  0.1559  0.3090  0.3823
  132ccc     H2 3246   2.889   1.369  10.702  0.3856  1.6364 -2.4736
  132ccc     C2 3247   2.884   1.295  10.500 -0.3285 -0.2853 -0.8854
  132ccc     H3 3248   2.915   1.391  10.459  2.8470  0.0721  1.9052
  132ccc     H4 3249   2.932   1.222  10.433  0.2800 -0.5636 -0.1579
  132ccc     C3 3250   2.729   1.273  10.484  0.3771 -0.3016 -0.0617
  132ccc     H5 3251   2.715   1.283  10.375  2.5515  0.6321 -0.3012
  132ccc     H6 3252   2.672   1.349  10.539 -0.8639 -1.7656  0.7530
  132ccc     N1 3253   3.076   1.273  10.668 -0.4503  0.2765 -0.3569
  132ccc     H7 3254   3.114   1.198  10.607  2.5413  0.9774  0.4940
  132ccc     H8 3255   3.126   1.361  10.649 -0.1709  0.1640 -0.1322
  132ccc     O1 3256   2.681   1.139  10.528  0.0735 -0.6419 -0.1870
  132ccc    H17 3257   3.092   1.243  10.765 -0.3218  1.4316 -0.0103
  133ccc     C1 3258   0.460   0.119  11.167 -0.2406  0.1536 -0.4918
  133ccc     H1 3259   0.418   0.192  11.237  1.6983 -0.2171  1.1216
  133ccc     H2 3260   0.549   0.073  11.209 -0.6899 -1.3479 -1.1151
  133ccc     C2 3261   0.518   0.189  11.042  0.3110  0.4805  0.7150
  133ccc     H3 3262   0.443   0.209  10.965 -1.4748 -2.4894  1.5020
  133ccc     H4 3263   0.555   0.285  11.079 -0.9694  1.3614 -0.1826
  133ccc     C3 3264   0.632   0.108  10.979 -0.0223  0.2802  0.4556
  133ccc     H5 3265   0.659   0.164  10.888  0.2691 -0.8352 -0.1604
  133ccc     H6 3266   0.595   0.012  10.942  2.0347 -0.2670 -0.3485
  133ccc     N1 3267   0.358   0.003  11.135 -0.3333 -0.1973 -0.8786
  133ccc     H7 3268   0.323  -0.042  11.220 -0.6077 -1.0201 -1.4106
  133ccc     H8 3269   0.278   0.041  11.081 -0.9707 -2.0779 -1.3445
  133ccc     O1 3270   0.744   0.105  11.068  0.5386  0.2994  0.8683
  133ccc    H17 3271   0.397  -0.080  11.087  1.8502 -1.3961  2.6048
  134ccc     C1 3272   1.159  -0.591  11.532  0.4159 -0.2222  0.3904
  134ccc     H1 3273   1.207  -0.555  11.440  0.6879 -2.0613 -0.2345
  134ccc     H2 3274   1.051  -0.594  11.526  0.3419  0.4091  1.2913
  134ccc     C2 3275   1.184  -0.502  11.648 -0.3664  0.3206  0.1436
  134ccc     H3 3276   1.148  -0.550  11.740  0.6471 -0.8037 -0.0259
  134ccc     H4 3277   1.292  -0.488  11.655 -0.0885 -1.7569  0.6669
  134ccc     C3 3278   1.099  -0.373  11.642  0.1867 -1.3045 -0.4528
  134ccc     H5 3279   1.123  -0.321  11.736  0.4149 -0.8272 -0.7694
  134ccc     H6 3280   0.992  -0.398  11.635 -0.5735  1.5022 -0.3985
  134ccc     N1 3281   1.226  -0.731  11.545 -0.0511  0.1328 -0.6633
  134ccc     H7 3282   1.327  -0.718  11.535 -0.2843  1.1132 -2.0105
  134ccc     H8 3283   1.205  -0.774  11.637 -1.8946  0.4733 -0.8749
  134ccc     O1 3284   1.126  -0.298  11.516 -0.3887  0.1095  0.3556
  134ccc    H17 3285   1.192  -0.786  11.465  0.3789  2.9886 -2.9773
  135ccc     C1 3286   3.203  -1.403   8.940 -0.3197  0.7614 -0.4578
  135ccc     H1 3287   3.163  -1.432   9.037  0.6161  0.7036 -0.0812
  135ccc     H2 3288   3.304  -1.365   8.953  0.3150 -1.4962  1.9676
  135ccc     C2 3289   3.109  -1.304   8.875  0.0120 -0.2359 -0.8744
  135ccc     H3 3290   3.156  -1.279   8.779  0.0228 -2.3677 -1.4879
  135ccc     H4 3291   3.011  -1.350   8.855  0.2217 -1.5981  0.9859
  135ccc     C3 3292   3.095  -1.180   8.976  0.8665  0.0087 -0.4120
  135ccc     H5 3293   3.064  -1.214   9.075  0.0796 -1.5843 -1.1629
  135ccc     H6 3294   3.012  -1.124   8.932  0.6881  1.8324  2.0390
  135ccc     N1 3295   3.209  -1.533   8.867 -0.1215  0.4997  0.3996
  135ccc     H7 3296   3.141  -1.602   8.903  0.3387  0.3586  1.0227
  135ccc     H8 3297   3.218  -1.526   8.765 -2.1506 -1.5826 -0.0249
  135ccc     O1 3298   3.217  -1.107   8.982 -0.5765 -0.2148 -0.9019
  135ccc    H17 3299   3.299  -1.571   8.901 -0.7385 -1.7459 -0.2914
  136ccc     C1 3300   3.630  -0.435   9.591  0.3286 -0.5042  0.1207
  136ccc     H1 3301   3.593  -0.487   9.680  0.3648  0.5922  0.7840
  136ccc     H2 3302   3.644  -0.330   9.617  1.3844 -0.3301 -1.0992
  136ccc     C2 3303   3.528  -0.463   9.481  0.4280  0.0779 -0.1191
  136ccc     H3 3304   3.531  -0.385   9.403  0.2554 -0.4033 -0.6151
  136ccc     H4 3305   3.538  -0.555   9.422  0.3038  1.2123 -1.9891
  136ccc     C3 3306   3.380  -0.478   9.526 -0.3099  0.1599 -0.2941
  136ccc     H5 3307   3.307  -0.480   9.444 -0.0346  1.2166 -0.5712
  136ccc     H6 3308   3.357  -0.393   9.591 -0.0860  0.0653 -0.0890
  136ccc     N1 3309   3.769  -0.484   9.562 -0.1569  0.1373  1.5644
  136ccc     H7 3310   3.764  -0.579   9.523  0.9779  0.7646 -0.2524
  136ccc     H8 3311   3.808  -0.427   9.485  0.6416  0.1507  1.9673
  136ccc     O1 3312   3.367  -0.605   9.595 -0.0045  0.3053 -0.1695
  136ccc    H17 3313   3.832  -0.476   9.644  1.4803  1.3068  0.2665
  137ccc     C1 3314   2.421  -1.462  10.718  0.4496  0.3120  0.0920
  137ccc     H1 3315   2.320  -1.487  10.687  0.7877  0.0675 -0.8367
  137ccc     H2 3316   2.428  -1.354  10.734 -0.1477 -0.0156  3.0857
  137ccc     C2 3317   2.510  -1.503  10.605 -0.4504 -0.0810 -0.2453
  137ccc     H3 3318   2.613  -1.467  10.620  0.0776 -1.3635 -0.6696
  137ccc     H4 3319   2.520  -1.612  10.599  0.7571  0.0043  0.0316
  137ccc     C3 3320   2.460  -1.443  10.477  1.2009 -0.6334  0.0970
  137ccc     H5 3321   2.363  -1.488  10.454  1.0105  0.4219 -1.2651
  137ccc     H6 3322   2.534  -1.461  10.398  2.2555 -1.2021  1.1878
  137ccc     N1 3323   2.458  -1.519  10.849  0.4372 -0.2299  0.0658
  137ccc     H7 3324   2.548  -1.480  10.881 -0.6744  2.9003 -0.2965
  137ccc     H8 3325   2.383  -1.495  10.915  0.1577  2.7147 -1.1722
  137ccc     O1 3326   2.451  -1.299  10.491 -0.1952  0.1424 -0.4140
  137ccc    H17 3327   2.462  -1.622  10.850 -0.9263 -0.3817 -2.4612
  138ccc     C1 3328   2.250  -0.741  11.039 -0.7920  0.1605  0.0229
  138ccc     H1 3329   2.338  -0.795  11.075 -0.9881  0.3184  0.7519
  138ccc     H2 3330   2.208  -0.796  10.955  1.4404  1.3768 -2.0295
  138ccc     C2 3331   2.302  -0.602  10.998  0.7613 -0.3886  0.2828
  138ccc     H3 3332   2.298  -0.538  11.087 -0.6099  0.0819 -0.0901
  138ccc     H4 3333   2.404  -0.602  10.955 -0.1066 -0.4668 -1.9118
  138ccc     C3 3334   2.207  -0.540  10.888  0.8856  0.2063  0.7275
  138ccc     H5 3335   2.193  -0.432  10.905 -0.8014  0.1592 -0.1843
  138ccc     H6 3336   2.104  -0.575  10.901  0.2621  0.9024 -1.8480
  138ccc     N1 3337   2.159  -0.743  11.160  0.1304  0.2208 -0.1235
  138ccc     H7 3338   2.076  -0.682  11.157  0.1549  0.2265 -0.9970
  138ccc     H8 3339   2.127  -0.839  11.176  0.5395  0.1666  0.4005
  138ccc     O1 3340   2.259  -0.547  10.751 -0.1607  0.7005 -0.5497
  138ccc    H17 3341   2.208  -0.705  11.242  0.0593  0.2947 -0.1144
  139ccc     C1 3342   2.764  -0.789  10.355 -0.0107  0.1005  0.4876
  139ccc     H1 3343   2.662  -0.806  10.320  0.2759 -1.4276  0.3427
  139ccc     H2 3344   2.825  -0.818  10.270  0.0222  2.8836 -0.5554
  139ccc     C2 3345   2.787  -0.645  10.388 -0.3847 -0.4278  0.0191
  139ccc     H3 3346   2.713  -0.612  10.462 -0.5495 -0.1889 -0.2515
  139ccc     H4 3347   2.892  -0.632  10.418 -0.1886 -1.2210 -0.2849
  139ccc     C3 3348   2.776  -0.556  10.259  0.1766 -0.0394  0.3243
  139ccc     H5 3349   2.682  -0.584  10.210  0.4570  1.1272 -0.9559
  139ccc     H6 3350   2.866  -0.584  10.202 -0.0056  1.6587 -0.8950
  139ccc     N1 3351   2.788  -0.889  10.465  0.1211  0.4679 -0.7074
  139ccc     H7 3352   2.766  -0.988  10.447  1.6028 -0.3832  1.7047
  139ccc     H8 3353   2.883  -0.886  10.505 -0.7234  0.3688  1.4553
  139ccc     O1 3354   2.775  -0.410  10.284 -0.6795  0.1413 -0.0382
  139ccc    H17 3355   2.715  -0.866  10.534 -0.5712  0.5599 -1.4526
  140ccc     C1 3356   3.439  -0.862  10.332 -0.9140 -0.4533 -0.4464
  140ccc     H1 3357   3.408  -0.938  10.260 -1.0428 -1.7109  0.8972
  140ccc     H2 3358   3.372  -0.775  10.331  0.1789  0.4157 -1.2395
  140ccc     C2 3359   3.575  -0.812  10.292  0.0110  0.2155 -0.0523
  140ccc     H3 3360   3.606  -0.747  10.374 -0.3816 -0.1524  0.3908
  140ccc     H4 3361   3.654  -0.888  10.295  0.1630  0.3984  0.8139
  140ccc     C3 3362   3.576  -0.733  10.159 -0.2854 -0.4212  0.4736
  140ccc     H5 3363   3.555  -0.803  10.077 -1.9954  0.0296  0.4938
  140ccc     H6 3364   3.683  -0.709  10.157  0.3543 -2.9657 -0.0894
  140ccc     N1 3365   3.437  -0.922  10.474  0.1998  0.0584 -0.0314
  140ccc     H7 3366   3.414  -0.845  10.539 -0.4878  0.7678 -1.0789
  140ccc     H8 3367   3.360  -0.989  10.487  0.1413  0.6715  4.4900
  140ccc     O1 3368   3.490  -0.622  10.161 -0.0625  0.3245 -0.0898
  140ccc    H17 3369   3.528  -0.966  10.496  0.5500  0.4787 -0.5946
  141ccc     C1 3370   3.595  -0.296   8.959 -1.0438 -0.0720  0.8873
  141ccc     H1 3371   3.536  -0.385   8.937 -0.8984 -0.1145  0.6632
  141ccc     H2 3372   3.676  -0.347   9.012  1.8592  1.2284 -1.9797
  141ccc     C2 3373   3.500  -0.197   9.030 -0.5318  0.2611  0.2362
  141ccc     H3 3374   3.574  -0.133   9.079 -0.8959  1.9751 -1.3367
  141ccc     H4 3375   3.440  -0.132   8.965 -0.8492  1.6908  1.8687
  141ccc     C3 3376   3.410  -0.268   9.139 -0.2716  0.1068 -0.0204
  141ccc     H5 3377   3.377  -0.200   9.219  1.4323 -0.5518  1.3045
  141ccc     H6 3378   3.455  -0.359   9.181  1.5047 -0.1487 -2.3165
  141ccc     N1 3379   3.648  -0.248   8.819  0.1921  0.0487  0.3749
  141ccc     H7 3380   3.659  -0.329   8.756  0.4658  0.0699  0.3945
  141ccc     H8 3381   3.585  -0.182   8.773  0.8566 -0.0569 -0.7334
  141ccc     O1 3382   3.282  -0.298   9.073  0.0767  0.2713  0.1109
  141ccc    H17 3383   3.741  -0.204   8.829 -0.0550  0.6481  0.0276
  142ccc     C1 3384   3.131  -0.733   8.044  0.0654 -0.3190 -0.2098
  142ccc     H1 3385   3.192  -0.817   8.079  0.9816  0.7175  0.7676
  142ccc     H2 3386   3.198  -0.652   8.015  0.8576 -0.6868  0.5426
  142ccc     C2 3387   3.035  -0.679   8.152  0.2522  0.1892 -0.0539
  142ccc     H3 3388   2.965  -0.611   8.101  0.0210  0.8099  1.0472
  142ccc     H4 3389   2.982  -0.760   8.203 -1.5874 -0.0971 -2.2963
  142ccc     C3 3390   3.117  -0.602   8.264 -0.1392 -0.3109 -0.4817
  142ccc     H5 3391   3.168  -0.526   8.204  0.9227 -1.4994 -1.1117
  142ccc     H6 3392   3.191  -0.672   8.305  1.7425  1.0642 -1.3722
  142ccc     N1 3393   3.065  -0.790   7.919  0.2254 -0.1007 -0.3437
  142ccc     H7 3394   3.017  -0.876   7.950  2.7993 -1.9943 -1.2328
  142ccc     H8 3395   3.013  -0.719   7.866  1.1918  1.0042  0.1300
  142ccc     O1 3396   3.040  -0.537   8.370 -0.6000 -0.0727  0.2563
  142ccc    H17 3397   3.139  -0.828   7.858  0.2172  0.8857 -0.9829
  143ccc     C1 3398   0.055  -0.695   7.163 -1.0879  0.1866 -0.8063
  143ccc     H1 3399   0.026  -0.607   7.105 -2.6198 -1.0059 -1.9149
  143ccc     H2 3400   0.057  -0.674   7.270  1.4029 -2.5865 -0.1756
  143ccc     C2 3401   0.204  -0.743   7.137 -0.3451  0.0819 -0.0729
  143ccc     H3 3402   0.220  -0.785   7.036 -0.7556  1.5507 -0.7722
  143ccc     H4 3403   0.278  -0.665   7.154  1.4827 -1.4259 -0.7154
  143ccc     C3 3404   0.238  -0.866   7.219 -0.2243  0.4999 -0.5816
  143ccc     H5 3405   0.345  -0.892   7.210 -0.5300 -0.5321 -1.4361
  143ccc     H6 3406   0.187  -0.958   7.190  2.1952 -2.5421  3.5440
  143ccc     N1 3407  -0.037  -0.804   7.118 -0.8073  0.0902 -0.7116
  143ccc     H7 3408  -0.040  -0.887   7.178 -2.0178  0.6337  0.0308
  143ccc     H8 3409  -0.129  -0.757   7.123 -0.9167 -0.1026 -0.9487
  143ccc     O1 3410   0.191  -0.854   7.357  0.2124  0.4748 -0.3646
  143ccc    H17 3411  -0.015  -0.833   7.022  1.1493  0.7356 -0.5168
  144ccc     C1 3412   0.459  -1.404   7.699 -0.6304  0.7157  0.7038
  144ccc     H1 3413   0.481  -1.485   7.629 -1.2601  0.8661  0.3239
  144ccc     H2 3414   0.468  -1.312   7.639 -0.7300  0.0396 -0.3753
  144ccc     C2 3415   0.565  -1.402   7.809  0.1537  0.4485  0.3886
  144ccc     H3 3416   0.565  -1.496   7.865 -0.1670 -1.5197 -2.6313
  144ccc     H4 3417   0.664  -1.402   7.762 -0.5111 -0.2269 -1.0975
  144ccc     C3 3418   0.550  -1.286   7.900  0.6556 -0.0525 -0.6959
  144ccc     H5 3419   0.627  -1.284   7.978 -1.2494  0.5063  1.2751
  144ccc     H6 3420   0.464  -1.300   7.967 -0.1682  2.3066 -1.1584
  144ccc     N1 3421   0.316  -1.415   7.741  0.1842 -0.2032 -0.1397
  144ccc     H7 3422   0.298  -1.355   7.823  0.2220  0.6767 -0.7681
  144ccc     H8 3423   0.237  -1.402   7.676  0.0991  0.1194  0.0260
  144ccc     O1 3424   0.550  -1.154   7.836  0.4521 -0.3447 -0.4720
  144ccc    H17 3425   0.311  -1.513   7.772  1.0435 -0.1902  0.0619
  145ccc     C1 3426  -1.237  -0.859   8.251 -0.2587  0.3853  0.2062
  145ccc     H1 3427  -1.226  -0.827   8.147  0.7211 -0.9953 -0.1575
  145ccc     H2 3428  -1.275  -0.783   8.319 -1.9044 -0.4521  0.2530
  145ccc     C2 3429  -1.100  -0.923   8.296  0.0630 -0.2891 -0.0291
  145ccc     H3 3430  -1.110  -0.993   8.379 -1.5379  0.2563  0.2775
  145ccc     H4 3431  -1.074  -0.974   8.203  0.6308 -1.2521  0.6487
  145ccc     C3 3432  -0.989  -0.807   8.326  0.0946  0.6192 -0.4500
  145ccc     H5 3433  -0.903  -0.850   8.379 -1.3342 -0.7479  0.8727
  145ccc     H6 3434  -1.034  -0.734   8.394 -0.9810  2.0677 -2.6046
  145ccc     N1 3435  -1.350  -0.955   8.241  0.9411 -0.2164  0.6313
  145ccc     H7 3436  -1.336  -1.034   8.177 -1.6321 -2.1054  2.2125
  145ccc     H8 3437  -1.361  -0.999   8.334  1.3804 -0.5164  0.5463
  145ccc     O1 3438  -0.956  -0.742   8.200 -0.2439  0.3138 -0.0350
  145ccc    H17 3439  -1.442  -0.914   8.220  1.6031  0.3612 -1.3577
  146ccc     C1 3440  -1.337   0.057   7.727 -0.0375 -0.0914  0.0342
  146ccc     H1 3441  -1.408   0.140   7.727 -1.1244 -0.9675  0.8358
  146ccc     H2 3442  -1.327   0.015   7.828  0.1530  0.3261  0.1894
  146ccc     C2 3443  -1.204   0.117   7.691  0.5453  0.0609 -0.2853
  146ccc     H3 3444  -1.216   0.155   7.588  0.4537  0.4684 -0.1253
  146ccc     H4 3445  -1.178   0.199   7.759 -1.2651 -1.1949  2.0265
  146ccc     C3 3446  -1.094   0.007   7.696  0.3000 -0.2288 -0.0044
  146ccc     H5 3447  -1.004   0.054   7.656 -0.3303  1.2958  0.2872
  146ccc     H6 3448  -1.121  -0.084   7.642 -2.6869 -0.7435  2.1217
  146ccc     N1 3449  -1.382  -0.051   7.632  0.3571  0.4287  0.3567
  146ccc     H7 3450  -1.462  -0.106   7.667  0.9779 -1.0137 -0.4128
  146ccc     H8 3451  -1.416  -0.005   7.547  1.2603 -0.3371 -0.4337
  146ccc     O1 3452  -1.066  -0.025   7.833  0.2826 -0.0731  0.1334
  146ccc    H17 3453  -1.306  -0.112   7.598  0.3225  1.5396 -1.8364
  147ccc     C1 3454  -1.489   0.660   7.226 -0.3121  0.0039 -0.1483
  147ccc     H1 3455  -1.500   0.732   7.307 -0.4863 -1.1523  0.9097
  147ccc     H2 3456  -1.568   0.585   7.237  1.0852 -1.5863 -0.5602
  147ccc     C2 3457  -1.354   0.581   7.233 -0.4418  0.4675 -0.7139
  147ccc     H3 3458  -1.338   0.518   7.144  0.5021 -1.4763  0.7437
  147ccc     H4 3459  -1.268   0.650   7.231 -0.8805  1.0425  0.0417
  147ccc     C3 3460  -1.345   0.476   7.346 -0.2911 -0.0063 -0.6298
  147ccc     H5 3461  -1.250   0.423   7.361 -1.5057 -2.3173 -0.4875
  147ccc     H6 3462  -1.424   0.401   7.331 -1.2216  0.8309 -0.0078
  147ccc     N1 3463  -1.520   0.727   7.098  0.0102  0.9689 -0.2329
  147ccc     H7 3464  -1.514   0.651   7.029 -1.2442  1.1043 -0.5190
  147ccc     H8 3465  -1.621   0.748   7.105 -0.0912 -0.0527  2.8552
  147ccc     O1 3466  -1.355   0.536   7.472  0.1465  0.7078 -0.1533
  147ccc    H17 3467  -1.465   0.810   7.071  3.3092 -0.9964 -0.0829
  148ccc     C1 3468  -1.159   0.149   8.592 -0.0023  0.5972  0.1884
  148ccc     H1 3469  -1.220   0.225   8.641 -0.0063  1.0681 -0.5396
  148ccc     H2 3470  -1.060   0.191   8.574  0.4735  0.0454  1.4221
  148ccc     C2 3471  -1.222   0.102   8.466  0.2552 -0.0019  1.1248
  148ccc     H3 3472  -1.171   0.014   8.424  0.6306  0.4889  0.5200
  148ccc     H4 3473  -1.320   0.062   8.495  0.8159 -2.3549  0.0330
  148ccc     C3 3474  -1.249   0.209   8.359 -0.0236 -0.3599  0.5348
  148ccc     H5 3475  -1.168   0.280   8.339 -1.4999  1.0182 -0.8079
  148ccc     H6 3476  -1.335   0.269   8.389  0.5516  0.9001 -0.2634
  148ccc     N1 3477  -1.124   0.031   8.681 -0.8535  0.0199  0.3713
  148ccc     H7 3478  -1.056   0.051   8.756 -2.3286 -0.4471  1.9081
  148ccc     H8 3479  -1.208  -0.018   8.715  0.1977 -1.2468  1.2571
  148ccc     O1 3480  -1.274   0.139   8.236  0.5004 -0.3557  0.4833
  148ccc    H17 3481  -1.075  -0.032   8.617 -1.9381  1.4800 -2.0158
  149ccc     C1 3482  -1.053   1.049   9.585  0.1878  0.4493 -0.4361
  149ccc     H1 3483  -0.984   1.027   9.666 -1.8655  0.5810  1.4378
  149ccc     H2 3484  -1.137   0.984   9.610  0.5390 -0.5467 -1.7405
  149ccc     C2 3485  -0.993   0.993   9.454  0.4830 -0.3658  0.4731
  149ccc     H3 3486  -1.077   1.009   9.385  1.2839 -0.7814 -0.6244
  149ccc     H4 3487  -0.907   1.048   9.415  1.1791 -1.3670  0.5679
  149ccc     C3 3488  -0.943   0.854   9.470  0.3007  0.1979  0.3861
  149ccc     H5 3489  -1.027   0.796   9.508  1.1691 -0.5995  1.1445
  149ccc     H6 3490  -0.857   0.847   9.538  1.2690  0.9967 -0.6941
  149ccc     N1 3491  -1.075   1.192   9.589 -0.2105  0.0315  0.3927
  149ccc     H7 3492  -0.992   1.252   9.576  0.5688 -1.5711 -3.0746
  149ccc     H8 3493  -1.140   1.223   9.515 -1.4211 -2.0164  0.5154
  149ccc     O1 3494  -0.910   0.808   9.336  0.0184  0.2809  0.2524
  149ccc    H17 3495  -1.105   1.208   9.686 -0.2174 -0.7916  0.5318
  150ccc     C1 3496  -0.846   1.433   8.825  0.5882 -0.2631 -1.2587
  150ccc     H1 3497  -0.760   1.401   8.884 -0.2323 -1.6847 -0.7822
  150ccc     H2 3498  -0.922   1.478   8.889  1.4281 -1.5043  0.6872
  150ccc     C2 3499  -0.912   1.308   8.762 -0.3863 -0.2975  0.3536
  150ccc     H3 3500  -0.978   1.346   8.683  2.2671  1.5407 -1.1438
  150ccc     H4 3501  -0.833   1.259   8.703 -1.1828  1.4179 -2.3354
  150ccc     C3 3502  -0.979   1.200   8.848  0.9238 -0.4105 -0.2054
  150ccc     H5 3503  -0.990   1.106   8.793  0.2758 -0.8325  0.6167
  150ccc     H6 3504  -1.081   1.235   8.869 -0.4840 -2.5517 -2.8571
  150ccc     N1 3505  -0.811   1.544   8.723 -0.0426  0.5152 -0.0310
  150ccc     H7 3506  -0.731   1.606   8.743 -0.7757  1.5081 -0.0760
  150ccc     H8 3507  -0.780   1.490   8.641 -1.0164  2.4097 -1.7370
  150ccc     O1 3508  -0.903   1.162   8.960 -0.5708 -0.1233  0.1936
  150ccc    H17 3509  -0.897   1.590   8.691 -0.5268  1.2557  2.1530
  151ccc     C1 3510   0.918  -1.989   8.224  1.0874 -0.9227  0.4652
  151ccc     H1 3511   0.967  -1.986   8.321  0.4936  1.5722  0.7612
  151ccc     H2 3512   0.997  -1.996   8.149  1.1116 -1.5890  0.5491
  151ccc     C2 3513   0.842  -1.858   8.214 -0.4826  0.0858 -0.3509
  151ccc     H3 3514   0.791  -1.854   8.118  1.3038 -1.9895 -1.4765
  151ccc     H4 3515   0.769  -1.860   8.297  0.6188  0.2193  0.6538
  151ccc     C3 3516   0.923  -1.735   8.241  0.2099 -0.2854  0.0057
  151ccc     H5 3517   1.023  -1.742   8.196  0.2272 -1.1399  0.1542
  151ccc     H6 3518   0.945  -1.716   8.347 -0.3857  3.3915 -0.3893
  151ccc     N1 3519   0.822  -2.105   8.221 -0.2575  1.0418  0.4308
  151ccc     H7 3520   0.736  -2.090   8.276 -1.6599 -0.8431 -1.0969
  151ccc     H8 3521   0.785  -2.120   8.126 -1.5590 -0.4524  1.1249
  151ccc     O1 3522   0.854  -1.618   8.200  0.3538  0.3035  0.1875
  151ccc    H17 3523   0.863  -2.193   8.255 -0.5176 -0.0376 -1.8502
  152ccc     C1 3524   1.476  -1.221   8.001  0.2785  0.1381 -0.6901
  152ccc     H1 3525   1.404  -1.226   8.083 -0.3168 -0.5774 -1.2404
  152ccc     H2 3526   1.460  -1.122   7.957  1.1631 -0.3192 -2.1169
  152ccc     C2 3527   1.435  -1.332   7.905  0.9803  0.5310  0.6291
  152ccc     H3 3528   1.488  -1.328   7.810 -0.0023  0.9708  0.0836
  152ccc     H4 3529   1.448  -1.432   7.947  0.5862 -0.5767 -1.7382
  152ccc     C3 3530   1.282  -1.313   7.894 -0.0412  0.4523  0.2448
  152ccc     H5 3531   1.231  -1.344   7.986 -3.6140 -2.5137 -2.4631
  152ccc     H6 3532   1.244  -1.378   7.815  0.5635  0.6715 -0.2392
  152ccc     N1 3533   1.622  -1.226   8.038  0.2966  0.1237  0.0767
  152ccc     H7 3534   1.678  -1.207   7.954  0.8351  3.2663  1.0429
  152ccc     H8 3535   1.648  -1.157   8.109  0.7543 -1.8408  1.9384
  152ccc     O1 3536   1.243  -1.171   7.857 -0.4988 -0.0441 -0.1328
  152ccc    H17 3537   1.644  -1.319   8.076  1.1351  0.2863 -0.0076
  153ccc     C1 3538   0.502  -1.537   9.179 -0.1398 -0.1843 -0.0556
  153ccc     H1 3539   0.526  -1.641   9.205 -3.0211 -0.7709  0.6197
  153ccc     H2 3540   0.424  -1.497   9.244 -0.9476 -1.0911 -0.4329
  153ccc     C2 3541   0.464  -1.535   9.035  0.7233 -0.2430 -0.5725
  153ccc     H3 3542   0.421  -1.437   9.012 -1.3174 -0.9179  0.1073
  153ccc     H4 3543   0.549  -1.553   8.967  1.2386  0.2603 -0.0688
  153ccc     C3 3544   0.351  -1.633   9.009 -0.3054  0.3525  0.8103
  153ccc     H5 3545   0.263  -1.594   9.062 -1.1182  1.0281 -0.9630
  153ccc     H6 3546   0.368  -1.733   9.051 -0.7652  0.1497  0.5237
  153ccc     N1 3547   0.617  -1.443   9.208  0.7033  0.4730 -0.4819
  153ccc     H7 3548   0.711  -1.479   9.188  0.9398  1.0149 -0.3668
  153ccc     H8 3549   0.603  -1.349   9.168 -2.9441 -0.0232 -0.6824
  153ccc     O1 3550   0.335  -1.648   8.866 -0.3075  0.4274  0.9826
  153ccc    H17 3551   0.608  -1.423   9.309 -1.3559  1.0305 -0.7311
  154ccc     C1 3552  -0.647  -1.148   8.877 -0.5964  0.1079  0.2903
  154ccc     H1 3553  -0.580  -1.122   8.958 -1.4812  0.7006  0.8527
  154ccc     H2 3554  -0.645  -1.257   8.870 -2.1806  0.0324  0.6537
  154ccc     C2 3555  -0.580  -1.093   8.748  0.0718 -0.3234  0.7189
  154ccc     H3 3556  -0.631  -1.146   8.666 -1.7366 -0.5601  1.9252
  154ccc     H4 3557  -0.589  -0.984   8.741 -0.2343 -0.1913  2.5378
  154ccc     C3 3558  -0.435  -1.134   8.748 -0.5832 -0.2017  0.6959
  154ccc     H5 3559  -0.372  -1.063   8.803 -1.2813 -0.9844  2.5892
  154ccc     H6 3560  -0.391  -1.137   8.647 -0.1266  1.3237  0.8287
  154ccc     N1 3561  -0.786  -1.106   8.902  0.2508  0.2116 -0.5117
  154ccc     H7 3562  -0.847  -1.150   8.832  0.5071 -1.6983  0.4117
  154ccc     H8 3563  -0.825  -1.137   8.992  2.9712  0.5183  0.9004
  154ccc     O1 3564  -0.409  -1.257   8.816  0.2859  0.2109  0.0872
  154ccc    H17 3565  -0.793  -1.003   8.901 -0.1033  0.2133  0.5394
  155ccc     C1 3566   0.552   0.685   9.315 -0.8177 -0.2938 -0.0441
  155ccc     H1 3567   0.526   0.775   9.260  0.9420  2.3966  3.1627
  155ccc     H2 3568   0.661   0.678   9.313 -0.8267 -0.8710  1.0180
  155ccc     C2 3569   0.499   0.551   9.265 -0.1375 -0.3424  0.1633
  155ccc     H3 3570   0.537   0.468   9.326 -0.2926 -0.0052  0.7314
  155ccc     H4 3571   0.391   0.553   9.285 -0.3025 -1.7522 -0.4568
  155ccc     C3 3572   0.519   0.532   9.115 -0.6000  0.2268  0.2743
  155ccc     H5 3573   0.438   0.595   9.076 -1.0595 -0.2560  0.4312
  155ccc     H6 3574   0.485   0.429   9.097  0.8104 -0.2133  0.0435
  155ccc     N1 3575   0.506   0.719   9.459  0.6590 -0.3210  0.2607
  155ccc     H7 3576   0.530   0.639   9.520 -2.5853 -1.3835  0.3712
  155ccc     H8 3577   0.551   0.799   9.506  1.1007 -2.2617  3.4182
  155ccc     O1 3578   0.654   0.558   9.066 -0.4016  0.6342  0.4295
  155ccc    H17 3579   0.404   0.730   9.474  0.5979 -1.3089  0.6378
  156ccc     C1 3580   0.544   1.068   8.404  0.5501 -0.5769  0.3447
  156ccc     H1 3581   0.526   1.163   8.353 -0.7527 -0.7379  0.4729
  156ccc     H2 3582   0.645   1.034   8.380  1.1259  1.2978 -0.0546
  156ccc     C2 3583   0.447   0.954   8.353  0.5251  0.4771 -0.6891
  156ccc     H3 3584   0.343   0.986   8.371  0.3954  0.2942 -1.0935
  156ccc     H4 3585   0.466   0.917   8.251 -0.5221 -0.3548 -0.6054
  156ccc     C3 3586   0.454   0.821   8.433  0.2036 -0.7016 -0.4167
  156ccc     H5 3587   0.382   0.749   8.392 -0.1677  1.1575 -3.2295
  156ccc     H6 3588   0.426   0.872   8.527  0.4508  2.4767 -1.9368
  156ccc     N1 3589   0.542   1.108   8.547  0.7038  0.0238  0.3063
  156ccc     H7 3590   0.597   1.190   8.576  0.9210 -0.6617  1.9609
  156ccc     H8 3591   0.445   1.119   8.579  0.3654 -0.3196 -0.5803
  156ccc     O1 3592   0.591   0.780   8.425 -0.2309 -0.4690 -0.0372
  156ccc    H17 3593   0.574   1.029   8.605 -0.3674 -1.0177 -0.4752
  157ccc     C1 3594   0.745   0.533  10.546  0.3355 -0.3199  0.4938
  157ccc     H1 3595   0.715   0.484  10.639 -1.9218  1.1055  0.6147
  157ccc     H2 3596   0.772   0.466  10.465  1.1979  0.3415  0.2265
  157ccc     C2 3597   0.872   0.623  10.560 -0.2131  0.9020  0.0585
  157ccc     H3 3598   0.871   0.701  10.484 -4.3376  0.1179 -0.9814
  157ccc     H4 3599   0.849   0.668  10.658 -3.4846 -1.2400  0.4647
  157ccc     C3 3600   0.997   0.532  10.563  0.7296 -1.1127  0.4686
  157ccc     H5 3601   0.981   0.465  10.649  1.1736 -0.0512  1.4020
  157ccc     H6 3602   1.083   0.595  10.589 -1.3617  0.8698  3.1128
  157ccc     N1 3603   0.619   0.614  10.510 -0.1815  0.1591  1.1502
  157ccc     H7 3604   0.544   0.551  10.480 -1.3415  1.2451  1.6870
  157ccc     H8 3605   0.583   0.675  10.584 -1.2271  0.9247  0.0425
  157ccc     O1 3606   1.013   0.453  10.443  0.0732 -0.7046 -0.2032
  157ccc    H17 3607   0.639   0.673  10.428 -2.0117 -0.2802  0.3583
  158ccc     C1 3608   1.334   0.633  10.901 -0.1551 -0.7519 -0.0128
  158ccc     H1 3609   1.368   0.572  10.985 -2.4642 -0.6742  1.0645
  158ccc     H2 3610   1.225   0.623  10.902 -0.1344 -1.0584 -0.7882
  158ccc     C2 3611   1.383   0.570  10.767  0.2594 -0.1318  0.2206
  158ccc     H3 3612   1.322   0.618  10.690 -0.4768  1.7463  1.8785
  158ccc     H4 3613   1.485   0.596  10.737 -0.3988  1.0555 -1.0995
  158ccc     C3 3614   1.339   0.419  10.761  0.3329 -0.9300 -0.1216
  158ccc     H5 3615   1.231   0.411  10.746  0.7846 -3.1198 -2.8830
  158ccc     H6 3616   1.368   0.364  10.852  1.4434 -0.1438  0.0341
  158ccc     N1 3617   1.365   0.781  10.927 -0.0691 -0.0564 -0.3251
  158ccc     H7 3618   1.327   0.844  10.855  1.5983  0.6605 -0.6185
  158ccc     H8 3619   1.322   0.807  11.017  0.7876 -2.8000  0.9783
  158ccc     O1 3620   1.408   0.349  10.654 -0.0594  0.1458  0.0533
  158ccc    H17 3621   1.466   0.801  10.931 -0.0180 -0.4994  2.8996
  159ccc     C1 3622   3.082   0.830   7.049 -0.1017 -0.0424 -0.1462
  159ccc     H1 3623   3.105   0.934   7.070  0.3556  0.0167 -0.8755
  159ccc     H2 3624   3.000   0.820   6.978 -1.3848 -0.3068  1.3175
  159ccc     C2 3625   3.044   0.755   7.181 -0.9214  0.3294 -0.0009
  159ccc     H3 3626   2.991   0.668   7.140  1.3662 -1.7884  1.2808
  159ccc     H4 3627   3.136   0.717   7.226 -0.5411  0.1304 -0.9198
  159ccc     C3 3628   2.963   0.840   7.281  0.8968  0.4893 -1.0270
  159ccc     H5 3629   3.011   0.933   7.313 -1.9562  1.3709  1.0909
  159ccc     H6 3630   2.936   0.785   7.372  0.3960  0.9744 -0.8758
  159ccc     N1 3631   3.207   0.765   6.989 -0.6690 -0.2587 -0.5363
  159ccc     H7 3632   3.289   0.822   7.016 -1.8866  1.4490 -0.2583
  159ccc     H8 3633   3.223   0.665   7.005  0.2011  0.2896  2.8873
  159ccc     O1 3634   2.845   0.874   7.223  0.1040 -0.2301  0.4585
  159ccc    H17 3635   3.200   0.761   6.887 -0.8086 -1.0663 -0.4948
  160ccc     C1 3636   2.295   1.382   6.428  0.3467 -0.5791 -0.0054
  160ccc     H1 3637   2.401   1.393   6.404  0.3675  0.2324  0.4462
  160ccc     H2 3638   2.281   1.452   6.510  0.5910 -0.5146 -0.0195
  160ccc     C2 3639   2.252   1.232   6.459  0.1029 -0.7648 -0.6103
  160ccc     H3 3640   2.155   1.234   6.510 -0.6953  0.9379 -2.0502
  160ccc     H4 3641   2.240   1.173   6.368  0.5053 -0.5624 -0.7994
  160ccc     C3 3642   2.365   1.166   6.547  0.6326  0.3162 -0.6354
  160ccc     H5 3643   2.465   1.168   6.500  0.9658 -0.4194  0.0196
  160ccc     H6 3644   2.338   1.062   6.570 -0.3848  0.7169  0.0116
  160ccc     N1 3645   2.221   1.436   6.309  0.1900 -0.2417 -0.0638
  160ccc     H7 3646   2.228   1.372   6.228  1.5113  0.4964 -0.5752
  160ccc     H8 3647   2.121   1.452   6.325  0.7027  0.5654  2.8102
  160ccc     O1 3648   2.359   1.229   6.674 -0.1038 -0.1890 -0.6283
  160ccc    H17 3649   2.263   1.521   6.269 -0.6522  0.7995  1.2115
  161ccc     C1 3650   2.932   1.268   6.706 -0.5426 -0.2706 -0.3098
  161ccc     H1 3651   3.032   1.278   6.749 -0.8160 -1.7712  0.7648
  161ccc     H2 3652   2.912   1.360   6.652 -0.8034 -0.4357 -0.4943
  161ccc     C2 3653   2.835   1.263   6.832  0.2150  0.5938 -0.2920
  161ccc     H3 3654   2.745   1.211   6.796  1.3805 -2.0642  0.3905
  161ccc     H4 3655   2.873   1.200   6.913 -0.0052  0.8453  0.0114
  161ccc     C3 3656   2.812   1.405   6.892 -0.5681  0.2100  0.2622
  161ccc     H5 3657   2.904   1.463   6.876 -1.1733  1.0370 -0.3175
  161ccc     H6 3658   2.789   1.407   6.999 -0.2696 -1.4790  0.3985
  161ccc     N1 3659   2.935   1.138   6.627 -0.1236 -0.4903  0.4649
  161ccc     H7 3660   2.855   1.128   6.563 -1.4824 -0.2146  2.0356
  161ccc     H8 3661   3.018   1.143   6.567  0.6709  0.6654  1.6064
  161ccc     O1 3662   2.691   1.444   6.825 -0.7827  0.0361 -0.6293
  161ccc    H17 3663   2.928   1.051   6.682 -4.6732 -1.1276 -0.7201
  162ccc     C1 3664   3.084   2.080   6.312 -1.3222 -0.3580 -0.1440
  162ccc     H1 3665   3.128   2.174   6.345 -0.6561 -1.0088  0.9118
  162ccc     H2 3666   3.020   2.099   6.227  2.2353  0.0342 -2.9761
  162ccc     C2 3667   3.017   2.017   6.434 -0.0632 -0.1474  0.0506
  162ccc     H3 3668   2.972   1.928   6.387  1.6832  0.4692 -3.0507
  162ccc     H4 3669   3.082   1.974   6.511 -1.0144  1.2693  1.7354
  162ccc     C3 3670   2.910   2.106   6.488  0.5734 -0.3740 -0.8550
  162ccc     H5 3671   2.842   2.129   6.405  0.3255 -1.0329 -0.8470
  162ccc     H6 3672   2.949   2.197   6.535 -1.2507 -0.7850  1.7588
  162ccc     N1 3673   3.193   1.995   6.255  0.4477 -0.0032  0.3327
  162ccc     H7 3674   3.161   1.898   6.239  1.7159 -0.3719 -0.1118
  162ccc     H8 3675   3.224   2.033   6.164 -1.1717  0.3839 -0.0913
  162ccc     O1 3676   2.836   2.037   6.589 -0.1548  0.0120 -0.3164
  162ccc    H17 3677   3.275   1.995   6.317 -0.3743 -0.2612  1.4540
  163ccc     C1 3678   0.077   0.946   7.752 -0.2052  0.4806 -1.0896
  163ccc     H1 3679   0.180   0.931   7.720  1.0573  1.6034  2.0017
  163ccc     H2 3680   0.065   0.890   7.845  0.2449  0.6334 -0.9330
  163ccc     C2 3681  -0.020   0.888   7.649 -0.9254  0.0311 -0.3778
  163ccc     H3 3682  -0.124   0.917   7.670 -0.0999  1.5522  2.1019
  163ccc     H4 3683   0.011   0.933   7.554  1.4680 -0.1486  0.2535
  163ccc     C3 3684  -0.016   0.741   7.619 -0.8096  0.8401 -0.2272
  163ccc     H5 3685  -0.083   0.719   7.535  0.5082  1.3485 -1.4315
  163ccc     H6 3686  -0.055   0.684   7.705  0.8378 -1.0151 -0.6308
  163ccc     N1 3687   0.073   1.095   7.774  0.0748 -0.2098 -0.4047
  163ccc     H7 3688   0.159   1.128   7.821  0.6534 -2.6006  0.3418
  163ccc     H8 3689   0.078   1.142   7.683  0.0080 -0.5967 -0.6119
  163ccc     O1 3690   0.116   0.699   7.587 -0.1866  0.5705 -0.2073
  163ccc    H17 3691  -0.023   1.113   7.808 -0.5616 -1.7297 -1.2804
  164ccc     C1 3692   0.064  -0.106   7.040 -0.0605  0.3530 -0.4366
  164ccc     H1 3693   0.048  -0.002   7.069  0.1913  0.2094  0.2234
  164ccc     H2 3694   0.049  -0.170   7.126 -0.6401  0.6885 -0.2875
  164ccc     C2 3695   0.209  -0.112   6.992  0.4477 -0.4575 -0.4101
  164ccc     H3 3696   0.220  -0.214   6.953  0.7507 -0.5490 -0.0932
  164ccc     H4 3697   0.235  -0.041   6.912  1.5222  0.0966  0.3968
  164ccc     C3 3698   0.307  -0.084   7.099 -0.2328  0.1637  0.0033
  164ccc     H5 3699   0.407  -0.092   7.055  0.1999  0.8403  0.8508
  164ccc     H6 3700   0.301  -0.158   7.180  1.5423  1.0729  1.0133
  164ccc     N1 3701  -0.040  -0.139   6.937  0.3877 -0.7681  0.4433
  164ccc     H7 3702  -0.126  -0.114   6.990  1.1709  1.6705  0.7190
  164ccc     H8 3703  -0.029  -0.077   6.856 -0.3812  0.9875  1.6049
  164ccc     O1 3704   0.284   0.050   7.156  0.0830  0.2465  0.1471
  164ccc    H17 3705  -0.037  -0.237   6.906 -1.2826 -0.1874 -1.7958
  165ccc     C1 3706   2.205   0.184   6.963 -1.0693 -0.0440 -0.0221
  165ccc     H1 3707   2.164   0.169   7.063  0.0880 -0.0825  0.4638
  165ccc     H2 3708   2.300   0.238   6.970 -0.6984 -0.8372  1.5144
  165ccc     C2 3709   2.101   0.263   6.883 -0.5359 -0.3070  0.0647
  165ccc     H3 3710   2.148   0.283   6.786  1.8015 -0.9521  0.9920
  165ccc     H4 3711   2.011   0.206   6.858  0.4603 -1.0484 -2.0783
  165ccc     C3 3712   2.067   0.399   6.948 -0.4665  0.0112 -0.3159
  165ccc     H5 3713   2.102   0.485   6.890  0.8693  0.8742  1.6751
  165ccc     H6 3714   2.104   0.419   7.049 -0.2706  1.8661 -0.7045
  165ccc     N1 3715   2.236   0.050   6.912 -0.5698 -0.1353 -0.0275
  165ccc     H7 3716   2.162  -0.015   6.941  1.6052 -2.4284  0.8013
  165ccc     H8 3717   2.259   0.056   6.811  0.0641 -1.9483 -0.0331
  165ccc     O1 3718   1.926   0.418   6.936  0.0573 -0.2085  0.2428
  165ccc    H17 3719   2.319   0.003   6.952 -2.5293 -0.6056  3.9910
  166ccc     C1 3720   1.002   0.363   6.588  0.0121 -0.4426 -0.2972
  166ccc     H1 3721   1.031   0.305   6.500 -0.9826 -0.2254 -0.7800
  166ccc     H2 3722   1.072   0.445   6.604 -0.8757  0.9371 -2.9858
  166ccc     C2 3723   0.991   0.293   6.726  0.2973 -0.7194  0.4263
  166ccc     H3 3724   0.961   0.369   6.799 -0.4312  0.4538 -1.0408
  166ccc     H4 3725   0.916   0.213   6.721 -0.6571  0.1150  1.0350
  166ccc     C3 3726   1.129   0.234   6.757  0.0223 -0.0273 -0.5515
  166ccc     H5 3727   1.173   0.192   6.666  1.7910  1.0959 -0.2678
  166ccc     H6 3728   1.124   0.169   6.845 -2.9165  0.7010 -0.0941
  166ccc     N1 3729   0.873   0.442   6.547  0.4812 -0.3122  0.0800
  166ccc     H7 3730   0.796   0.376   6.529  0.0398  0.7271 -2.2856
  166ccc     H8 3731   0.840   0.489   6.632  1.9571 -1.1683  1.1609
  166ccc     O1 3732   1.218   0.338   6.800 -0.2009 -0.0260 -0.2814
  166ccc    H17 3733   0.881   0.495   6.459 -0.1590 -1.3161 -0.6089
  167ccc     C1 3734   1.781  -0.867   6.857  0.1735  0.3231  0.3927
  167ccc     H1 3735   1.865  -0.937   6.864  0.1468  0.1821 -0.5889
  167ccc     H2 3736   1.756  -0.852   6.752 -0.4223  0.4022  0.5440
  167ccc     C2 3737   1.822  -0.739   6.930 -0.2496  0.9001  0.3340
  167ccc     H3 3738   1.874  -0.766   7.023  0.5552 -1.4756 -0.7395
  167ccc     H4 3739   1.896  -0.682   6.872 -0.8984  0.0445 -1.3889
  167ccc     C3 3740   1.708  -0.638   6.953  0.1171  0.6443 -0.0190
  167ccc     H5 3741   1.640  -0.685   7.024 -3.0519  1.7642 -2.1120
  167ccc     H6 3742   1.654  -0.632   6.857 -2.3873  0.1335  1.2893
  167ccc     N1 3743   1.660  -0.936   6.926 -0.0025 -0.2870  0.6257
  167ccc     H7 3744   1.582  -0.869   6.930  0.9282  0.8127  0.8258
  167ccc     H8 3745   1.638  -1.026   6.881  0.1408 -1.0725  2.0704
  167ccc     O1 3746   1.749  -0.508   6.996  0.0362 -0.2648 -0.2992
  167ccc    H17 3747   1.684  -0.958   7.024  0.5907 -2.2780  0.0635
  168ccc     C1 3748   1.766   0.268   6.456 -0.6320  0.0096 -0.2936
  168ccc     H1 3749   1.805   0.221   6.546 -0.5886  0.4682 -0.0691
  168ccc     H2 3750   1.821   0.363   6.452 -1.3570  0.7281  3.2049
  168ccc     C2 3751   1.619   0.307   6.457  0.4071  0.0236  0.7779
  168ccc     H3 3752   1.604   0.389   6.528 -0.9307  2.4666 -2.0816
  168ccc     H4 3753   1.588   0.361   6.366  2.1238  0.2107  0.2665
  168ccc     C3 3754   1.518   0.194   6.489  0.3636  0.0831  0.0106
  168ccc     H5 3755   1.508   0.120   6.410  2.2519  0.6004 -0.7662
  168ccc     H6 3756   1.423   0.245   6.509  0.6143  1.2350 -1.5613
  168ccc     N1 3757   1.820   0.193   6.340  0.5955 -0.3400 -0.0696
  168ccc     H7 3758   1.793   0.228   6.247  1.6713  1.5642  0.2935
  168ccc     H8 3759   1.921   0.209   6.337  0.1420  3.4954  0.5445
  168ccc     O1 3760   1.577   0.128   6.603  0.3670 -0.6686 -0.1795
  168ccc    H17 3761   1.801   0.091   6.347  0.0863 -0.1340  2.2762
  169ccc     C1 3762   2.386   0.744   8.450 -0.3154 -0.7057 -1.5527
  169ccc     H1 3763   2.445   0.672   8.392  1.4470 -0.4911 -0.1239
  169ccc     H2 3764   2.283   0.714   8.468 -0.9941  2.1445 -0.2426
  169ccc     C2 3765   2.405   0.882   8.389 -0.1619  0.3071  0.4369
  169ccc     H3 3766   2.341   0.951   8.446 -0.9718 -0.6815  0.7540
  169ccc     H4 3767   2.508   0.913   8.409  0.3373 -2.0662  1.8965
  169ccc     C3 3768   2.357   0.869   8.242 -0.5584 -0.2553  0.1915
  169ccc     H5 3769   2.425   0.794   8.200  0.5899  0.8707 -0.0380
  169ccc     H6 3770   2.382   0.965   8.195 -0.9484  1.0520  2.5227
  169ccc     N1 3771   2.455   0.729   8.587 -0.3825  0.0385  0.0503
  169ccc     H7 3772   2.462   0.627   8.599 -1.0753  0.0900  0.9987
  169ccc     H8 3773   2.548   0.774   8.590  0.1360 -0.9665 -0.5256
  169ccc     O1 3774   2.215   0.851   8.242 -0.1598  0.2333 -0.5205
  169ccc    H17 3775   2.409   0.758   8.674  0.5771 -0.1943  0.6562
  170ccc     C1 3776   1.624   1.578   8.632 -0.1394 -0.0402 -0.2285
  170ccc     H1 3777   1.532   1.610   8.582  0.8029  1.9387 -0.8075
  170ccc     H2 3778   1.707   1.639   8.595 -0.2009  0.3797  0.3124
  170ccc     C2 3779   1.644   1.424   8.606  0.2972 -0.2769  0.1150
  170ccc     H3 3780   1.743   1.386   8.636  0.0750 -1.8178 -0.9905
  170ccc     H4 3781   1.567   1.373   8.665 -1.2564  0.7836 -0.9361
  170ccc     C3 3782   1.603   1.392   8.466 -0.2446 -0.5182  0.9648
  170ccc     H5 3783   1.630   1.481   8.408 -1.7421  0.5742  1.9076
  170ccc     H6 3784   1.495   1.379   8.457 -0.1950 -1.0564  1.0870
  170ccc     N1 3785   1.593   1.608   8.774 -0.0301  0.0845  0.0784
  170ccc     H7 3786   1.498   1.575   8.797 -1.0674  2.6021 -0.2182
  170ccc     H8 3787   1.661   1.567   8.839  0.3763 -1.8092 -1.4510
  170ccc     O1 3788   1.679   1.281   8.411  0.5690 -0.1603  0.0746
  170ccc    H17 3789   1.586   1.708   8.798  1.7251  0.2568 -0.0219
  171ccc     C1 3790   2.939   2.566   8.348 -0.1704  0.2283  0.3971
  171ccc     H1 3791   2.956   2.666   8.309  1.4221  0.1848  0.9264
  171ccc     H2 3792   2.935   2.494   8.266  2.2486  0.6484 -0.1611
  171ccc     C2 3793   2.807   2.549   8.426  0.8705 -0.0501  0.2527
  171ccc     H3 3794   2.790   2.448   8.466 -1.7208  1.0449  2.2297
  171ccc     H4 3795   2.822   2.593   8.526  1.7112  0.1912  0.0300
  171ccc     C3 3796   2.671   2.598   8.358 -0.5538 -0.1208 -0.5341
  171ccc     H5 3797   2.705   2.688   8.305  3.9131 -1.7526 -0.8937
  171ccc     H6 3798   2.596   2.607   8.437 -0.5661  0.9605 -0.6592
  171ccc     N1 3799   3.061   2.523   8.423 -0.6460  0.0606 -0.8153
  171ccc     H7 3800   3.149   2.535   8.372 -0.0957 -0.8929 -0.1321
  171ccc     H8 3801   3.048   2.574   8.512  0.0250  0.3204 -0.8593
  171ccc     O1 3802   2.639   2.504   8.258  0.2398  0.5317 -0.0229
  171ccc    H17 3803   3.054   2.421   8.439  2.4550  0.2692  4.3001
  172ccc     C1 3804   2.723   2.549   7.314  0.2701  0.1947 -0.6351
  172ccc     H1 3805   2.770   2.638   7.356 -0.4948 -0.8711  2.8257
  172ccc     H2 3806   2.615   2.557   7.325  0.5377  0.0848  3.9026
  172ccc     C2 3807   2.766   2.419   7.391 -1.0217  0.1173 -0.2413
  172ccc     H3 3808   2.694   2.341   7.362 -1.3051  1.1778 -2.6320
  172ccc     H4 3809   2.866   2.381   7.370 -0.6164 -0.1748  1.9861
  172ccc     C3 3810   2.770   2.441   7.551  0.1651 -0.4308 -0.1383
  172ccc     H5 3811   2.671   2.478   7.583 -0.6613 -2.2391 -0.4892
  172ccc     H6 3812   2.843   2.518   7.580 -1.1367  0.8564 -0.1587
  172ccc     N1 3813   2.739   2.547   7.167 -0.0031  0.0202 -0.5255
  172ccc     H7 3814   2.682   2.618   7.118  1.2104  1.1797 -0.3204
  172ccc     H8 3815   2.837   2.571   7.149 -0.4909  0.4408 -3.0743
  172ccc     O1 3816   2.804   2.320   7.604 -0.1480  0.9324 -0.0441
  172ccc    H17 3817   2.715   2.453   7.132 -1.2141  0.0166  0.2652
  173ccc     C1 3818   3.387   1.352   6.317  0.5302 -0.1630  0.1913
  173ccc     H1 3819   3.336   1.380   6.225 -1.9832 -2.0899  0.9049
  173ccc     H2 3820   3.380   1.247   6.344  0.2508 -0.1854  0.0351
  173ccc     C2 3821   3.315   1.446   6.424 -0.3079 -0.0599 -0.4892
  173ccc     H3 3822   3.346   1.550   6.412  2.2400 -0.5015  1.2543
  173ccc     H4 3823   3.209   1.452   6.396 -0.7739 -1.4938  0.8189
  173ccc     C3 3824   3.355   1.405   6.571 -0.5561  0.2184  0.0025
  173ccc     H5 3825   3.465   1.411   6.569 -0.5335 -0.1180  0.1213
  173ccc     H6 3826   3.318   1.306   6.599  0.2190 -0.4162 -1.0953
  173ccc     N1 3827   3.527   1.386   6.281 -0.1478 -0.5222 -0.3365
  173ccc     H7 3828   3.589   1.361   6.360 -0.2836  0.3916  0.0712
  173ccc     H8 3829   3.566   1.331   6.203  0.2679  0.3336 -0.7450
  173ccc     O1 3830   3.296   1.508   6.658  0.0261 -0.0321 -0.1832
  173ccc    H17 3831   3.543   1.487   6.264  1.2635 -0.7275 -0.3784
  174ccc     C1 3832   3.509   2.063   6.730 -0.4042 -0.9988  0.1790
  174ccc     H1 3833   3.446   1.976   6.712  0.3237 -1.5423  0.1969
  174ccc     H2 3834   3.518   2.093   6.835  1.2696  1.6710 -0.6429
  174ccc     C2 3835   3.455   2.182   6.660  0.4560 -0.1035 -0.6203
  174ccc     H3 3836   3.501   2.270   6.708 -3.6131  1.7656  0.2379
  174ccc     H4 3837   3.473   2.180   6.552 -2.5097  0.7159 -1.2157
  174ccc     C3 3838   3.302   2.189   6.685 -0.1032  0.0634  0.1575
  174ccc     H5 3839   3.252   2.109   6.629  1.5045 -1.1985  0.4552
  174ccc     H6 3840   3.254   2.279   6.646  1.0244  0.8786  0.6091
  174ccc     N1 3841   3.651   2.031   6.684 -0.2260  0.4262  0.1048
  174ccc     H7 3842   3.710   2.115   6.676 -0.1035  0.6100  2.3812
  174ccc     H8 3843   3.695   1.955   6.736 -0.4287  0.6355  0.5832
  174ccc     O1 3844   3.271   2.186   6.825  0.8015  0.0175  0.6132
  174ccc    H17 3845   3.645   1.995   6.587 -2.4841 -3.9411  1.5910
  175ccc     C1 3846   2.059  -1.404  10.034  0.0343 -0.3821 -0.4073
  175ccc     H1 3847   2.070  -1.467   9.946 -3.6556 -2.2917  0.3013
  175ccc     H2 3848   1.988  -1.326  10.007  0.0788  0.3293  1.4127
  175ccc     C2 3849   2.183  -1.318  10.081  0.5142  0.3106 -0.2485
  175ccc     H3 3850   2.145  -1.259  10.166  1.8317 -1.3655  1.5813
  175ccc     H4 3851   2.253  -1.390  10.123  0.0393 -0.4347 -0.7053
  175ccc     C3 3852   2.247  -1.229   9.974 -0.0587  0.0531 -0.3105
  175ccc     H5 3853   2.180  -1.142   9.974 -2.5565 -1.7687  0.2520
  175ccc     H6 3854   2.243  -1.269   9.872  0.0134  2.1565 -1.1840
  175ccc     N1 3855   1.991  -1.480  10.141  0.1813  0.0556 -0.1478
  175ccc     H7 3856   1.892  -1.497  10.118  0.0567  2.0384 -1.2814
  175ccc     H8 3857   2.036  -1.569  10.167 -2.0608 -0.4430  2.4980
  175ccc     O1 3858   2.373  -1.193  10.014 -0.4685  0.1321  0.3942
  175ccc    H17 3859   1.994  -1.425  10.228  1.7616  1.4404 -1.0170
  176ccc     C1 3860   2.463  -1.095   9.292  0.1140 -0.6411 -0.0859
  176ccc     H1 3861   2.474  -1.032   9.380  0.9444 -1.0957  0.1551
  176ccc     H2 3862   2.458  -1.190   9.345 -0.0054 -0.4664  0.2131
  176ccc     C2 3863   2.588  -1.093   9.208  0.2882 -0.5082 -0.8409
  176ccc     H3 3864   2.585  -1.161   9.121 -3.3619 -1.0642 -0.4371
  176ccc     H4 3865   2.603  -0.993   9.167  2.2795 -0.3175  0.2323
  176ccc     C3 3866   2.712  -1.148   9.284 -0.8459  0.3733 -0.0632
  176ccc     H5 3867   2.805  -1.129   9.229 -0.4086 -0.2413  0.4451
  176ccc     H6 3868   2.713  -1.258   9.291  1.6820  0.3766  0.7243
  176ccc     N1 3869   2.331  -1.068   9.224 -0.3279  0.1776 -0.4930
  176ccc     H7 3870   2.254  -1.074   9.292 -0.8938 -1.6799 -1.2497
  176ccc     H8 3871   2.328  -0.979   9.172  2.1595  1.3073  1.1061
  176ccc     O1 3872   2.717  -1.092   9.418  0.7276  0.6367 -0.2412
  176ccc    H17 3873   2.318  -1.137   9.149  2.1034 -0.8144 -0.0990
  177ccc     C1 3874   1.477  -0.216   8.733 -0.1266 -0.4106 -0.1497
  177ccc     H1 3875   1.495  -0.241   8.837 -2.8948  1.0613  0.7945
  177ccc     H2 3876   1.471  -0.306   8.672 -1.3146  0.6882 -1.7419
  177ccc     C2 3877   1.593  -0.122   8.687 -0.6241  0.1641 -0.4136
  177ccc     H3 3878   1.685  -0.180   8.701 -0.4590  0.6737  0.6900
  177ccc     H4 3879   1.585  -0.101   8.579  0.0908  0.6140 -0.3808
  177ccc     C3 3880   1.607   0.011   8.766  0.3508  0.1464  0.7887
  177ccc     H5 3881   1.526   0.080   8.741  1.2630  1.6122  1.7158
  177ccc     H6 3882   1.705   0.052   8.737  0.1912 -0.6784 -1.0248
  177ccc     N1 3883   1.329  -0.160   8.730 -0.4512 -0.0665  0.8957
  177ccc     H7 3884   1.269  -0.232   8.772 -1.1182  0.4878  0.8931
  177ccc     H8 3885   1.315  -0.069   8.776 -2.9459 -0.2515  0.6247
  177ccc     O1 3886   1.601  -0.016   8.905  0.5334  0.0561 -0.4036
  177ccc    H17 3887   1.309  -0.150   8.629  2.0527 -0.1274  0.3181
  178ccc     C1 3888   1.733  -0.860   9.701  0.0519 -0.0099 -0.2677
  178ccc     H1 3889   1.800  -0.909   9.771  0.8755 -1.7764 -2.2075
  178ccc     H2 3890   1.762  -0.899   9.603 -0.8528  0.4939 -0.7489
  178ccc     C2 3891   1.743  -0.707   9.713 -0.3678 -0.6544  0.1759
  178ccc     H3 3892   1.698  -0.656   9.799  2.5333  3.3068 -0.3246
  178ccc     H4 3893   1.850  -0.682   9.715 -0.5039 -0.0758  2.1335
  178ccc     C3 3894   1.692  -0.634   9.589  0.1229  0.2793  0.4721
  178ccc     H5 3895   1.583  -0.643   9.579  0.2402 -0.2412 -0.4778
  178ccc     H6 3896   1.745  -0.681   9.506  2.2860  0.5876  1.6066
  178ccc     N1 3897   1.593  -0.919   9.739  0.3859 -1.1200  0.2091
  178ccc     H7 3898   1.557  -0.888   9.831 -0.5440  0.1110 -0.5391
  178ccc     H8 3899   1.521  -0.903   9.667  0.7579  2.9243  0.4853
  178ccc     O1 3900   1.723  -0.492   9.598 -0.4085 -0.0026  0.0139
  178ccc    H17 3901   1.617  -1.018   9.754  0.7331 -0.7786  2.1807
  179ccc     C1 3902   1.481  -0.269  10.186  0.0298  0.3543 -0.0023
  179ccc     H1 3903   1.539  -0.284  10.277 -1.3019  1.2092  1.0241
  179ccc     H2 3904   1.539  -0.303  10.100 -0.5309  0.4902 -0.4436
  179ccc     C2 3905   1.460  -0.119  10.163 -0.0221 -0.6973 -0.5034
  179ccc     H3 3906   1.402  -0.100  10.072  1.3987 -0.6291 -1.4302
  179ccc     H4 3907   1.396  -0.082  10.244  0.1395 -2.8120  0.6551
  179ccc     C3 3908   1.599  -0.041  10.144  0.7633 -0.0560 -0.0735
  179ccc     H5 3909   1.583   0.068  10.142  0.1284 -0.0993  1.3732
  179ccc     H6 3910   1.631  -0.079  10.046 -2.3490 -1.3376 -0.7092
  179ccc     N1 3911   1.355  -0.346  10.179  0.1997 -0.1875 -0.4367
  179ccc     H7 3912   1.361  -0.448  10.170 -0.9904 -0.3072 -0.0686
  179ccc     H8 3913   1.309  -0.314  10.265 -0.6915 -2.9490  0.2013
  179ccc     O1 3914   1.693  -0.066  10.252 -0.0626 -0.3719  0.2574
  179ccc    H17 3915   1.295  -0.320  10.099 -1.6205  1.1177  1.2725
  180ccc     C1 3916   1.797  -0.263  11.173 -0.1346  0.5865 -0.3588
  180ccc     H1 3917   1.703  -0.267  11.118  0.9507 -0.6310 -2.2308
  180ccc     H2 3918   1.801  -0.167  11.226 -0.5901  0.3084  0.1911
  180ccc     C2 3919   1.920  -0.275  11.074 -0.1733  0.2544 -0.5036
  180ccc     H3 3920   2.005  -0.328  11.121 -2.3155 -2.3937  0.6758
  180ccc     H4 3921   1.898  -0.338  10.987  0.5320  1.9987 -1.9956
  180ccc     C3 3922   1.952  -0.145  11.008 -0.5103 -0.1671  0.0499
  180ccc     H5 3923   1.984  -0.069  11.081 -1.3997 -0.7274  1.0434
  180ccc     H6 3924   1.870  -0.102  10.950  0.1593 -0.8499 -1.4629
  180ccc     N1 3925   1.802  -0.360  11.291  0.2534  0.3986 -0.0199
  180ccc     H7 3926   1.717  -0.349  11.348 -0.0800  1.1950 -0.6505
  180ccc     H8 3927   1.813  -0.460  11.269 -0.1281  0.7364 -2.0007
  180ccc     O1 3928   2.062  -0.160  10.915  0.0264 -0.4271  0.0931
  180ccc    H17 3929   1.879  -0.329  11.351  0.3757  0.6886 -0.3239
  181ccc     C1 3930   2.516   0.540  11.843  0.6719 -0.1327 -0.0927
  181ccc     H1 3931   2.583   0.624  11.823 -0.5982  0.7220 -0.9127
  181ccc     H2 3932   2.567   0.445  11.830  2.0991  0.5741  0.2149
  181ccc     C2 3933   2.392   0.551  11.745 -0.5090 -0.1408 -1.2345
  181ccc     H3 3934   2.321   0.478  11.784 -0.9024  0.6486 -0.4158
  181ccc     H4 3935   2.339   0.646  11.759  0.8253  0.3295  1.4131
  181ccc     C3 3936   2.419   0.526  11.593 -0.2001 -0.1083  0.2977
  181ccc     H5 3937   2.326   0.553  11.543  1.2282  1.8682 -1.4339
  181ccc     H6 3938   2.445   0.420  11.576 -1.1717 -0.3190  0.0895
  181ccc     N1 3939   2.491   0.553  11.994 -0.2767  0.2836  0.7572
  181ccc     H7 3940   2.586   0.540  12.034  0.1328 -0.8228 -0.5156
  181ccc     H8 3941   2.458   0.646  12.024  1.7287  0.5798  2.3024
  181ccc     O1 3942   2.519   0.616  11.561  0.0023  0.4380 -0.5390
  181ccc    H17 3943   2.429   0.477  12.026 -1.3529  0.8960  0.1762
  182ccc     C1 3944   3.081   1.637  11.379  0.4091  0.6397 -0.9542
  182ccc     H1 3945   3.020   1.651  11.468  1.4745  1.1947 -0.2837
  182ccc     H2 3946   3.015   1.674  11.300 -0.3942  0.8320 -0.2120
  182ccc     C2 3947   3.128   1.487  11.359  0.8125 -0.3010  0.1249
  182ccc     H3 3948   3.196   1.483  11.273  0.9808  0.7315  0.1909
  182ccc     H4 3949   3.175   1.454  11.452  0.2718  1.2774  0.9932
  182ccc     C3 3950   3.005   1.395  11.326 -0.1368  0.3717  0.2717
  182ccc     H5 3951   2.957   1.430  11.233  0.1403  0.3301  0.1115
  182ccc     H6 3952   2.931   1.415  11.404 -1.5680  0.3908 -1.0186
  182ccc     N1 3953   3.196   1.733  11.384  0.1610 -0.7247 -0.2529
  182ccc     H7 3954   3.241   1.732  11.291  1.3089  0.4679  0.2479
  182ccc     H8 3955   3.163   1.830  11.396 -1.9867 -1.6207  1.8427
  182ccc     O1 3956   3.052   1.261  11.320  0.0023 -0.1486 -0.0741
  182ccc    H17 3957   3.253   1.714  11.468 -1.0366 -1.0964  0.4983
  183ccc     C1 3958   2.662   1.483   9.550 -0.3080 -0.4956 -0.1291
  183ccc     H1 3959   2.671   1.501   9.443  0.6736 -1.9427 -0.3085
  183ccc     H2 3960   2.661   1.584   9.592 -0.6725 -0.4157 -0.3277
  183ccc     C2 3961   2.796   1.425   9.598  0.1383  0.2522  0.1889
  183ccc     H3 3962   2.873   1.485   9.546 -2.0912  0.9016 -2.6363
  183ccc     H4 3963   2.817   1.450   9.702  3.0256  1.5740 -0.5855
  183ccc     C3 3964   2.814   1.283   9.549 -0.3803  0.1050 -0.4115
  183ccc     H5 3965   2.921   1.259   9.542 -0.6169 -0.8443 -1.0341
  183ccc     H6 3966   2.764   1.279   9.451 -0.7903  2.0959 -0.3170
  183ccc     N1 3967   2.530   1.417   9.586 -0.0913  0.4119  0.4710
  183ccc     H7 3968   2.518   1.330   9.532  3.0406  0.3449 -0.2782
  183ccc     H8 3969   2.510   1.405   9.687  0.9817 -0.5947  0.5772
  183ccc     O1 3970   2.763   1.189   9.643 -0.0947 -0.0155 -0.2593
  183ccc    H17 3971   2.459   1.486   9.554  0.8145  0.3653 -1.8007
  184ccc     C1 3972   3.351   0.971   9.930  0.4342  0.2970 -0.3454
  184ccc     H1 3973   3.294   0.983   9.838 -1.9908 -1.3412  0.8475
  184ccc     H2 3974   3.452   0.956   9.890 -0.8300  0.2019 -3.8285
  184ccc     C2 3975   3.310   0.846  10.002 -0.0466 -0.6009  0.5230
  184ccc     H3 3976   3.401   0.828  10.062  0.8365 -0.4441 -0.7266
  184ccc     H4 3977   3.229   0.862  10.074  0.0622 -0.3622  0.5941
  184ccc     C3 3978   3.281   0.727   9.914 -0.5621 -0.2031 -0.4643
  184ccc     H5 3979   3.257   0.642   9.978  0.1780  0.0525  0.1663
  184ccc     H6 3980   3.370   0.693   9.859 -0.2770 -1.4228  0.7039
  184ccc     N1 3981   3.327   1.092  10.015 -0.1216  0.0136 -0.1837
  184ccc     H7 3982   3.237   1.095  10.064  0.6193 -1.1465  1.3422
  184ccc     H8 3983   3.400   1.079  10.087  0.8716 -2.3526 -1.5269
  184ccc     O1 3984   3.165   0.754   9.838  0.0310  0.1151  0.1923
  184ccc    H17 3985   3.338   1.173   9.952  1.7962 -1.0072 -1.2391
  185ccc     C1 3986   3.275  -0.014   8.294 -0.1674 -0.9552  0.3139
  185ccc     H1 3987   3.265  -0.055   8.395  1.4213 -0.4057  0.7293
  185ccc     H2 3988   3.190   0.054   8.285  0.5789  0.0771  0.8744
  185ccc     C2 3989   3.277  -0.125   8.188  0.4898  0.4716 -0.4664
  185ccc     H3 3990   3.263  -0.081   8.089  0.3352  0.0804 -0.6187
  185ccc     H4 3991   3.375  -0.175   8.192  0.2419  0.0544  1.2793
  185ccc     C3 3992   3.168  -0.230   8.194  0.0390 -0.1596 -0.8125
  185ccc     H5 3993   3.162  -0.275   8.294  2.0856  0.2150 -0.4657
  185ccc     H6 3994   3.178  -0.308   8.118 -3.3626  0.0016 -1.5750
  185ccc     N1 3995   3.401   0.064   8.293  0.5520 -0.1276  0.2731
  185ccc     H7 3996   3.435   0.095   8.201  3.2917 -1.7232  0.6458
  185ccc     H8 3997   3.380   0.151   8.344  1.6117 -0.7444  1.8310
  185ccc     O1 3998   3.035  -0.171   8.167 -0.2665  0.2657  0.2304
  185ccc    H17 3999   3.478   0.013   8.338 -0.6020 -2.6286 -0.3930
  186ccc     C1 4000   2.491  -0.627   8.475 -0.2284  0.0841  0.1751
  186ccc     H1 4001   2.581  -0.566   8.467 -0.1853 -0.2145 -2.3267
  186ccc     H2 4002   2.418  -0.593   8.401  1.7024 -0.8919 -2.3029
  186ccc     C2 4003   2.429  -0.627   8.621  0.2628 -0.3388  0.3370
  186ccc     H3 4004   2.344  -0.696   8.624  0.0447 -0.0663  0.4675
  186ccc     H4 4005   2.509  -0.656   8.691  1.7099  2.0870 -0.2031
  186ccc     C3 4006   2.384  -0.485   8.663 -0.3888  0.4368  0.1423
  186ccc     H5 4007   2.335  -0.489   8.761 -2.3961 -2.3158 -0.8540
  186ccc     H6 4008   2.310  -0.452   8.589  0.1854 -0.6098 -0.9371
  186ccc     N1 4009   2.540  -0.764   8.432 -0.5203  0.1019  0.8521
  186ccc     H7 4010   2.609  -0.751   8.356 -1.2482 -3.6753 -0.6452
  186ccc     H8 4011   2.599  -0.814   8.501  1.7212  2.9034  1.1789
  186ccc     O1 4012   2.501  -0.393   8.665 -0.6533 -0.4412  0.1341
  186ccc    H17 4013   2.468  -0.822   8.388  0.2626 -0.1526 -0.1417
  187ccc     C1 4014   4.025   0.620   8.968 -0.3023  0.5970  0.2393
  187ccc     H1 4015   3.992   0.648   9.068  0.1383  0.1938  0.5044
  187ccc     H2 4016   3.967   0.679   8.897  0.0223 -0.4255 -0.9105
  187ccc     C2 4017   4.009   0.470   8.948  0.2599 -0.4233 -0.2972
  187ccc     H3 4018   4.030   0.432   8.847 -2.6094 -1.8066 -0.4691
  187ccc     H4 4019   4.075   0.418   9.018  1.5637  1.0772 -0.3477
  187ccc     C3 4020   3.870   0.428   8.971  0.2871  0.5111 -0.6050
  187ccc     H5 4021   3.865   0.321   8.949 -1.4713  0.5218 -0.4014
  187ccc     H6 4022   3.798   0.479   8.906  0.5700  0.1394 -1.2201
  187ccc     N1 4023   4.169   0.670   8.961 -0.0563  0.0083  0.2801
  187ccc     H7 4024   4.166   0.773   8.968 -2.7381  0.1595 -1.4397
  187ccc     H8 4025   4.233   0.630   9.031  0.9173 -0.9184 -1.0863
  187ccc     O1 4026   3.834   0.443   9.116 -0.1671 -0.4717 -0.6608
  187ccc    H17 4027   4.210   0.655   8.867 -0.0249  0.3263  0.2421
  188ccc     C1 4028   3.124   0.841   9.035  0.0366 -0.5070  0.7954
  188ccc     H1 4029   3.197   0.764   9.059 -0.0471 -0.9135 -0.2198
  188ccc     H2 4030   3.160   0.943   9.018 -0.1367 -0.0751  2.7074
  188ccc     C2 4031   3.032   0.838   9.158  0.2178 -0.3924 -0.4616
  188ccc     H3 4032   2.962   0.922   9.150  0.0920 -0.2125  1.8490
  188ccc     H4 4033   2.974   0.746   9.171  0.8807 -0.5536  1.8372
  188ccc     C3 4034   3.115   0.868   9.287  0.3591  0.1544  0.3527
  188ccc     H5 4035   3.047   0.891   9.370  0.3608  2.2933 -0.1856
  188ccc     H6 4036   3.185   0.951   9.272  0.2173  0.5450  1.6592
  188ccc     N1 4037   3.043   0.799   8.918 -0.6143 -0.4095  0.5252
  188ccc     H7 4038   3.001   0.705   8.928 -0.7140 -0.3029  1.1475
  188ccc     H8 4039   2.958   0.857   8.911  0.1379  0.6231 -0.2405
  188ccc     O1 4040   3.191   0.742   9.303 -0.1776  0.4231  0.2443
  188ccc    H17 4041   3.082   0.811   8.824 -2.0579  1.2847  0.1024
  189ccc     C1 4042   3.805  -0.422  10.149 -1.1769 -0.8891 -1.0703
  189ccc     H1 4043   3.752  -0.337  10.107  0.0797  0.1529 -0.6020
  189ccc     H2 4044   3.742  -0.505  10.182 -1.2880 -0.8654 -1.2204
  189ccc     C2 4045   3.882  -0.381  10.279  0.6986 -0.4213 -0.1345
  189ccc     H3 4046   3.963  -0.443  10.320  1.3044  1.2154  1.2945
  189ccc     H4 4047   3.927  -0.285  10.251 -0.2036 -0.1516 -0.7075
  189ccc     C3 4048   3.787  -0.356  10.399 -0.3131 -0.6244  0.3508
  189ccc     H5 4049   3.849  -0.300  10.470  0.5081  0.2143 -0.9700
  189ccc     H6 4050   3.756  -0.456  10.433 -1.5527 -0.2320  0.4166
  189ccc     N1 4051   3.884  -0.483  10.039 -0.1725  0.2128 -0.3631
  189ccc     H7 4052   3.941  -0.564  10.071 -1.5748 -0.2763  1.0229
  189ccc     H8 4053   3.822  -0.517   9.964 -1.1058 -1.2167  0.9983
  189ccc     O1 4054   3.672  -0.278  10.374  0.4078 -0.6828 -0.6533
  189ccc    H17 4055   3.949  -0.413  10.000 -0.3658  1.6235  1.7099
  190ccc     C1 4056   3.384  -0.653  11.320 -0.5373  0.0266  0.3009
  190ccc     H1 4057   3.348  -0.744  11.271 -5.0784  0.7863  1.7813
  190ccc     H2 4058   3.433  -0.657  11.418  2.0727  3.8762 -0.5959
  190ccc     C2 4059   3.262  -0.556  11.326  0.3154  0.7909  0.2263
  190ccc     H3 4060   3.191  -0.596  11.400  0.8803 -0.1433  0.2881
  190ccc     H4 4061   3.302  -0.462  11.364  0.5403  1.3853 -1.4186
  190ccc     C3 4062   3.187  -0.536  11.194 -0.3091 -0.3569  0.0908
  190ccc     H5 4063   3.087  -0.499  11.219  0.2428  1.7224 -0.5683
  190ccc     H6 4064   3.169  -0.630  11.141 -2.4625  0.7447 -1.2391
  190ccc     N1 4065   3.501  -0.612  11.230  0.0344  0.0132  0.1872
  190ccc     H7 4066   3.473  -0.591  11.133 -0.0678 -1.6301 -0.1678
  190ccc     H8 4067   3.536  -0.524  11.271  0.3037 -0.0786  0.1524
  190ccc     O1 4068   3.262  -0.457  11.102 -0.3976 -0.2628 -0.2323
  190ccc    H17 4069   3.578  -0.680  11.232 -0.1560 -0.2775 -1.3724
  191SOL     OW 4070   6.694   7.180   8.079 -0.0718 -0.1013  0.1101
  191SOL    HW1 4071   6.607   7.199   8.114 -0.6016 -0.7982 -0.7743
  191SOL    HW2 4072   6.741   7.137   8.151  0.4474  2.5284  1.4416
  192SOL     OW 4073   1.731  10.045   9.377 -0.6395 -0.4040 -0.0235
  192SOL    HW1 4074   1.639  10.067   9.361 -0.9220  0.3748  2.1918
  192SOL    HW2 4075   1.734   9.950   9.372 -1.2443 -0.3703 -1.4771
  193SOL     OW 4076   9.947   5.939   7.528 -0.3951  0.2661  0.2929
  193SOL    HW1 4077  10.023   5.966   7.475 -0.0323 -0.1785  0.5866
  193SOL    HW2 4078   9.943   5.844   7.518 -2.2482  0.4674 -1.5111
  194SOL     OW 4079   5.328   5.088   6.634 -0.0929  0.4164 -0.0976
  194SOL    HW1 4080   5.332   5.007   6.584 -2.1205 -0.5612  1.1913
  194SOL    HW2 4081   5.301   5.154   6.571 -2.0167 -0.6630 -0.4788
  195SOL     OW 4082   5.771   2.861   4.902  0.2885 -0.2840  0.7222
  195SOL    HW1 4083   5.691   2.819   4.935 -1.7305  4.0814  2.2504
  195SOL    HW2 4084   5.834   2.852   4.974 -0.0405 -0.7827  0.9561
  196SOL     OW 4085   7.993   7.431   4.167  0.1310  0.2424  0.5514
  196SOL    HW1 4086   8.007   7.446   4.074 -1.3237  0.3194  0.3164
  196SOL    HW2 4087   7.938   7.352   4.171  1.8907 -1.0002  1.4518
  197SOL     OW 4088   8.842   0.531   7.867  0.3396 -0.5999  0.2821
  197SOL    HW1 4089   8.812   0.581   7.791 -0.4941 -2.0172 -0.3511
  197SOL    HW2 4090   8.937   0.545   7.868  0.2993 -0.1195 -0.6891
  198SOL     OW 4091   2.660   7.094   1.690 -1.0962  0.1131  0.0195
  198SOL    HW1 4092   2.567   7.101   1.713 -0.8897  0.7304  0.6977
  198SOL    HW2 4093   2.703   7.161   1.743  0.0552 -1.6451  1.4339
  199SOL     OW 4094   3.689   9.915   6.649  0.0242 -0.5199 -0.3037
  199SOL    HW1 4095   3.734   9.832   6.637  2.2992  0.2550  2.0501
  199SOL    HW2 4096   3.603   9.891   6.684  0.0108 -1.9100 -1.2426
  200SOL     OW 4097   1.566   3.410   2.540 -0.0349 -0.0364  0.4714
  200SOL    HW1 4098   1.609   3.407   2.626 -1.6177  1.3469  1.3850
  200SOL    HW2 4099   1.483   3.364   2.553  0.9294 -2.4671 -1.1967
  201SOL     OW 4100   5.398   2.920   2.394 -0.1700 -0.9209 -0.0812
  201SOL    HW1 4101   5.318   2.876   2.424  0.3531 -2.5199 -0.9033
  201SOL    HW2 4102   5.381   2.938   2.302 -0.1681  0.1689  0.1244
  202SOL     OW 4103   8.785   3.878   5.182 -0.8557  0.2965 -0.0178
  202SOL    HW1 4104   8.814   3.954   5.232  0.2355 -0.9236  1.2781
  202SOL    HW2 4105   8.814   3.803   5.233 -1.2447 -1.0111 -1.6327
  203SOL     OW 4106   4.805   8.021   8.741 -0.2164  0.2457  0.5871
  203SOL    HW1 4107   4.761   8.106   8.749 -0.6537  0.2599 -1.3498
  203SOL    HW2 4108   4.826   8.014   8.648  3.4398 -0.0223  1.2795
  204SOL     OW 4109   0.636   1.847   4.099 -0.1033  0.4855  0.6373
  204SOL    HW1 4110   0.574   1.918   4.113  0.9734  1.8987 -1.2597
  204SOL    HW2 4111   0.695   1.880   4.031 -1.1215 -3.2115 -2.3557
  205SOL     OW 4112   3.067   3.020   9.259  0.1088  0.1915  0.1182
  205SOL    HW1 4113   3.068   3.017   9.163 -1.1608  0.4949  0.0741
  205SOL    HW2 4114   3.094   2.933   9.287  1.1805  0.3036 -0.4896
  206SOL     OW 4115   9.460   1.054   9.617 -0.6580 -0.4284  0.5618
  206SOL    HW1 4116   9.374   1.080   9.585  0.0500  0.5416 -0.6287
  206SOL    HW2 4117   9.485   1.122   9.680 -0.3391 -0.1370  0.1313
  207SOL     OW 4118   8.468   9.995   1.428 -0.1233  0.3838  0.0339
  207SOL    HW1 4119   8.480   9.945   1.509  2.3891  0.4823 -0.1923
  207SOL    HW2 4120   8.455   9.928   1.361  1.4350  0.0687  0.0089
  208SOL     OW 4121   2.687   4.762   2.435 -0.2409 -0.5252  0.3882
  208SOL    HW1 4122   2.665   4.739   2.345 -0.0740  1.2004 -0.1427
  208SOL    HW2 4123   2.640   4.844   2.450  2.2992  0.9677  0.7068
  209SOL     OW 4124   8.583   1.045   4.839  0.0205 -0.7395  0.0300
  209SOL    HW1 4125   8.618   1.133   4.851 -0.7472 -0.2558 -1.1282
  209SOL    HW2 4126   8.597   1.002   4.923  3.5108 -0.6434 -0.3255
  210SOL     OW 4127   8.015   0.849   0.856 -0.0666  0.6616 -0.4871
  210SOL    HW1 4128   7.974   0.778   0.905 -0.2669 -0.5894 -2.3589
  210SOL    HW2 4129   8.079   0.887   0.917 -0.0967 -0.9863  0.6315
  211SOL     OW 4130   5.065  10.312   9.868 -0.8811 -0.1911 -0.3977
  211SOL    HW1 4131   5.160  10.327   9.863 -0.3087 -2.2915  2.1968
  211SOL    HW2 4132   5.035  10.322   9.777  2.1136 -1.2370 -1.6333
  212SOL     OW 4133   7.587   4.165   5.621  0.2086 -0.4016 -0.5382
  212SOL    HW1 4134   7.599   4.195   5.711 -0.0042 -1.0559 -0.2875
  212SOL    HW2 4135   7.639   4.226   5.569 -2.7987  2.5663 -0.4523
  213SOL     OW 4136   0.906   8.253   5.284 -0.1366  0.4161  0.3656
  213SOL    HW1 4137   0.978   8.293   5.333  0.4422 -0.7827  0.5187
  213SOL    HW2 4138   0.872   8.325   5.230 -0.4126  1.6193  2.0618
  214SOL     OW 4139   8.942   7.334   4.151 -0.7723  0.0395  0.6887
  214SOL    HW1 4140   8.994   7.372   4.080 -0.7906 -0.9242  0.1413
  214SOL    HW2 4141   8.855   7.371   4.139 -1.2066 -1.3244 -0.8130
  215SOL     OW 4142   4.704   3.084   0.751 -1.0363  0.0301  0.0347
  215SOL    HW1 4143   4.725   3.025   0.823 -0.1932  1.2228  0.7913
  215SOL    HW2 4144   4.608   3.089   0.751 -1.0341  0.7938  1.7466
  216SOL     OW 4145   6.159   2.256   6.693 -0.2153  0.0675 -0.0093
  216SOL    HW1 4146   6.094   2.187   6.691  1.5278 -1.7019  1.1144
  216SOL    HW2 4147   6.236   2.217   6.735  0.6396  2.8613  1.3629
  217SOL     OW 4148   4.970   7.076  10.308 -0.5038  0.3488  0.1952
  217SOL    HW1 4149   5.000   7.165  10.287  0.6919  0.0152  0.4484
  217SOL    HW2 4150   4.980   7.028  10.226  0.7776 -0.0460  0.5548
  218SOL     OW 4151   7.387   9.638   6.209 -0.8337 -0.1390 -0.3104
  218SOL    HW1 4152   7.294   9.626   6.188 -0.2981 -3.6134 -1.3873
  218SOL    HW2 4153   7.400   9.587   6.290 -0.0571  1.3849  0.5731
  219SOL     OW 4154   4.461   4.266   9.684  0.2494 -0.0260  0.0336
  219SOL    HW1 4155   4.433   4.176   9.668 -0.2139  0.0277  0.4988
  219SOL    HW2 4156   4.390   4.320   9.651  0.5336  0.1721 -0.2594
  220SOL     OW 4157   8.490   8.357   4.491 -0.2624 -0.4912  0.0396
  220SOL    HW1 4158   8.501   8.287   4.426 -1.0052 -1.3205  0.7834
  220SOL    HW2 4159   8.529   8.434   4.449 -0.3415 -1.1013 -1.2181
  221SOL     OW 4160   9.430   0.222   4.473  0.4496  0.4231 -0.4506
  221SOL    HW1 4161   9.480   0.270   4.539  0.2100 -0.6705  0.5435
  221SOL    HW2 4162   9.489   0.153   4.444 -0.0196 -0.0862 -0.2056
  222SOL     OW 4163   9.116  10.327   6.493  0.7396  0.4780 -0.5427
  222SOL    HW1 4164   9.132  10.420   6.477 -1.1277  0.6021 -1.9978
  222SOL    HW2 4165   9.072  10.325   6.578 -0.1485  1.0587 -0.9670
  223SOL     OW 4166   8.983   5.711   8.478  0.6095  0.1399  0.0196
  223SOL    HW1 4167   9.024   5.744   8.558  0.3018 -0.4679  0.4359
  223SOL    HW2 4168   8.939   5.787   8.441  0.3938  0.3364  0.6560
  224SOL     OW 4169   7.055   5.899   3.278 -0.0238  0.7237 -0.4240
  224SOL    HW1 4170   7.080   5.836   3.210 -0.9739  0.2018 -0.3111
  224SOL    HW2 4171   7.134   5.951   3.293  0.5716  0.0186 -1.0261
  225SOL     OW 4172   5.347   2.823   1.670 -0.4171 -0.1440 -0.7083
  225SOL    HW1 4173   5.297   2.747   1.641 -0.0052 -0.4786 -0.5511
  225SOL    HW2 4174   5.434   2.810   1.631 -0.2970  0.1620 -0.5437
  226SOL     OW 4175   9.421  10.850   6.580 -0.2735 -0.4135  0.2719
  226SOL    HW1 4176   9.503  10.801   6.588  0.5117  0.7852 -0.1112
  226SOL    HW2 4177   9.422  10.883   6.490  0.1070  1.7801  1.0346
  227SOL     OW 4178  10.864   6.164   7.360  0.5935  0.4988 -0.0686
  227SOL    HW1 4179  10.871   6.101   7.432  0.1073  0.2612 -0.2262
  227SOL    HW2 4180  10.848   6.248   7.403  2.0387  0.6757  0.1898
  228SOL     OW 4181   7.114   3.075   9.630 -0.2600  0.1973 -0.3835
  228SOL    HW1 4182   7.064   3.135   9.686  0.6032 -0.2434  0.8905
  228SOL    HW2 4183   7.068   2.992   9.637 -0.9709  0.4612 -1.4970
  229SOL     OW 4184   4.193   7.944   8.237 -0.4608  0.1282  0.1993
  229SOL    HW1 4185   4.215   7.851   8.227 -0.8402 -0.1457  1.6405
  229SOL    HW2 4186   4.103   7.950   8.205 -0.7858 -0.2210  1.0075
  230SOL     OW 4187   0.802  10.652  10.556  0.1155 -0.0235 -0.4062
  230SOL    HW1 4188   0.752  10.651  10.637 -0.1438 -0.9363 -0.5592
  230SOL    HW2 4189   0.785  10.566  10.516  1.1433 -0.0427 -0.8575
  231SOL     OW 4190   9.925   3.271   8.376  0.1443  0.0873 -0.2765
  231SOL    HW1 4191   9.854   3.208   8.382 -0.7518  1.0475 -0.3891
  231SOL    HW2 4192   9.897   3.343   8.433  1.0895  0.4301 -0.2318
  232SOL     OW 4193   7.562   5.311   8.192  0.0153  0.2367  0.5007
  232SOL    HW1 4194   7.620   5.253   8.241  1.3857  0.9752 -0.2041
  232SOL    HW2 4195   7.613   5.391   8.178 -1.2100  0.9612 -0.0493
  233SOL     OW 4196   4.176   8.155   7.606  0.2114  0.4574 -0.1920
  233SOL    HW1 4197   4.149   8.227   7.662  1.5101  0.1332  0.8900
  233SOL    HW2 4198   4.141   8.076   7.648  1.1082  0.2232  0.1477
  234SOL     OW 4199   4.056   8.029   1.908  0.1385  0.0039  0.2258
  234SOL    HW1 4200   4.069   8.107   1.855 -1.1116 -0.4745 -0.8333
  234SOL    HW2 4201   4.005   8.059   1.983 -0.8261  0.1216 -0.4621
  235SOL     OW 4202   9.021   2.734   2.360  0.8845  0.3839 -0.4314
  235SOL    HW1 4203   9.099   2.708   2.311  0.4376 -0.3072 -0.7977
  235SOL    HW2 4204   9.040   2.824   2.389  1.4833  0.5271 -1.2098
  236SOL     OW 4205   7.249   2.549   0.688 -0.0951  1.0325 -0.1832
  236SOL    HW1 4206   7.316   2.577   0.626  1.7241  0.4352  1.4198
  236SOL    HW2 4207   7.224   2.629   0.735  0.9092  0.9689  0.4916
  237SOL     OW 4208  10.654   4.151   0.505 -0.0981  0.1689 -0.3446
  237SOL    HW1 4209  10.714   4.226   0.499  1.0054 -0.7840 -1.7815
  237SOL    HW2 4210  10.708   4.080   0.539 -0.5838 -0.5280 -1.0100
  238SOL     OW 4211   3.419   6.479   7.027 -0.2811  0.0742 -0.3157
  238SOL    HW1 4212   3.493   6.513   6.976  0.7933  0.8508  1.6319
  238SOL    HW2 4213   3.368   6.557   7.050  0.3895  0.0413  1.4421
  239SOL     OW 4214   4.539   7.764   8.164  0.2989  0.2434  0.0692
  239SOL    HW1 4215   4.548   7.701   8.235  1.9396 -0.1632 -0.4564
  239SOL    HW2 4216   4.470   7.728   8.108 -0.1988 -0.0121  0.8295
  240SOL     OW 4217   4.585   0.092   3.343  0.0166 -0.4557 -0.1265
  240SOL    HW1 4218   4.515   0.064   3.402  0.0340 -0.2741 -0.0193
  240SOL    HW2 4219   4.662   0.101   3.398 -0.1499  0.4688 -0.0295
  241SOL     OW 4220   4.696   8.684   2.783 -0.3793 -0.1780 -0.0621
  241SOL    HW1 4221   4.671   8.600   2.744 -2.9211 -0.1720  1.3701
  241SOL    HW2 4222   4.776   8.665   2.831 -0.9223 -1.8227  0.2631
  242SOL     OW 4223   3.266   7.549   5.249  0.2652 -0.3426  0.2610
  242SOL    HW1 4224   3.234   7.572   5.336  1.6572  0.7761  0.5134
  242SOL    HW2 4225   3.325   7.620   5.225  0.9313 -1.2840 -1.0523
  243SOL     OW 4226   0.855  10.568   6.567 -0.4628  0.0328  0.1290
  243SOL    HW1 4227   0.795  10.506   6.525  0.7526 -1.3474  0.3278
  243SOL    HW2 4228   0.868  10.532   6.655  0.3748  0.4959  0.2048
  244SOL     OW 4229   2.707   9.525   7.706  0.2788 -0.0629 -0.5439
  244SOL    HW1 4230   2.675   9.441   7.673 -0.7179 -0.9599  2.4370
  244SOL    HW2 4231   2.801   9.512   7.716  0.1748 -0.7260 -0.3849
  245SOL     OW 4232   5.053   0.143  10.872 -0.0873 -0.1378  0.5897
  245SOL    HW1 4233   5.124   0.194  10.832  1.2747 -1.3947  1.3059
  245SOL    HW2 4234   5.006   0.206  10.927 -1.0225  1.2584 -1.6688
  246SOL     OW 4235   6.637   5.102   4.817  0.2987  0.2440 -0.2298
  246SOL    HW1 4236   6.681   5.031   4.864  0.7489  0.7103  0.0592
  246SOL    HW2 4237   6.675   5.182   4.853 -1.5325  0.7181  0.8093
  247SOL     OW 4238   6.876   7.878   8.464 -0.4311  0.9930 -0.0796
  247SOL    HW1 4239   6.835   7.799   8.500 -1.6362  1.8423  0.4814
  247SOL    HW2 4240   6.872   7.866   8.369  1.3438 -0.5546 -0.0190
  248SOL     OW 4241  10.723   1.397   2.209 -0.2464  0.3768 -0.5547
  248SOL    HW1 4242  10.662   1.323   2.200  1.3797 -1.3209  1.3202
  248SOL    HW2 4243  10.668   1.469   2.239 -1.4003 -1.1145  1.1803
  249SOL     OW 4244   0.591   7.163   1.708  0.4784 -0.0754  0.4829
  249SOL    HW1 4245   0.539   7.242   1.696  0.0362 -0.3731  0.3991
  249SOL    HW2 4246   0.665   7.174   1.649 -0.1211 -0.1838 -0.3090
  250SOL     OW 4247   3.178   0.822   0.620 -0.1149 -0.4051  0.3161
  250SOL    HW1 4248   3.134   0.739   0.632  1.0827 -0.8321  2.2110
  250SOL    HW2 4249   3.233   0.832   0.698  1.4376  1.1200 -0.8877
  251SOL     OW 4250  10.636   0.080  10.853 -0.3663 -0.1379  0.0646
  251SOL    HW1 4251  10.555   0.131  10.843 -1.6703 -2.3005 -1.1275
  251SOL    HW2 4252  10.663   0.061  10.764  1.7839  0.9366  0.4360
  252SOL     OW 4253   1.310   7.316   6.994 -0.1808 -0.0090  0.2049
  252SOL    HW1 4254   1.256   7.264   6.934 -0.0349  0.6646 -0.5307
  252SOL    HW2 4255   1.341   7.253   7.059 -0.8162 -0.6462 -0.0916
  253SOL     OW 4256   9.188  10.743   6.681  0.0517  0.1632  0.4395
  253SOL    HW1 4257   9.145  10.798   6.747  2.3767 -0.3963  2.5640
  253SOL    HW2 4258   9.262  10.795   6.651 -0.7155  0.2199 -1.4851
  254SOL     OW 4259  10.156   2.262   2.848  0.3629  0.3889  0.0951
  254SOL    HW1 4260  10.185   2.343   2.890 -2.2781  1.3417  0.2742
  254SOL    HW2 4261  10.111   2.291   2.769  0.7623 -1.0517 -0.6939
  255SOL     OW 4262   8.349   3.694   8.221 -0.6140  0.1440  0.4101
  255SOL    HW1 4263   8.299   3.716   8.142 -1.0276  1.5654  1.0372
  255SOL    HW2 4264   8.333   3.600   8.234 -0.7747 -0.0403 -1.0258
  256SOL     OW 4265   9.925   9.851   2.856 -0.0973  0.3095 -0.3959
  256SOL    HW1 4266   9.945   9.884   2.768  3.7775  0.9771  0.5205
  256SOL    HW2 4267   9.918   9.930   2.909 -1.2168 -0.1237  0.1223
  257SOL     OW 4268   7.728   4.814   6.269  0.1948 -0.0199 -0.0662
  257SOL    HW1 4269   7.715   4.905   6.297 -1.2653  0.2528 -1.4690
  257SOL    HW2 4270   7.772   4.772   6.343  0.3400  1.6740  0.8574
  258SOL     OW 4271   9.092   1.359   5.957 -0.1287 -0.9643 -0.6310
  258SOL    HW1 4272   9.143   1.326   5.882 -0.4900  0.3604 -1.4896
  258SOL    HW2 4273   9.156   1.409   6.008 -0.5943  1.1756 -2.0062
  259SOL     OW 4274   7.552   9.948   5.023  0.1536 -0.4797  0.3348
  259SOL    HW1 4275   7.582   9.954   4.932  0.3969 -0.8805  0.3848
  259SOL    HW2 4276   7.464   9.985   5.022  0.5067  0.3843  0.1106
  260SOL     OW 4277   7.200   2.468   3.350 -0.6027 -0.1180 -1.0250
  260SOL    HW1 4278   7.161   2.385   3.324  0.3402 -0.5759 -1.0213
  260SOL    HW2 4279   7.151   2.495   3.427  0.4945 -1.8148  0.3436
  261SOL     OW 4280   5.545   7.833   9.272  0.1259 -0.0061 -0.5340
  261SOL    HW1 4281   5.516   7.924   9.265  0.0706  0.0709  0.5192
  261SOL    HW2 4282   5.464   7.782   9.278  0.1506  0.1011  1.1978
  262SOL     OW 4283   6.045   2.465   2.947 -0.1974  1.0146 -0.7469
  262SOL    HW1 4284   5.957   2.434   2.968  0.0497 -0.5260 -1.8238
  262SOL    HW2 4285   6.091   2.465   3.030 -0.6466 -0.1443 -0.4737
  263SOL     OW 4286   2.276   2.796   8.311  0.2350  0.1201  0.3960
  263SOL    HW1 4287   2.335   2.862   8.274  0.9964 -0.7755 -0.0247
  263SOL    HW2 4288   2.229   2.761   8.235 -1.3680  1.2882  0.7898
  264SOL     OW 4289   4.529   3.689   4.237  0.8620  0.0351  0.0502
  264SOL    HW1 4290   4.556   3.676   4.328  1.4186  0.1342 -0.0958
  264SOL    HW2 4291   4.434   3.695   4.240  0.9683  1.9770  0.8934
  265SOL     OW 4292  10.019   0.471   3.079  0.2013 -0.1543  0.2707
  265SOL    HW1 4293   9.974   0.415   3.016 -0.0246 -1.8868  1.8946
  265SOL    HW2 4294  10.107   0.433   3.087  1.0858  1.5436 -0.7958
  266SOL     OW 4295   4.734   5.815   1.461  0.2725  0.0522 -0.0447
  266SOL    HW1 4296   4.744   5.778   1.548 -1.3157 -1.9172 -0.6204
  266SOL    HW2 4297   4.676   5.890   1.473 -0.1503 -0.3622  0.5842
  267SOL     OW 4298  10.009   4.702  10.325  0.3228  0.2459 -0.6870
  267SOL    HW1 4299   9.947   4.671  10.259  0.2247 -1.0283 -0.0366
  267SOL    HW2 4300   9.981   4.659  10.406  1.0705  0.9440 -0.0394
  268SOL     OW 4301   0.915   1.925   5.627 -0.4761 -0.0028  0.1091
  268SOL    HW1 4302   0.835   1.873   5.617 -0.7381  0.8100 -3.5080
  268SOL    HW2 4303   0.985   1.860   5.627 -0.9979 -0.6111  1.4815
  269SOL     OW 4304   7.220  10.168   6.586 -0.1185 -0.9258 -0.9996
  269SOL    HW1 4305   7.311  10.146   6.567  0.6905  0.9030  0.4528
  269SOL    HW2 4306   7.198  10.235   6.522  0.3210  0.2101 -0.0030
  270SOL     OW 4307   7.179   0.895  10.980  0.4189 -0.2086 -0.1891
  270SOL    HW1 4308   7.182   0.803  11.009 -0.8483 -0.6079 -1.2604
  270SOL    HW2 4309   7.259   0.907  10.930 -0.0854 -1.1794 -1.2695
  271SOL     OW 4310   8.497   5.461   1.537 -0.4086 -0.2436  0.1442
  271SOL    HW1 4311   8.453   5.519   1.474  2.4394  0.4845 -1.3534
  271SOL    HW2 4312   8.482   5.501   1.622 -0.8194  1.1449 -0.5623
  272SOL     OW 4313   2.110   2.927   3.048  0.1164  0.0410 -0.5960
  272SOL    HW1 4314   2.096   2.841   3.008  0.1611 -0.7701  1.0632
  272SOL    HW2 4315   2.040   2.981   3.011  1.6541  0.1258 -3.7438
  273SOL     OW 4316   7.520   2.906  10.399 -0.6036 -0.2388 -0.3103
  273SOL    HW1 4317   7.559   2.894  10.485  0.7122 -1.0208 -0.9699
  273SOL    HW2 4318   7.498   2.999  10.395 -1.9232 -0.4325  1.3296
  274SOL     OW 4319   7.285   1.325   8.355  0.3994 -0.6295  0.1029
  274SOL    HW1 4320   7.305   1.303   8.447  0.3162 -0.6158  0.1243
  274SOL    HW2 4321   7.354   1.281   8.305  2.2981  1.8054  0.3492
  275SOL     OW 4322   0.301   4.076   8.909 -0.3445  0.0952  0.0378
  275SOL    HW1 4323   0.235   4.031   8.962  0.5966 -1.6540 -0.2172
  275SOL    HW2 4324   0.304   4.027   8.827  0.0848  1.1861 -0.6206
  276SOL     OW 4325   6.753   6.427   4.875  0.0365  0.0084 -0.2175
  276SOL    HW1 4326   6.753   6.412   4.780  0.0470  0.6668 -0.3245
  276SOL    HW2 4327   6.662   6.413   4.902  0.5288 -3.3817  0.2220
  277SOL     OW 4328  10.853   0.840  10.174 -0.1503  0.2162  0.1832
  277SOL    HW1 4329  10.871   0.775  10.242 -2.2153 -1.7060 -0.9557
  277SOL    HW2 4330  10.774   0.885  10.204  0.7445  1.6109  0.5220
  278SOL     OW 4331   4.616   4.208   8.441  0.2730  0.4624 -0.1950
  278SOL    HW1 4332   4.532   4.241   8.472 -0.5117 -1.5610 -0.0329
  278SOL    HW2 4333   4.616   4.228   8.347  0.1385  1.4819  0.0074
  279SOL     OW 4334   6.333   7.567   0.135  0.0951 -0.3243 -0.6258
  279SOL    HW1 4335   6.286   7.561   0.052 -0.2928 -3.0404 -0.3032
  279SOL    HW2 4336   6.287   7.507   0.193  0.1212  1.7868  1.7289
  280SOL     OW 4337   3.510   7.749   7.668 -0.3632  0.2100  0.4042
  280SOL    HW1 4338   3.546   7.769   7.755 -0.8405  3.3101  0.0080
  280SOL    HW2 4339   3.459   7.669   7.680  0.9128 -0.3454  2.5743
  281SOL     OW 4340   5.200   7.984   1.982  0.2857  0.2210  0.0383
  281SOL    HW1 4341   5.209   7.953   2.073 -0.3232  1.9023  0.7137
  281SOL    HW2 4342   5.290   8.002   1.955  0.7014 -2.2320 -0.4804
  282SOL     OW 4343  10.048   4.823  10.036  0.0843  0.1151 -0.1070
  282SOL    HW1 4344   9.986   4.896  10.030 -0.6586 -0.1247  2.9625
  282SOL    HW2 4345  10.117   4.855  10.095  2.3448 -0.0649 -2.4902
  283SOL     OW 4346   7.442   3.324   5.819 -0.4798 -0.0453 -0.4294
  283SOL    HW1 4347   7.403   3.411   5.821  1.0305  0.6938 -1.1615
  283SOL    HW2 4348   7.450   3.300   5.911 -0.4341  0.8336 -0.1904
  284SOL     OW 4349   2.214   5.717   9.803  0.6270  0.0944 -0.6837
  284SOL    HW1 4350   2.269   5.687   9.876 -0.3937 -3.3726 -1.1484
  284SOL    HW2 4351   2.126   5.687   9.826  0.1337 -0.3825 -2.9385
  285SOL     OW 4352   7.003   7.797   9.754 -0.1446 -0.1596  0.3256
  285SOL    HW1 4353   6.982   7.717   9.706  0.6806 -0.5592  0.6151
  285SOL    HW2 4354   7.096   7.812   9.735 -0.5234  1.2925 -0.5473
  286SOL     OW 4355   6.823   5.597   9.595 -0.1075 -0.5599  0.0750
  286SOL    HW1 4356   6.887   5.601   9.525  1.5053  1.2476  1.5350
  286SOL    HW2 4357   6.864   5.544   9.663  0.5025  1.6202  1.5284
  287SOL     OW 4358   0.726   4.197   1.286 -0.1335  0.3837 -0.3596
  287SOL    HW1 4359   0.655   4.206   1.350  0.2620 -0.5888  0.2523
  287SOL    HW2 4360   0.768   4.114   1.310  1.9505  1.4900  0.0644
  288SOL     OW 4361   8.952   2.872   2.718 -0.0811  0.3322  0.2082
  288SOL    HW1 4362   8.943   2.945   2.657  2.1735  0.2230 -0.3636
  288SOL    HW2 4363   8.908   2.901   2.797 -2.6371  0.6905 -1.2422
  289SOL     OW 4364   9.090   9.900   8.501 -0.3663 -0.2432 -0.1421
  289SOL    HW1 4365   9.179   9.909   8.536 -0.5224  0.9650 -0.0249
  289SOL    HW2 4366   9.052   9.828   8.552 -0.5764  1.4171  2.2221
  290SOL     OW 4367   8.131   5.426   6.188 -0.3359  0.8433 -0.0343
  290SOL    HW1 4368   8.095   5.382   6.111  2.5339  0.7284 -1.4419
  290SOL    HW2 4369   8.126   5.361   6.258  0.3765 -0.4366 -1.1248
  291SOL     OW 4370   6.062   3.646   0.053  0.3552 -0.0103  0.2220
  291SOL    HW1 4371   6.144   3.695   0.059  0.5445 -0.2056 -0.5649
  291SOL    HW2 4372   6.082   3.560   0.091  0.3658  0.1166  0.5043
  292SOL     OW 4373   1.436   4.178   8.283  0.1882 -0.5520 -0.2338
  292SOL    HW1 4374   1.439   4.114   8.354  2.0276 -2.2287 -1.6908
  292SOL    HW2 4375   1.490   4.251   8.313  0.4123 -0.9518  0.3407
  293SOL     OW 4376   1.551  10.973   1.029 -0.1209  0.4332 -0.7217
  293SOL    HW1 4377   1.530  10.879   1.029 -1.0480  0.6236 -0.0277
  293SOL    HW2 4378   1.643  10.977   1.055 -0.5936 -0.2203  1.2388
  294SOL     OW 4379   5.022   8.159   8.383 -0.0754 -0.1170  0.1871
  294SOL    HW1 4380   4.974   8.088   8.424  0.4070 -0.7033 -0.2418
  294SOL    HW2 4381   5.114   8.131   8.385 -0.0913 -0.4939 -1.8524
  295SOL     OW 4382   6.739  10.124  10.290  0.5161  0.6528 -0.0296
  295SOL    HW1 4383   6.821  10.143  10.335  1.9164 -1.8037 -1.3389
  295SOL    HW2 4384   6.689  10.073  10.354  0.6070  0.9411  0.2754
  296SOL     OW 4385   4.575   9.304   6.813 -0.1337  0.3596  0.0713
  296SOL    HW1 4386   4.548   9.365   6.744 -0.7289 -1.1262 -1.0356
  296SOL    HW2 4387   4.670   9.318   6.821 -0.1192  0.8049 -0.7809
  297SOL     OW 4388   4.641   9.060   7.875  0.5813 -0.7082  0.5122
  297SOL    HW1 4389   4.723   9.054   7.827  0.2110 -0.0057 -0.2206
  297SOL    HW2 4390   4.664   9.033   7.964  0.9950 -3.4187 -0.3308
  298SOL     OW 4391   0.417   2.188   5.023  0.0655  0.7313 -0.2020
  298SOL    HW1 4392   0.420   2.236   5.106  1.2017  0.5208 -0.1184
  298SOL    HW2 4393   0.496   2.216   4.976 -1.0745  1.6610 -1.6815
  299SOL     OW 4394   5.121   5.875   6.236 -0.5012 -0.0546  0.1812
  299SOL    HW1 4395   5.087   5.815   6.302 -2.1673  0.4584 -0.1760
  299SOL    HW2 4396   5.127   5.960   6.280 -0.9542  0.1393 -0.1264
  300SOL     OW 4397   9.932  10.392   7.443 -0.0460  0.3092 -0.4096
  300SOL    HW1 4398   9.952  10.415   7.534  1.0225 -0.2405 -0.4899
  300SOL    HW2 4399   9.967  10.303   7.433  0.1625  0.4995 -1.4517
  301SOL     OW 4400  10.476   5.146  10.030  0.2492  0.3287  0.4639
  301SOL    HW1 4401  10.411   5.121   9.964  0.1832 -0.3688  0.7828
  301SOL    HW2 4402  10.556   5.162   9.980  0.4098 -0.9498  0.2716
  302SOL     OW 4403   1.638   0.705   5.803  0.0605  0.4950  0.4831
  302SOL    HW1 4404   1.582   0.705   5.725  0.6667 -0.3756  0.0361
  302SOL    HW2 4405   1.720   0.664   5.774  0.6795  1.1227  1.3079
  303SOL     OW 4406   5.668   4.869   3.427  0.1480  0.2507 -0.4285
  303SOL    HW1 4407   5.708   4.904   3.507  2.4050 -0.6737 -1.0715
  303SOL    HW2 4408   5.585   4.915   3.420  1.5647  3.2001  0.4028
  304SOL     OW 4409   1.394   5.463   4.633 -0.4217 -0.5750  0.1382
  304SOL    HW1 4410   1.364   5.376   4.658 -1.5514 -0.2253  0.0476
  304SOL    HW2 4411   1.450   5.448   4.557 -0.5223 -1.2294  0.1910
  305SOL     OW 4412   6.794   7.020   2.149 -0.3303 -0.2939  0.2435
  305SOL    HW1 4413   6.758   6.944   2.103  0.4363 -0.1827 -0.5652
  305SOL    HW2 4414   6.796   7.089   2.084  0.5199 -0.0500  0.5091
  306SOL     OW 4415   3.674   1.432   5.219  0.3365  0.2759  0.7653
  306SOL    HW1 4416   3.753   1.418   5.168 -0.1788  1.2798 -0.3702
  306SOL    HW2 4417   3.702   1.429   5.310  0.8537 -4.4947  0.6898
  307SOL     OW 4418   4.510   1.907   8.536  0.4503 -0.3040  0.1128
  307SOL    HW1 4419   4.451   1.856   8.482 -0.1069 -1.8048  2.0163
  307SOL    HW2 4420   4.592   1.909   8.488 -0.5984  0.2845 -1.7393
  308SOL     OW 4421   3.726   3.048   6.538  0.0774  0.5184  0.1842
  308SOL    HW1 4422   3.739   3.127   6.485 -0.0502  0.4832  0.1000
  308SOL    HW2 4423   3.701   3.081   6.624 -1.4177  0.5509 -0.2422
  309SOL     OW 4424  10.456  10.147   8.157 -0.1198 -0.2911  0.0194
  309SOL    HW1 4425  10.504  10.224   8.126 -1.1713 -0.1474 -1.3481
  309SOL    HW2 4426  10.385  10.137   8.094 -2.6371  0.2395  2.5902
  310SOL     OW 4427   6.471   5.952   6.555  0.4110 -0.3512 -0.3010
  310SOL    HW1 4428   6.486   5.886   6.623  0.7794 -1.2134 -1.1829
  310SOL    HW2 4429   6.381   5.981   6.570 -0.0277 -1.6181 -0.3394
  311SOL     OW 4430   5.426   2.096  10.892  0.2189 -0.2755 -0.4802
  311SOL    HW1 4431   5.512   2.073  10.926 -0.2418 -0.1592  0.8336
  311SOL    HW2 4432   5.378   2.013  10.889  0.0974 -0.2107 -0.3596
  312SOL     OW 4433   3.297   8.328  10.868 -0.3735 -0.1149 -0.0540
  312SOL    HW1 4434   3.351   8.249  10.871 -1.4782 -0.9169 -0.5415
  312SOL    HW2 4435   3.347   8.393  10.917  0.8890 -0.9062 -0.2427
  313SOL     OW 4436   5.253   1.633   9.153  0.0110  0.1710 -0.6225
  313SOL    HW1 4437   5.176   1.646   9.098 -0.5439  0.4124  0.2058
  313SOL    HW2 4438   5.233   1.554   9.204  0.3395  0.2062 -0.4382
  314SOL     OW 4439   5.920   3.333   0.469  0.1182  0.1335 -0.3956
  314SOL    HW1 4440   5.839   3.375   0.499  1.0370  0.1697  2.3200
  314SOL    HW2 4441   5.915   3.245   0.505  1.0511 -0.0446 -0.6852
  315SOL     OW 4442   2.826   6.316   3.805  0.5185 -0.1902  0.0512
  315SOL    HW1 4443   2.851   6.287   3.717 -0.5957 -1.6859  0.1833
  315SOL    HW2 4444   2.783   6.400   3.792 -0.6302 -0.9103 -1.0015
  316SOL     OW 4445  10.824  10.679   0.835  0.3797  0.3015 -0.0888
  316SOL    HW1 4446  10.904  10.713   0.793 -0.2689  1.4200 -0.4740
  316SOL    HW2 4447  10.754  10.705   0.776 -0.3367 -0.0901  0.5813
  317SOL     OW 4448   5.989   5.038   5.094  0.2296  0.8062 -0.0521
  317SOL    HW1 4449   6.066   5.035   5.151 -0.3217  1.2181  0.7241
  317SOL    HW2 4450   5.928   5.097   5.138 -1.2628 -0.8801  0.2547
  318SOL     OW 4451   4.376  10.256   2.277  0.0256 -0.1045 -0.3231
  318SOL    HW1 4452   4.454  10.230   2.228  0.2681  1.0861 -0.5942
  318SOL    HW2 4453   4.377  10.352   2.274 -2.2925 -0.0542 -1.6709
  319SOL     OW 4454   5.773   1.892   4.034 -0.7588 -0.1411 -0.4066
  319SOL    HW1 4455   5.680   1.892   4.054 -0.4669  1.7333  1.2346
  319SOL    HW2 4456   5.789   1.976   3.990  0.0723 -0.6970 -1.2124
  320SOL     OW 4457   2.240   2.588   2.353 -0.2370  0.0491  0.3776
  320SOL    HW1 4458   2.174   2.519   2.360  0.9596 -1.1111  0.5884
  320SOL    HW2 4459   2.201   2.652   2.293 -0.6292 -1.7267 -1.3772
  321SOL     OW 4460   4.706   7.627  10.235  0.5264 -0.5239 -0.1746
  321SOL    HW1 4461   4.622   7.613  10.191  0.9253 -1.4528 -0.6809
  321SOL    HW2 4462   4.692   7.702  10.293 -0.3486 -0.0210 -1.0227
  322SOL     OW 4463   2.897   6.951   4.014 -0.2373  0.6654 -0.2024
  322SOL    HW1 4464   2.839   7.026   4.024  0.0133  1.0004 -1.1571
  322SOL    HW2 4465   2.980   6.988   3.983  1.2183  0.4600  3.0299
  323SOL     OW 4466   5.847   3.954   2.627  0.6451  0.0092 -0.2607
  323SOL    HW1 4467   5.935   3.940   2.663  0.4228  0.4629  0.4777
  323SOL    HW2 4468   5.788   3.941   2.701 -0.0114 -1.5118 -1.0243
  324SOL     OW 4469   6.779   0.755   5.404  0.0973  0.4673 -0.3938
  324SOL    HW1 4470   6.692   0.780   5.435  0.7358  0.6035  1.4236
  324SOL    HW2 4471   6.763   0.709   5.322 -1.6989  0.2598  0.0293
  325SOL     OW 4472   5.364   2.411   7.135 -0.2868  1.7282 -0.0302
  325SOL    HW1 4473   5.314   2.463   7.073 -0.9037  1.1244 -0.0546
  325SOL    HW2 4474   5.399   2.338   7.082  0.1189  1.8182  0.1074
  326SOL     OW 4475  10.163   2.586   4.807  0.4638 -0.8457  0.3136
  326SOL    HW1 4476  10.170   2.664   4.862  0.0966 -0.2485 -0.4663
  326SOL    HW2 4477  10.187   2.617   4.719 -1.2875 -1.2220 -0.3230
  327SOL     OW 4478   3.670   6.808   6.637  0.6430  0.3781 -0.2529
  327SOL    HW1 4479   3.697   6.829   6.726  1.4742 -1.5154 -0.0070
  327SOL    HW2 4480   3.578   6.836   6.632  0.3354 -0.2400  1.4747
  328SOL     OW 4481   0.722   3.875   4.774  0.8039  0.4770  0.2562
  328SOL    HW1 4482   0.794   3.913   4.723  0.4927  0.8980  0.1352
  328SOL    HW2 4483   0.740   3.901   4.864  1.6526 -0.7138  0.4699
  329SOL     OW 4484   2.667   4.369  10.326 -0.3706  0.0213  0.3580
  329SOL    HW1 4485   2.647   4.318  10.405 -1.3942 -1.9318 -1.0863
  329SOL    HW2 4486   2.758   4.396  10.337 -0.1406 -1.1990  1.6916
  330SOL     OW 4487   4.808  10.646   0.581  0.2708  0.3604 -0.0668
  330SOL    HW1 4488   4.842  10.563   0.615 -0.9829 -0.7281 -1.3091
  330SOL    HW2 4489   4.713  10.640   0.595  0.0003  0.9023 -1.4863
  331SOL     OW 4490   2.213   4.829   1.648 -0.0949 -0.1776 -0.3134
  331SOL    HW1 4491   2.301   4.861   1.625  0.6379 -0.8608  1.3711
  331SOL    HW2 4492   2.154   4.898   1.618  1.1486  0.9781 -0.2158
  332SOL     OW 4493   7.078   2.979   7.433 -0.5111  0.3564 -0.3107
  332SOL    HW1 4494   7.069   3.019   7.347  0.2190 -1.8300 -1.4782
  332SOL    HW2 4495   7.019   2.904   7.432  1.2509 -1.1344  0.1205
  333SOL     OW 4496   2.198   1.111   4.376  0.1237  0.2916 -0.3039
  333SOL    HW1 4497   2.114   1.157   4.378  0.8446  1.6806 -0.4692
  333SOL    HW2 4498   2.213   1.091   4.283 -0.8224 -1.5607 -0.1003
  334SOL     OW 4499   5.943   6.737   8.132 -0.4228  0.1310  0.3825
  334SOL    HW1 4500   5.996   6.817   8.143  0.3180 -0.4977  1.6069
  334SOL    HW2 4501   5.942   6.697   8.219  0.5063 -1.9778 -0.5113
  335SOL     OW 4502   3.256   7.399  10.509  0.2182  0.3762 -0.9490
  335SOL    HW1 4503   3.234   7.329  10.448  2.5164 -0.2115 -1.2023
  335SOL    HW2 4504   3.203   7.382  10.586 -0.0278 -1.0469 -1.4038
  336SOL     OW 4505   6.572  10.183   3.734  0.3942  0.0754 -0.1247
  336SOL    HW1 4506   6.614  10.260   3.695 -1.3427  0.2605 -1.7506
  336SOL    HW2 4507   6.617  10.109   3.695 -0.7308  0.2698 -1.8777
  337SOL     OW 4508   2.421   7.817   4.822  0.2609 -0.4083 -0.0012
  337SOL    HW1 4509   2.482   7.850   4.887 -1.2840 -0.2083  1.4129
  337SOL    HW2 4510   2.424   7.722   4.832  0.6616 -0.4295 -0.2717
  338SOL     OW 4511   8.214   0.720   9.441  0.5897  0.1636  0.0681
  338SOL    HW1 4512   8.262   0.799   9.417  1.1260  0.3210  1.5554
  338SOL    HW2 4513   8.122   0.742   9.429  0.8169  0.2277 -1.7511
  339SOL     OW 4514  10.122   6.161   9.623 -0.0913  0.1885 -0.1118
  339SOL    HW1 4515  10.081   6.128   9.702 -1.8087  0.0685 -1.0050
  339SOL    HW2 4516  10.134   6.254   9.639 -0.4910  0.1762  0.2612
  340SOL     OW 4517   7.239   8.579   4.188 -0.6498  0.2549  0.3131
  340SOL    HW1 4518   7.242   8.644   4.118 -0.8357 -1.0335 -0.9446
  340SOL    HW2 4519   7.148   8.583   4.219  0.1777  3.0971  2.8021
  341SOL     OW 4520   7.662  10.520   3.715 -0.2277 -0.4758 -0.9194
  341SOL    HW1 4521   7.687  10.603   3.675 -1.0306 -0.1028 -0.6750
  341SOL    HW2 4522   7.718  10.512   3.792 -0.4025  0.0289 -0.7345
  342SOL     OW 4523   4.071   2.690  10.516  0.3345 -0.6567  0.1983
  342SOL    HW1 4524   4.016   2.650  10.584 -0.3702 -3.3137 -1.7856
  342SOL    HW2 4525   4.011   2.743  10.465  0.7106  0.6787  1.0883
  343SOL     OW 4526   0.212   7.961  10.698  0.5571 -0.6188  0.5749
  343SOL    HW1 4527   0.295   7.918  10.675 -0.1412 -1.4026 -0.6142
  343SOL    HW2 4528   0.213   8.043  10.650 -0.5684 -1.9194 -1.8631
  344SOL     OW 4529   5.907  10.885   1.229  0.1531 -0.1299 -0.2282
  344SOL    HW1 4530   5.987  10.851   1.189 -0.2689  0.4878 -1.6519
  344SOL    HW2 4531   5.864  10.808   1.265  0.2367 -0.8187 -1.5438
  345SOL     OW 4532   1.565   2.912   2.097 -0.0508 -0.7944  0.3185
  345SOL    HW1 4533   1.595   3.001   2.114 -1.6366 -0.1970  0.0981
  345SOL    HW2 4534   1.644   2.865   2.071  0.5445  0.9759 -1.2516
  346SOL     OW 4535  10.590   3.815   3.536 -0.2074 -0.2243  0.0315
  346SOL    HW1 4536  10.670   3.868   3.537  0.1560 -0.7562  0.6551
  346SOL    HW2 4537  10.601   3.755   3.610 -1.5113  0.1689  0.5764
  347SOL     OW 4538   0.206   0.620  10.018 -0.1165 -0.6724 -0.1435
  347SOL    HW1 4539   0.178   0.642  10.107 -1.5102  0.2769 -0.7788
  347SOL    HW2 4540   0.155   0.678   9.961  0.8916 -1.1091 -1.5611
  348SOL     OW 4541   1.200   4.755  10.947  0.3677 -0.0820  0.0645
  348SOL    HW1 4542   1.279   4.702  10.942  0.4181  0.0823 -2.3533
  348SOL    HW2 4543   1.230   4.842  10.974  0.9296 -0.1749 -0.2577
  349SOL     OW 4544   9.294   5.863   1.119  0.5215 -0.7219 -0.4556
  349SOL    HW1 4545   9.387   5.843   1.104  0.4252 -2.3141  0.8109
  349SOL    HW2 4546   9.262   5.790   1.173 -1.0765  0.6193  0.4908
  350SOL     OW 4547   4.981   4.771   4.075 -0.5770  0.3606 -0.1865
  350SOL    HW1 4548   5.061   4.783   4.126 -0.0693  0.4069 -0.9726
  350SOL    HW2 4549   4.998   4.817   3.992 -1.5844  0.7520 -0.1910
  351SOL     OW 4550   8.670   2.064   7.302 -0.0488  0.5322  0.2399
  351SOL    HW1 4551   8.761   2.088   7.289 -0.3190  1.1612 -0.5746
  351SOL    HW2 4552   8.673   1.975   7.337  0.8399  0.2135 -0.6015
  352SOL     OW 4553   2.617   8.501   1.657  0.0323  0.1043  0.1221
  352SOL    HW1 4554   2.567   8.497   1.739 -0.9562 -3.6038 -0.4968
  352SOL    HW2 4555   2.702   8.462   1.679  0.7500  1.4645 -0.1003
  353SOL     OW 4556   2.002   2.895  10.118 -0.7973  0.6443 -0.0904
  353SOL    HW1 4557   2.002   2.800  10.108 -2.5246  0.7586 -1.9516
  353SOL    HW2 4558   2.027   2.928  10.032 -3.5566  1.8188 -0.5564
  354SOL     OW 4559   7.291   0.757   9.098  0.2943  0.1684 -0.1338
  354SOL    HW1 4560   7.374   0.714   9.120  0.2897 -0.6638 -1.6366
  354SOL    HW2 4561   7.254   0.781   9.183  1.0222 -1.4585  0.6897
  355SOL     OW 4562   4.028   4.221  10.710 -0.2833  0.6910  0.3933
  355SOL    HW1 4563   4.019   4.126  10.721 -0.7492  0.4915 -1.3391
  355SOL    HW2 4564   3.964   4.259  10.769 -0.9671 -0.1324  0.1991
  356SOL     OW 4565   8.695   7.877   0.139  0.1601  0.2870  0.9823
  356SOL    HW1 4566   8.788   7.853   0.134  0.1915  0.6386 -1.0597
  356SOL    HW2 4567   8.659   7.849   0.055 -1.5356  0.4199  1.6336
  357SOL     OW 4568   1.048   1.106  10.972 -0.6329  0.2102 -0.2773
  357SOL    HW1 4569   0.970   1.081  11.020 -1.0912 -0.5722 -1.3900
  357SOL    HW2 4570   1.015   1.138  10.888  0.2935 -3.0404 -2.0604
  358SOL     OW 4571   0.227   9.856  10.000  0.0032 -0.6093  0.4130
  358SOL    HW1 4572   0.252   9.768   9.970  0.9865  0.0192 -0.7208
  358SOL    HW2 4573   0.225   9.850  10.095  1.2578 -1.5641  0.4064
  359SOL     OW 4574   3.475   5.713   6.350 -0.5538  0.4521 -0.3898
  359SOL    HW1 4575   3.481   5.803   6.382 -1.9301  0.5686 -0.4059
  359SOL    HW2 4576   3.386   5.705   6.318 -1.4987 -1.7965  2.3694
  360SOL     OW 4577   2.600   2.316   1.329  0.1850  0.4915  0.1409
  360SOL    HW1 4578   2.623   2.226   1.354 -1.4663  0.0797  0.3068
  360SOL    HW2 4579   2.559   2.353   1.408 -1.9119  0.3417 -0.8154
  361SOL     OW 4580   2.315   4.057   6.800 -0.2154  0.0733  0.5844
  361SOL    HW1 4581   2.350   4.085   6.885 -0.4651 -0.0627  0.7353
  361SOL    HW2 4582   2.257   3.983   6.822  0.5991 -0.7093  0.1716
  362SOL     OW 4583   8.915   6.789   5.366  0.3887  0.0372 -0.4477
  362SOL    HW1 4584   8.842   6.849   5.351 -0.5769 -1.3396 -1.4822
  362SOL    HW2 4585   8.876   6.715   5.411  1.8170  0.6853  2.0506
  363SOL     OW 4586   6.679   0.714   0.906 -0.3017  0.2417  0.0815
  363SOL    HW1 4587   6.650   0.802   0.884 -0.9677 -0.6149 -2.9278
  363SOL    HW2 4588   6.633   0.693   0.987 -2.4931  1.6013 -0.7146
  364SOL     OW 4589   5.222   8.910   5.473  0.6923 -0.2875 -0.2573
  364SOL    HW1 4590   5.138   8.911   5.519 -0.0424  1.0152 -1.5298
  364SOL    HW2 4591   5.215   8.983   5.410  3.3295  0.8235  0.6107
  365SOL     OW 4592   6.630   4.437   0.568 -0.0423  0.1335  0.6202
  365SOL    HW1 4593   6.617   4.370   0.501  0.2720 -0.5538  1.2251
  365SOL    HW2 4594   6.594   4.398   0.648  0.7009  0.4297  1.1108
  366SOL     OW 4595  10.146   5.263   3.100  0.2283 -0.1679  0.0182
  366SOL    HW1 4596  10.138   5.236   3.008  1.1290 -0.4771  0.0219
  366SOL    HW2 4597  10.200   5.342   3.097  1.7366 -1.1499  0.4061
  367SOL     OW 4598   7.252  10.410   7.111 -0.1435  0.3224 -0.3590
  367SOL    HW1 4599   7.202  10.492   7.114  0.2802  0.5424  0.8753
  367SOL    HW2 4600   7.311  10.421   7.036 -0.1480  1.1135 -0.2565
  368SOL     OW 4601   3.601   7.844   0.724 -0.3013 -0.4870  0.9750
  368SOL    HW1 4602   3.518   7.828   0.768 -1.2256 -1.6711 -1.0992
  368SOL    HW2 4603   3.646   7.760   0.726  0.4561 -0.0867  1.2462
  369SOL     OW 4604   7.419   1.334   1.170 -0.3837  0.0962  0.0950
  369SOL    HW1 4605   7.476   1.260   1.146 -1.3598 -0.9442  0.8711
  369SOL    HW2 4606   7.466   1.378   1.241 -0.2272 -0.3607  0.2824
  370SOL     OW 4607   0.811   9.083   0.021 -0.5058  0.2227  0.6641
  370SOL    HW1 4608   0.730   9.041   0.052 -0.0735  0.4367  2.1344
  370SOL    HW2 4609   0.861   9.101   0.100  2.1987 -2.2706 -0.2760
  371SOL     OW 4610  10.838   4.558   0.225  0.1823 -0.1644 -0.4661
  371SOL    HW1 4611  10.857   4.606   0.145 -0.3471 -0.8388 -1.0126
  371SOL    HW2 4612  10.793   4.621   0.281  0.4938  0.2910 -0.7221
  372SOL     OW 4613   4.497   4.552   8.365 -0.1781  0.0970 -0.0131
  372SOL    HW1 4614   4.543   4.499   8.300 -0.3402  0.9470 -0.8296
  372SOL    HW2 4615   4.425   4.496   8.394 -1.1651  0.3236 -1.8637
  373SOL     OW 4616   3.002   5.583   0.242 -0.3557 -0.1640  0.0362
  373SOL    HW1 4617   3.002   5.575   0.338  1.0692 -1.3798 -0.0332
  373SOL    HW2 4618   2.920   5.542   0.215 -0.1936 -0.9259  0.6689
  374SOL     OW 4619   0.131   5.214   8.890  0.8067  0.4182  0.3684
  374SOL    HW1 4620   0.104   5.144   8.949  0.5406  0.3883  0.2147
  374SOL    HW2 4621   0.050   5.261   8.870  0.1750 -1.6784 -2.7763
  375SOL     OW 4622   0.975   9.288   4.790  0.0874 -0.2281  0.0456
  375SOL    HW1 4623   0.898   9.344   4.783 -2.1113 -2.8171  1.6454
  375SOL    HW2 4624   1.028   9.328   4.859 -0.6809  0.6809  0.1197
  376SOL     OW 4625   9.658   5.622   6.424  0.0954 -0.7158  0.4446
  376SOL    HW1 4626   9.712   5.625   6.345  0.6766  1.3098  0.8705
  376SOL    HW2 4627   9.703   5.678   6.487 -1.3270 -0.7994  1.6051
  377SOL     OW 4628   9.181   6.781   8.162  0.5949  0.0937 -0.2582
  377SOL    HW1 4629   9.178   6.814   8.072  2.8057 -0.7691 -0.7277
  377SOL    HW2 4630   9.187   6.686   8.153 -0.6547 -0.1153  0.8789
  378SOL     OW 4631   7.989   6.211   8.032  0.0649 -0.1758 -0.4591
  378SOL    HW1 4632   7.942   6.168   7.961  1.8289 -1.2950 -1.0271
  378SOL    HW2 4633   8.076   6.228   7.996  0.7963 -0.1693  1.2167
  379SOL     OW 4634   0.133   7.503   3.185  0.5065  0.0282  0.0023
  379SOL    HW1 4635   0.090   7.473   3.105  0.0633  0.6329  0.0086
  379SOL    HW2 4636   0.214   7.545   3.154 -0.5595  1.9700 -0.3246
  380SOL     OW 4637  10.783   1.344   9.156  0.0281  0.2579  0.1682
  380SOL    HW1 4638  10.727   1.345   9.078 -0.6142  1.2837  0.6205
  380SOL    HW2 4639  10.848   1.413   9.140  1.3017 -1.0380 -0.4263
  381SOL     OW 4640   7.715   8.315   5.907 -0.1257 -0.3159  0.3149
  381SOL    HW1 4641   7.657   8.351   5.840 -1.4534 -2.2236  0.3458
  381SOL    HW2 4642   7.745   8.391   5.957 -1.4287  0.8769 -0.6376
  382SOL     OW 4643   9.357   5.329   0.385  0.4521  0.1004  0.1497
  382SOL    HW1 4644   9.354   5.310   0.291  1.7812 -0.1707  0.1392
  382SOL    HW2 4645   9.325   5.250   0.427  2.0896 -0.7162 -0.0320
  383SOL     OW 4646   9.842   6.160   8.146 -0.8375  0.1972  0.7643
  383SOL    HW1 4647   9.890   6.090   8.102 -0.7409  0.9475 -0.3581
  383SOL    HW2 4648   9.888   6.171   8.230  1.1883  1.0804 -0.3791
  384SOL     OW 4649   2.458   9.684   6.295 -0.1233  0.3488  0.2600
  384SOL    HW1 4650   2.501   9.750   6.240 -2.1411  0.9359 -0.7268
  384SOL    HW2 4651   2.367   9.713   6.299 -0.5772 -1.1627  1.7318
  385SOL     OW 4652   9.386   7.093   9.762  0.1998  0.0334 -0.0495
  385SOL    HW1 4653   9.437   7.114   9.841  0.3388  1.0104 -0.3849
  385SOL    HW2 4654   9.363   7.001   9.773  0.7557 -0.0210  0.8340
  386SOL     OW 4655   7.777   8.480  10.909 -0.6098 -0.0879  0.6168
  386SOL    HW1 4656   7.747   8.544  10.844  0.1029  0.6218  0.9710
  386SOL    HW2 4657   7.860   8.516  10.942  0.8641 -2.1330 -0.5906
  387SOL     OW 4658   9.566   9.102   9.941  0.1124  0.5340  0.0882
  387SOL    HW1 4659   9.485   9.076   9.985  0.8561 -1.1452  0.5552
  387SOL    HW2 4660   9.610   9.159  10.004 -0.4040  0.9417  0.0883
  388SOL     OW 4661   8.215   5.163   6.439 -0.0108 -0.8742 -0.0023
  388SOL    HW1 4662   8.285   5.148   6.502  1.6453 -0.5258 -1.6716
  388SOL    HW2 4663   8.252   5.137   6.355 -1.9280 -0.7462 -0.9408
  389SOL     OW 4664   7.524   0.806   1.099  0.2034  0.0339  0.1153
  389SOL    HW1 4665   7.506   0.712   1.108  0.2921  0.0943  1.1194
  389SOL    HW2 4666   7.496   0.843   1.183 -0.7814  1.0656 -0.6390
  390SOL     OW 4667   0.024   8.266   4.555  0.2283 -0.5780 -0.3446
  390SOL    HW1 4668   0.109   8.260   4.511  0.3758 -1.3556  0.0314
  390SOL    HW2 4669  -0.040   8.249   4.486  0.3413  0.3842 -0.7130
  391SOL     OW 4670   0.380  10.650  10.789  0.2381  0.5571 -0.3020
  391SOL    HW1 4671   0.311  10.585  10.803 -1.9053  2.9740  1.3574
  391SOL    HW2 4672   0.346  10.705  10.718 -0.4217  2.7140  1.5721
  392SOL     OW 4673   6.099   1.893   0.178 -0.1931  0.3253  0.1829
  392SOL    HW1 4674   6.181   1.844   0.176  0.1033  0.8059  0.4346
  392SOL    HW2 4675   6.126   1.985   0.170 -0.7660  0.4251 -0.7388
  393SOL     OW 4676   1.961   1.277   4.707 -0.2098 -0.0604  0.2056
  393SOL    HW1 4677   1.866   1.275   4.697 -0.0946  0.7452 -1.2913
  393SOL    HW2 4678   1.994   1.237   4.626  0.7292 -1.1379  1.0917
  394SOL     OW 4679   1.276   3.571   3.242 -0.2501  0.6416 -0.6645
  394SOL    HW1 4680   1.223   3.535   3.171 -0.7128 -0.0105 -0.0133
  394SOL    HW2 4681   1.316   3.650   3.206 -0.6733  0.4497 -1.5627
  395SOL     OW 4682   7.062   3.503   9.698 -0.0521 -0.0941 -0.6797
  395SOL    HW1 4683   6.998   3.545   9.755  0.1376 -1.1083  0.3045
  395SOL    HW2 4684   7.116   3.575   9.666 -0.4198  0.5441  0.1015
  396SOL     OW 4685   2.723   6.792  10.505 -0.0975 -0.6027 -0.1606
  396SOL    HW1 4686   2.814   6.791  10.477 -0.6905 -4.0578 -2.7195
  396SOL    HW2 4687   2.712   6.710  10.553 -1.7467 -0.0083  0.5742
  397SOL     OW 4688   0.299   1.303   3.618 -0.0366 -0.5177  0.5009
  397SOL    HW1 4689   0.325   1.395   3.622  2.9392 -1.1556 -1.0328
  397SOL    HW2 4690   0.321   1.268   3.704  0.4716 -0.1538  0.5211
  398SOL     OW 4691   3.511   1.716  10.863  0.1749  0.6938 -0.0026
  398SOL    HW1 4692   3.606   1.707  10.855 -0.0260 -0.7286 -1.1643
  398SOL    HW2 4693   3.488   1.662  10.938  0.1385 -0.1766 -0.6259
  399SOL     OW 4694   7.971   0.962   6.414 -0.0792 -0.0447  0.2157
  399SOL    HW1 4695   8.018   1.045   6.416  1.1067 -0.6994  0.7603
  399SOL    HW2 4696   7.906   0.973   6.345  0.3016  1.1939  0.0213
  400SOL     OW 4697   2.290   5.007   5.598 -0.3589  0.1948 -0.0761
  400SOL    HW1 4698   2.383   5.025   5.610  0.6408 -1.8035 -3.3148
  400SOL    HW2 4699   2.273   4.932   5.655  0.1908  0.1745  0.0702
  401SOL     OW 4700   3.261   1.598   7.422  0.2305  0.4334 -0.1003
  401SOL    HW1 4701   3.240   1.649   7.344 -0.3536  0.9727  0.3964
  401SOL    HW2 4702   3.321   1.530   7.392 -0.1678  0.4999 -1.0617
  402SOL     OW 4703  11.007   7.121   3.911  0.1339 -0.3574 -0.1670
  402SOL    HW1 4704  10.949   7.051   3.940 -0.0756  0.0622  0.4411
  402SOL    HW2 4705  10.949   7.187   3.874  0.3626 -0.6943 -1.1815
  403SOL     OW 4706  10.155   8.566   4.429  0.0082  0.7984 -0.6696
  403SOL    HW1 4707  10.220   8.562   4.359  1.0323  1.4035  0.2086
  403SOL    HW2 4708  10.071   8.572   4.384  0.6285  0.9553 -1.8414
  404SOL     OW 4709   4.979   5.158   7.096  0.0027  0.4612  0.3506
  404SOL    HW1 4710   5.035   5.084   7.116 -0.7921  0.3370  2.4492
  404SOL    HW2 4711   5.039   5.232   7.086  0.6340  0.1259  1.4692
  405SOL     OW 4712   7.078   5.871   7.519 -0.3965 -0.4074  0.0678
  405SOL    HW1 4713   7.088   5.873   7.424  0.0038  1.1776  0.1090
  405SOL    HW2 4714   7.135   5.800   7.548  0.8146  0.2058 -0.7527
  406SOL     OW 4715   9.191   8.989   2.147  0.1601  0.2345  0.0276
  406SOL    HW1 4716   9.207   9.021   2.059  1.6890 -0.0249  0.1810
  406SOL    HW2 4717   9.131   8.915   2.135  2.2137 -1.3626 -1.1054
  407SOL     OW 4718   7.118   3.798  10.282  0.1042 -0.3180  0.2699
  407SOL    HW1 4719   7.174   3.728  10.317  0.2466 -1.2300 -1.6842
  407SOL    HW2 4720   7.168   3.878  10.298  0.9338 -0.8858  0.5922
  408SOL     OW 4721   2.104   2.834   6.333 -0.0799  0.2683 -0.0546
  408SOL    HW1 4722   2.051   2.879   6.399 -2.3323 -0.6006 -1.1606
  408SOL    HW2 4723   2.120   2.747   6.371 -0.8499 -0.0189 -0.3643
  409SOL     OW 4724   9.119   2.197   6.385  0.1804  0.3963 -0.2556
  409SOL    HW1 4725   9.026   2.176   6.393  0.7008 -1.6142  1.5061
  409SOL    HW2 4726   9.137   2.251   6.462  0.4682  0.8374 -0.6298
  410SOL     OW 4727   9.919   9.632   9.395 -0.0489  0.3055 -0.2027
  410SOL    HW1 4728   9.880   9.663   9.313 -1.4222 -0.3657  0.1573
  410SOL    HW2 4729   9.978   9.702   9.422  1.4182  0.0030 -2.3925
  411SOL     OW 4730   1.211   4.333   0.134  0.1926  0.2290 -0.4635
  411SOL    HW1 4731   1.282   4.362   0.077 -1.7155  2.9037 -1.6747
  411SOL    HW2 4732   1.214   4.393   0.209 -0.0406 -0.4491  0.1028
  412SOL     OW 4733   2.876   9.827   5.664 -0.3684  0.7191 -0.9224
  412SOL    HW1 4734   2.855   9.896   5.727 -0.6260  0.5267 -0.7955
  412SOL    HW2 4735   2.946   9.777   5.707 -1.7186 -0.4699  0.0025
  413SOL     OW 4736   4.520   9.851   8.668 -0.2964  0.2938 -0.1474
  413SOL    HW1 4737   4.518   9.820   8.758  0.5004  0.0216 -0.2222
  413SOL    HW2 4738   4.496   9.943   8.674 -1.9368 -0.1184  0.1534
  414SOL     OW 4739   0.959   7.631   2.302 -0.0935 -0.0839  0.7430
  414SOL    HW1 4740   0.951   7.714   2.350 -0.5479  0.9754 -1.0870
  414SOL    HW2 4741   0.912   7.568   2.356 -0.9139  1.1417  1.5228
  415SOL     OW 4742   3.324   5.625   3.522  0.5690  1.0745  0.8345
  415SOL    HW1 4743   3.246   5.681   3.522  0.6658  1.3662 -2.1489
  415SOL    HW2 4744   3.383   5.667   3.459  0.9568 -1.9102 -0.9989
  416SOL     OW 4745   0.294   2.230   1.632 -0.6071 -0.0050  0.3621
  416SOL    HW1 4746   0.291   2.215   1.537 -1.8969 -1.5824  0.6255
  416SOL    HW2 4747   0.333   2.151   1.668  0.1783  0.7152  1.1595
  417SOL     OW 4748   0.556   9.885   6.085  0.1845 -0.1956 -0.0350
  417SOL    HW1 4749   0.501   9.807   6.096  0.2823 -0.0787  1.4723
  417SOL    HW2 4750   0.554   9.902   5.991 -0.2300 -1.7302 -0.3391
  418SOL     OW 4751   8.818   0.571   1.158 -0.2991  0.0277 -0.0641
  418SOL    HW1 4752   8.909   0.579   1.188 -0.0141 -0.2487 -0.8239
  418SOL    HW2 4753   8.794   0.481   1.179 -0.3614  0.0728  0.0545
  419SOL     OW 4754   7.235   3.971   7.846  0.1774  0.1389  0.3087
  419SOL    HW1 4755   7.326   4.000   7.852  0.6457 -0.7835 -1.5449
  419SOL    HW2 4756   7.184   4.051   7.861  1.3743  1.3485 -1.5718
  420SOL     OW 4757   3.425   6.374   9.825 -0.2506  0.5230 -0.5526
  420SOL    HW1 4758   3.450   6.284   9.805  0.8027  0.6037  0.3013
  420SOL    HW2 4759   3.509   6.420   9.835 -0.7248  0.9689  1.7699
  421SOL     OW 4760   0.490   3.482  10.345 -0.1831  0.5665 -0.3191
  421SOL    HW1 4761   0.568   3.433  10.371 -0.9127 -0.2160  0.4808
  421SOL    HW2 4762   0.433   3.417  10.305 -0.0154  1.3418 -1.8668
  422SOL     OW 4763   2.759   0.336   4.762 -0.0089 -0.7475 -1.0293
  422SOL    HW1 4764   2.669   0.366   4.749 -0.5457 -2.9075 -2.7962
  422SOL    HW2 4765   2.782   0.368   4.849 -1.6591  1.7466 -1.3877
  423SOL     OW 4766   0.589   6.739  10.796 -0.7294  0.4405 -0.4007
  423SOL    HW1 4767   0.598   6.684  10.875  0.9476 -0.4349 -1.1553
  423SOL    HW2 4768   0.504   6.714  10.760  0.1649 -2.0823 -0.9701
  424SOL     OW 4769   9.787   2.162   8.349  0.3909 -0.0259  0.2126
  424SOL    HW1 4770   9.758   2.233   8.292 -2.0177 -0.5517  0.6890
  424SOL    HW2 4771   9.867   2.129   8.307 -0.4193  0.6387 -1.9733
  425SOL     OW 4772   7.462   6.606   8.721 -0.0587  0.1277  0.0298
  425SOL    HW1 4773   7.418   6.681   8.681 -0.5725  0.1529  0.6339
  425SOL    HW2 4774   7.435   6.608   8.812  1.4180  0.3020  0.4930
  426SOL     OW 4775   6.645   9.795   7.515 -0.2311  0.2294 -0.1133
  426SOL    HW1 4776   6.641   9.701   7.494 -1.8994  0.8852 -3.2340
  426SOL    HW2 4777   6.589   9.837   7.450  1.5044  3.5785  0.3494
  427SOL     OW 4778   4.675   8.333   3.144 -0.3089 -0.2741  0.2205
  427SOL    HW1 4779   4.702   8.404   3.085  0.5131 -1.7151 -1.1999
  427SOL    HW2 4780   4.655   8.260   3.086 -1.2670 -1.1907  1.6461
  428SOL     OW 4781   6.172   7.505   5.703  0.0654 -0.5038 -0.2907
  428SOL    HW1 4782   6.239   7.533   5.642  0.1694  1.5792  0.6944
  428SOL    HW2 4783   6.209   7.429   5.748  1.1667 -0.2568 -0.7732
  429SOL     OW 4784  10.444   4.100   8.962 -0.2971  0.4579 -0.3349
  429SOL    HW1 4785  10.429   4.150   9.042 -2.0404  0.5376 -0.6704
  429SOL    HW2 4786  10.359   4.099   8.919  0.3882 -0.4119 -1.7159
  430SOL     OW 4787   6.931   0.570   2.689 -0.4300  0.5367 -0.2760
  430SOL    HW1 4788   6.901   0.554   2.600  1.8722 -3.6154 -0.5558
  430SOL    HW2 4789   6.856   0.548   2.745 -1.1551  0.8858 -1.0992
  431SOL     OW 4790   0.022  10.356   3.108 -0.1989 -0.0498 -0.3123
  431SOL    HW1 4791  -0.032  10.420   3.154 -0.8751 -0.3119 -0.7180
  431SOL    HW2 4792  -0.032  10.277   3.106  0.9179 -0.8881  0.8522
  432SOL     OW 4793  10.652   4.460   4.773  0.3080  0.0632 -0.9509
  432SOL    HW1 4794  10.586   4.397   4.743  0.0534 -0.2011  0.1357
  432SOL    HW2 4795  10.618   4.492   4.857  1.7932 -0.4382 -0.1329
  433SOL     OW 4796   5.853   9.504   6.234 -0.0117 -0.1086  0.4684
  433SOL    HW1 4797   5.939   9.506   6.278  0.8770  0.0052 -1.2010
  433SOL    HW2 4798   5.798   9.560   6.288  1.8296  2.4402 -0.0750
  434SOL     OW 4799   0.510   3.763   9.891 -0.1089  0.2086  0.7222
  434SOL    HW1 4800   0.555   3.678   9.885  1.1980  0.9341 -0.3114
  434SOL    HW2 4801   0.435   3.746   9.948 -0.5764 -1.9373 -0.4088
  435SOL     OW 4802  10.479   1.138   1.375 -0.1799  0.2997 -0.1032
  435SOL    HW1 4803  10.397   1.182   1.353  0.6875  1.1574 -1.8310
  435SOL    HW2 4804  10.492   1.074   1.305  0.9099  0.6113 -0.2129
  436SOL     OW 4805   7.237   2.397   8.187  0.3415  0.1988 -0.4670
  436SOL    HW1 4806   7.165   2.381   8.247  1.8175  1.1387  1.6605
  436SOL    HW2 4807   7.271   2.483   8.211  3.2834 -0.9483 -0.1399
  437SOL     OW 4808  10.267   7.428   1.685 -0.6216  0.2830 -0.1878
  437SOL    HW1 4809  10.271   7.413   1.590 -1.6341 -0.4959 -0.1220
  437SOL    HW2 4810  10.278   7.341   1.723  1.4854  0.7790  0.4935
  438SOL     OW 4811   0.507   6.590   7.257 -0.5658  0.5588  0.2827
  438SOL    HW1 4812   0.508   6.615   7.165 -0.4580 -0.0589  0.1073
  438SOL    HW2 4813   0.495   6.495   7.255 -1.8903  0.6942  0.9387
  439SOL     OW 4814   6.873   5.726   0.734  0.0229 -0.0505 -0.1331
  439SOL    HW1 4815   6.871   5.640   0.692 -0.2021 -0.4941  0.7510
  439SOL    HW2 4816   6.823   5.783   0.676  0.4537 -0.4333 -0.8950
  440SOL     OW 4817   2.062   6.691   9.287 -0.4196 -0.0641  0.2290
  440SOL    HW1 4818   2.087   6.675   9.377 -1.8426 -0.4647  0.5845
  440SOL    HW2 4819   2.051   6.786   9.281 -1.1313 -0.1063  0.7259
  441SOL     OW 4820   5.537   8.638   9.882  0.3529  0.6000  0.4757
  441SOL    HW1 4821   5.534   8.569   9.948  1.4721  1.4433  1.4431
  441SOL    HW2 4822   5.534   8.591   9.799  0.2210 -0.5587  1.1110
  442SOL     OW 4823   0.454   2.592   0.530 -0.1539 -0.1228 -0.0972
  442SOL    HW1 4824   0.436   2.569   0.621 -0.3273  2.6330  0.6406
  442SOL    HW2 4825   0.408   2.525   0.480  0.8521 -2.3717  1.7678
  443SOL     OW 4826   9.705   4.560   5.280 -0.4316 -0.2595  0.2960
  443SOL    HW1 4827   9.730   4.516   5.199 -2.6281  1.9669 -1.7559
  443SOL    HW2 4828   9.649   4.496   5.325  1.5711 -1.8825  0.6478
  444SOL     OW 4829  10.359   5.129   0.318  0.3490  0.6724  0.3636
  444SOL    HW1 4830  10.316   5.047   0.293 -0.2032  1.3908 -1.2090
  444SOL    HW2 4831  10.440   5.131   0.268  1.6516 -0.0505  2.3215
  445SOL     OW 4832   6.197   3.597   3.410  0.2318 -0.3107  0.0400
  445SOL    HW1 4833   6.103   3.617   3.413  0.7709  2.4481  1.1782
  445SOL    HW2 4834   6.221   3.607   3.318 -0.8022 -2.6307 -0.5725
  446SOL     OW 4835   9.319   0.591   9.476  0.4801 -0.1253 -0.1763
  446SOL    HW1 4836   9.393   0.641   9.442  0.4648  0.6154  0.8130
  446SOL    HW2 4837   9.290   0.537   9.403  0.9141  0.8436 -1.0874
  447SOL     OW 4838   9.878   0.069   5.731 -0.3904  0.4827 -0.2246
  447SOL    HW1 4839   9.916   0.006   5.670 -0.6513  0.7843 -0.7075
  447SOL    HW2 4840   9.865   0.020   5.812 -1.5943 -0.3863 -0.9124
  448SOL     OW 4841   0.485   7.928   0.474  0.1502  0.3334  0.1774
  448SOL    HW1 4842   0.483   7.987   0.550 -0.5413  0.0510  0.3936
  448SOL    HW2 4843   0.547   7.859   0.499 -0.4144 -0.0073  0.6957
  449SOL     OW 4844  10.140   3.831  10.588  0.5258  0.0833  0.5184
  449SOL    HW1 4845  10.197   3.769  10.633  0.6261 -2.3219 -2.5938
  449SOL    HW2 4846  10.201   3.883  10.534  0.1107 -0.1530 -0.1969
  450SOL     OW 4847   8.132  10.090   4.631 -0.1733 -0.8109  0.1122
  450SOL    HW1 4848   8.215  10.128   4.657  0.3578 -1.8458 -0.0102
  450SOL    HW2 4849   8.124  10.010   4.684  0.5121 -2.4754 -2.1281
  451SOL     OW 4850  10.935   2.028   6.754  0.1824 -0.1107  0.0849
  451SOL    HW1 4851  10.860   2.081   6.725 -0.9447 -2.3316 -1.3497
  451SOL    HW2 4852  10.964   1.982   6.675  1.2901 -1.3850  1.1824
  452SOL     OW 4853   1.404   7.078   7.660 -0.2541 -1.1311 -0.2993
  452SOL    HW1 4854   1.419   7.013   7.729 -0.1626 -1.0325 -0.2259
  452SOL    HW2 4855   1.474   7.142   7.672 -0.7205 -0.6786  0.0256
  453SOL     OW 4856   2.002   0.946   2.441  0.0404 -0.4615 -0.8045
  453SOL    HW1 4857   2.077   0.891   2.464  0.2739 -1.0806 -2.9038
  453SOL    HW2 4858   1.927   0.886   2.440  0.0645 -0.4777 -1.7992
  454SOL     OW 4859   2.571   8.826   2.058  0.0478 -0.3606  0.4121
  454SOL    HW1 4860   2.561   8.733   2.037  0.4426 -0.5209  0.8944
  454SOL    HW2 4861   2.482   8.859   2.064 -0.0879 -0.6061 -0.2067
  455SOL     OW 4862   2.674   0.283   1.571  0.1851 -0.4967  0.1778
  455SOL    HW1 4863   2.664   0.374   1.601  0.3508  0.0340 -1.2746
  455SOL    HW2 4864   2.586   0.248   1.570  0.1891 -0.5861  1.3882
  456SOL     OW 4865   7.328   1.222   2.297 -0.1642  0.2692  0.0085
  456SOL    HW1 4866   7.373   1.139   2.310 -1.5462 -0.6887 -1.0375
  456SOL    HW2 4867   7.243   1.211   2.339  0.1822  1.7202  1.1701
  457SOL     OW 4868   6.704   2.808   5.607  0.2787  0.2512  0.2450
  457SOL    HW1 4869   6.707   2.712   5.602 -0.3259  0.2834 -1.5761
  457SOL    HW2 4870   6.795   2.834   5.619  0.4704 -0.5328  0.5879
  458SOL     OW 4871   1.950   8.949   8.816 -0.0215 -0.1674 -0.3814
  458SOL    HW1 4872   2.008   8.891   8.767  1.1497  0.3276  0.3905
  458SOL    HW2 4873   1.879   8.892   8.846 -0.5867 -0.5502 -2.3012
  459SOL     OW 4874   2.291   5.216   0.885 -0.4139  0.6910  0.4253
  459SOL    HW1 4875   2.269   5.213   0.978  0.3088  2.8695  0.7104
  459SOL    HW2 4876   2.313   5.307   0.867 -0.1796  0.2704 -1.8195
  460SOL     OW 4877  10.320   1.814   5.562  0.1064  0.1889 -0.5535
  460SOL    HW1 4878  10.351   1.750   5.498  0.6282  0.2635 -0.3808
  460SOL    HW2 4879  10.294   1.890   5.510 -1.7511 -0.6143 -0.8753
  461SOL     OW 4880   3.677   6.313   8.713 -0.0081 -0.1131  0.1109
  461SOL    HW1 4881   3.597   6.353   8.680 -1.3212 -2.7863 -0.2154
  461SOL    HW2 4882   3.730   6.298   8.634 -0.0883 -0.2108  0.0756
  462SOL     OW 4883   8.314   7.852   4.889 -0.1654 -0.4650  0.2800
  462SOL    HW1 4884   8.346   7.780   4.944  1.1242  0.2126  0.4301
  462SOL    HW2 4885   8.308   7.926   4.949  0.2567  0.0146 -0.2702
  463SOL     OW 4886  10.695   9.722   7.918 -0.0621  0.1040  0.0800
  463SOL    HW1 4887  10.713   9.725   7.825  0.0016 -1.0878  0.0408
  463SOL    HW2 4888  10.656   9.807   7.938  2.5979  1.5572 -0.4491
  464SOL     OW 4889   4.945   2.201   3.828 -0.2782  0.4543 -0.1906
  464SOL    HW1 4890   5.039   2.211   3.812 -0.3787 -0.0633 -1.1704
  464SOL    HW2 4891   4.941   2.141   3.903  0.1880  2.6881  1.7666
  465SOL     OW 4892   5.585   0.818   6.071 -0.0489 -0.0516  0.8545
  465SOL    HW1 4893   5.570   0.729   6.103  1.4426 -0.5277  0.2921
  465SOL    HW2 4894   5.674   0.839   6.100 -0.0533  0.9129  0.2104
  466SOL     OW 4895   8.933   4.090   0.881  0.2408  0.3634  0.4092
  466SOL    HW1 4896   8.955   4.037   0.957 -0.6750 -1.2348 -0.3922
  466SOL    HW2 4897   9.017   4.124   0.850  0.5668  1.4948  2.4075
  467SOL     OW 4898   4.282  10.809   4.417 -0.1074 -0.7913 -0.2838
  467SOL    HW1 4899   4.348  10.854   4.364 -0.8106  0.1029 -0.4247
  467SOL    HW2 4900   4.327  10.792   4.500  0.3015 -0.1671 -0.3637
  468SOL     OW 4901   4.195   6.408   8.022 -0.4923  0.3025 -0.6521
  468SOL    HW1 4902   4.147   6.444   7.947  0.0358 -2.5368 -2.4825
  468SOL    HW2 4903   4.134   6.346   8.062  0.3060 -0.4726 -0.6178
  469SOL     OW 4904   0.154   8.929   6.897 -0.0718  0.3115  0.6386
  469SOL    HW1 4905   0.199   8.845   6.906 -2.0906 -1.5385 -3.7718
  469SOL    HW2 4906   0.225   8.992   6.883  1.4090 -1.5630 -0.8831
  470SOL     OW 4907  10.100   7.942   3.170 -0.4866  0.2282  0.3483
  470SOL    HW1 4908  10.077   8.032   3.193  0.9012  0.6866  0.0777
  470SOL    HW2 4909  10.053   7.925   3.088  0.5985  1.3562 -0.5504
  471SOL     OW 4910   3.183   6.456   0.293  0.5903 -0.0149 -0.0101
  471SOL    HW1 4911   3.239   6.529   0.319 -0.5145  0.5604  0.8708
  471SOL    HW2 4912   3.204   6.441   0.200  0.8121  1.4579 -0.2252
  472SOL     OW 4913   3.057   2.753   5.826  0.1544  0.0137 -0.5771
  472SOL    HW1 4914   3.017   2.823   5.877  0.8958  0.1109 -0.1142
  472SOL    HW2 4915   3.085   2.795   5.745  1.1939  0.4207 -0.0284
  473SOL     OW 4916   3.104   4.050  10.811  0.3590 -0.5048  0.1479
  473SOL    HW1 4917   3.104   4.144  10.794  0.7890 -0.5602 -0.1857
  473SOL    HW2 4918   3.166   4.014  10.747  1.3034 -0.8353  1.2185
  474SOL     OW 4919   9.609   2.809   5.946 -0.7294  0.3700 -0.6700
  474SOL    HW1 4920   9.637   2.749   6.015 -1.7615  1.5581  0.8468
  474SOL    HW2 4921   9.686   2.819   5.890  0.3719 -0.1052  0.6971
  475SOL     OW 4922   4.841   8.578   5.442 -0.0745  0.2406 -0.0368
  475SOL    HW1 4923   4.928   8.558   5.407 -0.7632 -0.4656 -1.4458
  475SOL    HW2 4924   4.811   8.653   5.391 -1.8210 -1.8975 -2.4018
  476SOL     OW 4925   5.972  10.805   6.294 -0.4559  0.0263  0.1351
  476SOL    HW1 4926   5.977  10.727   6.239 -0.3498 -0.3045  0.6080
  476SOL    HW2 4927   5.923  10.868   6.241 -1.5069 -0.7259  0.1719
  477SOL     OW 4928   6.966  10.706   9.701  0.5391  0.2584  0.5516
  477SOL    HW1 4929   6.974  10.766   9.775  1.3767 -0.3108  0.9388
  477SOL    HW2 4930   6.920  10.756   9.634  2.8622  2.0199  0.1413
  478SOL     OW 4931   8.990   1.174   5.640  0.1312  0.4442 -0.0674
  478SOL    HW1 4932   9.077   1.212   5.630  0.3659 -0.2973 -0.9702
  478SOL    HW2 4933   8.930   1.249   5.638  0.7359  0.9526  0.4937
  479SOL     OW 4934   2.508   6.243   9.288  0.1169  0.1152 -0.0316
  479SOL    HW1 4935   2.587   6.286   9.321  0.2606  1.0331 -1.5079
  479SOL    HW2 4936   2.437   6.279   9.341  0.6436 -0.6155  1.2150
  480SOL     OW 4937   4.518   2.225   6.267  0.7250 -1.0739  0.1528
  480SOL    HW1 4938   4.517   2.140   6.222  1.5615 -0.5023 -1.0239
  480SOL    HW2 4939   4.506   2.289   6.196 -3.1325 -0.2403  1.3420
  481SOL     OW 4940   9.163   5.884   5.810 -0.3933  0.0059 -0.2469
  481SOL    HW1 4941   9.093   5.925   5.860  0.5057  1.3520 -0.0041
  481SOL    HW2 4942   9.240   5.890   5.868  0.5140  1.0205 -1.4860
  482SOL     OW 4943   4.477   5.889   8.014  0.5173 -0.3713  0.0098
  482SOL    HW1 4944   4.429   5.806   8.015 -0.7693  0.3093 -1.2043
  482SOL    HW2 4945   4.569   5.863   8.017  0.1374 -1.7948  0.4897
  483SOL     OW 4946   4.519   3.045   4.553  0.5856  0.0104 -0.3395
  483SOL    HW1 4947   4.552   2.973   4.500 -0.7098  0.0710 -1.2641
  483SOL    HW2 4948   4.430   3.061   4.521  0.8618  2.0703 -0.2157
  484SOL     OW 4949   6.940   1.458   1.233  0.4725  0.0721  0.1220
  484SOL    HW1 4950   6.960   1.545   1.268  0.7925 -0.0405  0.2247
  484SOL    HW2 4951   7.019   1.407   1.249  0.2515 -0.2663  0.1528
  485SOL     OW 4952   7.906   2.403   7.291 -0.3967  0.0301 -0.0712
  485SOL    HW1 4953   7.864   2.440   7.369  0.5707 -2.1461  1.5735
  485SOL    HW2 4954   7.834   2.364   7.242 -0.6721 -1.5678  1.5064
  486SOL     OW 4955   6.130   4.754   0.253 -0.6067  0.1226  0.2273
  486SOL    HW1 4956   6.136   4.847   0.232  0.9620 -0.0979 -0.5137
  486SOL    HW2 4957   6.054   4.746   0.310 -1.3101  1.7152 -0.4437
  487SOL     OW 4958   9.883   3.389  10.218 -0.2596  0.2987 -0.1828
  487SOL    HW1 4959   9.939   3.321  10.254 -0.6465 -1.0176 -1.9509
  487SOL    HW2 4960   9.921   3.410  10.133 -0.7145  1.6265 -0.0969
  488SOL     OW 4961   7.360   5.406   9.348  0.6879 -0.2397 -0.2311
  488SOL    HW1 4962   7.309   5.480   9.316  2.4769  0.6056 -1.2905
  488SOL    HW2 4963   7.317   5.329   9.311  0.8699  0.5291 -2.1632
  489SOL     OW 4964   8.369   8.089   2.462  0.8503  0.3948  0.4113
  489SOL    HW1 4965   8.304   8.059   2.526  1.0308  0.1175  0.4659
  489SOL    HW2 4966   8.360   8.184   2.463  0.0549  0.3320  0.0019
  490SOL     OW 4967   5.578  10.209   2.228 -0.3121 -0.6099  0.3146
  490SOL    HW1 4968   5.507  10.254   2.184  0.3949 -1.1620 -1.4662
  490SOL    HW2 4969   5.536  10.165   2.302 -1.3277  1.2762  0.9269
  491SOL     OW 4970   5.523   0.237   5.425 -0.9483  0.1466 -0.5072
  491SOL    HW1 4971   5.480   0.157   5.455  0.5881 -0.6288 -0.3121
  491SOL    HW2 4972   5.559   0.216   5.340  0.0408  0.4077 -0.1678
  492SOL     OW 4973   5.858   8.637   1.416 -0.0032 -0.0258  0.2329
  492SOL    HW1 4974   5.934   8.592   1.453  0.6615  0.5347 -0.4151
  492SOL    HW2 4975   5.804   8.566   1.379 -0.1175 -0.4806  1.2323
  493SOL     OW 4976   4.206  10.131  10.639  0.1046  0.3762 -0.3426
  493SOL    HW1 4977   4.202  10.144  10.544  0.8310  2.0666 -0.1739
  493SOL    HW2 4978   4.193  10.037  10.651 -1.7969  0.3683 -1.9944
  494SOL     OW 4979   7.778   3.278   2.170  0.0120 -0.5201  0.3529
  494SOL    HW1 4980   7.742   3.205   2.121 -0.0779 -1.0355  1.1627
  494SOL    HW2 4981   7.704   3.338   2.184  0.2752  0.1678 -1.0630
  495SOL     OW 4982   6.451   4.361   4.016 -0.2227 -0.2075  0.8768
  495SOL    HW1 4983   6.507   4.322   3.949  1.0485  1.7026  0.7511
  495SOL    HW2 4984   6.445   4.294   4.084  1.0475 -1.0038  0.2468
  496SOL     OW 4985   2.319   7.156  10.649 -0.4864 -0.0958  0.4271
  496SOL    HW1 4986   2.250   7.173  10.585 -0.1455 -2.1333 -0.5813
  496SOL    HW2 4987   2.350   7.242  10.676 -1.3286  0.8325 -1.4327
  497SOL     OW 4988   1.950   8.388   6.672  0.0356 -0.2013 -0.7517
  497SOL    HW1 4989   2.008   8.370   6.746  0.6854 -1.8661 -1.6313
  497SOL    HW2 4990   1.996   8.454   6.621 -1.5013  2.8896  1.4878
  498SOL     OW 4991   8.974   3.101  10.570 -0.4732  0.2368 -0.1958
  498SOL    HW1 4992   8.941   3.070  10.486  1.3284 -0.4100 -0.7207
  498SOL    HW2 4993   8.965   3.026  10.629  1.4353 -0.4837 -0.7623
  499SOL     OW 4994   3.946   6.767  10.193 -0.0375  0.0708  0.0042
  499SOL    HW1 4995   3.893   6.844  10.174  2.5032  1.9783  0.0046
  499SOL    HW2 4996   3.973   6.779  10.285  0.4377 -0.7873 -0.0105
  500SOL     OW 4997   8.225   9.855   4.359  0.0634  0.8294 -0.0335
  500SOL    HW1 4998   8.274   9.854   4.441  0.5752  0.1869 -0.3390
  500SOL    HW2 4999   8.213   9.763   4.336 -0.6844  0.9867 -0.3317
  501SOL     OW 5000   0.031   0.888   5.414 -0.5658  0.0774  0.1353
  501SOL    HW1 5001   0.120   0.922   5.410 -0.7067  0.7217  1.7667
  501SOL    HW2 5002  -0.010   0.919   5.332  0.8060 -0.6341 -0.8551
  502SOL     OW 5003   8.213   6.289   9.866  0.2506  0.1129  0.1543
  502SOL    HW1 5004   8.239   6.197   9.874 -0.9466 -0.5629 -2.4885
  502SOL    HW2 5005   8.272   6.324   9.799  0.6069  1.2771  1.0423
  503SOL     OW 5006  10.736   1.412   6.711  0.3775 -0.5527 -0.2222
  503SOL    HW1 5007  10.755   1.338   6.769  2.7608  0.4542  0.3783
  503SOL    HW2 5008  10.753   1.379   6.623 -0.3876 -1.2294 -0.1288
  504SOL     OW 5009   9.117   8.706   8.372  0.6570  0.1468 -0.5110
  504SOL    HW1 5010   9.121   8.755   8.454  2.9069  2.5816 -1.9106
  504SOL    HW2 5011   9.169   8.627   8.388 -0.2381 -0.2069  0.8018
  505SOL     OW 5012   6.131   8.274   5.408 -0.1313 -0.5041 -0.3071
  505SOL    HW1 5013   6.132   8.370   5.410 -0.1477 -0.5049  2.2428
  505SOL    HW2 5014   6.042   8.252   5.380 -0.3670  0.2133 -0.1362
  506SOL     OW 5015   5.855   0.322   0.365 -0.2476 -0.4734 -0.6330
  506SOL    HW1 5016   5.808   0.390   0.318  0.1446 -0.9572 -1.7760
  506SOL    HW2 5017   5.942   0.321   0.325 -0.7583 -2.7757 -1.8701
  507SOL     OW 5018   5.517   3.554   7.257 -0.1017 -0.2088 -0.0960
  507SOL    HW1 5019   5.451   3.511   7.202 -0.4986  0.8464 -0.4537
  507SOL    HW2 5020   5.523   3.498   7.334  0.7103 -1.9128 -1.3242
  508SOL     OW 5021   9.215   3.803   4.894 -0.2741  0.2756  0.2367
  508SOL    HW1 5022   9.202   3.716   4.932  1.8426 -0.1844  0.0566
  508SOL    HW2 5023   9.307   3.823   4.914 -0.1461  1.5850 -1.5217
  509SOL     OW 5024   9.357   0.135  10.561 -0.4673 -0.2285 -0.4035
  509SOL    HW1 5025   9.390   0.050  10.589 -0.9618  0.3864  2.3207
  509SOL    HW2 5026   9.276   0.115  10.514 -1.4965 -1.2400  1.6737
  510SOL     OW 5027   7.999   9.165   7.992 -0.1089  0.0949  0.4821
  510SOL    HW1 5028   8.035   9.253   7.980 -0.6584  0.1224 -1.2020
  510SOL    HW2 5029   8.047   9.111   7.930 -0.8494 -0.4806  0.3997
  511SOL     OW 5030   5.659   9.238   0.334  0.0834  0.5086  0.2616
  511SOL    HW1 5031   5.700   9.313   0.377 -1.1232  1.8177 -0.7466
  511SOL    HW2 5032   5.683   9.247   0.242 -0.0496 -0.3660  0.1335
  512SOL     OW 5033  10.802   5.749   8.735 -0.1703 -0.0334 -0.3561
  512SOL    HW1 5034  10.717   5.705   8.726 -1.2632  1.7166  0.8626
  512SOL    HW2 5035  10.796   5.824   8.676  0.8893 -0.3747 -0.9111
  513SOL     OW 5036   9.494   3.316   7.047 -0.4685 -0.2298  0.1356
  513SOL    HW1 5037   9.507   3.268   7.129 -0.2317 -0.5057 -0.0627
  513SOL    HW2 5038   9.555   3.275   6.985  0.8627  1.3076  0.3616
  514SOL     OW 5039   6.256   5.037   4.248  0.4051 -0.4828  0.5730
  514SOL    HW1 5040   6.320   5.000   4.309 -0.3060 -0.7704  1.1603
  514SOL    HW2 5041   6.177   5.050   4.301 -0.0881 -0.3284 -0.1867
  515SOL     OW 5042   4.542  10.924   7.532 -0.3958  0.3788 -0.8733
  515SOL    HW1 5043   4.535  11.012   7.494 -0.4636  0.8824  0.2726
  515SOL    HW2 5044   4.454  10.905   7.564  0.0156  0.6284  0.4451
  516SOL     OW 5045   4.184   7.333   0.115 -0.0621 -0.4633 -0.4488
  516SOL    HW1 5046   4.165   7.427   0.116  1.3539 -0.1628 -0.0539
  516SOL    HW2 5047   4.279   7.328   0.113 -0.0594 -1.8881  1.1845
  517SOL     OW 5048   2.146   0.233   0.454  0.5374 -0.1102  0.4265
  517SOL    HW1 5049   2.157   0.216   0.547 -0.4736 -1.3337  0.3448
  517SOL    HW2 5050   2.065   0.285   0.448 -0.1366 -1.1661  0.1496
  518SOL     OW 5051   0.451   8.976  10.205 -0.0006  0.4506  1.1276
  518SOL    HW1 5052   0.540   8.997  10.178  0.6871 -2.6660  0.5248
  518SOL    HW2 5053   0.396   9.001  10.130  0.7196  0.1234  0.4795
  519SOL     OW 5054   6.038   1.575   5.148  0.2954  0.2255  0.1367
  519SOL    HW1 5055   6.055   1.531   5.231 -0.2295  0.5226  0.4103
  519SOL    HW2 5056   6.035   1.668   5.170  2.2397  0.4913 -0.5760
  520SOL     OW 5057   8.950   9.484   9.122 -0.0714 -0.3508  0.0368
  520SOL    HW1 5058   8.967   9.542   9.048 -0.3501 -1.1777 -0.6944
  520SOL    HW2 5059   8.855   9.471   9.121 -0.2190  0.4968  1.2137
  521SOL     OW 5060   1.642   3.725   7.182  0.3794  0.1532  0.3728
  521SOL    HW1 5061   1.549   3.750   7.182  0.9592  2.4931  0.9205
  521SOL    HW2 5062   1.646   3.650   7.122 -1.7254  0.5102 -0.3103
  522SOL     OW 5063   9.271   2.607   6.682 -0.8474 -0.3571 -0.0115
  522SOL    HW1 5064   9.213   2.535   6.660 -0.2066 -0.7280 -0.5212
  522SOL    HW2 5065   9.274   2.606   6.778 -1.3116 -0.6244  0.0037
  523SOL     OW 5066  10.724   4.138  10.298 -1.0246 -0.0220  0.2268
  523SOL    HW1 5067  10.669   4.199  10.249 -0.3297  0.1927 -0.2999
  523SOL    HW2 5068  10.691   4.142  10.388 -1.0000  1.1161  0.1941
  524SOL     OW 5069   1.434   9.601   6.898  0.0120  0.1363 -0.4089
  524SOL    HW1 5070   1.378   9.666   6.857 -1.5118 -1.1412 -0.4716
  524SOL    HW2 5071   1.500   9.579   6.832  0.1786  1.1509 -0.5894
  525SOL     OW 5072   1.250   7.129   0.570 -0.7095  0.1792 -0.4176
  525SOL    HW1 5073   1.200   7.195   0.619 -1.9430 -0.2527 -1.0472
  525SOL    HW2 5074   1.280   7.175   0.492 -2.3439 -0.1865 -1.3124
  526SOL     OW 5075   7.494  10.558   4.974  0.0584  0.5487  0.1642
  526SOL    HW1 5076   7.565  10.586   4.916  0.3186  1.6886  0.9899
  526SOL    HW2 5077   7.449  10.489   4.926  0.8255  0.8325 -0.9991
  527SOL     OW 5078   3.032   5.201   1.089 -0.8268 -0.1198 -0.1446
  527SOL    HW1 5079   2.978   5.280   1.087 -1.7245 -0.6964  0.7389
  527SOL    HW2 5080   3.016   5.159   1.005 -2.9343 -1.0309  0.6414
  528SOL     OW 5081   9.095   1.751   6.425 -0.3392  0.0787 -0.0985
  528SOL    HW1 5082   9.010   1.777   6.460 -0.6630  0.2998 -1.0214
  528SOL    HW2 5083   9.153   1.824   6.448 -0.9772  1.1100 -1.6230
  529SOL     OW 5084   1.294   4.658   6.357 -0.2856 -0.2448  0.2323
  529SOL    HW1 5085   1.240   4.596   6.308 -0.6954  0.2772  0.0081
  529SOL    HW2 5086   1.248   4.669   6.440 -1.4250  1.3980 -0.5504
  530SOL     OW 5087   4.104   9.193   2.821  0.4770  0.5264 -0.0021
  530SOL    HW1 5088   4.168   9.122   2.825  1.1066  1.1257  2.3678
  530SOL    HW2 5089   4.147   9.262   2.771  2.1880  1.2656  2.2932
  531SOL     OW 5090   6.828   3.523   2.064  0.4981  0.4294 -0.3949
  531SOL    HW1 5091   6.906   3.578   2.048  0.6026  0.1560 -0.8442
  531SOL    HW2 5092   6.777   3.530   1.983  0.0412  0.6244 -0.0924
  532SOL     OW 5093   2.895   2.312   2.016 -0.6888  0.5457 -0.1323
  532SOL    HW1 5094   2.867   2.399   2.045 -0.8228  0.3361  0.3872
  532SOL    HW2 5095   2.849   2.252   2.074 -1.0381  0.1029 -0.8700
  533SOL     OW 5096   1.060  10.978   5.780 -0.5899  0.4160  0.1684
  533SOL    HW1 5097   1.069  11.061   5.733  1.2016 -0.6438 -1.4855
  533SOL    HW2 5098   1.143  10.969   5.827  0.1363 -1.3783 -1.3475
  534SOL     OW 5099   3.595   5.959   0.022  0.6418  0.7947  0.1443
  534SOL    HW1 5100   3.505   5.953   0.054  1.1708 -0.8722  1.4696
  534SOL    HW2 5101   3.599   5.895  -0.049  1.1460 -0.3051  1.1250
  535SOL     OW 5102  10.371   0.310   9.275  0.3544 -0.4796 -0.1801
  535SOL    HW1 5103  10.411   0.297   9.361  0.5095 -2.6195 -0.5313
  535SOL    HW2 5104  10.278   0.293   9.289  0.1160  0.7575 -0.1421
  536SOL     OW 5105   3.596   6.934   5.755 -0.3275  0.0466 -0.3444
  536SOL    HW1 5106   3.558   6.847   5.748  0.1691 -0.1897 -0.1507
  536SOL    HW2 5107   3.565   6.980   5.676  0.8018 -0.8498 -1.3445
  537SOL     OW 5108  10.487   3.871   2.439  0.2281 -0.0052 -0.7986
  537SOL    HW1 5109  10.417   3.868   2.373 -0.0584 -0.1609 -0.4950
  537SOL    HW2 5110  10.455   3.933   2.504 -0.0647 -0.7879 -0.1783
  538SOL     OW 5111   2.192   5.278   9.440  0.1896  0.3369 -0.1720
  538SOL    HW1 5112   2.110   5.290   9.391  0.5617  1.0675 -0.6274
  538SOL    HW2 5113   2.177   5.327   9.522 -0.3936 -0.8016  0.4279
  539SOL     OW 5114   7.339  10.350   7.887  0.1505 -0.0678 -0.0178
  539SOL    HW1 5115   7.294  10.429   7.857  1.8491  1.1290  0.4234
  539SOL    HW2 5116   7.326  10.286   7.817  0.7759  1.4231 -1.5494
  540SOL     OW 5117  10.047  10.378   1.751  0.1721 -0.0330 -0.0308
  540SOL    HW1 5118   9.984  10.350   1.686 -0.9277  2.0407  0.0541
  540SOL    HW2 5119  10.062  10.471   1.732  0.9428  0.2595  1.7626
  541SOL     OW 5120   9.157   8.469   4.216  0.2504 -0.2444  0.7554
  541SOL    HW1 5121   9.233   8.431   4.172  0.5631  0.8891  0.2875
  541SOL    HW2 5122   9.138   8.549   4.167 -1.5325 -0.7335  0.5995
  542SOL     OW 5123   5.569   8.561   1.829 -0.2578 -0.3593  0.5590
  542SOL    HW1 5124   5.578   8.629   1.896 -2.1801 -0.9486  1.4970
  542SOL    HW2 5125   5.603   8.601   1.750  0.1557  1.1162  1.4448
  543SOL     OW 5126   9.337   5.874   9.607  0.3437  0.3383  0.3517
  543SOL    HW1 5127   9.373   5.789   9.579  2.3882  0.9101  1.0505
  543SOL    HW2 5128   9.320   5.863   9.701 -1.0541  0.1924  0.1018
  544SOL     OW 5129   3.800   0.591   7.039 -0.6218  0.1332 -0.3650
  544SOL    HW1 5130   3.729   0.654   7.027 -0.5437  0.3188  0.1170
  544SOL    HW2 5131   3.878   0.645   7.056 -0.4073 -0.0730 -0.6798
  545SOL     OW 5132  10.533   8.424   6.808 -0.1975  0.7324  0.0369
  545SOL    HW1 5133  10.500   8.476   6.881  0.3471  0.5603  0.4113
  545SOL    HW2 5134  10.508   8.474   6.730  1.6891  2.3980  0.4186
  546SOL     OW 5135   0.424   4.535   1.496 -0.1359  0.1260 -0.2042
  546SOL    HW1 5136   0.416   4.612   1.553 -0.4438  0.9193 -1.2948
  546SOL    HW2 5137   0.496   4.557   1.437  0.0161 -0.5870 -0.2941
  547SOL     OW 5138   8.962  10.963   1.444 -0.4476 -0.5890 -0.7177
  547SOL    HW1 5139   9.015  10.887   1.419  0.7362  0.3098 -1.0316
  547SOL    HW2 5140   9.023  11.021   1.490 -1.6019 -0.3329  0.5688
  548SOL     OW 5141   3.475  10.965   6.332  0.4532  0.9680 -0.2730
  548SOL    HW1 5142   3.430  11.049   6.335  0.0084  0.7717 -1.0943
  548SOL    HW2 5143   3.447  10.919   6.411  0.2016  1.3417 -0.1439
  549SOL     OW 5144   5.325   7.834   6.433  0.0550 -0.0181 -0.7319
  549SOL    HW1 5145   5.313   7.808   6.525  0.5418  1.0591 -0.3456
  549SOL    HW2 5146   5.385   7.768   6.398 -0.6708 -0.8312 -0.4705
  550SOL     OW 5147   7.037   2.933   1.514 -0.2780  0.1870  0.3982
  550SOL    HW1 5148   6.991   2.850   1.529  0.8952 -0.9519 -1.8880
  550SOL    HW2 5149   6.973   2.987   1.466 -0.4546 -0.0487  0.3650
  551SOL     OW 5150   1.054   2.722   9.415 -0.0228 -0.5026  0.1730
  551SOL    HW1 5151   0.993   2.651   9.398  0.1413 -0.5899 -0.0600
  551SOL    HW2 5152   0.999   2.796   9.438 -0.1981 -0.6873  0.3566
  552SOL     OW 5153   6.091   6.046   3.125 -0.2831 -0.0383  0.4288
  552SOL    HW1 5154   6.159   6.113   3.131  1.4693 -1.7868  1.4799
  552SOL    HW2 5155   6.118   5.992   3.051 -1.0651 -0.2149  0.2691
  553SOL     OW 5156   3.450   8.190   6.052 -0.0429 -0.3156  0.6073
  553SOL    HW1 5157   3.455   8.151   5.965  2.5300 -0.5138  0.7479
  553SOL    HW2 5158   3.459   8.115   6.111  0.1685  0.0161  0.9969
  554SOL     OW 5159   9.556   2.833   5.512 -0.2454 -0.5301 -0.1242
  554SOL    HW1 5160   9.633   2.881   5.544 -0.2329 -1.4782  1.3396
  554SOL    HW2 5161   9.506   2.812   5.591 -1.8763 -0.1928 -1.0290
  555SOL     OW 5162   2.953   9.103  10.187 -0.3403 -0.4241 -0.1195
  555SOL    HW1 5163   2.960   9.135  10.097  0.1572 -0.9780 -0.2838
  555SOL    HW2 5164   2.980   9.176  10.242 -0.0748 -0.2733 -0.4519
  556SOL     OW 5165   3.541   6.278   4.207 -0.1548 -0.1081  0.0886
  556SOL    HW1 5166   3.484   6.292   4.282 -2.6228  0.0681 -1.6969
  556SOL    HW2 5167   3.521   6.189   4.177  0.1660  0.1248 -0.8657
  557SOL     OW 5168   4.995   6.645   9.600  0.5753  0.4991 -0.5822
  557SOL    HW1 5169   5.082   6.606   9.599  0.4568  0.2427 -1.3794
  557SOL    HW2 5170   5.011   6.739   9.612  0.8722  0.2791  1.0033
  558SOL     OW 5171   7.467   1.761   2.931  0.6205  0.6454 -0.6955
  558SOL    HW1 5172   7.524   1.790   2.860  0.0540  0.8017 -1.0938
  558SOL    HW2 5173   7.378   1.774   2.898  0.3485  0.3150 -0.1218
  559SOL     OW 5174   5.502   1.588   8.315  0.2425  0.6135  0.4949
  559SOL    HW1 5175   5.482   1.658   8.254 -1.1155  1.3161  1.6818
  559SOL    HW2 5176   5.515   1.511   8.260  0.6849  1.5621 -0.7600
  560SOL     OW 5177   1.488  10.081   7.786  0.2910 -0.4353 -0.1824
  560SOL    HW1 5178   1.546  10.015   7.750  1.5888  0.4020  0.2828
  560SOL    HW2 5179   1.523  10.164   7.753 -1.3977  0.0435 -0.8994
  561SOL     OW 5180  10.837   2.768   6.213  0.3888 -0.6423 -0.2545
  561SOL    HW1 5181  10.766   2.705   6.207  0.0434 -0.5225  1.8152
  561SOL    HW2 5182  10.799   2.850   6.181 -0.7432 -0.3670  1.6383
  562SOL     OW 5183   6.283   0.669   2.789 -0.1718  0.7342  0.1689
  562SOL    HW1 5184   6.280   0.663   2.693  0.5253 -1.4866  0.2354
  562SOL    HW2 5185   6.195   0.698   2.814 -0.8837 -0.2504 -1.0706
  563SOL     OW 5186   8.105   1.281   8.306  0.1138 -0.0931 -0.3324
  563SOL    HW1 5187   8.044   1.211   8.283 -0.9564  1.3974 -2.3764
  563SOL    HW2 5188   8.112   1.334   8.226  0.9461  2.0821  1.0868
  564SOL     OW 5189   2.175   1.177   2.247  0.3248 -0.0605 -0.2135
  564SOL    HW1 5190   2.207   1.198   2.334  2.7817 -1.5325 -0.6776
  564SOL    HW2 5191   2.080   1.172   2.257  0.4855  0.5771  2.1785
  565SOL     OW 5192   5.849   1.935   3.041  0.4801  0.2446 -0.1576
  565SOL    HW1 5193   5.795   1.957   2.966  0.5556  1.3944  0.1119
  565SOL    HW2 5194   5.912   2.007   3.048  1.1971 -0.4092  0.3317
  566SOL     OW 5195   3.990   4.711   9.656  0.1571 -0.3341 -0.0984
  566SOL    HW1 5196   3.979   4.727   9.562 -0.9942 -0.1219  0.0566
  566SOL    HW2 5197   3.976   4.617   9.665 -1.4454 -0.1168  0.0512
  567SOL     OW 5198   7.029   8.449   3.254 -0.3112  0.6754  0.5669
  567SOL    HW1 5199   6.982   8.374   3.217 -0.3576  1.0223 -0.0834
  567SOL    HW2 5200   7.114   8.449   3.210  0.1996  0.2310  1.5228
  568SOL     OW 5201   3.893   4.034   9.405  0.1206 -0.9769 -0.1105
  568SOL    HW1 5202   3.942   3.992   9.335  0.0350 -0.0505 -0.7406
  568SOL    HW2 5203   3.810   4.059   9.365  0.7969  1.2951 -0.2814
  569SOL     OW 5204   4.969   3.577   8.607 -0.1387 -0.4754  0.2890
  569SOL    HW1 5205   5.039   3.580   8.543  0.0165  0.2541  0.4759
  569SOL    HW2 5206   4.894   3.615   8.562  0.7495  3.0133  1.4141
  570SOL     OW 5207   5.372   4.917   4.797 -0.1287 -0.4085 -0.5889
  570SOL    HW1 5208   5.402   4.828   4.776  0.1533 -0.5029  0.1602
  570SOL    HW2 5209   5.285   4.923   4.758  0.1362 -0.7662 -1.2523
  571SOL     OW 5210  10.228   4.447   2.484  0.0738 -0.8178 -0.6851
  571SOL    HW1 5211  10.282   4.407   2.552 -3.0623 -1.4168  1.7457
  571SOL    HW2 5212  10.220   4.538   2.510  0.9876 -0.3936 -1.8233
  572SOL     OW 5213   8.304   1.319   9.887 -0.0466  0.1845  0.2378
  572SOL    HW1 5214   8.381   1.263   9.882  0.4872  0.9439 -0.3053
  572SOL    HW2 5215   8.252   1.297   9.810  0.3442  0.6793 -0.1762
  573SOL     OW 5216   6.957  10.298   0.173  0.3896 -0.4784  0.9711
  573SOL    HW1 5217   6.895  10.369   0.155 -1.3462 -1.5450  2.3233
  573SOL    HW2 5218   7.027  10.339   0.223  1.2527  0.9205 -1.2509
  574SOL     OW 5219   2.821   2.543  10.195 -0.0247 -0.6513  0.4031
  574SOL    HW1 5220   2.801   2.554  10.288  0.3271  0.8280  0.3314
  574SOL    HW2 5221   2.886   2.610  10.176  1.2162 -2.0454 -0.5375
  575SOL     OW 5222   9.137   4.501   1.004  0.2877  0.0660 -0.0568
  575SOL    HW1 5223   9.122   4.445   1.080 -0.5764 -0.7211 -0.7876
  575SOL    HW2 5224   9.135   4.441   0.929 -3.0238  1.2801 -1.1250
  576SOL     OW 5225   6.652   6.935   7.039  0.2397  0.3502  0.5851
  576SOL    HW1 5226   6.651   6.927   6.944  0.0779 -1.3764  0.6950
  576SOL    HW2 5227   6.733   6.892   7.066 -0.5410 -0.7398  1.3081
  577SOL     OW 5228   9.388   0.000   6.339 -0.0295  0.4603 -0.1344
  577SOL    HW1 5229   9.317   0.065   6.341 -2.4098 -1.9921  0.0472
  577SOL    HW2 5230   9.443   0.028   6.267 -3.0275  0.7080 -2.5378
  578SOL     OW 5231   9.807   2.158   6.209  0.4880  0.0944  0.7708
  578SOL    HW1 5232   9.793   2.094   6.278  2.2377 -0.2000  0.9031
  578SOL    HW2 5233   9.859   2.112   6.144  0.7547  1.0323  0.2962
  579SOL     OW 5234   1.254   6.246   1.920 -0.4846  0.1279 -0.1083
  579SOL    HW1 5235   1.160   6.232   1.932 -0.4585 -1.5950 -1.4410
  579SOL    HW2 5236   1.294   6.205   1.996 -0.8164  1.9445  1.1005
  580SOL     OW 5237   3.228   6.319  10.362 -0.0320  0.4074 -0.3439
  580SOL    HW1 5238   3.243   6.225  10.359  0.8913  0.5123  0.3039
  580SOL    HW2 5239   3.308   6.357  10.325  0.0955  0.9562  0.4671
  581SOL     OW 5240   7.903   9.907   6.598  0.3505 -0.0624  0.2930
  581SOL    HW1 5241   7.899   9.980   6.659 -0.4663 -1.8017  2.4687
  581SOL    HW2 5242   7.993   9.874   6.607  0.7540  0.7118 -0.7731
  582SOL     OW 5243   3.113   5.139   5.264 -0.0133  0.4590 -0.4535
  582SOL    HW1 5244   3.050   5.207   5.241  0.3643  0.3026 -2.0455
  582SOL    HW2 5245   3.100   5.070   5.199  0.3948 -0.5050  0.4439
  583SOL     OW 5246   0.701   0.255   1.225 -0.5583 -0.3871  0.6993
  583SOL    HW1 5247   0.654   0.314   1.283  0.2060  0.8104  0.1383
  583SOL    HW2 5248   0.636   0.226   1.162 -0.9066 -0.0149  0.8892
  584SOL     OW 5249   1.815   6.954   5.447 -0.1585  0.2246 -0.3214
  584SOL    HW1 5250   1.858   6.870   5.462  1.2398  1.1811  1.4021
  584SOL    HW2 5251   1.746   6.958   5.514  0.2188  0.7291  0.0384
  585SOL     OW 5252   6.242   6.482   1.092 -0.1728 -0.0410  0.3108
  585SOL    HW1 5253   6.324   6.470   1.139  1.0578  1.9748 -1.1549
  585SOL    HW2 5254   6.257   6.438   1.008 -0.1272  1.3217 -0.4134
  586SOL     OW 5255   8.259   4.750   5.236  0.4175 -0.2698 -0.0568
  586SOL    HW1 5256   8.259   4.738   5.331  1.4559 -1.0730 -0.1309
  586SOL    HW2 5257   8.352   4.742   5.211  0.2014  0.2604 -1.0978
  587SOL     OW 5258   6.841   2.231   1.134 -0.0782 -0.9258  0.0865
  587SOL    HW1 5259   6.749   2.256   1.147  0.4930  0.1664  2.5257
  587SOL    HW2 5260   6.837   2.159   1.071 -2.4918 -0.1190 -0.8241
  588SOL     OW 5261   0.699   4.974   1.547  0.2429 -0.3978 -0.7001
  588SOL    HW1 5262   0.620   4.969   1.494  1.3184  1.2314 -2.5981
  588SOL    HW2 5263   0.713   5.068   1.561  0.3758 -0.7297  2.0059
  589SOL     OW 5264   9.098   1.823   0.216  0.0079 -0.2758 -0.6123
  589SOL    HW1 5265   9.155   1.805   0.291 -1.1699 -1.0637  0.1425
  589SOL    HW2 5266   9.074   1.736   0.183 -0.2307  0.0510 -1.3246
  590SOL     OW 5267   7.259   3.744   2.960 -0.2963  0.4903  0.0935
  590SOL    HW1 5268   7.277   3.660   2.917 -0.2144  0.7550 -0.3989
  590SOL    HW2 5269   7.345   3.786   2.968 -0.4021  0.7703 -0.1841
  591SOL     OW 5270   0.208   5.295   4.237 -0.3031 -0.2472  0.2733
  591SOL    HW1 5271   0.114   5.286   4.253 -0.5343 -2.3883 -1.7144
  591SOL    HW2 5272   0.244   5.208   4.256  0.8571 -0.1528 -1.2750
  592SOL     OW 5273   0.195   4.020   6.053  0.0437  0.7408 -0.0333
  592SOL    HW1 5274   0.119   4.078   6.054  0.3159  1.1058  0.3438
  592SOL    HW2 5275   0.175   3.953   5.988 -0.9222  0.3958  0.6057
  593SOL     OW 5276   2.171   2.142   5.453  0.1936 -0.0564  0.9813
  593SOL    HW1 5277   2.246   2.199   5.470  0.1725 -0.1224  1.3023
  593SOL    HW2 5278   2.177   2.121   5.360  0.3694  0.2298  0.9270
  594SOL     OW 5279   9.406   8.238   8.352 -0.1041 -0.2156  0.0517
  594SOL    HW1 5280   9.452   8.267   8.273 -1.1128 -0.9623 -0.8280
  594SOL    HW2 5281   9.452   8.159   8.379 -0.9578 -1.0841 -0.9525
  595SOL     OW 5282   4.943   1.614   9.822 -0.1565 -0.5796 -0.5181
  595SOL    HW1 5283   4.948   1.681   9.754  0.1963 -1.3672 -1.2829
  595SOL    HW2 5284   4.951   1.531   9.775 -1.7223 -1.2307  0.2689
  596SOL     OW 5285   6.208   1.040   9.488  0.0340  0.2103 -0.2306
  596SOL    HW1 5286   6.272   0.982   9.447  0.1879 -0.4368  0.9059
  596SOL    HW2 5287   6.220   1.027   9.582 -1.0841  0.8369  0.0128
  597SOL     OW 5288  10.402   7.616   7.794  0.0852  0.3134  0.0610
  597SOL    HW1 5289  10.350   7.655   7.723  0.6383 -1.1271 -1.2036
  597SOL    HW2 5290  10.350   7.542   7.824  0.9867 -0.6342 -0.6422
  598SOL     OW 5291   8.903   5.146   3.321  0.1107  0.2702 -0.3749
  598SOL    HW1 5292   8.891   5.098   3.403  0.9874 -0.6930 -0.7983
  598SOL    HW2 5293   8.895   5.079   3.253 -1.5235  1.2013 -1.1613
  599SOL     OW 5294   8.052   5.568   7.953 -0.0181  0.0413 -0.4416
  599SOL    HW1 5295   7.995   5.604   8.022 -1.1730 -0.5669 -1.0412
  599SOL    HW2 5296   8.063   5.476   7.977 -0.2247 -0.1127 -0.9325
  600SOL     OW 5297   5.218   6.558   6.202 -0.2831  0.3938 -0.2005
  600SOL    HW1 5298   5.232   6.486   6.140 -1.0669  0.1242 -0.0714
  600SOL    HW2 5299   5.263   6.530   6.282  0.7153  0.7325 -0.6165
  601SOL     OW 5300   5.101  10.905   8.281  0.1185  0.3419 -0.7823
  601SOL    HW1 5301   5.121  10.937   8.193 -1.0441  1.1206 -0.7904
  601SOL    HW2 5302   5.005  10.903   8.284  0.1424  0.6894  0.5954
  602SOL     OW 5303   8.403   3.623   6.176 -0.0110  0.6100  0.8140
  602SOL    HW1 5304   8.425   3.642   6.268 -2.3942  0.5346  1.4616
  602SOL    HW2 5305   8.446   3.540   6.158  1.2194  1.0551  1.5611
  603SOL     OW 5306   3.389   4.159   5.433 -0.0848  0.2630  0.0304
  603SOL    HW1 5307   3.369   4.077   5.387  0.1295 -0.1515  0.6470
  603SOL    HW2 5308   3.303   4.198   5.449 -0.2962 -0.4779  0.8361
  604SOL     OW 5309   6.961   7.604   4.286 -0.2695 -0.4795 -0.1504
  604SOL    HW1 5310   6.983   7.528   4.340  1.7545 -0.1168 -0.3667
  604SOL    HW2 5311   6.998   7.583   4.200 -0.8054  0.2169 -0.5615
  605SOL     OW 5312   0.584   8.830   2.513  0.6702  0.2039 -0.2744
  605SOL    HW1 5313   0.600   8.813   2.420  0.4057  3.2000 -0.9630
  605SOL    HW2 5314   0.535   8.754   2.543  3.2762 -2.2942 -1.7693
  606SOL     OW 5315   6.683   4.015   1.100 -0.0834 -0.2533  0.1840
  606SOL    HW1 5316   6.621   3.964   1.152 -1.1111  1.3862  0.6233
  606SOL    HW2 5317   6.632   4.087   1.064  1.6596  1.5010  1.0308
  607SOL     OW 5318   8.171   9.464   0.295  0.0681  0.1378 -0.0089
  607SOL    HW1 5319   8.244   9.403   0.302  0.3582  0.5811  0.9837
  607SOL    HW2 5320   8.126   9.457   0.380 -1.1002 -0.1964 -0.6300
  608SOL     OW 5321   6.685   2.158   3.543  0.6615  0.1975 -0.0029
  608SOL    HW1 5322   6.629   2.233   3.525 -0.3870 -0.9091 -1.7479
  608SOL    HW2 5323   6.704   2.121   3.456  2.0142 -0.9265  0.7278
  609SOL     OW 5324   1.500   4.650   9.236  0.0783 -0.6750 -0.5581
  609SOL    HW1 5325   1.595   4.665   9.244 -0.0921  0.7292 -0.9321
  609SOL    HW2 5326   1.475   4.697   9.156 -1.0510 -0.4132 -0.0735
  610SOL     OW 5327   7.924   6.402   9.855 -0.0435 -0.0848 -0.0935
  610SOL    HW1 5328   7.919   6.439   9.767 -0.9846 -3.4535 -1.6387
  610SOL    HW2 5329   8.015   6.376   9.865  0.0273  0.1358 -0.1639
  611SOL     OW 5330   7.134   1.295   3.483  0.2954 -0.2076  0.2016
  611SOL    HW1 5331   7.136   1.342   3.566  0.4234 -1.4812  0.9488
  611SOL    HW2 5332   7.225   1.297   3.452  1.3192 -3.5296  2.3887
  612SOL     OW 5333   5.832   9.289   6.549 -0.0948 -0.1812 -0.0615
  612SOL    HW1 5334   5.818   9.237   6.470  0.0065 -0.6482  0.2294
  612SOL    HW2 5335   5.770   9.255   6.613  0.5998 -0.5740  0.4236
  613SOL     OW 5336   6.431   5.489   6.322 -0.1151 -0.4214  0.1528
  613SOL    HW1 5337   6.430   5.570   6.270 -2.0890 -0.4021  0.1348
  613SOL    HW2 5338   6.396   5.422   6.263 -0.3400 -0.8646  0.7824
  614SOL     OW 5339   9.401   8.809   7.013  0.5260 -0.1218 -0.1911
  614SOL    HW1 5340   9.432   8.861   7.086  0.6140 -1.4286  0.7339
  614SOL    HW2 5341   9.305   8.809   7.022  0.5711 -0.8482  0.3375
  615SOL     OW 5342   6.398   7.195   5.413 -0.1874  0.3062  0.6882
  615SOL    HW1 5343   6.451   7.261   5.458  0.0414 -0.9074  2.2929
  615SOL    HW2 5344   6.317   7.191   5.465 -1.2558  1.0381 -0.8314
  616SOL     OW 5345   0.666   0.474   0.232  0.2603  0.4588 -0.1107
  616SOL    HW1 5346   0.574   0.450   0.227  0.6410 -1.7330  1.6421
  616SOL    HW2 5347   0.673   0.554   0.180 -2.3237 -0.1104 -1.5096
  617SOL     OW 5348   2.511   7.852   9.793 -0.6104  0.1726  0.0143
  617SOL    HW1 5349   2.474   7.929   9.750 -0.9478 -0.5771 -1.0822
  617SOL    HW2 5350   2.556   7.804   9.723  0.5930 -0.0405  0.9128
  618SOL     OW 5351  10.453   3.657   6.528  0.3881 -0.5282  0.3388
  618SOL    HW1 5352  10.458   3.671   6.433 -1.6438 -0.1867  0.2509
  618SOL    HW2 5353  10.527   3.706   6.562  1.1427 -0.6230 -1.0529
  619SOL     OW 5354   3.044   5.812   8.684 -0.1090 -0.5776  0.6246
  619SOL    HW1 5355   3.077   5.779   8.601 -0.1680 -3.2317  1.5355
  619SOL    HW2 5356   3.077   5.902   8.690  1.5229 -0.9770 -1.3716
  620SOL     OW 5357   6.683   6.084   0.180 -0.1562 -0.5792  0.5699
  620SOL    HW1 5358   6.742   6.029   0.129 -0.6780  0.1557 -0.8803
  620SOL    HW2 5359   6.725   6.171   0.179 -0.9492 -0.1956  0.0453
  621SOL     OW 5360  10.356   0.612   5.517  0.2561  0.2049 -0.2358
  621SOL    HW1 5361  10.288   0.654   5.570  1.3319  0.3546  1.0753
  621SOL    HW2 5362  10.432   0.668   5.529  0.8425 -0.4189 -1.0143
  622SOL     OW 5363   3.496   5.502   7.745  0.2033  0.2822  0.4909
  622SOL    HW1 5364   3.470   5.589   7.716 -1.4766 -0.6530 -1.0198
  622SOL    HW2 5365   3.575   5.482   7.695  0.5315  0.8905  0.7652
  623SOL     OW 5366   7.475   0.621   3.678  0.0456  0.0193  0.2298
  623SOL    HW1 5367   7.546   0.651   3.736  0.8413 -0.6073 -0.3965
  623SOL    HW2 5368   7.488   0.526   3.672 -0.7559 -0.0769 -0.0306
  624SOL     OW 5369  10.644   2.822   4.807 -0.6496 -0.0776 -0.3209
  624SOL    HW1 5370  10.717   2.770   4.773 -2.1524 -2.3205 -0.3099
  624SOL    HW2 5371  10.639   2.800   4.899 -0.4914  1.1988  0.0194
  625SOL     OW 5372   7.237   8.824   9.280  0.3466 -0.3011  0.6079
  625SOL    HW1 5373   7.274   8.818   9.192 -1.4562  0.0104 -0.2075
  625SOL    HW2 5374   7.270   8.746   9.325  1.7137 -0.2040 -0.1459
  626SOL     OW 5375   8.113   0.013   6.800  0.6439  0.4572  0.5358
  626SOL    HW1 5376   8.024  -0.015   6.823  0.3717  0.5142 -0.4361
  626SOL    HW2 5377   8.104   0.054   6.714  1.7421 -0.2296  0.0759
  627SOL     OW 5378   2.015  10.258   1.598 -0.3487 -0.3274  0.4161
  627SOL    HW1 5379   2.013  10.345   1.639  1.0873 -1.1715  2.4467
  627SOL    HW2 5380   2.103  10.252   1.561 -0.1825 -1.1586  0.9276
  628SOL     OW 5381   3.742  10.671   7.624 -0.1397 -0.1056 -0.5515
  628SOL    HW1 5382   3.685  10.745   7.647 -1.4382 -1.3618  0.4594
  628SOL    HW2 5383   3.794  10.703   7.551 -1.7098  1.3281 -1.1146
  629SOL     OW 5384   9.260   0.782   7.772  0.0200 -0.4816 -0.7156
  629SOL    HW1 5385   9.295   0.749   7.690 -0.5537 -1.1202 -0.7103
  629SOL    HW2 5386   9.198   0.715   7.801 -0.2416  0.0219 -0.0762
  630SOL     OW 5387   5.637   5.016   7.973  0.1320  0.1996  0.3643
  630SOL    HW1 5388   5.618   4.994   8.064  0.3070 -0.4690  0.2465
  630SOL    HW2 5389   5.733   5.012   7.966  0.0670 -0.7709 -0.0894
  631SOL     OW 5390   0.806   2.493   4.759  0.2613 -0.1678  0.4531
  631SOL    HW1 5391   0.798   2.467   4.667  0.1595  0.3241  0.3215
  631SOL    HW2 5392   0.718   2.521   4.784  0.5901  1.0935  0.2669
  632SOL     OW 5393   8.520   2.029   9.253 -0.2576 -0.0861  0.3374
  632SOL    HW1 5394   8.491   2.036   9.162  0.0843  1.3120  0.3027
  632SOL    HW2 5395   8.497   2.113   9.292  2.6236  0.7163  0.5980
  633SOL     OW 5396  10.071   9.330   9.812  0.2481  0.4705  0.2710
  633SOL    HW1 5397  10.028   9.264   9.867  1.9863 -0.6353  0.3772
  633SOL    HW2 5398  10.040   9.414   9.846 -0.5374 -0.2412  1.3867
  634SOL     OW 5399   1.509   9.048   7.355 -0.1095 -0.5956 -0.3544
  634SOL    HW1 5400   1.592   9.096   7.355 -1.9367  2.9356 -0.5398
  634SOL    HW2 5401   1.503   9.012   7.267  0.0174  1.6567 -1.3665
  635SOL     OW 5402   7.560   4.912   3.761 -0.0863 -0.4614  0.1402
  635SOL    HW1 5403   7.622   4.983   3.775 -1.1234  0.0413  2.9659
  635SOL    HW2 5404   7.588   4.843   3.822 -1.2548 -0.9235  0.1846
  636SOL     OW 5405   7.308   6.835   5.285 -0.0742 -0.1922 -0.6666
  636SOL    HW1 5406   7.313   6.930   5.297 -0.2604 -0.0584 -1.5739
  636SOL    HW2 5407   7.245   6.823   5.215 -2.2227 -1.1559  1.2970
  637SOL     OW 5408   8.267   5.352   8.035 -0.3207  0.3711  0.7767
  637SOL    HW1 5409   8.231   5.363   7.947  0.5950  2.3284  0.5947
  637SOL    HW2 5410   8.362   5.342   8.021 -0.4670 -2.9613  1.3570
  638SOL     OW 5411   9.423   3.015  10.655 -0.0525  0.0431 -0.1119
  638SOL    HW1 5412   9.384   3.097  10.686 -0.1219  0.3287 -0.9077
  638SOL    HW2 5413   9.510   3.040  10.624  0.6953 -0.5481  1.4133
  639SOL     OW 5414   1.957   5.036   8.060 -0.0254 -0.3855 -0.2634
  639SOL    HW1 5415   2.035   5.067   8.014  0.0861 -1.6396 -0.9639
  639SOL    HW2 5416   1.949   5.094   8.135  2.6760 -1.3602  0.9028
  640SOL     OW 5417   9.769   2.827  10.352  0.1915 -0.3085 -0.0043
  640SOL    HW1 5418   9.805   2.824  10.441  1.2947 -0.1301 -0.4225
  640SOL    HW2 5419   9.806   2.751  10.308 -1.5188 -1.2433  0.0783
  641SOL     OW 5420   3.715   6.740   2.254 -0.4358  0.3214  0.3411
  641SOL    HW1 5421   3.723   6.756   2.348  1.7293  0.3332  0.2021
  641SOL    HW2 5422   3.722   6.826   2.214 -0.5155  0.2306  0.1268
  642SOL     OW 5423   5.071   2.644   5.836 -0.2061  0.4958 -0.2323
  642SOL    HW1 5424   5.138   2.702   5.800  0.0065  0.8323  0.6783
  642SOL    HW2 5425   5.117   2.589   5.898 -0.6201  0.1453 -0.2298
  643SOL     OW 5426   5.993   7.190   7.431 -0.2150 -0.1712 -0.4352
  643SOL    HW1 5427   5.985   7.137   7.510 -0.3543  0.3740 -0.0787
  643SOL    HW2 5428   6.037   7.132   7.368  1.2378 -0.1394  0.4919
  644SOL     OW 5429   4.738   2.873   6.134 -0.4799 -0.7178  0.0161
  644SOL    HW1 5430   4.828   2.842   6.131 -0.2563 -0.0570 -0.5715
  644SOL    HW2 5431   4.737   2.940   6.202 -0.6024 -0.9493  0.2424
  645SOL     OW 5432   0.008   1.978   7.733 -0.0268  0.0481  0.0237
  645SOL    HW1 5433   0.059   1.967   7.813  0.2888 -0.8526 -0.2920
  645SOL    HW2 5434   0.072   2.000   7.666 -0.0562 -0.8776 -0.3282
  646SOL     OW 5435   6.786   8.546   7.798  0.0730  0.0537  0.4137
  646SOL    HW1 5436   6.791   8.545   7.702  1.3466 -0.2511  0.4702
  646SOL    HW2 5437   6.802   8.638   7.821 -3.7424  0.9159  0.2262
  647SOL     OW 5438   4.918   1.901   8.088  0.2106 -0.3172 -0.4342
  647SOL    HW1 5439   4.857   1.972   8.108  0.3508 -0.1830 -0.4765
  647SOL    HW2 5440   4.964   1.885   8.170 -0.5709 -1.0967 -0.1344
  648SOL     OW 5441   9.425   7.508  11.003 -1.1079  0.2782 -0.2069
  648SOL    HW1 5442   9.399   7.572  11.069 -1.2257 -0.5069  0.5380
  648SOL    HW2 5443   9.352   7.505  10.942 -1.3616  0.4221  0.0850
  649SOL     OW 5444   0.668   7.708   0.491  0.8129  0.5295  0.3206
  649SOL    HW1 5445   0.717   7.777   0.534 -0.5485  1.7757 -0.0283
  649SOL    HW2 5446   0.726   7.632   0.492  1.7465  1.2112  2.1343
  650SOL     OW 5447  10.729   2.920   7.462  0.2185 -0.1844  0.0911
  650SOL    HW1 5448  10.759   2.971   7.386  0.2431  0.0557  0.2599
  650SOL    HW2 5449  10.666   2.858   7.426  2.0060 -1.7195 -0.5298
  651SOL     OW 5450   1.656   8.527   5.044  0.0576 -0.2388  0.1821
  651SOL    HW1 5451   1.593   8.491   5.106  1.9590 -0.3289  2.1633
  651SOL    HW2 5452   1.706   8.451   5.013  1.2253  0.1377  1.0576
  652SOL     OW 5453   0.990   1.803   3.481  0.5218  0.0959 -0.7933
  652SOL    HW1 5454   1.029   1.719   3.505 -0.9483 -0.6846 -0.9823
  652SOL    HW2 5455   0.895   1.788   3.486  0.2140  1.7284 -0.9007
  653SOL     OW 5456  10.752   0.719   5.211 -0.5067  0.1045 -0.0825
  653SOL    HW1 5457  10.823   0.777   5.184 -0.4104  0.8178  1.5568
  653SOL    HW2 5458  10.793   0.633   5.218 -0.3551  0.0558 -1.3082
  654SOL     OW 5459   5.573  10.943   2.721  0.0181 -0.0467  0.0046
  654SOL    HW1 5460   5.543  10.856   2.694  1.3857 -0.7509  0.6426
  654SOL    HW2 5461   5.641  10.966   2.657 -1.5296  1.3574 -1.2045
  655SOL     OW 5462   3.280   9.468   5.573 -0.2635  0.0524 -0.4115
  655SOL    HW1 5463   3.259   9.546   5.522  2.2870  2.6514  2.1516
  655SOL    HW2 5464   3.349   9.424   5.525  0.3231  1.0292 -0.4660
  656SOL     OW 5465   4.213   0.057   5.099 -0.0975  0.1187  0.2532
  656SOL    HW1 5466   4.118   0.060   5.102 -0.1598 -1.3626  1.1615
  656SOL    HW2 5467   4.241   0.077   5.188  0.2371 -2.4958  0.8400
  657SOL     OW 5468   0.514  10.515   3.844 -0.1343  0.2752  0.0520
  657SOL    HW1 5469   0.496  10.595   3.794 -0.5666 -0.4701 -1.0408
  657SOL    HW2 5470   0.505  10.445   3.779  1.2395 -0.5830  0.7637
  658SOL     OW 5471   8.554   9.249   2.765 -0.2122 -0.1855  0.2075
  658SOL    HW1 5472   8.574   9.271   2.674  0.9026  1.2268  0.7565
  658SOL    HW2 5473   8.604   9.169   2.782  0.1418 -0.0561 -0.2104
  659SOL     OW 5474   2.637   5.756   1.610  0.1125 -0.3813 -0.4164
  659SOL    HW1 5475   2.724   5.722   1.593  0.4737 -0.8473  2.0530
  659SOL    HW2 5476   2.579   5.680   1.605 -0.0827 -0.1837 -1.3949
  660SOL     OW 5477   8.402   3.186  10.146  0.9030 -0.0757 -0.6472
  660SOL    HW1 5478   8.421   3.257  10.085  0.8750  1.7532  1.3709
  660SOL    HW2 5479   8.358   3.120  10.093 -0.4570  2.0371 -2.3235
  661SOL     OW 5480   4.941   2.549   7.985 -0.0112 -0.2894  0.6106
  661SOL    HW1 5481   4.925   2.612   7.915 -1.1905  1.4360  2.3157
  661SOL    HW2 5482   4.968   2.603   8.059  5.3303 -2.3441  0.5195
  662SOL     OW 5483   5.072   0.411   5.532  0.2540 -0.1613 -0.2328
  662SOL    HW1 5484   5.050   0.344   5.468 -0.1625 -0.1588 -0.0984
  662SOL    HW2 5485   5.157   0.444   5.505 -0.3262  0.4931 -1.3289
  663SOL     OW 5486   4.059   5.797   2.381 -0.5183  0.6163  0.1895
  663SOL    HW1 5487   4.017   5.851   2.448 -0.8176  0.9800 -0.2822
  663SOL    HW2 5488   4.032   5.708   2.402 -3.7561  0.9929 -1.5603
  664SOL     OW 5489   7.243   8.295   4.011  0.1493 -0.0504 -0.4584
  664SOL    HW1 5490   7.201   8.337   4.086 -0.7230  1.2733 -1.6523
  664SOL    HW2 5491   7.197   8.211   4.002  0.6012 -0.4659  0.7459
  665SOL     OW 5492   7.253   3.944   9.786 -0.1392 -0.1820 -0.8275
  665SOL    HW1 5493   7.170   3.981   9.815  1.2183  0.5374  2.6197
  665SOL    HW2 5494   7.292   3.907   9.866  3.0838 -0.0264 -2.1792
  666SOL     OW 5495  10.167   5.571   6.145 -0.5589  0.1206 -0.3881
  666SOL    HW1 5496  10.142   5.480   6.165  0.2577  0.3487  2.0054
  666SOL    HW2 5497  10.107   5.598   6.076 -0.3657 -2.4567 -1.6950
  667SOL     OW 5498   5.739   6.900   3.897 -0.0954  0.7126  0.7355
  667SOL    HW1 5499   5.762   6.857   3.979  2.8198  1.4249  0.3786
  667SOL    HW2 5500   5.664   6.850   3.864 -0.2877 -0.6075  2.9869
  668SOL     OW 5501   8.942   9.550   0.004 -0.0369  0.3628  0.1858
  668SOL    HW1 5502   9.028   9.581  -0.023  0.5621 -1.3780  0.0344
  668SOL    HW2 5503   8.903   9.514  -0.075 -1.4205  2.1427 -0.0243
  669SOL     OW 5504   8.749   2.680   4.471 -0.1983  0.8288  0.2730
  669SOL    HW1 5505   8.770   2.596   4.430 -2.7428  0.5708 -0.7333
  669SOL    HW2 5506   8.805   2.743   4.426 -0.5946  0.0790 -1.3877
  670SOL     OW 5507   9.549   7.521   8.077  0.4192  0.0617 -0.1599
  670SOL    HW1 5508   9.461   7.558   8.074  0.9879  1.6219  0.8951
  670SOL    HW2 5509   9.537   7.435   8.118 -0.8398 -0.6884 -1.9617
  671SOL     OW 5510   8.191   0.434   8.347  0.1210 -0.1867 -0.0977
  671SOL    HW1 5511   8.098   0.455   8.362 -0.3680 -1.8799 -0.5413
  671SOL    HW2 5512   8.214   0.376   8.419 -0.5676 -3.5684 -2.3650
  672SOL     OW 5513   2.750   5.396   6.760 -0.1871  0.3702  0.3874
  672SOL    HW1 5514   2.671   5.436   6.723  0.3389  0.6287 -0.4663
  672SOL    HW2 5515   2.798   5.470   6.798  0.4241  0.4621 -0.5343
  673SOL     OW 5516   4.246   4.975   0.662  0.1387 -0.1586  0.1861
  673SOL    HW1 5517   4.280   5.055   0.702  1.3902 -0.5281 -0.0755
  673SOL    HW2 5518   4.205   5.004   0.581  2.8794  0.0180 -1.2460
  674SOL     OW 5519   8.997   1.521   5.502 -0.2870  0.1906 -0.8443
  674SOL    HW1 5520   9.059   1.526   5.576 -1.5267 -0.5651  0.2869
  674SOL    HW2 5521   9.029   1.587   5.440  2.9037 -1.5656 -1.3059
  675SOL     OW 5522   2.178  10.330   6.706  0.2113  0.2561  0.2267
  675SOL    HW1 5523   2.114  10.362   6.642  0.2076  1.0308  0.6077
  675SOL    HW2 5524   2.217  10.254   6.664 -0.1286  0.4690 -0.5004
  676SOL     OW 5525   0.453   9.139  10.423 -0.2103 -0.3872  0.1363
  676SOL    HW1 5526   0.445   9.057  10.374  1.6196 -0.7084  0.3269
  676SOL    HW2 5527   0.498   9.115  10.503 -1.9643  0.3808  1.4348
  677SOL     OW 5528   2.939   7.437   1.029  0.6767  0.0281 -0.1997
  677SOL    HW1 5529   3.005   7.459   0.963  0.1074  2.2936 -0.1114
  677SOL    HW2 5530   2.882   7.374   0.985  2.0915 -0.9124 -0.7456
  678SOL     OW 5531   5.935   9.466   0.882  0.2264 -0.1837  0.1831
  678SOL    HW1 5532   5.875   9.481   0.955 -0.5180  2.4298 -0.8338
  678SOL    HW2 5533   5.886   9.495   0.805  2.3749  1.0335 -0.8306
  679SOL     OW 5534   7.293   5.130   5.888 -0.3757 -0.0792 -0.2308
  679SOL    HW1 5535   7.322   5.187   5.959  1.7220  1.3643 -2.0963
  679SOL    HW2 5536   7.253   5.189   5.824  0.8632 -0.8072 -1.7379
  680SOL     OW 5537   4.577   5.925   5.718  0.0527 -0.0399 -0.0300
  680SOL    HW1 5538   4.653   5.914   5.660 -0.2991  2.1398 -1.0056
  680SOL    HW2 5539   4.509   5.870   5.680  1.0312 -1.8552  0.7342
  681SOL     OW 5540   4.075   0.021   6.468 -0.4493  0.0132  0.3476
  681SOL    HW1 5541   4.005  -0.038   6.498 -1.4772 -0.1575 -2.1109
  681SOL    HW2 5542   4.029   0.093   6.424  0.8732  0.3266 -0.6153
  682SOL     OW 5543   7.849  10.179   4.383  0.6989  0.0095 -0.8216
  682SOL    HW1 5544   7.846  10.226   4.466  0.3395 -0.5550 -0.5087
  682SOL    HW2 5545   7.872  10.089   4.408  0.2864 -0.2303 -1.3052
  683SOL     OW 5546   4.740   5.968   5.494 -0.1200 -0.3184 -0.0520
  683SOL    HW1 5547   4.797   5.963   5.417  2.8717 -0.8658  2.0514
  683SOL    HW2 5548   4.715   6.060   5.499 -1.6570 -0.4944 -2.4027
  684SOL     OW 5549   0.064   8.871   9.384  0.5001 -0.9479 -0.0659
  684SOL    HW1 5550   0.065   8.965   9.363 -0.2407 -0.8578  0.2950
  684SOL    HW2 5551   0.147   8.838   9.348  1.4652  0.1253  1.0774
  685SOL     OW 5552   4.929   3.563   6.987 -0.0826 -0.6179  0.3784
  685SOL    HW1 5553   5.001   3.595   7.041 -0.3866 -2.4565  1.9798
  685SOL    HW2 5554   4.972   3.516   6.915  0.3176 -0.7135  0.6789
  686SOL     OW 5555   1.575   8.368   9.183  0.4165 -0.5805  0.5886
  686SOL    HW1 5556   1.539   8.298   9.129 -0.1581 -0.7849  1.2194
  686SOL    HW2 5557   1.550   8.345   9.273 -0.2345  0.6931  0.7600
  687SOL     OW 5558   0.363   9.484   8.017  0.2957 -0.7516  0.0149
  687SOL    HW1 5559   0.382   9.474   8.110  0.3663  0.1151  0.1019
  687SOL    HW2 5560   0.372   9.396   7.981  0.3339 -1.0801  0.8135
  688SOL     OW 5561   0.317   6.445   4.233 -0.0973 -0.0009  0.0302
  688SOL    HW1 5562   0.381   6.511   4.207  1.5223 -1.5233  0.0105
  688SOL    HW2 5563   0.291   6.403   4.151  0.2158 -0.5655  0.2187
  689SOL     OW 5564   8.264   1.744   6.266 -0.1916 -0.0770 -0.2644
  689SOL    HW1 5565   8.288   1.764   6.356  1.2892  0.2998 -0.7159
  689SOL    HW2 5566   8.168   1.753   6.264 -0.1358  1.0918  0.9637
  690SOL     OW 5567   4.389   6.812   5.028  0.2998  0.4365 -0.0996
  690SOL    HW1 5568   4.470   6.789   4.983  0.1084  1.5071 -1.0432
  690SOL    HW2 5569   4.416   6.868   5.100  0.6683 -1.7673  1.5929
  691SOL     OW 5570   7.157   0.348   8.206  0.0627  0.1854 -0.1186
  691SOL    HW1 5571   7.225   0.384   8.263  0.1485 -0.3282  0.1112
  691SOL    HW2 5572   7.083   0.332   8.266  0.0103  0.0272 -0.2255
  692SOL     OW 5573   9.022   9.457   1.167 -0.3070  0.0606  0.3955
  692SOL    HW1 5574   9.083   9.522   1.202  0.0417  0.4470 -0.8477
  692SOL    HW2 5575   8.990   9.497   1.085  1.0881 -1.9556 -1.2250
  693SOL     OW 5576   9.558   8.370   4.499 -0.6090 -0.4696  0.1108
  693SOL    HW1 5577   9.525   8.428   4.430  0.4165  0.0143  0.0160
  693SOL    HW2 5578   9.619   8.424   4.549 -1.7290 -0.6477  1.7532
  694SOL     OW 5579   8.202   4.758   3.151  0.2607  0.5998 -0.1302
  694SOL    HW1 5580   8.190   4.852   3.138  0.0410  0.7357  0.9280
  694SOL    HW2 5581   8.249   4.729   3.074 -0.3849  1.4298 -0.8632
  695SOL     OW 5582   3.905   8.124  10.371 -0.3824  0.3364 -0.5961
  695SOL    HW1 5583   3.993   8.143  10.403 -0.8165 -0.0484  0.9195
  695SOL    HW2 5584   3.847   8.174  10.428 -1.2376 -1.0389 -0.2084
  696SOL     OW 5585   4.746   7.848   9.365 -0.6878 -0.2569 -0.1776
  696SOL    HW1 5586   4.723   7.756   9.356 -1.3547 -0.1335  0.2053
  696SOL    HW2 5587   4.832   7.856   9.322 -1.5514 -0.6388 -2.0877
  697SOL     OW 5588   8.343   0.739   4.482  0.2471  0.3686 -0.4118
  697SOL    HW1 5589   8.368   0.738   4.389  1.5910  0.2827 -0.0828
  697SOL    HW2 5590   8.271   0.800   4.487  0.8625  1.2048 -1.3631
  698SOL     OW 5591   7.853  10.531   7.312  0.3770  0.2150  0.5479
  698SOL    HW1 5592   7.868  10.528   7.407  0.2345 -0.4817  0.5525
  698SOL    HW2 5593   7.795  10.607   7.300 -0.2130 -0.1347  1.1110
  699SOL     OW 5594   0.653   7.596   9.477 -0.2121 -0.0496 -0.3092
  699SOL    HW1 5595   0.636   7.580   9.570 -2.8746 -2.7797 -1.0975
  699SOL    HW2 5596   0.726   7.539   9.455 -1.4967 -1.7140 -0.4327
  700SOL     OW 5597   4.265   6.069   5.249 -0.0999 -1.0653 -0.0971
  700SOL    HW1 5598   4.264   6.118   5.167  0.2949 -0.8708  0.0134
  700SOL    HW2 5599   4.185   6.017   5.247 -1.4221  0.8806  0.5891
  701SOL     OW 5600   3.536  10.148   0.523 -0.3406  0.0218  0.3768
  701SOL    HW1 5601   3.558  10.233   0.561  1.3239 -0.0895 -0.2521
  701SOL    HW2 5602   3.446  10.132   0.550 -0.7669  2.0840  0.3196
  702SOL     OW 5603  10.278   6.559   7.059 -0.1553 -0.4630 -0.0235
  702SOL    HW1 5604  10.357   6.598   7.022 -0.1877 -1.5281 -1.2713
  702SOL    HW2 5605  10.310   6.497   7.125  0.0081 -0.4448 -0.0859
  703SOL     OW 5606   2.174   4.306   4.421  0.4825  0.4095 -0.4737
  703SOL    HW1 5607   2.196   4.248   4.348  0.0748  0.0840 -0.3448
  703SOL    HW2 5608   2.085   4.279   4.446  0.0294  1.5195 -0.8300
  704SOL     OW 5609   3.829  10.001   2.149 -0.2740  0.2991  0.4484
  704SOL    HW1 5610   3.862  10.086   2.120  0.5938 -0.2169 -0.1253
  704SOL    HW2 5611   3.907   9.949   2.165 -0.7781 -0.9497 -0.9027
  705SOL     OW 5612   7.128   0.485   3.252  0.6965 -0.3360  0.3399
  705SOL    HW1 5613   7.169   0.560   3.295  2.5749 -0.2071 -1.4949
  705SOL    HW2 5614   7.089   0.522   3.173 -0.2105 -0.9814  0.4783
  706SOL     OW 5615   3.209   3.029   9.575 -0.2962  0.3485 -0.1507
  706SOL    HW1 5616   3.151   2.957   9.548  0.9418 -0.3797 -0.9846
  706SOL    HW2 5617   3.174   3.106   9.532  0.5146 -0.4527 -2.4150
  707SOL     OW 5618  10.881   4.038   1.285 -0.1265  0.8339  0.2114
  707SOL    HW1 5619  10.847   3.952   1.311  0.1504  0.1933 -1.4180
  707SOL    HW2 5620  10.809   4.079   1.237 -0.7528  2.1411  2.1302
  708SOL     OW 5621   9.102   0.480   2.769  0.3351  0.1857  0.5535
  708SOL    HW1 5622   9.165   0.521   2.829  0.3690 -0.5460  1.0266
  708SOL    HW2 5623   9.154   0.418   2.718  0.9988  3.0156 -2.5719
  709SOL     OW 5624   4.633   4.732  10.901  0.3540  0.1065  0.0212
  709SOL    HW1 5625   4.538   4.743  10.908  0.5621  1.3136  1.4862
  709SOL    HW2 5626   4.646   4.637  10.897 -0.9753 -0.0470 -1.9094
  710SOL     OW 5627   5.612   4.051   0.265  0.3276  0.3249  0.4464
  710SOL    HW1 5628   5.700   4.019   0.285  0.6204  0.3587 -0.6946
  710SOL    HW2 5629   5.580   4.088   0.347  1.7732  1.2201  0.6371
  711SOL     OW 5630  10.041   6.504   3.171 -0.0275 -0.6758 -0.0854
  711SOL    HW1 5631  10.104   6.433   3.157  0.4932 -0.5072  1.2552
  711SOL    HW2 5632   9.964   6.461   3.207 -0.4019 -0.7798 -0.9864
  712SOL     OW 5633   1.248   1.460   2.978 -0.4436  0.1026  0.2037
  712SOL    HW1 5634   1.192   1.419   2.912 -0.4512 -0.0526  0.3074
  712SOL    HW2 5635   1.331   1.475   2.932 -0.9451  1.4523 -0.3233
  713SOL     OW 5636  10.867   0.598   1.758 -0.3593  0.4006 -0.8623
  713SOL    HW1 5637  10.784   0.643   1.772 -0.5616 -0.2638  0.1410
  713SOL    HW2 5638  10.871   0.531   1.826  1.0045  0.4256 -0.8777
  714SOL     OW 5639   4.117   2.261   5.002  0.4144 -0.0616 -0.1770
  714SOL    HW1 5640   4.043   2.231   5.055  1.0004  1.4616  1.6275
  714SOL    HW2 5641   4.186   2.197   5.018  0.3607  0.0146  0.3783
  715SOL     OW 5642   4.635   9.229   9.333 -0.2316  0.1483  0.4580
  715SOL    HW1 5643   4.690   9.260   9.404 -0.1956 -1.0186  0.9628
  715SOL    HW2 5644   4.622   9.305   9.277  2.5848  0.2762 -0.1361
  716SOL     OW 5645   5.795   1.762   9.925  0.0135  0.0059 -0.2312
  716SOL    HW1 5646   5.732   1.825   9.893 -0.6125  0.8603  2.4012
  716SOL    HW2 5647   5.751   1.677   9.917 -0.9274  0.4358  0.2917
  717SOL     OW 5648   4.540   5.462   0.183 -0.3437 -0.2223 -0.2341
  717SOL    HW1 5649   4.471   5.477   0.247 -1.4638 -1.2085 -1.1579
  717SOL    HW2 5650   4.543   5.542   0.131  1.1149  0.9103  1.4638
  718SOL     OW 5651   3.851   9.446   9.676  0.1012 -0.2825  0.1713
  718SOL    HW1 5652   3.864   9.354   9.652  0.0284 -0.4929  0.8933
  718SOL    HW2 5653   3.758   9.451   9.701  0.3290 -0.2346  1.0333
  719SOL     OW 5654   7.708   8.611   1.657 -0.4437  0.6558  0.3144
  719SOL    HW1 5655   7.684   8.668   1.584  2.7221  1.4900 -0.2229
  719SOL    HW2 5656   7.671   8.526   1.633 -2.0408  1.5825 -0.7172
  720SOL     OW 5657   4.705   2.584   9.324 -0.8141 -0.3692  0.4601
  720SOL    HW1 5658   4.722   2.678   9.335 -1.8677 -0.2186  0.8919
  720SOL    HW2 5659   4.752   2.543   9.396 -0.6330 -0.1412  0.4744
  721SOL     OW 5660   2.416   8.641   5.935 -0.3442  0.0225 -0.3722
  721SOL    HW1 5661   2.487   8.706   5.938 -1.4262  1.2382  2.2379
  721SOL    HW2 5662   2.369   8.661   5.854 -0.1692  2.0012 -0.0336
  722SOL     OW 5663   0.149   5.094   6.658 -0.1058 -0.4518 -0.1017
  722SOL    HW1 5664   0.056   5.116   6.648 -0.5807 -2.1155  0.2184
  722SOL    HW2 5665   0.172   5.051   6.576  0.3561 -0.1699 -0.1246
  723SOL     OW 5666   5.820   1.044  10.830  0.4130  0.2724  0.0442
  723SOL    HW1 5667   5.789   1.075  10.916  1.3284 -1.5958  1.1052
  723SOL    HW2 5668   5.740   1.031  10.779 -0.4833 -1.9971  1.8584
  724SOL     OW 5669   6.063   0.180   5.736 -0.5728 -0.0072 -0.0376
  724SOL    HW1 5670   6.031   0.169   5.646 -1.4622  1.1667  0.1111
  724SOL    HW2 5671   6.066   0.275   5.748 -0.8294 -0.1621  1.3050
  725SOL     OW 5672   3.480   9.684   0.647 -0.1638  0.1165 -0.1727
  725SOL    HW1 5673   3.553   9.625   0.628  0.5006  0.8325  0.0819
  725SOL    HW2 5674   3.430   9.687   0.565 -0.7805 -1.5537  0.1180
  726SOL     OW 5675   2.430   7.073   9.737 -0.4815 -0.0448  0.1340
  726SOL    HW1 5676   2.392   6.985   9.743 -0.2594 -0.1368  0.1817
  726SOL    HW2 5677   2.457   7.094   9.826 -0.9894  0.2769  0.2202
  727SOL     OW 5678   9.042   2.210   8.265  0.4210  0.4337 -0.4622
  727SOL    HW1 5679   9.131   2.209   8.231  0.9152  0.2543  0.8174
  727SOL    HW2 5680   9.033   2.128   8.313  0.3199  1.4367  1.2935
  728SOL     OW 5681   1.345   5.271   1.742  0.4872 -0.4829 -0.1564
  728SOL    HW1 5682   1.298   5.351   1.718  1.3873  0.0030 -0.3347
  728SOL    HW2 5683   1.410   5.260   1.673 -0.4468 -2.0930 -0.8286
  729SOL     OW 5684   3.727   6.487   1.378  0.2548  0.1534  0.4739
  729SOL    HW1 5685   3.794   6.521   1.320 -0.0591  0.8257  0.4942
  729SOL    HW2 5686   3.755   6.397   1.397  0.4168 -0.0345 -0.6093
  730SOL     OW 5687  10.509   7.782   3.744  0.1477 -0.9179  0.6811
  730SOL    HW1 5688  10.546   7.764   3.830  0.2319 -1.9577  0.4365
  730SOL    HW2 5689  10.433   7.725   3.737 -1.0992  0.6366  0.8587
  731SOL     OW 5690   9.802   2.553  10.883 -0.1468 -0.1263  0.2490
  731SOL    HW1 5691   9.795   2.635  10.932  1.2568  0.5494 -0.5889
  731SOL    HW2 5692   9.770   2.486  10.943 -0.3510  0.9065  1.3403
  732SOL     OW 5693  10.176   3.744   1.943  0.5749 -0.5159 -0.4710
  732SOL    HW1 5694  10.164   3.730   1.849  2.4592 -1.2851 -0.6405
  732SOL    HW2 5695  10.131   3.671   1.985  1.4601 -1.3086 -0.8840
  733SOL     OW 5696  10.987   9.629   9.731 -0.1634  0.7809 -0.1530
  733SOL    HW1 5697  10.979   9.583   9.648 -0.6827 -0.9517  0.8085
  733SOL    HW2 5698  11.019   9.716   9.707 -0.1111  0.2678 -2.1325
  734SOL     OW 5699   5.384   5.047   8.699  0.0149 -0.1234  0.4557
  734SOL    HW1 5700   5.350   4.982   8.637 -0.3338  0.2926  0.2096
  734SOL    HW2 5701   5.354   5.131   8.665  0.1573  0.1416  0.9768
  735SOL     OW 5702   2.349   6.759   9.694  0.1664  0.3386  0.1325
  735SOL    HW1 5703   2.401   6.682   9.717 -0.0914 -0.8919 -2.8575
  735SOL    HW2 5704   2.375   6.779   9.604 -0.4980  3.2041  0.4742
  736SOL     OW 5705   7.844   4.004   7.415 -0.3955  0.5940  1.1263
  736SOL    HW1 5706   7.939   3.993   7.420 -0.3094  0.6191 -0.2421
  736SOL    HW2 5707   7.829   4.096   7.436 -0.0976  0.6591  1.0529
  737SOL     OW 5708   7.708   5.537   8.147  0.6620 -0.5936  0.3095
  737SOL    HW1 5709   7.702   5.564   8.239 -0.8496  0.8534 -0.1477
  737SOL    HW2 5710   7.694   5.618   8.098  2.6316 -1.1186 -1.2410
  738SOL     OW 5711   9.217   8.539   9.282 -0.1731 -0.1429  0.4424
  738SOL    HW1 5712   9.187   8.622   9.318  2.4955  0.0302  2.5874
  738SOL    HW2 5713   9.254   8.561   9.196  0.4694  0.9008  0.9706
  739SOL     OW 5714   3.707   0.684   0.307 -0.3680 -0.1189  0.2131
  739SOL    HW1 5715   3.762   0.748   0.352 -1.3492  1.0653 -0.2342
  739SOL    HW2 5716   3.742   0.681   0.218 -0.7635  0.3166  0.0439
  740SOL     OW 5717   3.373   8.905   6.205 -0.0548 -0.8579 -0.0846
  740SOL    HW1 5718   3.421   8.983   6.178  1.3086 -1.5336  0.3385
  740SOL    HW2 5719   3.430   8.832   6.183  0.1837 -1.5671  2.5359
  741SOL     OW 5720   9.631   2.494   1.287  0.6453  0.6775 -0.2064
  741SOL    HW1 5721   9.549   2.447   1.299 -0.4204  2.5101  0.1850
  741SOL    HW2 5722   9.700   2.428   1.298 -0.7492 -0.7083  0.4800
  742SOL     OW 5723   1.217   0.344   3.379 -0.1963  0.0183  0.0889
  742SOL    HW1 5724   1.123   0.325   3.381  0.0385 -1.2228  0.5692
  742SOL    HW2 5725   1.223   0.438   3.390 -1.3672  0.0386  0.7163
  743SOL     OW 5726   5.380   3.872   7.212 -0.5303  0.7264  0.1844
  743SOL    HW1 5727   5.441   3.799   7.224  1.2456  1.6230 -2.5634
  743SOL    HW2 5728   5.333   3.851   7.131 -3.2950  0.5588  1.7070
  744SOL     OW 5729   8.882  10.128   8.807  0.3553 -0.3892  0.1706
  744SOL    HW1 5730   8.789  10.127   8.783  0.5501 -0.6320 -0.6301
  744SOL    HW2 5731   8.889  10.066   8.880 -0.2663  0.3707  0.8915
  745SOL     OW 5732   5.742   0.420   5.450 -0.3500  0.4171  0.4307
  745SOL    HW1 5733   5.663   0.368   5.464  0.1727 -1.9533 -3.9319
  745SOL    HW2 5734   5.710   0.510   5.442 -2.1187 -0.0300  1.7410
  746SOL     OW 5735   4.082   1.798   8.209 -0.2431 -0.5509  0.6540
  746SOL    HW1 5736   4.040   1.812   8.294  0.0252  0.5971  0.6086
  746SOL    HW2 5737   4.099   1.704   8.206 -0.2479 -0.6032  1.8785
  747SOL     OW 5738   3.530   9.896   9.197 -0.3448  0.0964 -0.2810
  747SOL    HW1 5739   3.595   9.851   9.252  1.2200 -2.2285 -3.6343
  747SOL    HW2 5740   3.451   9.844   9.206 -0.1019 -0.2679 -0.2027
  748SOL     OW 5741   3.201  10.910   3.157 -0.0984 -0.1782 -0.0660
  748SOL    HW1 5742   3.208  11.002   3.132  0.4905  0.1614  1.2464
  748SOL    HW2 5743   3.231  10.862   3.080  0.5826  0.7680 -0.4099
  749SOL     OW 5744   7.795   9.020   6.523 -0.1536  0.5249  0.7569
  749SOL    HW1 5745   7.887   9.041   6.539 -0.2222 -0.1536  2.2037
  749SOL    HW2 5746   7.749   9.052   6.601 -0.9335 -0.3723  0.6936
  750SOL     OW 5747   6.584   9.191  10.134  0.0011 -0.0296 -0.2413
  750SOL    HW1 5748   6.639   9.147  10.069 -0.0004  0.2282 -0.4195
  750SOL    HW2 5749   6.616   9.281  10.135  0.4649 -0.1954  0.6306
  751SOL     OW 5750   3.856   8.469   7.006 -0.5213  0.8261  0.3213
  751SOL    HW1 5751   3.850   8.436   7.096  0.6166  1.3717  0.6242
  751SOL    HW2 5752   3.785   8.425   6.959 -1.5499  1.0350  1.6315
  752SOL     OW 5753   4.305   0.456   7.490 -0.9778 -0.5550 -0.6391
  752SOL    HW1 5754   4.277   0.544   7.515  0.4835  0.5331 -2.5299
  752SOL    HW2 5755   4.299   0.405   7.571 -1.1607  1.4586  0.6977
  753SOL     OW 5756   3.806   8.752   7.443 -0.0173 -0.2928  0.0117
  753SOL    HW1 5757   3.754   8.675   7.421 -0.4826 -0.0680  0.2952
  753SOL    HW2 5758   3.894   8.719   7.460 -0.5339 -0.9775  1.5977
  754SOL     OW 5759   5.637   3.589   9.412  0.2406  0.0738  0.2181
  754SOL    HW1 5760   5.709   3.526   9.419  0.6213  0.6346  1.8903
  754SOL    HW2 5761   5.608   3.602   9.502 -0.4363  1.5910 -0.1883
  755SOL     OW 5762   0.469   6.761   4.512 -0.4490 -0.3468 -0.1780
  755SOL    HW1 5763   0.548   6.713   4.487  1.4489  1.6389  1.5713
  755SOL    HW2 5764   0.451   6.730   4.601  0.0631  1.1892  0.4853
  756SOL     OW 5765   2.540   4.698   4.845 -0.0119 -0.4330 -0.2616
  756SOL    HW1 5766   2.545   4.712   4.751 -1.0702 -1.4211 -0.4929
  756SOL    HW2 5767   2.531   4.603   4.855  0.3192 -0.3650  0.8467
  757SOL     OW 5768   8.221   1.986   1.709 -0.0471  0.0546 -0.3556
  757SOL    HW1 5769   8.126   1.989   1.725  0.3681  0.9743  2.4623
  757SOL    HW2 5770   8.242   1.892   1.711 -0.5461 -0.0655  1.9605
  758SOL     OW 5771   2.916   5.718   8.009 -0.2385  0.1940  0.6271
  758SOL    HW1 5772   2.879   5.630   8.019  1.6945 -0.6418  0.8324
  758SOL    HW2 5773   2.910   5.736   7.915 -0.9905  0.0038  0.6357
  759SOL     OW 5774   4.882   3.965   0.949 -0.3745 -0.2018  0.7431
  759SOL    HW1 5775   4.835   4.040   0.984  0.1247  0.1644  0.6439
  759SOL    HW2 5776   4.972   3.976   0.980 -0.5017 -1.2814  1.5479
  760SOL     OW 5777   8.082   2.273   7.660 -0.0782  0.0825  0.2211
  760SOL    HW1 5778   8.006   2.331   7.658  1.5008  2.4572  2.4801
  760SOL    HW2 5779   8.082   2.238   7.749  0.0131 -2.1110 -0.5776
  761SOL     OW 5780   6.846  10.550   8.481  0.1332  0.1722  0.5447
  761SOL    HW1 5781   6.883  10.568   8.395  0.8332 -1.1917  0.5359
  761SOL    HW2 5782   6.781  10.481   8.465 -0.1542  0.3259  1.0274
  762SOL     OW 5783   7.403   5.298   6.125  0.6500  0.3106  0.6879
  762SOL    HW1 5784   7.440   5.359   6.189  0.0218  0.4094  0.9699
  762SOL    HW2 5785   7.376   5.222   6.177 -0.6375  0.7349  0.6937
  763SOL     OW 5786   7.326   1.495  10.545  0.0931 -0.1367  0.2947
  763SOL    HW1 5787   7.274   1.507  10.625  0.3721  2.7170  0.1574
  763SOL    HW2 5788   7.266   1.512  10.474  0.5871  0.5729  0.0368
  764SOL     OW 5789   3.318   7.721   2.663  0.5991 -0.6962  0.0109
  764SOL    HW1 5790   3.266   7.797   2.637  0.8371 -0.3537  0.5226
  764SOL    HW2 5791   3.278   7.692   2.745  1.7730  0.1526  0.9308
  765SOL     OW 5792   5.572   5.819   8.733 -0.5440 -0.3686 -0.8526
  765SOL    HW1 5793   5.559   5.752   8.801  2.3170 -1.3810 -1.1785
  765SOL    HW2 5794   5.562   5.902   8.778 -0.9408 -1.0216  0.2965
  766SOL     OW 5795   2.340   8.459   1.393 -0.6133 -0.3648 -0.1545
  766SOL    HW1 5796   2.302   8.385   1.346 -0.1759  0.0705 -1.2418
  766SOL    HW2 5797   2.342   8.529   1.328 -0.0802  0.2895  0.5592
  767SOL     OW 5798   2.281  10.438   5.261 -0.6685 -0.0306 -0.1857
  767SOL    HW1 5799   2.359  10.387   5.236  0.4620  1.4988  0.0666
  767SOL    HW2 5800   2.295  10.460   5.353 -0.5284  1.6893 -0.5758
  768SOL     OW 5801   4.878   0.166   2.731 -0.2267 -0.5254  0.0381
  768SOL    HW1 5802   4.905   0.152   2.640  0.3282 -1.1378  0.2845
  768SOL    HW2 5803   4.830   0.249   2.730 -1.0385 -0.9950 -0.9706
  769SOL     OW 5804  10.324  10.097   7.935 -0.1730  0.4791 -0.3377
  769SOL    HW1 5805  10.297  10.146   7.857 -1.2833  0.7865  0.2156
  769SOL    HW2 5806  10.260  10.025   7.941 -1.7077  1.9033  1.6618
  770SOL     OW 5807   4.285   1.452   5.445 -0.4103  0.3929 -0.6374
  770SOL    HW1 5808   4.349   1.451   5.374  0.5079  1.7804  0.1411
  770SOL    HW2 5809   4.331   1.415   5.520 -1.3925 -1.1231 -0.7192
  771SOL     OW 5810   1.968  10.032  10.313 -0.3960  0.0708  0.5532
  771SOL    HW1 5811   2.023  10.105  10.287 -0.7510  1.0252  2.3199
  771SOL    HW2 5812   1.954   9.982  10.232  0.6535  1.3984 -0.4918
  772SOL     OW 5813   1.836   0.339   2.158  0.0969 -0.4582  0.2476
  772SOL    HW1 5814   1.907   0.346   2.093  1.5941 -1.0772  1.7537
  772SOL    HW2 5815   1.800   0.252   2.145 -1.0926  0.1934 -1.1556
  773SOL     OW 5816  10.774  10.409   7.054 -0.6693  0.3697  0.1206
  773SOL    HW1 5817  10.734  10.368   6.977 -0.7556  0.2674  0.2200
  773SOL    HW2 5818  10.702  10.417   7.117 -1.1142  2.3875 -0.5685
  774SOL     OW 5819   7.090   0.926   4.317 -0.1687 -0.3563  0.0191
  774SOL    HW1 5820   7.039   0.927   4.236  1.6910 -1.1110 -1.2266
  774SOL    HW2 5821   7.150   0.852   4.307 -0.1230 -0.7060  2.2617
  775SOL     OW 5822   5.058   4.148   2.696 -0.1497 -0.1331  0.5092
  775SOL    HW1 5823   5.041   4.066   2.651 -0.1787 -0.1366  0.5268
  775SOL    HW2 5824   5.031   4.216   2.634  0.7487 -0.1139  0.1120
  776SOL     OW 5825   9.984   9.785   6.143 -0.3293  0.0650  0.2615
  776SOL    HW1 5826  10.048   9.836   6.192 -0.1904 -0.7995  1.0078
  776SOL    HW2 5827   9.921   9.756   6.209 -1.5280  0.9218 -0.4537
  777SOL     OW 5828   0.289   5.763   7.800  0.2919 -0.2725 -0.2273
  777SOL    HW1 5829   0.341   5.807   7.868 -0.8237 -1.9145  1.8358
  777SOL    HW2 5830   0.292   5.670   7.824 -1.1180 -0.7738 -1.7618
  778SOL     OW 5831   4.922   6.846   1.777 -0.2584 -0.1312  0.2053
  778SOL    HW1 5832   4.974   6.767   1.759 -2.6734 -1.5299 -1.2434
  778SOL    HW2 5833   4.907   6.885   1.691 -1.2925  0.3972  0.6057
  779SOL     OW 5834   0.283   8.757   8.545  0.3767  0.2063  0.2882
  779SOL    HW1 5835   0.316   8.681   8.497 -1.8123  0.8620 -2.5914
  779SOL    HW2 5836   0.252   8.816   8.476 -1.5916  1.9748  2.5310
  780SOL     OW 5837   7.925   3.517   2.087  0.1448  0.2414  0.1790
  780SOL    HW1 5838   8.004   3.555   2.126  0.4161  1.1435 -1.2148
  780SOL    HW2 5839   7.929   3.425   2.114 -1.0231  1.1834  4.4422
  781SOL     OW 5840   6.187   2.833   2.013 -0.2587  0.5533  0.4871
  781SOL    HW1 5841   6.271   2.829   2.058 -0.2626  0.1042  0.4629
  781SOL    HW2 5842   6.143   2.909   2.051  1.1097  2.2674 -1.2126
  782SOL     OW 5843  10.737   2.922   5.378 -0.6759  0.2707 -0.0139
  782SOL    HW1 5844  10.645   2.926   5.406 -0.9387  1.6074 -0.9858
  782SOL    HW2 5845  10.763   3.014   5.366 -0.1876 -0.1339 -2.7817
  783SOL     OW 5846   2.837   1.620   8.615  0.3462  0.3909 -0.2336
  783SOL    HW1 5847   2.836   1.689   8.682  2.0056  0.7579 -0.5605
  783SOL    HW2 5848   2.836   1.667   8.532  0.1854 -0.0192 -0.4654
  784SOL     OW 5849   3.010   8.568   4.327  0.3304  0.2635 -0.0863
  784SOL    HW1 5850   2.946   8.498   4.341  2.1060 -1.1008  2.0533
  784SOL    HW2 5851   3.083   8.525   4.284  0.9505  1.1146  0.1043
  785SOL     OW 5852   7.448   2.389   7.824  0.8457 -0.2858 -0.4169
  785SOL    HW1 5853   7.530   2.393   7.873 -0.3085  1.3878  1.5917
  785SOL    HW2 5854   7.452   2.463   7.764  1.0625 -0.5631 -0.7407
  786SOL     OW 5855   3.572   4.300   2.021 -0.0953  0.2219 -0.3179
  786SOL    HW1 5856   3.638   4.234   2.042  0.2408 -0.6789 -3.5849
  786SOL    HW2 5857   3.622   4.381   2.009 -0.0015  0.2264  0.0850
  787SOL     OW 5858   2.258   2.083   9.806 -0.2893  0.3583  0.5381
  787SOL    HW1 5859   2.320   2.106   9.737 -0.4058 -1.1095 -0.0944
  787SOL    HW2 5860   2.260   2.158   9.866  0.8915  1.0332 -0.2974
  788SOL     OW 5861   9.176   0.991   2.963 -0.6815 -0.8748  0.1616
  788SOL    HW1 5862   9.160   0.924   2.897  0.9319 -2.1038  0.9295
  788SOL    HW2 5863   9.099   0.989   3.019 -0.7658 -1.9209  0.0247
  789SOL     OW 5864   9.981   0.361   0.430 -0.1326 -0.2108  0.6651
  789SOL    HW1 5865   9.922   0.336   0.358 -1.0783 -1.4867  1.8325
  789SOL    HW2 5866   9.923   0.375   0.505  0.9719 -0.6148  1.6219
  790SOL     OW 5867   6.513   2.137   9.476  0.1859 -0.4554 -0.1794
  790SOL    HW1 5868   6.433   2.153   9.425 -0.2023  1.2483  0.8559
  790SOL    HW2 5869   6.485   2.083   9.549 -0.0180  0.0293  0.1089
  791SOL     OW 5870   3.047   7.725   9.893 -0.4258 -0.5514  0.3226
  791SOL    HW1 5871   2.980   7.683   9.946 -0.5869  0.2295  0.7605
  791SOL    HW2 5872   3.051   7.673   9.813 -0.7511 -1.2687  0.7654
  792SOL     OW 5873   0.762   8.678  10.624 -0.5162  1.2647 -0.3306
  792SOL    HW1 5874   0.757   8.767  10.589  0.7975  0.4821 -2.7304
  792SOL    HW2 5875   0.807   8.628  10.556  0.6744 -0.8022  1.8442
  793SOL     OW 5876   1.361   0.843   2.048  0.2556 -0.4919  0.7141
  793SOL    HW1 5877   1.311   0.840   1.967  1.0270 -1.9683  0.2684
  793SOL    HW2 5878   1.351   0.934   2.078 -1.5494 -0.3999 -0.0446
  794SOL     OW 5879   3.516   2.420   9.518 -0.2603 -0.2015  0.5952
  794SOL    HW1 5880   3.531   2.477   9.442  1.3196  0.5909  1.4550
  794SOL    HW2 5881   3.475   2.476   9.583  2.7909  0.5309  2.0536
  795SOL     OW 5882   8.072   0.554  10.323 -0.0070 -0.3577  0.4870
  795SOL    HW1 5883   7.997   0.499  10.347 -0.1990 -0.0814  0.5172
  795SOL    HW2 5884   8.046   0.643  10.346  0.4206 -0.2870  0.7119
  796SOL     OW 5885   1.903   4.302   2.677 -0.0847  0.6085  0.5242
  796SOL    HW1 5886   1.972   4.360   2.645  0.1845  1.0916  1.9018
  796SOL    HW2 5887   1.936   4.213   2.659 -0.2207  0.8371 -1.0297
  797SOL     OW 5888  10.007   3.074   9.764  0.0950 -0.1351  0.2970
  797SOL    HW1 5889   9.995   3.006   9.831 -0.7924 -1.4414 -1.1042
  797SOL    HW2 5890   9.971   3.035   9.685 -1.5631  2.4502 -0.3381
  798SOL     OW 5891   0.567   3.967   9.195 -0.5036  0.0806 -0.5242
  798SOL    HW1 5892   0.617   4.041   9.160  0.2322 -0.5579 -0.8752
  798SOL    HW2 5893   0.557   3.987   9.288 -1.2031  1.0979 -0.8053
  799SOL     OW 5894   5.665   9.371   5.292 -0.6966 -0.0687  0.3701
  799SOL    HW1 5895   5.664   9.460   5.256 -2.2986 -0.4071 -0.4795
  799SOL    HW2 5896   5.672   9.314   5.216 -0.3852 -0.6918  0.8623
  800SOL     OW 5897   7.164  10.289   1.009  0.1504 -0.2818 -0.0480
  800SOL    HW1 5898   7.129  10.366   1.054 -0.5729 -1.7534  2.0916
  800SOL    HW2 5899   7.087  10.240   0.982  0.6011 -0.1631 -1.6170
  801SOL     OW 5900   1.721   5.297   3.821 -0.1594 -0.5657  0.1214
  801SOL    HW1 5901   1.725   5.370   3.883 -0.9834  0.9765 -1.5431
  801SOL    HW2 5902   1.689   5.336   3.740  2.5803 -2.0690 -1.8763
  802SOL     OW 5903   7.525   2.540   8.845  0.2810 -0.3111  0.2410
  802SOL    HW1 5904   7.467   2.553   8.920  1.1969 -0.6838  1.0344
  802SOL    HW2 5905   7.611   2.569   8.876  0.6825 -0.5019 -0.6583
  803SOL     OW 5906   1.734   2.413   7.108  0.1742 -0.2130  0.6684
  803SOL    HW1 5907   1.768   2.459   7.184 -0.7678 -1.3273  1.7983
  803SOL    HW2 5908   1.639   2.416   7.117  0.0310 -0.1718 -0.5883
  804SOL     OW 5909   8.774   2.861   7.783 -0.2542 -0.4902  0.2402
  804SOL    HW1 5910   8.827   2.903   7.716 -1.7963 -0.0723 -0.7632
  804SOL    HW2 5911   8.824   2.783   7.808  0.4751 -0.5066 -1.1981
  805SOL     OW 5912   7.134   8.349   0.653  0.0657  0.3410 -0.3940
  805SOL    HW1 5913   7.177   8.416   0.599  1.8661  0.3637  0.9528
  805SOL    HW2 5914   7.177   8.267   0.628  0.2096  0.2086  0.2669
  806SOL     OW 5915   0.705   8.383   0.640  0.4840 -0.5533 -0.1467
  806SOL    HW1 5916   0.800   8.381   0.645  0.5188  0.7048  0.1345
  806SOL    HW2 5917   0.686   8.453   0.577 -0.2490 -1.5766 -1.1144
  807SOL     OW 5918   8.413  10.955   4.049  0.0478 -0.5308  0.2030
  807SOL    HW1 5919   8.330  11.003   4.057 -0.1816 -0.8363 -0.3042
  807SOL    HW2 5920   8.423  10.939   3.955  1.3077  0.5882  0.1090
  808SOL     OW 5921   9.344   4.464   0.218 -0.0655 -0.3220 -0.2398
  808SOL    HW1 5922   9.358   4.470   0.124 -0.8826  1.9192 -0.2886
  808SOL    HW2 5923   9.283   4.536   0.238 -0.1072 -0.8839  1.9580
  809SOL     OW 5924   2.254   6.095   8.332  0.1552  0.2679  0.2128
  809SOL    HW1 5925   2.238   6.154   8.405 -0.5413 -1.0401  1.1642
  809SOL    HW2 5926   2.336   6.051   8.354 -0.6082 -0.9169  0.7821
  810SOL     OW 5927   0.139   4.970   9.262 -0.4722 -0.7387 -0.5816
  810SOL    HW1 5928   0.073   4.960   9.330  1.7039 -1.6017  1.5493
  810SOL    HW2 5929   0.189   5.047   9.289 -0.9715  0.3485 -2.5525
  811SOL     OW 5930   7.403  10.475   3.239  0.9965  0.4695 -0.2028
  811SOL    HW1 5931   7.337  10.409   3.262  0.8913  0.5539 -0.2628
  811SOL    HW2 5932   7.423  10.519   3.321 -2.0411  3.2601 -0.7702
  812SOL     OW 5933   8.095   2.608   3.082  0.3077 -0.3138 -0.3169
  812SOL    HW1 5934   8.098   2.590   3.176  0.1777  0.6548 -0.1135
  812SOL    HW2 5935   8.017   2.662   3.070 -1.2935 -2.7516 -1.4384
  813SOL     OW 5936   9.317   3.222   1.451  0.1953 -0.0113 -0.6459
  813SOL    HW1 5937   9.299   3.173   1.370  1.4653 -0.1450 -0.8737
  813SOL    HW2 5938   9.413   3.224   1.457  0.1533  1.3236  0.0547
  814SOL     OW 5939   3.306   1.350   9.586  0.1381  0.8509 -0.1671
  814SOL    HW1 5940   3.400   1.341   9.575  0.1011  0.1994 -0.0079
  814SOL    HW2 5941   3.268   1.293   9.519 -0.1304  0.4417  0.3253
  815SOL     OW 5942   9.216   5.439   8.033  0.8351 -0.3444 -0.5325
  815SOL    HW1 5943   9.294   5.493   8.045  1.2480 -1.0042 -0.1938
  815SOL    HW2 5944   9.155   5.469   8.099  0.5395  0.6346 -1.2344
  816SOL     OW 5945   7.265   5.792   6.417 -0.3443  0.6276 -0.8726
  816SOL    HW1 5946   7.184   5.744   6.398  0.3219 -0.2991 -1.5116
  816SOL    HW2 5947   7.249   5.881   6.386 -0.8223  0.2343 -1.7789
  817SOL     OW 5948   4.136   6.463   5.371 -0.4710  0.5394 -0.0130
  817SOL    HW1 5949   4.207   6.450   5.309 -0.5079  0.7610 -0.1040
  817SOL    HW2 5950   4.059   6.426   5.328  0.0183 -1.9948  1.0940
  818SOL     OW 5951   2.884   0.859   1.490  0.4249 -0.4681  0.0444
  818SOL    HW1 5952   2.937   0.933   1.522 -1.0227  0.4848  0.3707
  818SOL    HW2 5953   2.865   0.808   1.569 -0.8641  0.3670  0.3040
  819SOL     OW 5954  10.523   2.432   7.246  0.1494 -0.0180  0.4412
  819SOL    HW1 5955  10.582   2.392   7.182  0.2183 -0.5574  0.8376
  819SOL    HW2 5956  10.449   2.463   7.194  0.1184 -0.6231  0.1178
  820SOL     OW 5957   2.166   0.814   6.543  0.0377  0.7814 -0.4415
  820SOL    HW1 5958   2.155   0.735   6.491  0.1525  1.4893 -1.5762
  820SOL    HW2 5959   2.180   0.783   6.632  0.5384 -0.4871 -0.9465
  821SOL     OW 5960   9.653   9.092   8.607 -0.2312 -0.2997 -0.1002
  821SOL    HW1 5961   9.653   9.067   8.699 -0.5610  0.1631  0.0289
  821SOL    HW2 5962   9.726   9.043   8.569  0.5656  0.2970  0.6325
  822SOL     OW 5963   2.907   3.972   2.123  0.0991 -0.0799  0.4211
  822SOL    HW1 5964   2.920   3.904   2.189 -0.5153  0.1817  0.8259
  822SOL    HW2 5965   2.902   4.053   2.174 -1.4182  0.0096  0.1746
  823SOL     OW 5966   8.866   7.834   2.619  0.5761 -0.2015 -0.5089
  823SOL    HW1 5967   8.777   7.799   2.616  0.4892 -0.0016 -0.2810
  823SOL    HW2 5968   8.868   7.888   2.698  0.9532 -0.3536 -0.4130
  824SOL     OW 5969   6.671  10.094   4.481  0.1253 -0.5617 -0.2987
  824SOL    HW1 5970   6.718  10.157   4.536 -1.2311 -0.8771  1.2641
  824SOL    HW2 5971   6.609  10.147   4.431  0.5892 -0.4048 -0.7161
  825SOL     OW 5972   0.942   4.636  10.964  0.2578 -0.2363  0.4496
  825SOL    HW1 5973   0.888   4.714  10.955  1.9944  1.0963  1.0027
  825SOL    HW2 5974   1.030   4.664  10.938  0.4127 -2.8364 -2.4605
  826SOL     OW 5975   9.657   2.552   2.277 -0.3689 -0.1468  0.4544
  826SOL    HW1 5976   9.589   2.563   2.345  0.0007  0.8648  0.6840
  826SOL    HW2 5977   9.696   2.639   2.269 -0.3535 -0.2624 -1.0226
  827SOL     OW 5978   9.320   2.322   4.451  0.3460 -0.2768  0.7731
  827SOL    HW1 5979   9.278   2.402   4.481  2.6947  0.7045  1.6662
  827SOL    HW2 5980   9.387   2.304   4.517  3.1756 -0.1743 -1.8639
  828SOL     OW 5981   3.257   4.639   7.874  0.2606 -0.1082 -0.1512
  828SOL    HW1 5982   3.241   4.583   7.798  0.1414  0.7518 -0.7701
  828SOL    HW2 5983   3.178   4.693   7.882  0.4016  0.0319  0.3943
  829SOL     OW 5984   5.448   4.749  10.195  0.4458 -0.0005  0.5550
  829SOL    HW1 5985   5.537   4.723  10.219  0.7929  1.3752  0.8498
  829SOL    HW2 5986   5.425   4.692  10.121  1.3807 -0.6826  0.7730
  830SOL     OW 5987   1.557   3.761   5.769  0.1068 -0.1244 -0.0756
  830SOL    HW1 5988   1.568   3.767   5.864 -0.3145  0.4684 -0.0608
  830SOL    HW2 5989   1.616   3.828   5.734 -0.7027  0.5562 -0.1652
  831SOL     OW 5990   8.687   4.747   9.203  0.0890  0.0047  0.5963
  831SOL    HW1 5991   8.712   4.695   9.127  0.2325  1.2698 -0.2428
  831SOL    HW2 5992   8.601   4.714   9.229  0.3054 -0.8323  0.2696
  832SOL     OW 5993  10.194   4.990   2.719 -0.1541 -0.2253 -0.0523
  832SOL    HW1 5994  10.230   5.056   2.660 -0.7113 -0.3216 -0.5129
  832SOL    HW2 5995  10.160   5.039   2.794  0.3677 -0.0835  0.0885
  833SOL     OW 5996  10.987  10.021   0.309  0.0577 -0.4815  0.9516
  833SOL    HW1 5997  11.069  10.040   0.356  0.5006  0.7068 -0.2289
  833SOL    HW2 5998  10.957   9.938   0.346  1.4870 -0.6545  1.8224
  834SOL     OW 5999   6.632   6.306   8.339  0.3865  0.2449 -0.1075
  834SOL    HW1 6000   6.638   6.216   8.308  0.6776  0.5452 -0.9609
  834SOL    HW2 6001   6.723   6.335   8.347  0.3900 -0.2302  2.3466
  835SOL     OW 6002   2.906   5.546   3.653 -0.0536  0.1941  0.8769
  835SOL    HW1 6003   3.000   5.551   3.666  0.1595 -2.0267  0.6212
  835SOL    HW2 6004   2.882   5.459   3.686 -1.2649 -1.1337 -2.9388
  836SOL     OW 6005   2.489   8.224   2.108  0.3732  0.4398 -0.2180
  836SOL    HW1 6006   2.414   8.166   2.095  1.3280 -1.7094  2.8299
  836SOL    HW2 6007   2.566   8.168   2.098  1.4607  1.7565  0.3275
  837SOL     OW 6008  10.278   2.271   3.214 -0.5759 -0.7549 -0.1163
  837SOL    HW1 6009  10.354   2.279   3.157 -1.9883  2.6481 -1.8333
  837SOL    HW2 6010  10.296   2.330   3.287 -1.0148 -1.0091  0.2075
  838SOL     OW 6011   4.130   1.471  10.583 -0.0013  0.0715  0.6857
  838SOL    HW1 6012   4.220   1.445  10.567  0.7012  3.0142 -1.1149
  838SOL    HW2 6013   4.135   1.533  10.656 -0.5036  0.5085  0.3595
  839SOL     OW 6014   8.417   3.532   1.082  0.0766  0.1365 -0.3930
  839SOL    HW1 6015   8.328   3.512   1.055 -0.3405  0.3936  0.7407
  839SOL    HW2 6016   8.409   3.557   1.174  1.5814 -1.7036  0.2891
  840SOL     OW 6017   7.589   5.490   9.765 -0.0437  0.1544 -0.5647
  840SOL    HW1 6018   7.574   5.585   9.764 -0.4417  0.0953 -0.6364
  840SOL    HW2 6019   7.620   5.470   9.677 -0.0080  0.2133 -0.5654
  841SOL     OW 6020   7.868   9.618   4.285 -0.0152  0.0543  0.0172
  841SOL    HW1 6021   7.892   9.549   4.347 -0.9027  1.0636  1.5376
  841SOL    HW2 6022   7.952   9.658   4.260  0.6107 -1.9737 -1.4926
  842SOL     OW 6023   7.683   4.736   0.835  0.3622 -0.4097 -0.0859
  842SOL    HW1 6024   7.647   4.756   0.748  1.8504  0.4942 -0.5320
  842SOL    HW2 6025   7.648   4.649   0.856 -0.6974 -0.2879 -1.2022
  843SOL     OW 6026   4.142   2.233   0.894 -0.0073  0.5784  0.2711
  843SOL    HW1 6027   4.221   2.238   0.948 -0.3560  1.3258  0.7431
  843SOL    HW2 6028   4.070   2.234   0.958 -0.4006  0.3389 -0.1672
  844SOL     OW 6029   8.301   9.253   9.496 -0.0776 -0.1162 -0.4691
  844SOL    HW1 6030   8.289   9.159   9.487  0.1388 -0.2259  0.3663
  844SOL    HW2 6031   8.364   9.276   9.427 -1.5174 -0.2662 -1.8875
  845SOL     OW 6032   0.646   0.531   6.378 -0.1416  0.1982 -0.0042
  845SOL    HW1 6033   0.568   0.488   6.413  0.2643 -0.0456  0.6168
  845SOL    HW2 6034   0.616   0.618   6.352 -1.1433 -0.6716 -1.9749
  846SOL     OW 6035   3.493   7.295   2.567  0.0801  0.2253 -0.1803
  846SOL    HW1 6036   3.472   7.363   2.631 -1.5371 -1.9772  1.8130
  846SOL    HW2 6037   3.423   7.302   2.502  0.5539  1.1301 -0.6180
  847SOL     OW 6038   2.012  10.576   8.383  0.2916  0.2478 -0.6859
  847SOL    HW1 6039   2.034  10.666   8.360 -0.3656  0.7243  0.4499
  847SOL    HW2 6040   2.096  10.530   8.383  0.7294  1.0298 -0.5834
  848SOL     OW 6041   2.340   7.903   3.064  0.6971  0.0395 -0.0664
  848SOL    HW1 6042   2.327   7.948   3.147  0.4979 -1.6778  0.8926
  848SOL    HW2 6043   2.254   7.866   3.044  1.2522 -1.4394  0.1574
  849SOL     OW 6044   8.906   0.678  10.227 -0.7963  0.1846 -0.1973
  849SOL    HW1 6045   8.921   0.696  10.320 -0.3790 -3.4167  0.6065
  849SOL    HW2 6046   8.986   0.635  10.198 -1.7957 -0.8820 -1.5325
  850SOL     OW 6047   1.915   4.497   9.012  0.4100 -0.2874 -0.2793
  850SOL    HW1 6048   1.956   4.582   8.995  0.5535  0.1124  1.8224
  850SOL    HW2 6049   1.987   4.434   9.006  0.6613 -0.0261 -0.0359
  851SOL     OW 6050   8.814   0.473   0.713 -0.3209  0.1115  0.1385
  851SOL    HW1 6051   8.847   0.387   0.688 -0.6593  0.1679 -0.5334
  851SOL    HW2 6052   8.738   0.454   0.768 -1.3413 -0.0602 -1.2536
  852SOL     OW 6053   2.643   8.753   1.172  0.4053 -0.2421  0.0229
  852SOL    HW1 6054   2.624   8.824   1.111  0.1947 -0.2806  0.0420
  852SOL    HW2 6055   2.641   8.795   1.258  0.6998 -0.1886  0.0043
  853SOL     OW 6056  10.283   4.928   1.512  0.2281 -0.1579  0.8618
  853SOL    HW1 6057  10.311   4.991   1.445  0.1743  0.3811  1.3343
  853SOL    HW2 6058  10.287   4.978   1.594 -2.2664 -0.0018  0.9475
  854SOL     OW 6059   7.980   0.931   1.372 -0.2452 -0.0185 -0.2855
  854SOL    HW1 6060   8.072   0.949   1.352  0.2730 -1.2288  0.8883
  854SOL    HW2 6061   7.975   0.931   1.467 -2.2651  3.7683 -0.1802
  855SOL     OW 6062   0.779   5.886  10.540  0.5428  0.5543  0.1446
  855SOL    HW1 6063   0.749   5.970  10.575  1.5559  1.2894 -0.6933
  855SOL    HW2 6064   0.708   5.825  10.560 -1.4583  2.1625 -1.6221
  856SOL     OW 6065   5.274   3.489   7.800  0.1879  0.2999 -0.2574
  856SOL    HW1 6066   5.327   3.489   7.720  0.3669 -1.9198 -0.2072
  856SOL    HW2 6067   5.264   3.396   7.822  0.3399  0.8431  2.4350
  857SOL     OW 6068   6.473   7.893  10.521  0.0526 -0.1799 -0.0319
  857SOL    HW1 6069   6.464   7.820  10.460  1.4785  0.3320 -0.8875
  857SOL    HW2 6070   6.470   7.971  10.466  0.1565  0.3522  0.6968
  858SOL     OW 6071   1.756   8.533   2.960 -0.4096 -0.4233 -0.1401
  858SOL    HW1 6072   1.815   8.570   3.027  0.1664 -0.7887 -0.4371
  858SOL    HW2 6073   1.798   8.451   2.935 -0.1194  0.1559 -1.6207
  859SOL     OW 6074   0.359   4.466   0.227  0.3971  0.3998 -0.3350
  859SOL    HW1 6075   0.384   4.393   0.170 -0.1003 -0.1800  0.1687
  859SOL    HW2 6076   0.441   4.510   0.248  0.7143 -0.0927 -0.5357
  860SOL     OW 6077   8.877   6.793   5.064 -0.2094  1.0367  0.2721
  860SOL    HW1 6078   8.945   6.791   4.997 -0.2049  0.8389  0.2827
  860SOL    HW2 6079   8.903   6.865   5.122  1.1297 -0.3448  1.4658
  861SOL     OW 6080   9.941   8.480   3.048 -0.1032 -0.2151  0.0671
  861SOL    HW1 6081   9.850   8.478   3.020 -0.1341 -1.3325  0.2004
  861SOL    HW2 6082   9.992   8.475   2.966 -0.1429  1.1003 -0.0519
  862SOL     OW 6083   7.272   9.763   3.455 -0.0871  0.1321 -0.6725
  862SOL    HW1 6084   7.260   9.857   3.437  0.9238  0.8837  2.0166
  862SOL    HW2 6085   7.327   9.732   3.383  0.1183  1.7689 -1.2705
  863SOL     OW 6086   7.148   8.908   3.404  0.6581  0.1505  0.3447
  863SOL    HW1 6087   7.122   9.000   3.411 -0.3635 -0.1596  0.9583
  863SOL    HW2 6088   7.128   8.884   3.313  4.2073  1.4235 -0.9176
  864SOL     OW 6089   7.947   0.344   7.555 -0.0976 -0.0125 -0.7710
  864SOL    HW1 6090   7.873   0.403   7.546  0.5710  1.1242  0.6436
  864SOL    HW2 6091   7.926   0.291   7.633 -0.0583 -0.6931 -1.2110
  865SOL     OW 6092   8.839   5.917   8.363 -0.5741  0.4588 -0.1497
  865SOL    HW1 6093   8.802   5.958   8.441  0.3120 -0.4409  0.7854
  865SOL    HW2 6094   8.764   5.892   8.311 -1.1770  1.4361  0.2140
  866SOL     OW 6095   2.657   8.181   0.730  0.3420 -0.1873  0.4227
  866SOL    HW1 6096   2.570   8.215   0.712  0.0610 -0.7005  0.8005
  866SOL    HW2 6097   2.671   8.200   0.823 -0.5077 -2.5739  1.1003
  867SOL     OW 6098   7.067   4.078   2.641 -0.3629 -0.5769 -0.3397
  867SOL    HW1 6099   7.010   4.037   2.706  1.3303 -1.4405  0.6619
  867SOL    HW2 6100   7.085   4.165   2.676  0.1273 -0.8531  0.1101
  868SOL     OW 6101   2.722   7.690   2.400  0.0504 -0.8944  0.7655
  868SOL    HW1 6102   2.677   7.617   2.358 -0.3970 -0.3703  0.3200
  868SOL    HW2 6103   2.813   7.680   2.374 -0.1279 -0.8934  0.1074
  869SOL     OW 6104   5.402   9.857   0.988  0.2004 -0.3386 -0.5069
  869SOL    HW1 6105   5.352   9.791   1.036  1.0674 -1.0278 -0.5262
  869SOL    HW2 6106   5.476   9.878   1.045 -0.2408  0.8886 -0.3464
  870SOL     OW 6107   8.335   0.751   4.904  0.7376  0.4237  0.0073
  870SOL    HW1 6108   8.339   0.692   4.829  1.6448  1.8777 -1.1443
  870SOL    HW2 6109   8.410   0.726   4.958 -0.3259 -1.1011  0.8504
  871SOL     OW 6110   2.679   3.711   7.876 -0.1794 -0.1229 -0.5330
  871SOL    HW1 6111   2.657   3.698   7.968 -0.2865 -1.2758 -0.7014
  871SOL    HW2 6112   2.643   3.797   7.855  1.0008  0.7430  0.8322
  872SOL     OW 6113   4.038   6.298   6.435  0.0490 -0.0392 -0.6865
  872SOL    HW1 6114   3.957   6.255   6.461 -0.0134  0.2490 -0.3932
  872SOL    HW2 6115   4.107   6.245   6.475 -0.0929  1.2502  1.4255
  873SOL     OW 6116   0.031   9.976   2.126  0.4896 -0.7544 -0.1999
  873SOL    HW1 6117   0.054  10.068   2.142  0.3904 -0.6558 -0.6121
  873SOL    HW2 6118  -0.011   9.977   2.040 -2.0756 -0.7475  0.9302
  874SOL     OW 6119   0.550   8.252  10.482  0.3259 -0.1445  0.2836
  874SOL    HW1 6120   0.605   8.175  10.493 -0.3991 -0.8650 -0.8443
  874SOL    HW2 6121   0.534   8.285  10.571 -0.3620 -2.0338  0.9021
  875SOL     OW 6122   8.661   5.814   7.174  0.4401 -0.4823  0.0007
  875SOL    HW1 6123   8.593   5.879   7.190  0.5109 -0.5133  0.4322
  875SOL    HW2 6124   8.743   5.863   7.180  0.4927 -0.6100  0.3145
  876SOL     OW 6125   4.982   5.946   9.537 -0.8409 -0.0495 -0.0498
  876SOL    HW1 6126   4.960   5.871   9.482 -1.2396 -0.1708  0.2700
  876SOL    HW2 6127   4.914   5.947   9.604 -1.0185  0.7854 -0.2305
  877SOL     OW 6128   3.445   3.025   6.480 -0.0642  1.0923  0.5652
  877SOL    HW1 6129   3.495   3.091   6.430 -0.6048  0.0702 -1.4180
  877SOL    HW2 6130   3.390   3.077   6.538 -1.2021  2.4967 -1.6224
  878SOL     OW 6131   5.292   4.511   8.091 -0.2742  0.3758 -0.0656
  878SOL    HW1 6132   5.305   4.516   8.186  0.4361  1.3532 -0.1963
  878SOL    HW2 6133   5.371   4.550   8.054 -0.1313 -0.8092 -1.0878
  879SOL     OW 6134   7.904   0.199   9.239  0.2514 -0.0329  0.1597
  879SOL    HW1 6135   7.825   0.226   9.285  1.0081 -0.6963  1.9523
  879SOL    HW2 6136   7.890   0.227   9.148 -1.1960  1.5669  0.8187
  880SOL     OW 6137   4.674   8.742   7.332 -0.1889 -0.1599  0.1145
  880SOL    HW1 6138   4.740   8.678   7.307  1.0842  1.9883 -2.5452
  880SOL    HW2 6139   4.602   8.728   7.271  0.4931  1.4256 -1.1327
  881SOL     OW 6140   4.216   7.526   7.736  0.2206  0.4172  0.0304
  881SOL    HW1 6141   4.196   7.442   7.694 -0.9930  0.9146 -0.4422
  881SOL    HW2 6142   4.295   7.556   7.692  0.4531 -0.3088 -0.0556
  882SOL     OW 6143   0.660   0.670   2.218 -0.3803  0.3698 -0.1787
  882SOL    HW1 6144   0.637   0.590   2.266 -0.2834  0.5891  0.2351
  882SOL    HW2 6145   0.577   0.715   2.205 -0.3968  0.3466 -0.1543
  883SOL     OW 6146   9.473  10.659   2.954  0.7707  0.4972  0.2489
  883SOL    HW1 6147   9.470  10.565   2.940  1.8933  0.5601 -0.5512
  883SOL    HW2 6148   9.383  10.683   2.978  0.1374 -0.5533 -0.9512
  884SOL     OW 6149   2.077   9.751  10.589 -0.1658  0.4209  0.3290
  884SOL    HW1 6150   2.065   9.693  10.665 -1.2923  0.5932  0.3013
  884SOL    HW2 6151   2.105   9.834  10.627 -1.6301  0.7963  0.6879
  885SOL     OW 6152   4.087   2.572   7.956 -0.5174 -0.8067 -0.1135
  885SOL    HW1 6153   4.169   2.611   7.925 -0.6950 -0.4921 -0.1912
  885SOL    HW2 6154   4.095   2.573   8.052 -0.6723 -0.2435 -0.1026
  886SOL     OW 6155   0.876   4.667   2.715  0.7284  0.3853 -0.7504
  886SOL    HW1 6156   0.881   4.572   2.717 -2.2000  0.1125 -1.5055
  886SOL    HW2 6157   0.881   4.690   2.622  3.3705  1.1971 -0.4670
  887SOL     OW 6158   0.203   1.046   3.977 -0.2778  0.3480 -0.2774
  887SOL    HW1 6159   0.217   0.981   4.046  0.2317  0.1365 -0.5799
  887SOL    HW2 6160   0.200   1.129   4.024 -1.2734  0.0877  0.1556
  888SOL     OW 6161  10.492   1.046   4.697  0.5927 -0.2451  0.3053
  888SOL    HW1 6162  10.433   1.007   4.761 -0.8261  1.8644  0.3698
  888SOL    HW2 6163  10.576   1.052   4.742 -0.0246 -0.1328  1.4651
  889SOL     OW 6164   3.442   8.319   3.847 -0.3239  0.4496 -0.1239
  889SOL    HW1 6165   3.438   8.407   3.883  1.4815  0.3078  0.5112
  889SOL    HW2 6166   3.493   8.328   3.766 -0.9000  0.1168 -0.5380
  890SOL     OW 6167   5.413   1.182   3.999  0.3042 -0.0922 -0.6293
  890SOL    HW1 6168   5.498   1.138   3.987 -0.6583 -2.3135  0.0823
  890SOL    HW2 6169   5.366   1.126   4.060 -1.0906  1.9805  0.3066
  891SOL     OW 6170   3.285   2.272   8.648  0.1387  0.3331 -0.1777
  891SOL    HW1 6171   3.331   2.296   8.729 -0.7266 -0.7221  0.6594
  891SOL    HW2 6172   3.301   2.178   8.639 -0.5281  0.2733 -0.7395
  892SOL     OW 6173   8.211   6.666   9.068  0.1052  0.2305 -0.3495
  892SOL    HW1 6174   8.280   6.681   9.132 -0.6721 -1.9110  1.0847
  892SOL    HW2 6175   8.232   6.582   9.028 -1.9499 -0.7831  0.5749
  893SOL     OW 6176   9.401   8.393   4.087 -0.2761 -0.7336  0.9315
  893SOL    HW1 6177   9.475   8.333   4.091  0.7671  0.4027 -0.4276
  893SOL    HW2 6178   9.378   8.398   3.994  1.5062  3.0326  0.5274
  894SOL     OW 6179   7.757   5.072   6.393  0.7845 -0.2145 -0.2331
  894SOL    HW1 6180   7.721   5.160   6.385 -0.9786 -0.7876  0.8232
  894SOL    HW2 6181   7.747   5.050   6.486  1.6666 -1.3390 -0.3776
  895SOL     OW 6182   3.435   9.328   8.573 -0.2437 -1.0212 -0.2620
  895SOL    HW1 6183   3.480   9.409   8.549  0.9775 -1.9580 -1.3201
  895SOL    HW2 6184   3.374   9.312   8.500 -0.6204 -0.9572  0.0373
  896SOL     OW 6185   9.826   4.386   7.124  0.3323 -0.0434 -0.0898
  896SOL    HW1 6186   9.832   4.480   7.106  0.0900  0.3688  1.8087
  896SOL    HW2 6187   9.798   4.348   7.040  0.8144  1.5105 -1.0014
  897SOL     OW 6188   6.640   5.111   2.730 -0.0059 -0.3308 -0.8213
  897SOL    HW1 6189   6.707   5.072   2.785  0.3250  1.9603  0.5475
  897SOL    HW2 6190   6.603   5.038   2.681  3.3024 -1.7497 -1.4837
  898SOL     OW 6191   2.486   3.523   2.271 -0.3160  0.5779  0.3647
  898SOL    HW1 6192   2.445   3.442   2.301  0.2110 -0.3915 -1.4172
  898SOL    HW2 6193   2.458   3.533   2.181 -0.1237  2.2434  0.4584
  899SOL     OW 6194   9.611   3.651   9.323 -0.6899 -0.5841 -0.2021
  899SOL    HW1 6195   9.636   3.585   9.387 -1.5825  0.6515  1.5164
  899SOL    HW2 6196   9.689   3.665   9.269  0.7645 -0.2338  1.9115
  900SOL     OW 6197   3.421   7.941   6.185 -0.0662 -0.0019  0.0904
  900SOL    HW1 6198   3.435   7.898   6.270  1.8862 -0.4108 -0.3820
  900SOL    HW2 6199   3.382   7.873   6.130 -0.0617 -0.1611  0.2822
  901SOL     OW 6200   7.140   2.046   2.533 -0.6216 -0.0165 -0.5686
  901SOL    HW1 6201   7.179   2.056   2.620 -0.2959 -1.1586 -0.5648
  901SOL    HW2 6202   7.197   2.096   2.475  0.0125 -0.4638 -0.3381
  902SOL     OW 6203   2.996   1.397   4.378 -0.3369 -0.1707  0.7099
  902SOL    HW1 6204   2.913   1.379   4.422 -0.2560 -0.2021  0.8499
  902SOL    HW2 6205   3.012   1.490   4.395  0.2442 -0.4359  1.6843
  903SOL     OW 6206   5.866   7.524   0.333 -0.0112 -0.1748  0.2837
  903SOL    HW1 6207   5.851   7.430   0.331  0.3009 -0.3403  2.6807
  903SOL    HW2 6208   5.881   7.544   0.425  4.7782  1.4261 -0.5320
  904SOL     OW 6209   8.387  10.089   2.974 -0.0426  0.0805  0.3388
  904SOL    HW1 6210   8.364  10.037   2.897 -1.7579  0.1692  0.7551
  904SOL    HW2 6211   8.306  10.134   2.997  0.8940  1.3771  1.1908
  905SOL     OW 6212   1.873   1.562   5.725 -0.4373  0.8075 -0.1164
  905SOL    HW1 6213   1.819   1.508   5.668  0.5500  0.2043 -0.5006
  905SOL    HW2 6214   1.963   1.539   5.702 -0.0023  2.0517  0.2613
  906SOL     OW 6215   9.925   1.461   5.516 -0.1962  0.4898  0.6430
  906SOL    HW1 6216   9.998   1.404   5.494  1.6220  3.4504 -1.8082
  906SOL    HW2 6217   9.855   1.435   5.456 -0.2116 -0.5712  1.1067
  907SOL     OW 6218   0.635   8.816   7.250  0.0074 -0.1713 -0.7675
  907SOL    HW1 6219   0.643   8.721   7.253 -0.7851 -0.2910 -1.7082
  907SOL    HW2 6220   0.719   8.847   7.217  1.0748 -0.3482  1.6054
  908SOL     OW 6221  10.738   6.055   2.437 -0.0361 -0.2995 -0.0142
  908SOL    HW1 6222  10.776   6.117   2.499  0.7539 -0.0934 -0.6982
  908SOL    HW2 6223  10.813   6.016   2.393 -0.5503 -1.3081 -0.0206
  909SOL     OW 6224   3.255   7.286   1.493  0.5247 -0.8685 -0.3398
  909SOL    HW1 6225   3.343   7.275   1.529  0.8646 -1.0968 -1.2213
  909SOL    HW2 6226   3.236   7.203   1.450  0.3378 -0.4323 -1.1257
  910SOL     OW 6227  10.418   1.863   1.419  0.6114 -0.2220 -0.5533
  910SOL    HW1 6228  10.413   1.951   1.382 -0.3369 -0.4249 -0.9369
  910SOL    HW2 6229  10.395   1.805   1.346 -0.4210 -0.6795  0.1255
  911SOL     OW 6230   7.987   7.448   1.132  0.7692  0.4783  0.0107
  911SOL    HW1 6231   8.073   7.488   1.119  2.2835 -2.6077 -0.6384
  911SOL    HW2 6232   7.986   7.424   1.224 -0.2769  2.1983  0.4820
  912SOL     OW 6233   0.170   7.378   9.657 -0.5291  0.6350  0.2341
  912SOL    HW1 6234   0.101   7.403   9.719  0.9510  0.5936  1.9633
  912SOL    HW2 6235   0.122   7.347   9.579 -2.4339  1.3661  1.0620
  913SOL     OW 6236  10.256   3.074  10.148  0.0139  0.0727  0.1989
  913SOL    HW1 6237  10.161   3.082  10.141 -0.2309  0.3634  2.7261
  913SOL    HW2 6238  10.288   3.164  10.150  0.2313 -0.0048  0.2836
  914SOL     OW 6239   8.351   7.464   3.314  0.0539 -0.4945 -0.0850
  914SOL    HW1 6240   8.383   7.534   3.372 -1.8050 -0.2348  0.6778
  914SOL    HW2 6241   8.260   7.487   3.297 -0.1447 -1.9192 -1.1019
  915SOL     OW 6242   0.849   1.337   0.212  0.1453 -0.0963 -0.1904
  915SOL    HW1 6243   0.836   1.254   0.167 -0.1444  1.0512 -2.3918
  915SOL    HW2 6244   0.799   1.329   0.293  1.0516 -2.4352  0.2275
  916SOL     OW 6245   6.147   6.968  10.333  0.1962  0.1158  0.3531
  916SOL    HW1 6246   6.168   6.876  10.353 -1.4522 -0.4643 -0.4376
  916SOL    HW2 6247   6.054   6.976  10.353 -0.2137  1.0063 -1.6796
  917SOL     OW 6248   0.017   7.431  10.671  0.2588 -0.2118  0.5629
  917SOL    HW1 6249   0.022   7.525  10.686  0.3507 -0.1546  0.1846
  917SOL    HW2 6250   0.098   7.410  10.625 -0.3359 -0.2533 -0.5136
  918SOL     OW 6251   0.823   7.682   7.066  0.2552  0.0941 -0.0971
  918SOL    HW1 6252   0.772   7.762   7.055  0.1026 -0.2117 -1.9755
  918SOL    HW2 6253   0.790   7.623   6.998  1.8752 -0.7501 -0.2018
  919SOL     OW 6254   9.173   8.229   2.921 -0.1568 -0.2055  0.0222
  919SOL    HW1 6255   9.246   8.219   2.981 -0.0847 -0.9862 -0.1876
  919SOL    HW2 6256   9.209   8.207   2.835 -0.2999  0.7321 -0.2910
  920SOL     OW 6257   7.228  10.735   3.614  0.5067  0.2474 -0.0019
  920SOL    HW1 6258   7.159  10.800   3.619 -0.7221 -0.9724 -0.4909
  920SOL    HW2 6259   7.306  10.780   3.647 -0.7410  1.3352  1.6275
  921SOL     OW 6260   0.355   9.191   6.568 -0.1239 -0.1651  0.4383
  921SOL    HW1 6261   0.334   9.163   6.657 -1.6740 -0.6524 -0.0379
  921SOL    HW2 6262   0.313   9.126   6.512 -0.9733  1.2690 -0.6707
  922SOL     OW 6263   9.329   7.404   3.295 -0.5049 -0.5377 -0.1210
  922SOL    HW1 6264   9.251   7.457   3.277 -1.1497 -1.6992 -0.8968
  922SOL    HW2 6265   9.309   7.357   3.376 -1.2688 -1.9543 -1.0837
  923SOL     OW 6266   1.459   7.717   9.477  0.0052  0.3249  0.0211
  923SOL    HW1 6267   1.438   7.723   9.384  0.1643  0.1582 -0.0263
  923SOL    HW2 6268   1.375   7.708   9.521 -0.2008  1.9042  0.0173
  924SOL     OW 6269   0.936   5.116   7.941  0.4711 -0.1379  0.5600
  924SOL    HW1 6270   0.900   5.106   8.030  0.1304  0.0376  0.4416
  924SOL    HW2 6271   0.867   5.081   7.884 -0.1027  1.4572  0.2363
  925SOL     OW 6272   6.330   6.458   4.146  0.0346 -0.6299 -0.6898
  925SOL    HW1 6273   6.279   6.526   4.189  2.1794  2.3070 -2.4486
  925SOL    HW2 6274   6.277   6.431   4.071  0.0200  0.6509 -1.1567
  926SOL     OW 6275  10.670   3.828   2.152  0.0378  0.0580  0.5959
  926SOL    HW1 6276  10.583   3.864   2.139  0.3752  0.4639 -0.7285
  926SOL    HW2 6277  10.705   3.875   2.228 -0.7023  0.2506  0.8183
  927SOL     OW 6278   3.825  10.121   6.555 -0.0480  0.2197 -0.3664
  927SOL    HW1 6279   3.778  10.050   6.600  2.1780 -1.6428 -0.7641
  927SOL    HW2 6280   3.766  10.196   6.560 -1.9261 -1.2528  1.3572
  928SOL     OW 6281   2.298   8.507   5.209  0.6499 -0.8259  0.4863
  928SOL    HW1 6282   2.226   8.559   5.172  1.8638  0.4844 -0.1059
  928SOL    HW2 6283   2.369   8.569   5.222  2.5160 -2.4772 -1.1413
  929SOL     OW 6284   7.894   0.409   8.203 -0.0791  0.5958  0.0289
  929SOL    HW1 6285   7.804   0.402   8.172 -0.2457  1.5258  0.2715
  929SOL    HW2 6286   7.894   0.365   8.289 -0.1724  0.1434 -0.1991
  930SOL     OW 6287   4.273   6.440   0.396  0.2849  0.5360  0.0379
  930SOL    HW1 6288   4.277   6.403   0.484 -2.6703  1.0984  0.5355
  930SOL    HW2 6289   4.355   6.487   0.385  1.4498 -0.9618  1.8092
  931SOL     OW 6290   7.616   9.927   6.506 -0.0667  0.1071  0.3527
  931SOL    HW1 6291   7.710   9.936   6.495 -0.0534  0.1160  0.4726
  931SOL    HW2 6292   7.606   9.878   6.588 -0.2106  1.5108  1.1899
  932SOL     OW 6293   7.781   5.783   6.838  0.1083 -0.6220  0.3570
  932SOL    HW1 6294   7.709   5.839   6.810  1.0309  0.1452 -0.6088
  932SOL    HW2 6295   7.860   5.834   6.816  1.0014 -2.4402 -0.8783
  933SOL     OW 6296   8.098   8.065   1.013  0.0628  0.0422 -0.3854
  933SOL    HW1 6297   8.014   8.078   0.971  0.2311  0.7748 -0.5067
  933SOL    HW2 6298   8.162   8.104   0.953  0.5092 -0.6207 -0.3626
  934SOL     OW 6299   4.222   9.381   5.591 -0.6438  0.6702 -0.4629
  934SOL    HW1 6300   4.139   9.352   5.628 -0.6653 -0.7451 -1.5361
  934SOL    HW2 6301   4.288   9.350   5.654 -0.8371  0.5043 -0.3393
  935SOL     OW 6302   2.957   8.366  10.808 -0.0380 -0.3340 -0.1559
  935SOL    HW1 6303   3.013   8.430  10.763  0.5495  0.1583  1.2130
  935SOL    HW2 6304   2.974   8.284  10.762 -0.6446  0.4288 -1.8125
  936SOL     OW 6305   9.225   1.261  10.190  0.1126 -0.1484  0.3597
  936SOL    HW1 6306   9.213   1.211  10.109 -2.3325 -0.7800  1.0299
  936SOL    HW2 6307   9.215   1.352  10.163  1.0382 -0.2175 -0.2858
  937SOL     OW 6308   2.486   8.481   6.549  0.5325 -0.3635 -0.0124
  937SOL    HW1 6309   2.543   8.480   6.626  0.0348  0.3427  0.3757
  937SOL    HW2 6310   2.405   8.523   6.580  0.1328 -0.5615 -0.7807
  938SOL     OW 6311   6.150   0.582  10.295  0.1733 -0.0623 -0.2159
  938SOL    HW1 6312   6.094   0.623  10.361 -0.2415 -0.5245 -0.2754
  938SOL    HW2 6313   6.222   0.544  10.345  0.3967  0.4653 -0.1306
  939SOL     OW 6314   3.384   6.471   6.724  0.2313 -0.0724 -0.3365
  939SOL    HW1 6315   3.306   6.416   6.727  0.1545  0.0680  0.9855
  939SOL    HW2 6316   3.457   6.410   6.719  0.0715 -0.2145 -1.1514
  940SOL     OW 6317   7.889   4.975   6.981 -0.3454 -0.8810  0.2256
  940SOL    HW1 6318   7.855   4.902   6.929 -2.5731 -0.2775  0.7248
  940SOL    HW2 6319   7.831   4.980   7.057  0.0873  1.0590  0.4922
  941SOL     OW 6320   3.176  10.785   1.196  0.1243  0.5673  0.3082
  941SOL    HW1 6321   3.186  10.749   1.284 -2.4011 -0.5103  0.2440
  941SOL    HW2 6322   3.216  10.872   1.201 -0.3475  0.7220  2.6462
  942SOL     OW 6323   9.517   5.176   1.248  0.0290  0.6217 -0.3687
  942SOL    HW1 6324   9.545   5.120   1.176 -0.9473 -0.8136  0.3074
  942SOL    HW2 6325   9.493   5.259   1.207 -0.9300 -0.3099 -1.7645
  943SOL     OW 6326   3.863   6.539   2.144  0.3045  0.4031  0.4335
  943SOL    HW1 6327   3.850   6.485   2.222 -5.0311  1.2256  0.5109
  943SOL    HW2 6328   3.858   6.629   2.177  1.9690  0.8801 -0.5052
  944SOL     OW 6329   5.531  11.007   6.461 -0.6141  0.6318 -0.8426
  944SOL    HW1 6330   5.534  11.009   6.366  0.0184 -0.0534 -0.8467
  944SOL    HW2 6331   5.603  11.063   6.489 -0.3312  0.2364 -0.7751
  945SOL     OW 6332   7.338   3.595   5.794 -0.3874  0.1158  0.0439
  945SOL    HW1 6333   7.244   3.580   5.804 -0.4268  0.3122 -0.0249
  945SOL    HW2 6334   7.361   3.649   5.870 -0.1111 -0.8628  0.6789
  946SOL     OW 6335   6.962   9.299   8.409 -0.0618 -0.2294 -0.0983
  946SOL    HW1 6336   6.937   9.365   8.473 -0.7380 -1.2800  0.7674
  946SOL    HW2 6337   6.883   9.247   8.396  0.6347 -1.2931 -0.2135
  947SOL     OW 6338   2.272   8.468   9.801  0.3719 -0.1388 -1.1301
  947SOL    HW1 6339   2.310   8.515   9.727 -0.5038  0.1509 -1.4164
  947SOL    HW2 6340   2.303   8.378   9.791  0.3381 -0.0837 -1.8003
  948SOL     OW 6341   7.622   9.096   9.672  0.0362  0.0209 -0.2655
  948SOL    HW1 6342   7.549   9.127   9.725 -0.9197 -0.9057 -1.0061
  948SOL    HW2 6343   7.699   9.135   9.713 -0.8219  0.6749  0.7876
  949SOL     OW 6344   3.416   4.433   0.424  0.8806 -0.2507 -0.4348
  949SOL    HW1 6345   3.386   4.345   0.404  0.5867 -0.0124 -1.0563
  949SOL    HW2 6346   3.374   4.489   0.358  2.6929  0.0847 -1.3785
  950SOL     OW 6347   8.136   8.794   6.596  0.5556  0.3700  0.0142
  950SOL    HW1 6348   8.170   8.736   6.664 -0.3863  0.4738  0.5939
  950SOL    HW2 6349   8.137   8.741   6.517 -1.2396 -0.8230  0.7247
  951SOL     OW 6350   5.846   2.492   4.936 -0.0687  0.0155  0.1158
  951SOL    HW1 6351   5.880   2.553   5.001 -0.7585  2.0532 -1.3256
  951SOL    HW2 6352   5.766   2.534   4.903 -0.4529 -1.5686 -1.1047
  952SOL     OW 6353   5.038   7.769   2.943 -0.3125 -0.3323  0.6560
  952SOL    HW1 6354   5.057   7.845   2.999  0.6704 -1.3947  1.8356
  952SOL    HW2 6355   5.105   7.705   2.967 -0.8789 -1.4376 -0.6008
  953SOL     OW 6356   5.630   9.254   5.839 -0.1235 -0.5449  0.0949
  953SOL    HW1 6357   5.685   9.332   5.836 -0.2100 -0.4865  0.0221
  953SOL    HW2 6358   5.633   9.220   5.749  1.2376 -1.5484  0.4754
  954SOL     OW 6359  10.467   8.093   3.799  0.6036 -0.0567 -0.4961
  954SOL    HW1 6360  10.467   8.012   3.749  1.1137 -1.3959  1.5269
  954SOL    HW2 6361  10.374   8.112   3.813  0.4754 -0.7443 -0.3412
  955SOL     OW 6362   1.127   9.727   5.735 -0.1899 -0.0111 -0.4013
  955SOL    HW1 6363   1.164   9.696   5.652  2.3289  0.6749  0.3794
  955SOL    HW2 6364   1.044   9.680   5.743  0.3545 -1.4784 -2.4091
  956SOL     OW 6365   3.837   7.921   8.322  0.2575  0.0528 -0.3793
  956SOL    HW1 6366   3.787   7.958   8.395  1.8766  0.0825  0.7853
  956SOL    HW2 6367   3.793   7.840   8.300 -1.1026  0.7641 -0.3656
  957SOL     OW 6368   6.335   3.258   9.065 -0.2280  0.2147  0.0396
  957SOL    HW1 6369   6.381   3.235   8.984 -0.6341 -0.8885  0.1159
  957SOL    HW2 6370   6.281   3.333   9.041  1.1307  1.1608 -0.2064
  958SOL     OW 6371   6.472   7.770   4.145 -0.6069  0.4472  0.4312
  958SOL    HW1 6372   6.423   7.748   4.224 -0.7443  0.3072  0.3065
  958SOL    HW2 6373   6.406   7.801   4.083 -0.2845  2.3862  1.0078
  959SOL     OW 6374   7.312   3.260   7.932 -0.2715 -0.4955 -0.1083
  959SOL    HW1 6375   7.270   3.180   7.898  0.3070 -0.1764 -1.6455
  959SOL    HW2 6376   7.405   3.240   7.930 -0.2103 -0.4057  1.2098
  960SOL     OW 6377   4.290   1.146   4.818 -0.8971 -0.4353  0.9249
  960SOL    HW1 6378   4.285   1.093   4.898 -0.0666  0.0162  1.2945
  960SOL    HW2 6379   4.210   1.125   4.770 -1.1519 -1.1203  1.6228
  961SOL     OW 6380   6.840   6.075   0.887  0.4422 -0.2553  0.5984
  961SOL    HW1 6381   6.760   6.127   0.879  0.6201 -0.0106  0.3755
  961SOL    HW2 6382   6.887   6.091   0.805  0.2564 -1.1833  0.3005
  962SOL     OW 6383   9.552   1.728   8.768 -0.0639  0.6120 -0.2888
  962SOL    HW1 6384   9.509   1.813   8.760 -0.8975  0.0687 -2.4574
  962SOL    HW2 6385   9.489   1.666   8.730  0.6365 -0.9437  0.9700
  963SOL     OW 6386  10.936  10.965   4.133  0.2062  0.2002  0.5183
  963SOL    HW1 6387  10.955  10.940   4.043  0.7686  2.2621 -0.0085
  963SOL    HW2 6388  10.877  11.041   4.125 -1.3171 -0.7673  1.9540
  964SOL     OW 6389   2.811   5.576   6.458 -0.0920  0.1685  0.5682
  964SOL    HW1 6390   2.735   5.625   6.487 -0.5691 -0.1538 -0.1212
  964SOL    HW2 6391   2.784   5.536   6.376  0.0533 -1.7838  1.4141
  965SOL     OW 6392   8.792   1.436   1.755  0.4018 -0.1921  0.0358
  965SOL    HW1 6393   8.726   1.388   1.704  0.2767 -0.4269  0.4151
  965SOL    HW2 6394   8.872   1.384   1.744  0.6149  0.2764 -0.7041
  966SOL     OW 6395   8.080   2.153   9.630 -0.7259 -0.4324  1.1252
  966SOL    HW1 6396   8.161   2.154   9.681 -1.3083  1.1777  2.0898
  966SOL    HW2 6397   8.086   2.228   9.572 -1.6911 -0.0263  1.5201
  967SOL     OW 6398   5.950   9.787   4.998 -0.7391  0.2773  0.1713
  967SOL    HW1 6399   6.034   9.813   4.960 -0.9853 -1.5345 -1.8474
  967SOL    HW2 6400   5.972   9.746   5.081  0.2114  1.0358  0.3125
  968SOL     OW 6401  10.464   0.982   6.095 -0.2515  0.3832 -0.1884
  968SOL    HW1 6402  10.485   1.068   6.057 -1.0716  1.0639  0.8573
  968SOL    HW2 6403  10.422   1.002   6.178  2.8262 -1.0331  1.9117
  969SOL     OW 6404   0.584   1.716   3.804  0.2490 -0.3378  0.3072
  969SOL    HW1 6405   0.663   1.766   3.824  0.6791 -1.5863  1.9512
  969SOL    HW2 6406   0.512   1.769   3.838  0.4090  0.5385 -0.6842
  970SOL     OW 6407   7.649   0.362   4.783  0.7079  0.0793  0.5474
  970SOL    HW1 6408   7.567   0.322   4.751  0.7581  0.2049  0.2584
  970SOL    HW2 6409   7.711   0.290   4.784  0.2336 -0.3398  2.1248
  971SOL     OW 6410   0.978   1.398   4.810 -0.1956 -0.1176  0.2728
  971SOL    HW1 6411   1.003   1.309   4.835  1.9571  0.8111  1.8023
  971SOL    HW2 6412   0.896   1.388   4.761  0.5883 -3.0081 -0.6120
  972SOL     OW 6413  10.301   6.621   7.916 -0.2614  0.5355  0.1558
  972SOL    HW1 6414  10.290   6.692   7.853 -1.3556 -0.2159 -0.5298
  972SOL    HW2 6415  10.222   6.624   7.970  0.9496  1.5891  1.9882
  973SOL     OW 6416   4.816   2.514   3.870 -0.9264  0.0360 -0.0125
  973SOL    HW1 6417   4.741   2.465   3.835 -1.1220 -0.1956  0.7076
  973SOL    HW2 6418   4.856   2.555   3.794 -0.8410 -1.1354 -0.6266
  974SOL     OW 6419   7.496   5.915   2.878  0.5523  0.0824 -0.0839
  974SOL    HW1 6420   7.467   6.004   2.898 -0.7233 -0.5016  0.8035
  974SOL    HW2 6421   7.428   5.880   2.821  0.9956 -0.3599 -0.3471
  975SOL     OW 6422   2.028   2.611  10.226 -0.3453  0.0653  0.4138
  975SOL    HW1 6423   2.094   2.569  10.281 -1.5396 -1.1582  0.9725
  975SOL    HW2 6424   1.980   2.669  10.286  0.7842  1.6714 -0.1877
  976SOL     OW 6425   2.806   6.648   9.808 -0.3312  0.0952  0.7883
  976SOL    HW1 6426   2.815   6.743   9.816 -0.2749  0.0335  1.5139
  976SOL    HW2 6427   2.875   6.612   9.864 -0.7507 -0.3718  1.0214
  977SOL     OW 6428   9.543   6.834   9.979 -0.2439 -0.1088  0.5306
  977SOL    HW1 6429   9.594   6.907   9.943  0.5494 -0.1725  1.4990
  977SOL    HW2 6430   9.498   6.797   9.903 -0.5716  1.3092 -0.0014
  978SOL     OW 6431   9.992   7.600   6.771  0.5969  0.3466 -0.5098
  978SOL    HW1 6432  10.024   7.681   6.731  1.0971  0.2005 -0.4241
  978SOL    HW2 6433   9.933   7.629   6.841  1.2454  0.6598 -0.0827
  979SOL     OW 6434   8.223   7.985   8.953  0.0015 -0.7336 -0.7586
  979SOL    HW1 6435   8.294   8.043   8.980 -1.9917  1.8356 -0.7283
  979SOL    HW2 6436   8.213   8.001   8.859 -1.2348 -0.2567 -0.5532
  980SOL     OW 6437   3.004   5.698   2.597 -0.1222  0.3043 -0.3983
  980SOL    HW1 6438   2.989   5.618   2.648 -0.4721  1.1169  0.8220
  980SOL    HW2 6439   3.095   5.693   2.569 -0.1573 -0.5411 -0.3860
  981SOL     OW 6440   5.116   7.414   2.663 -0.2360  0.7121 -0.3493
  981SOL    HW1 6441   5.149   7.324   2.668  0.8048  1.1090  0.4932
  981SOL    HW2 6442   5.082   7.431   2.751  0.9859  1.6376 -0.0375
  982SOL     OW 6443   5.082   2.011   4.028  0.4045 -0.2310  0.0333
  982SOL    HW1 6444   5.110   1.920   4.037  0.7976 -0.1404 -0.2098
  982SOL    HW2 6445   5.054   2.037   4.115  2.1427  0.0023  0.5650
  983SOL     OW 6446   5.358   4.840   5.861 -0.4934  0.3992  0.1047
  983SOL    HW1 6447   5.266   4.860   5.847 -0.7635 -0.8695 -0.0464
  983SOL    HW2 6448   5.360   4.746   5.878  0.6614  0.5912  1.1828
  984SOL     OW 6449   3.026   8.209   4.082  0.2585 -0.4083  0.1008
  984SOL    HW1 6450   3.080   8.236   4.007  0.7116  0.1890  0.6297
  984SOL    HW2 6451   2.944   8.178   4.043 -0.4387  2.0370 -0.5490
  985SOL     OW 6452   7.327   2.759   9.828  0.6787  0.8685 -0.0920
  985SOL    HW1 6453   7.366   2.698   9.765  2.2942  1.9125 -0.1764
  985SOL    HW2 6454   7.363   2.845   9.803  0.3493  1.4962  1.4626
  986SOL     OW 6455   8.260   0.658   5.185 -0.1471  0.0266 -0.3103
  986SOL    HW1 6456   8.246   0.650   5.091 -1.7698 -0.8065 -0.0213
  986SOL    HW2 6457   8.315   0.583   5.208 -0.5689 -0.3231 -0.4396
  987SOL     OW 6458   1.665   4.384   1.520  0.1213  0.3578 -0.1193
  987SOL    HW1 6459   1.620   4.410   1.440  1.4203 -0.5566 -1.2057
  987SOL    HW2 6460   1.678   4.465   1.568  0.0060  1.0434 -1.2111
  988SOL     OW 6461   2.896   0.410   6.366 -0.4421 -0.0499 -0.1291
  988SOL    HW1 6462   2.972   0.456   6.332 -0.0883 -1.6729 -1.6889
  988SOL    HW2 6463   2.821   0.461   6.335 -0.0313  1.0374  0.6215
  989SOL     OW 6464   5.279   2.466   3.300 -0.2805  0.5745  0.1965
  989SOL    HW1 6465   5.259   2.392   3.241 -0.7229  1.2395 -0.5070
  989SOL    HW2 6466   5.372   2.454   3.322  0.2826  1.0508 -1.7384
  990SOL     OW 6467   3.787   9.385   4.080  0.3089 -0.1364 -0.6711
  990SOL    HW1 6468   3.707   9.341   4.109 -0.2311  1.2645  0.0846
  990SOL    HW2 6469   3.848   9.373   4.153  0.1663  0.3322 -0.4715
  991SOL     OW 6470   4.349   5.474   9.653  0.3543  0.1293  0.3074
  991SOL    HW1 6471   4.433   5.500   9.690  0.8588  0.2390 -0.8839
  991SOL    HW2 6472   4.353   5.501   9.561 -1.4977  1.3556  0.5167
  992SOL     OW 6473   9.951   3.263   3.555 -0.3836  0.5934  0.0538
  992SOL    HW1 6474   9.866   3.220   3.569 -0.5460  1.1480  0.8233
  992SOL    HW2 6475  10.010   3.218   3.615 -0.0727  0.0702 -0.6289
  993SOL     OW 6476   8.643   8.281   5.058 -0.9860 -0.0705  0.2999
  993SOL    HW1 6477   8.659   8.261   4.966  0.0536 -0.6373  0.5906
  993SOL    HW2 6478   8.610   8.371   5.058  1.5381  0.9214 -0.4382
  994SOL     OW 6479   7.767   7.624   0.001  0.0980 -0.3463  0.0867
  994SOL    HW1 6480   7.862   7.635   0.004 -0.0296  0.6496  1.1268
  994SOL    HW2 6481   7.734   7.707  -0.032 -0.5291  0.1234  1.8167
  995SOL     OW 6482   4.238   5.968   1.448  0.3290 -0.5236 -0.0795
  995SOL    HW1 6483   4.286   5.931   1.522  1.7391  0.4676 -0.4615
  995SOL    HW2 6484   4.258   5.909   1.375  1.7354  0.3522 -0.4437
  996SOL     OW 6485   5.508   8.193   6.299  0.0393  0.0621  0.1651
  996SOL    HW1 6486   5.514   8.122   6.235 -0.3109  1.4534 -1.4938
  996SOL    HW2 6487   5.416   8.195   6.324 -0.1841  0.6129 -0.6498
  997SOL     OW 6488   8.391   5.655   4.717 -0.2380  0.0804  0.7920
  997SOL    HW1 6489   8.327   5.719   4.685 -0.5877 -1.7216 -2.6015
  997SOL    HW2 6490   8.337   5.582   4.748  0.0957 -1.0528 -1.1863
  998SOL     OW 6491   9.597   0.140   6.515  0.4967  0.3168 -0.4238
  998SOL    HW1 6492   9.589   0.234   6.532  1.2049  0.3093  0.0182
  998SOL    HW2 6493   9.513   0.103   6.542 -0.6548  1.0779 -2.6790
  999SOL     OW 6494   0.532   9.327   0.574 -0.3276  0.4427  0.1092
  999SOL    HW1 6495   0.596   9.256   0.573 -0.2576  0.4877  0.8030
  999SOL    HW2 6496   0.491   9.322   0.660 -0.3127  1.2438  0.1742
 1000SOL     OW 6497   4.592   4.048   8.191  0.5226  0.2311  0.2886
 1000SOL    HW1 6498   4.509   4.081   8.157  1.5107  2.6441 -0.0043
 1000SOL    HW2 6499   4.601   3.961   8.154 -0.9710  0.6815 -1.2426
 1001SOL     OW 6500  10.899   5.557  10.366 -0.4008  0.3758 -0.1699
 1001SOL    HW1 6501  10.900   5.610  10.446 -1.6288  2.5453 -1.4731
 1001SOL    HW2 6502  10.817   5.509  10.369 -0.2981  0.2128  0.0174
 1002SOL     OW 6503   7.680   5.075   2.579 -0.1954 -0.2096 -0.6966
 1002SOL    HW1 6504   7.591   5.042   2.592 -0.1537 -0.4807 -1.1033
 1002SOL    HW2 6505   7.681   5.108   2.489 -0.8174  2.6816  0.2235
 1003SOL     OW 6506   9.653   3.316  10.367 -0.0360 -0.1618  0.4005
 1003SOL    HW1 6507   9.712   3.369  10.313 -1.7990 -1.5691 -3.2655
 1003SOL    HW2 6508   9.605   3.380  10.419  0.8644  1.4786 -0.6691
 1004SOL     OW 6509   1.410   6.459   6.108 -0.2571 -0.3723 -0.6066
 1004SOL    HW1 6510   1.413   6.366   6.128 -0.5215 -0.6581 -1.7759
 1004SOL    HW2 6511   1.342   6.466   6.041 -2.1682  1.0347  1.3340
 1005SOL     OW 6512   7.932   9.640   5.199 -0.5235 -0.5451  0.1186
 1005SOL    HW1 6513   7.898   9.710   5.254 -0.5688 -0.0597 -0.5073
 1005SOL    HW2 6514   7.871   9.636   5.125 -0.6028 -1.3476  0.2213
 1006SOL     OW 6515   3.107   0.253   2.315  0.1047 -0.0018  0.2475
 1006SOL    HW1 6516   3.099   0.328   2.374  0.1142 -0.6325  1.0744
 1006SOL    HW2 6517   3.200   0.251   2.292 -0.1067  0.9527 -0.7613
 1007SOL     OW 6518   0.628   2.811   2.928  0.1330  0.0171  0.4615
 1007SOL    HW1 6519   0.542   2.843   2.955 -0.9964 -2.2325 -0.1930
 1007SOL    HW2 6520   0.638   2.727   2.974  1.9533  0.1906  0.4526
 1008SOL     OW 6521  10.025   1.219   6.631  0.4160 -0.5850  0.5134
 1008SOL    HW1 6522   9.961   1.261   6.574  0.0631  0.8113  1.8594
 1008SOL    HW2 6523  10.026   1.127   6.603 -0.5439 -0.1814 -0.9622
 1009SOL     OW 6524   0.776  10.009   9.440 -0.3332 -0.3303 -0.2267
 1009SOL    HW1 6525   0.855   9.958   9.458  0.4141  1.2152  1.0979
 1009SOL    HW2 6526   0.707   9.943   9.430  0.6832 -1.6223  0.8823
 1010SOL     OW 6527   8.251   8.171   3.843 -0.5268 -0.4023 -0.3042
 1010SOL    HW1 6528   8.319   8.106   3.859  0.8448  1.1783  0.5187
 1010SOL    HW2 6529   8.298   8.254   3.837 -2.1569  0.4707 -1.9348
 1011SOL     OW 6530  10.611   5.283   3.133  0.4705 -0.6361 -0.5257
 1011SOL    HW1 6531  10.518   5.279   3.113  0.0448  2.7293  0.1072
 1011SOL    HW2 6532  10.615   5.291   3.228  1.4417 -0.9583 -0.5280
 1012SOL     OW 6533   4.265   1.897   5.011  0.1450  0.0896  0.2036
 1012SOL    HW1 6534   4.330   1.957   4.974  0.1962 -0.0462  0.0657
 1012SOL    HW2 6535   4.230   1.851   4.934  0.5628 -0.5059  0.3596
 1013SOL     OW 6536   1.008   4.759   8.641 -0.2368  0.3032 -0.1769
 1013SOL    HW1 6537   0.920   4.752   8.677 -0.3323 -2.4959 -0.7481
 1013SOL    HW2 6538   1.003   4.716   8.556  1.7725 -0.4477  0.0214
 1014SOL     OW 6539   8.232   5.155   3.571 -0.4443  0.2581  0.0198
 1014SOL    HW1 6540   8.174   5.119   3.638  1.5219  0.0381  1.7159
 1014SOL    HW2 6541   8.317   5.116   3.591  0.5507  1.5017 -1.6100
 1015SOL     OW 6542   1.273  10.018   2.728 -0.2594 -0.1948  0.4804
 1015SOL    HW1 6543   1.289   9.935   2.774  0.5238  0.7408  1.9686
 1015SOL    HW2 6544   1.185  10.043   2.755  0.1138  0.2412  1.3454
 1016SOL     OW 6545   4.760   4.870   9.822  0.0126  0.0693 -0.0704
 1016SOL    HW1 6546   4.805   4.802   9.771 -1.4092 -1.0413  0.0945
 1016SOL    HW2 6547   4.797   4.952   9.790  1.5303 -0.7590 -0.5219
 1017SOL     OW 6548   6.974   2.764   2.267 -0.4271  0.1389  0.5191
 1017SOL    HW1 6549   6.884   2.796   2.267 -0.5173 -0.0032 -0.9756
 1017SOL    HW2 6550   6.980   2.705   2.342 -1.2039  1.1189  1.3685
 1018SOL     OW 6551   8.482   0.768   6.739  0.2579 -0.1684 -0.2306
 1018SOL    HW1 6552   8.514   0.848   6.697  2.7022 -0.4931  0.8905
 1018SOL    HW2 6553   8.408   0.798   6.792 -2.0104  0.4774 -3.4353
 1019SOL     OW 6554  10.329   0.975   6.528  0.5272 -0.0485 -0.3583
 1019SOL    HW1 6555  10.299   1.062   6.553 -0.6390  0.0107 -1.8439
 1019SOL    HW2 6556  10.418   0.988   6.496  0.3263  0.6157 -0.6622
 1020SOL     OW 6557   3.736   1.611   0.950  0.1358  0.4497  0.2648
 1020SOL    HW1 6558   3.828   1.600   0.924  0.1070 -2.4875  1.0886
 1020SOL    HW2 6559   3.740   1.664   1.030  1.5151 -2.3385  2.2029
 1021SOL     OW 6560   8.980   9.752   3.770  0.5031  0.3918 -0.2174
 1021SOL    HW1 6561   9.019   9.665   3.777 -1.2592 -0.4534 -0.3623
 1021SOL    HW2 6562   9.051   9.812   3.791  2.0849 -1.0162 -1.2800
 1022SOL     OW 6563   8.667   2.386   8.279  0.2332  0.2839  0.6812
 1022SOL    HW1 6564   8.609   2.311   8.296  1.7501 -0.8673  1.0210
 1022SOL    HW2 6565   8.626   2.431   8.205 -1.2438 -0.2974  1.0956
 1023SOL     OW 6566   2.507   3.990   7.737  0.7999  1.0245 -0.7547
 1023SOL    HW1 6567   2.430   3.934   7.730  1.3480  0.2506 -0.6319
 1023SOL    HW2 6568   2.487   4.048   7.811  0.8058  0.0789  0.0060
 1024SOL     OW 6569   5.893   9.716   3.475  0.2077 -0.1536  0.2963
 1024SOL    HW1 6570   5.972   9.711   3.528  0.6229  0.1717 -0.2720
 1024SOL    HW2 6571   5.879   9.810   3.463  0.9570 -0.2209 -1.3597
 1025SOL     OW 6572   6.696   7.893   3.260 -0.0273 -0.2132  0.4051
 1025SOL    HW1 6573   6.695   7.814   3.314 -1.5408 -0.5360 -0.0639
 1025SOL    HW2 6574   6.640   7.872   3.185  3.5891 -0.5636 -2.4926
 1026SOL     OW 6575   9.545   4.001   8.338 -0.1968 -0.5119  0.0346
 1026SOL    HW1 6576   9.489   3.937   8.382 -1.0666  1.1778  1.5125
 1026SOL    HW2 6577   9.572   3.957   8.257  0.2510 -3.1790  1.5074
 1027SOL     OW 6578   8.309   1.395   2.562  0.6586  0.3984 -0.7139
 1027SOL    HW1 6579   8.308   1.306   2.527  0.5953 -0.0719  0.4411
 1027SOL    HW2 6580   8.236   1.398   2.623  2.2765  0.3597  1.3198
 1028SOL     OW 6581   3.927   4.110   1.517 -0.1223  0.1164 -0.2601
 1028SOL    HW1 6582   3.956   4.130   1.429  0.3724 -1.0987 -0.3961
 1028SOL    HW2 6583   3.838   4.075   1.506 -0.1914  0.2800 -0.2321
 1029SOL     OW 6584   3.857  10.230   2.033 -0.0152 -0.6315  0.0851
 1029SOL    HW1 6585   3.803  10.298   1.993 -0.1940 -0.0435  1.3046
 1029SOL    HW2 6586   3.908  10.194   1.959 -0.6588  0.1099 -0.7423
 1030SOL     OW 6587   1.715   4.152   8.920  0.0261  0.1654 -0.2334
 1030SOL    HW1 6588   1.681   4.102   8.846  0.9396 -0.3268 -0.3259
 1030SOL    HW2 6589   1.775   4.092   8.964 -0.0911  0.6411  0.5963
 1031SOL     OW 6590   3.785   2.680   9.188  0.8142 -0.7848 -0.4611
 1031SOL    HW1 6591   3.757   2.757   9.138 -0.5408 -1.3218 -0.5627
 1031SOL    HW2 6592   3.874   2.662   9.157  1.3278  0.9865 -0.1144
 1032SOL     OW 6593   2.864   6.412   8.373 -0.3998 -0.0038  0.6301
 1032SOL    HW1 6594   2.936   6.450   8.322  0.3573 -0.4077  1.3875
 1032SOL    HW2 6595   2.811   6.366   8.308  1.0755 -1.3341  0.3027
 1033SOL     OW 6596   9.331   0.424   0.941  0.2016  0.0494  0.0652
 1033SOL    HW1 6597   9.305   0.512   0.914 -0.9391 -0.7740 -1.7453
 1033SOL    HW2 6598   9.250   0.384   0.973  0.1789 -1.0246 -1.2313
 1034SOL     OW 6599   0.188   4.656   8.876 -0.1561 -0.1884  0.2588
 1034SOL    HW1 6600   0.242   4.577   8.881 -0.6810 -0.9144 -3.2204
 1034SOL    HW2 6601   0.220   4.712   8.948  1.1793 -2.9265  1.9548
 1035SOL     OW 6602   3.736   2.369  10.981 -0.3042 -0.4395 -0.1800
 1035SOL    HW1 6603   3.679   2.442  10.958  0.2188 -0.5765 -1.9995
 1035SOL    HW2 6604   3.771   2.338  10.898  2.6187 -0.2502  0.8607
 1036SOL     OW 6605   6.765   3.332   9.146 -0.4763  0.0041  0.1121
 1036SOL    HW1 6606   6.721   3.249   9.165 -0.1199  0.0847  1.3882
 1036SOL    HW2 6607   6.791   3.326   9.054 -0.3131 -1.3620  0.2373
 1037SOL     OW 6608   9.065   5.669  10.592  0.5308 -0.2578 -0.4200
 1037SOL    HW1 6609   9.121   5.591  10.595  1.5964  0.5273  1.8480
 1037SOL    HW2 6610   9.071   5.699  10.501  2.3036 -1.2652 -0.6853
 1038SOL     OW 6611   5.209   7.681   3.388 -0.0072 -0.1086  0.4956
 1038SOL    HW1 6612   5.233   7.620   3.318  0.7171 -0.6459  1.1993
 1038SOL    HW2 6613   5.272   7.664   3.458 -0.4941  0.6705  1.1440
 1039SOL     OW 6614   1.512   5.864   1.082 -0.2516  0.4062 -0.1837
 1039SOL    HW1 6615   1.593   5.901   1.048 -1.0373  1.2895 -1.1482
 1039SOL    HW2 6616   1.469   5.938   1.125 -0.6682 -0.0005  0.1028
 1040SOL     OW 6617   6.324   8.625   0.553 -0.0665 -0.2064  0.2382
 1040SOL    HW1 6618   6.311   8.533   0.531  1.7807 -0.5804  0.5673
 1040SOL    HW2 6619   6.281   8.673   0.483  1.9361 -1.3507 -1.9133
 1041SOL     OW 6620   8.025   0.456   2.216  0.2263  0.2139  0.2637
 1041SOL    HW1 6621   8.020   0.363   2.234  0.6245 -0.1501 -1.3151
 1041SOL    HW2 6622   7.962   0.496   2.276  0.4618 -0.9961  1.3497
 1042SOL     OW 6623   3.183   8.457   4.145 -0.1564  0.3040 -0.3603
 1042SOL    HW1 6624   3.237   8.391   4.188 -0.8446 -0.2941 -0.3883
 1042SOL    HW2 6625   3.147   8.412   4.068  1.9714  1.6688 -2.2875
 1043SOL     OW 6626   4.643   9.487   6.477  0.0360 -0.2966 -0.0952
 1043SOL    HW1 6627   4.637   9.392   6.468  1.2575 -0.2857 -1.3829
 1043SOL    HW2 6628   4.736   9.506   6.471 -0.2146  1.0145 -0.1725
 1044SOL     OW 6629   8.426   6.333   3.783 -0.9519  0.6257  0.2263
 1044SOL    HW1 6630   8.429   6.243   3.817 -1.8200  0.7953  0.8011
 1044SOL    HW2 6631   8.337   6.363   3.804 -0.6252  1.6680  0.1698
 1045SOL     OW 6632   8.216   5.789   5.559  0.2321  0.1682  0.1439
 1045SOL    HW1 6633   8.211   5.884   5.573  0.7957  0.6481 -2.3778
 1045SOL    HW2 6634   8.284   5.760   5.619 -0.0829  1.3249  1.0976
 1046SOL     OW 6635   4.598   8.322   6.086  0.0775  0.1882 -0.5183
 1046SOL    HW1 6636   4.637   8.263   6.022  0.0878 -1.5711  1.0417
 1046SOL    HW2 6637   4.654   8.314   6.164 -0.4041  1.6380  0.0178
 1047SOL     OW 6638   8.121   0.106   5.077 -0.0221  0.5054  0.1678
 1047SOL    HW1 6639   8.089   0.155   5.001 -0.8046  0.6085  0.5506
 1047SOL    HW2 6640   8.182   0.166   5.121 -0.6168  0.9692  0.3744
 1048SOL     OW 6641   5.277   4.105   8.296  0.1569  0.1797 -0.0667
 1048SOL    HW1 6642   5.250   4.159   8.222  2.1351  0.2387 -0.7887
 1048SOL    HW2 6643   5.349   4.052   8.263 -1.2075 -2.3982  0.8520
 1049SOL     OW 6644   1.997   1.307   9.951 -0.0979 -0.5879  0.4222
 1049SOL    HW1 6645   1.945   1.386   9.936 -1.1731 -1.2128  0.7228
 1049SOL    HW2 6646   2.068   1.336  10.008 -0.8048  0.0706  1.0047
 1050SOL     OW 6647   2.185   8.262   1.300 -0.2761 -0.3886 -0.4060
 1050SOL    HW1 6648   2.100   8.291   1.268  0.2453 -1.7345 -3.3077
 1050SOL    HW2 6649   2.233   8.234   1.222  1.4345 -3.2947  1.4621
 1051SOL     OW 6650   0.202   4.389  10.740 -0.3707  0.0776 -0.4720
 1051SOL    HW1 6651   0.125   4.365  10.792 -0.8064 -1.0532 -1.5577
 1051SOL    HW2 6652   0.179   4.472  10.699 -1.4460 -0.7160 -1.5428
 1052SOL     OW 6653   1.832  10.440   7.552  0.8921  0.9879 -0.2770
 1052SOL    HW1 6654   1.890  10.397   7.614 -0.2777 -0.1137  0.0987
 1052SOL    HW2 6655   1.788  10.509   7.602  0.3596  0.4600 -0.0039
 1053SOL     OW 6656   7.763   3.088   8.484 -0.5420  0.0772  0.2713
 1053SOL    HW1 6657   7.754   3.152   8.554 -1.5720  0.1404  0.0957
 1053SOL    HW2 6658   7.676   3.049   8.476 -0.3814 -0.0874 -0.8207
 1054SOL     OW 6659   7.277   2.131   0.950 -0.3807  0.2818  0.0347
 1054SOL    HW1 6660   7.190   2.090   0.950 -0.5314  0.5942 -0.3926
 1054SOL    HW2 6661   7.285   2.169   0.863  0.6706 -0.7509 -0.3428
 1055SOL     OW 6662   2.768   4.597  10.907  0.1453  0.1813 -0.2124
 1055SOL    HW1 6663   2.835   4.653  10.947  0.9354  0.5408 -1.9206
 1055SOL    HW2 6664   2.716   4.658  10.854  0.8092 -0.5903 -1.8348
 1056SOL     OW 6665   0.135   7.788   8.547 -0.3899 -0.1502 -0.2669
 1056SOL    HW1 6666   0.154   7.750   8.461  0.6847 -1.1392  0.3729
 1056SOL    HW2 6667   0.217   7.778   8.596 -0.8899  0.6763  0.7748
 1057SOL     OW 6668   8.538   2.411   5.905 -0.1747 -0.2291 -0.4082
 1057SOL    HW1 6669   8.472   2.401   5.836 -0.9279 -0.1195  0.2811
 1057SOL    HW2 6670   8.521   2.338   5.965  0.6912 -0.5217 -0.5046
 1058SOL     OW 6671   7.837  10.948   9.316 -0.3044 -0.1070  0.2554
 1058SOL    HW1 6672   7.871  11.024   9.269 -0.3644 -0.2170  0.0314
 1058SOL    HW2 6673   7.753  10.929   9.272  0.1546 -0.8748 -0.3075
 1059SOL     OW 6674   1.153   1.684   3.103  0.3316 -0.2298  0.7867
 1059SOL    HW1 6675   1.183   1.600   3.066  0.3616 -1.6486  3.7458
 1059SOL    HW2 6676   1.228   1.717   3.152 -1.0706 -1.0288  3.6933
 1060SOL     OW 6677   1.629   1.088   1.738  0.0760 -0.1718 -0.1314
 1060SOL    HW1 6678   1.690   1.046   1.677  1.7007  0.5699  0.9075
 1060SOL    HW2 6679   1.574   1.144   1.683  0.4884 -0.6667 -1.0708
 1061SOL     OW 6680   7.401   3.413   4.951 -0.3015 -0.3564  0.4043
 1061SOL    HW1 6681   7.358   3.496   4.928 -0.4650 -0.5920 -0.1655
 1061SOL    HW2 6682   7.329   3.351   4.961 -0.1052 -0.8549 -0.9643
 1062SOL     OW 6683   4.881   2.448   5.755 -0.0540  0.7025  0.1737
 1062SOL    HW1 6684   4.941   2.522   5.767  1.3696 -0.3580 -0.1694
 1062SOL    HW2 6685   4.836   2.440   5.839  0.4513  1.3767  0.5168
 1063SOL     OW 6686   0.286   6.383   5.606  0.1253  0.5241 -0.1064
 1063SOL    HW1 6687   0.212   6.421   5.654  0.8600  2.5346 -0.4713
 1063SOL    HW2 6688   0.248   6.355   5.523 -0.3441  1.0098 -0.0630
 1064SOL     OW 6689   9.321   5.418   2.063 -0.1737 -0.0890 -0.1518
 1064SOL    HW1 6690   9.319   5.513   2.074 -0.7324 -0.1972  0.7930
 1064SOL    HW2 6691   9.297   5.383   2.149  2.1028 -1.1164  0.1466
 1065SOL     OW 6692   1.866   9.414   6.889 -0.3999  0.6492  0.4503
 1065SOL    HW1 6693   1.922   9.441   6.816  0.7573  1.0652  1.4714
 1065SOL    HW2 6694   1.815   9.341   6.854  1.2871 -0.2126 -0.3047
 1066SOL     OW 6695   4.621  10.958   3.964  0.5743  0.1166 -0.4983
 1066SOL    HW1 6696   4.694  10.971   4.024 -1.1650 -0.5717  1.9290
 1066SOL    HW2 6697   4.565  11.034   3.977  1.0915  1.0071 -2.8645
 1067SOL     OW 6698   2.913   5.826   7.770 -0.2340  0.3494 -0.1316
 1067SOL    HW1 6699   3.004   5.834   7.740 -0.1856 -0.2796 -0.1707
 1067SOL    HW2 6700   2.861   5.836   7.690 -0.0608 -2.5847 -0.7251
 1068SOL     OW 6701   1.419   7.811   2.504  0.1033  0.6986 -0.6391
 1068SOL    HW1 6702   1.378   7.747   2.446 -0.3809  0.7456 -0.3589
 1068SOL    HW2 6703   1.352   7.879   2.514 -0.4833 -0.0889  1.2792
 1069SOL     OW 6704   5.765   1.997   5.210 -0.9346  0.2581 -0.1026
 1069SOL    HW1 6705   5.780   2.078   5.161 -0.4854 -0.0771 -0.5362
 1069SOL    HW2 6706   5.723   1.939   5.146  0.2449 -0.4072 -0.3015
 1070SOL     OW 6707   7.795   8.499   4.844 -0.4899  0.0961  0.2438
 1070SOL    HW1 6708   7.838   8.551   4.913 -2.2922  3.3585 -0.8498
 1070SOL    HW2 6709   7.857   8.500   4.771  0.0011 -0.3734  0.6478
 1071SOL     OW 6710   0.442   1.334   6.799 -0.0347 -0.0750 -0.2078
 1071SOL    HW1 6711   0.500   1.287   6.739  0.0155 -0.8210  0.4137
 1071SOL    HW2 6712   0.364   1.279   6.804 -0.7785  0.8699 -0.9596
 1072SOL     OW 6713   0.378   7.213   5.085  0.2028 -0.9336  0.3319
 1072SOL    HW1 6714   0.341   7.126   5.103 -1.4030 -0.0175  1.7522
 1072SOL    HW2 6715   0.307   7.274   5.105  1.3646  0.7435 -0.4149
 1073SOL     OW 6716   6.284   4.378   6.388 -0.1399 -0.1359 -0.1311
 1073SOL    HW1 6717   6.274   4.406   6.297 -0.9335  1.3748  0.3922
 1073SOL    HW2 6718   6.371   4.408   6.413 -0.1569 -0.0106 -0.2203
 1074SOL     OW 6719   1.175   2.772   2.009 -0.6450 -0.7971 -0.0601
 1074SOL    HW1 6720   1.171   2.855   1.962  0.3977 -0.3597  0.5752
 1074SOL    HW2 6721   1.125   2.786   2.089 -0.7031 -0.8729 -0.0824
 1075SOL     OW 6722   5.476   2.958   3.276 -0.0011  0.4626  0.8156
 1075SOL    HW1 6723   5.538   2.914   3.334  1.8681 -0.7063 -1.8617
 1075SOL    HW2 6724   5.401   2.898   3.271  0.8291 -0.5645  0.2660
 1076SOL     OW 6725   0.892   8.061   2.164 -0.3302 -0.0100  0.7747
 1076SOL    HW1 6726   0.962   8.030   2.221  0.2987 -0.2132 -0.0844
 1076SOL    HW2 6727   0.845   7.982   2.138 -0.2335  0.0198  0.5125
 1077SOL     OW 6728   1.634   9.531   8.247  0.4065 -0.3236  0.1443
 1077SOL    HW1 6729   1.629   9.500   8.337  0.9647  0.6829  0.5513
 1077SOL    HW2 6730   1.714   9.585   8.245  0.1517  0.0442 -0.8264
 1078SOL     OW 6731   0.556  10.328  10.798  0.0563  0.3984  0.2103
 1078SOL    HW1 6732   0.475  10.281  10.778 -1.3112  2.0222  1.5547
 1078SOL    HW2 6733   0.581  10.369  10.715 -0.5536 -0.0567 -0.2072
 1079SOL     OW 6734  10.636  10.470   1.891  0.5764  0.1037  0.0176
 1079SOL    HW1 6735  10.705  10.421   1.936  2.0866  1.2278 -0.9928
 1079SOL    HW2 6736  10.600  10.527   1.958 -0.7712 -1.8221  1.0524
 1080SOL     OW 6737   6.208   3.486   6.821  0.0094 -0.3346 -0.1718
 1080SOL    HW1 6738   6.174   3.546   6.754  0.6289 -0.8630 -0.9740
 1080SOL    HW2 6739   6.287   3.529   6.854  0.2854 -0.5662 -0.5301
 1081SOL     OW 6740   3.048   7.207  10.970  0.2854  0.8200  0.3512
 1081SOL    HW1 6741   3.138   7.196  10.999  0.6546  1.6951 -0.4121
 1081SOL    HW2 6742   3.054   7.259  10.890 -0.8441  0.1786 -0.1812
 1082SOL     OW 6743  10.807   6.423   4.998  0.4060  0.0571  0.1286
 1082SOL    HW1 6744  10.811   6.437   5.093 -0.2604  1.9269 -0.0886
 1082SOL    HW2 6745  10.714   6.424   4.978  0.4261 -2.0905 -0.3629
 1083SOL     OW 6746   9.061   5.191   9.070 -0.0831  0.2699  0.2355
 1083SOL    HW1 6747   8.996   5.184   9.001  0.3762 -1.5466 -0.0654
 1083SOL    HW2 6748   9.131   5.243   9.032  0.4980 -1.3125 -0.9959
 1084SOL     OW 6749   5.432   8.081   0.943  0.2869  0.3669  0.4049
 1084SOL    HW1 6750   5.475   8.007   0.900  0.9461  0.8336  0.2474
 1084SOL    HW2 6751   5.361   8.104   0.884 -1.6746 -1.8294  1.7220
 1085SOL     OW 6752   6.157   8.558   5.368 -0.1385 -0.0389  0.4685
 1085SOL    HW1 6753   6.066   8.557   5.339 -0.1265 -0.2564  0.4368
 1085SOL    HW2 6754   6.151   8.564   5.464 -0.1700  1.4547  0.3960
 1086SOL     OW 6755   6.175   8.527   2.056  0.3064 -0.0066 -0.2606
 1086SOL    HW1 6756   6.082   8.546   2.068  0.1040 -0.5312 -0.9540
 1086SOL    HW2 6757   6.188   8.529   1.961  0.5738 -1.8662 -0.3020
 1087SOL     OW 6758   8.478   4.883  10.158  0.1984 -0.1997 -0.3195
 1087SOL    HW1 6759   8.529   4.811  10.195 -0.4293 -0.2421  0.5016
 1087SOL    HW2 6760   8.543   4.942  10.119  0.9457  0.0415  1.2063
 1088SOL     OW 6761   9.913   2.905   5.554 -0.8074 -0.0133  0.3911
 1088SOL    HW1 6762   9.857   2.899   5.477  0.0239  0.1796 -0.2391
 1088SOL    HW2 6763   9.964   2.825   5.554  0.5180  0.7998 -0.3243
 1089SOL     OW 6764   8.712   0.138  10.291 -0.1853  0.1008 -0.2295
 1089SOL    HW1 6765   8.649   0.163  10.359 -2.0729 -1.3079 -1.3916
 1089SOL    HW2 6766   8.775   0.082  10.337 -1.3425 -0.6976  0.4275
 1090SOL     OW 6767   0.617   6.408   5.410  0.2214  0.2798 -0.2351
 1090SOL    HW1 6768   0.546   6.344   5.409 -0.4721  0.9703  1.5255
 1090SOL    HW2 6769   0.573   6.492   5.420  1.2752  0.7312  0.7803
 1091SOL     OW 6770   2.759  10.718   1.553  0.0507  0.0749  0.0367
 1091SOL    HW1 6771   2.738  10.745   1.643  0.8970  0.9021  0.0114
 1091SOL    HW2 6772   2.754  10.799   1.502 -0.2082 -0.3490 -0.6227
 1092SOL     OW 6773   0.280   5.365   4.576 -0.2470 -0.8971  0.6806
 1092SOL    HW1 6774   0.289   5.400   4.665  0.7064  0.0638  0.2319
 1092SOL    HW2 6775   0.337   5.289   4.575  0.7825 -0.1499  0.5345
 1093SOL     OW 6776   6.161   9.070   1.995  0.2333 -0.2206  0.0805
 1093SOL    HW1 6777   6.196   8.982   1.990 -0.3911 -0.6142  1.7212
 1093SOL    HW2 6778   6.118   9.085   1.911  0.8098 -1.2745 -0.4045
 1094SOL     OW 6779   8.764   8.283   5.648  0.2978 -0.0494 -0.6419
 1094SOL    HW1 6780   8.672   8.290   5.623 -0.2985 -2.1883  0.6914
 1094SOL    HW2 6781   8.810   8.342   5.588 -2.0211  1.8836 -0.6612
 1095SOL     OW 6782   8.458   4.907   4.204 -0.2858  0.2549 -0.6494
 1095SOL    HW1 6783   8.405   4.883   4.280  0.9498 -0.1755  0.1134
 1095SOL    HW2 6784   8.509   4.983   4.233  1.4405 -0.9280 -0.4131
 1096SOL     OW 6785   1.605   9.885   6.722 -0.1959 -0.4183  0.9269
 1096SOL    HW1 6786   1.661   9.919   6.652 -0.4564 -0.8583  0.5037
 1096SOL    HW2 6787   1.612   9.790   6.714  0.7129 -0.4923  2.2524
 1097SOL     OW 6788  11.006  10.536  10.314 -0.0461 -0.2574  0.0395
 1097SOL    HW1 6789  10.921  10.495  10.329  0.3342 -1.4505 -0.9029
 1097SOL    HW2 6790  11.022  10.588  10.392 -2.0748  0.7783 -0.1622
 1098SOL     OW 6791  10.335   3.635  10.629  0.4847 -0.0278  0.2535
 1098SOL    HW1 6792  10.409   3.575  10.620 -0.0763 -0.4757 -1.9601
 1098SOL    HW2 6793  10.319   3.666  10.540 -0.2242  2.2418  1.1018
 1099SOL     OW 6794  10.064   2.078   4.709  0.6045 -0.3856 -0.1784
 1099SOL    HW1 6795  10.074   2.101   4.617  1.1286  0.4253  0.0716
 1099SOL    HW2 6796  10.016   2.151   4.747  1.1535 -0.3081  0.3715
 1100SOL     OW 6797   0.387   1.110   1.955  0.5678  0.1456 -0.2002
 1100SOL    HW1 6798   0.406   1.117   1.862  1.0695  1.9920  0.0068
 1100SOL    HW2 6799   0.473   1.099   1.996  0.4317  0.2788  0.1205
 1101SOL     OW 6800   8.204   1.499   5.057 -0.4035  0.0087 -0.0434
 1101SOL    HW1 6801   8.167   1.472   5.141  2.9490  0.8648  1.8883
 1101SOL    HW2 6802   8.194   1.594   5.055  0.9058  0.1720  0.1721
 1102SOL     OW 6803   8.401   2.865   0.935 -0.0121 -0.1186 -0.1193
 1102SOL    HW1 6804   8.484   2.834   0.898 -0.1818  1.0852 -1.6146
 1102SOL    HW2 6805   8.340   2.863   0.861 -0.8133  0.8329  0.4990
 1103SOL     OW 6806   7.851   9.219   9.744 -0.1236  0.1596 -0.1615
 1103SOL    HW1 6807   7.888   9.293   9.696  1.6476 -0.0516  0.8235
 1103SOL    HW2 6808   7.922   9.188   9.800 -1.4787 -0.9548  1.0163
 1104SOL     OW 6809   7.081   2.455   4.847  0.1473  0.0678  0.5856
 1104SOL    HW1 6810   7.032   2.488   4.923  0.1163 -0.8293  0.9746
 1104SOL    HW2 6811   7.122   2.532   4.809 -3.2581  1.2865 -1.0329
 1105SOL     OW 6812   0.053   2.412   1.502 -0.2807 -0.3781  0.6463
 1105SOL    HW1 6813   0.055   2.427   1.407 -3.7721  1.2975  0.6745
 1105SOL    HW2 6814   0.041   2.318   1.512  1.2026 -0.7183 -0.4935
 1106SOL     OW 6815   5.189   6.141   0.839 -0.4249 -0.3976 -0.1147
 1106SOL    HW1 6816   5.201   6.188   0.757 -1.2487 -1.1385 -0.6783
 1106SOL    HW2 6817   5.199   6.208   0.907  0.2492  0.2219 -0.8096
 1107SOL     OW 6818   0.401   8.693  10.203 -0.9873 -0.2498 -0.2485
 1107SOL    HW1 6819   0.422   8.717  10.113 -0.8458 -0.2905 -0.2272
 1107SOL    HW2 6820   0.427   8.769  10.255  0.9420 -1.0206  0.0010
 1108SOL     OW 6821  10.412   2.969   2.424  0.0322 -0.0323 -0.1648
 1108SOL    HW1 6822  10.403   2.927   2.339 -0.3080 -1.4687  0.5597
 1108SOL    HW2 6823  10.322   2.987   2.452  0.0975 -0.4032  0.2982
 1109SOL     OW 6824   4.703   5.638  10.909 -0.2617 -0.3977 -0.6581
 1109SOL    HW1 6825   4.759   5.589  10.970 -0.7216 -0.6783 -0.4488
 1109SOL    HW2 6826   4.756   5.647  10.830 -0.0912 -1.0814 -0.6352
 1110SOL     OW 6827   5.367   9.678   4.064  0.2550 -0.4801  0.3129
 1110SOL    HW1 6828   5.295   9.690   4.126 -0.0606  0.0898 -0.1562
 1110SOL    HW2 6829   5.427   9.618   4.109 -1.1349 -2.0598  0.1912
 1111SOL     OW 6830   5.991   3.533   7.308 -0.7479 -0.0865  0.0769
 1111SOL    HW1 6831   5.917   3.495   7.355  0.3129 -1.0131  1.0665
 1111SOL    HW2 6832   6.016   3.466   7.244  0.1092 -0.3917  0.7139
 1112SOL     OW 6833   5.630   1.554   5.126  0.5176 -0.0836  0.1100
 1112SOL    HW1 6834   5.683   1.485   5.165  1.3960  0.4361 -0.1390
 1112SOL    HW2 6835   5.661   1.634   5.168  0.5852  0.3379 -0.7276
 1113SOL     OW 6836   0.803   2.135   0.231  0.5246  0.2384  0.0903
 1113SOL    HW1 6837   0.875   2.085   0.270  0.5289  0.2423  0.0873
 1113SOL    HW2 6838   0.724   2.087   0.258  0.4624  0.8005  0.9495
 1114SOL     OW 6839   3.305   3.165   5.512 -0.3586  0.4136 -0.4695
 1114SOL    HW1 6840   3.302   3.249   5.559  1.6308 -0.6776  1.8054
 1114SOL    HW2 6841   3.369   3.179   5.442 -0.3071  0.8844 -0.3330
 1115SOL     OW 6842   6.204   4.011   6.381  0.1063  0.0645  0.0504
 1115SOL    HW1 6843   6.280   4.023   6.326 -0.6852 -0.5709 -1.2338
 1115SOL    HW2 6844   6.223   3.932   6.432  1.6223  1.6685  2.1265
 1116SOL     OW 6845  10.930   3.482   2.700 -0.0436 -0.3836 -0.1880
 1116SOL    HW1 6846  10.947   3.575   2.709 -1.2783 -0.0482 -1.1354
 1116SOL    HW2 6847  10.877   3.474   2.622 -0.9283 -1.7645  0.5084
 1117SOL     OW 6848   0.647   1.850  10.070  0.3868 -0.6699 -0.5518
 1117SOL    HW1 6849   0.618   1.848  10.162 -1.0891 -0.3918 -0.9818
 1117SOL    HW2 6850   0.740   1.873  10.075 -0.0311  0.9311  0.8203
 1118SOL     OW 6851   7.712   4.866   9.869 -0.1147  0.1441  0.8455
 1118SOL    HW1 6852   7.681   4.846   9.781  0.2841 -0.4464  0.8277
 1118SOL    HW2 6853   7.635   4.897   9.916 -0.2051  1.0333  0.1301
 1119SOL     OW 6854   9.321   1.892   0.028 -0.4018 -0.2915  0.1908
 1119SOL    HW1 6855   9.239   1.891   0.077 -1.0187  0.6399 -0.7860
 1119SOL    HW2 6856   9.379   1.833   0.077 -1.5227 -0.6732  1.0988
 1120SOL     OW 6857   6.101   3.305  10.750  0.3685  0.4671  0.5642
 1120SOL    HW1 6858   6.156   3.372  10.791 -1.7286  1.8443  1.3024
 1120SOL    HW2 6859   6.145   3.286  10.667  2.3047  0.9409  1.4031
 1121SOL     OW 6860   9.778   6.035   6.937 -0.5108 -0.0450  0.4060
 1121SOL    HW1 6861   9.772   5.942   6.917  4.2310 -0.6008  0.4145
 1121SOL    HW2 6862   9.818   6.038   7.024  2.8404  1.7360 -0.9948
 1122SOL     OW 6863   0.770   3.933   1.330 -0.0189 -0.6375  0.4215
 1122SOL    HW1 6864   0.781   3.925   1.425  0.4893 -2.0089  0.2561
 1122SOL    HW2 6865   0.686   3.890   1.312 -1.0568  1.2431  0.4422
 1123SOL     OW 6866   0.219   7.733   4.618 -0.4063 -0.0139  0.3025
 1123SOL    HW1 6867   0.299   7.723   4.668  1.1931  2.5834 -1.4401
 1123SOL    HW2 6868   0.223   7.665   4.551 -0.1725 -0.5364  0.8474
 1124SOL     OW 6869   9.801   1.834  10.613 -0.1468  0.0651 -0.0296
 1124SOL    HW1 6870   9.826   1.743  10.597  0.1037 -0.1282  1.3745
 1124SOL    HW2 6871   9.875   1.885  10.579  0.7025 -0.3692  1.0932
 1125SOL     OW 6872   0.981   5.268   1.981 -0.2222 -0.1963  0.8831
 1125SOL    HW1 6873   0.922   5.197   2.007 -1.0340 -0.3162 -1.0755
 1125SOL    HW2 6874   1.026   5.235   1.903  0.4402  0.9077  0.7741
 1126SOL     OW 6875   6.604   6.789   6.810 -0.7521 -0.4596  0.5333
 1126SOL    HW1 6876   6.546   6.714   6.825 -0.0443 -1.1483 -0.1368
 1126SOL    HW2 6877   6.600   6.805   6.716  0.3116 -0.6510  0.4451
 1127SOL     OW 6878   2.734   4.010   4.788 -0.3285  0.2505  0.2174
 1127SOL    HW1 6879   2.795   3.998   4.716 -0.2567  0.0339  0.3143
 1127SOL    HW2 6880   2.789   4.014   4.866 -0.4291  0.1582  0.2940
 1128SOL     OW 6881   2.343   7.482   0.049 -0.8538  0.1141 -0.4621
 1128SOL    HW1 6882   2.382   7.542   0.112 -2.0953  0.1551  0.2909
 1128SOL    HW2 6883   2.412   7.418   0.031  0.5885  1.8537 -1.4821
 1129SOL     OW 6884   6.889   1.382  10.159  0.3019  0.0703  0.1017
 1129SOL    HW1 6885   6.866   1.445  10.227 -0.4778  0.0199 -0.1078
 1129SOL    HW2 6886   6.889   1.432  10.078  2.2418  0.3571  0.2373
 1130SOL     OW 6887   9.804  10.805  10.145  0.3191 -0.1050  0.2448
 1130SOL    HW1 6888   9.846  10.857  10.077  1.5534 -0.7399  0.4919
 1130SOL    HW2 6889   9.764  10.869  10.204 -0.8840  0.4529 -1.1177
 1131SOL     OW 6890   1.107   3.994   5.270  0.3088  0.0897  0.3124
 1131SOL    HW1 6891   1.101   4.087   5.248 -1.6828  0.2118  1.2352
 1131SOL    HW2 6892   1.091   3.990   5.364  1.5931 -1.1104  0.5221
 1132SOL     OW 6893   7.386   3.017   4.525 -0.0831 -0.5400  0.1518
 1132SOL    HW1 6894   7.356   2.968   4.602 -0.9033 -0.3404 -0.0378
 1132SOL    HW2 6895   7.417   2.950   4.464 -0.9628 -0.8135 -0.0027
 1133SOL     OW 6896   8.455   4.982   1.957 -0.0804  0.3589 -0.0157
 1133SOL    HW1 6897   8.440   5.076   1.944  2.0554  0.8947  1.0287
 1133SOL    HW2 6898   8.406   4.961   2.036  0.2314  0.8305  0.3075
 1134SOL     OW 6899   8.633   3.051   4.568 -0.0656  0.0436  0.1351
 1134SOL    HW1 6900   8.538   3.056   4.563 -0.1658 -1.6731 -0.3846
 1134SOL    HW2 6901   8.650   2.995   4.643  0.4137 -1.8616 -1.3151
 1135SOL     OW 6902   2.261   2.426   6.266  0.1282 -0.2249  0.4212
 1135SOL    HW1 6903   2.296   2.502   6.219 -0.7452  1.6385  2.5994
 1135SOL    HW2 6904   2.166   2.440   6.266 -0.1135 -1.7802  0.1620
 1136SOL     OW 6905   9.540   4.634   7.554 -0.5290  0.4604 -0.3701
 1136SOL    HW1 6906   9.502   4.670   7.474 -2.1996  0.5354  0.4217
 1136SOL    HW2 6907   9.498   4.549   7.564 -0.1444  0.3451  0.2940
 1137SOL     OW 6908   5.557   9.274   6.416 -0.1244 -0.7573  0.3425
 1137SOL    HW1 6909   5.566   9.178   6.411  1.6990 -0.7050  1.5752
 1137SOL    HW2 6910   5.482   9.288   6.473  0.3667 -1.4992  1.2114
 1138SOL     OW 6911   7.803   9.870   4.576  0.5626  0.2521 -0.4554
 1138SOL    HW1 6912   7.735   9.837   4.517  0.4227 -0.4776  0.0963
 1138SOL    HW2 6913   7.872   9.803   4.572  0.3810 -0.0055  0.4975
 1139SOL     OW 6914   6.389   7.619   2.601  0.0677  0.3631  0.2569
 1139SOL    HW1 6915   6.295   7.608   2.613  0.1691 -0.1510  0.6201
 1139SOL    HW2 6916   6.427   7.535   2.626  0.6568  0.6956  0.5112
 1140SOL     OW 6917  10.297   4.713   7.338  0.2754 -0.0375  0.0024
 1140SOL    HW1 6918  10.288   4.619   7.348  3.8900 -0.3963  1.6336
 1140SOL    HW2 6919  10.246   4.750   7.410 -0.2181 -0.8347  0.0684
 1141SOL     OW 6920   2.570   6.088   8.386 -1.1365  0.1830 -0.8375
 1141SOL    HW1 6921   2.654   6.055   8.417 -0.8417 -0.5151 -2.3117
 1141SOL    HW2 6922   2.592   6.168   8.338 -1.1607 -0.5623 -2.1276
 1142SOL     OW 6923   1.034   0.701   6.601  0.0523 -0.2105  0.3687
 1142SOL    HW1 6924   1.028   0.793   6.573  2.6295  0.2054  0.9609
 1142SOL    HW2 6925   0.955   0.687   6.653 -2.3550  0.4912 -2.7656
 1143SOL     OW 6926   8.870   2.170   6.652  0.0239  0.2331  0.1550
 1143SOL    HW1 6927   8.949   2.224   6.645  0.1051 -0.0279 -1.0222
 1143SOL    HW2 6928   8.803   2.218   6.602  0.2114 -0.9435 -1.2740
 1144SOL     OW 6929   2.901   4.389   8.926 -0.4336  0.3022  0.1508
 1144SOL    HW1 6930   2.959   4.391   8.850  1.1968 -2.8411  1.1293
 1144SOL    HW2 6931   2.943   4.447   8.990 -0.5142  1.0907 -0.5014
 1145SOL     OW 6932   1.101   9.310   3.994  0.5008 -0.2959 -0.0862
 1145SOL    HW1 6933   1.118   9.308   3.900 -0.5800  0.0890 -0.3090
 1145SOL    HW2 6934   1.050   9.230   4.010  1.2610 -0.7058  0.2949
 1146SOL     OW 6935   8.639   0.532  10.590  0.2191 -0.2050 -0.2622
 1146SOL    HW1 6936   8.546   0.537  10.611  0.2250 -1.2005  0.0663
 1146SOL    HW2 6937   8.652   0.599  10.523 -0.8716 -0.4915 -0.7876
 1147SOL     OW 6938   1.096   9.175   2.920 -0.0273  0.6253 -0.0811
 1147SOL    HW1 6939   1.043   9.103   2.885  1.2370  0.5458 -2.0143
 1147SOL    HW2 6940   1.048   9.254   2.894 -0.3103  0.5196  0.1168
 1148SOL     OW 6941   1.033   4.138   8.635 -0.0905 -0.3090 -0.9954
 1148SOL    HW1 6942   1.028   4.173   8.546 -0.9927 -1.8704 -1.5902
 1148SOL    HW2 6943   1.096   4.066   8.629  1.1914  0.6586  0.0577
 1149SOL     OW 6944   8.623   1.756   3.784  0.7923 -0.1840  0.5060
 1149SOL    HW1 6945   8.593   1.789   3.869 -0.6800 -3.6377  1.5094
 1149SOL    HW2 6946   8.685   1.687   3.806  1.7910  0.0621 -1.3501
 1150SOL     OW 6947   1.433  10.016   0.155  0.3085  0.3245 -0.6997
 1150SOL    HW1 6948   1.406   9.947   0.216  4.1998 -1.8617 -1.0917
 1150SOL    HW2 6949   1.385   9.997   0.074 -1.5846  0.5485  0.3183
 1151SOL     OW 6950   5.348   2.738   4.793 -0.3008 -0.2999  0.6857
 1151SOL    HW1 6951   5.254   2.734   4.812 -0.1592 -1.2622  1.2341
 1151SOL    HW2 6952   5.388   2.758   4.878 -0.0758  1.2440  0.2473
 1152SOL     OW 6953   3.743  10.360   9.838  0.1437  0.0794  0.1755
 1152SOL    HW1 6954   3.776  10.280   9.879 -0.9569 -0.1758  0.6000
 1152SOL    HW2 6955   3.658  10.335   9.801  0.6080  0.5965 -1.3002
 1153SOL     OW 6956   2.068   4.245   3.905  0.2214  0.7392 -0.1128
 1153SOL    HW1 6957   2.068   4.272   3.997 -1.7722  2.6076 -0.5568
 1153SOL    HW2 6958   2.160   4.226   3.885  0.7935  0.9356  2.0778
 1154SOL     OW 6959   4.440   9.691   0.329 -0.0058 -0.0048  0.0880
 1154SOL    HW1 6960   4.402   9.765   0.283 -0.4051 -0.5621 -0.4963
 1154SOL    HW2 6961   4.389   9.615   0.300 -0.6022 -0.3204  1.8186
 1155SOL     OW 6962   8.184   5.246   2.096 -0.1590 -0.5212  0.6027
 1155SOL    HW1 6963   8.176   5.150   2.092  0.8430 -0.5597 -1.5428
 1155SOL    HW2 6964   8.274   5.264   2.068 -0.5722  1.1079  0.2284
 1156SOL     OW 6965   0.704   4.712   5.347 -0.2541 -0.4642  0.5086
 1156SOL    HW1 6966   0.668   4.647   5.408 -1.3210 -1.1604 -0.8171
 1156SOL    HW2 6967   0.636   4.780   5.343  0.2757  0.0939  0.8741
 1157SOL     OW 6968   7.465   4.174   0.248  0.0173  0.1447 -0.2104
 1157SOL    HW1 6969   7.421   4.115   0.309 -0.4889  0.8828  0.1534
 1157SOL    HW2 6970   7.539   4.210   0.298 -0.5126  0.8990  0.0426
 1158SOL     OW 6971   5.224   8.568  10.180 -0.3215 -0.1656 -0.0450
 1158SOL    HW1 6972   5.209   8.568  10.085  0.3202  0.2121 -0.1539
 1158SOL    HW2 6973   5.168   8.638  10.213 -2.0265 -1.5441  0.1241
 1159SOL     OW 6974   8.935   2.844   1.863 -0.1049 -0.1899  0.3903
 1159SOL    HW1 6975   8.994   2.859   1.937  1.4204  1.2119 -1.0080
 1159SOL    HW2 6976   8.993   2.821   1.790 -1.4727 -0.6677 -0.5916
 1160SOL     OW 6977   7.354   6.861   8.600 -0.3937  0.1417 -0.2855
 1160SOL    HW1 6978   7.345   6.879   8.693 -2.2092  0.7493 -0.5247
 1160SOL    HW2 6979   7.413   6.929   8.567  0.6189 -0.3473  0.4590
 1161SOL     OW 6980   1.514   6.831   2.021 -0.0010  0.1372 -0.5914
 1161SOL    HW1 6981   1.463   6.756   1.990  1.3384 -0.6111 -1.0532
 1161SOL    HW2 6982   1.473   6.907   1.979 -0.2400 -0.5209 -1.5818
 1162SOL     OW 6983   3.365   4.171  10.031 -0.5544  0.0418 -0.2887
 1162SOL    HW1 6984   3.271   4.176  10.011 -1.0743 -2.9167  0.8683
 1162SOL    HW2 6985   3.375   4.090  10.080  2.4525  0.9517  0.8612
 1163SOL     OW 6986   5.168   5.375   6.125  0.0471  0.6121 -0.9547
 1163SOL    HW1 6987   5.171   5.467   6.099  1.7021  0.5090 -1.2050
 1163SOL    HW2 6988   5.198   5.327   6.048  1.9615  0.0854  0.0595
 1164SOL     OW 6989   9.946   1.789   5.261 -0.3994  0.1888 -0.4370
 1164SOL    HW1 6990   9.881   1.813   5.195 -0.7266  0.6300  0.0386
 1164SOL    HW2 6991   9.894   1.757   5.335 -0.0586  0.1749 -0.2034
 1165SOL     OW 6992   2.742   8.128   5.341  0.6144 -0.1961  0.3026
 1165SOL    HW1 6993   2.700   8.180   5.273 -1.9743 -0.9907  1.2094
 1165SOL    HW2 6994   2.736   8.038   5.308  0.0580 -0.4971  1.2109
 1166SOL     OW 6995   4.739   4.417   2.382 -0.6934  0.2866  0.3813
 1166SOL    HW1 6996   4.749   4.499   2.431 -0.1039 -0.1681  1.0455
 1166SOL    HW2 6997   4.651   4.421   2.345 -0.2808  1.7299 -0.5490
 1167SOL     OW 6998   9.854   6.923   2.821 -0.0876  0.6183  0.3504
 1167SOL    HW1 6999   9.927   6.929   2.759 -1.0323  1.0149 -0.7750
 1167SOL    HW2 7000   9.876   6.848   2.877  0.8993  0.3693 -0.3386
 1168SOL     OW 7001   7.325   9.437   3.124  0.3755 -0.3171 -0.1404
 1168SOL    HW1 7002   7.251   9.453   3.065  0.9567 -0.7352 -1.0065
 1168SOL    HW2 7003   7.371   9.363   3.085  1.8961  0.6498 -0.2589
 1169SOL     OW 7004   2.547   2.725   3.283 -0.1274  0.0512  0.4822
 1169SOL    HW1 7005   2.510   2.803   3.324 -0.4929  0.7563 -1.1030
 1169SOL    HW2 7006   2.480   2.658   3.294 -0.0800  0.1294  1.2944
 1170SOL     OW 7007  10.448  10.254   6.105 -0.1761 -0.1301  0.4469
 1170SOL    HW1 7008  10.425  10.184   6.166  2.4233  0.2837  2.0272
 1170SOL    HW2 7009  10.502  10.211   6.039  0.8532  0.2304  1.0392
 1171SOL     OW 7010   7.065   1.779   6.535 -0.1234 -0.2241 -0.2369
 1171SOL    HW1 7011   7.080   1.704   6.477  0.1975 -0.7479  0.5120
 1171SOL    HW2 7012   7.075   1.743   6.623 -1.1433  0.4427  0.1663
 1172SOL     OW 7013  10.524   6.675   8.066 -0.4380  0.0276  0.4153
 1172SOL    HW1 7014  10.452   6.637   8.016  0.0440 -1.7309  1.0030
 1172SOL    HW2 7015  10.522   6.630   8.150  1.6466 -0.4583  0.2616
 1173SOL     OW 7016   5.922   9.553   8.493 -0.2619  1.1920 -0.2984
 1173SOL    HW1 7017   5.890   9.513   8.412  0.2567 -0.4270  0.2648
 1173SOL    HW2 7018   5.865   9.517   8.561  1.8251 -0.7152  0.5481
 1174SOL     OW 7019   4.643   2.673   5.526  0.5734 -0.4681 -0.1566
 1174SOL    HW1 7020   4.687   2.624   5.456  2.4906  0.5667  0.2513
 1174SOL    HW2 7021   4.624   2.608   5.593 -0.1530 -1.2491 -1.0850
 1175SOL     OW 7022   4.789   8.687   3.802  0.8258  0.1455  0.1359
 1175SOL    HW1 7023   4.705   8.643   3.791  0.2706  1.0857  0.5185
 1175SOL    HW2 7024   4.824   8.695   3.713 -0.1389  0.9867 -0.1795
 1176SOL     OW 7025   4.562   9.682   9.291 -0.4331 -0.5132  0.2676
 1176SOL    HW1 7026   4.596   9.769   9.314 -1.7827  0.1712 -0.2362
 1176SOL    HW2 7027   4.480   9.700   9.245 -1.1728 -2.0989  0.9205
 1177SOL     OW 7028   3.562   9.853   7.213 -0.1409 -0.2732  0.2303
 1177SOL    HW1 7029   3.485   9.816   7.256 -0.4758 -0.0081 -0.1316
 1177SOL    HW2 7030   3.530   9.933   7.171  0.0834 -0.7063 -0.8088
 1178SOL     OW 7031   8.234   3.384   7.009  0.3469  0.7339  0.3062
 1178SOL    HW1 7032   8.310   3.439   7.032 -0.7106  2.6176 -0.5074
 1178SOL    HW2 7033   8.166   3.447   6.985 -1.1727 -0.9527  0.0535
 1179SOL     OW 7034   9.687  10.800   3.795 -0.0684 -0.4279 -0.4300
 1179SOL    HW1 7035   9.678  10.827   3.886  0.3852  2.1779 -1.0762
 1179SOL    HW2 7036   9.627  10.857   3.747 -0.9707 -2.3497 -1.7154
 1180SOL     OW 7037   6.321   1.318   5.773  0.0697  0.3246  0.3143
 1180SOL    HW1 7038   6.341   1.232   5.811  1.4111  0.0655 -0.8765
 1180SOL    HW2 7039   6.284   1.298   5.687  2.5771  0.8868 -0.9906
 1181SOL     OW 7040   2.113   0.452   1.608 -0.3994 -0.2107 -0.1262
 1181SOL    HW1 7041   2.139   0.360   1.606  1.5494  0.2284  1.7313
 1181SOL    HW2 7042   2.104   0.476   1.516 -1.7079 -2.4112 -0.6564
 1182SOL     OW 7043   0.942   4.986   1.406 -0.2264  0.1545  0.0446
 1182SOL    HW1 7044   0.851   4.961   1.422 -0.1195  0.5553  1.4253
 1182SOL    HW2 7045   0.936   5.063   1.350 -0.6305 -1.2905 -2.0325
 1183SOL     OW 7046   4.243   3.101   4.525 -0.7166 -0.3501 -0.2053
 1183SOL    HW1 7047   4.178   3.061   4.466 -1.4575 -0.7891  0.8675
 1183SOL    HW2 7048   4.230   3.195   4.514  0.1183 -0.3876 -1.7576
 1184SOL     OW 7049   6.309   4.455   9.762  0.4235 -0.5125  0.4985
 1184SOL    HW1 7050   6.252   4.445   9.838  1.3187 -0.3366  1.2189
 1184SOL    HW2 7051   6.349   4.369   9.751  0.5292 -0.4547  0.4292
 1185SOL     OW 7052   7.485   8.743  10.386 -0.3309  0.2107 -0.0154
 1185SOL    HW1 7053   7.437   8.826  10.396  0.7437  0.8720 -0.1537
 1185SOL    HW2 7054   7.542   8.739  10.463 -0.9014 -0.7866  0.3761
 1186SOL     OW 7055   7.677   8.538   2.263  0.4231  0.2111 -0.4469
 1186SOL    HW1 7056   7.651   8.620   2.220  1.0682  1.2551  1.0450
 1186SOL    HW2 7057   7.686   8.475   2.191 -0.9099  1.2043 -1.5556
 1187SOL     OW 7058   8.202   5.499   1.784  0.1807 -0.4348 -0.1611
 1187SOL    HW1 7059   8.268   5.568   1.793 -0.9522  0.7225 -0.4877
 1187SOL    HW2 7060   8.141   5.515   1.856 -1.3697  0.3849 -1.5880
 1188SOL     OW 7061   4.440   0.695   9.801  0.0580 -0.7308  1.0052
 1188SOL    HW1 7062   4.527   0.705   9.763  0.1495 -3.1967  0.4045
 1188SOL    HW2 7063   4.390   0.768   9.764  1.8764  0.9209  1.5967
 1189SOL     OW 7064   2.864   4.818   7.832  0.0051 -0.4818  0.1363
 1189SOL    HW1 7065   2.936   4.853   7.884 -0.2507 -1.9174  1.5177
 1189SOL    HW2 7066   2.891   4.730   7.807 -0.4432 -0.3054 -1.0430
 1190SOL     OW 7067   4.707   8.211   7.876  0.1655  0.2059 -0.2077
 1190SOL    HW1 7068   4.617   8.241   7.864  0.5394  2.2331  1.5346
 1190SOL    HW2 7069   4.712   8.183   7.967  1.7355  2.0353  0.3425
 1191SOL     OW 7070   8.561   1.220   2.214  0.0180 -0.1216  0.2510
 1191SOL    HW1 7071   8.476   1.239   2.252 -0.4780  2.4381 -1.8304
 1191SOL    HW2 7072   8.542   1.179   2.130  0.8412 -0.0583  0.0172
 1192SOL     OW 7073   6.950   3.047   1.996  0.8603  0.4491 -0.1735
 1192SOL    HW1 7074   6.863   3.086   1.998  1.1578  1.1468 -0.5941
 1192SOL    HW2 7075   6.976   3.049   1.904  0.6650 -1.2594 -0.2972
 1193SOL     OW 7076   4.761   4.082  10.933  0.1116  0.4389 -0.3454
 1193SOL    HW1 7077   4.710   4.001  10.932 -2.0162  1.6982 -0.1486
 1193SOL    HW2 7078   4.796   4.088  11.022 -0.2912  0.0553 -0.1567
 1194SOL     OW 7079   9.914   6.908   5.556  0.4075 -0.0840  0.0565
 1194SOL    HW1 7080   9.937   6.984   5.610 -0.6391 -0.4376  1.0321
 1194SOL    HW2 7081   9.886   6.946   5.472 -0.0328  0.6089  0.5088
 1195SOL     OW 7082   4.840   7.803   5.001  0.0549 -0.4318 -0.5019
 1195SOL    HW1 7083   4.867   7.882   4.953 -0.1813 -0.1314 -0.1396
 1195SOL    HW2 7084   4.892   7.733   4.961  1.4950  0.1561  0.2769
 1196SOL     OW 7085   2.230   6.946   6.688 -0.1579  0.2535 -0.1756
 1196SOL    HW1 7086   2.253   7.028   6.643  0.0096  0.0935 -0.3838
 1196SOL    HW2 7087   2.135   6.951   6.699 -0.0648  0.8000  0.4544
 1197SOL     OW 7088   9.782   0.594   2.710  0.1256 -0.5135  0.3493
 1197SOL    HW1 7089   9.710   0.536   2.736 -0.2006  0.4019  1.5951
 1197SOL    HW2 7090   9.739   0.664   2.661 -0.1995  1.0422  2.6608
 1198SOL     OW 7091   7.669   2.577   3.928  0.3877  0.1300 -0.4659
 1198SOL    HW1 7092   7.665   2.666   3.962 -0.1168 -0.1919  0.3551
 1198SOL    HW2 7093   7.648   2.522   4.004 -1.8972 -0.5843 -1.5443
 1199SOL     OW 7094  10.184   4.337   1.252 -0.5860  0.0303 -0.0991
 1199SOL    HW1 7095  10.132   4.350   1.331 -0.2458 -0.2314  0.1723
 1199SOL    HW2 7096  10.252   4.275   1.278  1.4491  2.3083  0.2566
 1200SOL     OW 7097   4.222   0.833   2.042  0.4106  0.4139 -0.2498
 1200SOL    HW1 7098   4.145   0.862   2.092  0.5399 -1.7812  1.3700
 1200SOL    HW2 7099   4.290   0.820   2.109  1.3486 -0.3515 -1.3190
 1201SOL     OW 7100  11.006   7.364   7.976  0.0371 -0.3401 -0.6991
 1201SOL    HW1 7101  11.044   7.376   7.889  0.2872  0.2972 -0.5094
 1201SOL    HW2 7102  10.920   7.326   7.960 -0.1396  0.2774 -1.2649
 1202SOL     OW 7103   6.026   9.287   9.864 -0.1119 -0.0275 -0.2961
 1202SOL    HW1 7104   5.980   9.275   9.948 -1.9362 -0.7922 -1.3399
 1202SOL    HW2 7105   6.058   9.200   9.842  1.6669  0.4527  0.2810
 1203SOL     OW 7106   2.074   4.876   6.452 -0.3079  0.3064  0.3054
 1203SOL    HW1 7107   2.089   4.833   6.368 -0.1441  1.8189 -0.4836
 1203SOL    HW2 7108   2.139   4.946   6.455  0.8589 -0.7624  2.5089
 1204SOL     OW 7109   0.879   3.634  10.853 -0.2040 -0.4535 -0.0671
 1204SOL    HW1 7110   0.954   3.621  10.911 -0.5652 -1.9116  0.1235
 1204SOL    HW2 7111   0.868   3.550  10.809 -0.7850  0.2137 -1.2561
 1205SOL     OW 7112   5.223   7.652   0.865 -0.2531 -0.3008  0.7597
 1205SOL    HW1 7113   5.199   7.731   0.915  0.5314 -0.0808  0.8075
 1205SOL    HW2 7114   5.184   7.666   0.779  0.1722  0.3210  0.6537
 1206SOL     OW 7115   9.276   1.851   1.628  0.6191  0.5192  0.0517
 1206SOL    HW1 7116   9.250   1.928   1.576  0.9342  1.0994  0.7381
 1206SOL    HW2 7117   9.257   1.876   1.718  0.6069 -0.2665  0.2707
 1207SOL     OW 7118   0.939   6.366   7.708  0.6441 -0.1747 -0.0293
 1207SOL    HW1 7119   0.995   6.352   7.631  2.8841 -1.4479  1.6875
 1207SOL    HW2 7120   0.932   6.280   7.748 -0.3177  0.4957  1.3166
 1208SOL     OW 7121  10.573   5.425   2.091  0.1140  0.4355  0.0854
 1208SOL    HW1 7122  10.562   5.408   1.997  1.0860  0.2124 -0.0006
 1208SOL    HW2 7123  10.540   5.346   2.134 -0.3010  0.5249 -0.0674
 1209SOL     OW 7124  10.312   1.702   9.911  0.0119  0.0394 -0.5300
 1209SOL    HW1 7125  10.368   1.628   9.884 -0.4592 -0.4288 -0.2391
 1209SOL    HW2 7126  10.299   1.689  10.005  0.7564  1.0649 -0.2747
 1210SOL     OW 7127  10.951  10.169  10.938  0.0423  0.1412  0.4883
 1210SOL    HW1 7128  10.919  10.258  10.951 -0.5930 -0.0659  0.4033
 1210SOL    HW2 7129  11.043  10.171  10.966 -0.0950  0.7138  0.9033
 1211SOL     OW 7130   4.817   5.479   5.693  0.4375 -0.2579 -0.0904
 1211SOL    HW1 7131   4.796   5.523   5.610  1.1293 -0.3738 -0.3337
 1211SOL    HW2 7132   4.752   5.409   5.700  0.6129 -0.4923 -0.7303
 1212SOL     OW 7133   1.891   7.682   9.388  0.1514  0.0204 -0.1399
 1212SOL    HW1 7134   1.852   7.736   9.457  0.4580  0.0517  0.0074
 1212SOL    HW2 7135   1.870   7.729   9.307  2.7051  1.8440  0.1281
 1213SOL     OW 7136   6.145   4.218   1.482  0.2519  0.0681 -0.3485
 1213SOL    HW1 7137   6.140   4.291   1.543  0.5475 -1.3352  1.4207
 1213SOL    HW2 7138   6.055   4.187   1.474  0.3897 -0.5753  0.4573
 1214SOL     OW 7139   2.398   2.391   7.286  0.4160  0.1280  0.4400
 1214SOL    HW1 7140   2.312   2.349   7.298  0.6793  0.2673  3.4150
 1214SOL    HW2 7141   2.433   2.350   7.207 -1.9178 -0.7372 -0.2326
 1215SOL     OW 7142  10.219  10.115   5.464 -0.1609 -0.3272 -0.2094
 1215SOL    HW1 7143  10.205  10.135   5.557  1.2893 -0.7035  0.1112
 1215SOL    HW2 7144  10.200  10.021   5.458 -0.3763 -0.2763 -0.3211
 1216SOL     OW 7145   8.768   0.189   5.740  0.2714 -0.1092 -0.3174
 1216SOL    HW1 7146   8.753   0.213   5.649  0.7350  0.8743 -0.1508
 1216SOL    HW2 7147   8.789   0.272   5.784 -0.6812 -0.4528  0.8381
 1217SOL     OW 7148   8.338   8.121   5.046 -0.0267 -0.6321 -0.7205
 1217SOL    HW1 7149   8.394   8.133   5.123 -0.0597 -1.2547 -0.5921
 1217SOL    HW2 7150   8.252   8.151   5.074  0.2596  0.4561 -0.9590
 1218SOL     OW 7151   7.202   9.515   5.029  0.0730 -0.2805 -0.2395
 1218SOL    HW1 7152   7.197   9.581   4.959  2.0495  0.0758 -0.1254
 1218SOL    HW2 7153   7.249   9.559   5.100 -1.8930 -0.6409  1.3677
 1219SOL     OW 7154   1.449   4.885   4.278 -0.2554 -0.5231 -0.2844
 1219SOL    HW1 7155   1.522   4.852   4.226 -1.6283 -0.8571 -2.0690
 1219SOL    HW2 7156   1.389   4.811   4.284 -0.2119 -0.4609  1.7234
 1220SOL     OW 7157   3.924   8.664   4.572  0.2817  0.6787 -0.1627
 1220SOL    HW1 7158   3.919   8.646   4.666  0.6122 -0.7973 -0.4091
 1220SOL    HW2 7159   3.986   8.600   4.538  0.3994  1.3903 -1.3547
 1221SOL     OW 7160   0.549   5.074   8.540 -0.0023  0.2010  0.1239
 1221SOL    HW1 7161   0.592   5.142   8.487 -2.1900  0.7540 -1.0270
 1221SOL    HW2 7162   0.582   4.991   8.505 -1.1920  0.5693 -1.9809
 1222SOL     OW 7163   7.688   3.801   6.043 -0.7392  0.8225  0.1010
 1222SOL    HW1 7164   7.706   3.810   5.950  0.1773  0.5970  0.2511
 1222SOL    HW2 7165   7.752   3.737   6.074 -0.8675  1.0877  0.9395
 1223SOL     OW 7166   5.081   9.052   7.402 -0.1662 -0.0372 -0.5679
 1223SOL    HW1 7167   5.125   9.137   7.398 -1.7539  1.0841  2.5676
 1223SOL    HW2 7168   4.993   9.070   7.368 -1.0957  0.1198  1.7472
 1224SOL     OW 7169   6.922   2.828   4.048 -0.0349  0.2525 -0.4415
 1224SOL    HW1 7170   6.920   2.924   4.054  1.8026  0.3217 -0.0882
 1224SOL    HW2 7171   6.964   2.810   3.964 -0.0507 -0.2345 -0.3484
 1225SOL     OW 7172   0.153   7.042   1.873 -0.2184  0.0943 -0.0751
 1225SOL    HW1 7173   0.076   7.093   1.900 -0.6531 -1.2839  1.4162
 1225SOL    HW2 7174   0.118   6.975   1.814 -0.3506 -1.0789  1.2825
 1226SOL     OW 7175   0.838   8.420   6.509  0.6133  0.0628  0.2891
 1226SOL    HW1 7176   0.750   8.398   6.539  0.4791  0.6709  0.3498
 1226SOL    HW2 7177   0.833   8.416   6.414 -0.6931  4.2950 -0.0368
 1227SOL     OW 7178   7.005   5.708   9.971  0.0056 -0.7032 -0.6479
 1227SOL    HW1 7179   7.043   5.753   9.895 -2.9408  0.1193 -1.7582
 1227SOL    HW2 7180   6.939   5.769  10.004 -0.2995 -1.9824  1.2692
 1228SOL     OW 7181   9.845   7.639   9.180  0.2225  0.9750 -0.1105
 1228SOL    HW1 7182   9.923   7.589   9.205 -1.7128 -1.4898  1.4759
 1228SOL    HW2 7183   9.851   7.720   9.231  0.4887 -0.3594  2.1258
 1229SOL     OW 7184   9.010   7.235   2.677 -0.2631 -0.8722  0.1036
 1229SOL    HW1 7185   8.966   7.320   2.680 -1.2251 -1.3503 -0.0740
 1229SOL    HW2 7186   9.075   7.239   2.747 -0.6659 -0.2006  0.4470
 1230SOL     OW 7187   6.022  10.815   8.487 -0.6051  0.6375  0.2025
 1230SOL    HW1 7188   5.950  10.827   8.425 -1.8749  1.1567  1.7074
 1230SOL    HW2 7189   5.989  10.853   8.569  1.4826  1.0903  0.8839
 1231SOL     OW 7190   7.251   3.673   4.942 -0.1387  0.3496  0.1849
 1231SOL    HW1 7191   7.301   3.754   4.955  1.0754  0.0466 -2.1169
 1231SOL    HW2 7192   7.180   3.697   4.883 -0.2974 -0.0946  0.1878
 1232SOL     OW 7193   3.161   2.085   4.790 -0.2744  0.2247  0.6952
 1232SOL    HW1 7194   3.101   2.127   4.728 -0.7061  0.7194  1.4351
 1232SOL    HW2 7195   3.230   2.150   4.804 -0.3315  0.2308  0.9509
 1233SOL     OW 7196   8.755   9.839  11.002  0.0509  0.0178  0.1004
 1233SOL    HW1 7197   8.832   9.829  10.946 -1.1165 -0.8374 -1.4217
 1233SOL    HW2 7198   8.757   9.762  11.058 -1.6542 -2.1266 -2.5241
 1234SOL     OW 7199   1.208   5.330   4.359  0.4289 -0.0087  0.0233
 1234SOL    HW1 7200   1.162   5.354   4.439 -0.0064 -0.5804 -0.0516
 1234SOL    HW2 7201   1.228   5.237   4.369  0.8053  0.0288 -0.3204
 1235SOL     OW 7202   1.656   7.365   0.021 -0.6825 -0.4237 -0.2294
 1235SOL    HW1 7203   1.732   7.423   0.018 -0.3585 -0.5851  2.5622
 1235SOL    HW2 7204   1.688   7.282  -0.016  1.0276 -0.9475  2.1901
 1236SOL     OW 7205   6.747   9.476   3.145 -0.6773  0.4486 -0.0862
 1236SOL    HW1 7206   6.651   9.471   3.141 -0.8743 -1.5785  3.1637
 1236SOL    HW2 7207   6.776   9.398   3.098 -0.9492 -1.2712  2.4033
 1237SOL     OW 7208   1.762   3.716   7.707  0.4367  0.0960  0.6349
 1237SOL    HW1 7209   1.843   3.765   7.711  0.5533 -0.0479  0.0990
 1237SOL    HW2 7210   1.728   3.718   7.796  1.2531 -0.2244  0.9584
 1238SOL     OW 7211   7.612   7.682   4.893 -0.2944 -0.1013 -0.4245
 1238SOL    HW1 7212   7.676   7.643   4.953 -0.0825 -0.7782 -1.0770
 1238SOL    HW2 7213   7.664   7.725   4.826 -0.5288  1.0590  0.1088
 1239SOL     OW 7214   9.109  10.997   4.232  0.1306  0.4057  0.7396
 1239SOL    HW1 7215   9.082  10.942   4.159 -1.7620 -1.2302  2.5389
 1239SOL    HW2 7216   9.046  11.069   4.232  0.9991  1.1847 -0.0484
 1240SOL     OW 7217   3.198   5.387   3.594  0.6639  0.1057  0.1046
 1240SOL    HW1 7218   3.288   5.413   3.576  0.2707  0.5101 -1.4677
 1240SOL    HW2 7219   3.156   5.385   3.508 -0.9519  0.3996  0.8413
 1241SOL     OW 7220   4.593   2.514   0.008 -0.0835 -0.3295  0.2568
 1241SOL    HW1 7221   4.546   2.477   0.083 -0.1955 -0.1988  0.2506
 1241SOL    HW2 7222   4.605   2.606   0.030 -0.4156 -0.2165 -0.0343
 1242SOL     OW 7223   0.279   1.221   6.413  0.2201  0.8432 -0.5931
 1242SOL    HW1 7224   0.365   1.230   6.454  0.2342  0.8707 -0.6281
 1242SOL    HW2 7225   0.216   1.235   6.483  0.2279  2.1594 -0.8291
 1243SOL     OW 7226   6.424   0.443   1.747 -0.0521  0.0136 -0.3255
 1243SOL    HW1 7227   6.473   0.400   1.677  1.6408  2.8409 -1.0455
 1243SOL    HW2 7228   6.358   0.496   1.702 -0.9731 -0.4600  0.4228
 1244SOL     OW 7229   8.168   5.948  10.048  0.0469  0.2272  0.1485
 1244SOL    HW1 7230   8.213   5.882  10.100 -0.3847  0.7436  1.2123
 1244SOL    HW2 7231   8.239   6.002  10.013  0.3077  0.9159  1.6459
 1245SOL     OW 7232   4.238   6.327   5.830  0.4231 -0.3560  0.5458
 1245SOL    HW1 7233   4.214   6.301   5.742  1.8170 -0.5384  0.1943
 1245SOL    HW2 7234   4.239   6.246   5.880  0.8778 -0.4405  0.4084
 1246SOL     OW 7235   9.579   7.839   8.794 -0.6804 -0.3377 -0.4446
 1246SOL    HW1 7236   9.510   7.903   8.812  0.3471  1.0218 -1.1769
 1246SOL    HW2 7237   9.584   7.787   8.874 -0.3229  1.6708  0.9303
 1247SOL     OW 7238   9.931   6.266   0.194  0.1658  0.6467  0.1197
 1247SOL    HW1 7239  10.009   6.309   0.228 -0.1690  0.3444  1.3157
 1247SOL    HW2 7240   9.962   6.180   0.165  0.0426 -0.1072  2.0675
 1248SOL     OW 7241   5.557  10.915   1.027  0.4735 -0.3381 -0.1483
 1248SOL    HW1 7242   5.626  10.975   1.058  0.7512 -0.0017 -1.3603
 1248SOL    HW2 7243   5.590  10.882   0.943  0.4224 -2.3790  0.5832
 1249SOL     OW 7244   6.880  10.348  10.461 -0.5487 -0.7938 -0.0772
 1249SOL    HW1 7245   6.940  10.420  10.476 -1.2732  0.3343 -2.2876
 1249SOL    HW2 7246   6.936  10.275  10.433 -0.1433  0.1864 -1.9336
 1250SOL     OW 7247   3.550   8.066   1.647 -0.7377 -0.3864  0.0224
 1250SOL    HW1 7248   3.508   8.152   1.652 -0.0481 -0.0810  0.6369
 1250SOL    HW2 7249   3.502   8.021   1.577 -0.9914  0.5583 -0.4384
 1251SOL     OW 7250  10.555   6.671   1.819  0.2306  0.3031  0.6582
 1251SOL    HW1 7251  10.527   6.673   1.911  2.7322 -0.6103  1.5395
 1251SOL    HW2 7252  10.624   6.737   1.813  1.0252 -0.5649 -0.1964
 1252SOL     OW 7253   9.391   5.140   3.085  0.2243  0.1843 -0.1821
 1252SOL    HW1 7254   9.401   5.222   3.037  0.5600  0.3068  0.0936
 1252SOL    HW2 7255   9.465   5.139   3.146 -1.4485  1.2001  2.0486
 1253SOL     OW 7256   4.284   0.400   6.489 -0.3436  0.4980  0.5322
 1253SOL    HW1 7257   4.206   0.404   6.545 -0.2176 -1.6355  0.9394
 1253SOL    HW2 7258   4.357   0.395   6.550 -0.2582 -2.9384  0.3535
 1254SOL     OW 7259   8.905   9.088   2.210  0.5024  0.1232  0.4589
 1254SOL    HW1 7260   8.872   9.043   2.287  0.3688 -2.2052 -0.8639
 1254SOL    HW2 7261   8.953   9.163   2.244 -1.3692  0.4004  2.6692
 1255SOL     OW 7262   3.506   7.076   5.518  0.1152 -0.1878  0.0272
 1255SOL    HW1 7263   3.559   7.152   5.542  2.9652 -1.7079 -0.9057
 1255SOL    HW2 7264   3.469   7.100   5.433 -2.4494  1.6311  1.5155
 1256SOL     OW 7265   8.342   8.978   9.575  0.2532  0.2327 -0.0071
 1256SOL    HW1 7266   8.360   8.894   9.617  0.3141  0.6550  0.8475
 1256SOL    HW2 7267   8.250   8.974   9.550  0.3149 -0.1697 -0.1783
 1257SOL     OW 7268   2.094   0.272   6.547  0.2447 -0.1249 -0.1698
 1257SOL    HW1 7269   2.129   0.187   6.573  0.2263  0.0970  0.6009
 1257SOL    HW2 7270   2.119   0.281   6.455  2.8233  0.3412  0.5164
 1258SOL     OW 7271   2.853   5.876   1.823  0.4550 -0.0294  0.2574
 1258SOL    HW1 7272   2.883   5.839   1.740  1.8725 -1.2166  1.2482
 1258SOL    HW2 7273   2.834   5.800   1.878  0.0779  0.7370  1.2187
 1259SOL     OW 7274   3.937  10.749   3.653  0.1801 -0.4521 -0.0752
 1259SOL    HW1 7275   3.946  10.702   3.736 -1.8432 -0.4445  0.1883
 1259SOL    HW2 7276   3.854  10.719   3.617  0.7284  0.0131 -1.8264
 1260SOL     OW 7277   9.039   3.560   8.966 -0.3422  0.0806 -0.4583
 1260SOL    HW1 7278   8.988   3.479   8.959 -0.0561  0.0129 -2.2652
 1260SOL    HW2 7279   9.030   3.601   8.880  2.9101 -0.0868 -0.9937
 1261SOL     OW 7280   4.443   0.926   1.292 -0.5239 -0.4310  0.1995
 1261SOL    HW1 7281   4.443   1.009   1.245 -0.9364 -0.4702  0.1266
 1261SOL    HW2 7282   4.534   0.915   1.322 -0.8945  1.1535  2.1470
 1262SOL     OW 7283  10.916   0.461   6.848 -0.3509  0.3801 -0.4592
 1262SOL    HW1 7284  10.847   0.451   6.914 -0.3961  1.2145 -0.3745
 1262SOL    HW2 7285  10.997   0.441   6.895 -0.5015 -0.3886 -0.5051
 1263SOL     OW 7286   6.792   3.537  10.187  0.5346 -0.1922 -0.0129
 1263SOL    HW1 7287   6.803   3.442  10.195 -2.0390 -0.8713 -2.5489
 1263SOL    HW2 7288   6.811   3.555  10.095 -0.0729  1.5840  0.1709
 1264SOL     OW 7289   7.111   0.814   5.503 -0.0051  0.0196  0.0527
 1264SOL    HW1 7290   7.184   0.772   5.548 -0.9844 -0.7147  1.0138
 1264SOL    HW2 7291   7.100   0.764   5.422  1.4332  1.0234 -0.8126
 1265SOL     OW 7292   3.839   0.841   9.110  0.2906 -0.4121  0.3262
 1265SOL    HW1 7293   3.805   0.804   9.191 -0.4893 -1.7041 -0.5655
 1265SOL    HW2 7294   3.773   0.904   9.082 -0.2337 -1.1508 -0.1343
 1266SOL     OW 7295   3.208   2.964   3.935  0.0722 -0.1713  0.0691
 1266SOL    HW1 7296   3.274   3.019   3.892 -0.3049 -0.6076 -1.1130
 1266SOL    HW2 7297   3.131   3.020   3.943  0.2766  0.0395  0.5585
 1267SOL     OW 7298   5.401   2.208   4.138 -0.7591 -0.2816  0.7834
 1267SOL    HW1 7299   5.329   2.248   4.185 -0.0358  2.8277 -0.4935
 1267SOL    HW2 7300   5.412   2.263   4.060 -0.0064 -3.4038 -1.5201
 1268SOL     OW 7301   8.684   0.800   8.406  0.4815 -0.6275 -0.4467
 1268SOL    HW1 7302   8.759   0.785   8.348  0.8292  1.2755 -0.5696
 1268SOL    HW2 7303   8.608   0.793   8.348  0.5504 -2.1612 -0.4019
 1269SOL     OW 7304   8.199   7.594   6.353  0.0520  0.3129  0.9081
 1269SOL    HW1 7305   8.254   7.635   6.287 -1.2561  0.7485  0.0369
 1269SOL    HW2 7306   8.242   7.614   6.437  1.8085 -0.3673  0.2090
 1270SOL     OW 7307   2.820  10.083   2.847 -0.4476  0.2529 -0.2026
 1270SOL    HW1 7308   2.861  10.160   2.807  0.2884 -0.0824 -0.1179
 1270SOL    HW2 7309   2.884  10.053   2.911 -2.1619  1.5673  2.2625
 1271SOL     OW 7310   8.996   1.183   4.823 -0.6195 -0.3182  0.5081
 1271SOL    HW1 7311   8.959   1.124   4.889 -0.7031 -0.1558  0.6084
 1271SOL    HW2 7312   8.930   1.188   4.754  0.2778 -2.0463 -0.5505
 1272SOL     OW 7313   2.840   3.318   4.993  0.4398  0.8859  0.1008
 1272SOL    HW1 7314   2.774   3.317   4.923 -0.5973  0.9225  1.0638
 1272SOL    HW2 7315   2.811   3.387   5.052  0.4577 -0.1739  1.3753
 1273SOL     OW 7316   6.313  10.960   2.116  0.0206 -0.3496  0.1149
 1273SOL    HW1 7317   6.225  10.989   2.091  0.6195  2.2417  0.6946
 1273SOL    HW2 7318   6.345  10.912   2.039 -0.5312  1.9206 -1.6500
 1274SOL     OW 7319   3.095   7.887   2.211  0.1478  0.1250  0.4042
 1274SOL    HW1 7320   3.137   7.941   2.144  1.8773 -1.7803 -0.1404
 1274SOL    HW2 7321   3.159   7.884   2.282 -1.0485  0.9033  1.5671
 1275SOL     OW 7322   4.699   3.104   5.041 -0.1415  0.5534 -0.3050
 1275SOL    HW1 7323   4.727   3.186   4.999 -0.8251  0.3417 -1.2161
 1275SOL    HW2 7324   4.640   3.064   4.977  2.1065 -1.9153 -0.9978
 1276SOL     OW 7325   0.036   2.778   6.567  0.3272 -0.6316  0.0872
 1276SOL    HW1 7326  -0.012   2.854   6.533  0.6739 -0.8262 -0.8874
 1276SOL    HW2 7327  -0.030   2.725   6.610  0.1304  0.3588  1.0456
 1277SOL     OW 7328   6.177   6.357   0.000 -0.0053 -0.0373  0.1288
 1277SOL    HW1 7329   6.109   6.290   0.014 -1.4213  1.2293 -0.4425
 1277SOL    HW2 7330   6.187   6.398   0.086  2.0063 -1.9209  0.8982
 1278SOL     OW 7331   3.807   5.010   8.521 -0.5646  0.4895 -0.3205
 1278SOL    HW1 7332   3.717   4.977   8.514 -1.2247  2.3475 -1.3295
 1278SOL    HW2 7333   3.849   4.952   8.585 -1.8630 -1.6841 -1.3095
 1279SOL     OW 7334   4.372   9.495   6.109  0.1071  0.4185  0.2535
 1279SOL    HW1 7335   4.457   9.475   6.070  0.1907  2.4080 -0.7217
 1279SOL    HW2 7336   4.308   9.454   6.050  0.3423  0.0460  0.2520
 1280SOL     OW 7337   2.368   5.626   8.093 -0.3211  0.8876 -0.0082
 1280SOL    HW1 7338   2.443   5.680   8.068 -0.5748  1.5910  0.7047
 1280SOL    HW2 7339   2.368   5.629   8.189  0.4432 -1.4695  0.1328
 1281SOL     OW 7340   4.882   4.336   2.131  0.0584 -0.6847  0.2631
 1281SOL    HW1 7341   4.799   4.352   2.087 -0.1164 -1.7664  0.1732
 1281SOL    HW2 7342   4.861   4.341   2.224  0.0000 -0.4360  0.2361
 1282SOL     OW 7343   6.595   5.552   1.450 -0.2102  0.4516 -0.0279
 1282SOL    HW1 7344   6.577   5.581   1.360  1.3193 -1.3667 -1.0056
 1282SOL    HW2 7345   6.579   5.629   1.504 -2.7780  1.1819 -1.6395
 1283SOL     OW 7346   9.421   9.979   5.316 -0.1515  0.0361  0.2271
 1283SOL    HW1 7347   9.434   9.943   5.404  0.7710  2.6258  1.2530
 1283SOL    HW2 7348   9.496  10.037   5.303 -1.3103  1.2613 -1.4433
 1284SOL     OW 7349   0.429  10.821   2.214  0.9745 -0.0294 -0.9953
 1284SOL    HW1 7350   0.505  10.868   2.180  2.1447 -0.7139  0.5160
 1284SOL    HW2 7351   0.376  10.889   2.256  1.7309  0.2185 -0.4124
 1285SOL     OW 7352   7.778   2.970  10.880  0.3823  0.1979 -0.2156
 1285SOL    HW1 7353   7.803   3.062  10.884  2.2086 -0.2502 -0.5245
 1285SOL    HW2 7354   7.729   2.955  10.962  0.2305  1.3774 -0.0732
 1286SOL     OW 7355   5.665   7.520   8.348 -0.2259  0.2160  0.8600
 1286SOL    HW1 7356   5.671   7.439   8.298  2.6656  1.2624 -0.7243
 1286SOL    HW2 7357   5.697   7.497   8.435 -1.6869 -0.7728  1.1884
 1287SOL     OW 7358   6.126   9.317   1.619  0.1902 -0.3657 -0.0055
 1287SOL    HW1 7359   6.122   9.234   1.668  0.0451 -0.6923 -0.5670
 1287SOL    HW2 7360   6.142   9.291   1.529  2.3147  0.3073  0.1140
 1288SOL     OW 7361   3.945  10.314   6.881  0.7145  0.4394  0.2048
 1288SOL    HW1 7362   3.983  10.227   6.876  1.0422  0.6072 -0.3934
 1288SOL    HW2 7363   4.015  10.369   6.916  0.8783  0.6601 -0.4509
 1289SOL     OW 7364   6.194   9.269   8.536 -0.2944 -0.4032 -0.2037
 1289SOL    HW1 7365   6.237   9.243   8.455  2.1601 -0.0801  0.9047
 1289SOL    HW2 7366   6.119   9.322   8.508 -0.7453 -2.0186 -2.2628
 1290SOL     OW 7367   2.976   4.093   0.374 -0.2877  0.1667 -0.3166
 1290SOL    HW1 7368   2.913   4.165   0.374 -0.5865 -0.0367  1.7583
 1290SOL    HW2 7369   2.923   4.014   0.377  0.0468 -0.2037 -2.3661
 1291SOL     OW 7370   8.775   6.622   5.567 -0.2825  0.3364 -0.2715
 1291SOL    HW1 7371   8.767   6.535   5.606 -0.7018 -0.1776 -1.4600
 1291SOL    HW2 7372   8.767   6.682   5.641  4.2953 -0.6264  1.2993
 1292SOL     OW 7373   2.506   7.872   0.736  0.1336  0.6816  0.0477
 1292SOL    HW1 7374   2.562   7.942   0.700  2.9209 -0.5165  1.7078
 1292SOL    HW2 7375   2.493   7.897   0.828 -0.6597  0.0580  0.1119
 1293SOL     OW 7376   5.746   4.555   9.011  0.0881  0.0649 -0.4390
 1293SOL    HW1 7377   5.840   4.574   9.020 -0.0475  0.4761  0.1772
 1293SOL    HW2 7378   5.706   4.642   9.000 -0.2622 -0.0792 -0.2945
 1294SOL     OW 7379  10.240   9.004   0.771  0.5586 -0.0816 -0.4076
 1294SOL    HW1 7380  10.189   8.967   0.699 -0.5927  1.1985 -0.2991
 1294SOL    HW2 7381  10.208   8.958   0.849 -0.4936  0.7290 -0.3377
 1295SOL     OW 7382   4.964   7.788   1.520 -0.5038 -0.5800 -0.0492
 1295SOL    HW1 7383   4.964   7.816   1.612 -0.5382 -1.7504  0.3180
 1295SOL    HW2 7384   5.045   7.824   1.484  0.5349 -1.7857  0.9837
 1296SOL     OW 7385   2.352   8.123   5.456  0.0154  0.4729 -0.3125
 1296SOL    HW1 7386   2.436   8.145   5.496  0.0868  0.5902 -0.5239
 1296SOL    HW2 7387   2.308   8.208   5.446  0.2411  0.5116 -1.0231
 1297SOL     OW 7388   1.568   2.927   2.627 -0.4765  0.8116  0.0193
 1297SOL    HW1 7389   1.539   2.838   2.606 -0.1341  0.2154  1.8671
 1297SOL    HW2 7390   1.487   2.973   2.652 -0.7124  1.1784 -1.3201
 1298SOL     OW 7391   6.368   6.512   9.823  0.0196 -0.1489  0.2985
 1298SOL    HW1 7392   6.301   6.448   9.845 -0.4866  0.4776  0.5884
 1298SOL    HW2 7393   6.321   6.594   9.811  0.5464 -0.0017 -0.9792
 1299SOL     OW 7394   3.143   3.834   1.610 -0.1663  0.7591 -0.4605
 1299SOL    HW1 7395   3.220   3.796   1.652  0.3787  1.2527 -1.0078
 1299SOL    HW2 7396   3.087   3.859   1.684  1.4596  3.0589  0.1123
 1300SOL     OW 7397   7.838  10.013   3.563  0.1905 -0.3364 -0.7703
 1300SOL    HW1 7398   7.775  10.057   3.507  1.8988  1.1865 -1.6227
 1300SOL    HW2 7399   7.836  10.062   3.645 -0.9194 -1.3619 -0.1555
 1301SOL     OW 7400   2.238   9.177   8.215 -0.3088  0.2762  0.0648
 1301SOL    HW1 7401   2.238   9.085   8.191  1.8590  0.1518  0.2982
 1301SOL    HW2 7402   2.293   9.182   8.293  1.5497  2.0058 -1.2457
 1302SOL     OW 7403   1.361   8.667   2.426  0.1961 -0.1513 -0.1007
 1302SOL    HW1 7404   1.357   8.757   2.394 -2.0068  0.1489  0.7996
 1302SOL    HW2 7405   1.327   8.614   2.353 -1.2674  0.1142  0.3513
 1303SOL     OW 7406   7.386   3.979   2.870 -0.0620  0.1084 -0.3519
 1303SOL    HW1 7407   7.364   4.058   2.822  2.3034 -0.7187 -3.0429
 1303SOL    HW2 7408   7.365   3.907   2.810  0.2629 -1.1623  0.9943
 1304SOL     OW 7409   7.947   6.562   4.300  0.1471 -0.7120  0.1424
 1304SOL    HW1 7410   7.928   6.469   4.311 -2.0479 -0.3905 -0.4454
 1304SOL    HW2 7411   8.041   6.566   4.287  0.3829 -2.7781  0.8520
 1305SOL     OW 7412   4.743   9.265   3.708 -0.1054  0.4876  0.6724
 1305SOL    HW1 7413   4.697   9.296   3.630 -0.0113 -0.9098  0.0383
 1305SOL    HW2 7414   4.684   9.284   3.781 -0.2807  1.6150  0.2542
 1306SOL     OW 7415   5.311   7.292   5.078  0.2525  0.4957  0.1541
 1306SOL    HW1 7416   5.354   7.301   5.163  0.1912  0.9936  0.1353
 1306SOL    HW2 7417   5.378   7.254   5.022  0.9810  2.0864 -0.1017
 1307SOL     OW 7418   5.131   4.001   5.472 -0.0377 -0.1006  0.1281
 1307SOL    HW1 7419   5.046   3.959   5.459 -0.0621 -0.2651  0.7918
 1307SOL    HW2 7420   5.193   3.946   5.423 -0.3452  0.1879 -0.6098
 1308SOL     OW 7421   5.803   7.261   4.668 -0.5358  0.6667 -0.0910
 1308SOL    HW1 7422   5.847   7.331   4.717 -0.7720  0.2999  0.6463
 1308SOL    HW2 7423   5.804   7.292   4.577 -0.6499  1.6373  0.2290
 1309SOL     OW 7424   5.766   7.938   1.271 -0.4759  0.0962  0.4646
 1309SOL    HW1 7425   5.830   7.927   1.341 -0.8746 -1.5364  0.6225
 1309SOL    HW2 7426   5.774   8.029   1.245  0.6203  0.3907  1.7241
 1310SOL     OW 7427  10.893   2.848   8.471 -1.1280  0.0579 -0.9451
 1310SOL    HW1 7428  10.929   2.767   8.434 -0.3030  0.1338 -0.3375
 1310SOL    HW2 7429  10.970   2.902   8.490 -1.2094 -0.9679  3.2525
 1311SOL     OW 7430   0.394   4.046   5.215  0.1956 -0.0629  0.1861
 1311SOL    HW1 7431   0.445   4.015   5.290 -0.1603 -1.7596 -0.2299
 1311SOL    HW2 7432   0.323   4.098   5.254  0.8158  0.2571  0.9203
 1312SOL     OW 7433   7.123  10.285   2.750  0.8643  0.1497  0.2105
 1312SOL    HW1 7434   7.201  10.237   2.724  1.8771  1.2517  1.1250
 1312SOL    HW2 7435   7.061  10.271   2.678  1.3574 -1.9344  0.1391
 1313SOL     OW 7436   0.144   1.208   4.802  0.1983  0.1158 -0.6767
 1313SOL    HW1 7437   0.232   1.171   4.798 -0.0514 -0.5652 -0.0768
 1313SOL    HW2 7438   0.088   1.143   4.760 -0.1348  0.1574 -0.3071
 1314SOL     OW 7439   6.193   4.520   8.345 -0.1796 -0.2731 -0.1545
 1314SOL    HW1 7440   6.182   4.464   8.268  2.1401 -0.7575 -0.2095
 1314SOL    HW2 7441   6.288   4.520   8.361 -0.3817  1.6288  1.3677
 1315SOL     OW 7442   1.626   1.837   4.129  0.1279  0.2187 -0.3598
 1315SOL    HW1 7443   1.555   1.782   4.097 -0.4069 -0.5581  1.9746
 1315SOL    HW2 7444   1.703   1.780   4.128  0.5517  0.7499 -1.8836
 1316SOL     OW 7445   7.275   9.749  10.002 -0.1894 -0.6069  0.4565
 1316SOL    HW1 7446   7.248   9.799  10.079 -2.9459 -0.7876 -0.3042
 1316SOL    HW2 7447   7.254   9.806   9.928 -1.7297 -2.1116 -0.3344
 1317SOL     OW 7448   4.159  10.232   7.456 -1.0918  0.2373 -0.0109
 1317SOL    HW1 7449   4.206  10.150   7.441 -1.5670 -0.3519  1.4798
 1317SOL    HW2 7450   4.229  10.296   7.473 -0.6955  0.3110 -1.7648
 1318SOL     OW 7451  10.916   7.825  10.106 -0.7201  0.2718 -0.5613
 1318SOL    HW1 7452  10.981   7.758  10.085 -1.4047 -0.9083  0.8625
 1318SOL    HW2 7453  10.959   7.882  10.169 -0.7253  0.0873 -0.3898
 1319SOL     OW 7454   7.590   7.647   8.738  0.4110  0.2465  0.2890
 1319SOL    HW1 7455   7.581   7.579   8.672  1.7779  1.2775 -1.0286
 1319SOL    HW2 7456   7.532   7.717   8.709  1.4162  0.9194 -0.1303
 1320SOL     OW 7457   8.718   0.491   7.353 -0.8018 -0.7352 -0.2073
 1320SOL    HW1 7458   8.715   0.506   7.259 -0.9047  0.7074  0.0085
 1320SOL    HW2 7459   8.803   0.448   7.368 -0.2264  0.1567 -0.8142
 1321SOL     OW 7460   0.481  10.496  10.445 -0.8280  0.3711  0.2373
 1321SOL    HW1 7461   0.399  10.450  10.425 -0.8245  0.3717  0.2211
 1321SOL    HW2 7462   0.465  10.587  10.419 -0.8011  0.3582  0.1767
 1322SOL     OW 7463   3.104   9.748   5.776 -0.8541  0.0920 -0.5130
 1322SOL    HW1 7464   3.169   9.785   5.716 -0.8810 -0.2048 -0.7305
 1322SOL    HW2 7465   3.127   9.784   5.861 -1.2845  1.1302 -0.8150
 1323SOL     OW 7466   4.431   3.381   7.788 -0.1571 -0.1439 -0.6776
 1323SOL    HW1 7467   4.417   3.441   7.862 -2.2458 -0.4950 -0.7341
 1323SOL    HW2 7468   4.526   3.367   7.786  0.0474  0.6751  1.2902
 1324SOL     OW 7469   6.794   4.753   6.540  0.1475 -0.6115 -0.2052
 1324SOL    HW1 7470   6.858   4.813   6.501  0.2417 -2.4710 -3.1817
 1324SOL    HW2 7471   6.741   4.810   6.597  4.2170  1.0547  2.4645
 1325SOL     OW 7472   3.797   1.908   6.082  0.0549 -0.1179 -0.1412
 1325SOL    HW1 7473   3.761   1.977   6.026  0.6022  0.7095  0.4982
 1325SOL    HW2 7474   3.778   1.938   6.171 -1.7267 -1.9086  0.1426
 1326SOL     OW 7475   9.681   0.965   7.867  0.4199  0.4493  0.4669
 1326SOL    HW1 7476   9.615   1.029   7.840 -0.5691 -0.8021 -0.1792
 1326SOL    HW2 7477   9.631   0.887   7.890  1.6515 -0.4218  0.2885
 1327SOL     OW 7478   7.993   5.054   4.681 -0.2885 -0.1963  0.2790
 1327SOL    HW1 7479   8.008   5.117   4.610 -1.0866 -0.1913  0.1067
 1327SOL    HW2 7480   7.934   5.100   4.741  1.6910  0.4468  1.8318
 1328SOL     OW 7481   8.024   5.699   6.477 -0.3293  0.2914 -0.4032
 1328SOL    HW1 7482   8.032   5.604   6.487  0.7290  0.5007  1.0284
 1328SOL    HW2 7483   8.059   5.735   6.559  0.5392  1.9559 -1.4561
 1329SOL     OW 7484   1.335   6.027   6.851 -0.0127 -0.1167 -0.7735
 1329SOL    HW1 7485   1.410   5.979   6.885 -0.4310 -0.2731 -0.0662
 1329SOL    HW2 7486   1.345   6.115   6.887 -0.3324 -0.2221 -0.4210
 1330SOL     OW 7487   4.637   6.802   3.300  0.4072  0.6058 -0.4764
 1330SOL    HW1 7488   4.670   6.733   3.357  0.7039  1.4436  0.3946
 1330SOL    HW2 7489   4.706   6.815   3.235  0.1514 -0.2187 -0.9227
 1331SOL     OW 7490   8.670   8.476   6.400  0.3443  0.9818  0.2755
 1331SOL    HW1 7491   8.754   8.435   6.424 -0.7485 -0.5226  1.7963
 1331SOL    HW2 7492   8.686   8.514   6.314  2.1649 -0.6030 -0.1702
 1332SOL     OW 7493   3.251   8.108   3.417  0.0228  0.4374 -0.6965
 1332SOL    HW1 7494   3.327   8.107   3.476  0.2540 -1.5574 -0.9487
 1332SOL    HW2 7495   3.245   8.199   3.387  1.3470  0.9766  0.5525
 1333SOL     OW 7496   4.461   4.143   5.553  0.4387 -0.0109  0.4319
 1333SOL    HW1 7497   4.494   4.084   5.485  1.7014 -0.0683  1.0613
 1333SOL    HW2 7498   4.462   4.230   5.512 -0.9573 -0.3336 -0.3367
 1334SOL     OW 7499   5.063   7.141   3.011 -0.3857  0.2284  0.1074
 1334SOL    HW1 7500   5.056   7.051   2.979  1.7521 -0.0210  0.2220
 1334SOL    HW2 7501   5.037   7.136   3.103 -3.0130  0.3053 -0.5298
 1335SOL     OW 7502   9.002   9.162   3.819 -0.0116 -0.0018 -0.2759
 1335SOL    HW1 7503   9.086   9.206   3.835  0.3015 -0.8717  0.5960
 1335SOL    HW2 7504   9.015   9.114   3.738 -0.1109  0.8883 -0.8376
 1336SOL     OW 7505   2.252  10.299   2.768  0.4372 -0.0837 -0.2432
 1336SOL    HW1 7506   2.180  10.249   2.729 -0.6991  1.0894  0.2823
 1336SOL    HW2 7507   2.237  10.389   2.739  0.4098  0.5567  1.6532
 1337SOL     OW 7508   7.171   1.841   1.410 -0.3661  0.2260  0.1769
 1337SOL    HW1 7509   7.214   1.924   1.390  0.4976 -0.1505  0.4528
 1337SOL    HW2 7510   7.239   1.787   1.449 -0.7785 -0.8135 -0.5006
 1338SOL     OW 7511   6.463  10.114   2.394  0.6463 -0.2239 -0.5166
 1338SOL    HW1 7512   6.446  10.020   2.393  0.7659 -0.2852  0.8472
 1338SOL    HW2 7513   6.522  10.129   2.321  2.0336 -1.5084  0.2752
 1339SOL     OW 7514   8.090   3.694   3.859 -0.0952  0.0252 -0.3255
 1339SOL    HW1 7515   8.033   3.764   3.827  0.1041  0.1245 -0.4725
 1339SOL    HW2 7516   8.177   3.719   3.828  0.3895  0.9567  1.6498
 1340SOL     OW 7517   5.555   5.022   1.015 -0.0686 -0.3898 -0.3547
 1340SOL    HW1 7518   5.524   4.968   0.941 -1.3785  1.8230 -1.5515
 1340SOL    HW2 7519   5.475   5.046   1.061 -0.0550  3.1138 -1.8078
 1341SOL     OW 7520   2.138   2.301   7.326  0.9254 -0.2967  0.2123
 1341SOL    HW1 7521   2.079   2.359   7.278  3.0817  1.6601 -0.2797
 1341SOL    HW2 7522   2.084   2.260   7.393 -0.7566  2.1937  0.4767
 1342SOL     OW 7523   2.176   3.262   0.995 -0.0823 -0.2666  0.6389
 1342SOL    HW1 7524   2.194   3.186   1.051  0.2635 -0.0206  0.8682
 1342SOL    HW2 7525   2.134   3.225   0.917  1.2977 -0.8497  0.1436
 1343SOL     OW 7526   9.085   3.688   1.002  0.2530  0.2934 -0.7726
 1343SOL    HW1 7527   9.162   3.645   0.966 -0.4200 -2.0709  0.4318
 1343SOL    HW2 7528   9.011   3.635   0.972 -0.7225  1.1829 -0.0267
 1344SOL     OW 7529  10.201   2.478   6.928  0.1844 -0.1838 -0.3404
 1344SOL    HW1 7530  10.170   2.473   6.838 -2.3790  0.1970  0.4423
 1344SOL    HW2 7531  10.179   2.392   6.966 -3.0874  1.1095  1.0851
 1345SOL     OW 7532   1.637   1.078  10.518 -0.4646  0.2838  0.0635
 1345SOL    HW1 7533   1.690   1.059  10.595 -0.2642  1.5085  0.2596
 1345SOL    HW2 7534   1.606   0.993  10.488  0.7493 -0.3685  0.5625
 1346SOL     OW 7535   6.842   1.101   5.170  0.1663  0.3585 -0.1471
 1346SOL    HW1 7536   6.888   1.164   5.225  0.8045 -2.0826  2.3135
 1346SOL    HW2 7537   6.909   1.071   5.108  1.0385 -0.8232  1.3257
 1347SOL     OW 7538   0.276   7.813   2.954  0.7465 -0.3607  0.1565
 1347SOL    HW1 7539   0.345   7.799   2.889  1.8391 -0.7741  1.3543
 1347SOL    HW2 7540   0.300   7.755   3.027 -0.8137 -0.4268  0.6637
 1348SOL     OW 7541   3.434  10.398   3.459 -0.1295  0.5493  0.4610
 1348SOL    HW1 7542   3.479  10.420   3.377  1.1025  0.4677  1.0968
 1348SOL    HW2 7543   3.341  10.410   3.439  0.1950  1.2341 -0.7368
 1349SOL     OW 7544   0.897   4.400   0.391 -0.0825 -0.1319 -0.3168
 1349SOL    HW1 7545   0.912   4.473   0.451  0.3698 -0.9169  0.5532
 1349SOL    HW2 7546   0.911   4.322   0.444 -1.4318 -0.8725 -0.9989
 1350SOL     OW 7547   5.499   7.028   8.175  0.1301  0.1506  0.2016
 1350SOL    HW1 7548   5.450   7.006   8.095  1.8963  1.0577 -1.1979
 1350SOL    HW2 7549   5.528   6.943   8.209  0.0733 -0.1993 -0.5927
 1351SOL     OW 7550   5.135   3.988   9.586  0.0203 -0.2730  0.4653
 1351SOL    HW1 7551   5.060   3.994   9.646 -0.1097 -0.2406  0.3026
 1351SOL    HW2 7552   5.095   3.979   9.499  0.2060 -0.2357  0.3750
 1352SOL     OW 7553  10.401   5.090   4.358 -0.5700 -0.1436  0.0693
 1352SOL    HW1 7554  10.335   5.150   4.391  1.1100  1.0658  1.4119
 1352SOL    HW2 7555  10.409   5.023   4.426  1.7187  1.4365  1.4809
 1353SOL     OW 7556   0.786   1.399   7.150  0.5362  0.3855  0.2021
 1353SOL    HW1 7557   0.851   1.334   7.176  1.7612  1.0035 -1.1233
 1353SOL    HW2 7558   0.724   1.351   7.095 -0.7377 -0.4157  2.2545
 1354SOL     OW 7559  10.296   7.011  10.154  0.3943  0.6361  0.2615
 1354SOL    HW1 7560  10.331   6.967  10.077  0.4879  1.8618 -0.4203
 1354SOL    HW2 7561  10.306   7.105  10.135 -0.0839  0.9652  1.5286
 1355SOL     OW 7562   4.782  10.397   0.698  0.1686 -0.1511 -0.5043
 1355SOL    HW1 7563   4.847  10.327   0.687 -0.1651 -0.7649  1.1014
 1355SOL    HW2 7564   4.801  10.432   0.785 -0.0022  1.4471 -1.0741
 1356SOL     OW 7565   7.027   6.362   2.260  0.1781  0.2175  0.8647
 1356SOL    HW1 7566   7.020   6.277   2.216 -1.1028  1.3308 -1.2695
 1356SOL    HW2 7567   6.973   6.353   2.339 -0.6925 -0.6878  0.1947
 1357SOL     OW 7568  10.202   2.701  10.593  0.6941 -0.1367 -0.4917
 1357SOL    HW1 7569  10.149   2.772  10.556  0.9560  0.7764  0.8297
 1357SOL    HW2 7570  10.142   2.653  10.650  1.1161  0.5666  0.5762
 1358SOL     OW 7571   9.183   2.082   2.260  0.1735 -0.4972  0.5234
 1358SOL    HW1 7572   9.141   1.998   2.277  0.6184 -0.4691  1.8650
 1358SOL    HW2 7573   9.277   2.063   2.262  0.2703 -0.1044  0.0503
 1359SOL     OW 7574   7.161   1.634   9.204 -0.5046  0.5680 -0.1760
 1359SOL    HW1 7575   7.178   1.718   9.161  1.0846  0.2136 -0.2899
 1359SOL    HW2 7576   7.140   1.656   9.294  1.2559  1.0544  0.1545
 1360SOL     OW 7577   3.424  10.730   2.302  0.1359  0.2414 -0.1897
 1360SOL    HW1 7578   3.377  10.776   2.232  0.2622 -0.7249 -0.9268
 1360SOL    HW2 7579   3.359  10.670   2.339  0.8318 -1.3397 -1.4317
 1361SOL     OW 7580  10.228   3.765   5.470  0.6405  0.2130 -0.3745
 1361SOL    HW1 7581  10.301   3.735   5.525 -0.2219  0.0855  0.7397
 1361SOL    HW2 7582  10.166   3.692   5.470 -0.5652  1.1933  0.6937
 1362SOL     OW 7583   4.180   7.833   9.885  0.6658  0.0334  0.4141
 1362SOL    HW1 7584   4.121   7.907   9.872 -1.0875 -1.0379  1.7971
 1362SOL    HW2 7585   4.203   7.804   9.796 -0.3794  0.8600 -0.1409
 1363SOL     OW 7586   5.447   6.648   3.295  0.8437 -0.4161 -0.3036
 1363SOL    HW1 7587   5.384   6.720   3.297  0.6843 -0.4040 -2.5709
 1363SOL    HW2 7588   5.395   6.573   3.264  1.5053 -0.8983 -0.2529
 1364SOL     OW 7589  10.899   7.470   9.510  0.0339 -0.6710  0.0146
 1364SOL    HW1 7590  10.975   7.509   9.554 -0.2148 -0.9768  0.7275
 1364SOL    HW2 7591  10.903   7.504   9.421 -0.8252  1.9253  0.8746
 1365SOL     OW 7592   5.074   3.553   2.408 -0.8488  0.2300  0.3351
 1365SOL    HW1 7593   5.121   3.624   2.452 -1.8991 -0.1460  2.1920
 1365SOL    HW2 7594   5.087   3.477   2.465 -3.1316 -0.0248  0.6274
 1366SOL     OW 7595   8.613   7.713   8.285  0.0026 -0.1879 -0.4992
 1366SOL    HW1 7596   8.602   7.641   8.347  0.6894 -0.8515 -1.1257
 1366SOL    HW2 7597   8.701   7.747   8.302 -0.6353  1.0987  0.3881
 1367SOL     OW 7598   1.287   5.923   9.602 -0.0180  0.1841 -0.1753
 1367SOL    HW1 7599   1.364   5.964   9.563 -0.5988  1.3329 -0.1578
 1367SOL    HW2 7600   1.320   5.877   9.679  0.6886  0.3730 -0.3610
 1368SOL     OW 7601   5.131   6.265   8.679 -0.0483  0.1927 -0.0771
 1368SOL    HW1 7602   5.040   6.234   8.676 -0.1586  0.5502 -0.4644
 1368SOL    HW2 7603   5.145   6.287   8.772  0.2927 -1.7383  0.3572
 1369SOL     OW 7604   4.606   9.132   8.979 -0.3075  0.0830  0.4311
 1369SOL    HW1 7605   4.680   9.192   8.972 -0.9346  0.8830  0.5108
 1369SOL    HW2 7606   4.569   9.128   8.891  0.1124 -0.6992  0.2801
 1370SOL     OW 7607   6.510   7.153   6.797 -0.4397  0.5211  0.5229
 1370SOL    HW1 7608   6.511   7.119   6.886 -1.7641  2.4340  1.3274
 1370SOL    HW2 7609   6.425   7.197   6.789 -0.4771  0.1776 -1.7840
 1371SOL     OW 7610   5.622   8.708   9.466 -0.3950 -0.5240  0.3122
 1371SOL    HW1 7611   5.549   8.674   9.414  0.6521 -0.9189 -0.9395
 1371SOL    HW2 7612   5.619   8.803   9.453 -0.9364 -0.4904  0.6305
 1372SOL     OW 7613   2.938  10.893   0.321 -0.5962 -0.3420  0.2279
 1372SOL    HW1 7614   2.893  10.829   0.266  1.8067 -1.3212 -0.7305
 1372SOL    HW2 7615   2.978  10.841   0.391  1.9505 -0.1167 -0.9292
 1373SOL     OW 7616   2.672   4.069   6.421  0.2411 -0.1289 -0.2959
 1373SOL    HW1 7617   2.694   3.977   6.434  0.8486 -0.0442 -0.7030
 1373SOL    HW2 7618   2.653   4.102   6.509  1.5813 -0.2469  0.0586
 1374SOL     OW 7619   9.198   6.647   0.373 -0.2505  0.1274  0.5315
 1374SOL    HW1 7620   9.272   6.701   0.344  0.8147 -2.3966 -1.8391
 1374SOL    HW2 7621   9.221   6.621   0.462  0.9248  0.6664  0.4067
 1375SOL     OW 7622   1.968   9.145   0.138 -0.1000  0.7048  0.0517
 1375SOL    HW1 7623   1.968   9.054   0.168  1.3589  0.5291 -0.4184
 1375SOL    HW2 7624   1.935   9.141   0.048 -1.7826  0.8918  0.6230
 1376SOL     OW 7625   2.956   2.523   6.682 -0.0904 -0.2787 -0.1543
 1376SOL    HW1 7626   3.020   2.519   6.754 -1.3066  0.4932  1.0122
 1376SOL    HW2 7627   3.009   2.522   6.603  1.4147  0.8708  0.7815
 1377SOL     OW 7628   7.843   2.229   9.764 -0.3178  0.6593 -0.3556
 1377SOL    HW1 7629   7.931   2.216   9.730 -0.0758  0.7881  0.2130
 1377SOL    HW2 7630   7.790   2.252   9.687  0.3219  1.4685 -0.5557
 1378SOL     OW 7631   6.523   1.477   4.730  0.1971  0.2566  0.1794
 1378SOL    HW1 7632   6.429   1.493   4.735 -0.4987 -2.7970 -0.9259
 1378SOL    HW2 7633   6.536   1.437   4.644  2.2287 -0.8771  0.9453
 1379SOL     OW 7634   8.520   1.664   4.865  0.2812 -0.3271 -0.7464
 1379SOL    HW1 7635   8.521   1.577   4.826 -2.2708 -0.5868 -0.3977
 1379SOL    HW2 7636   8.433   1.698   4.846  0.2495  1.0431  1.4675
 1380SOL     OW 7637   3.812   5.650   8.441  0.1922  0.0606 -0.1395
 1380SOL    HW1 7638   3.717   5.646   8.432  0.1500 -1.3120  0.6006
 1380SOL    HW2 7639   3.837   5.731   8.397 -1.2809  0.2805 -0.6326
 1381SOL     OW 7640   7.946   6.370   7.545  0.1123 -0.3193 -0.4366
 1381SOL    HW1 7641   7.879   6.303   7.560 -0.3225  0.6531  2.7683
 1381SOL    HW2 7642   7.897   6.450   7.526  0.4459 -0.0876 -0.3395
 1382SOL     OW 7643   9.510   7.060   1.766  0.2318 -0.3575 -0.1637
 1382SOL    HW1 7644   9.582   7.090   1.709 -0.7720  2.4028 -0.1397
 1382SOL    HW2 7645   9.444   7.129   1.758 -2.2657 -2.5794  0.1703
 1383SOL     OW 7646   0.192   4.979   3.335 -0.2680  0.3040 -0.8201
 1383SOL    HW1 7647   0.241   4.899   3.353 -0.0018  0.4909 -0.6884
 1383SOL    HW2 7648   0.101   4.952   3.331 -0.2593  0.1272  0.0597
 1384SOL     OW 7649   7.481   2.672   6.967  0.6190  0.2079  0.0821
 1384SOL    HW1 7650   7.448   2.585   6.946  0.5384  0.1130  0.5821
 1384SOL    HW2 7651   7.419   2.706   7.031  0.4166  0.8037 -0.4286
 1385SOL     OW 7652   5.577   0.722   9.902  0.1939  0.1613  0.0188
 1385SOL    HW1 7653   5.667   0.714   9.872  1.1249  1.5305  2.2675
 1385SOL    HW2 7654   5.532   0.770   9.832  1.6928  1.2197 -0.2439
 1386SOL     OW 7655   3.001   6.912   4.445 -0.0308 -0.0962  0.1482
 1386SOL    HW1 7656   3.001   6.855   4.368 -1.7927 -1.5797  1.1626
 1386SOL    HW2 7657   3.056   6.865   4.508  1.0282  0.8893 -0.0020
 1387SOL     OW 7658   0.842   7.771  10.935 -0.5962  0.0214 -0.2959
 1387SOL    HW1 7659   0.846   7.788  11.030  0.7349 -1.6254 -0.0131
 1387SOL    HW2 7660   0.858   7.857  10.895  1.4002  0.3402  1.0135
 1388SOL     OW 7661  10.721   5.324   0.165  0.3505  0.2025 -0.1593
 1388SOL    HW1 7662  10.773   5.360   0.237 -0.9878  0.2873  0.7870
 1388SOL    HW2 7663  10.786   5.288   0.104  1.4836 -0.7819  1.5533
 1389SOL     OW 7664   7.233   5.717   7.726 -0.1681 -0.0750  1.1016
 1389SOL    HW1 7665   7.152   5.748   7.766 -0.5339 -0.9296  1.0477
 1389SOL    HW2 7666   7.282   5.677   7.798  0.8484  1.6370  1.4212
 1390SOL     OW 7667   6.287   4.160   0.141 -0.0065  0.2032  0.0759
 1390SOL    HW1 7668   6.337   4.241   0.128 -0.5697  0.4198 -0.8112
 1390SOL    HW2 7669   6.319   4.125   0.225  1.3208  0.5561 -0.2653
 1391SOL     OW 7670   8.456   6.721   4.982  0.3421 -0.0705  0.0546
 1391SOL    HW1 7671   8.480   6.704   4.891 -0.8603 -1.1708 -0.0824
 1391SOL    HW2 7672   8.455   6.634   5.023 -0.0875  0.3111  0.8700
 1392SOL     OW 7673   0.469   8.824   5.017  0.0167  0.3894 -0.5845
 1392SOL    HW1 7674   0.559   8.847   5.039  0.0631  1.4413 -1.7246
 1392SOL    HW2 7675   0.476   8.737   4.977  0.9250  1.4464 -2.9110
 1393SOL     OW 7676   1.305   3.715   8.721 -0.3058  0.9465  0.1111
 1393SOL    HW1 7677   1.248   3.664   8.779 -0.9882  1.2018 -0.3203
 1393SOL    HW2 7678   1.337   3.651   8.657 -2.2277  1.2366 -1.2530
 1394SOL     OW 7679   0.089   6.520   5.267  0.0353  0.3248  0.3397
 1394SOL    HW1 7680   0.026   6.448   5.280  0.6776 -0.3276 -0.0658
 1394SOL    HW2 7681   0.174   6.480   5.286  0.4291  0.9052 -0.1911
 1395SOL     OW 7682   4.635   2.973   8.765  0.2554  0.3112  0.5081
 1395SOL    HW1 7683   4.686   2.954   8.686 -0.9257 -0.2347 -0.1576
 1395SOL    HW2 7684   4.601   3.062   8.751  1.2280  0.7966  1.0893
 1396SOL     OW 7685  10.643   5.631   2.345  1.0226  0.0133 -0.4551
 1396SOL    HW1 7686  10.659   5.568   2.275 -1.5042 -0.4160 -0.7311
 1396SOL    HW2 7687  10.653   5.716   2.302 -0.2273 -0.2426 -1.2957
 1397SOL     OW 7688   4.352   5.750   4.867 -0.1687 -0.5228 -0.1723
 1397SOL    HW1 7689   4.275   5.775   4.816 -1.0475  0.3614  1.5123
 1397SOL    HW2 7690   4.316   5.716   4.949  1.2332  0.3429  0.8456
 1398SOL     OW 7691   6.092   5.495   2.059  0.2686  0.4786  0.1580
 1398SOL    HW1 7692   6.161   5.549   2.100 -0.1094  1.0390  0.0675
 1398SOL    HW2 7693   6.120   5.405   2.074  0.5314  0.6891  0.9755
 1399SOL     OW 7694   9.246   5.902   2.329 -0.7477 -0.3917 -0.1784
 1399SOL    HW1 7695   9.226   5.970   2.265  1.1648 -0.8487 -1.3080
 1399SOL    HW2 7696   9.165   5.893   2.380 -2.0964  0.4574 -2.0674
 1400SOL     OW 7697   2.176   4.156   9.619  0.0159  0.5213  0.2388
 1400SOL    HW1 7698   2.204   4.136   9.708 -1.2402 -0.5717  0.4086
 1400SOL    HW2 7699   2.084   4.130   9.615 -0.6177  2.6875 -0.7224
 1401SOL     OW 7700   1.185   1.512   5.357  0.7093 -0.2539 -0.0114
 1401SOL    HW1 7701   1.183   1.446   5.288  0.6600 -0.3521  0.0848
 1401SOL    HW2 7702   1.227   1.468   5.431  1.3382  0.0425 -0.1822
 1402SOL     OW 7703   8.368   5.806   6.595  0.2493  0.3289 -0.0456
 1402SOL    HW1 7704   8.454   5.769   6.577  0.4275  0.9039 -0.3806
 1402SOL    HW2 7705   8.347   5.858   6.518 -1.0095 -0.9036 -0.5728
 1403SOL     OW 7706   8.602   2.168   0.788  0.1135 -0.0538 -0.6101
 1403SOL    HW1 7707   8.555   2.201   0.864 -0.5416  1.5717 -1.6856
 1403SOL    HW2 7708   8.654   2.095   0.823 -1.4460 -0.4597  1.0522
 1404SOL     OW 7709   1.511   0.772  10.532 -0.2344 -0.6246  0.0248
 1404SOL    HW1 7710   1.483   0.736  10.448  0.0658  0.1512 -0.4277
 1404SOL    HW2 7711   1.449   0.843  10.550 -0.2192 -0.7010  0.3937
 1405SOL     OW 7712   7.354   0.443   5.802  0.0414  0.4389  0.0814
 1405SOL    HW1 7713   7.360   0.536   5.823 -1.1065  0.3954  0.6505
 1405SOL    HW2 7714   7.445   0.412   5.807  0.1103  0.8122  3.3187
 1406SOL     OW 7715   9.185  10.277   2.030  0.3792 -0.2853 -0.2483
 1406SOL    HW1 7716   9.233  10.299   1.950 -0.3779 -0.1033 -0.6625
 1406SOL    HW2 7717   9.111  10.224   2.000 -0.4222  0.5414  0.2205
 1407SOL     OW 7718   5.908   6.060   1.633 -0.1074  0.0505 -0.6601
 1407SOL    HW1 7719   5.952   5.999   1.692 -1.5431 -0.7348 -0.3363
 1407SOL    HW2 7720   5.934   6.032   1.545 -0.8390 -1.1645 -0.5269
 1408SOL     OW 7721   1.782   4.777   2.421 -0.5179 -0.2429 -0.2551
 1408SOL    HW1 7722   1.775   4.709   2.354 -0.7718 -1.4408  0.9419
 1408SOL    HW2 7723   1.720   4.844   2.394 -0.0411 -0.3185 -1.6244
 1409SOL     OW 7724   0.935   6.857   5.578 -0.3793 -0.0139 -0.3881
 1409SOL    HW1 7725   1.002   6.838   5.643  0.2595 -1.0013 -1.3117
 1409SOL    HW2 7726   0.942   6.952   5.564 -2.1392  0.6986  2.6675
 1410SOL     OW 7727   9.808   7.815  10.292  0.5569  0.2690 -0.2184
 1410SOL    HW1 7728   9.734   7.770  10.251 -1.0971  1.1886  1.5997
 1410SOL    HW2 7729   9.834   7.758  10.364 -0.5076  1.3961  1.1079
 1411SOL     OW 7730   4.328  10.092   3.805  0.2513  0.1068 -0.3628
 1411SOL    HW1 7731   4.386  10.150   3.757 -0.0909 -0.1101 -1.0481
 1411SOL    HW2 7732   4.380  10.012   3.817  0.1136 -0.0741 -0.9436
 1412SOL     OW 7733   0.157   2.173   3.116  0.2773 -0.2952 -0.0053
 1412SOL    HW1 7734   0.117   2.257   3.140  1.2735  0.5077 -1.0497
 1412SOL    HW2 7735   0.100   2.139   3.048 -0.6761 -0.9647  1.0938
 1413SOL     OW 7736   7.539   3.225   4.391 -0.7543 -0.5339 -0.1134
 1413SOL    HW1 7737   7.484   3.189   4.460 -1.6848 -2.1865 -1.6320
 1413SOL    HW2 7738   7.610   3.161   4.381 -0.4267 -0.1271 -0.4264
 1414SOL     OW 7739   0.855   1.115   4.716  0.3017  0.7267  0.5732
 1414SOL    HW1 7740   0.811   1.044   4.669  3.7195 -1.1810 -0.1099
 1414SOL    HW2 7741   0.833   1.194   4.666 -2.7648  0.0729  0.7247
 1415SOL     OW 7742   7.486   4.250   0.582  0.4466  0.1816 -0.3227
 1415SOL    HW1 7743   7.406   4.230   0.533  0.4868  0.3982 -0.4798
 1415SOL    HW2 7744   7.542   4.295   0.519  1.0820 -0.7989 -0.4830
 1416SOL     OW 7745   1.022  10.376   7.971  0.1060  0.3309 -0.0393
 1416SOL    HW1 7746   1.107  10.359   7.931 -0.4142 -2.2585 -0.2168
 1416SOL    HW2 7747   1.043  10.402   8.061  1.1076  1.6087 -0.6078
 1417SOL     OW 7748   7.762   6.406   0.624 -0.1462 -0.5153 -0.2697
 1417SOL    HW1 7749   7.732   6.495   0.606 -0.8218 -0.3950  1.2887
 1417SOL    HW2 7750   7.757   6.361   0.539  0.6842  1.0461 -1.1795
 1418SOL     OW 7751   6.236   7.007   9.654 -0.4841 -0.0817  0.0585
 1418SOL    HW1 7752   6.289   7.059   9.714  0.0267 -1.4240  0.8153
 1418SOL    HW2 7753   6.148   7.044   9.661  0.3358  2.4429 -1.5119
 1419SOL     OW 7754   2.698   3.555   7.478  0.3530 -0.1989  0.0054
 1419SOL    HW1 7755   2.651   3.638   7.472 -0.7611 -0.6255  2.0085
 1419SOL    HW2 7756   2.638   3.496   7.524  1.7432 -1.6438  0.0656
 1420SOL     OW 7757   2.376  10.850   1.619  0.2920 -0.0145  0.2717
 1420SOL    HW1 7758   2.317  10.885   1.685 -0.5563 -1.3756  0.2653
 1420SOL    HW2 7759   2.407  10.928   1.572 -4.0347  0.7320 -1.9014
 1421SOL     OW 7760   0.195   1.269   5.578  0.2274  0.0358  0.0529
 1421SOL    HW1 7761   0.242   1.272   5.495  0.6343  2.3641  0.3016
 1421SOL    HW2 7762   0.114   1.317   5.562  0.5595  0.9948  1.1120
 1422SOL     OW 7763  10.799   7.180  10.441  0.4422  0.2281  0.3622
 1422SOL    HW1 7764  10.709   7.197  10.412  0.8379  0.5927 -0.7305
 1422SOL    HW2 7765  10.801   7.206  10.533 -0.4678  0.5992  0.2802
 1423SOL     OW 7766  10.738   1.538   4.360  0.0024 -0.6140  0.3133
 1423SOL    HW1 7767  10.758   1.580   4.277 -0.8464  1.7388  1.2014
 1423SOL    HW2 7768  10.720   1.447   4.338  0.6887 -0.2479 -1.9277
 1424SOL     OW 7769   6.471   4.116   1.952  0.1586 -0.9748  0.4317
 1424SOL    HW1 7770   6.452   4.022   1.958 -0.7986 -0.7038  3.3232
 1424SOL    HW2 7771   6.457   4.149   2.041 -2.4523  2.4669 -1.0011
 1425SOL     OW 7772   5.207   8.634   3.131  0.2819 -0.2140 -0.0074
 1425SOL    HW1 7773   5.147   8.709   3.136 -0.9115 -1.1593  0.2744
 1425SOL    HW2 7774   5.182   8.578   3.205  0.7334 -1.1920 -0.5731
 1426SOL     OW 7775   1.468   3.430   1.523 -0.1729 -0.0673 -0.1857
 1426SOL    HW1 7776   1.521   3.495   1.570 -0.2420 -0.2648  0.1639
 1426SOL    HW2 7777   1.378   3.458   1.537 -0.1678  0.2691 -0.7836
 1427SOL     OW 7778   0.014   1.607   5.051 -0.4726  0.2278 -0.3611
 1427SOL    HW1 7779  -0.028   1.685   5.087  0.7080  1.6275 -1.8726
 1427SOL    HW2 7780  -0.033   1.590   4.969  1.2050  1.2684 -1.6097
 1428SOL     OW 7781   7.448   1.880   1.783  0.5774  0.2223 -0.0859
 1428SOL    HW1 7782   7.499   1.950   1.742 -1.1974  0.9665 -1.1147
 1428SOL    HW2 7783   7.362   1.919   1.798  0.0910 -1.1951  1.0041
 1429SOL     OW 7784   0.532   0.336  10.707 -0.1558  0.1401  0.6083
 1429SOL    HW1 7785   0.450   0.287  10.709 -0.7885  1.1748  0.9595
 1429SOL    HW2 7786   0.532   0.385  10.790 -1.3240  3.5129 -1.1838
 1430SOL     OW 7787   6.556   9.274   3.828 -0.7238  0.3491 -0.1831
 1430SOL    HW1 7788   6.471   9.250   3.792 -1.6259  0.5899  1.6761
 1430SOL    HW2 7789   6.554   9.242   3.918  0.4791  1.8324  0.4167
 1431SOL     OW 7790   1.910   1.147   9.772  0.4675  0.4236 -0.3047
 1431SOL    HW1 7791   1.935   1.212   9.838 -1.0375  0.0068  0.7385
 1431SOL    HW2 7792   1.934   1.063   9.811 -1.5943  0.0839  0.3247
 1432SOL     OW 7793  10.623   3.137   4.814 -0.2772  0.1317 -0.4381
 1432SOL    HW1 7794  10.586   3.067   4.760  1.6232 -2.2806  1.1140
 1432SOL    HW2 7795  10.718   3.123   4.809  0.1189  2.0382  0.7080
 1433SOL     OW 7796   6.353   9.875  10.601  0.1273 -0.2261  0.7420
 1433SOL    HW1 7797   6.336   9.930  10.677 -1.2085 -0.3934  0.5910
 1433SOL    HW2 7798   6.275   9.821  10.592  1.2781 -1.9734  0.7143
 1434SOL     OW 7799   6.132   7.062   7.233  0.0154  0.3809 -0.2399
 1434SOL    HW1 7800   6.228   7.061   7.233  0.0590 -1.0549  1.8917
 1434SOL    HW2 7801   6.107   7.006   7.160  0.8664 -1.1774  0.6194
 1435SOL     OW 7802   5.870   7.319   5.196 -0.2843 -0.3156  0.2748
 1435SOL    HW1 7803   5.851   7.225   5.203 -0.2332 -0.2570  1.3372
 1435SOL    HW2 7804   5.791   7.362   5.228 -0.1916  0.0077  0.0709
 1436SOL     OW 7805   5.163   5.476   2.732  0.0337 -0.0886  0.1817
 1436SOL    HW1 7806   5.108   5.492   2.809  0.3269  0.3369  0.3120
 1436SOL    HW2 7807   5.104   5.484   2.658 -0.4912 -1.6166  0.3991
 1437SOL     OW 7808   1.598   3.490   8.146  0.0613 -0.4033 -0.0721
 1437SOL    HW1 7809   1.581   3.560   8.209  0.4170 -0.9745  0.6732
 1437SOL    HW2 7810   1.688   3.505   8.117  0.4340 -1.0079  0.7125
 1438SOL     OW 7811   4.658   2.261   5.099 -0.3808 -0.2260  0.3597
 1438SOL    HW1 7812   4.604   2.204   5.154  0.1944 -0.7276  0.4121
 1438SOL    HW2 7813   4.736   2.278   5.151  1.6708 -3.2681 -1.4150
 1439SOL     OW 7814  10.047   2.392   6.188 -0.3384  0.2170  0.5089
 1439SOL    HW1 7815   9.989   2.351   6.252  0.3886  0.4252  1.3273
 1439SOL    HW2 7816  10.000   2.385   6.105 -0.4539 -1.8151  0.7019
 1440SOL     OW 7817   2.499   7.371   9.719 -0.4871  0.0456  0.3224
 1440SOL    HW1 7818   2.499   7.281   9.685 -1.4195  0.3726 -0.6136
 1440SOL    HW2 7819   2.591   7.395   9.724 -0.1857 -1.2503  1.3979
 1441SOL     OW 7820   8.833   4.486   0.356  0.4703  0.0075 -0.0666
 1441SOL    HW1 7821   8.772   4.430   0.309  1.6319 -2.2280  0.9352
 1441SOL    HW2 7822   8.825   4.458   0.448 -0.3278  2.8912  0.8680
 1442SOL     OW 7823  10.697   6.477   0.217 -0.2814  0.6255  0.1673
 1442SOL    HW1 7824  10.716   6.383   0.226 -0.0500  0.6520 -0.0223
 1442SOL    HW2 7825  10.781   6.520   0.234  0.2403  0.6669 -2.2294
 1443SOL     OW 7826  10.764   6.112   1.634 -0.4942  0.3232  0.5431
 1443SOL    HW1 7827  10.707   6.166   1.579 -1.3009 -1.2741 -0.2472
 1443SOL    HW2 7828  10.718   6.107   1.718 -0.5055  0.6890  0.5623
 1444SOL     OW 7829   4.601   9.733   7.028  0.2599 -0.0237  0.2944
 1444SOL    HW1 7830   4.554   9.796   7.083  1.3224  0.0412  1.1598
 1444SOL    HW2 7831   4.532   9.687   6.980 -0.6746  0.2245  1.3598
 1445SOL     OW 7832   8.101   2.596   5.924  0.0275  1.0311  0.2670
 1445SOL    HW1 7833   8.132   2.587   5.834 -0.8820 -0.8337  0.0876
 1445SOL    HW2 7834   8.045   2.673   5.923  0.6732  1.5029 -0.5567
 1446SOL     OW 7835   7.133   9.823   4.458 -0.0280 -0.3348 -0.3678
 1446SOL    HW1 7836   7.213   9.876   4.453  2.5399 -3.7759  0.5813
 1446SOL    HW2 7837   7.125   9.784   4.371  0.1951 -1.1015 -0.0525
 1447SOL     OW 7838   2.678  10.197   6.008  0.2576  0.0596 -0.1660
 1447SOL    HW1 7839   2.683  10.190   6.103 -1.8672  0.7532  0.0367
 1447SOL    HW2 7840   2.585  10.205   5.989  0.7310  1.6964 -2.1770
 1448SOL     OW 7841   5.360   2.891   9.243  0.0881 -0.8383  0.5816
 1448SOL    HW1 7842   5.377   2.912   9.151 -0.3515  2.3348  1.1058
 1448SOL    HW2 7843   5.313   2.808   9.240  0.7703 -1.2449 -1.9806
 1449SOL     OW 7844   4.950   9.438   4.506  0.1642  0.1714  0.0363
 1449SOL    HW1 7845   4.870   9.480   4.539  0.4425 -0.2173  1.2290
 1449SOL    HW2 7846   5.021   9.481   4.552  0.6145  0.0740 -0.5530
 1450SOL     OW 7847   1.415   7.354   2.389 -0.0901  0.8420 -0.4937
 1450SOL    HW1 7848   1.447   7.328   2.475  0.2482  0.1061 -0.8305
 1450SOL    HW2 7849   1.349   7.288   2.367  0.2346  0.6944 -1.0365
 1451SOL     OW 7850   0.966   6.779  10.471 -0.2721  0.0959 -0.4854
 1451SOL    HW1 7851   1.051   6.817  10.449  1.2259 -2.0513  1.1298
 1451SOL    HW2 7852   0.977   6.747  10.561 -2.5619 -0.9186 -0.4906
 1452SOL     OW 7853   7.962   6.107   3.273  0.5018  0.2148  0.0006
 1452SOL    HW1 7854   7.957   6.202   3.284  0.2969 -0.0027  2.1562
 1452SOL    HW2 7855   8.051   6.084   3.298  0.3806 -0.2136  0.0465
 1453SOL     OW 7856   5.564   3.699   2.364 -0.6573  0.3791 -0.2992
 1453SOL    HW1 7857   5.514   3.669   2.440 -1.6789  0.1164 -1.0498
 1453SOL    HW2 7858   5.577   3.620   2.312 -1.6606  0.8744 -1.3353
 1454SOL     OW 7859   7.358   6.198   2.267 -0.2496  0.0651 -0.4125
 1454SOL    HW1 7860   7.291   6.141   2.305 -0.9040 -0.1223 -1.8036
 1454SOL    HW2 7861   7.342   6.194   2.173  1.5762  0.2031 -0.7550
 1455SOL     OW 7862   4.456   0.172   4.019  0.6435 -0.3725 -0.4839
 1455SOL    HW1 7863   4.389   0.185   4.087  1.0664 -1.7454  0.2368
 1455SOL    HW2 7864   4.407   0.161   3.938 -0.0187 -1.2806  0.0236
 1456SOL     OW 7865   3.296   6.899   3.512  0.0235 -0.1823 -0.5744
 1456SOL    HW1 7866   3.255   6.976   3.474  0.1694 -0.5178 -1.4437
 1456SOL    HW2 7867   3.234   6.828   3.496 -0.6974 -0.0484  1.3455
 1457SOL     OW 7868  10.286   1.333   7.087  0.1778 -0.4114  0.1561
 1457SOL    HW1 7869  10.231   1.299   7.157 -0.8706  0.0347 -0.4298
 1457SOL    HW2 7870  10.353   1.385   7.132 -0.5203 -0.0799  0.8155
 1458SOL     OW 7871   9.932   8.573   4.272 -0.1110  0.1030 -0.7326
 1458SOL    HW1 7872   9.844   8.593   4.238  0.7054 -2.1433 -4.8092
 1458SOL    HW2 7873   9.991   8.611   4.207  1.7579 -1.9600 -0.3363
 1459SOL     OW 7874   1.863   3.458  10.016  0.2115  0.0683 -0.1274
 1459SOL    HW1 7875   1.910   3.510   9.950 -1.5647  2.7549  0.5739
 1459SOL    HW2 7876   1.855   3.516  10.091 -1.1890 -1.5402  1.0297
 1460SOL     OW 7877   4.195   9.644   6.304 -0.2060  0.0988 -0.2435
 1460SOL    HW1 7878   4.228   9.603   6.224  1.8151  1.6830 -0.2933
 1460SOL    HW2 7879   4.130   9.707   6.273  0.2684  0.4133 -0.6082
 1461SOL     OW 7880   3.168   5.642   7.486 -0.3359  0.5694 -0.4922
 1461SOL    HW1 7881   3.161   5.641   7.581  1.7709  0.6734 -0.3100
 1461SOL    HW2 7882   3.131   5.727   7.460 -0.2931  0.8311  0.2867
 1462SOL     OW 7883   2.207   3.748   7.165  0.4699 -0.2606  0.0550
 1462SOL    HW1 7884   2.195   3.833   7.208  1.5118 -0.2993  0.4515
 1462SOL    HW2 7885   2.129   3.738   7.110  1.5153  2.2475 -2.1429
 1463SOL     OW 7886   5.715   0.152   9.508 -0.2196 -0.1154  0.0266
 1463SOL    HW1 7887   5.799   0.139   9.552 -0.6312 -2.8546  0.1460
 1463SOL    HW2 7888   5.734   0.139   9.415 -0.6074 -1.6555  0.1304
 1464SOL     OW 7889   4.321   3.307   8.203 -0.6368  0.2716  0.7504
 1464SOL    HW1 7890   4.400   3.259   8.181  0.1602  2.9737 -3.6166
 1464SOL    HW2 7891   4.350   3.377   8.261 -0.0392  0.5035  0.1841
 1465SOL     OW 7892   9.517   7.258   3.141  0.7050 -0.3405 -0.8908
 1465SOL    HW1 7893   9.436   7.297   3.172  0.7466 -0.8304 -0.1616
 1465SOL    HW2 7894   9.577   7.332   3.133  0.4850 -0.1164 -0.4800
 1466SOL     OW 7895   5.426   7.918   6.888 -0.6321 -0.5721 -0.5515
 1466SOL    HW1 7896   5.492   7.984   6.866 -0.7478 -0.1678  0.2710
 1466SOL    HW2 7897   5.476   7.848   6.930 -0.6164 -0.6417 -0.6855
 1467SOL     OW 7898   4.810   0.845   4.094 -0.0118 -0.3311  0.7291
 1467SOL    HW1 7899   4.798   0.882   4.181 -1.9613 -0.6929  0.6583
 1467SOL    HW2 7900   4.740   0.884   4.041 -0.5703 -2.1771  0.0373
 1468SOL     OW 7901   6.630   1.868   7.429  0.3720 -0.4741  0.9259
 1468SOL    HW1 7902   6.714   1.905   7.403 -1.2042  0.4423 -3.8493
 1468SOL    HW2 7903   6.599   1.925   7.499  1.6144  2.3425 -0.6513
 1469SOL     OW 7904   3.028   3.103   8.303 -0.5494 -0.5743  0.3294
 1469SOL    HW1 7905   3.024   3.055   8.385 -2.1335  0.7390  1.0799
 1469SOL    HW2 7906   2.956   3.166   8.308 -1.6176 -1.3657 -2.6675
 1470SOL     OW 7907   2.289   4.319   0.728  0.4032 -0.5782 -0.2757
 1470SOL    HW1 7908   2.224   4.323   0.799  0.3067 -0.9814 -0.3434
 1470SOL    HW2 7909   2.332   4.235   0.740  2.7206  0.7004  1.3712
 1471SOL     OW 7910   1.705   2.824   2.400 -0.0028 -0.2374  0.1289
 1471SOL    HW1 7911   1.793   2.802   2.369  0.7027  0.7074  1.3917
 1471SOL    HW2 7912   1.719   2.873   2.481 -1.6819  0.3246  0.1210
 1472SOL     OW 7913   1.098   3.846   6.373 -0.3003  0.2617 -0.1283
 1472SOL    HW1 7914   1.004   3.864   6.373 -0.2120  0.7810 -0.7575
 1472SOL    HW2 7915   1.128   3.875   6.286  1.0339  3.4327  1.2012
 1473SOL     OW 7916   0.827   8.938   7.735 -0.3668 -0.7467 -0.1418
 1473SOL    HW1 7917   0.794   8.924   7.646 -0.1467 -0.8688 -0.2030
 1473SOL    HW2 7918   0.911   8.894   7.737  0.7272  1.2058 -0.5870
 1474SOL     OW 7919   3.793   8.377   1.433 -0.3810  0.1105 -0.2499
 1474SOL    HW1 7920   3.713   8.348   1.390 -0.0131 -1.8302  0.2820
 1474SOL    HW2 7921   3.775   8.370   1.526  0.7378 -1.5220 -0.1060
 1475SOL     OW 7922   3.800   9.180   5.930 -0.6225 -0.3213 -0.2454
 1475SOL    HW1 7923   3.709   9.210   5.927 -0.2706  0.9060  0.7418
 1475SOL    HW2 7924   3.840   9.230   6.001  1.0306 -0.2455 -1.1674
 1476SOL     OW 7925   0.663   3.496   7.619 -0.0440 -0.8610  0.0314
 1476SOL    HW1 7926   0.662   3.517   7.526 -0.2120 -0.2419  0.1664
 1476SOL    HW2 7927   0.628   3.407   7.624 -2.5487  0.0262 -0.2883
 1477SOL     OW 7928   8.236   8.957   6.341  0.5531  0.0836 -0.1604
 1477SOL    HW1 7929   8.249   8.911   6.424 -1.1997  0.9537  0.6740
 1477SOL    HW2 7930   8.176   9.029   6.364 -0.0286  0.2971 -2.1971
 1478SOL     OW 7931   3.980   8.198   2.627  0.4229  0.2882 -0.0256
 1478SOL    HW1 7932   3.987   8.104   2.644 -1.1637  0.2291  0.4523
 1478SOL    HW2 7933   3.977   8.238   2.714  0.0234  0.6905 -0.2209
 1479SOL     OW 7934   9.088   3.867   5.639  0.4357  0.5377  0.1345
 1479SOL    HW1 7935   9.109   3.897   5.727 -1.2603  0.6408  0.5311
 1479SOL    HW2 7936   9.017   3.804   5.651 -0.8006  1.5979 -1.2574
 1480SOL     OW 7937   2.278   1.534  10.795  0.1107 -0.1387  0.5225
 1480SOL    HW1 7938   2.220   1.465  10.826  0.1512 -0.2004  0.4632
 1480SOL    HW2 7939   2.298   1.587  10.872  0.3417 -0.3849  0.6352
 1481SOL     OW 7940   7.001   5.798   9.167 -0.6726 -0.2404  1.0157
 1481SOL    HW1 7941   7.038   5.876   9.208 -1.7557  0.1534  1.2856
 1481SOL    HW2 7942   6.976   5.827   9.079  0.3185 -0.6994  0.5724
 1482SOL     OW 7943   3.094   7.884   9.089 -0.5803 -0.1084  0.4931
 1482SOL    HW1 7944   3.147   7.823   9.036 -0.6773  0.3729 -0.1683
 1482SOL    HW2 7945   3.147   7.963   9.094  0.6185 -0.9611  3.3204
 1483SOL     OW 7946   8.178   2.216   6.297 -0.2293 -0.5644 -0.2260
 1483SOL    HW1 7947   8.140   2.191   6.381 -0.6983 -0.4274 -0.3942
 1483SOL    HW2 7948   8.247   2.279   6.320  0.8407 -1.8563  0.1776
 1484SOL     OW 7949   1.862   7.347   0.357  0.2208  0.0818 -0.1488
 1484SOL    HW1 7950   1.919   7.368   0.431 -1.6526  1.1295  1.0670
 1484SOL    HW2 7951   1.908   7.381   0.281  0.8006  1.7724  0.9045
 1485SOL     OW 7952  10.863   5.667   7.714 -0.3085 -0.1073 -0.1104
 1485SOL    HW1 7953  10.821   5.644   7.631 -2.5565 -2.6142  1.5464
 1485SOL    HW2 7954  10.790   5.696   7.770  0.9529  0.2940  1.3980
 1486SOL     OW 7955   6.292   5.685   3.424  0.4256  0.1338 -0.2059
 1486SOL    HW1 7956   6.319   5.695   3.515 -0.0419 -0.5342  0.0074
 1486SOL    HW2 7957   6.265   5.594   3.416  0.5585  0.1557 -1.0448
 1487SOL     OW 7958   7.114   8.643   5.625 -0.4835  0.0997 -0.1076
 1487SOL    HW1 7959   7.194   8.695   5.628  0.8277 -1.8406  2.4431
 1487SOL    HW2 7960   7.049   8.697   5.669  0.1419  0.6414  0.1658
 1488SOL     OW 7961   9.787   2.484   5.230  0.6099 -0.3232 -0.1036
 1488SOL    HW1 7962   9.775   2.477   5.135  2.2892 -1.9563 -0.2437
 1488SOL    HW2 7963   9.845   2.559   5.241  0.2863 -0.0318 -0.3335
 1489SOL     OW 7964   2.443   2.675   1.689  0.0389 -0.0784  0.3722
 1489SOL    HW1 7965   2.353   2.657   1.718 -0.6703  0.2036 -1.4998
 1489SOL    HW2 7966   2.457   2.617   1.615  0.1418  2.1885 -1.4957
 1490SOL     OW 7967   1.583   0.469   5.131  0.2781 -0.0775 -0.0472
 1490SOL    HW1 7968   1.666   0.497   5.168  0.0186 -0.6667  1.0410
 1490SOL    HW2 7969   1.556   0.395   5.187 -1.0544  0.2258 -0.2570
 1491SOL     OW 7970   6.133   5.889   1.441 -0.1619 -0.2432  0.6575
 1491SOL    HW1 7971   6.171   5.805   1.416 -1.4035 -1.3119  2.1534
 1491SOL    HW2 7972   6.153   5.897   1.534 -1.1122  0.5228  0.8106
 1492SOL     OW 7973   0.563  10.367   0.597  0.3255  0.1382  0.3014
 1492SOL    HW1 7974   0.626  10.322   0.652  0.1861 -1.2542 -0.6072
 1492SOL    HW2 7975   0.552  10.309   0.521 -0.9708  1.0199 -0.2293
 1493SOL     OW 7976   4.810   2.734   1.259 -0.5538  0.6081 -0.0608
 1493SOL    HW1 7977   4.845   2.702   1.175 -0.9222  3.5859 -1.4874
 1493SOL    HW2 7978   4.728   2.686   1.271  0.0732 -0.7070 -0.7804
 1494SOL     OW 7979   4.348   4.357   6.949  0.1514  0.5404  0.1404
 1494SOL    HW1 7980   4.322   4.270   6.979 -1.7566  0.5217 -1.4051
 1494SOL    HW2 7981   4.366   4.346   6.856 -0.7314  1.9127 -0.2116
 1495SOL     OW 7982  10.671   8.848   0.680  0.4998 -0.0907 -0.4616
 1495SOL    HW1 7983  10.744   8.857   0.619  1.0582 -0.1938  0.1733
 1495SOL    HW2 7984  10.650   8.754   0.679  0.8905 -0.1842 -0.0689
 1496SOL     OW 7985   4.037   3.721   9.734 -0.0523  0.8143 -0.2986
 1496SOL    HW1 7986   3.997   3.676   9.659  0.0830  1.1511 -0.5758
 1496SOL    HW2 7987   3.976   3.792   9.754  0.5035  1.4692 -0.8674
 1497SOL     OW 7988   7.692   0.204   3.247 -0.3888 -0.0556  0.0614
 1497SOL    HW1 7989   7.693   0.200   3.152 -1.7190 -1.2293  0.0670
 1497SOL    HW2 7990   7.665   0.293   3.268 -1.7926 -0.2865 -0.6877
 1498SOL     OW 7991   5.728   8.173   3.260  0.0332 -0.6399 -0.0790
 1498SOL    HW1 7992   5.727   8.259   3.303  1.5965 -0.0457 -1.1454
 1498SOL    HW2 7993   5.706   8.111   3.329 -1.2446  0.6124  0.6925
 1499SOL     OW 7994  10.415   0.060   0.104 -0.4846  0.5511 -0.1838
 1499SOL    HW1 7995  10.374   0.145   0.093  0.8746  1.1150 -1.2337
 1499SOL    HW2 7996  10.493   0.077   0.157  1.0125  0.4195 -2.2085
 1500SOL     OW 7997   4.404   3.459   2.801 -0.2128  0.5319 -0.2798
 1500SOL    HW1 7998   4.493   3.488   2.782  0.0261  0.0059  0.0177
 1500SOL    HW2 7999   4.377   3.411   2.723 -0.3906  1.0421 -0.5353
 1501SOL     OW 8000   2.386   3.646  10.713  0.2468 -0.5894  0.1926
 1501SOL    HW1 8001   2.427   3.664  10.628 -2.5337 -0.6552 -1.2738
 1501SOL    HW2 8002   2.399   3.552  10.725 -0.2432 -0.7867 -0.7132
 1502SOL     OW 8003   3.222   1.393   3.874 -0.1303  0.5373  0.6988
 1502SOL    HW1 8004   3.197   1.407   3.965 -1.5095 -1.0635  0.6029
 1502SOL    HW2 8005   3.206   1.300   3.858  0.7780  0.6217 -0.9807
 1503SOL     OW 8006   7.907  10.590  10.002 -0.4603  0.1547 -0.0701
 1503SOL    HW1 8007   7.989  10.556  10.039 -0.9066  1.3388  2.1894
 1503SOL    HW2 8008   7.928  10.607   9.910  1.5815 -0.3236  0.2400
 1504SOL     OW 8009   3.786   7.257   7.017 -0.4843  0.1478 -0.4161
 1504SOL    HW1 8010   3.699   7.218   7.022  0.0644 -1.3051 -1.4973
 1504SOL    HW2 8011   3.784   7.311   6.937 -1.1985  2.3290  1.0003
 1505SOL     OW 8012   2.675   3.143   6.018  0.0732 -0.9150  0.1914
 1505SOL    HW1 8013   2.761   3.183   6.008 -0.0448 -1.1252 -2.5900
 1505SOL    HW2 8014   2.659   3.142   6.112  2.5400  0.2895  0.6983
 1506SOL     OW 8015   4.259   6.711   7.913 -0.0395 -0.7636  0.5309
 1506SOL    HW1 8016   4.201   6.634   7.918 -0.4772 -0.5725 -0.9661
 1506SOL    HW2 8017   4.203   6.780   7.877  1.0808 -0.5556 -0.9067
 1507SOL     OW 8018   8.278   7.006   3.163 -0.5346 -0.6385  0.0603
 1507SOL    HW1 8019   8.232   6.950   3.101 -0.2747  0.7789 -1.4849
 1507SOL    HW2 8020   8.210   7.065   3.197 -0.6094 -1.1871  0.8973
 1508SOL     OW 8021   9.473   7.878   3.532 -0.1117  0.0930 -0.0798
 1508SOL    HW1 8022   9.462   7.783   3.526  0.7722 -0.0527  0.3379
 1508SOL    HW2 8023   9.390   7.909   3.568 -0.5839 -0.4618 -0.6588
 1509SOL     OW 8024   7.462   7.002  10.698  0.6488  0.1122 -0.3570
 1509SOL    HW1 8025   7.382   7.049  10.672 -2.1645 -3.1322  1.6579
 1509SOL    HW2 8026   7.469   7.018  10.792  1.7134 -0.5706 -0.3121
 1510SOL     OW 8027   3.669   0.771   7.504  0.4124  0.1790  0.5940
 1510SOL    HW1 8028   3.679   0.679   7.527  1.1414 -0.0662 -0.5761
 1510SOL    HW2 8029   3.758   0.800   7.484  0.1806  1.1219  0.8885
 1511SOL     OW 8030   7.976   9.853   9.645  0.2021 -0.3464  0.2265
 1511SOL    HW1 8031   8.062   9.866   9.606 -0.1880 -0.8986 -0.8601
 1511SOL    HW2 8032   7.984   9.771   9.695 -0.0302 -1.1068 -0.9454
 1512SOL     OW 8033   0.699   7.374   8.741  0.5876 -0.2944  0.3801
 1512SOL    HW1 8034   0.618   7.409   8.777  1.3247  0.2516  1.6000
 1512SOL    HW2 8035   0.760   7.448   8.743  1.1984 -0.7639 -0.2523
 1513SOL     OW 8036   9.527   1.277   4.256  0.1034  0.5941 -0.8012
 1513SOL    HW1 8037   9.511   1.260   4.163 -1.3375  0.1467 -0.4952
 1513SOL    HW2 8038   9.481   1.206   4.301  0.5312  0.9779  0.2652
 1514SOL     OW 8039  10.498   7.232   1.739 -0.0849 -0.5246 -0.5459
 1514SOL    HW1 8040  10.548   7.239   1.821  0.8152 -0.0710 -1.1103
 1514SOL    HW2 8041  10.429   7.170   1.758 -1.9845  1.9997  1.6040
 1515SOL     OW 8042   7.565   4.851  10.614  0.6166 -0.1279  0.2233
 1515SOL    HW1 8043   7.508   4.911  10.662 -0.1111 -0.2990 -0.3986
 1515SOL    HW2 8044   7.520   4.838  10.530  3.8026  3.4015 -2.3257
 1516SOL     OW 8045   8.131   3.773   6.317 -0.7115 -0.0463  0.2832
 1516SOL    HW1 8046   8.115   3.695   6.264 -2.2345  0.5379 -0.1723
 1516SOL    HW2 8047   8.118   3.743   6.407  1.6368 -0.9796  0.3779
 1517SOL     OW 8048   5.393   2.018   9.601  0.1011 -0.0342  0.2035
 1517SOL    HW1 8049   5.431   1.986   9.519 -1.0988  0.2845 -0.5005
 1517SOL    HW2 8050   5.351   2.101   9.577 -1.0562 -0.3918  0.9353
 1518SOL     OW 8051   0.911   6.399   3.398 -0.4652  0.1456 -0.0257
 1518SOL    HW1 8052   0.927   6.353   3.316 -1.5994 -0.5523  0.1184
 1518SOL    HW2 8053   0.827   6.443   3.384  0.1086  1.3655  0.2003
 1519SOL     OW 8054   4.105   3.945   2.868 -0.2980  0.0098  0.2198
 1519SOL    HW1 8055   4.087   3.905   2.954 -0.7596 -1.3822 -0.4939
 1519SOL    HW2 8056   4.195   3.916   2.848 -0.4019 -0.1504 -0.0171
 1520SOL     OW 8057   9.858   6.245   1.988  0.6031  0.2057  0.1912
 1520SOL    HW1 8058   9.832   6.332   1.958  1.5732  1.0458  1.6822
 1520SOL    HW2 8059   9.778   6.192   1.978  0.0825  1.1486 -1.0242
 1521SOL     OW 8060   0.950   5.112   6.615  0.2109  0.1432  0.0447
 1521SOL    HW1 8061   0.919   5.158   6.537 -1.4392  0.5116  0.8698
 1521SOL    HW2 8062   1.040   5.143   6.627  0.7344 -0.3838 -2.0251
 1522SOL     OW 8063  10.728   4.019   4.226 -0.5884 -0.7202 -0.2270
 1522SOL    HW1 8064  10.701   4.077   4.154  0.4414  1.9911  1.4075
 1522SOL    HW2 8065  10.646   3.999   4.272 -0.8036  1.1078  0.2773
 1523SOL     OW 8066   9.070  10.256   2.446 -0.4621  0.2321 -0.3998
 1523SOL    HW1 8067   9.039  10.216   2.527  0.8365 -0.4484 -0.2194
 1523SOL    HW2 8068   9.078  10.183   2.385 -0.7636  0.6416 -0.9361
 1524SOL     OW 8069   4.660   3.495   0.205  0.2806 -0.2599 -0.2892
 1524SOL    HW1 8070   4.632   3.446   0.282  0.6795  0.6115  0.4290
 1524SOL    HW2 8071   4.735   3.446   0.171  1.6422  0.6155  1.3071
 1525SOL     OW 8072   7.877   2.513   5.516 -0.3885  0.0018 -0.2540
 1525SOL    HW1 8073   7.911   2.600   5.497  1.6008 -0.4259  0.9986
 1525SOL    HW2 8074   7.947   2.453   5.490  0.0220 -0.9334  2.5971
 1526SOL     OW 8075   3.166   8.417   0.830 -0.8140  0.1836 -0.4593
 1526SOL    HW1 8076   3.189   8.415   0.922  0.0974  0.9130 -0.6541
 1526SOL    HW2 8077   3.075   8.445   0.828 -0.6356  0.8335  0.1977
 1527SOL     OW 8078   1.730   7.723   4.455 -0.1636  0.2053  0.0590
 1527SOL    HW1 8079   1.762   7.768   4.377 -0.8649 -0.3446 -0.5483
 1527SOL    HW2 8080   1.805   7.671   4.485 -0.2522 -0.5280 -0.9550
 1528SOL     OW 8081   2.842   7.229   9.903 -0.4720  0.3270 -0.4799
 1528SOL    HW1 8082   2.813   7.220   9.994 -0.1206 -0.4555 -0.4388
 1528SOL    HW2 8083   2.934   7.202   9.904 -0.4859  0.2435 -1.0791
 1529SOL     OW 8084   6.336   7.998   8.503 -0.3483  0.2730  0.3739
 1529SOL    HW1 8085   6.362   7.989   8.412 -1.3871  0.0098  0.0855
 1529SOL    HW2 8086   6.417   8.016   8.550  0.3478 -0.6575 -0.4433
 1530SOL     OW 8087   2.434   4.926   7.100 -0.1479 -0.0746  0.2797
 1530SOL    HW1 8088   2.502   4.993   7.097 -1.3959  1.2986  1.3055
 1530SOL    HW2 8089   2.413   4.917   7.193  1.8433 -3.9323  0.5579
 1531SOL     OW 8090   8.467  10.648   2.485  0.0308  0.7345 -0.3524
 1531SOL    HW1 8091   8.408  10.576   2.465 -1.3249  2.1054 -1.5095
 1531SOL    HW2 8092   8.513  10.620   2.565 -0.0397 -1.6002 -1.0585
 1532SOL     OW 8093   6.423   7.536   8.845 -0.4150  0.2640  0.1935
 1532SOL    HW1 8094   6.354   7.601   8.859 -1.3785 -0.6341 -0.2110
 1532SOL    HW2 8095   6.403   7.467   8.908  0.3641  0.1832  0.3532
 1533SOL     OW 8096   9.173   0.019  10.385 -0.5911 -0.6364 -0.1823
 1533SOL    HW1 8097   9.195   0.076  10.311 -0.2028  1.0220  1.1285
 1533SOL    HW2 8098   9.205  -0.067  10.360  0.9661  0.2216 -1.3149
 1534SOL     OW 8099   0.138   0.353   8.648  0.5613  0.1362  0.5050
 1534SOL    HW1 8100   0.060   0.325   8.695  0.7878 -0.7814  0.3620
 1534SOL    HW2 8101   0.106   0.383   8.563  0.2906  0.4954  0.7331
 1535SOL     OW 8102   6.700   0.304  10.077 -0.6603 -0.1027  0.5293
 1535SOL    HW1 8103   6.743   0.266  10.153 -0.6508 -1.1882  0.0030
 1535SOL    HW2 8104   6.653   0.380  10.111  1.7306  1.2109  1.1048
 1536SOL     OW 8105  10.004   2.228   8.570  0.0535 -0.4321  0.4185
 1536SOL    HW1 8106   9.965   2.309   8.539 -0.6172  0.0042  2.2882
 1536SOL    HW2 8107   9.978   2.222   8.662  2.7823 -1.1105  1.2427
 1537SOL     OW 8108   8.362   4.676   5.959  0.0705 -0.3459 -0.2144
 1537SOL    HW1 8109   8.391   4.667   6.049 -2.4811 -0.0875  0.7280
 1537SOL    HW2 8110   8.367   4.770   5.941  0.0606 -0.3330 -0.1494
 1538SOL     OW 8111  10.878   1.614   0.509 -0.1590  0.4434  0.1719
 1538SOL    HW1 8112  10.809   1.561   0.471  0.5272 -2.2737  2.3702
 1538SOL    HW2 8113  10.841   1.648   0.590  0.6167  0.0800  0.6992
 1539SOL     OW 8114   1.854   7.835   4.250  0.5223 -0.0774  0.2379
 1539SOL    HW1 8115   1.805   7.916   4.238  0.1187 -0.2128  0.9311
 1539SOL    HW2 8116   1.914   7.832   4.175  0.4415  0.7808  0.1322
 1540SOL     OW 8117   0.073   9.579   5.323 -0.3387 -0.0043  0.0350
 1540SOL    HW1 8118   0.076   9.538   5.409  1.2748 -0.6251 -0.2919
 1540SOL    HW2 8119   0.030   9.514   5.267  0.7519 -0.5938 -0.1303
 1541SOL     OW 8120   4.263   5.003   9.774 -0.8315  0.0246 -0.1823
 1541SOL    HW1 8121   4.326   4.967   9.711  1.4297 -1.2184  2.5587
 1541SOL    HW2 8122   4.313   5.067   9.824 -1.9556 -0.3833  1.5548
 1542SOL     OW 8123   3.305   5.566   3.875 -0.5006 -0.6377  0.1369
 1542SOL    HW1 8124   3.366   5.540   3.806 -0.2372  1.6257 -0.5598
 1542SOL    HW2 8125   3.239   5.496   3.876  0.6594 -1.8056 -0.8794
 1543SOL     OW 8126   8.184   1.222   9.667  0.1461  0.1188 -0.0596
 1543SOL    HW1 8127   8.271   1.206   9.631  1.0364  1.5765  1.3042
 1543SOL    HW2 8128   8.152   1.135   9.692  1.9039 -0.3103  0.8718
 1544SOL     OW 8129   4.770   9.347   8.050  0.2262 -0.1621  0.4212
 1544SOL    HW1 8130   4.838   9.289   8.016 -1.1737 -1.3836 -0.4280
 1544SOL    HW2 8131   4.759   9.320   8.141 -0.5648 -1.4403 -0.0241
 1545SOL     OW 8132   1.301   7.302   9.698 -0.2568  0.1727  0.7577
 1545SOL    HW1 8133   1.303   7.311   9.602 -1.7615 -0.9312  0.5772
 1545SOL    HW2 8134   1.295   7.392   9.730 -0.8201  0.5127 -0.2523
 1546SOL     OW 8135   3.545   4.567  10.121  0.2551 -0.9666  0.6352
 1546SOL    HW1 8136   3.587   4.652  10.105 -4.4203  1.8234  1.3893
 1546SOL    HW2 8137   3.538   4.527  10.034  2.5069 -0.6619  0.2602
 1547SOL     OW 8138   5.220   4.785   9.579  0.3445 -0.0792  0.5694
 1547SOL    HW1 8139   5.184   4.699   9.600  0.4659 -0.5034 -0.8595
 1547SOL    HW2 8140   5.311   4.768   9.555  0.0821  0.2931 -0.7572
 1548SOL     OW 8141   6.148   6.179   6.438  0.0823  0.0316  0.1121
 1548SOL    HW1 8142   6.085   6.181   6.367 -0.8384  1.7243  0.9223
 1548SOL    HW2 8143   6.188   6.266   6.439  0.0261  0.0847  1.6725
 1549SOL     OW 8144   9.505   7.054   0.700 -0.2440  0.0796  0.6240
 1549SOL    HW1 8145   9.511   7.098   0.785 -1.7107 -2.3111  2.0849
 1549SOL    HW2 8146   9.594   7.025   0.682 -0.0447 -0.0493  1.7457
 1550SOL     OW 8147  10.229   8.604   1.632 -0.0986  0.1584 -0.1090
 1550SOL    HW1 8148  10.186   8.682   1.667  0.5510  0.6273 -0.3413
 1550SOL    HW2 8149  10.168   8.533   1.651 -0.7917  0.7505 -0.0798
 1551SOL     OW 8150  10.235   5.510   4.919 -0.0958 -0.2346 -0.6960
 1551SOL    HW1 8151  10.161   5.493   4.860  0.2153  0.3861 -1.2831
 1551SOL    HW2 8152  10.312   5.484   4.868  0.1475 -0.0417 -0.4279
 1552SOL     OW 8153   3.867   5.239   8.768 -0.2736 -0.1142  0.2391
 1552SOL    HW1 8154   3.912   5.207   8.690  0.1579  1.2592 -0.1100
 1552SOL    HW2 8155   3.832   5.161   8.810  0.7876 -1.0227 -0.5240
 1553SOL     OW 8156  10.198   9.491   9.264  0.0304  0.2854  0.7468
 1553SOL    HW1 8157  10.123   9.433   9.280  1.1964 -1.3293  0.6263
 1553SOL    HW2 8158  10.217   9.528   9.350 -0.5405  0.2579  0.8919
 1554SOL     OW 8159   9.505   2.401  10.433 -0.0665  0.5120  0.4363
 1554SOL    HW1 8160   9.547   2.334  10.487 -1.3978  0.1647  1.0689
 1554SOL    HW2 8161   9.561   2.407  10.355 -0.1631 -1.6783  0.1364
 1555SOL     OW 8162  10.969   4.016  10.034 -0.0174 -0.0310  0.2734
 1555SOL    HW1 8163  10.986   3.923  10.025 -0.0368 -0.1032  0.9829
 1555SOL    HW2 8164  10.954   4.030  10.127 -0.9000  0.5351  0.0547
 1556SOL     OW 8165   9.793  10.497   5.617 -0.1734  0.1438  0.5148
 1556SOL    HW1 8166   9.886  10.519   5.621 -0.5178  1.4787  1.8259
 1556SOL    HW2 8167   9.781  10.428   5.682  0.0095 -0.5118 -0.1354
 1557SOL     OW 8168   7.505   0.499   3.122 -0.3760  0.3544 -0.1159
 1557SOL    HW1 8169   7.438   0.565   3.104  0.5617  2.2947  2.7481
 1557SOL    HW2 8170   7.483   0.466   3.209  1.2203 -0.4680  0.0064
 1558SOL     OW 8171   6.146   7.660   7.713 -0.1056 -0.7926 -0.4683
 1558SOL    HW1 8172   6.102   7.669   7.629 -1.1681  1.7768  0.2717
 1558SOL    HW2 8173   6.228   7.615   7.693 -0.4053 -0.3863 -2.8345
 1559SOL     OW 8174   2.258   2.643   8.529 -0.0666 -0.4858  0.6899
 1559SOL    HW1 8175   2.252   2.703   8.455 -1.9418 -0.4011  0.8800
 1559SOL    HW2 8176   2.328   2.679   8.584  0.6629  0.0037 -0.5227
 1560SOL     OW 8177   9.589   2.296   2.847 -0.1150  0.3964  0.1527
 1560SOL    HW1 8178   9.676   2.329   2.826  0.8785 -0.2417  2.9227
 1560SOL    HW2 8179   9.546   2.368   2.894 -0.0325 -0.2172  1.2006
 1561SOL     OW 8180   0.606   8.644   6.374 -0.0454 -0.8995 -0.2699
 1561SOL    HW1 8181   0.651   8.698   6.440 -0.3076  0.1460 -0.9241
 1561SOL    HW2 8182   0.517   8.678   6.372  0.4341  0.3837 -2.4925
 1562SOL     OW 8183   1.918   1.967   3.335  0.1099  0.5245 -0.2032
 1562SOL    HW1 8184   2.003   1.958   3.378 -0.9506 -1.5844  1.6536
 1562SOL    HW2 8185   1.937   1.962   3.242  1.9257 -0.8437  0.1952
 1563SOL     OW 8186   0.373   7.301   8.280  0.1521 -0.6500 -0.3483
 1563SOL    HW1 8187   0.404   7.356   8.208 -1.1763  0.6205 -0.0112
 1563SOL    HW2 8188   0.308   7.243   8.240  2.1056 -2.6031 -0.8569
 1564SOL     OW 8189   0.547   4.699   4.078 -0.2846 -0.3231 -0.0166
 1564SOL    HW1 8190   0.516   4.632   4.016 -3.2207  1.1503 -0.3088
 1564SOL    HW2 8191   0.468   4.747   4.103  1.0576  0.3043  3.5605
 1565SOL     OW 8192   7.746   6.746  10.444  0.0879 -0.5875  0.3853
 1565SOL    HW1 8193   7.775   6.835  10.421 -1.6723 -0.3732 -1.2287
 1565SOL    HW2 8194   7.823   6.691  10.426  0.8124  0.4392  0.2190
 1566SOL     OW 8195  10.901   0.363   8.767  0.1021 -0.1167 -0.6198
 1566SOL    HW1 8196  10.918   0.342   8.859 -4.3332  0.6827  0.6299
 1566SOL    HW2 8197  10.862   0.451   8.770  0.8467  0.4031 -3.4483
 1567SOL     OW 8198   7.457   0.117  10.096 -0.1042 -0.4627 -0.1762
 1567SOL    HW1 8199   7.510   0.121  10.016 -0.1143 -1.8336 -0.2689
 1567SOL    HW2 8200   7.515   0.148  10.165  0.6321 -1.3432 -0.3809
 1568SOL     OW 8201   5.287   8.821   3.537  0.4248  0.0881 -0.0858
 1568SOL    HW1 8202   5.313   8.854   3.623  0.4488  0.7751 -0.3465
 1568SOL    HW2 8203   5.369   8.807   3.490  0.4364  3.0974 -1.2204
 1569SOL     OW 8204   1.652   9.674   7.046 -0.6518  0.1196 -0.6464
 1569SOL    HW1 8205   1.580   9.625   7.008 -0.7102 -1.1471  0.9660
 1569SOL    HW2 8206   1.610   9.738   7.103 -0.5306  0.6670 -1.1675
 1570SOL     OW 8207   2.659   1.734   4.925  0.2030  0.1528 -0.7074
 1570SOL    HW1 8208   2.589   1.766   4.868 -0.0992 -1.3504 -1.2433
 1570SOL    HW2 8209   2.698   1.661   4.876  0.2526 -0.8749  0.7912
 1571SOL     OW 8210   5.066   2.907   3.595  0.5230 -0.0353 -0.2914
 1571SOL    HW1 8211   5.135   2.964   3.628  0.4680  0.0182 -0.2669
 1571SOL    HW2 8212   4.985   2.947   3.627  0.3604  0.8816 -1.7288
 1572SOL     OW 8213   8.331   8.823   5.725  0.6320  0.5990 -0.3142
 1572SOL    HW1 8214   8.261   8.880   5.691  1.2199  1.3348 -0.3285
 1572SOL    HW2 8215   8.374   8.876   5.792 -1.5598 -1.4034  2.9632
 1573SOL     OW 8216   5.371   9.052   5.829 -0.0338  0.4554 -0.5118
 1573SOL    HW1 8217   5.328   9.118   5.776 -0.2309 -0.0576 -0.9960
 1573SOL    HW2 8218   5.458   9.043   5.791  0.3537  1.1641  0.1843
 1574SOL     OW 8219   7.128   5.770   8.323  0.3745 -0.3082 -0.4491
 1574SOL    HW1 8220   7.129   5.691   8.378  0.2427 -0.7331 -1.0507
 1574SOL    HW2 8221   7.117   5.842   8.385 -0.5094 -0.8349  0.0235
 1575SOL     OW 8222   6.930   6.304   6.098 -0.0480 -0.4592  0.5046
 1575SOL    HW1 8223   6.952   6.324   6.007 -0.2891  0.4449  0.6323
 1575SOL    HW2 8224   6.991   6.234   6.123 -0.7129 -1.4949 -0.6760
 1576SOL     OW 8225   0.330   2.835  10.226 -0.2172 -0.1743  0.7309
 1576SOL    HW1 8226   0.308   2.840  10.133  0.6033  1.6317  0.5957
 1576SOL    HW2 8227   0.426   2.827  10.228 -0.3547 -2.5053  1.4169
 1577SOL     OW 8228   9.507   9.511  10.904  0.1250  1.2129 -0.2328
 1577SOL    HW1 8229   9.566   9.585  10.912 -0.2473  1.4905 -0.0057
 1577SOL    HW2 8230   9.511   9.469  10.990  1.9801 -0.3104 -0.9871
 1578SOL     OW 8231   0.770   9.514   4.819  0.4535  0.4047 -0.2427
 1578SOL    HW1 8232   0.746   9.553   4.904  0.7328  1.1022 -0.4745
 1578SOL    HW2 8233   0.727   9.570   4.755 -0.0012 -0.3008 -0.5595
 1579SOL     OW 8234   7.973   6.855   7.167  0.4793  0.0328  0.9729
 1579SOL    HW1 8235   7.886   6.832   7.201  0.6208 -0.5036  0.9768
 1579SOL    HW2 8236   7.959   6.870   7.073  0.5497 -1.0082  0.7846
 1580SOL     OW 8237   4.102   8.885   6.059 -0.4902 -0.3443  0.1783
 1580SOL    HW1 8238   4.070   8.936   6.134  0.2086 -1.0721  0.9884
 1580SOL    HW2 8239   4.090   8.794   6.085 -1.2316 -0.6082 -1.0481
 1581SOL     OW 8240   0.480   1.688   9.381  0.6127  0.2486  0.3164
 1581SOL    HW1 8241   0.458   1.738   9.459  1.6941  0.0319  0.7810
 1581SOL    HW2 8242   0.574   1.700   9.370  0.5427 -0.0318 -0.7400
 1582SOL     OW 8243   4.411  10.874   5.357  0.1333  0.0688 -0.3065
 1582SOL    HW1 8244   4.376  10.960   5.379 -1.3171 -0.3803 -0.7003
 1582SOL    HW2 8245   4.335  10.825   5.326  0.8505 -1.4807  0.2802
 1583SOL     OW 8246   2.144   4.180   2.423 -0.0852  0.3570  0.1428
 1583SOL    HW1 8247   2.173   4.091   2.440 -0.3208  0.3577  0.5607
 1583SOL    HW2 8248   2.054   4.170   2.390 -0.4375  0.4829  1.0290
 1584SOL     OW 8249   0.296   5.783   6.102  0.9640 -0.5980  0.2894
 1584SOL    HW1 8250   0.208   5.819   6.110  0.5646 -1.5638  0.4455
 1584SOL    HW2 8251   0.293   5.702   6.154  2.6377  0.5351  2.2530
 1585SOL     OW 8252  10.386   6.511   9.017 -0.5456  0.1684  0.2685
 1585SOL    HW1 8253  10.316   6.445   9.020 -0.2745 -0.0793  1.3952
 1585SOL    HW2 8254  10.405   6.520   8.924  0.1687 -2.1725  0.1189
 1586SOL     OW 8255   9.462   8.076   4.355 -0.0440  0.1035  0.2612
 1586SOL    HW1 8256   9.471   8.003   4.293  0.4284  0.4701 -0.1129
 1586SOL    HW2 8257   9.448   8.153   4.300  4.2186  1.1241  0.2301
 1587SOL     OW 8258   5.340   0.879   2.842  0.0948 -0.1967  0.2151
 1587SOL    HW1 8259   5.308   0.789   2.831 -1.7597  0.3044  1.0031
 1587SOL    HW2 8260   5.311   0.924   2.762  2.0022 -0.4999 -0.7065
 1588SOL     OW 8261   5.876   4.990   3.609 -0.3872 -0.3349  0.7451
 1588SOL    HW1 8262   5.924   5.056   3.658  0.2382  0.4013 -0.7804
 1588SOL    HW2 8263   5.940   4.919   3.594  0.5920  0.9475 -1.8903
 1589SOL     OW 8264   1.020  10.273   4.892  0.3238  0.1985 -0.3922
 1589SOL    HW1 8265   0.949  10.331   4.919 -0.7738 -1.0089 -0.6011
 1589SOL    HW2 8266   1.100  10.325   4.906 -0.4808  1.0899  1.1927
 1590SOL     OW 8267   3.016   8.926   1.696 -1.1138  0.0071  0.7605
 1590SOL    HW1 8268   2.922   8.905   1.692 -1.1637  0.3614 -0.8170
 1590SOL    HW2 8269   3.059   8.842   1.709 -1.5952 -0.3576  0.0947
 1591SOL     OW 8270   5.979   5.510   5.488 -0.1490  0.3654  0.4268
 1591SOL    HW1 8271   6.036   5.435   5.503 -0.5756 -0.1318 -0.4190
 1591SOL    HW2 8272   5.896   5.473   5.461 -0.5295  1.1240  0.5257
 1592SOL     OW 8273   0.296  10.033   2.379 -0.0440 -0.2478  0.1779
 1592SOL    HW1 8274   0.339  10.066   2.458  1.0766 -1.1474 -0.0325
 1592SOL    HW2 8275   0.306   9.938   2.383 -3.1439 -0.6285  0.7265
 1593SOL     OW 8276   5.630   7.266   8.234  0.1503 -0.1070 -0.1160
 1593SOL    HW1 8277   5.551   7.213   8.245  0.5601 -0.8236 -0.5381
 1593SOL    HW2 8278   5.698   7.203   8.212  0.5662  0.6401 -1.0328
 1594SOL     OW 8279   2.553   9.453   0.224  0.1523 -0.3083  0.1529
 1594SOL    HW1 8280   2.531   9.427   0.314  0.8228  1.1876  0.7845
 1594SOL    HW2 8281   2.469   9.471   0.183 -0.1143  0.1263  0.8629
 1595SOL     OW 8282   3.503  10.643   3.324 -0.0427  0.2642 -0.0437
 1595SOL    HW1 8283   3.433  10.705   3.341 -1.9640 -1.5225 -0.8994
 1595SOL    HW2 8284   3.521  10.603   3.409 -0.0587  0.7365  0.1821
 1596SOL     OW 8285   2.374   1.849   0.443  0.5741 -0.3620 -0.2588
 1596SOL    HW1 8286   2.345   1.940   0.454  0.2226 -0.6150  0.9742
 1596SOL    HW2 8287   2.422   1.829   0.523  0.5417 -1.3170 -0.4674
 1597SOL     OW 8288   7.938   1.973   4.538  0.4371  0.2313 -0.0131
 1597SOL    HW1 8289   7.907   2.037   4.475 -0.4982 -0.1315  0.0624
 1597SOL    HW2 8290   7.906   2.004   4.623  1.0042  0.2932  0.1854
 1598SOL     OW 8291   2.925   5.555   9.707 -0.0160  0.3157  0.0965
 1598SOL    HW1 8292   2.981   5.484   9.675  1.4611  1.5337 -0.1604
 1598SOL    HW2 8293   2.915   5.614   9.632  0.0004  1.0889  0.6813
 1599SOL     OW 8294   3.975   0.124   1.478 -0.5372 -0.0244 -0.5595
 1599SOL    HW1 8295   3.939   0.057   1.536 -0.3934  0.8501  0.5633
 1599SOL    HW2 8296   4.002   0.076   1.400 -1.5805 -1.0911 -0.2859
 1600SOL     OW 8297   8.244   6.727   2.462  0.0833 -0.7915 -0.0463
 1600SOL    HW1 8298   8.290   6.695   2.540  0.8968  2.1097  0.7715
 1600SOL    HW2 8299   8.161   6.762   2.495  1.0967  1.9120 -0.1235
 1601SOL     OW 8300   1.405  10.742   9.048  0.5576  0.2704  0.2004
 1601SOL    HW1 8301   1.494  10.706   9.053  0.5804  0.0947 -1.1299
 1601SOL    HW2 8302   1.356  10.676   9.000 -0.2280  0.5219  0.6409
 1602SOL     OW 8303   8.836   5.370   7.951 -0.0783  0.4579  0.1619
 1602SOL    HW1 8304   8.905   5.327   7.901  0.0363  0.3129  0.4421
 1602SOL    HW2 8305   8.827   5.456   7.911  1.3397  1.0721  1.0870
 1603SOL     OW 8306   3.203  10.257   2.158 -0.1063 -0.2750  0.4467
 1603SOL    HW1 8307   3.245  10.208   2.087  0.7282  1.0212  0.0188
 1603SOL    HW2 8308   3.241  10.345   2.153 -3.2966  1.1926 -0.3509
 1604SOL     OW 8309   0.764   6.115   1.519  0.5556 -0.0155 -0.4031
 1604SOL    HW1 8310   0.767   6.180   1.590  0.7077 -1.0534  0.5761
 1604SOL    HW2 8311   0.672   6.113   1.493  0.9298  2.4332 -2.2622
 1605SOL     OW 8312   3.372   1.226  10.312 -1.0521 -0.4629  0.0415
 1605SOL    HW1 8313   3.466   1.243  10.323 -0.7072 -0.8576 -1.8360
 1605SOL    HW2 8314   3.330   1.308  10.338 -0.1386 -0.1026  0.4307
 1606SOL     OW 8315   9.862   1.818  10.292  0.4957 -0.1030  0.0127
 1606SOL    HW1 8316   9.834   1.731  10.322 -0.6487  0.2306 -0.0602
 1606SOL    HW2 8317   9.793   1.847  10.233  1.4428  0.3733 -0.9003
 1607SOL     OW 8318   6.528   8.992   4.725 -0.3931  0.2339 -0.3469
 1607SOL    HW1 8319   6.546   9.036   4.808 -0.3245  1.0991 -0.7964
 1607SOL    HW2 8320   6.438   9.018   4.704 -0.6186 -0.4696 -0.2496
 1608SOL     OW 8321   2.788   8.674   4.757 -0.0117 -0.5213  0.1688
 1608SOL    HW1 8322   2.716   8.735   4.769 -1.1997 -1.8837  0.1963
 1608SOL    HW2 8323   2.820   8.692   4.669  0.1559  0.6251  0.4433
 1609SOL     OW 8324   9.012   9.410   2.586 -0.0846 -0.3904  0.1625
 1609SOL    HW1 8325   9.066   9.481   2.552  0.0416 -0.6603 -0.2055
 1609SOL    HW2 8326   9.035   9.405   2.679  3.4902 -3.0273 -0.6496
 1610SOL     OW 8327   8.091   0.557   0.363 -0.0443 -0.0331  0.1718
 1610SOL    HW1 8328   8.160   0.496   0.336  0.9626  0.5219  1.3615
 1610SOL    HW2 8329   8.020   0.501   0.393  0.2977 -0.6205 -0.0859
 1611SOL     OW 8330   1.641   7.427  10.322  0.2114  0.2497 -0.5096
 1611SOL    HW1 8331   1.701   7.400  10.392 -0.0146 -1.7260 -1.0448
 1611SOL    HW2 8332   1.695   7.429  10.243  0.0870  0.8447 -0.5867
 1612SOL     OW 8333   9.731   1.476   4.077 -0.0145 -0.0795  0.3275
 1612SOL    HW1 8334   9.815   1.429   4.074 -0.4585 -0.9337  0.6794
 1612SOL    HW2 8335   9.693   1.449   4.161 -0.3266  0.8606  0.4907
 1613SOL     OW 8336   4.463   8.001   9.739 -0.3284  0.3308 -0.2434
 1613SOL    HW1 8337   4.525   8.002   9.667 -0.4879  0.1606 -0.3829
 1613SOL    HW2 8338   4.399   7.934   9.716 -0.6068  0.5547 -0.1396
 1614SOL     OW 8339   2.373   6.336  10.920 -0.2630  0.3185 -0.2062
 1614SOL    HW1 8340   2.333   6.251  10.907  1.0755 -0.6077  1.3294
 1614SOL    HW2 8341   2.381   6.373  10.831 -0.4142 -1.3524 -0.9474
 1615SOL     OW 8342   1.398   0.051   2.328 -0.3696 -0.1333  0.1472
 1615SOL    HW1 8343   1.398   0.082   2.419 -0.6943 -0.2778  0.1966
 1615SOL    HW2 8344   1.426  -0.040   2.333  0.3426  0.0669  0.0243
 1616SOL     OW 8345  10.935   0.217   0.848 -0.2165  0.4991 -0.0069
 1616SOL    HW1 8346  10.840   0.209   0.835 -0.3084  0.1203  0.7930
 1616SOL    HW2 8347  10.951   0.311   0.854 -1.0822  0.5563  3.2957
 1617SOL     OW 8348   8.130   4.214   2.895 -0.4267  0.1384  0.4238
 1617SOL    HW1 8349   8.087   4.268   2.961 -2.2253 -0.2737 -0.3189
 1617SOL    HW2 8350   8.057   4.175   2.846  0.7880  1.1869 -2.4155
 1618SOL     OW 8351   4.697   8.713   6.915  0.2025 -0.5385  0.4106
 1618SOL    HW1 8352   4.673   8.625   6.945 -1.6834 -0.1342  0.1608
 1618SOL    HW2 8353   4.672   8.715   6.823 -0.3197  0.4389  0.5603
 1619SOL     OW 8354   6.143   3.931   2.100  0.4365 -0.4811 -0.4114
 1619SOL    HW1 8355   6.165   3.965   2.013 -1.8027 -1.5687 -1.4676
 1619SOL    HW2 8356   6.109   3.843   2.085  2.9911 -2.0280  1.9362
 1620SOL     OW 8357   7.137   0.777   4.002 -0.5243  0.6599  0.1347
 1620SOL    HW1 8358   7.050   0.740   4.017  0.0619 -0.7556  0.1558
 1620SOL    HW2 8359   7.172   0.727   3.928  0.8647  0.1661  1.0941
 1621SOL     OW 8360   4.209   0.642   1.552 -0.0635 -0.3557 -0.0488
 1621SOL    HW1 8361   4.169   0.674   1.633  0.5954 -0.5931  0.3764
 1621SOL    HW2 8362   4.187   0.549   1.550  0.4478 -0.4829  0.1770
 1622SOL     OW 8363  10.089   8.877   8.183 -0.0599  0.0315  0.9760
 1622SOL    HW1 8364  10.035   8.839   8.115  0.4120  1.4525 -0.2367
 1622SOL    HW2 8365  10.163   8.817   8.192  0.6876  0.5955 -0.9267
 1623SOL     OW 8366   9.871   2.623   6.403 -0.3202 -0.2501 -0.2199
 1623SOL    HW1 8367   9.932   2.632   6.329 -0.8275  0.6490 -0.5495
 1623SOL    HW2 8368   9.796   2.676   6.378 -1.2425 -1.3276  0.1913
 1624SOL     OW 8369   3.655   7.438   3.787  0.3699  0.0348 -0.3942
 1624SOL    HW1 8370   3.668   7.423   3.881  0.2143  1.0048 -0.2142
 1624SOL    HW2 8371   3.561   7.421   3.774  0.7415 -2.0937 -0.7794
 1625SOL     OW 8372  10.249   4.737   1.971  0.1928 -0.3713 -0.0546
 1625SOL    HW1 8373  10.258   4.825   2.008 -1.0882 -0.0724 -0.4011
 1625SOL    HW2 8374  10.338   4.702   1.970  0.7738  1.0497 -0.2349
 1626SOL     OW 8375   6.758   5.902   1.084  0.4876 -0.6502 -0.1168
 1626SOL    HW1 8376   6.797   5.953   1.155 -0.7408 -0.9947  0.8381
 1626SOL    HW2 8377   6.758   5.961   1.009 -0.3144  0.5391  0.7816
 1627SOL     OW 8378   4.718   2.930   0.989 -0.0800 -0.5694 -0.0372
 1627SOL    HW1 8379   4.699   2.946   1.081 -0.2328 -2.0971  0.2341
 1627SOL    HW2 8380   4.814   2.933   0.983 -0.0758 -0.3610  0.1497
 1628SOL     OW 8381   4.577   8.325   7.083  0.0187 -0.5126 -0.6619
 1628SOL    HW1 8382   4.576   8.338   6.988 -0.6584  0.6848 -0.5232
 1628SOL    HW2 8383   4.511   8.386   7.115  0.5253 -0.6138  0.6159
 1629SOL     OW 8384   2.718   4.912   0.683  0.6336  0.3975 -0.5528
 1629SOL    HW1 8385   2.639   4.967   0.683  1.6366  1.9214  0.1970
 1629SOL    HW2 8386   2.765   4.938   0.604  1.2146  0.8084 -0.0842
 1630SOL     OW 8387   4.406   4.247   7.926  0.0730 -0.0885  0.1959
 1630SOL    HW1 8388   4.406   4.333   7.883  0.6085 -0.7191 -1.1258
 1630SOL    HW2 8389   4.340   4.255   7.994 -1.1432  0.8249 -1.0305
 1631SOL     OW 8390   9.466   8.305   1.034 -0.4155 -0.0963 -0.2484
 1631SOL    HW1 8391   9.491   8.266   0.950 -2.7673 -1.2183 -0.5121
 1631SOL    HW2 8392   9.515   8.254   1.099  0.8257  0.2710 -0.8616
 1632SOL     OW 8393   2.594   4.635   0.584 -0.3876  0.2023  0.3460
 1632SOL    HW1 8394   2.627   4.705   0.640 -0.5529  0.0736  0.6070
 1632SOL    HW2 8395   2.591   4.674   0.496  0.2798  0.2729  0.3458
 1633SOL     OW 8396   5.579  10.338   4.839 -0.4086 -0.4242  1.6392
 1633SOL    HW1 8397   5.656  10.343   4.896  0.9068 -0.0055 -0.0923
 1633SOL    HW2 8398   5.584  10.251   4.799  0.8553  0.6125 -0.6467
 1634SOL     OW 8399  10.850  10.310  10.607 -0.0009  0.5787 -0.7364
 1634SOL    HW1 8400  10.811  10.245  10.548 -0.0087  0.0087 -0.1174
 1634SOL    HW2 8401  10.775  10.349  10.652 -0.0346  1.3837 -1.4610
 1635SOL     OW 8402   3.549   3.840   5.477  0.0431 -0.4321 -0.1440
 1635SOL    HW1 8403   3.613   3.900   5.515 -1.5266  0.1744  1.6889
 1635SOL    HW2 8404   3.584   3.753   5.494  1.9566 -0.1516 -2.1320
 1636SOL     OW 8405   5.143   8.991   6.996  0.0970  0.2167  0.6077
 1636SOL    HW1 8406   5.054   8.977   7.029  0.0105 -0.4441  0.0924
 1636SOL    HW2 8407   5.131   9.039   6.914  0.2789  1.1744  1.1244
 1637SOL     OW 8408   6.773   1.053   7.978  0.5119 -0.0404  0.1734
 1637SOL    HW1 8409   6.713   0.989   7.941  0.3448 -0.5659  1.3048
 1637SOL    HW2 8410   6.846   1.056   7.916  0.2381 -0.8735 -0.2031
 1638SOL     OW 8411   8.542   3.446   3.693 -0.1615 -0.3063 -0.1079
 1638SOL    HW1 8412   8.592   3.524   3.666  0.7055 -0.2905  1.4156
 1638SOL    HW2 8413   8.518   3.403   3.611  2.1374 -0.1567 -0.9308
 1639SOL     OW 8414   6.493   0.980   8.546 -0.7825  0.5198  0.0695
 1639SOL    HW1 8415   6.477   1.029   8.466  0.0861  1.2853  0.3516
 1639SOL    HW2 8416   6.411   0.932   8.562 -0.4861 -0.8124 -2.0402
 1640SOL     OW 8417   5.108  10.535   6.213 -0.0012  0.3685 -0.2394
 1640SOL    HW1 8418   5.081  10.624   6.192 -0.5344  0.0350 -1.0719
 1640SOL    HW2 8419   5.063  10.481   6.147 -1.1785 -0.7024  1.3425
 1641SOL     OW 8420   9.307  10.834   7.362  0.0666  0.9702  0.2829
 1641SOL    HW1 8421   9.352  10.753   7.385 -1.2321  0.0185 -0.4082
 1641SOL    HW2 8422   9.254  10.855   7.439  0.3147  1.1061  0.4178
 1642SOL     OW 8423   2.157   1.168   3.603 -0.2989  0.2189 -0.0948
 1642SOL    HW1 8424   2.097   1.198   3.671  0.6287  2.5925 -0.2363
 1642SOL    HW2 8425   2.242   1.204   3.627  0.6002 -1.0540 -1.1727
 1643SOL     OW 8426   0.310   9.981   6.258  0.2098 -0.4111  0.0214
 1643SOL    HW1 8427   0.366   9.915   6.219 -0.3410 -0.4703 -0.6839
 1643SOL    HW2 8428   0.351  10.001   6.342  0.7121 -1.2033 -0.0298
 1644SOL     OW 8429  10.401   2.076   7.125 -0.0041  0.1169  0.3303
 1644SOL    HW1 8430  10.387   2.104   7.215 -3.0958  0.8142 -0.2570
 1644SOL    HW2 8431  10.455   2.144   7.086  0.3441  0.4193  1.3263
 1645SOL     OW 8432   4.456  10.933   4.231  0.0708 -0.2026 -0.1408
 1645SOL    HW1 8433   4.528  10.971   4.282 -2.2025  2.8742  1.0683
 1645SOL    HW2 8434   4.408  11.009   4.197 -2.6343 -2.0904 -0.8496
 1646SOL     OW 8435   1.502   2.133   8.639 -0.0110 -0.5163  0.4932
 1646SOL    HW1 8436   1.575   2.162   8.585  1.2817 -2.8841  0.8039
 1646SOL    HW2 8437   1.428   2.187   8.612  1.0207 -0.3504 -2.3252
 1647SOL     OW 8438  10.884   4.096   5.412  0.3879  0.7408  0.0011
 1647SOL    HW1 8439  10.871   4.069   5.503  0.0980  2.6852  0.5640
 1647SOL    HW2 8440  10.811   4.057   5.365  1.3596 -1.5735  0.2689
 1648SOL     OW 8441   4.368   3.565   5.458 -0.1760 -0.3214  0.3685
 1648SOL    HW1 8442   4.312   3.501   5.415  0.0587  1.3135 -2.6411
 1648SOL    HW2 8443   4.332   3.650   5.431  3.6128  0.8287 -1.7762
 1649SOL     OW 8444  10.850  10.111   1.944  0.1394 -0.1491  0.7753
 1649SOL    HW1 8445  10.813  10.100   1.857  0.2808  0.8510  0.5768
 1649SOL    HW2 8446  10.825  10.032   1.991  0.8138 -1.1173 -0.4302
 1650SOL     OW 8447   1.167   0.642   0.839  0.1040  0.9434 -0.2823
 1650SOL    HW1 8448   1.250   0.602   0.813 -0.4895  1.2601 -2.8853
 1650SOL    HW2 8449   1.186   0.735   0.846  0.0386  0.9715 -0.4966
 1651SOL     OW 8450   9.558   1.213  10.620  0.1094  0.5758 -1.0092
 1651SOL    HW1 8451   9.470   1.251  10.624  0.4608  1.4782 -1.5171
 1651SOL    HW2 8452   9.608   1.260  10.687  0.3437  0.4365 -1.0845
 1652SOL     OW 8453   2.109   4.638  10.409 -0.2105 -0.4535  0.3434
 1652SOL    HW1 8454   2.041   4.590  10.361 -1.8339  3.2753 -1.4376
 1652SOL    HW2 8455   2.062   4.676  10.484  1.4361 -2.8316  2.7805
 1653SOL     OW 8456   3.641   9.046   8.461  0.7079  0.4702 -0.5342
 1653SOL    HW1 8457   3.666   9.009   8.546 -0.6164  1.4804  0.3249
 1653SOL    HW2 8458   3.634   8.970   8.403  0.5971 -0.3418  0.5188
 1654SOL     OW 8459   4.760   5.141   6.111  0.5664 -0.2537 -0.3460
 1654SOL    HW1 8460   4.751   5.146   6.016 -0.2899  1.5984 -0.2053
 1654SOL    HW2 8461   4.671   5.125   6.143  0.4104  1.4996  0.2251
 1655SOL     OW 8462   9.790   8.761   1.975  0.3547 -1.0204  0.0119
 1655SOL    HW1 8463   9.786   8.687   2.036 -3.2651 -1.6469 -0.7529
 1655SOL    HW2 8464   9.781   8.720   1.889  0.1774  0.1700 -0.5491
 1656SOL     OW 8465  10.822  10.758   4.479  0.4442  0.3467 -0.4530
 1656SOL    HW1 8466  10.914  10.754   4.455  1.2218  2.8791  1.6205
 1656SOL    HW2 8467  10.775  10.761   4.396  2.3049  0.1800 -1.5546
 1657SOL     OW 8468   0.856   0.036   3.692  0.1527 -0.4427  0.4104
 1657SOL    HW1 8469   0.901   0.084   3.623  0.3886  0.3398  1.0835
 1657SOL    HW2 8470   0.910  -0.042   3.706  0.6068 -0.1462  0.3372
 1658SOL     OW 8471   4.331  10.520   2.751  0.0531  0.1477  0.3007
 1658SOL    HW1 8472   4.280  10.574   2.689  1.3814  0.7177 -0.3263
 1658SOL    HW2 8473   4.418  10.559   2.751  0.4017 -0.5582  1.6774
 1659SOL     OW 8474   5.727  10.420   1.092  0.4223 -0.0296  0.2319
 1659SOL    HW1 8475   5.811  10.375   1.083 -0.3506 -1.4364 -0.2129
 1659SOL    HW2 8476   5.677  10.364   1.152 -0.1137  0.9325  0.7052
 1660SOL     OW 8477   7.977   0.474   4.171 -0.0113  0.7360  0.4918
 1660SOL    HW1 8478   8.035   0.534   4.218  0.8448 -0.3245  0.8320
 1660SOL    HW2 8479   7.915   0.444   4.238  0.3692  0.2544  0.6305
 1661SOL     OW 8480  10.611   7.629   0.970  0.2512 -0.5327 -0.0562
 1661SOL    HW1 8481  10.635   7.658   0.882 -1.7893  1.2867 -0.1092
 1661SOL    HW2 8482  10.660   7.548   0.983  0.5677 -0.8982 -2.8772
 1662SOL     OW 8483   1.271   8.608   5.457 -0.3414 -0.6044 -0.6869
 1662SOL    HW1 8484   1.320   8.674   5.409 -1.4238 -0.1454 -1.1758
 1662SOL    HW2 8485   1.230   8.655   5.529 -0.5761 -0.8608 -0.6497
 1663SOL     OW 8486   3.711   3.636  11.008  0.0194 -0.0808 -0.0467
 1663SOL    HW1 8487   3.670   3.558  11.047 -0.8741  1.4752  2.3754
 1663SOL    HW2 8488   3.803   3.630  11.034 -0.6747  1.2493  3.1480
 1664SOL     OW 8489   6.851   8.074   8.873 -0.2469  0.0144  0.7701
 1664SOL    HW1 8490   6.921   8.072   8.807 -2.4180 -1.1586 -1.7052
 1664SOL    HW2 8491   6.816   8.163   8.868  0.5357  0.3746  1.4660
 1665SOL     OW 8492   8.259   2.852   2.137 -1.0223 -0.0131  0.2009
 1665SOL    HW1 8493   8.174   2.840   2.095 -0.3989  0.5576 -1.3196
 1665SOL    HW2 8494   8.301   2.766   2.132 -1.4823 -0.2919  0.9416
 1666SOL     OW 8495   2.160   0.917   5.027  0.3014 -0.3425  0.8481
 1666SOL    HW1 8496   2.219   0.994   5.026 -0.6912  0.6141  3.7252
 1666SOL    HW2 8497   2.115   0.920   4.943  1.5505  1.2042  0.1696
 1667SOL     OW 8498   3.554   0.765   4.661 -0.6246  0.2563  0.5679
 1667SOL    HW1 8499   3.512   0.704   4.601  1.0765 -0.7219  0.3034
 1667SOL    HW2 8500   3.593   0.832   4.603  1.4128 -0.9353  0.4552
 1668SOL     OW 8501   7.944   5.350   7.028 -0.9269 -0.1176 -0.4900
 1668SOL    HW1 8502   7.919   5.439   7.051  0.2462  0.2530 -0.5818
 1668SOL    HW2 8503   8.038   5.346   7.046 -0.9548 -1.3273 -0.5165
 1669SOL     OW 8504   8.858   6.312   0.959 -0.6610 -0.4860  0.5334
 1669SOL    HW1 8505   8.928   6.267   1.007  0.7629 -0.1533 -1.1005
 1669SOL    HW2 8506   8.777   6.274   0.993  0.3831 -2.2962  1.1700
 1670SOL     OW 8507   4.361   9.657  10.551  0.0022 -0.6606 -0.3559
 1670SOL    HW1 8508   4.429   9.695  10.495  1.6535 -2.1146  0.5416
 1670SOL    HW2 8509   4.325   9.732  10.599  0.5398  0.2222 -1.2716
 1671SOL     OW 8510   7.840   3.097   3.862  0.9415 -0.0303 -0.8585
 1671SOL    HW1 8511   7.799   3.184   3.863 -2.3351 -1.4439 -0.4729
 1671SOL    HW2 8512   7.876   3.088   3.950 -0.8594  0.0788 -0.0549
 1672SOL     OW 8513   1.419   4.056   5.687 -0.0760  0.0414  0.3926
 1672SOL    HW1 8514   1.413   4.147   5.659 -1.8179  0.3132  1.4706
 1672SOL    HW2 8515   1.511   4.033   5.674  0.2258  1.6741 -0.6985
 1673SOL     OW 8516   1.858  10.937   0.954 -0.0881  0.8129  0.3547
 1673SOL    HW1 8517   1.851  10.987   0.873  0.2246  1.9935  1.0296
 1673SOL    HW2 8518   1.938  10.970   0.996 -0.5085  0.5884  1.3748
 1674SOL     OW 8519   5.978   7.086   6.313  0.1894  0.6339 -0.2520
 1674SOL    HW1 8520   5.981   7.152   6.383  0.5094  1.0313 -0.6395
 1674SOL    HW2 8521   6.033   7.122   6.243 -1.0939  0.8222 -1.2096
 1675SOL     OW 8522   3.713   5.696   6.227 -0.3334 -0.0600 -0.2906
 1675SOL    HW1 8523   3.630   5.688   6.275 -1.1778 -2.3573 -1.9104
 1675SOL    HW2 8524   3.699   5.768   6.166 -0.3348  0.9246  0.8360
 1676SOL     OW 8525   6.344   5.705   0.593  0.7142 -0.1490  0.9279
 1676SOL    HW1 8526   6.299   5.786   0.615  1.9615  0.7643  0.2168
 1676SOL    HW2 8527   6.389   5.680   0.674 -0.7422 -0.8994  1.5504
 1677SOL     OW 8528   4.530   0.962   6.688  0.0475 -0.1761  1.0053
 1677SOL    HW1 8529   4.607   0.914   6.660 -2.5625 -3.7536 -0.7366
 1677SOL    HW2 8530   4.492   0.997   6.607 -0.8373  0.4320  1.6603
 1678SOL     OW 8531  10.151   9.634   3.491 -0.3831 -0.5773 -0.1288
 1678SOL    HW1 8532  10.183   9.724   3.495  2.0334 -1.3958  1.1041
 1678SOL    HW2 8533  10.188   9.598   3.410 -1.6067 -0.4283 -0.7885
 1679SOL     OW 8534   0.009   7.394   4.964 -0.0716  0.0345  0.6206
 1679SOL    HW1 8535  -0.084   7.377   4.946  0.3289 -1.2204 -0.4032
 1679SOL    HW2 8536   0.043   7.431   4.883  0.3440  0.3929  0.9564
 1680SOL     OW 8537   6.264   4.146   7.560 -0.0270  0.5013  0.3011
 1680SOL    HW1 8538   6.359   4.152   7.550  0.0966  1.0277  1.5572
 1680SOL    HW2 8539   6.229   4.184   7.479  0.8110 -0.1609 -0.3976
 1681SOL     OW 8540   1.622   8.101   8.233  0.2728 -0.2309 -0.3592
 1681SOL    HW1 8541   1.554   8.140   8.287  0.9882  0.4062  0.1034
 1681SOL    HW2 8542   1.654   8.027   8.284 -0.4540 -0.8893 -0.8317
 1682SOL     OW 8543   1.455   8.441   2.137  0.5757  0.0292  0.2562
 1682SOL    HW1 8544   1.493   8.445   2.049 -0.1173  0.7993 -0.0281
 1682SOL    HW2 8545   1.399   8.518   2.142  2.1112  1.1178  2.0994
 1683SOL     OW 8546   2.983  10.855   0.616  0.0357 -0.5510 -0.4082
 1683SOL    HW1 8547   2.891  10.842   0.591  0.2891 -3.1457 -0.2324
 1683SOL    HW2 8548   2.979  10.895   0.702 -0.8648  1.6906 -1.4129
 1684SOL     OW 8549   3.900   7.460   4.962 -0.1886 -0.0120  0.2753
 1684SOL    HW1 8550   3.820   7.509   4.942  0.1666  0.4206 -0.1157
 1684SOL    HW2 8551   3.875   7.401   5.033 -0.5380  0.9597  0.9721
 1685SOL     OW 8552   0.747   7.689   5.270  0.0388 -0.3046 -0.3801
 1685SOL    HW1 8553   0.818   7.627   5.285  0.6867  0.0380 -1.9085
 1685SOL    HW2 8554   0.790   7.768   5.237 -0.9674  0.2196 -0.4827
 1686SOL     OW 8555   2.152   2.880   0.530 -0.4050 -0.0023  0.1973
 1686SOL    HW1 8556   2.149   2.966   0.487 -2.3073  0.2631  0.7496
 1686SOL    HW2 8557   2.133   2.818   0.459  0.8770  0.0030 -0.1837
 1687SOL     OW 8558   2.546   2.300   7.055 -0.0786  0.1792 -0.0829
 1687SOL    HW1 8559   2.627   2.250   7.061  1.4883  2.6727  0.8249
 1687SOL    HW2 8560   2.544   2.331   6.964  0.0164  0.1623 -0.0909
 1688SOL     OW 8561   4.282   1.912   1.704  0.1799  0.4229  0.4762
 1688SOL    HW1 8562   4.323   1.996   1.725  1.9639  0.4395 -2.4692
 1688SOL    HW2 8563   4.353   1.848   1.715 -1.0715 -0.7353  2.3658
 1689SOL     OW 8564   7.625   8.305   5.008 -0.0256 -0.6562  0.3678
 1689SOL    HW1 8565   7.712   8.289   4.970  0.7385  1.6425  0.9861
 1689SOL    HW2 8566   7.603   8.224   5.052  1.4278 -1.5836 -0.5094
 1690SOL     OW 8567   3.631   0.667   8.947 -0.4197 -0.3192  0.5498
 1690SOL    HW1 8568   3.623   0.753   8.906  1.0047 -0.7593 -0.7320
 1690SOL    HW2 8569   3.688   0.680   9.022 -0.1589 -0.1656  0.3226
 1691SOL     OW 8570   3.487   3.919   1.803  0.3499  0.5210  0.0955
 1691SOL    HW1 8571   3.451   3.931   1.715 -1.7211 -0.0789  0.8030
 1691SOL    HW2 8572   3.509   3.826   1.807 -0.9996  0.2072  0.6833
 1692SOL     OW 8573   6.489  10.092   2.664 -0.1131 -0.1512  0.2438
 1692SOL    HW1 8574   6.505  10.102   2.570 -0.2429 -0.3838  0.1974
 1692SOL    HW2 8575   6.433  10.016   2.671  0.8156 -0.8265  0.5990
 1693SOL     OW 8576   3.019   1.052   9.907  0.0531 -0.7633  0.3190
 1693SOL    HW1 8577   2.928   1.028   9.923 -0.3772 -0.3203 -1.2886
 1693SOL    HW2 8578   3.034   1.030   9.815  1.3893 -0.2943  0.4045
 1694SOL     OW 8579   4.109   3.527   9.918  0.3433  0.1469 -0.2188
 1694SOL    HW1 8580   4.088   3.596   9.855  0.8609  0.1122 -0.4370
 1694SOL    HW2 8581   4.201   3.543   9.941  0.8673 -1.2145 -1.2441
 1695SOL     OW 8582   3.859   8.094  10.701  0.2887 -0.1974 -0.0608
 1695SOL    HW1 8583   3.776   8.047  10.697  1.0748 -1.5590 -1.4074
 1695SOL    HW2 8584   3.923   8.035  10.661  1.6204  1.4103 -0.4559
 1696SOL     OW 8585   9.925   3.105  10.580 -0.0837  0.0178  0.4192
 1696SOL    HW1 8586   9.961   3.018  10.561 -0.2948  0.0620 -0.2171
 1696SOL    HW2 8587  10.001   3.163  10.578  0.0182 -0.1099  0.5543
 1697SOL     OW 8588   7.931   1.463   3.027 -0.3346  0.5705  0.1180
 1697SOL    HW1 8589   8.013   1.418   3.009 -0.3113 -0.1755  1.8493
 1697SOL    HW2 8590   7.880   1.457   2.946  0.2583 -1.2943 -0.1496
 1698SOL     OW 8591   7.527   2.970   2.222 -0.3984  0.2941 -0.4878
 1698SOL    HW1 8592   7.439   2.934   2.228 -0.7097  0.8724 -1.3955
 1698SOL    HW2 8593   7.585   2.895   2.236 -1.0355 -0.4628 -1.7240
 1699SOL     OW 8594   4.194   6.965   6.899 -0.3304  0.5431 -0.6239
 1699SOL    HW1 8595   4.144   6.887   6.924  0.3474 -0.4218 -2.1061
 1699SOL    HW2 8596   4.128   7.027   6.869 -0.8784  0.5439  0.5496
 1700SOL     OW 8597   1.195   4.466   4.479 -0.8702 -0.3610  0.4467
 1700SOL    HW1 8598   1.104   4.494   4.488 -0.5587  1.1070 -0.6128
 1700SOL    HW2 8599   1.231   4.473   4.567 -1.4297  0.3980  0.6295
 1701SOL     OW 8600   4.528   4.192  10.879  0.1483 -0.0028  0.6482
 1701SOL    HW1 8601   4.613   4.151  10.891 -0.6392 -2.6127 -1.6066
 1701SOL    HW2 8602   4.511   4.185  10.785 -2.4479  0.6257  0.9861
 1702SOL     OW 8603  10.399   5.843   3.838  0.0431  0.5458 -0.3238
 1702SOL    HW1 8604  10.460   5.898   3.789 -1.2406 -0.9069 -3.9295
 1702SOL    HW2 8605  10.453   5.772   3.873  1.0819  1.8873  0.8955
 1703SOL     OW 8606   2.313   8.692   3.604 -0.3916 -0.2280  0.1036
 1703SOL    HW1 8607   2.372   8.634   3.557 -0.2507  0.8937 -1.1736
 1703SOL    HW2 8608   2.238   8.636   3.627 -0.3746 -0.8736 -1.3018
 1704SOL     OW 8609   2.371   9.709   3.322 -0.3099 -0.1788  0.5382
 1704SOL    HW1 8610   2.338   9.666   3.243  0.3182  1.9624 -0.9729
 1704SOL    HW2 8611   2.346   9.650   3.393 -3.6642 -0.7302 -0.8856
 1705SOL     OW 8612  10.918   1.502   8.209 -0.4034 -0.4973 -0.3838
 1705SOL    HW1 8613  10.853   1.557   8.252 -0.0786  0.0196 -0.5323
 1705SOL    HW2 8614  10.989   1.495   8.273 -0.0753 -0.0222 -0.6837
 1706SOL     OW 8615   3.813   9.261   0.544 -0.2857 -0.2293  0.2829
 1706SOL    HW1 8616   3.891   9.284   0.594  0.2306  1.2343 -1.0997
 1706SOL    HW2 8617   3.752   9.226   0.609  0.9767 -0.0341  1.6273
 1707SOL     OW 8618  10.985   1.453   2.215  0.1076  0.6485 -0.7437
 1707SOL    HW1 8619  10.999   1.406   2.133  1.2354 -1.9237  0.7938
 1707SOL    HW2 8620  10.891   1.442   2.233  0.3845 -1.3923 -0.2930
 1708SOL     OW 8621   5.593   4.586   6.152 -0.3695  0.0847  0.0516
 1708SOL    HW1 8622   5.576   4.514   6.213 -1.5354 -1.3194 -1.8108
 1708SOL    HW2 8623   5.515   4.641   6.157 -0.1536  0.3652  0.3449
 1709SOL     OW 8624   2.106   7.234   0.931 -0.2619 -0.0609 -0.2531
 1709SOL    HW1 8625   2.173   7.165   0.929 -0.8453 -0.6290 -0.4549
 1709SOL    HW2 8626   2.147   7.307   0.884 -0.1059 -0.7146 -1.1731
 1710SOL     OW 8627   9.855   6.071   4.451 -0.0266  0.1139  0.3866
 1710SOL    HW1 8628   9.804   6.121   4.387  0.5089  0.7967  0.4779
 1710SOL    HW2 8629   9.909   6.012   4.399  0.0880  0.3583  0.2295
 1711SOL     OW 8630   5.882   4.045   2.051  0.7909 -0.6499 -0.2324
 1711SOL    HW1 8631   5.870   4.118   2.111 -1.8640 -1.5097  0.4058
 1711SOL    HW2 8632   5.969   4.011   2.071  0.4999 -0.0989  2.2258
 1712SOL     OW 8633   6.740   1.157   4.182  0.2483  0.1224 -0.5909
 1712SOL    HW1 8634   6.797   1.230   4.204 -2.6509  2.1013  0.9431
 1712SOL    HW2 8635   6.739   1.103   4.261 -0.1429  0.2090 -0.5351
 1713SOL     OW 8636   8.512   2.457   6.858 -0.4853  0.1910 -0.9639
 1713SOL    HW1 8637   8.484   2.410   6.780 -2.9656 -1.6358  0.8412
 1713SOL    HW2 8638   8.582   2.403   6.895 -1.7291 -0.9155 -0.1354
 1714SOL     OW 8639   3.540   7.608   3.348  0.2965  0.1901  0.1646
 1714SOL    HW1 8640   3.496   7.546   3.289  0.0056  0.7794 -0.2472
 1714SOL    HW2 8641   3.596   7.553   3.403  0.6760 -0.3697 -0.7532
 1715SOL     OW 8642   0.080   0.824   2.661  0.5049  0.3863 -0.1179
 1715SOL    HW1 8643   0.148   0.890   2.653  0.1881  0.5499 -2.0083
 1715SOL    HW2 8644   0.127   0.744   2.684  1.1577  0.7934 -0.0140
 1716SOL     OW 8645   4.476   4.482   3.600 -0.4127  0.0494 -0.2534
 1716SOL    HW1 8646   4.428   4.503   3.680  0.6681  0.0319  0.4274
 1716SOL    HW2 8647   4.408   4.464   3.535 -1.3165  0.5384  0.5277
 1717SOL     OW 8648   1.925  10.492   5.562 -0.4105  0.0505 -0.4712
 1717SOL    HW1 8649   1.902  10.407   5.598  0.5781 -0.1866 -0.3875
 1717SOL    HW2 8650   1.983  10.472   5.488  2.1992  0.6975  1.2690
 1718SOL     OW 8651   0.676   2.222   4.886  0.6476 -0.0192 -0.5221
 1718SOL    HW1 8652   0.733   2.287   4.845  0.3355  0.9632  0.5725
 1718SOL    HW2 8653   0.719   2.138   4.867  2.3159  0.6633  0.0375
 1719SOL     OW 8654   4.733   8.070   3.744  0.0383 -0.3779 -0.5057
 1719SOL    HW1 8655   4.752   8.066   3.650  1.5441  1.0613 -0.3109
 1719SOL    HW2 8656   4.728   7.979   3.772 -4.5040 -1.0824 -2.6319
 1720SOL     OW 8657   6.490   7.607   7.827 -0.5698  0.0363 -0.0033
 1720SOL    HW1 8658   6.580   7.638   7.835 -1.0369  1.2880  0.6539
 1720SOL    HW2 8659   6.482   7.578   7.736 -0.0805  1.8033 -0.6340
 1721SOL     OW 8660   5.063   4.072   5.716 -0.3668  0.0042  0.0338
 1721SOL    HW1 8661   5.093   4.157   5.751  3.1982 -1.2505  0.5098
 1721SOL    HW2 8662   5.090   4.074   5.624 -2.6270  0.2747 -0.6865
 1722SOL     OW 8663   1.120   6.343   3.835 -0.6533  0.0769  0.8304
 1722SOL    HW1 8664   1.211   6.366   3.854 -0.0276 -0.7833 -0.9012
 1722SOL    HW2 8665   1.074   6.427   3.829  0.3571  0.6059  0.2600
 1723SOL     OW 8666   0.465   2.802   6.940 -0.2493  0.0236  0.3889
 1723SOL    HW1 8667   0.477   2.877   6.998  1.4104  1.4391 -1.6264
 1723SOL    HW2 8668   0.416   2.837   6.865 -1.0464 -1.3658  0.2299
 1724SOL     OW 8669  10.269  10.188   1.659  0.4307 -0.1397 -0.3543
 1724SOL    HW1 8670  10.320  10.192   1.578 -0.3918  1.2018 -0.8318
 1724SOL    HW2 8671  10.232  10.275   1.668 -0.4514 -0.6191  0.8502
 1725SOL     OW 8672   7.337   8.712   3.628 -0.4536  0.0408  0.5313
 1725SOL    HW1 8673   7.248   8.744   3.612  0.3012  1.2943 -1.5189
 1725SOL    HW2 8674   7.385   8.789   3.659 -0.2617 -0.8565  2.6139
 1726SOL     OW 8675   7.767   3.328   9.253 -0.3243 -0.7740  0.0161
 1726SOL    HW1 8676   7.734   3.383   9.182 -0.0380 -1.8135 -0.9569
 1726SOL    HW2 8677   7.702   3.258   9.261 -0.9703 -0.0244  1.6153
 1727SOL     OW 8678   7.888   1.452   8.058 -0.2092  0.2363 -0.5127
 1727SOL    HW1 8679   7.925   1.461   7.970  1.4445 -0.1865  0.0884
 1727SOL    HW2 8680   7.899   1.539   8.098 -0.6596  0.3396 -0.6070
 1728SOL     OW 8681   1.671   7.021   4.303 -0.3754  0.3851 -0.1608
 1728SOL    HW1 8682   1.695   7.081   4.233 -0.2874  1.5605  0.8367
 1728SOL    HW2 8683   1.645   7.078   4.375  0.1970 -0.7614  0.9972
 1729SOL     OW 8684   3.092   6.874   1.553 -0.1062 -0.3859 -0.4245
 1729SOL    HW1 8685   3.069   6.949   1.609 -1.3132 -0.8616 -0.2482
 1729SOL    HW2 8686   3.165   6.832   1.599 -1.2131 -0.8880  0.9314
 1730SOL     OW 8687   3.600  10.755   1.713  0.0274 -0.0650  0.7023
 1730SOL    HW1 8688   3.670  10.712   1.663 -0.3415 -0.0006  0.1204
 1730SOL    HW2 8689   3.638  10.769   1.799  0.9451  0.4915  0.2297
 1731SOL     OW 8690   7.677   1.114   7.860  0.0562 -0.5388 -0.4308
 1731SOL    HW1 8691   7.710   1.146   7.944 -2.1145 -1.1324  0.7464
 1731SOL    HW2 8692   7.676   1.191   7.804  0.2100  0.2070  0.5614
 1732SOL     OW 8693   7.427   4.968   7.116  0.1142  0.4279 -0.0702
 1732SOL    HW1 8694   7.358   4.905   7.093  0.7182 -0.1269 -0.3814
 1732SOL    HW2 8695   7.397   5.051   7.079  0.7164 -0.2757 -2.2974
 1733SOL     OW 8696   9.403   7.112   3.860  0.5323  0.0875 -0.6634
 1733SOL    HW1 8697   9.406   7.028   3.907  0.0085 -0.7871 -2.1202
 1733SOL    HW2 8698   9.494   7.130   3.838  0.9572  1.1120  1.6083
 1734SOL     OW 8699   9.990   0.741   7.178 -0.1529 -0.0432 -0.1916
 1734SOL    HW1 8700  10.038   0.752   7.260  0.6551 -0.6597 -0.5713
 1734SOL    HW2 8701  10.039   0.674   7.130 -0.5983  0.3256 -1.1911
 1735SOL     OW 8702   6.492   6.444   1.209  0.3700  0.0622  0.2126
 1735SOL    HW1 8703   6.467   6.464   1.299 -1.2508 -2.0337  0.3156
 1735SOL    HW2 8704   6.548   6.367   1.216 -1.0098 -1.0676 -0.6008
 1736SOL     OW 8705   7.202   5.327  10.659  0.6613  0.0544  0.0475
 1736SOL    HW1 8706   7.249   5.308  10.740  0.2915 -0.2176  0.1981
 1736SOL    HW2 8707   7.205   5.422  10.651  0.4194  0.1029  0.5457
 1737SOL     OW 8708   8.745   7.209   9.261 -0.5551  0.3218  0.3265
 1737SOL    HW1 8709   8.714   7.146   9.196 -1.3555 -1.4364  2.2989
 1737SOL    HW2 8710   8.731   7.294   9.220 -1.1305 -0.7029 -1.7305
 1738SOL     OW 8711   8.549   6.595   7.303 -0.1660 -0.7139 -0.2713
 1738SOL    HW1 8712   8.492   6.671   7.293 -2.0167 -2.0588 -0.6269
 1738SOL    HW2 8713   8.557   6.584   7.398  2.1584  1.2781 -0.1374
 1739SOL     OW 8714   1.207   0.051   8.879  0.0258 -0.5097  0.1888
 1739SOL    HW1 8715   1.129   0.007   8.914 -0.2252  0.0686  0.3721
 1739SOL    HW2 8716   1.180   0.142   8.870  1.0973 -0.0370  1.4893
 1740SOL     OW 8717   2.284   4.393  10.781  0.1296 -0.3345  0.2196
 1740SOL    HW1 8718   2.323   4.377  10.695 -0.5627  0.0505 -0.1803
 1740SOL    HW2 8719   2.227   4.468  10.767 -0.7214 -0.8578  0.7794
 1741SOL     OW 8720   9.320   4.527   3.549  0.2140  0.1540  0.1790
 1741SOL    HW1 8721   9.275   4.442   3.552  1.1245 -0.3450  0.3714
 1741SOL    HW2 8722   9.250   4.592   3.551 -0.5059 -0.5939 -0.0114
 1742SOL     OW 8723   2.484  10.424   1.594  0.1778  0.5710  0.3705
 1742SOL    HW1 8724   2.573  10.401   1.567 -1.1593 -3.0476 -1.6924
 1742SOL    HW2 8725   2.471  10.513   1.562  2.7091  0.8184 -0.1715
 1743SOL     OW 8726   6.771   7.858  10.093  0.5041 -0.2927 -0.3997
 1743SOL    HW1 8727   6.767   7.908  10.174 -0.7383 -0.9086 -0.0483
 1743SOL    HW2 8728   6.680   7.836  10.074  0.8756 -1.0598 -1.3860
 1744SOL     OW 8729   1.731   0.111   4.476  0.2478  0.0266 -0.4657
 1744SOL    HW1 8730   1.681   0.159   4.410  0.0714  0.4745 -0.0109
 1744SOL    HW2 8731   1.770   0.180   4.531 -0.8056 -0.3534  0.7980
 1745SOL     OW 8732   7.807   3.223   2.837  0.5816 -0.2661  0.5544
 1745SOL    HW1 8733   7.894   3.222   2.875  0.5340  1.4775  0.8011
 1745SOL    HW2 8734   7.749   3.247   2.909  0.0707 -0.1539  0.1151
 1746SOL     OW 8735   4.928   4.011   9.786  0.1669  0.2142  0.1935
 1746SOL    HW1 8736   4.959   4.062   9.861  0.6216  2.5008 -1.4183
 1746SOL    HW2 8737   4.834   4.004   9.799  0.1106  1.3531  0.5870
 1747SOL     OW 8738   3.624   9.876   7.868 -0.2217 -0.1872 -0.7430
 1747SOL    HW1 8739   3.702   9.833   7.903 -0.9242 -0.8646  0.0019
 1747SOL    HW2 8740   3.578   9.808   7.820 -1.9156 -0.6214  1.3608
 1748SOL     OW 8741   4.861   8.543   4.141  0.4299 -0.6796  0.0469
 1748SOL    HW1 8742   4.822   8.627   4.166  0.1240 -0.8389  0.1192
 1748SOL    HW2 8743   4.786   8.489   4.115  0.5264 -1.2141  0.8333
 1749SOL     OW 8744   2.148   1.067   9.981  0.2735 -0.5715 -0.5391
 1749SOL    HW1 8745   2.119   1.157   9.966  3.9277  0.7107 -0.9442
 1749SOL    HW2 8746   2.067   1.016   9.985 -2.1406  2.9660  1.8472
 1750SOL     OW 8747   5.704   8.592   6.079  0.0043  0.8635 -0.4362
 1750SOL    HW1 8748   5.621   8.545   6.082  1.0434 -1.0820 -0.2303
 1750SOL    HW2 8749   5.764   8.538   6.131  0.8360  3.4354  1.4842
 1751SOL     OW 8750   2.173   1.698   8.633 -0.1000  0.1045 -0.2716
 1751SOL    HW1 8751   2.262   1.668   8.652 -0.9595 -1.5552  1.4779
 1751SOL    HW2 8752   2.118   1.621   8.648 -1.8304  1.0018 -1.6104
 1752SOL     OW 8753   0.144   3.200   9.531 -0.0157 -0.5321  0.5873
 1752SOL    HW1 8754   0.110   3.277   9.485 -0.0388 -0.5360  0.5979
 1752SOL    HW2 8755   0.082   3.131   9.512 -0.2924 -0.4081  1.0244
 1753SOL     OW 8756   0.090   7.299   4.130 -0.1915  0.6261  0.2110
 1753SOL    HW1 8757   0.071   7.261   4.044 -1.0675 -0.5047  0.8713
 1753SOL    HW2 8758   0.124   7.225   4.181  2.9963  1.8387  0.0813
 1754SOL     OW 8759   0.865   2.809   2.752 -0.3632  0.3621 -0.9979
 1754SOL    HW1 8760   0.952   2.812   2.790 -0.5249  1.3143 -0.6765
 1754SOL    HW2 8761   0.806   2.831   2.824 -0.8252  0.2531 -1.3372
 1755SOL     OW 8762   1.821   8.563   3.608 -0.5919  0.3615 -0.0556
 1755SOL    HW1 8763   1.804   8.496   3.674 -1.6355  0.4597 -0.2218
 1755SOL    HW2 8764   1.814   8.646   3.656 -1.0634  0.4198 -0.2220
 1756SOL     OW 8765   2.919   3.394   1.592  0.0680 -0.2576 -0.0358
 1756SOL    HW1 8766   2.853   3.433   1.535 -2.3331 -2.7391  0.8695
 1756SOL    HW2 8767   2.902   3.433   1.678 -0.9774 -1.6518  0.4212
 1757SOL     OW 8768   0.327   2.292   8.176 -0.2522 -0.0706 -0.6395
 1757SOL    HW1 8769   0.392   2.232   8.141  1.3363  0.8343  0.6348
 1757SOL    HW2 8770   0.318   2.267   8.268 -1.2847  0.2031 -0.6504
 1758SOL     OW 8771   5.535   5.302   8.269 -0.2047  0.3939 -0.0701
 1758SOL    HW1 8772   5.440   5.297   8.259 -0.5387  0.2786  2.4737
 1758SOL    HW2 8773   5.552   5.262   8.354  2.1701  0.1798 -0.5890
 1759SOL     OW 8774   8.462   0.384   8.918  0.1706  0.1777  0.4317
 1759SOL    HW1 8775   8.443   0.382   8.824  1.2520  0.4676  0.1946
 1759SOL    HW2 8776   8.488   0.474   8.936  1.3207 -0.1875  0.7159
 1760SOL     OW 8777   7.052   2.130   7.672  0.7595  0.1153  0.8896
 1760SOL    HW1 8778   7.020   2.204   7.723  0.6888  0.1047  0.8612
 1760SOL    HW2 8779   6.981   2.110   7.611  1.2440  0.7605  0.0970
 1761SOL     OW 8780   3.885   0.811  10.683 -0.7518 -0.1638  0.1463
 1761SOL    HW1 8781   3.933   0.829  10.763  0.3223 -0.2298 -0.4580
 1761SOL    HW2 8782   3.925   0.730  10.649  0.8052  1.3648 -1.9103
 1762SOL     OW 8783   2.943  10.233   4.269 -0.0524 -0.2663  0.1575
 1762SOL    HW1 8784   2.869  10.280   4.229  0.7047  0.6709 -0.1758
 1762SOL    HW2 8785   2.902  10.160   4.316 -1.1037 -0.3490 -0.8464
 1763SOL     OW 8786   3.842   5.732   9.656 -0.1191  0.3559 -0.7031
 1763SOL    HW1 8787   3.862   5.638   9.651 -1.5095  0.0903 -1.8138
 1763SOL    HW2 8788   3.921   5.775   9.622  0.6897 -0.3679  0.1930
 1764SOL     OW 8789   1.023   4.391   6.713  0.3017 -0.1733  0.0024
 1764SOL    HW1 8790   1.056   4.303   6.698 -0.2624 -0.8711  2.3465
 1764SOL    HW2 8791   1.033   4.404   6.808 -1.6773  1.3970  0.0615
 1765SOL     OW 8792   8.587   4.394   2.123 -0.1251 -0.0081  0.2539
 1765SOL    HW1 8793   8.601   4.467   2.063  0.0924 -0.6954 -0.5432
 1765SOL    HW2 8794   8.647   4.325   2.092 -0.3676 -0.5512  0.9539
 1766SOL     OW 8795   8.698   5.683   8.717  0.4623 -0.4369  0.0019
 1766SOL    HW1 8796   8.695   5.604   8.664 -1.5961 -0.6784  0.4101
 1766SOL    HW2 8797   8.618   5.731   8.694  1.7508  1.6499 -0.4024
 1767SOL     OW 8798   6.637   1.958   6.111  0.6919 -0.2009 -0.1474
 1767SOL    HW1 8799   6.609   1.877   6.070 -3.5170  1.0928 -0.3536
 1767SOL    HW2 8800   6.655   1.934   6.202 -4.3948 -1.0621  0.9413
 1768SOL     OW 8801   3.703   9.487   5.748  0.1242  0.7645  0.1949
 1768SOL    HW1 8802   3.792   9.520   5.757 -0.3131  2.0785 -0.1096
 1768SOL    HW2 8803   3.647   9.564   5.761 -0.9767 -0.0650  0.5418
 1769SOL     OW 8804  10.796   9.897   6.675 -0.6581 -0.3379 -0.3346
 1769SOL    HW1 8805  10.749   9.865   6.598  0.7002  0.5435 -1.5622
 1769SOL    HW2 8806  10.768   9.989   6.684 -0.6860 -0.3876  0.1541
 1770SOL     OW 8807  10.056   1.392   9.425 -0.2921 -0.3100 -0.1323
 1770SOL    HW1 8808  10.061   1.439   9.342  1.2143 -0.2452 -0.0251
 1770SOL    HW2 8809  10.123   1.433   9.480 -1.2897 -0.3175  1.1462
 1771SOL     OW 8810   1.454   8.732   5.309 -0.2548  0.2315  0.5868
 1771SOL    HW1 8811   1.475   8.640   5.320  0.6276  0.1762 -1.2590
 1771SOL    HW2 8812   1.434   8.742   5.216 -1.4214  1.6981  0.9590
 1772SOL     OW 8813   5.069   3.385   3.345  0.4649  0.1334 -0.8731
 1772SOL    HW1 8814   5.064   3.293   3.319  1.2406 -0.3464  0.5498
 1772SOL    HW2 8815   5.162   3.406   3.338  0.4442  0.4769 -0.1568
 1773SOL     OW 8816   6.855   1.958  10.366 -0.3769 -0.0465 -0.0829
 1773SOL    HW1 8817   6.791   1.958  10.295 -0.8592 -1.8346  0.3111
 1773SOL    HW2 8818   6.843   1.874  10.410  0.0668  0.8897  1.9824
 1774SOL     OW 8819   7.858   0.587   6.068  0.6165 -0.4218 -0.8451
 1774SOL    HW1 8820   7.886   0.665   6.115  1.9400 -1.7739  0.7488
 1774SOL    HW2 8821   7.818   0.531   6.135  0.8309 -1.6211 -1.6796
 1775SOL     OW 8822   0.091   6.452   1.987 -0.3846  0.0137 -0.0259
 1775SOL    HW1 8823   0.168   6.469   2.042 -1.8778 -0.7266  2.4031
 1775SOL    HW2 8824   0.076   6.535   1.941  3.0566 -0.4057 -2.3074
 1776SOL     OW 8825   3.341   9.541   4.582 -0.3436  0.0211 -0.0021
 1776SOL    HW1 8826   3.279   9.594   4.632  1.2182 -0.0371  2.1492
 1776SOL    HW2 8827   3.374   9.478   4.645  0.4847 -1.2185 -1.6005
 1777SOL     OW 8828   2.213   8.735   9.217 -0.2909  0.0692  0.9189
 1777SOL    HW1 8829   2.147   8.717   9.149  0.1338  0.2694  0.4533
 1777SOL    HW2 8830   2.222   8.652   9.263 -0.4885 -0.1041  0.6515
 1778SOL     OW 8831   0.177   5.487   7.063  0.1452  0.5285  0.0645
 1778SOL    HW1 8832   0.134   5.420   7.009 -0.2020 -0.5778  1.6291
 1778SOL    HW2 8833   0.158   5.570   7.019 -2.0329 -0.1110 -0.3111
 1779SOL     OW 8834   0.642   6.585   8.371  0.2098  0.1535 -0.0120
 1779SOL    HW1 8835   0.640   6.509   8.313  1.2931  2.1596 -2.9041
 1779SOL    HW2 8836   0.551   6.612   8.378  0.0870  0.1196 -1.2049
 1780SOL     OW 8837   5.568   1.381   8.137 -0.1387 -0.2027  0.1272
 1780SOL    HW1 8838   5.652   1.413   8.103 -0.4227  0.4227 -0.0019
 1780SOL    HW2 8839   5.509   1.384   8.062 -0.5091  0.2190  0.4302
 1781SOL     OW 8840   9.566   2.324   3.580  0.1037 -0.1936  0.3330
 1781SOL    HW1 8841   9.550   2.231   3.563 -0.3644  0.3675 -2.9315
 1781SOL    HW2 8842   9.523   2.341   3.664 -2.7362 -2.2344 -0.5735
 1782SOL     OW 8843   9.403   4.036   6.562  0.0608 -0.1745  0.4777
 1782SOL    HW1 8844   9.395   4.104   6.496 -0.0696 -1.1687 -0.5514
 1782SOL    HW2 8845   9.330   3.977   6.546 -0.6130  0.1177  2.2001
 1783SOL     OW 8846   8.222   0.153   5.739 -0.3042 -0.5476 -0.6321
 1783SOL    HW1 8847   8.161   0.227   5.737 -1.3536 -1.0568  3.2162
 1783SOL    HW2 8848   8.306   0.190   5.711 -1.7448  0.8129 -3.5230
 1784SOL     OW 8849   0.552   0.419   5.654  0.4480  0.0572 -0.0178
 1784SOL    HW1 8850   0.514   0.503   5.627 -0.9202 -0.4371  0.3032
 1784SOL    HW2 8851   0.483   0.377   5.705  1.5703 -0.7365  0.8782
 1785SOL     OW 8852   0.781   6.798   6.008 -0.3042 -0.0732 -0.1922
 1785SOL    HW1 8853   0.824   6.853   6.074  0.4219 -0.4794 -0.3272
 1785SOL    HW2 8854   0.818   6.827   5.925 -1.8004  1.0001 -0.5373
 1786SOL     OW 8855   9.614   8.291   1.894 -0.0655  0.9397 -0.6388
 1786SOL    HW1 8856   9.635   8.198   1.893  2.7463  1.4650 -0.7898
 1786SOL    HW2 8857   9.624   8.319   1.803 -0.8022  1.4098 -0.5837
 1787SOL     OW 8858   0.957   8.994  10.221 -0.4484  0.3450 -0.0352
 1787SOL    HW1 8859   0.964   8.907  10.181 -1.1137 -0.1583  0.9126
 1787SOL    HW2 8860   0.892   9.040  10.166 -0.6913 -0.0320 -0.0673
 1788SOL     OW 8861   9.377   5.294   8.733 -0.2624 -0.8367  0.4300
 1788SOL    HW1 8862   9.471   5.304   8.714  0.0139 -2.2334  0.9021
 1788SOL    HW2 8863   9.361   5.200   8.723 -1.8389 -0.4939 -0.5478
 1789SOL     OW 8864   7.364   6.166   2.850 -0.0475  0.6376  0.2078
 1789SOL    HW1 8865   7.352   6.219   2.771 -0.0445 -0.7964 -0.8076
 1789SOL    HW2 8866   7.285   6.180   2.901 -0.5632  0.7174 -0.5933
 1790SOL     OW 8867   6.068   6.941   5.259 -0.1768 -0.1164 -0.3610
 1790SOL    HW1 8868   6.137   6.989   5.305  0.7190 -0.6464 -1.1195
 1790SOL    HW2 8869   6.046   6.996   5.185 -1.3921  0.5838  0.4846
 1791SOL     OW 8870   4.644   3.492   4.479  0.0367  0.1106 -0.1062
 1791SOL    HW1 8871   4.690   3.576   4.479  1.5093 -0.6461  0.6025
 1791SOL    HW2 8872   4.714   3.428   4.494 -1.0020 -1.2676 -0.9852
 1792SOL     OW 8873   3.205   3.940   6.279 -0.0305  0.4795 -0.2823
 1792SOL    HW1 8874   3.239   3.980   6.199  1.4547  0.5209  0.3281
 1792SOL    HW2 8875   3.191   4.014   6.338 -0.5035  0.3878 -0.2742
 1793SOL     OW 8876   4.128   6.410   0.955 -0.2099  0.2688  0.6538
 1793SOL    HW1 8877   4.176   6.478   1.003  0.7027 -0.2307  0.4698
 1793SOL    HW2 8878   4.094   6.455   0.877  3.1526 -0.1174 -1.2189
 1794SOL     OW 8879   8.755   0.657   4.587  0.0072 -0.4467  0.7778
 1794SOL    HW1 8880   8.747   0.745   4.624  2.8278 -0.7044  2.2701
 1794SOL    HW2 8881   8.729   0.599   4.658 -2.0270 -0.8955 -0.2603
 1795SOL     OW 8882   4.836   1.790   2.358 -0.6248  0.5445  0.2762
 1795SOL    HW1 8883   4.780   1.749   2.292 -1.8593  0.8404  1.0923
 1795SOL    HW2 8884   4.915   1.816   2.311 -1.3534  0.5017 -1.0123
 1796SOL     OW 8885   1.716   0.644  10.936 -0.5630  0.0001  0.1185
 1796SOL    HW1 8886   1.768   0.588  10.878  0.0438  1.3977 -0.7528
 1796SOL    HW2 8887   1.661   0.583  10.986  0.8993 -1.4364  0.0681
 1797SOL     OW 8888   8.763   2.065   3.379 -0.1745 -0.6833 -0.0587
 1797SOL    HW1 8889   8.844   2.111   3.358 -1.5502  1.7156 -0.5268
 1797SOL    HW2 8890   8.744   2.089   3.469 -1.6332  0.9489 -0.7450
 1798SOL     OW 8891   5.683   3.002  10.898 -0.1443  0.0512 -0.0032
 1798SOL    HW1 8892   5.702   2.928  10.840  1.0376  1.1552 -1.1121
 1798SOL    HW2 8893   5.680   3.078  10.839  0.3837  1.1204  1.2876
 1799SOL     OW 8894   4.513   4.827   0.575 -0.0809  0.6095  0.5265
 1799SOL    HW1 8895   4.456   4.880   0.632  1.0345  2.2583  0.1889
 1799SOL    HW2 8896   4.454   4.792   0.509 -0.7686  2.1317  0.2943
 1800SOL     OW 8897   1.798   7.405   7.452  0.4235  0.5195 -0.4824
 1800SOL    HW1 8898   1.720   7.356   7.476  1.1096 -1.3197 -1.7775
 1800SOL    HW2 8899   1.771   7.497   7.456 -1.7819 -0.0617 -0.7913
 1801SOL     OW 8900  10.087   6.742   8.862  0.3550  0.0232  0.0250
 1801SOL    HW1 8901  10.034   6.817   8.888  0.7857  0.7830 -1.1885
 1801SOL    HW2 8902  10.068   6.730   8.769  2.1957  0.2518 -0.4170
 1802SOL     OW 8903   4.205   0.053   0.199 -0.4857  0.0348  0.4343
 1802SOL    HW1 8904   4.170   0.126   0.249  0.1868  0.6983 -0.0454
 1802SOL    HW2 8905   4.285   0.029   0.245 -0.4078 -0.0271  0.2664
 1803SOL     OW 8906   6.915   8.457   5.112  0.0749  0.0475 -0.7702
 1803SOL    HW1 8907   6.866   8.389   5.159 -0.3314 -0.0907 -1.3755
 1803SOL    HW2 8908   6.919   8.530   5.173 -1.6580  0.3830 -1.0162
 1804SOL     OW 8909   3.216   6.274   6.779  0.1754  0.5920 -0.3840
 1804SOL    HW1 8910   3.289   6.226   6.818  0.4217  0.8973 -0.4643
 1804SOL    HW2 8911   3.152   6.282   6.850 -1.3138 -2.6602 -1.1712
 1805SOL     OW 8912  10.759   3.455   9.684  0.2149  0.2687  0.5129
 1805SOL    HW1 8913  10.791   3.487   9.768  0.1792 -0.4423  0.8069
 1805SOL    HW2 8914  10.739   3.534   9.634  0.2405  0.6990  1.1689
 1806SOL     OW 8915   6.164   2.646   8.567 -0.0571  0.4615  0.3017
 1806SOL    HW1 8916   6.180   2.729   8.610 -2.4288  1.2229 -0.0952
 1806SOL    HW2 8917   6.183   2.579   8.633  2.1241  1.2510  0.5428
 1807SOL     OW 8918   5.827   4.874   4.942  0.3248  0.1474  0.3093
 1807SOL    HW1 8919   5.763   4.926   4.893 -0.6445  0.4778  1.8432
 1807SOL    HW2 8920   5.890   4.939   4.974 -0.2898  0.2572  1.3317
 1808SOL     OW 8921  10.483   0.359   1.812 -1.0493 -0.0391  0.1351
 1808SOL    HW1 8922  10.390   0.364   1.831 -1.2313 -0.1433 -0.6776
 1808SOL    HW2 8923  10.517   0.296   1.875 -1.2361  1.1274  1.4478
 1809SOL     OW 8924   7.321   8.141   5.200  0.1436  0.1213 -0.9515
 1809SOL    HW1 8925   7.375   8.136   5.279 -2.7713  0.1375  1.2289
 1809SOL    HW2 8926   7.285   8.230   5.202 -1.0546 -0.3271 -1.5125
 1810SOL     OW 8927   7.313   4.651   3.850  0.4610  0.4862 -0.3157
 1810SOL    HW1 8928   7.334   4.599   3.927  0.7437  0.8546 -0.1417
 1810SOL    HW2 8929   7.218   4.664   3.854  0.5528  1.0348  0.3147
 1811SOL     OW 8930   9.681  10.524   4.648  0.4108 -0.1703  0.3964
 1811SOL    HW1 8931   9.658  10.537   4.740  0.4418 -1.8708  0.6785
 1811SOL    HW2 8932   9.603  10.484   4.609 -0.7485  3.1340 -1.0988
 1812SOL     OW 8933   9.376   6.325   3.147  0.0495 -0.1866 -0.3082
 1812SOL    HW1 8934   9.310   6.287   3.089  1.0131 -0.8129 -1.0224
 1812SOL    HW2 8935   9.379   6.417   3.122  1.0364 -0.6071 -1.8682
 1813SOL     OW 8936   9.711   3.438   2.309  0.0063  0.3356  0.1055
 1813SOL    HW1 8937   9.715   3.532   2.290 -1.3597 -0.1685 -3.5651
 1813SOL    HW2 8938   9.650   3.431   2.383 -1.1203  2.2930 -0.5483
 1814SOL     OW 8939   0.862   9.427  10.653  0.7888 -0.2264  0.1238
 1814SOL    HW1 8940   0.927   9.428  10.723  1.0406 -1.1460 -0.0819
 1814SOL    HW2 8941   0.777   9.434  10.698  0.9744 -0.2871  0.4827
 1815SOL     OW 8942   1.894   4.132   4.954 -0.3084 -0.1251 -0.4653
 1815SOL    HW1 8943   1.940   4.191   4.894 -0.8657  1.1321  0.3183
 1815SOL    HW2 8944   1.909   4.045   4.917  1.8560  0.3241 -0.7876
 1816SOL     OW 8945   5.586   0.402  10.434 -0.8704  0.2788  0.0419
 1816SOL    HW1 8946   5.613   0.331  10.493 -1.9114 -1.7500 -1.7904
 1816SOL    HW2 8947   5.524   0.453  10.486 -0.2779 -0.2639  1.3395
 1817SOL     OW 8948   1.056   3.920   6.777 -0.6515 -0.3005  0.2431
 1817SOL    HW1 8949   1.017   3.947   6.860 -1.3088 -0.8576  0.1259
 1817SOL    HW2 8950   1.009   3.971   6.711  0.4237  0.7428  0.2570
 1818SOL     OW 8951   0.952   3.297   6.998  0.2311  0.3807  0.1612
 1818SOL    HW1 8952   1.015   3.324   7.064  0.1821 -0.0230  0.3739
 1818SOL    HW2 8953   0.874   3.273   7.047  0.2272 -0.0161 -0.0330
 1819SOL     OW 8954   3.850   5.528   0.944  0.3017  0.3664 -0.1644
 1819SOL    HW1 8955   3.860   5.523   0.848 -0.7435  0.9058 -0.3043
 1819SOL    HW2 8956   3.817   5.442   0.969  1.8795 -0.2647 -0.0973
 1820SOL     OW 8957   6.127   5.642   6.090  0.7241  0.2141  0.4873
 1820SOL    HW1 8958   6.129   5.706   6.161  0.5967  0.0865  0.6067
 1820SOL    HW2 8959   6.106   5.559   6.133 -0.8330  0.3919  0.1068
 1821SOL     OW 8960  10.087   3.936   7.803 -0.6269 -0.0215 -0.3932
 1821SOL    HW1 8961  10.091   3.867   7.737  1.5226 -1.2254  0.8868
 1821SOL    HW2 8962  10.178   3.951   7.827 -1.1994  1.9872  0.7021
 1822SOL     OW 8963   7.170   5.514   8.455  0.0750  0.0148  0.1698
 1822SOL    HW1 8964   7.159   5.425   8.422  0.9547  0.0535 -0.2472
 1822SOL    HW2 8965   7.187   5.502   8.549 -2.9629 -0.0643  0.8152
 1823SOL     OW 8966   0.893   3.036   4.730  0.3709 -0.5499  0.7808
 1823SOL    HW1 8967   0.911   2.958   4.783 -3.7010 -2.4519 -0.2015
 1823SOL    HW2 8968   0.904   3.006   4.640  0.4390  0.5464  0.4196
 1824SOL     OW 8969   2.002   6.729   2.026  0.7153 -0.0639  0.2114
 1824SOL    HW1 8970   2.016   6.821   2.049 -0.2375 -0.2903  1.9412
 1824SOL    HW2 8971   1.913   6.710   2.057  0.3070 -1.1734 -1.5130
 1825SOL     OW 8972   8.518   3.366   6.119  0.1782 -0.1410  0.2499
 1825SOL    HW1 8973   8.472   3.307   6.059  0.8222 -0.7259  0.3172
 1825SOL    HW2 8974   8.611   3.357   6.095  0.2769  0.9508  0.1750
 1826SOL     OW 8975   6.419   1.222   5.308  0.1259 -0.4013  0.4624
 1826SOL    HW1 8976   6.442   1.129   5.305  1.1989 -0.2685  2.6111
 1826SOL    HW2 8977   6.456   1.253   5.390 -1.5226  1.6005  0.5342
 1827SOL     OW 8978   7.503   1.857  10.212  0.3133 -0.0592  0.1957
 1827SOL    HW1 8979   7.474   1.939  10.172 -0.3526 -0.8828 -1.1056
 1827SOL    HW2 8980   7.595   1.849  10.187  0.2588  0.0848 -0.0578
 1828SOL     OW 8981   1.385   6.705   6.192 -0.0930  0.1863 -0.5615
 1828SOL    HW1 8982   1.319   6.753   6.142 -0.1900  0.7232  0.0638
 1828SOL    HW2 8983   1.369   6.613   6.172 -0.2443  0.3760 -1.3698
 1829SOL     OW 8984  10.163   2.762   3.460 -1.2101 -0.1972 -0.6397
 1829SOL    HW1 8985  10.171   2.720   3.375 -0.2089  0.4663 -0.8864
 1829SOL    HW2 8986  10.098   2.831   3.447 -1.7760 -0.7123 -0.6050
 1830SOL     OW 8987   7.506   8.881   5.916 -0.1298 -0.0110  0.6285
 1830SOL    HW1 8988   7.479   8.791   5.901  0.0696  0.4294 -3.2816
 1830SOL    HW2 8989   7.598   8.874   5.944 -0.1971 -0.9911  0.6423
 1831SOL     OW 8990   5.676   7.782   8.747  0.1311 -0.6997  0.2621
 1831SOL    HW1 8991   5.634   7.867   8.763  1.3262  0.0205 -0.2545
 1831SOL    HW2 8992   5.741   7.800   8.679  1.6944 -1.6324  1.4497
 1832SOL     OW 8993   8.128  10.705   2.325 -0.2684 -0.6768  0.5361
 1832SOL    HW1 8994   8.055  10.723   2.267  0.1453 -0.8508 -0.0536
 1832SOL    HW2 8995   8.130  10.609   2.332 -1.8485 -0.6243  2.8580
 1833SOL     OW 8996   8.974   3.780   7.191  0.3245 -0.2412  0.6146
 1833SOL    HW1 8997   8.945   3.794   7.101 -0.3338  1.1351  1.0207
 1833SOL    HW2 8998   8.893   3.776   7.242  0.6927 -0.9140  1.1700
 1834SOL     OW 8999   1.198   6.120   7.849 -0.2388  0.3942  0.1500
 1834SOL    HW1 9000   1.212   6.179   7.775 -0.0620 -0.8588 -0.8516
 1834SOL    HW2 9001   1.122   6.069   7.825 -0.2615  0.0636  0.9088
 1835SOL     OW 9002   9.709   8.254   6.615  0.1409  0.3083  0.3275
 1835SOL    HW1 9003   9.757   8.314   6.557 -0.6038  1.8867  1.2710
 1835SOL    HW2 9004   9.657   8.201   6.555 -0.1129  1.4513 -0.5138
 1836SOL     OW 9005   0.514   1.371   7.605  0.5182 -0.5493  0.1069
 1836SOL    HW1 9006   0.541   1.349   7.516 -1.4849  1.3439 -1.0855
 1836SOL    HW2 9007   0.553   1.456   7.622  0.1992 -0.5132  0.6862
 1837SOL     OW 9008   2.081   8.129   4.691 -0.5790  0.0183  0.4569
 1837SOL    HW1 9009   1.992   8.115   4.659 -0.4413  0.7766 -0.2849
 1837SOL    HW2 9010   2.125   8.045   4.677 -0.3109  0.5172 -2.0806
 1838SOL     OW 9011   0.702   8.352   8.955  0.1010  0.1273 -0.4227
 1838SOL    HW1 9012   0.675   8.313   9.039 -0.6709  1.4800 -0.0183
 1838SOL    HW2 9013   0.671   8.290   8.889 -1.9159  0.4455  0.1647
 1839SOL     OW 9014   4.536   3.299   3.803  0.0429  0.3587  0.2783
 1839SOL    HW1 9015   4.503   3.298   3.893  0.5880  0.3652  0.4787
 1839SOL    HW2 9016   4.629   3.277   3.811 -0.1134 -0.6165 -0.3665
 1840SOL     OW 9017   9.591   4.912   6.381  0.0798  0.2198  0.3290
 1840SOL    HW1 9018   9.629   4.986   6.334  0.2336  0.3076  0.5886
 1840SOL    HW2 9019   9.499   4.936   6.394 -0.3644 -0.4794 -1.2880
 1841SOL     OW 9020   6.031   5.979   3.384  0.4412 -0.3672 -0.3966
 1841SOL    HW1 9021   6.072   5.997   3.299 -1.0904  1.3599 -0.8297
 1841SOL    HW2 9022   6.104   5.979   3.446  1.4190 -0.1609 -1.5043
 1842SOL     OW 9023   7.221   6.142   3.338  0.0953  0.4695  0.3090
 1842SOL    HW1 9024   7.166   6.181   3.269  0.1527  0.5818  0.3274
 1842SOL    HW2 9025   7.180   6.170   3.420 -0.9547 -1.0217  0.3346
 1843SOL     OW 9026   7.748   9.468   3.459 -0.3276 -0.1280 -0.3136
 1843SOL    HW1 9027   7.736   9.435   3.370 -1.0789  0.3144 -0.3817
 1843SOL    HW2 9028   7.664   9.454   3.502 -0.1888  0.3019  0.1121
 1844SOL     OW 9029  10.508   4.270   1.496 -0.1246  0.1464  0.1072
 1844SOL    HW1 9030  10.591   4.313   1.511  0.4117 -1.5138  2.3130
 1844SOL    HW2 9031  10.450   4.305   1.564 -0.4256 -0.6824  0.2844
 1845SOL     OW 9032  10.926   3.843   2.318  0.5654  0.0494 -0.1675
 1845SOL    HW1 9033  10.972   3.895   2.252 -0.0015  0.0995 -0.5374
 1845SOL    HW2 9034  10.956   3.753   2.304 -0.1721 -0.0744 -1.0605
 1846SOL     OW 9035   8.733   2.028   1.020 -0.8925  1.1035  0.1496
 1846SOL    HW1 9036   8.700   2.007   1.107  1.0497  0.8044  0.8658
 1846SOL    HW2 9037   8.751   2.122   1.024 -0.9762  1.1240  0.0214
 1847SOL     OW 9038   4.495   0.429   0.130  0.3128 -0.1438 -0.0420
 1847SOL    HW1 9039   4.467   0.449   0.219  1.6090 -1.4613  0.6918
 1847SOL    HW2 9040   4.502   0.333   0.127  0.7228 -0.0986 -1.4290
 1848SOL     OW 9041   7.438   5.921   1.137  0.2824  0.7151 -0.0077
 1848SOL    HW1 9042   7.507   5.931   1.204  1.9750  0.7531 -1.6809
 1848SOL    HW2 9043   7.439   6.004   1.090 -0.5600  0.5112 -0.3935
 1849SOL     OW 9044   8.264   2.556   2.657  0.3093 -0.3085 -0.3915
 1849SOL    HW1 9045   8.333   2.507   2.701  0.0329 -0.4323 -0.0958
 1849SOL    HW2 9046   8.307   2.638   2.629  0.7779 -0.7239 -0.9135
 1850SOL     OW 9047   9.068   9.480   0.686 -0.1255  0.1514 -0.2964
 1850SOL    HW1 9048   9.094   9.568   0.714  0.6134 -0.2366  0.2516
 1850SOL    HW2 9049   9.001   9.454   0.749  1.7388 -0.8370  1.3862
 1851SOL     OW 9050   5.328   6.306   9.696  0.2196 -0.1638 -0.3265
 1851SOL    HW1 9051   5.257   6.252   9.661 -0.1541  0.8310 -1.1595
 1851SOL    HW2 9052   5.403   6.286   9.641  0.8055 -1.6633  0.9224
 1852SOL     OW 9053   6.139   6.576   1.669  0.0648  0.2128 -0.0323
 1852SOL    HW1 9054   6.133   6.614   1.757 -1.4143  0.1595 -0.0780
 1852SOL    HW2 9055   6.179   6.490   1.682 -0.3701  0.1049  0.6275
 1853SOL     OW 9056   2.007   6.506   1.857  0.1415  0.4513  0.1108
 1853SOL    HW1 9057   2.081   6.506   1.797 -0.6881  1.8037 -0.9816
 1853SOL    HW2 9058   2.013   6.590   1.902 -1.9359  1.6698 -1.6549
 1854SOL     OW 9059  10.983   5.165   5.684  0.3396  0.1352  0.6510
 1854SOL    HW1 9060  10.911   5.133   5.739 -0.3269 -0.6476 -0.6233
 1854SOL    HW2 9061  11.005   5.090   5.628  3.5742 -0.3929  2.3703
 1855SOL     OW 9062   8.488   5.186   8.958 -0.1810  0.1236  0.3024
 1855SOL    HW1 9063   8.581   5.171   8.945 -0.2210 -0.8514  1.0832
 1855SOL    HW2 9064   8.483   5.244   9.034 -0.1814  1.3161 -0.5635
 1856SOL     OW 9065   0.194   6.219   5.833 -0.0783  0.4011  0.1087
 1856SOL    HW1 9066   0.226   6.141   5.787  0.6227  1.1115 -0.6349
 1856SOL    HW2 9067   0.270   6.250   5.882 -0.7008 -0.0919  1.4132
 1857SOL     OW 9068   1.920   5.704   3.848 -0.2205  0.2832 -0.2061
 1857SOL    HW1 9069   1.912   5.707   3.753  2.1510 -0.3941 -0.4958
 1857SOL    HW2 9070   1.837   5.668   3.878 -1.0359  0.5450 -1.9984
 1858SOL     OW 9071   2.395  10.938   7.138 -0.1053 -0.2749  0.0594
 1858SOL    HW1 9072   2.372  10.847   7.121 -0.0826 -0.1698 -0.5978
 1858SOL    HW2 9073   2.426  10.940   7.228 -0.5145 -0.8365  0.2167
 1859SOL     OW 9074   0.319   1.943   4.257 -0.0548 -0.0628 -0.3738
 1859SOL    HW1 9075   0.327   1.912   4.167 -0.6145 -0.3897 -0.3165
 1859SOL    HW2 9076   0.276   1.871   4.303  1.0388 -0.2733  0.3600
 1860SOL     OW 9077   8.332   4.901   3.738 -0.5574 -0.1328 -0.1480
 1860SOL    HW1 9078   8.237   4.911   3.735 -0.5378  0.3331  0.6391
 1860SOL    HW2 9079   8.351   4.873   3.828  0.0950  0.2592 -0.1566
 1861SOL     OW 9080   2.470   8.426   4.259 -0.8469  0.3575  0.2667
 1861SOL    HW1 9081   2.395   8.483   4.278 -0.6201  1.3524 -1.5399
 1861SOL    HW2 9082   2.459   8.350   4.316 -2.6362  0.9887  0.8053
 1862SOL     OW 9083   1.818   5.867   6.325  0.0267 -0.4141  0.1285
 1862SOL    HW1 9084   1.786   5.807   6.393  0.1937  0.2371  0.7899
 1862SOL    HW2 9085   1.799   5.822   6.243  0.1115 -1.3593  0.6137
 1863SOL     OW 9086   9.078   4.304   3.729 -0.9469 -0.3074 -0.4214
 1863SOL    HW1 9087   9.038   4.382   3.690 -0.8475  0.0745  0.2332
 1863SOL    HW2 9088   9.142   4.275   3.663 -0.4343  0.6175 -0.3517
 1864SOL     OW 9089   4.621   1.156   8.056  0.4474 -0.4766 -0.2232
 1864SOL    HW1 9090   4.574   1.211   8.119  0.3554 -0.6397 -0.1518
 1864SOL    HW2 9091   4.593   1.189   7.971  0.5459 -0.2773 -0.1814
 1865SOL     OW 9092   1.583   4.744   5.039  0.6242  0.0446 -0.2691
 1865SOL    HW1 9093   1.661   4.784   4.999  0.4603  1.4104  0.7145
 1865SOL    HW2 9094   1.589   4.768   5.131  0.5268 -2.2995  0.4043
 1866SOL     OW 9095   7.338   8.356   2.800  0.3909 -0.1982  1.0673
 1866SOL    HW1 9096   7.424   8.374   2.761 -0.2994  1.7402  0.3295
 1866SOL    HW2 9097   7.282   8.334   2.725 -0.1835  0.3218  1.3389
 1867SOL     OW 9098   8.072  10.398   1.750  0.1332 -0.3022 -0.0512
 1867SOL    HW1 9099   8.028  10.319   1.781  1.2282 -0.9812 -0.1797
 1867SOL    HW2 9100   8.161  10.391   1.786 -0.1186  1.5330  1.0485
 1868SOL     OW 9101   0.917   7.087   1.103  0.4595  0.2379 -0.3811
 1868SOL    HW1 9102   0.836   7.068   1.150  0.3686  0.6682 -0.3691
 1868SOL    HW2 9103   0.973   7.129   1.169  0.4128  0.6401 -0.5959
 1869SOL     OW 9104   6.489   6.740   1.311  0.7713 -0.4362  0.2733
 1869SOL    HW1 9105   6.479   6.835   1.315  2.4760 -0.2782  2.3723
 1869SOL    HW2 9106   6.414   6.706   1.360  0.7508 -0.1244  0.4606
 1870SOL     OW 9107   0.684   1.540   9.951  0.4542 -0.0839  0.2776
 1870SOL    HW1 9108   0.599   1.568   9.985 -0.5005 -1.1054 -1.1669
 1870SOL    HW2 9109   0.697   1.591   9.872  0.0954 -1.5150 -0.7427
 1871SOL     OW 9110   3.382   6.282   1.223  0.2832  0.9343  0.0083
 1871SOL    HW1 9111   3.439   6.220   1.269  0.8627  3.2204  2.7121
 1871SOL    HW2 9112   3.314   6.304   1.287 -0.3778  2.4206 -1.1337
 1872SOL     OW 9113  10.239   3.447   5.339 -0.6232  0.4032  0.1368
 1872SOL    HW1 9114  10.304   3.388   5.302 -1.8870 -0.8379 -0.2228
 1872SOL    HW2 9115  10.267   3.534   5.312  0.6896 -0.1296 -0.2808
 1873SOL     OW 9116   0.975   0.026   0.575 -0.3862 -0.3212  0.6332
 1873SOL    HW1 9117   1.008  -0.062   0.592  1.5438  0.5338  1.5416
 1873SOL    HW2 9118   1.046   0.070   0.529 -1.9990  0.2646 -1.4656
 1874SOL     OW 9119   3.279   6.820   0.702 -0.3644  0.1427  0.3703
 1874SOL    HW1 9120   3.210   6.846   0.640  0.8094 -0.8653 -1.4419
 1874SOL    HW2 9121   3.272   6.884   0.773 -2.2163  0.9407 -0.4545
 1875SOL     OW 9122   0.703   8.838   9.514  0.3671 -0.7991  0.4676
 1875SOL    HW1 9123   0.767   8.785   9.466 -0.7298 -1.5002 -0.2809
 1875SOL    HW2 9124   0.689   8.792   9.596  3.2292  1.0796  2.1865
 1876SOL     OW 9125  10.328   2.043   8.978 -0.4024 -0.6291  0.0223
 1876SOL    HW1 9126  10.363   2.073   8.894  0.4615 -1.3603  0.1116
 1876SOL    HW2 9127  10.404   2.036   9.036 -0.8401 -1.1449  0.5555
 1877SOL     OW 9128   0.023   0.267   9.700  0.2093 -0.4150 -0.0527
 1877SOL    HW1 9129   0.061   0.339   9.751  2.6977 -1.5285 -0.1459
 1877SOL    HW2 9130  -0.058   0.302   9.665  0.7138  1.9183  0.9144
 1878SOL     OW 9131   6.231   8.411   8.508  0.5866  0.0750  0.2196
 1878SOL    HW1 9132   6.317   8.411   8.467  0.5113  1.0499  0.0305
 1878SOL    HW2 9133   6.171   8.385   8.438  0.3489  2.6024 -0.6075
 1879SOL     OW 9134   7.133   6.301   2.542 -0.2086 -0.0122  0.0441
 1879SOL    HW1 9135   7.168   6.347   2.466 -0.6231  0.0966 -0.0806
 1879SOL    HW2 9136   7.150   6.209   2.524  0.1649  0.0475  0.0640
 1880SOL     OW 9137   9.386   6.222  10.783  0.1416 -0.0436  0.4489
 1880SOL    HW1 9138   9.394   6.140  10.733  0.3689  0.5088 -0.4551
 1880SOL    HW2 9139   9.410   6.198  10.872  2.9129 -0.4370 -0.3060
 1881SOL     OW 9140   4.144   1.946   8.657 -0.2702  0.1364 -0.0194
 1881SOL    HW1 9141   4.228   1.971   8.694 -0.6562  1.1818  0.1864
 1881SOL    HW2 9142   4.137   1.999   8.577 -1.4747  1.3587  0.8601
 1882SOL     OW 9143   3.955   7.775   6.591 -0.1238 -0.2125  0.2699
 1882SOL    HW1 9144   3.891   7.792   6.521 -0.5426 -1.5111  0.3228
 1882SOL    HW2 9145   4.011   7.707   6.556 -0.5055 -1.0794  1.2973
 1883SOL     OW 9146   4.016   6.236   9.460  0.1755  0.5088  0.2597
 1883SOL    HW1 9147   4.038   6.171   9.526 -0.0820  0.0795 -0.0753
 1883SOL    HW2 9148   4.050   6.318   9.495  0.7828  0.1441  0.5413
 1884SOL     OW 9149   8.329   2.953   0.672  0.2826  0.6388  0.3988
 1884SOL    HW1 9150   8.407   2.970   0.620  0.3032  0.2456  0.2988
 1884SOL    HW2 9151   8.303   3.039   0.705  1.1552  0.6713  1.0154
 1885SOL     OW 9152   7.000   1.693   8.226 -0.4564  0.5241  0.1316
 1885SOL    HW1 9153   7.007   1.785   8.199  2.1608  0.8077  1.4527
 1885SOL    HW2 9154   7.055   1.687   8.304 -1.1853 -2.0249  0.5243
 1886SOL     OW 9155   8.880   6.936   8.828 -0.1031 -0.4018  0.1433
 1886SOL    HW1 9156   8.956   6.992   8.819 -0.6184  0.0084 -1.9587
 1886SOL    HW2 9157   8.805   6.995   8.821 -0.6371 -1.1125 -0.2217
 1887SOL     OW 9158   3.144   6.318   5.685 -0.1194 -0.2866  0.1165
 1887SOL    HW1 9159   3.067   6.269   5.658 -1.0029  1.3273 -0.4227
 1887SOL    HW2 9160   3.165   6.374   5.611  1.0163 -0.0213  0.6081
 1888SOL     OW 9161   7.478   7.010  10.121 -0.5013 -0.3001  0.0429
 1888SOL    HW1 9162   7.444   7.012  10.211  0.8829 -2.4035  0.6715
 1888SOL    HW2 9163   7.569   7.037  10.129 -0.1191 -1.3678 -0.5942
 1889SOL     OW 9164   7.606   3.067   0.979 -0.4174 -0.5532  0.0428
 1889SOL    HW1 9165   7.684   3.065   1.035 -1.1602  0.7454  1.1826
 1889SOL    HW2 9166   7.542   3.014   1.026 -0.7306 -0.2926 -0.0954
 1890SOL     OW 9167   4.589   2.758   7.565  0.2393 -0.6098  0.4300
 1890SOL    HW1 9168   4.619   2.714   7.486 -0.1394  0.3015 -0.2455
 1890SOL    HW2 9169   4.597   2.693   7.634 -0.3251 -1.7316 -0.5281
 1891SOL     OW 9170   3.540   9.660  10.794 -0.2914 -0.1892 -0.2227
 1891SOL    HW1 9171   3.618   9.691  10.839 -0.0137  1.0174 -1.4754
 1891SOL    HW2 9172   3.504   9.593  10.851  1.2651 -0.2573  0.7086
 1892SOL     OW 9173  10.270   8.341   5.233  0.1515  0.8718  0.0967
 1892SOL    HW1 9174  10.332   8.372   5.300 -0.2789  1.4066  0.2624
 1892SOL    HW2 9175  10.184   8.367   5.267 -0.5558 -2.7158  1.5007
 1893SOL     OW 9176   3.845   8.267   7.719 -0.2042  0.5808  0.6656
 1893SOL    HW1 9177   3.931   8.306   7.737 -0.1469  0.8275 -0.1525
 1893SOL    HW2 9178   3.785   8.341   7.715 -0.1918  0.5447 -0.3017
 1894SOL     OW 9179   7.603   2.672   2.155  0.0683  0.0602  0.4288
 1894SOL    HW1 9180   7.691   2.642   2.129 -0.7687 -0.2510 -2.2991
 1894SOL    HW2 9181   7.574   2.606   2.219  0.5366 -1.8065 -1.1794
 1895SOL     OW 9182  10.558   2.725   7.044  0.0843 -0.2540 -0.0837
 1895SOL    HW1 9183  10.532   2.785   6.973 -0.9233  0.9619  1.2381
 1895SOL    HW2 9184  10.477   2.710   7.093  1.0262  0.2152  1.7075
 1896SOL     OW 9185   1.005   8.653   6.375  0.0290 -0.7342 -0.2127
 1896SOL    HW1 9186   0.930   8.634   6.318 -1.0540  0.4559  0.7718
 1896SOL    HW2 9187   0.988   8.603   6.454 -0.4497  0.5729  0.5419
 1897SOL     OW 9188   6.500  10.497   9.245  0.0463  0.0653 -0.2105
 1897SOL    HW1 9189   6.529  10.582   9.212 -0.6197  1.0130  1.4824
 1897SOL    HW2 9190   6.513  10.437   9.172  2.2968  1.2277 -0.8566
 1898SOL     OW 9191  10.728   1.723   6.411  0.7129 -0.2003 -0.5788
 1898SOL    HW1 9192  10.659   1.769   6.364 -0.2702  0.0280  1.0168
 1898SOL    HW2 9193  10.751   1.650   6.354 -1.2806 -0.6331 -0.9040
 1899SOL     OW 9194  10.625   3.468   0.774 -0.4991  0.3948  0.7461
 1899SOL    HW1 9195  10.683   3.427   0.838  0.6875  0.3169 -0.3377
 1899SOL    HW2 9196  10.589   3.394   0.724 -1.0587  0.4854  1.0019
 1900SOL     OW 9197  10.953   5.102   6.100  0.0473  0.2851  0.4707
 1900SOL    HW1 9198  10.989   5.190   6.088  0.6399  0.0778  0.6893
 1900SOL    HW2 9199  10.996   5.049   6.033  0.3032 -0.0095  0.8651
 1901SOL     OW 9200  10.719   7.481   5.248  0.4194  0.0185  0.2276
 1901SOL    HW1 9201  10.676   7.423   5.310  0.4449 -0.5912 -0.3086
 1901SOL    HW2 9202  10.725   7.430   5.167 -2.0291  1.6476 -1.1366
 1902SOL     OW 9203   8.589   3.352  10.684 -0.0783 -0.5562 -0.2700
 1902SOL    HW1 9204   8.673   3.396  10.672 -0.2137  0.5417  2.1306
 1902SOL    HW2 9205   8.607   3.282  10.746 -0.6793 -1.2048 -0.8137
 1903SOL     OW 9206   6.116   8.048   3.376  0.4592  0.5499  0.1003
 1903SOL    HW1 9207   6.145   8.041   3.285 -0.1223  0.3105 -0.0710
 1903SOL    HW2 9208   6.129   8.140   3.399  0.6909  0.5922 -0.1993
 1904SOL     OW 9209   2.170   6.464   0.551 -0.3017  0.1221 -0.1599
 1904SOL    HW1 9210   2.177   6.435   0.642 -3.1062  0.1336  0.1463
 1904SOL    HW2 9211   2.116   6.397   0.509 -0.5134  1.0405 -1.3901
 1905SOL     OW 9212   6.191   7.456   0.982  0.3670  0.2163  0.3381
 1905SOL    HW1 9213   6.206   7.516   1.055  1.1941 -0.9837  1.1767
 1905SOL    HW2 9214   6.278   7.421   0.961 -0.1254 -0.8476  0.0155
 1906SOL     OW 9215   4.008   9.496  10.861  0.4968 -0.3559  0.4532
 1906SOL    HW1 9216   4.047   9.431  10.803 -0.7125 -0.1562 -0.6418
 1906SOL    HW2 9217   3.942   9.447  10.911  1.2297 -0.4353  1.3598
 1907SOL     OW 9218   9.238   1.125   9.481 -0.2169  0.9978 -0.3214
 1907SOL    HW1 9219   9.147   1.104   9.497  0.6036 -2.3514  0.5974
 1907SOL    HW2 9220   9.245   1.132   9.386 -1.0494 -0.9872 -0.5707
 1908SOL     OW 9221   1.999  10.845   3.855  0.6818  0.3955  0.7619
 1908SOL    HW1 9222   1.921  10.850   3.800  1.1236  0.4332  0.1214
 1908SOL    HW2 9223   1.987  10.914   3.920  0.4457  0.7853  0.3121
 1909SOL     OW 9224   6.166   4.044   3.031 -0.5872  0.1048  0.1796
 1909SOL    HW1 9225   6.154   4.105   2.959  0.4189 -0.7072 -0.7071
 1909SOL    HW2 9226   6.237   4.082   3.083  1.3331 -1.1651 -1.3966
 1910SOL     OW 9227   6.165   9.895   5.674  0.5942 -0.1166 -0.1732
 1910SOL    HW1 9228   6.111   9.848   5.610  0.2537 -0.1524  0.1376
 1910SOL    HW2 9229   6.227   9.830   5.706  1.2129  0.0723 -0.9612
 1911SOL     OW 9230   7.258  10.792   8.670 -0.6418 -0.1775  0.1327
 1911SOL    HW1 9231   7.184  10.736   8.692 -0.3578 -0.9570 -0.8116
 1911SOL    HW2 9232   7.252  10.866   8.730 -1.4330 -0.8779  0.9301
 1912SOL     OW 9233   0.278  10.569   2.807  0.5305 -0.3340 -0.3390
 1912SOL    HW1 9234   0.340  10.496   2.808 -0.3796 -1.1389 -0.5174
 1912SOL    HW2 9235   0.218  10.551   2.880  0.4512  0.3773 -0.2228
 1913SOL     OW 9236   4.798   1.923   4.486 -0.5636 -0.8401 -0.5503
 1913SOL    HW1 9237   4.800   2.017   4.505  1.1893 -0.7556 -0.9786
 1913SOL    HW2 9238   4.864   1.911   4.418 -1.2402 -2.2984 -0.9877
 1914SOL     OW 9239   1.301  10.800   9.301  0.1699  0.3566  0.3922
 1914SOL    HW1 9240   1.341  10.771   9.219  1.5939 -0.6842  1.3956
 1914SOL    HW2 9241   1.208  10.785   9.290  0.4060 -0.2980 -0.8278
 1915SOL     OW 9242   9.820   3.577   7.992 -0.3293 -0.0447  0.3674
 1915SOL    HW1 9243   9.806   3.566   7.897  2.6906 -0.0730 -0.1669
 1915SOL    HW2 9244   9.733   3.564   8.030 -1.5074 -0.8558 -2.3240
 1916SOL     OW 9245  10.448   9.989   5.374 -0.0181  0.1675  0.3384
 1916SOL    HW1 9246  10.359  10.022   5.361 -0.0198 -0.4341 -1.3471
 1916SOL    HW2 9247  10.467   9.938   5.296  1.5005 -0.4504  1.0631
 1917SOL     OW 9248   3.939   9.846   4.949  0.1579  0.1116  0.3154
 1917SOL    HW1 9249   4.018   9.811   4.991  1.2953  2.4844  0.2998
 1917SOL    HW2 9250   3.942   9.811   4.860  1.2442  0.2008  0.3003
 1918SOL     OW 9251   1.600   4.039   2.698  0.1493 -0.2402 -0.3054
 1918SOL    HW1 9252   1.578   3.992   2.778  1.2820 -1.4627 -0.6804
 1918SOL    HW2 9253   1.596   4.131   2.723 -1.4305 -0.5195  0.6257
 1919SOL     OW 9254   3.331   9.971   1.434  0.3748 -0.1266 -0.3429
 1919SOL    HW1 9255   3.281  10.033   1.380  1.0567  0.0884 -0.7368
 1919SOL    HW2 9256   3.416  10.013   1.447  0.9268 -1.0713 -0.7960
 1920SOL     OW 9257   9.057  10.032  10.160  0.5744 -0.1227 -0.1066
 1920SOL    HW1 9258   9.132   9.982  10.129  0.8454 -1.0276  1.9021
 1920SOL    HW2 9259   9.092  10.090  10.227 -0.5068 -0.6330  0.9489
 1921SOL     OW 9260   8.703   1.863   4.747  0.1198 -0.1653 -0.0950
 1921SOL    HW1 9261   8.677   1.949   4.780  1.6655  0.2203  0.1725
 1921SOL    HW2 9262   8.646   1.801   4.793 -0.6321  0.6589  0.1139
 1922SOL     OW 9263   9.591   0.437   0.869  0.8773 -0.1803  0.1946
 1922SOL    HW1 9264   9.498   0.431   0.887  0.2384 -0.5161 -2.7282
 1922SOL    HW2 9265   9.621   0.346   0.867  0.8254 -0.1871 -0.7201
 1923SOL     OW 9266   9.565   8.509  10.272 -0.0779  0.2598  0.1178
 1923SOL    HW1 9267   9.501   8.564  10.316 -0.0139 -0.8429  1.6960
 1923SOL    HW2 9268   9.537   8.506  10.181 -1.1825  1.2957  0.4045
 1924SOL     OW 9269   4.916   6.491   6.136 -0.2474 -0.0995 -0.3493
 1924SOL    HW1 9270   4.980   6.461   6.072  1.0831 -1.1709  1.3704
 1924SOL    HW2 9271   4.831   6.471   6.097  0.5385 -2.3483 -1.0860
 1925SOL     OW 9272   3.724   7.381   7.814  0.2000  0.4159  0.4456
 1925SOL    HW1 9273   3.778   7.303   7.801  0.3818  0.3715  1.3864
 1925SOL    HW2 9274   3.634   7.350   7.801  0.3325  0.2751 -0.1619
 1926SOL     OW 9275   3.095   5.183   6.142 -0.2873 -0.1568 -0.3173
 1926SOL    HW1 9276   3.011   5.186   6.096 -0.1462 -3.2049 -0.9647
 1926SOL    HW2 9277   3.081   5.118   6.212  0.5754  1.7772  1.7943
 1927SOL     OW 9278   0.718  10.979   4.255 -0.3595  0.5915 -0.1553
 1927SOL    HW1 9279   0.753  11.022   4.176 -0.4748  0.8403 -0.0724
 1927SOL    HW2 9280   0.672  11.049   4.302 -1.5979  0.1323 -0.6213
 1928SOL     OW 9281   6.926   2.958   0.621  0.2767  0.2882  0.0201
 1928SOL    HW1 9282   6.853   3.017   0.640  0.6928  1.5173 -1.9749
 1928SOL    HW2 9283   6.896   2.906   0.546  0.9479 -0.1809  0.0694
 1929SOL     OW 9284   0.611   1.522   6.895  0.3294 -0.5950  0.4459
 1929SOL    HW1 9285   0.527   1.476   6.889  1.1063 -1.9927 -0.1669
 1929SOL    HW2 9286   0.675   1.459   6.864  1.3659  1.2270 -1.3535
 1930SOL     OW 9287   4.469   1.201   9.207  0.0889 -0.2128  0.1595
 1930SOL    HW1 9288   4.479   1.143   9.132  2.9879  0.4488 -0.1034
 1930SOL    HW2 9289   4.410   1.270   9.177 -0.7369 -1.2508 -0.6543
 1931SOL     OW 9290   8.476   5.928   6.935 -0.0131  0.1074 -0.3827
 1931SOL    HW1 9291   8.547   5.865   6.927 -1.1267 -1.1325 -0.9650
 1931SOL    HW2 9292   8.516   6.012   6.913  1.6432 -0.2827  0.9793
 1932SOL     OW 9293   7.701   5.220   9.845 -0.0964 -0.3223  0.4121
 1932SOL    HW1 9294   7.718   5.128   9.863 -0.2027 -0.6764 -1.1066
 1932SOL    HW2 9295   7.770   5.267   9.892  0.9641 -1.2968 -0.1055
 1933SOL     OW 9296   4.403   0.397   6.095 -0.3319  0.2348  0.2085
 1933SOL    HW1 9297   4.321   0.441   6.071  0.0140 -0.0506 -1.6036
 1933SOL    HW2 9298   4.375   0.318   6.141 -0.9883  1.3960  1.9154
 1934SOL     OW 9299   0.544   6.650   9.755  0.7496 -0.6133 -0.3821
 1934SOL    HW1 9300   0.452   6.638   9.731  0.9873 -0.0243 -1.7160
 1934SOL    HW2 9301   0.542   6.693   9.840 -0.1710 -1.8649  0.2744
 1935SOL     OW 9302   2.182   9.864   7.003 -0.3381 -0.2674 -0.2196
 1935SOL    HW1 9303   2.173   9.944   7.054 -0.5540 -0.1673 -0.4103
 1935SOL    HW2 9304   2.183   9.794   7.067 -2.6508 -0.3239 -0.1392
 1936SOL     OW 9305   0.708   9.483   1.638  0.7065 -0.7001 -0.5321
 1936SOL    HW1 9306   0.654   9.560   1.654  1.1217 -0.2443 -1.2557
 1936SOL    HW2 9307   0.717   9.441   1.724 -0.0368 -0.2911 -0.2472
 1937SOL     OW 9308   1.939   5.623   5.420  0.0909 -0.3463  0.0454
 1937SOL    HW1 9309   1.889   5.555   5.375  0.1668 -1.5992  1.7545
 1937SOL    HW2 9310   2.027   5.616   5.384 -0.1303 -0.4918 -0.4746
 1938SOL     OW 9311   0.238   7.694   9.870  0.1891 -0.4815  0.4898
 1938SOL    HW1 9312   0.240   7.763   9.803  2.0206 -0.3631  0.6184
 1938SOL    HW2 9313   0.265   7.739   9.951  0.6176 -1.1794  0.7381
 1939SOL     OW 9314   0.610   0.265   2.880 -0.3193  0.3822  0.1288
 1939SOL    HW1 9315   0.529   0.215   2.884  0.2083 -0.5857 -0.9578
 1939SOL    HW2 9316   0.596   0.329   2.811  0.0839 -0.2507 -0.5500
 1940SOL     OW 9317  10.043   0.756   6.198 -0.2610 -0.4198 -0.1560
 1940SOL    HW1 9318   9.972   0.706   6.238  0.1464 -1.9780 -1.2798
 1940SOL    HW2 9319  10.077   0.699   6.129  1.9929  0.3302  0.2378
 1941SOL     OW 9320   8.775   7.343   6.538  0.0142  1.1398 -0.1921
 1941SOL    HW1 9321   8.719   7.419   6.554  0.9742  2.0230 -0.8848
 1941SOL    HW2 9322   8.859   7.366   6.579 -0.2774 -0.4133  1.3741
 1942SOL     OW 9323   6.228   1.270   9.311 -0.1786 -0.2475 -0.1162
 1942SOL    HW1 9324   6.196   1.182   9.333 -0.5573  0.1554  1.0440
 1942SOL    HW2 9325   6.167   1.302   9.244  0.9350 -1.4751 -1.7756
 1943SOL     OW 9326   6.030   2.411   8.126  0.1588  0.0724  0.0031
 1943SOL    HW1 9327   5.950   2.428   8.077  0.2885 -0.4644 -0.4115
 1943SOL    HW2 9328   6.009   2.433   8.216 -1.2438 -2.2988  0.3364
 1944SOL     OW 9329   0.802   5.440   7.974  0.2519 -0.0075  0.0117
 1944SOL    HW1 9330   0.742   5.384   8.023 -1.0758  0.0813 -1.4465
 1944SOL    HW2 9331   0.879   5.449   8.031  0.0579 -2.4149  0.7537
 1945SOL     OW 9332   2.336   6.955   7.343 -0.2898  0.0909  0.2821
 1945SOL    HW1 9333   2.383   6.926   7.265 -0.2947  0.7565  0.0303
 1945SOL    HW2 9334   2.405   6.974   7.407 -0.3006 -0.9119  0.6142
 1946SOL     OW 9335   0.911   7.036   6.672  0.1485  0.3310 -0.2495
 1946SOL    HW1 9336   0.908   7.065   6.763 -0.0594 -0.9225  0.1612
 1946SOL    HW2 9337   0.950   7.110   6.625  1.7677  0.4046  1.0943
 1947SOL     OW 9338   5.351   5.432   7.609 -0.2996 -0.0856  0.5021
 1947SOL    HW1 9339   5.283   5.475   7.558  1.2883  0.5870 -1.1623
 1947SOL    HW2 9340   5.391   5.503   7.660 -0.7227 -0.4526  1.3690
 1948SOL     OW 9341   6.105   7.968   8.612 -0.1731 -0.1733  0.2418
 1948SOL    HW1 9342   6.136   8.021   8.685 -1.0573  1.1410 -0.2870
 1948SOL    HW2 9343   6.182   7.958   8.555 -0.3570  2.0362 -0.4824
 1949SOL     OW 9344   4.731   7.559   0.319  0.4964  0.6247  0.2101
 1949SOL    HW1 9345   4.674   7.484   0.335  0.4777  0.8122  1.0555
 1949SOL    HW2 9346   4.728   7.572   0.224  0.9674 -0.8160 -0.0206
 1950SOL     OW 9347   3.845   7.176   8.877  0.5872 -0.0173  0.1099
 1950SOL    HW1 9348   3.820   7.083   8.877 -0.4478  0.2573  0.0226
 1950SOL    HW2 9349   3.799   7.213   8.952 -0.2414  0.7500 -0.7560
 1951SOL     OW 9350   0.287   3.175   0.160 -0.1712 -0.1413 -0.5501
 1951SOL    HW1 9351   0.204   3.132   0.139 -0.6393  0.0475  0.8090
 1951SOL    HW2 9352   0.281   3.194   0.254  1.1184  0.5177 -0.5807
 1952SOL     OW 9353   0.017   1.091   8.924 -0.6732  0.8958  0.3544
 1952SOL    HW1 9354  -0.041   1.145   8.870 -0.7804 -0.8239 -1.3939
 1952SOL    HW2 9355   0.042   1.018   8.866  2.8579  1.2802  1.1664
 1953SOL     OW 9356   5.613   8.969   5.731 -0.0414  0.0189 -0.3018
 1953SOL    HW1 9357   5.683   8.936   5.786  0.1595  1.2616  0.2395
 1953SOL    HW2 9358   5.658   9.019   5.662 -0.3463  2.3415  1.0498
 1954SOL     OW 9359   4.587   8.660   8.992 -0.0657 -0.2839 -0.3749
 1954SOL    HW1 9360   4.598   8.669   8.897  2.2476  0.0286 -0.1234
 1954SOL    HW2 9361   4.639   8.731   9.029 -0.2315 -0.9313  1.1662
 1955SOL     OW 9362   9.724   5.320   9.247  0.0437  0.4982 -0.3766
 1955SOL    HW1 9363   9.695   5.276   9.326 -1.3208  2.0818  0.0489
 1955SOL    HW2 9364   9.773   5.253   9.199  1.0748 -0.4556  1.8517
 1956SOL     OW 9365   1.225   3.190   1.634 -0.3277 -0.3529 -0.4373
 1956SOL    HW1 9366   1.228   3.265   1.693  0.4739 -0.7647  0.0727
 1956SOL    HW2 9367   1.146   3.143   1.659 -0.1567 -0.3608  0.1119
 1957SOL     OW 9368   5.467   2.594   3.128  0.3904  0.4759  0.4998
 1957SOL    HW1 9369   5.526   2.519   3.134  0.4737  0.5497  0.5996
 1957SOL    HW2 9370   5.384   2.562   3.165  0.2248  0.2257 -0.0832
 1958SOL     OW 9371   1.097   3.125   3.685 -0.3390 -0.4402  0.4993
 1958SOL    HW1 9372   1.064   3.043   3.647  0.6540 -0.5312 -0.2104
 1958SOL    HW2 9373   1.045   3.138   3.764 -0.5165 -1.7567  0.6174
 1959SOL     OW 9374  11.003   1.677   5.639  0.6016 -0.4872 -0.6932
 1959SOL    HW1 9375  11.022   1.746   5.702  1.2654  0.5654 -1.9949
 1959SOL    HW2 9376  10.926   1.632   5.675  0.7843  0.2645  0.6905
 1960SOL     OW 9377   9.532   4.222   6.376  0.0308  0.5036  0.4017
 1960SOL    HW1 9378   9.620   4.248   6.405 -0.0456  1.6883 -0.3281
 1960SOL    HW2 9379   9.547   4.149   6.316  0.6890  1.6236 -0.8677
 1961SOL     OW 9380   3.965   3.243   0.911  0.1947 -0.0151 -0.2707
 1961SOL    HW1 9381   3.922   3.261   0.994  0.3108 -0.8572 -0.0210
 1961SOL    HW2 9382   3.923   3.303   0.849 -0.0165  0.4930  0.3463
 1962SOL     OW 9383   6.259   5.141   2.665 -0.3771  1.0965 -0.6214
 1962SOL    HW1 9384   6.314   5.132   2.743 -0.1938 -1.2434 -0.9416
 1962SOL    HW2 9385   6.223   5.053   2.651 -1.2820  1.7201 -2.5271
 1963SOL     OW 9386   3.193   7.198  10.351 -0.6256 -0.1840  0.4321
 1963SOL    HW1 9387   3.173   7.109  10.381 -0.5189 -0.2530  0.2962
 1963SOL    HW2 9388   3.116   7.225  10.302 -1.0379  0.1376  1.2307
 1964SOL     OW 9389   7.895   7.927   1.440  0.2480  0.3050 -0.1360
 1964SOL    HW1 9390   7.937   7.973   1.512 -1.5322  0.0068  1.1748
 1964SOL    HW2 9391   7.875   7.995   1.375  1.3228  0.6763 -0.0874
 1965SOL     OW 9392   4.207   4.092   7.031 -0.5190 -0.6473 -0.3254
 1965SOL    HW1 9393   4.225   4.115   7.122  1.3033  0.9561 -1.0149
 1965SOL    HW2 9394   4.120   4.127   7.013 -1.1660 -1.5204  0.9246
 1966SOL     OW 9395   6.962   9.717   8.102  0.1312 -0.0216  0.4190
 1966SOL    HW1 9396   6.881   9.675   8.072 -0.4862  1.4353 -0.0151
 1966SOL    HW2 9397   6.988   9.773   8.029  1.0754  0.1751  0.9007
 1967SOL     OW 9398  10.133   8.672   0.223  0.2241 -0.5059 -0.3568
 1967SOL    HW1 9399  10.071   8.744   0.234 -1.9278 -1.8982 -2.2670
 1967SOL    HW2 9400  10.141   8.661   0.129  1.4116 -1.9942 -0.1243
 1968SOL     OW 9401  10.553   4.876   1.164  0.5439  0.1088  0.3340
 1968SOL    HW1 9402  10.568   4.814   1.234  0.1709 -0.3708 -0.0076
 1968SOL    HW2 9403  10.571   4.827   1.084 -0.4001  0.2455  0.0310
 1969SOL     OW 9404   6.924   1.211   0.698  0.2160 -0.1565 -1.2117
 1969SOL    HW1 9405   6.941   1.158   0.620 -0.8295 -0.7753 -1.0365
 1969SOL    HW2 9406   6.839   1.180   0.730  1.4431 -1.2388  1.2493
 1970SOL     OW 9407   0.078   3.621   8.821  0.2513 -0.1842  0.8130
 1970SOL    HW1 9408   0.130   3.542   8.839 -0.1957 -0.0624  2.9194
 1970SOL    HW2 9409  -0.011   3.588   8.807  0.1065 -0.0945  1.4763
 1971SOL     OW 9410   0.469   9.743  10.097  0.3305 -0.2629 -0.0161
 1971SOL    HW1 9411   0.458   9.746  10.192  1.3291 -0.7395  0.1266
 1971SOL    HW2 9412   0.418   9.667  10.069 -2.2244  1.3931 -0.2398
 1972SOL     OW 9413   6.416   7.243   0.223  0.0704 -0.1574 -0.5586
 1972SOL    HW1 9414   6.436   7.229   0.131  0.8065 -3.2846 -0.0403
 1972SOL    HW2 9415   6.327   7.279   0.223  0.5483  1.2062 -2.4675
 1973SOL     OW 9416   7.342   8.063   1.115 -0.5022 -0.0018 -0.2308
 1973SOL    HW1 9417   7.381   8.073   1.201 -1.3080 -1.2318  0.2954
 1973SOL    HW2 9418   7.265   8.119   1.117 -0.6636 -0.2273 -0.0515
 1974SOL     OW 9419   6.009   3.901   3.699 -0.0821 -0.7203 -0.3218
 1974SOL    HW1 9420   5.980   3.981   3.655 -2.1060 -0.7166  0.8538
 1974SOL    HW2 9421   5.998   3.921   3.792  0.7454 -1.8979  0.0423
 1975SOL     OW 9422   3.740   3.736   4.864 -0.1332  0.5935 -0.0638
 1975SOL    HW1 9423   3.691   3.657   4.845  0.1312  0.3069  0.4181
 1975SOL    HW2 9424   3.832   3.711   4.855 -0.0620  1.2391 -1.3970
 1976SOL     OW 9425   1.384   4.323  10.456 -0.0336  0.2622 -0.1698
 1976SOL    HW1 9426   1.390   4.316  10.361  0.2204  0.1443 -0.1459
 1976SOL    HW2 9427   1.302   4.369  10.472  1.4369  3.2395 -0.5816
 1977SOL     OW 9428   4.599   0.623   8.687 -0.6965  0.0979 -0.3928
 1977SOL    HW1 9429   4.521   0.574   8.658 -0.9486  0.3556 -0.1549
 1977SOL    HW2 9430   4.633   0.662   8.606 -1.8655  1.4783 -0.2509
 1978SOL     OW 9431   2.903   0.865   3.669 -0.2971  0.1538 -0.1893
 1978SOL    HW1 9432   2.959   0.793   3.700 -1.3619 -1.0059 -0.8917
 1978SOL    HW2 9433   2.931   0.940   3.721 -0.0259 -1.0536  1.5007
 1979SOL     OW 9434   4.057  10.999   6.930 -0.2687  0.1270  0.4605
 1979SOL    HW1 9435   4.079  10.906   6.928 -1.9539 -0.3433  1.6652
 1979SOL    HW2 9436   4.095  11.034   6.849 -1.3574 -2.0214 -1.0940
 1980SOL     OW 9437   1.123   5.602   1.370 -0.3847  0.3321 -0.6325
 1980SOL    HW1 9438   1.156   5.518   1.402 -2.4617 -0.0660  0.6186
 1980SOL    HW2 9439   1.187   5.629   1.304  1.1692 -1.4534  0.0481
 1981SOL     OW 9440   2.765   5.716   8.810  0.0676  0.4741  0.1367
 1981SOL    HW1 9441   2.841   5.735   8.756 -0.3004  0.2927 -0.4566
 1981SOL    HW2 9442   2.693   5.704   8.747 -0.1925 -0.5727  0.6082
 1982SOL     OW 9443   0.994  10.585   2.329  0.2704  0.5192 -0.0601
 1982SOL    HW1 9444   0.901  10.595   2.350  0.8627  1.3575  2.5999
 1982SOL    HW2 9445   1.011  10.651   2.262 -0.7716  1.3306  0.4521
 1983SOL     OW 9446   5.181  10.409   1.047  0.4973 -0.0892  0.1454
 1983SOL    HW1 9447   5.116  10.350   1.085  0.0434 -0.7713 -1.5942
 1983SOL    HW2 9448   5.258  10.400   1.103  0.1597 -1.7225  0.3968
 1984SOL     OW 9449   3.865   8.517   4.831 -0.1539 -0.0977  0.1514
 1984SOL    HW1 9450   3.914   8.510   4.913 -1.2352 -0.6555  0.7690
 1984SOL    HW2 9451   3.827   8.430   4.818 -0.4187  0.1329 -0.6742
 1985SOL     OW 9452   7.549   7.482  10.912 -0.1776 -0.0873  0.2267
 1985SOL    HW1 9453   7.630   7.526  10.937  0.8495 -2.4218  1.2439
 1985SOL    HW2 9454   7.540   7.501  10.818 -0.0748  2.5722  0.6672
 1986SOL     OW 9455   3.613  10.679   6.501 -0.0376  0.2877 -0.0736
 1986SOL    HW1 9456   3.589  10.597   6.459 -0.3556 -0.0743  0.7764
 1986SOL    HW2 9457   3.621  10.656   6.594 -0.3606  1.2670  0.2042
 1987SOL     OW 9458   9.459   9.531   3.781 -0.1016  0.1071  0.5861
 1987SOL    HW1 9459   9.528   9.572   3.834  0.5094 -1.4469  1.0394
 1987SOL    HW2 9460   9.506   9.469   3.725 -0.7404  1.5504 -1.6935
 1988SOL     OW 9461   8.227   2.689   9.869 -0.1142 -0.0855  0.8273
 1988SOL    HW1 9462   8.147   2.686   9.817 -0.1381  0.7373  0.8079
 1988SOL    HW2 9463   8.297   2.692   9.804 -0.1506  1.1196  0.8194
 1989SOL     OW 9464   8.013   8.324   9.600  0.1234 -0.3930  0.4544
 1989SOL    HW1 9465   7.930   8.345   9.643  0.6585  0.0174  1.2970
 1989SOL    HW2 9466   8.014   8.229   9.596 -1.0635 -0.3923 -0.9154
 1990SOL     OW 9467   8.915  10.061   4.635 -0.7492  0.5647 -0.0886
 1990SOL    HW1 9468   8.997  10.020   4.607 -0.2714  2.4282 -1.6574
 1990SOL    HW2 9469   8.940  10.116   4.709 -1.1964 -1.0556  1.3387
 1991SOL     OW 9470   4.081   0.670   3.147  0.0855 -0.5813 -0.2984
 1991SOL    HW1 9471   3.990   0.660   3.120 -0.4498 -2.0445  1.8161
 1991SOL    HW2 9472   4.125   0.708   3.070 -2.6523  2.1391 -0.7080
 1992SOL     OW 9473   3.468   3.855   8.631 -0.3903  0.0818 -0.5090
 1992SOL    HW1 9474   3.442   3.911   8.704 -0.8844  0.8853 -1.2746
 1992SOL    HW2 9475   3.558   3.880   8.613  0.2346 -1.1497  0.7381
 1993SOL     OW 9476   8.456   9.565   0.642 -0.0952  0.7322 -0.3130
 1993SOL    HW1 9477   8.488   9.481   0.609  1.1581  1.7395 -1.8640
 1993SOL    HW2 9478   8.534   9.610   0.672 -0.2954  2.3552 -2.0122
 1994SOL     OW 9479   9.849   8.053   5.010  0.2462  0.3481 -0.4894
 1994SOL    HW1 9480   9.768   8.028   4.965 -0.7221  0.6173  1.0068
 1994SOL    HW2 9481   9.846   8.004   5.092  2.2355 -0.5677 -0.9175
 1995SOL     OW 9482   8.144   9.751   2.478 -0.2539  0.0248 -0.1474
 1995SOL    HW1 9483   8.135   9.703   2.395 -0.9094 -0.3563  0.1378
 1995SOL    HW2 9484   8.162   9.841   2.451  1.2246 -0.4067 -0.6875
 1996SOL     OW 9485   7.514  10.703   9.862 -0.1528  0.1627  0.2650
 1996SOL    HW1 9486   7.597  10.747   9.844  0.0421  0.4604  1.7570
 1996SOL    HW2 9487   7.455  10.773   9.888 -0.8647 -0.0637 -0.6999
 1997SOL     OW 9488   9.878   3.303   2.128  0.2494 -0.1611 -0.3016
 1997SOL    HW1 9489   9.813   3.327   2.193  0.3715 -0.5198 -0.0427
 1997SOL    HW2 9490   9.828   3.280   2.050  0.0939  0.0649 -0.2671
 1998SOL     OW 9491   9.252   3.807   7.080 -0.1549  0.8195  0.9100
 1998SOL    HW1 9492   9.285   3.891   7.112  0.4373 -0.0397  2.6712
 1998SOL    HW2 9493   9.175   3.789   7.135 -0.6365  0.4647  0.1431
 1999SOL     OW 9494   6.924   6.565   5.056  0.1303  0.0344  0.6253
 1999SOL    HW1 9495   6.890   6.519   4.979  2.1957 -1.9719  0.8195
 1999SOL    HW2 9496   6.870   6.534   5.128 -2.2985  2.4638  0.0370
 2000SOL     OW 9497   5.352   1.924   0.566  0.0939  0.0153  0.4026
 2000SOL    HW1 9498   5.364   1.999   0.508 -0.7407  1.4083  1.9501
 2000SOL    HW2 9499   5.430   1.924   0.622  0.0473 -0.2404  0.4711
 2001SOL     OW 9500   8.444   7.736   1.876 -0.0493 -0.0411  0.1706
 2001SOL    HW1 9501   8.529   7.695   1.862 -0.3724 -0.8540  0.5310
 2001SOL    HW2 9502   8.438   7.747   1.971 -0.7221 -0.8570  0.2393
 2002SOL     OW 9503   7.929   3.684   6.052  0.1718  0.3131  0.0066
 2002SOL    HW1 9504   8.010   3.643   6.081  0.6953  1.0194 -0.4207
 2002SOL    HW2 9505   7.949   3.717   5.965  0.4806  3.2915  1.0804
 2003SOL     OW 9506   3.171   5.398  10.774  0.6851 -0.1000  0.2651
 2003SOL    HW1 9507   3.152   5.315  10.817  0.5034 -0.2611 -0.1177
 2003SOL    HW2 9508   3.138   5.465  10.834  1.5425 -0.2660  0.9433
 2004SOL     OW 9509   4.486   2.900   2.200 -0.4475 -0.1948 -0.0443
 2004SOL    HW1 9510   4.571   2.933   2.170 -0.3690 -0.5851 -0.2551
 2004SOL    HW2 9511   4.440   2.978   2.230 -1.0104  0.4216 -2.3183
 2005SOL     OW 9512  10.316   8.535   8.621  0.0747  0.6521 -0.9147
 2005SOL    HW1 9513  10.250   8.564   8.684 -1.2601  0.9141 -2.3653
 2005SOL    HW2 9514  10.285   8.449   8.592  1.3427 -0.0323 -0.3413
 2006SOL     OW 9515   3.843   9.594   1.117  0.8522 -0.0836  0.4450
 2006SOL    HW1 9516   3.897   9.673   1.115  0.4529  0.1927 -1.0796
 2006SOL    HW2 9517   3.874   9.542   1.043 -0.2649 -0.3894  0.1778
 2007SOL     OW 9518   5.785   1.580   9.681 -0.1066 -0.3692 -0.1134
 2007SOL    HW1 9519   5.832   1.543   9.606  0.3446 -0.8754  0.4102
 2007SOL    HW2 9520   5.853   1.597   9.745 -0.6006 -0.8352  0.5486
 2008SOL     OW 9521   8.041   2.312   2.662 -0.1757  0.6293  0.1840
 2008SOL    HW1 9522   8.093   2.354   2.731  0.5830  1.6638 -0.9737
 2008SOL    HW2 9523   8.094   2.236   2.636  0.4717  1.3210 -0.5548
 2009SOL     OW 9524   0.528   5.025   7.131 -0.1707  0.0212  0.0831
 2009SOL    HW1 9525   0.580   4.992   7.205  1.0390 -0.1829 -0.8197
 2009SOL    HW2 9526   0.538   4.958   7.063 -2.6397 -0.6237  0.2743
 2010SOL     OW 9527   7.351   0.720   3.089 -0.4684 -1.2188 -0.1478
 2010SOL    HW1 9528   7.439   0.756   3.103 -0.5716 -1.3807  0.9635
 2010SOL    HW2 9529   7.297   0.797   3.070  0.1918 -1.2538 -2.5239
 2011SOL     OW 9530   9.644   4.800   6.884 -0.2662 -0.3157 -0.1937
 2011SOL    HW1 9531   9.684   4.837   6.805  0.3894 -0.3550  0.1125
 2011SOL    HW2 9532   9.619   4.877   6.936  2.6831 -0.2048  1.2443
 2012SOL     OW 9533   4.912   7.951   7.209  0.0162  0.0785  0.3862
 2012SOL    HW1 9534   4.837   7.962   7.268 -0.1546 -1.0457  0.4191
 2012SOL    HW2 9535   4.897   8.014   7.139 -0.5949  0.3532  0.7553
 2013SOL     OW 9536   3.071  10.883   7.124  0.1591 -0.0522  0.1797
 2013SOL    HW1 9537   3.129  10.914   7.054  0.4745 -0.2760  0.3429
 2013SOL    HW2 9538   3.112  10.914   7.205  0.8324 -1.4417  0.3985
 2014SOL     OW 9539   0.184  10.863   5.545  0.2424  0.0847  0.2303
 2014SOL    HW1 9540   0.254  10.800   5.561 -0.1355 -0.4112 -0.0353
 2014SOL    HW2 9541   0.229  10.942   5.513  0.6499 -0.3518 -0.2842
 2015SOL     OW 9542   6.854   2.853   6.519  0.4481 -0.4271  0.2016
 2015SOL    HW1 9543   6.766   2.891   6.521 -0.5409 -2.5139 -0.8058
 2015SOL    HW2 9544   6.912   2.928   6.506 -1.2389  0.9207  0.0795
 2016SOL     OW 9545   2.114   6.759   0.296  0.3026  0.1649  0.6015
 2016SOL    HW1 9546   2.092   6.669   0.273  1.2436  0.4580 -1.7223
 2016SOL    HW2 9547   2.031   6.807   0.289  0.3241  0.0004 -1.1786
 2017SOL     OW 9548   0.879   6.365   6.554 -0.4465  0.6993  0.4279
 2017SOL    HW1 9549   0.968   6.332   6.542 -0.1827  0.9552  1.6124
 2017SOL    HW2 9550   0.857   6.344   6.645 -0.9136  2.2604  0.7089
 2018SOL     OW 9551   7.440   6.701   3.394  0.6064  0.0937  0.3718
 2018SOL    HW1 9552   7.454   6.606   3.387  2.3517  0.3641 -0.5442
 2018SOL    HW2 9553   7.351   6.714   3.360  0.1877 -1.2393  0.8637
 2019SOL     OW 9554   2.570   3.564   6.620  0.7115 -0.0390 -0.3875
 2019SOL    HW1 9555   2.492   3.614   6.646 -0.7063 -2.3721  0.0612
 2019SOL    HW2 9556   2.634   3.583   6.688  0.2812  1.2727 -0.3205
 2020SOL     OW 9557   0.443   7.101   1.453  0.0251 -0.1908  0.8052
 2020SOL    HW1 9558   0.491   7.024   1.485  0.6668  0.2638  0.9531
 2020SOL    HW2 9559   0.476   7.173   1.507 -0.7534  0.1454  0.8315
 2021SOL     OW 9560   3.837   4.617   8.023  0.1954 -0.1732 -0.0413
 2021SOL    HW1 9561   3.859   4.532   7.984  0.6716 -0.0656 -0.0171
 2021SOL    HW2 9562   3.791   4.664   7.953 -1.1456 -0.8859  0.3285
 2022SOL     OW 9563   1.927   8.329   7.409 -0.6616  0.3592  0.3436
 2022SOL    HW1 9564   1.872   8.405   7.393 -0.6245  0.4127  0.4617
 2022SOL    HW2 9565   1.958   8.303   7.323 -1.4436 -0.1127  0.1979
 2023SOL     OW 9566   3.457   5.057   7.033  0.1833  0.3659 -0.1297
 2023SOL    HW1 9567   3.397   4.996   7.077  1.8615 -1.4334 -0.1952
 2023SOL    HW2 9568   3.500   5.104   7.105  0.4128 -0.0771  0.0272
 2024SOL     OW 9569   9.595   1.898   1.390  0.3645 -0.4653  0.1395
 2024SOL    HW1 9570   9.614   1.987   1.360 -1.9631 -0.4968 -1.8186
 2024SOL    HW2 9571   9.539   1.910   1.466 -1.2623 -0.1395 -1.0478
 2025SOL     OW 9572   1.666   7.704   4.894  0.2640  0.0142 -0.1308
 2025SOL    HW1 9573   1.747   7.700   4.843  0.5448 -0.1739  0.3215
 2025SOL    HW2 9574   1.603   7.651   4.845  1.0482 -1.7103  0.6472
 2026SOL     OW 9575   5.731   1.172   9.654 -0.4197 -0.2702  0.2097
 2026SOL    HW1 9576   5.745   1.240   9.720 -0.6884 -0.3846  0.3845
 2026SOL    HW2 9577   5.819   1.154   9.620 -0.3728  0.3212  0.0012
 2027SOL     OW 9578   3.914   7.398  10.034  0.4091  0.5546 -0.4047
 2027SOL    HW1 9579   3.946   7.403  10.124  0.6340  0.4731 -0.4805
 2027SOL    HW2 9580   3.820   7.414  10.042  0.8725  4.2557 -0.5297
 2028SOL     OW 9581   2.438   1.511  10.107 -0.4542 -0.2470  0.4486
 2028SOL    HW1 9582   2.508   1.489  10.168  0.1624  0.5802  0.0679
 2028SOL    HW2 9583   2.433   1.607  10.111  1.2868  0.1040 -2.5628
 2029SOL     OW 9584   6.346   0.760   4.692 -0.0260 -0.2950 -0.2147
 2029SOL    HW1 9585   6.261   0.770   4.648  0.0217 -2.6664 -0.9820
 2029SOL    HW2 9586   6.404   0.822   4.648 -0.2458 -1.8751 -2.9072
 2030SOL     OW 9587   7.968   0.917   7.041  0.4631 -0.1084  0.9028
 2030SOL    HW1 9588   7.954   0.822   7.040  0.9626 -0.2323 -1.8205
 2030SOL    HW2 9589   7.886   0.952   7.077 -0.6184 -1.5069 -0.0491
 2031SOL     OW 9590   6.340   7.143   3.550  0.0734  0.2933 -0.3403
 2031SOL    HW1 9591   6.406   7.211   3.567  1.3668 -1.1400  0.6562
 2031SOL    HW2 9592   6.262   7.173   3.597  1.3369  0.0114  2.0673
 2032SOL     OW 9593   7.909   0.141   4.388 -0.1922 -0.4619  0.1719
 2032SOL    HW1 9594   7.913   0.092   4.306 -0.2368 -0.1493 -0.0218
 2032SOL    HW2 9595   7.928   0.077   4.456  1.6648 -0.3804 -0.2079
 2033SOL     OW 9596   1.839   8.181   7.791 -0.2161  0.1231  0.0996
 2033SOL    HW1 9597   1.932   8.165   7.778 -0.4507 -0.2639 -1.3297
 2033SOL    HW2 9598   1.826   8.174   7.885  1.6449  2.7360  0.6698
 2034SOL     OW 9599   5.276   6.572   9.591 -0.8075 -0.1728  0.5856
 2034SOL    HW1 9600   5.307   6.601   9.505  1.1603 -0.2239  1.2240
 2034SOL    HW2 9601   5.294   6.478   9.593  1.3352  0.1916  1.8389
 2035SOL     OW 9602   5.330   8.802   9.921  0.2435  0.1918  0.2666
 2035SOL    HW1 9603   5.413   8.755   9.918 -0.1847 -0.6354  0.9702
 2035SOL    HW2 9604   5.264   8.734   9.910 -0.3384  1.0270 -1.8558
 2036SOL     OW 9605   5.104   4.602   1.528  0.0421  0.4096  0.2786
 2036SOL    HW1 9606   5.184   4.648   1.500  1.8887 -2.0886  1.1029
 2036SOL    HW2 9607   5.118   4.584   1.620 -2.2912  1.3394  0.8776
 2037SOL     OW 9608   9.928   8.166   7.307 -0.3273 -0.0767  0.3785
 2037SOL    HW1 9609   9.931   8.211   7.222  1.6175 -2.1513 -0.7435
 2037SOL    HW2 9610   9.925   8.073   7.285 -0.6793 -0.6497  2.6152
 2038SOL     OW 9611   2.848   8.094   9.938 -0.0964 -0.0468 -0.2827
 2038SOL    HW1 9612   2.924   8.054   9.895  2.2829  1.2794  2.3752
 2038SOL    HW2 9613   2.843   8.182   9.900 -2.1280 -0.9654 -2.3979
 2039SOL     OW 9614   8.637   9.862   6.914  0.1845 -0.3496  0.4845
 2039SOL    HW1 9615   8.562   9.897   6.962  0.8171  0.4615  0.8978
 2039SOL    HW2 9616   8.701   9.934   6.913  0.4775 -0.5959 -0.9333
 2040SOL     OW 9617   1.000   7.845   1.269  0.2475  0.1657 -0.3799
 2040SOL    HW1 9618   1.056   7.889   1.332  0.7256 -0.5647 -0.2793
 2040SOL    HW2 9619   0.911   7.864   1.299  0.4581  0.3837  0.1228
 2041SOL     OW 9620   2.997  10.818   4.829 -0.2129  0.2808 -0.7518
 2041SOL    HW1 9621   3.083  10.844   4.861 -0.5723 -0.7072  1.1745
 2041SOL    HW2 9622   3.012  10.794   4.737  1.7069 -0.5066 -0.2909
 2042SOL     OW 9623   6.106   4.245   5.299  0.0169  0.6375 -0.5839
 2042SOL    HW1 9624   6.177   4.242   5.234  0.3295  1.1843 -0.2740
 2042SOL    HW2 9625   6.149   4.276   5.379 -0.5517  0.8817 -0.3718
 2043SOL     OW 9626   5.172   3.538   5.997  0.4956  0.2553 -0.1469
 2043SOL    HW1 9627   5.214   3.611   5.952 -0.4908  0.5465 -0.6138
 2043SOL    HW2 9628   5.084   3.535   5.961  0.7592 -1.6766 -0.7469
 2044SOL     OW 9629   8.055   3.409  10.367  0.2872  0.8264  0.3367
 2044SOL    HW1 9630   8.059   3.470  10.293 -0.1439  1.1697  0.5932
 2044SOL    HW2 9631   8.011   3.332  10.332 -3.5929  2.4463  1.2030
 2045SOL     OW 9632   1.416   2.863  10.630 -0.4971 -0.0234 -0.1368
 2045SOL    HW1 9633   1.380   2.947  10.658 -1.2432 -0.2887 -0.2935
 2045SOL    HW2 9634   1.395   2.858  10.537 -1.4842 -0.9073  0.1252
 2046SOL     OW 9635   1.679   8.364   6.792 -0.1515  0.1999  0.5234
 2046SOL    HW1 9636   1.706   8.455   6.777 -2.1492  0.8642  0.6158
 2046SOL    HW2 9637   1.728   8.314   6.727  0.1487  1.5059 -0.3057
 2047SOL     OW 9638   1.214   7.476   4.530 -0.1507 -0.4685 -0.9237
 2047SOL    HW1 9639   1.259   7.395   4.508  0.0657 -0.2641 -1.2364
 2047SOL    HW2 9640   1.151   7.451   4.598  1.2521 -0.5428  0.4059
 2048SOL     OW 9641   6.926   0.995   8.856  0.1051 -0.1000 -0.1960
 2048SOL    HW1 9642   6.831   0.995   8.840  0.0335 -0.2561  0.2262
 2048SOL    HW2 9643   6.940   0.922   8.916  0.5626 -0.3924 -0.6471
 2049SOL     OW 9644   1.154   7.759   4.642  0.3536 -0.2488 -0.1728
 2049SOL    HW1 9645   1.094   7.705   4.694  1.1327 -0.2804  0.7201
 2049SOL    HW2 9646   1.189   7.698   4.577  1.3430 -0.8962  0.9257
 2050SOL     OW 9647   7.194   1.004   3.632  0.3038  0.3234  0.0715
 2050SOL    HW1 9648   7.199   1.039   3.720 -1.8708 -1.5733  1.0711
 2050SOL    HW2 9649   7.109   1.035   3.599 -0.0028 -0.9260 -0.3862
 2051SOL     OW 9650   5.971   3.117   6.464  0.1789  0.1449  0.0605
 2051SOL    HW1 9651   5.925   3.045   6.421  0.7032  0.0463 -0.3536
 2051SOL    HW2 9652   6.043   3.074   6.512 -0.8781  0.1627  1.7416
 2052SOL     OW 9653   4.960   0.880   2.414  0.1741  0.7980  0.0243
 2052SOL    HW1 9654   4.936   0.827   2.490  1.1607  1.6167  0.9266
 2052SOL    HW2 9655   5.027   0.940   2.446  1.0467  0.7683 -1.6296
 2053SOL     OW 9656  10.499  10.757   6.203  0.3194 -0.0511 -0.6168
 2053SOL    HW1 9657  10.444  10.810   6.260  0.2088  0.2829 -1.0340
 2053SOL    HW2 9658  10.493  10.669   6.240  0.2820  0.1703 -0.0896
 2054SOL     OW 9659   3.597   9.576   9.788  0.1064 -0.0880  0.1180
 2054SOL    HW1 9660   3.599   9.614   9.700  0.3387  1.3003  0.6993
 2054SOL    HW2 9661   3.672   9.614   9.833 -0.0731 -0.6969  0.9634
 2055SOL     OW 9662  10.755   9.899   6.127 -0.3950  0.2278 -0.4320
 2055SOL    HW1 9663  10.764   9.825   6.068 -1.4357  0.8057 -1.3557
 2055SOL    HW2 9664  10.842   9.910   6.166  0.3152 -0.1595 -1.8564
 2056SOL     OW 9665   1.035   1.294   8.107 -0.3335  0.5958 -0.2521
 2056SOL    HW1 9666   1.063   1.381   8.078  0.0567  0.5681  0.0321
 2056SOL    HW2 9667   0.959   1.274   8.052 -1.0389  1.5330  0.3556
 2057SOL     OW 9668   9.249   0.757  10.542 -0.6574 -0.4045 -0.0328
 2057SOL    HW1 9669   9.267   0.815  10.616  1.5660  1.0024 -1.5424
 2057SOL    HW2 9670   9.314   0.687  10.550 -0.4768 -0.3026 -0.5774
 2058SOL     OW 9671   6.903   1.741   4.214  0.2471 -0.3767 -0.1249
 2058SOL    HW1 9672   6.931   1.699   4.133 -0.4632 -0.4266 -0.3533
 2058SOL    HW2 9673   6.807   1.739   4.211  0.1935 -1.3933  1.2508
 2059SOL     OW 9674   1.762   4.993   7.877  0.3531  0.2298 -0.0373
 2059SOL    HW1 9675   1.823   5.007   7.949  1.7464 -0.1848 -1.0972
 2059SOL    HW2 9676   1.817   4.982   7.800 -0.8992 -2.7042 -0.6590
 2060SOL     OW 9677   5.577   7.792   7.996 -0.8295 -0.5651  0.2982
 2060SOL    HW1 9678   5.525   7.728   7.946  0.7001 -1.9977  0.4554
 2060SOL    HW2 9679   5.660   7.748   8.012  0.7864  1.9291 -0.6459
 2061SOL     OW 9680   3.046  10.742   4.551 -0.0769  0.2427  0.3749
 2061SOL    HW1 9681   3.063  10.830   4.516  0.7909  0.1845  0.6374
 2061SOL    HW2 9682   3.007  10.694   4.477 -1.1522  1.0168  0.4045
 2062SOL     OW 9683  10.853   8.433   9.234  0.6052 -0.4871  0.1557
 2062SOL    HW1 9684  10.880   8.364   9.294 -0.7322 -0.6729  0.5737
 2062SOL    HW2 9685  10.864   8.515   9.283 -1.6013 -0.7233  1.1165
 2063SOL     OW 9686   2.139   3.200   1.436  0.4262 -0.5735 -0.7359
 2063SOL    HW1 9687   2.229   3.218   1.464  0.1579 -0.1013 -0.1618
 2063SOL    HW2 9688   2.087   3.269   1.476 -0.2781 -1.1730 -0.5867
 2064SOL     OW 9689   6.159   4.966   7.768  0.5225  0.2105 -0.5481
 2064SOL    HW1 9690   6.146   4.874   7.794 -0.1864  0.9074  1.7983
 2064SOL    HW2 9691   6.095   5.015   7.820  4.4622  2.6082  2.7388
 2065SOL     OW 9692   0.397   3.062   8.127 -0.3926  0.0982  0.4097
 2065SOL    HW1 9693   0.355   3.122   8.188 -1.1452  0.6093 -0.5886
 2065SOL    HW2 9694   0.338   3.059   8.051 -0.1273 -1.5160  0.2312
 2066SOL     OW 9695  10.373   8.282   9.360  0.0594  0.1854  0.1276
 2066SOL    HW1 9696  10.384   8.359   9.416 -0.1242  0.7923 -0.6486
 2066SOL    HW2 9697  10.372   8.317   9.271  1.9343 -0.8933 -0.3874
 2067SOL     OW 9698   7.264   1.777   3.253 -0.1545  0.3292 -1.0265
 2067SOL    HW1 9699   7.209   1.740   3.184 -0.3473  0.7594 -1.1066
 2067SOL    HW2 9700   7.331   1.711   3.269 -1.8658 -1.1412  0.5158
 2068SOL     OW 9701   7.061   1.916   8.857 -0.3485  0.1417  0.4321
 2068SOL    HW1 9702   7.113   1.918   8.937 -0.4134 -0.5063  0.4976
 2068SOL    HW2 9703   7.126   1.912   8.787 -0.2976  0.1095  0.4811
 2069SOL     OW 9704   5.669   9.623   3.626  0.1245 -0.0213  1.1264
 2069SOL    HW1 9705   5.661   9.532   3.599 -0.3459  0.0443  1.0423
 2069SOL    HW2 9706   5.737   9.660   3.569 -0.0805 -0.1721  0.7885
 2070SOL     OW 9707   3.427   4.073   6.752 -0.4258  0.4132 -1.0731
 2070SOL    HW1 9708   3.432   4.168   6.744 -0.4856  0.4142 -1.0965
 2070SOL    HW2 9709   3.337   4.051   6.728  0.0478  0.1762 -2.7249
 2071SOL     OW 9710   9.330   6.944   2.835  0.2618 -0.3323 -0.3081
 2071SOL    HW1 9711   9.275   7.019   2.813 -1.1633 -0.4415  2.4133
 2071SOL    HW2 9712   9.275   6.867   2.818  1.5812 -0.8513 -2.7283
 2072SOL     OW 9713   2.612   3.869   0.036  0.2852  0.4574 -0.0319
 2072SOL    HW1 9714   2.679   3.877   0.104 -0.9180 -3.8563  2.0523
 2072SOL    HW2 9715   2.538   3.920   0.069  0.2582 -0.3442  1.2424
 2073SOL     OW 9716   6.920   8.619   6.032  0.0664  0.3933  0.0718
 2073SOL    HW1 9717   6.858   8.563   5.985  0.4983  1.1844 -1.5360
 2073SOL    HW2 9718   6.872   8.701   6.047 -0.3770 -0.1567  1.9077
 2074SOL     OW 9719   6.911  10.040   5.872  0.6412 -0.0452  0.1526
 2074SOL    HW1 9720   6.848  10.043   5.800  1.9166 -1.2874 -1.0873
 2074SOL    HW2 9721   6.970  10.114   5.855  1.5770 -0.9576 -0.7550
 2075SOL     OW 9722   7.318  10.201   9.605 -0.6833 -0.3454  0.4096
 2075SOL    HW1 9723   7.374  10.158   9.669  0.1316 -0.5157 -0.4089
 2075SOL    HW2 9724   7.322  10.294   9.628  0.0387 -0.3437  0.2750
 2076SOL     OW 9725   5.924   7.723   8.026  0.3138 -0.0769  0.3708
 2076SOL    HW1 9726   5.921   7.699   7.933 -0.2521  0.4013  0.2619
 2076SOL    HW2 9727   5.958   7.813   8.026  0.4228 -0.1186  0.6336
 2077SOL     OW 9728   4.596   4.323   8.162 -0.2539  0.6337 -0.0956
 2077SOL    HW1 9729   4.626   4.233   8.157  0.2233  0.8063 -0.4367
 2077SOL    HW2 9730   4.501   4.317   8.167 -0.1811  0.0864  0.7080
 2078SOL     OW 9731   0.902   0.115   1.666 -0.0564  1.1029  0.2201
 2078SOL    HW1 9732   0.972   0.092   1.728 -0.7453 -2.0737 -0.0293
 2078SOL    HW2 9733   0.944   0.108   1.580 -0.4345 -0.1048  0.1091
 2079SOL     OW 9734   6.588   9.832   0.306  0.1793 -0.4345  0.1892
 2079SOL    HW1 9735   6.543   9.752   0.278  0.5730 -0.9724  1.0389
 2079SOL    HW2 9736   6.673   9.801   0.336  0.5042  0.3711  0.0949
 2080SOL     OW 9737   6.882   6.510   9.827 -0.0820  0.2724 -1.0331
 2080SOL    HW1 9738   6.891   6.600   9.860  1.1553 -0.6689  1.4097
 2080SOL    HW2 9739   6.792   6.506   9.794  0.3070  2.8155 -2.7233
 2081SOL     OW 9740   2.589   4.327   5.615 -0.6133 -0.1498 -0.7028
 2081SOL    HW1 9741   2.549   4.406   5.650  0.9402 -0.4686  2.0370
 2081SOL    HW2 9742   2.680   4.351   5.597 -0.4209 -1.0022 -0.9234
 2082SOL     OW 9743   0.417  10.904   3.116 -0.2597 -0.6205 -0.4849
 2082SOL    HW1 9744   0.359  10.914   3.191  0.2357  1.6484 -0.3098
 2082SOL    HW2 9745   0.423  10.992   3.079 -0.2976 -1.6116 -3.0740
 2083SOL     OW 9746   9.162   9.683   8.096  0.2511  0.1563 -0.3722
 2083SOL    HW1 9747   9.201   9.757   8.142  0.7846 -0.2589 -0.1374
 2083SOL    HW2 9748   9.090   9.655   8.152  0.2157  0.3325 -0.3299
 2084SOL     OW 9749   2.258   8.158   2.764  0.2919  0.0104  0.0687
 2084SOL    HW1 9750   2.237   8.066   2.754  1.4944 -0.0598 -2.6708
 2084SOL    HW2 9751   2.354   8.161   2.767  0.3606  1.2294 -1.7340
 2085SOL     OW 9752   8.572   3.633   2.506  0.0135 -0.1130 -0.3629
 2085SOL    HW1 9753   8.569   3.572   2.580  3.3687 -0.2872 -0.2337
 2085SOL    HW2 9754   8.502   3.604   2.448 -1.6416 -0.9943  1.9283
 2086SOL     OW 9755   3.992   5.412   3.509 -0.3384  0.5100  0.0824
 2086SOL    HW1 9756   3.924   5.361   3.552  0.9512 -1.1502  0.2598
 2086SOL    HW2 9757   4.043   5.450   3.580 -0.4457  0.8822 -0.0369
 2087SOL     OW 9758   3.394   8.111   0.923  0.0807  0.0619  0.6110
 2087SOL    HW1 9759   3.410   8.019   0.903 -0.1655 -0.0334  0.8474
 2087SOL    HW2 9760   3.365   8.149   0.840  1.0921  0.1383  0.2840
 2088SOL     OW 9761   3.759   2.283   1.379 -0.2188  0.4073  0.0898
 2088SOL    HW1 9762   3.850   2.255   1.391 -0.9230 -1.6282  1.0721
 2088SOL    HW2 9763   3.728   2.303   1.467 -1.0529  0.0183 -0.1136
 2089SOL     OW 9764   1.893   0.320   0.781  0.5824  0.2589  0.2280
 2089SOL    HW1 9765   1.984   0.292   0.775  1.0648  1.4307  1.6723
 2089SOL    HW2 9766   1.897   0.415   0.789 -0.5713  0.1741  2.9058
 2090SOL     OW 9767   7.058   3.817   5.806 -0.2042  0.1670 -0.8534
 2090SOL    HW1 9768   7.078   3.805   5.713  1.1374 -0.5247 -0.5039
 2090SOL    HW2 9769   7.116   3.888   5.834  0.3413 -0.4783 -0.2861
 2091SOL     OW 9770   5.409   9.688   2.866  0.5007 -0.0249 -0.4511
 2091SOL    HW1 9771   5.383   9.779   2.852  2.1161  0.4997 -0.3100
 2091SOL    HW2 9772   5.349   9.655   2.932 -0.5872  0.6975 -1.0574
 2092SOL     OW 9773   1.209   5.015   2.307  0.1770 -0.5851  0.5525
 2092SOL    HW1 9774   1.223   5.068   2.385  0.1641  1.2082 -0.6119
 2092SOL    HW2 9775   1.239   4.927   2.331  1.2602  0.1991  2.1876
 2093SOL     OW 9776   9.251   8.111   0.710  0.3181  0.5216 -0.1047
 2093SOL    HW1 9777   9.224   8.026   0.676 -0.2177  0.7630 -0.3009
 2093SOL    HW2 9778   9.194   8.174   0.665  0.8461  1.0015 -0.1197
 2094SOL     OW 9779  10.188   9.706   9.909  0.1124  0.3932  0.1462
 2094SOL    HW1 9780  10.120   9.771   9.924  0.8242  1.4408 -0.9917
 2094SOL    HW2 9781  10.204   9.668   9.996 -1.3922  0.6220  0.5586
 2095SOL     OW 9782   6.099  10.781   5.356 -0.2285 -0.0250 -0.3324
 2095SOL    HW1 9783   6.056  10.710   5.405 -1.8732  0.8658 -0.4288
 2095SOL    HW2 9784   6.182  10.742   5.327 -0.1817 -1.2702  1.2929
 2096SOL     OW 9785   7.136  10.480   2.359 -0.7653  0.3849 -0.0961
 2096SOL    HW1 9786   7.102  10.524   2.281  1.3348  1.0257 -0.7379
 2096SOL    HW2 9787   7.109  10.536   2.432  0.0018  1.6246 -0.7113
 2097SOL     OW 9788   7.942   1.744   2.728  0.5360  0.1077 -0.1230
 2097SOL    HW1 9789   8.015   1.682   2.728  0.7595  0.3657 -0.1592
 2097SOL    HW2 9790   7.950   1.790   2.644 -0.1666 -0.4345 -0.4964
 2098SOL     OW 9791   4.443   4.783   1.546  0.3492 -0.0566 -0.8064
 2098SOL    HW1 9792   4.450   4.771   1.641  0.1043  0.0325 -0.7774
 2098SOL    HW2 9793   4.377   4.851   1.535  1.6417  1.2210 -0.9743
 2099SOL     OW 9794   5.610   1.241   5.648  0.2139 -1.3272 -0.0210
 2099SOL    HW1 9795   5.520   1.220   5.624  0.4749 -0.3469 -2.1055
 2099SOL    HW2 9796   5.652   1.156   5.660 -0.8209 -1.8065  0.3015
 2100SOL     OW 9797   5.419   5.242   5.427 -0.4447  0.3599 -0.2153
 2100SOL    HW1 9798   5.475   5.169   5.403 -0.2127 -0.4510  2.4925
 2100SOL    HW2 9799   5.465   5.319   5.392  0.2287 -0.6085 -1.5528
 2101SOL     OW 9800   3.813   1.637   7.933 -0.4256  0.2459  0.1069
 2101SOL    HW1 9801   3.733   1.589   7.954 -1.7652  0.9130 -2.9242
 2101SOL    HW2 9802   3.877   1.569   7.912 -0.3223 -0.2820  2.0056
 2102SOL     OW 9803   7.524   9.360   2.796  0.1725  0.5010 -0.2094
 2102SOL    HW1 9804   7.589   9.293   2.819  0.6833  1.4063  1.1076
 2102SOL    HW2 9805   7.564   9.408   2.724 -0.6548 -1.2259 -1.9090
 2103SOL     OW 9806   6.506   1.460   1.713 -0.1439 -0.2631  0.2136
 2103SOL    HW1 9807   6.477   1.551   1.705  0.4603 -0.1812 -1.6353
 2103SOL    HW2 9808   6.527   1.434   1.623  1.3477 -1.6805  0.9205
 2104SOL     OW 9809   9.778   9.799  10.295 -0.1205 -0.3520 -0.1500
 2104SOL    HW1 9810   9.800   9.890  10.312 -0.9798 -0.1729  0.0774
 2104SOL    HW2 9811   9.682   9.796  10.304  0.0432 -1.6253  1.5640
 2105SOL     OW 9812   4.497   9.055   0.688 -0.8692  0.6714  0.3053
 2105SOL    HW1 9813   4.515   9.148   0.675  1.1375  0.4544  1.1251
 2105SOL    HW2 9814   4.483   9.020   0.599  2.0634  1.1138 -0.4261
 2106SOL     OW 9815   4.183   3.967   1.123 -0.1707 -0.2293 -0.2352
 2106SOL    HW1 9816   4.123   3.936   1.056  1.0916 -1.0111 -1.0523
 2106SOL    HW2 9817   4.230   3.889   1.152 -0.1460  0.2276  1.0011
 2107SOL     OW 9818   8.384   0.748   3.865 -0.0610 -0.0840 -0.1998
 2107SOL    HW1 9819   8.306   0.763   3.918  0.6868 -1.1810  1.2865
 2107SOL    HW2 9820   8.457   0.776   3.920  0.6926 -0.5690 -0.9266
 2108SOL     OW 9821  10.617   7.183   4.700 -0.3091 -0.2852  0.1722
 2108SOL    HW1 9822  10.711   7.169   4.700 -0.4772 -1.4763 -0.1431
 2108SOL    HW2 9823  10.589   7.158   4.788 -0.2870  0.4429  0.3921
 2109SOL     OW 9824   8.823   3.514   0.356  0.1015 -0.0615  0.0268
 2109SOL    HW1 9825   8.876   3.560   0.420  1.1929 -0.1143 -0.8110
 2109SOL    HW2 9826   8.776   3.583   0.310  1.7062  0.2775 -1.2021
 2110SOL     OW 9827   7.599   3.794   8.909  0.2172  0.0247 -0.1325
 2110SOL    HW1 9828   7.606   3.887   8.930  0.4343  0.0986 -0.5236
 2110SOL    HW2 9829   7.543   3.758   8.978 -1.1443  0.7222 -0.8481
 2111SOL     OW 9830   6.558   3.462   9.324 -0.3508  0.1101 -0.6417
 2111SOL    HW1 9831   6.634   3.434   9.273 -1.2533 -1.0467 -1.3914
 2111SOL    HW2 9832   6.585   3.545   9.364  2.4387 -1.6681  1.6024
 2112SOL     OW 9833   5.282   9.711   0.689 -0.1325 -0.1227  0.1154
 2112SOL    HW1 9834   5.307   9.803   0.700  1.0187 -0.3897 -0.1136
 2112SOL    HW2 9835   5.198   9.714   0.644 -0.8009  0.8313  1.3514
 2113SOL     OW 9836   7.278  10.975   0.434  0.2996 -0.4546  0.5888
 2113SOL    HW1 9837   7.338  10.963   0.360 -0.3111  1.0159 -0.1707
 2113SOL    HW2 9838   7.201  10.924   0.410  0.7250 -1.3043  0.9809
 2114SOL     OW 9839   6.613  10.635   7.326  0.1249  0.3536  0.2554
 2114SOL    HW1 9840   6.697  10.590   7.330 -0.6223 -1.1701 -0.3294
 2114SOL    HW2 9841   6.561  10.594   7.395 -0.5601  0.3652 -0.2481
 2115SOL     OW 9842  10.570   0.856   3.829 -0.2559  0.5140 -0.2713
 2115SOL    HW1 9843  10.567   0.934   3.774 -0.2958 -0.0148 -1.0382
 2115SOL    HW2 9844  10.628   0.879   3.901  2.1125  0.2899 -2.0078
 2116SOL     OW 9845   2.590   6.834   0.850  0.6419 -0.0622  0.3308
 2116SOL    HW1 9846   2.635   6.845   0.933  0.6081 -1.7143  0.5948
 2116SOL    HW2 9847   2.654   6.792   0.793  0.2464 -0.1224 -0.0795
 2117SOL     OW 9848   8.832   1.232   1.151 -0.2618  0.2918 -0.1563
 2117SOL    HW1 9849   8.784   1.250   1.070  1.1360 -1.3183 -1.4215
 2117SOL    HW2 9850   8.924   1.224   1.123  0.1674 -1.0160  1.4752
 2118SOL     OW 9851   4.743   3.349  10.224  0.1149 -0.1734  0.3538
 2118SOL    HW1 9852   4.786   3.301  10.153  1.6594  1.0110  0.4413
 2118SOL    HW2 9853   4.702   3.280  10.277  2.2079 -1.4476  0.4573
 2119SOL     OW 9854   4.065   6.086   9.684  0.0415 -0.0417 -0.2630
 2119SOL    HW1 9855   4.091   5.996   9.662 -0.4150  0.0872 -1.4243
 2119SOL    HW2 9856   4.143   6.124   9.724  0.7932 -0.4556 -1.2748
 2120SOL     OW 9857  10.422   0.068   3.356  0.0297 -0.1024  0.4002
 2120SOL    HW1 9858  10.512   0.099   3.357  0.4918 -1.3531 -0.3018
 2120SOL    HW2 9859  10.398   0.066   3.263 -1.2595  1.6258  0.6342
 2121SOL     OW 9860   7.454   6.090   5.063 -0.4819 -0.5103 -0.3442
 2121SOL    HW1 9861   7.505   6.062   5.139 -0.2684 -0.8152 -0.5965
 2121SOL    HW2 9862   7.409   6.011   5.034  2.7907 -1.6361 -3.1877
 2122SOL     OW 9863   6.803   8.111   0.020 -0.6931  0.3158  0.3107
 2122SOL    HW1 9864   6.804   8.153  -0.067 -3.1549  0.5204  0.3021
 2122SOL    HW2 9865   6.741   8.039   0.010  0.1159 -0.5768  1.5426
 2123SOL     OW 9866   1.197   8.704   4.818  0.0890  0.3856  0.4992
 2123SOL    HW1 9867   1.255   8.708   4.742  0.3042 -1.5996  0.5098
 2123SOL    HW2 9868   1.116   8.747   4.789 -0.3131 -1.4514 -1.3450
 2124SOL     OW 9869   0.954   8.580   6.679 -0.0414  0.0191 -0.2258
 2124SOL    HW1 9870   0.877   8.632   6.701 -0.4037 -0.1876 -0.9887
 2124SOL    HW2 9871   0.926   8.524   6.607  0.8886  0.1112 -0.6800
 2125SOL     OW 9872   3.897   2.196   9.644 -0.3047  0.8395  0.1060
 2125SOL    HW1 9873   3.968   2.163   9.589 -0.8778 -2.2937  1.0625
 2125SOL    HW2 9874   3.940   2.229   9.723  0.1544 -0.8556  0.5943
 2126SOL     OW 9875   3.455   0.722   0.155 -0.4610 -0.0328  0.0125
 2126SOL    HW1 9876   3.375   0.749   0.200 -0.4544 -0.4126  0.2551
 2126SOL    HW2 9877   3.515   0.697   0.226 -0.7871 -1.5847 -0.2107
 2127SOL     OW 9878   8.617   5.791   2.071 -0.3696 -0.5919 -0.2773
 2127SOL    HW1 9879   8.667   5.863   2.108 -1.0168  0.3651 -1.1937
 2127SOL    HW2 9880   8.673   5.714   2.082  2.4292  0.7546 -3.2680
 2128SOL     OW 9881   9.046   7.464   9.809  0.6169 -0.0641  0.3102
 2128SOL    HW1 9882   9.036   7.417   9.726 -1.5337  0.1999  0.3759
 2128SOL    HW2 9883   9.106   7.536   9.788  2.2102 -1.5045 -0.3208
 2129SOL     OW 9884  10.576   1.626   6.626 -0.2056  0.1842 -0.1098
 2129SOL    HW1 9885  10.624   1.546   6.646 -2.0979 -1.6759 -2.3675
 2129SOL    HW2 9886  10.633   1.673   6.564  2.3137  2.3311  3.4648
 2130SOL     OW 9887   2.576   5.306   9.792 -0.3789  0.2539 -0.4554
 2130SOL    HW1 9888   2.649   5.270   9.842  0.1323  2.0386  0.1637
 2130SOL    HW2 9889   2.498   5.269   9.834  0.1209 -2.4135 -1.7171
 2131SOL     OW 9890   2.411   3.532   6.113  0.8067 -0.0001 -0.3523
 2131SOL    HW1 9891   2.452   3.578   6.187 -0.8228  1.7315 -0.4589
 2131SOL    HW2 9892   2.349   3.472   6.154 -1.2950  2.1313 -0.2652
 2132SOL     OW 9893   0.595   8.955   6.694 -0.1398  0.2926  0.5905
 2132SOL    HW1 9894   0.643   9.037   6.706 -0.0416 -0.0204  2.7669
 2132SOL    HW2 9895   0.655   8.899   6.644 -0.2333  1.5058 -0.9736
 2133SOL     OW 9896   7.387   5.960   4.587  0.1468  0.0704  0.1295
 2133SOL    HW1 9897   7.334   6.034   4.616 -0.0913  0.2340 -0.7095
 2133SOL    HW2 9898   7.399   5.974   4.493  0.7040 -0.5793  0.0952
 2134SOL     OW 9899   2.718   6.448   3.538  0.1956 -0.2156 -0.2176
 2134SOL    HW1 9900   2.626   6.436   3.561 -0.2071  1.9175 -0.5391
 2134SOL    HW2 9901   2.719   6.452   3.442  0.5034  0.5397 -0.1903
 2135SOL     OW 9902   7.426   8.532   4.537  0.0786 -0.3431  0.1477
 2135SOL    HW1 9903   7.412   8.486   4.454  0.3141  0.8493 -0.5840
 2135SOL    HW2 9904   7.453   8.464   4.598  0.9588 -1.1006 -1.0312
 2136SOL     OW 9905   1.247   1.811   4.586  0.0213 -0.4055 -0.5955
 2136SOL    HW1 9906   1.287   1.726   4.605 -0.4215 -0.1669  1.6377
 2136SOL    HW2 9907   1.289   1.871   4.647 -0.5539  0.7561 -1.3100
 2137SOL     OW 9908   0.975   4.699   0.824  0.3641  0.0450 -0.2694
 2137SOL    HW1 9909   0.880   4.705   0.824  0.3567  0.3312 -1.8425
 2137SOL    HW2 9910   1.001   4.727   0.912 -0.9075  1.5997 -0.3595
 2138SOL     OW 9911   4.416   0.290   2.662  0.0334  0.0274 -0.0090
 2138SOL    HW1 9912   4.408   0.354   2.733  1.3601  0.4751 -0.2440
 2138SOL    HW2 9913   4.457   0.338   2.591 -0.8607 -0.5514 -0.9354
 2139SOL     OW 9914   2.396   5.255   3.110 -0.2250 -0.4032 -0.1024
 2139SOL    HW1 9915   2.379   5.305   3.190  1.0968  1.0440 -0.6964
 2139SOL    HW2 9916   2.313   5.211   3.092 -0.6704 -0.4591  1.8374
 2140SOL     OW 9917   2.277   7.541  10.005  0.0747  0.2974  0.0634
 2140SOL    HW1 9918   2.320   7.525   9.921  0.7239 -1.7126  0.7039
 2140SOL    HW2 9919   2.247   7.454  10.033  0.7467  0.7369  2.3452
 2141SOL     OW 9920   3.623   8.643   1.542 -0.6339  0.2203  0.1375
 2141SOL    HW1 9921   3.612   8.643   1.447 -2.1786  1.1124  0.2881
 2141SOL    HW2 9922   3.569   8.716   1.573  0.4696  0.4480  1.6440
 2142SOL     OW 9923   1.122   5.106  10.609 -0.2645 -0.1401  0.8559
 2142SOL    HW1 9924   1.134   5.126  10.701 -1.2164 -1.0046  1.1833
 2142SOL    HW2 9925   1.117   5.010  10.606 -0.5034 -0.1065 -0.0589
 2143SOL     OW 9926   7.351   0.858   1.898  0.4861 -0.2855  0.3375
 2143SOL    HW1 9927   7.337   0.764   1.883 -1.4253 -0.3976  2.3650
 2143SOL    HW2 9928   7.417   0.861   1.966 -0.1901 -0.2247  1.0047
 2144SOL     OW 9929   9.237   3.126   5.019 -0.2635 -0.3685  0.1993
 2144SOL    HW1 9930   9.227   3.132   4.924  1.2208 -0.3441  0.0216
 2144SOL    HW2 9931   9.306   3.060   5.031 -0.0421  0.0441  1.2403
 2145SOL     OW 9932   6.628   5.136   3.643  0.4433  0.2686 -0.1376
 2145SOL    HW1 9933   6.559   5.201   3.654  0.2630  0.6462 -2.8565
 2145SOL    HW2 9934   6.584   5.052   3.659 -0.8951  0.4505 -2.4385
 2146SOL     OW 9935   1.567   8.052   1.582 -0.0969 -0.3698 -0.1882
 2146SOL    HW1 9936   1.640   7.994   1.562  2.3406  1.6892  1.9937
 2146SOL    HW2 9937   1.548   8.096   1.499  2.8722  0.7726 -0.3731
 2147SOL     OW 9938   1.028   2.908   1.738  0.0873 -0.2893  0.1145
 2147SOL    HW1 9939   0.971   2.871   1.671  1.3120 -0.6426 -0.7588
 2147SOL    HW2 9940   1.113   2.866   1.723  0.9957  1.3808  0.3738
 2148SOL     OW 9941  10.298   8.321   1.573  0.2435  0.0397  0.4494
 2148SOL    HW1 9942  10.207   8.292   1.587  0.6538 -1.5923  0.0126
 2148SOL    HW2 9943  10.347   8.279   1.644  0.8895 -0.4729 -0.2876
 2149SOL     OW 9944   2.713  10.930   0.076 -0.1153  0.4508 -0.3892
 2149SOL    HW1 9945   2.772  10.856   0.082 -1.7138 -1.1209 -2.2621
 2149SOL    HW2 9946   2.637  10.905   0.130 -0.7294  0.6146 -1.1530
 2150SOL     OW 9947  10.237   1.476   3.271  0.2388 -0.7363 -0.1936
 2150SOL    HW1 9948  10.263   1.487   3.179  1.1381 -0.5769  0.0742
 2150SOL    HW2 9949  10.273   1.552   3.315  0.1858 -1.0407  0.3792
 2151SOL     OW 9950   5.587  10.398   0.227  0.3489 -0.4665  0.1254
 2151SOL    HW1 9951   5.656  10.417   0.291 -0.5197 -0.2435  1.0196
 2151SOL    HW2 9952   5.530  10.475   0.229  0.8065 -0.0437 -1.6210
 2152SOL     OW 9953   1.487   2.124   3.666 -0.6998 -0.3752 -0.3284
 2152SOL    HW1 9954   1.566   2.148   3.618 -1.5445  2.7621 -0.3522
 2152SOL    HW2 9955   1.500   2.160   3.754 -1.9380 -0.1854 -0.2117
 2153SOL     OW 9956   8.514   5.331   0.358  0.8213  0.8294  0.6490
 2153SOL    HW1 9957   8.585   5.362   0.413  1.5500 -0.1568  0.2837
 2153SOL    HW2 9958   8.539   5.357   0.270  1.6550 -1.1104  0.2813
 2154SOL     OW 9959   2.920   5.236   8.566  0.3087  0.4341 -0.2749
 2154SOL    HW1 9960   2.940   5.142   8.568  0.4903  0.4742 -0.1929
 2154SOL    HW2 9961   2.983   5.275   8.626 -0.1960  0.5292  0.1967
 2155SOL     OW 9962   8.021   0.026   8.078  0.5960 -0.3253  0.0511
 2155SOL    HW1 9963   8.020   0.004   8.172  0.3342  1.6306  0.5419
 2155SOL    HW2 9964   7.931   0.010   8.049  0.4697 -0.1308  0.3349
 2156SOL     OW 9965   8.374  10.680   2.865  0.2367  0.6912  0.0589
 2156SOL    HW1 9966   8.283  10.709   2.853  0.3818  0.8816 -0.5865
 2156SOL    HW2 9967   8.366  10.596   2.911 -0.2173  1.3793  1.3117
 2157SOL     OW 9968   4.359   4.584   7.234  0.6223  0.1256  0.4036
 2157SOL    HW1 9969   4.338   4.638   7.158 -2.2028  1.6097  2.0813
 2157SOL    HW2 9970   4.417   4.639   7.287  1.6450 -0.4508 -0.0879
 2158SOL     OW 9971   4.061   9.652   2.255  0.6113  0.4958  0.6771
 2158SOL    HW1 9972   4.129   9.599   2.214  0.0172 -0.3865  0.8040
 2158SOL    HW2 9973   3.997   9.666   2.185  0.9989  1.4795  0.5055
 2159SOL     OW 9974   4.594   6.062   6.454 -0.0669 -0.1576  0.1493
 2159SOL    HW1 9975   4.542   6.141   6.441 -0.4419 -0.5372 -0.7554
 2159SOL    HW2 9976   4.568   6.030   6.540  0.5147  1.0071  0.7725
 2160SOL     OW 9977   7.545   9.426   4.799  0.0593  0.9067 -0.0640
 2160SOL    HW1 9978   7.588   9.423   4.884 -0.8736 -0.2699  0.3981
 2160SOL    HW2 9979   7.502   9.512   4.797  0.6404  1.2171  0.3574
 2161SOL     OW 9980   8.810  10.630   2.357 -0.5345 -0.2357 -0.0638
 2161SOL    HW1 9981   8.779  10.542   2.338 -0.3182 -0.2308 -0.4493
 2161SOL    HW2 9982   8.731  10.680   2.374 -0.6864 -0.4135 -0.2393
 2162SOL     OW 9983   4.811   3.811   1.255  0.0979 -0.4756  0.9757
 2162SOL    HW1 9984   4.795   3.855   1.171  1.5968  0.1594  0.9911
 2162SOL    HW2 9985   4.765   3.727   1.247 -0.5963 -0.0108 -0.0968
 2163SOL     OW 9986   0.900   5.348   0.748  0.3433  0.4527 -0.2993
 2163SOL    HW1 9987   0.859   5.267   0.717  2.5627 -0.1762 -1.9236
 2163SOL    HW2 9988   0.848   5.375   0.823 -1.8233 -1.2438 -1.0876
 2164SOL     OW 9989   6.345   3.448   9.534 -0.1490 -0.0011 -0.3530
 2164SOL    HW1 9990   6.382   3.405   9.610  1.2341  2.5881  0.5780
 2164SOL    HW2 9991   6.371   3.394   9.460  2.3007 -0.3046  0.6443
 2165SOL     OW 9992   8.837   5.032  10.489 -0.1979  0.1677 -0.3250
 2165SOL    HW1 9993   8.745   5.058  10.486  0.0121  0.8861 -2.8042
 2165SOL    HW2 9994   8.884   5.112  10.514 -0.1889 -0.1481  0.7367
 2166SOL     OW 9995  10.519   1.116   4.070  0.3563 -0.2795  0.2053
 2166SOL    HW1 9996  10.495   1.149   3.983 -2.0044 -4.4736 -1.0208
 2166SOL    HW2 9997  10.590   1.054   4.053  1.6834  0.7402  1.7502
 2167SOL     OW 9998   1.456   3.693  10.029 -0.2270 -0.0131 -0.0638
 2167SOL    HW1 9999   1.488   3.773  10.071  0.8194 -0.3750 -0.1515
 2167SOL    HW210000   1.386   3.723   9.971  0.6092  0.9350 -0.6110
 2168SOL     OW10001   4.071  10.118   5.166 -0.0333  0.0178  0.2881
 2168SOL    HW110002   4.042  10.095   5.078  1.4552  0.7824 -0.4357
 2168SOL    HW210003   4.145  10.059   5.182  0.4516  0.6838  0.5376
 2169SOL     OW10004   4.108   4.713   4.883 -0.0935 -0.4668 -0.3581
 2169SOL    HW110005   4.021   4.706   4.921 -0.6309 -2.1224 -1.7850
 2169SOL    HW210006   4.094   4.756   4.798  0.5772 -0.1659 -0.3249
 2170SOL     OW10007   0.426   6.640   1.987 -0.0623 -0.0238  0.1856
 2170SOL    HW110008   0.375   6.587   2.049 -0.3943  0.7479  0.5918
 2170SOL    HW210009   0.414   6.596   1.903  1.4851 -1.8601  0.8622
 2171SOL     OW10010   3.880   3.780   9.220 -0.0206  0.1648 -0.0509
 2171SOL    HW110011   3.832   3.704   9.253  1.8505 -1.5831 -1.1325
 2171SOL    HW210012   3.812   3.845   9.200 -2.0485 -2.3607 -2.0842
 2172SOL     OW10013   0.261   8.863   5.911  0.3664  0.7193 -0.3709
 2172SOL    HW110014   0.280   8.819   5.828 -0.5118 -1.0415  0.3184
 2172SOL    HW210015   0.168   8.847   5.927  1.2559 -2.6751  2.9024
 2173SOL     OW10016   4.657   3.103   6.332  0.3193  0.4724  0.5550
 2173SOL    HW110017   4.681   3.191   6.361  0.1428  1.3468 -1.7496
 2173SOL    HW210018   4.569   3.113   6.296  0.6419 -0.4187 -0.5467
 2174SOL     OW10019   1.066   2.076   5.824  0.1582  0.0028 -0.7221
 2174SOL    HW110020   1.029   2.161   5.804 -1.7842 -0.4540  0.6277
 2174SOL    HW210021   1.004   2.013   5.787 -1.3059 -0.7862  2.6438
 2175SOL     OW10022   1.935   7.638   8.456  0.4701 -0.1928 -0.3709
 2175SOL    HW110023   1.878   7.694   8.509 -0.0573 -0.7522 -0.3438
 2175SOL    HW210024   1.911   7.656   8.366  0.8317  0.1861 -0.3949
 2176SOL     OW10025   5.464   3.725  10.308  0.2497 -0.7337 -1.2575
 2176SOL    HW110026   5.514   3.670  10.247  1.4174 -0.9249 -0.1852
 2176SOL    HW210027   5.437   3.800  10.256 -1.1523 -2.1524 -2.7009
 2177SOL     OW10028   6.250   5.489  10.640 -0.1522 -0.0511 -0.1567
 2177SOL    HW110029   6.203   5.566  10.609  3.9065  1.5759 -3.3241
 2177SOL    HW210030   6.318   5.524  10.698  0.9928 -1.3333 -0.6542
 2178SOL     OW10031   2.879   9.299   5.877 -0.7954  0.3243  0.2934
 2178SOL    HW110032   2.958   9.306   5.823 -0.5482 -0.8229  0.4953
 2178SOL    HW210033   2.877   9.382   5.925  0.2429  0.4063  0.2296
 2179SOL     OW10034   7.478   1.978   1.241 -0.3749 -0.3734  0.1662
 2179SOL    HW110035   7.437   2.008   1.322  1.6551  2.3911  0.3017
 2179SOL    HW210036   7.428   2.022   1.171  1.2667  1.7684  0.2620
 2180SOL     OW10037   3.647   0.737   9.979 -0.0472  0.2551 -0.2200
 2180SOL    HW110038   3.729   0.786   9.993  0.2558 -0.8870  2.4975
 2180SOL    HW210039   3.670   0.647   9.999 -1.6010 -0.3657 -1.1382
 2181SOL     OW10040   7.773  10.669   4.164  0.1152 -0.4593  0.1792
 2181SOL    HW110041   7.849  10.662   4.107  0.5308 -2.6679  0.8952
 2181SOL    HW210042   7.698  10.665   4.104  0.5302  0.9054 -0.4619
 2182SOL     OW10043  10.633   1.201   1.968  0.2222 -0.5441 -0.4633
 2182SOL    HW110044  10.705   1.250   1.928 -0.7617 -0.0099 -1.6632
 2182SOL    HW210045  10.627   1.121   1.917 -0.1032 -0.5271 -0.4578
 2183SOL     OW10046   6.528   6.293   9.330 -0.5662 -0.2190  0.0784
 2183SOL    HW110047   6.483   6.226   9.279 -2.2565  0.5224  0.5271
 2183SOL    HW210048   6.514   6.374   9.280  0.9006 -0.0713 -0.1326
 2184SOL     OW10049   5.314   0.798   7.205  0.1752  0.0192 -0.0009
 2184SOL    HW110050   5.331   0.712   7.168 -0.6162  0.2502 -0.9373
 2184SOL    HW210051   5.376   0.806   7.277  1.6383 -0.5089 -1.1730
 2185SOL     OW10052   6.207   3.038   4.792 -0.2704 -0.2622  0.2959
 2185SOL    HW110053   6.271   3.001   4.731 -2.1797 -0.1204 -1.8904
 2185SOL    HW210054   6.176   2.963   4.843  0.7038 -0.5206  0.5348
 2186SOL     OW10055   9.854   4.242   5.443  0.2448 -0.2900  0.3823
 2186SOL    HW110056   9.834   4.239   5.537 -0.0777 -1.2087  0.2925
 2186SOL    HW210057   9.784   4.296   5.406  0.4766  0.2316  0.6897
 2187SOL     OW10058   3.366   8.657   1.038 -0.1358 -0.1423 -0.1933
 2187SOL    HW110059   3.381   8.594   1.108 -1.0736  1.3611  1.4469
 2187SOL    HW210060   3.421   8.627   0.966 -1.5657 -3.6346 -0.0453
 2188SOL     OW10061   8.462   0.250   2.991 -0.1816 -0.0153 -0.7034
 2188SOL    HW110062   8.390   0.190   3.012  0.1344 -0.4170 -0.7571
 2188SOL    HW210063   8.537   0.215   3.040 -0.0749  0.5293 -0.4719
 2189SOL     OW10064   8.266   3.337   5.263 -0.4143  0.4190  0.3036
 2189SOL    HW110065   8.185   3.387   5.256 -0.7854 -0.3749 -1.7568
 2189SOL    HW210066   8.318   3.365   5.188  0.3911 -0.5032  0.4939
 2190SOL     OW10067   9.440   3.302   8.109 -0.1845 -0.5504 -0.4293
 2190SOL    HW110068   9.446   3.354   8.029  1.3788 -0.2805 -0.1613
 2190SOL    HW210069   9.491   3.223   8.091 -0.1733 -0.6832  0.1633
 2191SOL     OW10070   4.484   7.863   1.400  0.1776  0.2300 -0.3750
 2191SOL    HW110071   4.535   7.928   1.448  1.3050 -0.2764 -0.8591
 2191SOL    HW210072   4.392   7.888   1.416  0.5603  1.0226  0.6836
 2192SOL     OW10073   8.015   2.957   7.452  0.0919 -0.2386  0.0011
 2192SOL    HW110074   7.945   2.918   7.504 -0.0823 -0.9199 -0.7201
 2192SOL    HW210075   7.986   3.048   7.438  0.1124 -0.0624  1.0061
 2193SOL     OW10076   0.395   7.973   8.163  0.1706  0.8665 -0.3340
 2193SOL    HW110077   0.419   7.882   8.150  1.5039  1.3118 -1.2380
 2193SOL    HW210078   0.304   7.979   8.133 -0.0755 -0.2215  0.1373
 2194SOL     OW10079   0.020   5.220   1.390  0.2557  0.1990  0.0469
 2194SOL    HW110080   0.007   5.310   1.360 -0.0244  0.0487 -0.3015
 2194SOL    HW210081   0.006   5.223   1.484 -0.6780  0.3544 -0.0890
 2195SOL     OW10082   5.841   5.536   3.213 -0.1196 -0.7291  0.2499
 2195SOL    HW110083   5.859   5.496   3.299 -0.1750  0.4441  0.8178
 2195SOL    HW210084   5.847   5.630   3.228  1.2105 -0.5125 -1.3265
 2196SOL     OW10085   1.065   1.831   2.269 -0.0662 -0.0610 -0.1609
 2196SOL    HW110086   1.130   1.898   2.250 -1.1583  1.0444 -0.1337
 2196SOL    HW210087   1.025   1.859   2.351  0.0767 -1.2504  0.3333
 2197SOL     OW10088   1.750   2.730   1.944  0.0629  0.0857 -0.4071
 2197SOL    HW110089   1.749   2.670   2.018  0.0462 -0.5082 -0.8847
 2197SOL    HW210090   1.810   2.800   1.971  0.4629 -0.3912 -0.0413
 2198SOL     OW10091   6.806   0.701   4.773  0.0369  0.0832 -0.0610
 2198SOL    HW110092   6.869   0.668   4.837 -0.9214  1.2169  1.5510
 2198SOL    HW210093   6.793   0.793   4.798 -1.6821  0.0713 -0.7893
 2199SOL     OW10094   1.819   0.408   3.454  0.1675  0.3855  0.3821
 2199SOL    HW110095   1.815   0.317   3.484  0.0130 -0.0802 -1.0026
 2199SOL    HW210096   1.830   0.459   3.535 -0.2781 -0.8118  1.2257
 2200SOL     OW10097   0.155   6.291  10.565 -0.4805  0.0833  0.4935
 2200SOL    HW110098   0.078   6.236  10.581 -0.6169  0.0199 -0.3554
 2200SOL    HW210099   0.121   6.380  10.564 -0.8077 -0.0403 -1.3870
 2201SOL     OW10100   9.135   2.724   9.711 -0.2080 -0.6519 -0.0943
 2201SOL    HW110101   9.178   2.779   9.645  0.0520  0.1873  0.7544
 2201SOL    HW210102   9.207   2.690   9.764 -0.3660 -1.8580 -0.6378
 2202SOL     OW10103   9.343   7.339   5.003 -0.6169 -0.7397 -0.1685
 2202SOL    HW110104   9.257   7.322   4.966 -0.4761 -1.6171 -0.1178
 2202SOL    HW210105   9.404   7.326   4.930 -0.2115 -3.8602  0.5868
 2203SOL     OW10106   9.030   4.872   0.588  0.1614 -0.2054 -0.6688
 2203SOL    HW110107   8.989   4.834   0.510  1.0047 -1.3451 -0.5896
 2203SOL    HW210108   9.089   4.803   0.619 -0.8660 -0.1595  1.5434
 2204SOL     OW10109   5.734  10.419   1.413  0.3946 -0.0573  0.0798
 2204SOL    HW110110   5.639  10.409   1.409  0.2388  1.3373 -0.0401
 2204SOL    HW210111   5.754  10.489   1.351  1.1158  1.9931  2.4951
 2205SOL     OW10112   6.844   1.140   0.250 -0.2566 -0.0840  0.1422
 2205SOL    HW110113   6.885   1.121   0.166 -2.0982 -0.5554 -0.6934
 2205SOL    HW210114   6.778   1.071   0.261 -0.8823  0.6715  1.3819
 2206SOL     OW10115   7.013   8.608   9.086 -0.3877  0.0465 -0.0456
 2206SOL    HW110116   6.930   8.636   9.048 -0.1541  1.2875  0.2908
 2206SOL    HW210117   7.079   8.659   9.040  0.2924 -1.5550 -0.9134
 2207SOL     OW10118   6.530   2.531   7.176 -0.6305  0.0549  0.1014
 2207SOL    HW110119   6.447   2.579   7.183 -1.3703 -1.1803 -0.0598
 2207SOL    HW210120   6.540   2.513   7.083 -0.7792 -0.8383  0.2571
 2208SOL     OW10121   2.297  10.489   0.810 -0.3213  0.1549 -0.0095
 2208SOL    HW110122   2.385  10.477   0.847 -0.8074 -0.3773  0.9950
 2208SOL    HW210123   2.295  10.430   0.734 -0.0673 -0.3996  0.4113
 2209SOL     OW10124   5.581  10.471   8.048  0.4121 -0.8039  0.5379
 2209SOL    HW110125   5.491  10.499   8.032  0.3896 -0.9543  0.3965
 2209SOL    HW210126   5.574  10.379   8.072  0.4199 -0.5155  1.6920
 2210SOL     OW10127   6.128   4.048   5.842 -0.5108  0.0685  0.0294
 2210SOL    HW110128   6.112   4.142   5.840 -1.7007 -0.1074  0.3674
 2210SOL    HW210129   6.058   4.013   5.896  0.6448 -0.8955  0.9651
 2211SOL     OW10130   3.215   1.215   8.770  0.2096  0.7274 -0.6557
 2211SOL    HW110131   3.202   1.306   8.797  2.1567  1.5714 -2.3276
 2211SOL    HW210132   3.309   1.199   8.785 -0.2531 -1.3206  0.4040
 2212SOL     OW10133   3.136   3.353   6.946 -0.6824  0.4204 -0.1538
 2212SOL    HW110134   3.218   3.304   6.953 -0.8088  0.3137  0.6994
 2212SOL    HW210135   3.137   3.389   6.858 -0.3820 -0.7666 -0.6585
 2213SOL     OW10136   6.510   8.146   9.138 -0.0460 -0.1282 -0.2496
 2213SOL    HW110137   6.504   8.065   9.086  1.7856 -0.6598  0.2731
 2213SOL    HW210138   6.581   8.129   9.200 -0.8815  1.2074  1.1498
 2214SOL     OW10139   6.575   1.631   0.762  0.0062 -0.0034  0.3596
 2214SOL    HW110140   6.503   1.624   0.699 -0.5061 -3.4873  1.1526
 2214SOL    HW210141   6.649   1.589   0.717  0.7296  0.8949  0.6873
 2215SOL     OW10142   2.404  10.139   0.497 -0.2032  0.1699 -0.1404
 2215SOL    HW110143   2.467  10.128   0.569  0.6100 -0.5227 -0.9381
 2215SOL    HW210144   2.342  10.068   0.508 -0.1041  0.0896 -0.1048
 2216SOL     OW10145   8.170   8.145   8.053 -0.5269  0.3631 -0.0816
 2216SOL    HW110146   8.218   8.199   7.991 -0.0879 -0.2559 -0.2959
 2216SOL    HW210147   8.232   8.128   8.124 -1.2120  1.5613  0.8470
 2217SOL     OW10148   4.382   3.135   1.533 -0.2250 -0.4533  0.0904
 2217SOL    HW110149   4.322   3.062   1.517 -1.9837  0.3748  2.2478
 2217SOL    HW210150   4.403   3.127   1.626  1.9986  0.0891 -0.3284
 2218SOL     OW10151   6.399   9.403   2.873  0.1331  0.3816 -0.0135
 2218SOL    HW110152   6.445   9.482   2.901  1.9554 -0.6567  0.1537
 2218SOL    HW210153   6.406   9.404   2.778  1.0555 -0.0285  0.0301
 2219SOL     OW10154   4.547   8.759   7.578  0.0008  0.4516  0.1815
 2219SOL    HW110155   4.591   8.754   7.493 -0.1791  1.8085 -0.0137
 2219SOL    HW210156   4.461   8.794   7.559 -0.0002  0.8957  0.9360
 2220SOL     OW10157   5.303   2.839   1.146 -0.1421 -0.0384  0.1201
 2220SOL    HW110158   5.381   2.842   1.201  1.1435  0.7621 -1.6585
 2220SOL    HW210159   5.320   2.769   1.083 -0.0072  1.3166 -1.4247
 2221SOL     OW10160   6.957   5.312   8.154 -0.1848 -0.3965 -0.2678
 2221SOL    HW110161   7.002   5.318   8.069  0.3702  1.3330  0.1098
 2221SOL    HW210162   6.958   5.402   8.188  2.1258 -1.4570  2.8607
 2222SOL     OW10163   2.283  10.058   4.297 -0.2022  0.0448  0.0297
 2222SOL    HW110164   2.297   9.989   4.232  0.3655  1.1014 -1.0202
 2222SOL    HW210165   2.196  10.092   4.277 -1.3937 -1.6956  1.8891
 2223SOL     OW10166   8.007   8.027   7.226 -0.0502 -0.2342  0.6458
 2223SOL    HW110167   8.038   8.012   7.137  0.6527 -1.3585  1.0608
 2223SOL    HW210168   7.946   8.100   7.218  0.6198  0.2087 -0.6226
 2224SOL     OW10169   9.867   2.544   4.930 -0.0409 -0.5218  0.1944
 2224SOL    HW110170   9.961   2.548   4.915  0.2820  0.9030  2.1720
 2224SOL    HW210171   9.831   2.612   4.873  0.2424 -0.4428  0.1075
 2225SOL     OW10172   7.075   5.272   6.127  0.2004 -0.0982 -0.1163
 2225SOL    HW110173   7.022   5.281   6.206 -0.1483 -3.8448  0.2755
 2225SOL    HW210174   7.154   5.227   6.157  0.3891 -0.9351 -1.7779
 2226SOL     OW10175   4.063   5.095   7.024  0.3001 -0.4570 -0.2161
 2226SOL    HW110176   4.061   5.099   7.120 -0.9550  0.4914 -0.2528
 2226SOL    HW210177   4.032   5.007   7.004 -4.2381  0.7636  0.2562
 2227SOL     OW10178  10.496   5.159   2.809 -0.3859 -0.4781  0.1353
 2227SOL    HW110179  10.437   5.160   2.734 -0.3471  1.0441  0.0812
 2227SOL    HW210180  10.446   5.115   2.878 -0.4196 -1.8904 -0.7502
 2228SOL     OW10181   6.387   1.048   6.172 -0.6100  0.3780  0.1023
 2228SOL    HW110182   6.471   1.086   6.143 -1.4454  1.4964 -0.9526
 2228SOL    HW210183   6.393   1.046   6.267  1.0882 -0.7023  0.0199
 2229SOL     OW10184   5.755   5.480   7.171  0.5766  0.0538  0.9155
 2229SOL    HW110185   5.800   5.475   7.086  0.5376  1.5011  0.7910
 2229SOL    HW210186   5.664   5.462   7.150  0.7868 -1.0730  0.8927
 2230SOL     OW10187   7.565   2.932  10.666 -0.5121 -0.3871  0.0263
 2230SOL    HW110188   7.639   2.929  10.727 -0.6484  1.1087  0.3102
 2230SOL    HW210189   7.524   3.017  10.683 -0.4227  0.2007 -2.3002
 2231SOL     OW10190   1.470  10.998   5.341  0.8544  0.3161  0.1731
 2231SOL    HW110191   1.468  10.918   5.395 -0.1012 -0.0973 -0.4307
 2231SOL    HW210192   1.515  10.972   5.261 -0.0142  0.1833 -0.2891
 2232SOL     OW10193   1.745   5.999  10.932  0.0212  0.2060  0.2446
 2232SOL    HW110194   1.757   6.014  10.838  1.2654  0.9864  0.4915
 2232SOL    HW210195   1.814   6.052  10.973  0.1067 -0.8621  1.5562
 2233SOL     OW10196   5.088   4.266   5.360 -0.6861 -0.1482 -0.1725
 2233SOL    HW110197   5.008   4.255   5.309  0.6237  0.0682 -2.4435
 2233SOL    HW210198   5.110   4.178   5.391 -0.8284 -0.5485 -1.1648
 2234SOL     OW10199   0.431   2.684  10.906 -0.0131  0.1070 -0.2213
 2234SOL    HW110200   0.526   2.683  10.895  0.4652 -1.3297  3.0111
 2234SOL    HW210201   0.410   2.773  10.932  0.7616 -0.0455  0.9760
 2235SOL     OW10202   2.758   3.232   1.196  0.5895  0.1729 -0.2418
 2235SOL    HW110203   2.663   3.245   1.192  0.4423 -0.6170  0.3437
 2235SOL    HW210204   2.776   3.168   1.128  0.7139  0.3807 -0.4040
 2236SOL     OW10205   8.483   3.371   9.943 -0.4627  0.3067  0.4043
 2236SOL    HW110206   8.542   3.442   9.969 -2.0252  1.5135  0.7926
 2236SOL    HW210207   8.439   3.404   9.865 -1.3346 -0.1765  0.6849
 2237SOL     OW10208   8.605   6.154   2.398  0.1321  0.0923 -0.1383
 2237SOL    HW110209   8.548   6.078   2.415  2.0641 -1.6794 -1.0644
 2237SOL    HW210210   8.647   6.171   2.482  0.7154 -0.7901 -0.2391
 2238SOL     OW10211   0.350   3.790   6.248 -0.1692  0.8991  0.1133
 2238SOL    HW110212   0.264   3.831   6.240  0.1050  1.2322 -1.5046
 2238SOL    HW210213   0.332   3.698   6.264 -0.8421  0.9280 -0.4521
 2239SOL     OW10214   5.600   2.277   9.528 -0.3937  0.6753 -0.3424
 2239SOL    HW110215   5.577   2.269   9.620 -0.1831  0.1346 -0.3328
 2239SOL    HW210216   5.530   2.232   9.481  0.2538 -0.3532 -0.3531
 2240SOL     OW10217   4.060   8.227   1.021 -0.2055  0.1690  0.5520
 2240SOL    HW110218   4.106   8.146   1.000  3.8524  2.3148  0.1946
 2240SOL    HW210219   4.041   8.220   1.115  0.7724 -0.8819  0.6978
 2241SOL     OW10220   3.800   5.346   7.264 -0.1941 -0.0351  0.1129
 2241SOL    HW110221   3.852   5.266   7.264  1.2482  0.8474 -0.0759
 2241SOL    HW210222   3.769   5.355   7.354  0.2871 -0.4142  0.3237
 2242SOL     OW10223   7.033   4.481   9.745 -0.1237  0.3505  0.1590
 2242SOL    HW110224   6.939   4.462   9.755 -0.0943  0.2314  0.2159
 2242SOL    HW210225   7.047   4.559   9.799 -0.4792  1.2554 -1.0005
 2243SOL     OW10226   5.616   2.674   6.214  0.4600 -0.1623  0.3081
 2243SOL    HW110227   5.672   2.668   6.292  0.1217 -0.2573  0.5477
 2243SOL    HW210228   5.548   2.736   6.239  0.9166  0.5964 -0.2708
 2244SOL     OW10229   2.084   5.340   1.318  0.6463  0.6004 -0.2468
 2244SOL    HW110230   2.104   5.408   1.382  1.0913 -0.1433  0.4212
 2244SOL    HW210231   1.999   5.365   1.283  0.5360  1.1810  0.4105
 2245SOL     OW10232   5.569   7.414   9.028  0.6706  0.2817  0.2649
 2245SOL    HW110233   5.622   7.336   9.045 -1.4023 -1.4690 -0.8363
 2245SOL    HW210234   5.625   7.470   8.974  1.9277 -0.7924  0.4112
 2246SOL     OW10235   7.308   9.023   7.078 -0.4902 -0.0774 -0.6342
 2246SOL    HW110236   7.333   9.111   7.052 -0.4853 -0.2171 -1.1164
 2246SOL    HW210237   7.292   8.977   6.995 -0.3734 -0.5594 -0.3949
 2247SOL     OW10238   9.612   8.218   0.467 -0.4586 -0.0560  0.2057
 2247SOL    HW110239   9.681   8.155   0.449 -0.7045  0.0470 -1.2296
 2247SOL    HW210240   9.656   8.291   0.511 -0.0234 -0.8479  1.0884
 2248SOL     OW10241   4.129   5.608   8.709 -0.4845 -0.5102 -0.0918
 2248SOL    HW110242   4.077   5.661   8.770  0.8152 -0.5104  1.0708
 2248SOL    HW210243   4.215   5.649   8.709  0.0560 -1.5999 -0.5265
 2249SOL     OW10244   9.970   6.018   2.725  0.3521  0.1288  0.1801
 2249SOL    HW110245  10.018   5.953   2.673  1.4856  0.7689  0.3742
 2249SOL    HW210246  10.037   6.081   2.751 -0.7145  1.3832 -0.0141
 2250SOL     OW10247   4.974   8.069   1.018 -0.2529  0.0600 -0.2574
 2250SOL    HW110248   4.957   8.134   1.087 -0.5557  0.0551 -0.3255
 2250SOL    HW210249   5.027   8.116   0.953 -0.0868  0.1058 -0.0911
 2251SOL     OW10250   7.538   0.670   5.235 -0.1053  0.2875 -0.0065
 2251SOL    HW110251   7.592   0.727   5.180 -0.6669 -0.5159 -1.4131
 2251SOL    HW210252   7.455   0.717   5.244  0.0436  0.4959  0.3179
 2252SOL     OW10253   7.768   9.178   5.125 -0.0935  0.5424 -0.2814
 2252SOL    HW110254   7.734   9.188   5.214 -1.7850  0.3224 -0.8603
 2252SOL    HW210255   7.853   9.135   5.136 -0.9454 -0.8769  1.1606
 2253SOL     OW10256   4.474   4.962   5.641 -0.0559 -0.0912  0.5826
 2253SOL    HW110257   4.489   4.911   5.562 -2.2339  0.1994 -0.0866
 2253SOL    HW210258   4.532   4.923   5.706  1.9527 -0.2052 -1.1727
 2254SOL     OW10259   7.757   3.724   9.297 -0.2333 -0.2839 -0.0867
 2254SOL    HW110260   7.752   3.732   9.392  1.8277  1.7255 -0.0796
 2254SOL    HW210261   7.727   3.809   9.265 -2.5184 -1.4745 -1.3938
 2255SOL     OW10262   9.367   7.979   1.725 -0.2819 -0.2371 -0.0797
 2255SOL    HW110263   9.301   8.033   1.682  0.9602  0.4768 -1.1564
 2255SOL    HW210264   9.380   7.906   1.664  0.5689  0.1073 -0.3161
 2256SOL     OW10265  10.213   7.233   9.215  0.1128  0.2648  0.0430
 2256SOL    HW110266  10.205   7.329   9.215  0.7493  0.3225 -0.5047
 2256SOL    HW210267  10.123   7.202   9.205  0.0269  0.8344 -1.1556
 2257SOL     OW10268   5.859   8.726   5.606  0.0285  0.6090 -0.0497
 2257SOL    HW110269   5.771   8.714   5.641  0.4309  1.5669  1.3831
 2257SOL    HW210270   5.916   8.719   5.683  0.9451  2.8505 -0.4530
 2258SOL     OW10271   4.357   3.823   8.237  0.1053 -0.1290  0.0481
 2258SOL    HW110272   4.267   3.795   8.220  0.8495 -2.3775 -0.5440
 2258SOL    HW210273   4.349   3.887   8.307 -1.8744 -1.0965  0.8039
 2259SOL     OW10274   3.097   4.711   9.027 -0.2948 -0.0870  0.4502
 2259SOL    HW110275   3.093   4.640   9.092  0.8851  1.3035  2.1289
 2259SOL    HW210276   3.053   4.784   9.070  0.7386  0.9515 -0.2146
 2260SOL     OW10277   7.083   9.692   4.207  0.1487  0.1592  0.6083
 2260SOL    HW110278   7.126   9.718   4.126  0.7524  2.4801  1.5999
 2260SOL    HW210279   7.002   9.649   4.179  0.6103  0.4181 -1.2071
 2261SOL     OW10280   3.527   7.535   5.483  0.0325  0.5061  0.1877
 2261SOL    HW110281   3.499   7.472   5.416  0.4602  1.0178 -0.4787
 2261SOL    HW210282   3.491   7.500   5.564  0.8132 -0.9727 -0.0576
 2262SOL     OW10283   1.855   5.055   5.340  0.4605  0.1768 -0.2616
 2262SOL    HW110284   1.825   5.121   5.277  0.1207 -0.5713 -0.9139
 2262SOL    HW210285   1.941   5.086   5.369 -0.4549  1.8200  0.8334
 2263SOL     OW10286   2.485  10.622   6.321  0.0248 -0.2294 -0.0352
 2263SOL    HW110287   2.499  10.688   6.389 -0.1766 -0.6591  0.4258
 2263SOL    HW210288   2.512  10.665   6.240  0.0186  0.3764  0.2808
 2264SOL     OW10289   6.040   8.626   7.195  0.2945 -0.7678  0.9210
 2264SOL    HW110290   6.125   8.588   7.169  1.0840 -0.1474  2.4684
 2264SOL    HW210291   5.976   8.580   7.141  1.7020 -0.4118 -1.1563
 2265SOL     OW10292   3.626   0.825   0.670 -0.4881  0.1354  0.4043
 2265SOL    HW110293   3.603   0.860   0.756  1.4376 -0.7299  1.3417
 2265SOL    HW210294   3.581   0.741   0.666 -1.5628  0.7204  0.0324
 2266SOL     OW10295   5.674   1.456   9.302  0.0575  0.3788 -0.3786
 2266SOL    HW110296   5.667   1.551   9.310 -4.2592  0.4413 -2.4511
 2266SOL    HW210297   5.650   1.438   9.211  0.0125 -2.7622  0.1688
 2267SOL     OW10298   3.277   6.053   4.699 -0.1247  0.4915 -0.0612
 2267SOL    HW110299   3.315   6.136   4.728  0.6317  0.5650 -1.2179
 2267SOL    HW210300   3.191   6.077   4.665 -0.1001  0.7318  0.0443
 2268SOL     OW10301   3.860   2.007   1.074  0.3373  0.2956 -0.5524
 2268SOL    HW110302   3.942   1.960   1.090  1.0127  1.1324 -1.4696
 2268SOL    HW210303   3.879   2.097   1.102 -0.4364  0.3828 -0.2946
 2269SOL     OW10304  10.305   4.884   3.438 -0.3013 -0.4315 -0.2687
 2269SOL    HW110305  10.374   4.891   3.504 -0.7276 -1.0641  0.2666
 2269SOL    HW210306  10.352   4.868   3.356  0.3298  2.0336 -0.4486
 2270SOL     OW10307   2.544   0.427   4.643 -0.2424 -0.0790  0.4362
 2270SOL    HW110308   2.503   0.472   4.570 -0.3085  1.7575  1.5569
 2270SOL    HW210309   2.480   0.359   4.668 -0.1999 -0.7483 -1.1862
 2271SOL     OW10310   4.385   7.986   1.882  0.2895  0.2030 -0.0513
 2271SOL    HW110311   4.435   8.068   1.882 -0.6870  0.8085 -0.1262
 2271SOL    HW210312   4.308   8.004   1.936 -0.4950 -0.3113 -0.9629
 2272SOL     OW10313   8.690   3.183   6.782  0.2695  0.0409  0.4387
 2272SOL    HW110314   8.710   3.104   6.832 -1.1059 -0.7215 -0.1550
 2272SOL    HW210315   8.682   3.153   6.691  0.8719  1.0734  0.0305
 2273SOL     OW10316   2.643   2.306   6.030  0.8293 -0.3695 -0.1415
 2273SOL    HW110317   2.563   2.268   6.066  0.4177 -0.1853 -0.8280
 2273SOL    HW210318   2.633   2.400   6.043  1.3697 -0.4132  0.6188
 2274SOL     OW10319   6.626   6.740  10.041 -0.2494  0.4072 -0.7603
 2274SOL    HW110320   6.552   6.800  10.035  0.7260  1.6246 -1.0709
 2274SOL    HW210321   6.701   6.791  10.012  1.7149  0.9233  4.1880
 2275SOL     OW10322   3.890   6.827  10.679  0.2405  0.4285 -0.1070
 2275SOL    HW110323   3.832   6.816  10.604  0.3050  1.5848 -0.3532
 2275SOL    HW210324   3.846   6.780  10.750 -0.4649  0.3868 -0.5585
 2276SOL     OW10325   7.479   4.104   6.263 -0.1270  0.0428  0.3482
 2276SOL    HW110326   7.568   4.075   6.280 -0.4892  0.6524  4.0757
 2276SOL    HW210327   7.482   4.199   6.275 -1.4122 -0.0299  1.5443
 2277SOL     OW10328   0.881   3.389   8.695 -0.3152 -0.3095  0.1380
 2277SOL    HW110329   0.793   3.375   8.729 -0.1440  0.0784  0.7429
 2277SOL    HW210330   0.867   3.422   8.606 -0.7799 -0.2698  0.2229
 2278SOL     OW10331   1.488   9.383   5.735 -0.3896 -0.1551 -0.0210
 2278SOL    HW110332   1.554   9.424   5.791 -0.2848  2.0608 -1.6041
 2278SOL    HW210333   1.411   9.376   5.791  0.1003  0.7295  0.8082
 2279SOL     OW10334   5.121  10.284   5.372  0.1992  0.9805 -0.2513
 2279SOL    HW110335   5.205  10.302   5.415 -1.0615  2.0416  1.9552
 2279SOL    HW210336   5.144  10.265   5.281  2.8439  0.8712  0.3681
 2280SOL     OW10337   2.898   6.701   3.878  0.1286 -0.3455 -0.6737
 2280SOL    HW110338   2.881   6.656   3.961 -1.8117  0.5568 -0.5348
 2280SOL    HW210339   2.875   6.793   3.896 -0.8918 -0.2381 -2.3570
 2281SOL     OW10340  10.492   8.256   2.040 -0.5196  0.0829  0.0370
 2281SOL    HW110341  10.523   8.214   2.120 -0.9631 -0.3813 -0.0291
 2281SOL    HW210342  10.426   8.318   2.069 -0.4735  0.1218  0.0590
 2282SOL     OW10343   3.674   9.642   6.071 -0.1958 -0.0213  0.1926
 2282SOL    HW110344   3.758   9.676   6.040 -1.2083  0.5451 -2.1297
 2282SOL    HW210345   3.609   9.705   6.039 -1.6704 -1.3191  0.5045
 2283SOL     OW10346   0.966   9.964   4.367 -0.7371 -0.4126  0.0124
 2283SOL    HW110347   0.887   9.961   4.420 -0.7473 -2.8538 -0.0336
 2283SOL    HW210348   0.988   9.872   4.350  2.1306  0.1537  0.0321
 2284SOL     OW10349  10.412  10.045   6.549 -0.3781 -0.4754 -0.3342
 2284SOL    HW110350  10.403  10.028   6.456  0.0579 -1.4045 -0.2100
 2284SOL    HW210351  10.323  10.035   6.584 -0.5546 -0.0484 -0.6485
 2285SOL     OW10352   1.755   7.865   1.495 -0.1014 -0.3521  0.0123
 2285SOL    HW110353   1.836   7.840   1.450  1.5697  1.9218  1.5453
 2285SOL    HW210354   1.776   7.860   1.588 -2.3116 -1.3368  0.5301
 2286SOL     OW10355   9.621   0.002   9.638  0.1055 -0.5236 -0.2015
 2286SOL    HW110356   9.664  -0.082   9.656  1.6246  0.1498 -0.5062
 2286SOL    HW210357   9.610   0.043   9.724 -0.4373 -0.9224 -0.0727
 2287SOL     OW10358   9.837   0.853   0.343  0.1571  0.2276  0.0473
 2287SOL    HW110359   9.768   0.882   0.284 -1.2046  0.1543  1.5414
 2287SOL    HW210360   9.793   0.794   0.404  1.8091 -0.8298  0.2688
 2288SOL     OW10361   5.317   7.284   3.001  0.9104  0.4330 -1.1181
 2288SOL    HW110362   5.238   7.232   3.007  1.2425 -0.1450 -1.5967
 2288SOL    HW210363   5.388   7.223   3.022  1.1755  1.1634  0.2036
 2289SOL     OW10364   2.269   4.362   1.108  0.1528  0.7066 -0.2449
 2289SOL    HW110365   2.361   4.363   1.081  0.0538  2.6619 -0.6760
 2289SOL    HW210366   2.272   4.368   1.203  0.5130  1.8881 -0.3063
 2290SOL     OW10367   0.611  10.113   7.219  0.6616 -0.3421  0.5656
 2290SOL    HW110368   0.589  10.045   7.283  0.9144 -0.4324  0.5544
 2290SOL    HW210369   0.700  10.094   7.193  1.0319  0.4773  1.1806
 2291SOL     OW10370  10.470   1.452   0.276  0.0414 -0.3686 -1.0303
 2291SOL    HW110371  10.425   1.381   0.321 -1.4825  1.9627  1.4239
 2291SOL    HW210372  10.401   1.498   0.228  0.2846  1.4269  0.2452
 2292SOL     OW10373   2.901  10.590  10.949 -0.6146  0.9349 -0.0041
 2292SOL    HW110374   2.876  10.498  10.952 -2.8483  1.4615 -0.0755
 2292SOL    HW210375   2.951  10.599  10.868 -0.7217 -0.1400 -0.2038
 2293SOL     OW10376  10.870   2.670   6.769  0.0885 -0.2437  0.4722
 2293SOL    HW110377  10.920   2.632   6.842  2.0283  1.2386 -0.0325
 2293SOL    HW210378  10.850   2.759   6.797  0.9616  0.3862 -0.8200
 2294SOL     OW10379   0.373   4.181   6.877 -0.7676  0.2832  0.4326
 2294SOL    HW110380   0.375   4.225   6.962 -0.0804  2.0878 -0.4477
 2294SOL    HW210381   0.285   4.197   6.843 -0.8269  0.1431  0.5203
 2295SOL     OW10382   6.075   5.340   9.244  0.2409 -0.5504  0.2768
 2295SOL    HW110383   6.145   5.281   9.215 -0.0586 -1.1865  0.8403
 2295SOL    HW210384   6.097   5.362   9.335  0.5505  0.5148 -0.0352
 2296SOL     OW10385   2.251   1.403   4.466  0.4461 -0.1488  0.2155
 2296SOL    HW110386   2.250   1.450   4.549  2.3989  0.1872  0.0988
 2296SOL    HW210387   2.342   1.407   4.437 -0.3116  0.4660 -2.3568
 2297SOL     OW10388   5.558   7.003   0.291 -0.0790 -0.0351  0.3557
 2297SOL    HW110389   5.523   6.919   0.320  0.7106 -0.6279 -0.3402
 2297SOL    HW210390   5.502   7.069   0.332  0.2182 -0.8474  2.1362
 2298SOL     OW10391  10.626   3.451   8.320  0.0384  1.2529 -0.4653
 2298SOL    HW110392  10.632   3.388   8.392 -0.5011  0.9973 -0.6409
 2298SOL    HW210393  10.532   3.460   8.304  0.1793  0.4793 -1.8623
 2299SOL     OW10394  10.208   3.194   0.021  0.2970  0.2572 -0.4222
 2299SOL    HW110395  10.127   3.204  -0.029  0.3336 -0.9450 -0.7625
 2299SOL    HW210396  10.216   3.099   0.035  1.1586  0.4392  0.4223
 2300SOL     OW10397   2.800  10.718   4.957  0.4107  0.5248  0.6509
 2300SOL    HW110398   2.735  10.778   4.994 -0.0470 -0.0380  0.7787
 2300SOL    HW210399   2.861  10.775   4.909  0.2432  1.1274  1.1451
 2301SOL     OW10400   2.582   2.526   9.299 -0.2030 -0.5502  0.1734
 2301SOL    HW110401   2.641   2.596   9.327 -0.7133 -0.4802  1.1317
 2301SOL    HW210402   2.514   2.523   9.367 -0.1655 -2.0171  0.1815
 2302SOL     OW10403   3.307   4.544   5.589  0.7046 -0.2600  0.2973
 2302SOL    HW110404   3.344   4.469   5.635  0.8399 -0.3563  0.0372
 2302SOL    HW210405   3.359   4.618   5.619  1.3878 -0.4529 -0.3704
 2303SOL     OW10406   7.548   7.404   4.802  0.4953 -0.1392 -0.6039
 2303SOL    HW110407   7.602   7.356   4.864 -0.1312 -0.1800 -0.0753
 2303SOL    HW210408   7.546   7.494   4.836  0.4144 -0.0882 -0.7393
 2304SOL     OW10409   7.249   4.629   4.940  0.3475  0.4012  0.2404
 2304SOL    HW110410   7.211   4.542   4.925 -0.8142  1.1813 -1.6949
 2304SOL    HW210411   7.183   4.676   4.990 -0.2283  0.9710 -1.0025
 2305SOL     OW10412   1.433   8.098   7.198  0.0377 -0.2751  0.0980
 2305SOL    HW110413   1.506   8.097   7.137 -1.6538  0.4903 -2.0492
 2305SOL    HW210414   1.473   8.117   7.283  2.4693 -1.3980 -0.7289
 2306SOL     OW10415   0.305   2.989   6.085  0.2343 -0.0231  0.1248
 2306SOL    HW110416   0.309   3.079   6.117 -1.2427 -0.0437  0.4523
 2306SOL    HW210417   0.245   2.945   6.145 -1.0275 -0.5739 -1.4761
 2307SOL     OW10418   2.170   1.225   3.017  0.3117  0.3352  0.4893
 2307SOL    HW110419   2.238   1.158   3.020  0.5294  0.3946 -1.5023
 2307SOL    HW210420   2.090   1.180   3.045  0.4683 -0.7659 -0.7438
 2308SOL     OW10421   2.730   6.339   4.674 -0.4556 -0.3359  0.1938
 2308SOL    HW110422   2.695   6.310   4.590 -3.1351 -0.6417  1.2952
 2308SOL    HW210423   2.716   6.264   4.732  1.0094  0.0030  1.0280
 2309SOL     OW10424   9.453   0.225  10.171  0.1024  0.5815 -0.0575
 2309SOL    HW110425   9.546   0.214  10.150 -0.0557 -1.1834  0.0888
 2309SOL    HW210426   9.453   0.285  10.246  1.3757 -1.8923  2.0752
 2310SOL     OW10427   5.785   1.408   4.119  0.3288  0.2817 -0.0820
 2310SOL    HW110428   5.778   1.503   4.126 -0.0273  0.2735 -0.2903
 2310SOL    HW210429   5.722   1.384   4.050  0.8870 -0.0314 -0.4977
 2311SOL     OW10430   9.054   4.927   2.538  0.2659  0.1617 -0.4818
 2311SOL    HW110431   9.114   4.923   2.613  0.4432 -0.3754 -0.6462
 2311SOL    HW210432   9.069   5.013   2.501  0.9625  0.0276 -0.5321
 2312SOL     OW10433   3.130   5.557   3.175 -0.1072  0.5564  0.4571
 2312SOL    HW110434   3.113   5.464   3.188 -1.4358  0.7970  0.5551
 2312SOL    HW210435   3.200   5.560   3.110 -1.0095 -0.4933 -0.5912
 2313SOL     OW10436   7.614   7.139   5.962 -0.3990 -0.6188 -0.0939
 2313SOL    HW110437   7.566   7.210   5.920  1.9870  1.7695  0.9311
 2313SOL    HW210438   7.583   7.138   6.052 -2.6371 -3.0672 -0.7859
 2314SOL     OW10439   4.603   8.605  10.030 -0.2984 -0.0137  0.2837
 2314SOL    HW110440   4.510   8.582  10.037 -0.3657  0.2184  0.1791
 2314SOL    HW210441   4.602   8.700  10.018  0.0498  0.7266  4.4703
 2315SOL     OW10442   3.726   2.670   7.427  0.0275  0.0632  0.2053
 2315SOL    HW110443   3.804   2.703   7.473  0.0984  2.7796 -1.6507
 2315SOL    HW210444   3.654   2.718   7.467 -0.1151  1.0282 -1.1413
 2316SOL     OW10445  10.195   3.037   7.872 -0.2863 -0.4090 -0.4557
 2316SOL    HW110446  10.205   2.998   7.785 -1.5032 -1.0129 -0.3546
 2316SOL    HW210447  10.113   3.087   7.865  0.5405  1.0146 -0.1716
 2317SOL     OW10448   5.293   5.048   8.153  0.1511  0.3413  0.4634
 2317SOL    HW110449   5.240   5.119   8.190 -0.3991 -0.6269  1.6115
 2317SOL    HW210450   5.241   5.014   8.081  0.3362  0.9861  0.0240
 2318SOL     OW10451   0.162   1.226   8.349  0.5543  0.0437 -0.0984
 2318SOL    HW110452   0.246   1.269   8.333  1.1195 -0.4742  1.2668
 2318SOL    HW210453   0.128   1.267   8.429 -0.0178 -0.4146 -0.0938
 2319SOL     OW10454   7.132   9.659   7.816 -0.3108  0.1325 -0.0254
 2319SOL    HW110455   7.162   9.609   7.740  1.1817 -0.5080  0.9362
 2319SOL    HW210456   7.068   9.602   7.859 -0.5712  0.1631 -0.3709
 2320SOL     OW10457   6.450   6.448  10.645  0.3786  0.0088 -0.4080
 2320SOL    HW110458   6.422   6.462  10.555 -1.0586 -0.9212 -0.1301
 2320SOL    HW210459   6.494   6.530  10.670  1.1743  0.1170 -2.0655
 2321SOL     OW10460  10.850   4.559   0.697 -0.1398 -0.0786  0.0358
 2321SOL    HW110461  10.867   4.653   0.683 -0.0061  0.0896  1.2847
 2321SOL    HW210462  10.896   4.516   0.625 -0.5172  0.8236 -0.7850
 2322SOL     OW10463   4.359   8.550   4.018  0.4045 -0.2850 -0.3841
 2322SOL    HW110464   4.312   8.467   4.018  0.0638 -0.0926 -0.3156
 2322SOL    HW210465   4.328   8.595   4.096  1.4181 -0.5562  0.2066
 2323SOL     OW10466   2.434   5.317   1.562 -0.4397  0.2105 -0.4483
 2323SOL    HW110467   2.509   5.294   1.617  0.7809 -1.3113 -2.6068
 2323SOL    HW210468   2.422   5.411   1.577  0.7435  0.1409  1.2758
 2324SOL     OW10469   8.735   1.796   3.296 -0.4724 -0.0239  0.0379
 2324SOL    HW110470   8.771   1.742   3.367 -0.6145  1.8808  1.6565
 2324SOL    HW210471   8.717   1.880   3.338 -1.2524  0.9438 -2.1338
 2325SOL     OW10472   3.950   2.832   9.905  0.0747  0.0208  0.0615
 2325SOL    HW110473   3.958   2.745   9.867 -0.0386  0.0222  0.0341
 2325SOL    HW210474   3.902   2.882   9.839 -1.8136 -0.4750  1.0076
 2326SOL     OW10475   5.804   2.562   1.676 -0.2833  0.6567 -0.1537
 2326SOL    HW110476   5.831   2.497   1.611 -1.7841 -0.8678  0.6709
 2326SOL    HW210477   5.882   2.614   1.691  0.4083  0.3613 -2.3554
 2327SOL     OW10478   4.531   1.961   4.331 -0.3596 -0.4478 -0.3530
 2327SOL    HW110479   4.564   1.916   4.253  0.3616 -2.3732  0.9762
 2327SOL    HW210480   4.607   1.967   4.389 -0.6278  1.8566 -0.1261
 2328SOL     OW10481   8.117   5.946   1.382  0.2750 -0.9377 -0.9058
 2328SOL    HW110482   8.023   5.931   1.373 -0.0926  0.0647  0.7927
 2328SOL    HW210483   8.142   5.989   1.300 -0.6296 -1.6701 -1.5869
 2329SOL     OW10484   3.488   3.012   1.328  0.0614  0.3422  0.0220
 2329SOL    HW110485   3.464   3.092   1.281 -1.4027  0.0233  0.1743
 2329SOL    HW210486   3.421   2.948   1.303  0.4055 -0.4212  0.9877
 2330SOL     OW10487   7.789   7.873   5.140 -0.6171  0.2226  0.4133
 2330SOL    HW110488   7.859   7.886   5.204 -1.4036  1.5587  1.0663
 2330SOL    HW210489   7.815   7.796   5.090  2.8042  2.2208 -1.3193
 2331SOL     OW10490   2.621   1.104   0.298 -0.2356  0.6765 -0.1914
 2331SOL    HW110491   2.654   1.022   0.261  1.7100  0.8287  1.0493
 2331SOL    HW210492   2.592   1.081   0.386  1.0656  1.4182  0.4634
 2332SOL     OW10493   9.342   9.240   4.913  0.0288  0.7025 -0.1780
 2332SOL    HW110494   9.359   9.146   4.913 -0.9034  0.5228  0.3269
 2332SOL    HW210495   9.406   9.276   4.975 -1.7639 -0.0476  2.2384
 2333SOL     OW10496   2.678   4.424   4.608 -0.0535  0.2837  0.2657
 2333SOL    HW110497   2.744   4.428   4.538  1.7745  1.3163  1.9423
 2333SOL    HW210498   2.639   4.511   4.610 -1.9409 -0.4704 -1.0618
 2334SOL     OW10499   8.722   1.565   1.268 -0.3909 -0.8346 -0.4246
 2334SOL    HW110500   8.743   1.605   1.352 -0.8938 -2.3032  0.4449
 2334SOL    HW210501   8.792   1.594   1.209 -1.3186  2.1835 -0.2178
 2335SOL     OW10502   4.692   5.294   8.117 -0.3767 -0.2973 -0.0798
 2335SOL    HW110503   4.744   5.224   8.156 -0.8053 -1.1213 -0.9386
 2335SOL    HW210504   4.740   5.317   8.037 -0.8158 -0.3728 -0.3665
 2336SOL     OW10505   2.703   5.635   5.979  0.1523  0.2272 -0.2553
 2336SOL    HW110506   2.658   5.626   5.895  0.3362 -0.3099 -0.2985
 2336SOL    HW210507   2.639   5.678   6.036  0.4101  1.6245 -0.9693
 2337SOL     OW10508   0.570   9.451   2.367 -0.0129  0.8531 -0.0407
 2337SOL    HW110509   0.623   9.374   2.349  2.0242  2.5656 -1.9011
 2337SOL    HW210510   0.498   9.446   2.303 -1.2171 -0.5865  1.3468
 2338SOL     OW10511  10.699   9.218  10.960  0.5184 -0.4236 -0.3520
 2338SOL    HW110512  10.730   9.179  11.042  0.4513  0.0369 -0.1041
 2338SOL    HW210513  10.639   9.288  10.988  0.4371 -0.3165 -0.7953
 2339SOL     OW10514   2.962   4.056   5.551 -0.5914 -0.3171  0.3172
 2339SOL    HW110515   2.988   4.130   5.606 -0.5155  0.3686 -0.6188
 2339SOL    HW210516   3.021   3.985   5.577  0.3890  0.4135  0.1413
 2340SOL     OW10517   8.801   0.527   0.076 -0.2693  0.0762  0.3012
 2340SOL    HW110518   8.872   0.574   0.119 -0.7422  1.1400 -0.0361
 2340SOL    HW210519   8.793   0.570  -0.010 -0.9973 -0.3408  0.1573
 2341SOL     OW10520   9.627   5.736   3.422  0.1973 -0.0862  0.1223
 2341SOL    HW110521   9.690   5.806   3.443 -2.0438  2.5012 -1.2111
 2341SOL    HW210522   9.561   5.743   3.490 -1.0011  0.3922 -1.0586
 2342SOL     OW10523   6.661   3.177   4.653  0.1117 -0.5395  0.0992
 2342SOL    HW110524   6.704   3.261   4.639 -1.3953 -0.0583 -2.1531
 2342SOL    HW210525   6.731   3.119   4.683  0.7390  2.0386  4.4649
 2343SOL     OW10526   3.613   3.746   9.657  0.0518 -0.4440 -0.0636
 2343SOL    HW110527   3.594   3.708   9.742 -2.8110  1.0022  0.0694
 2343SOL    HW210528   3.539   3.719   9.602 -0.3160  2.0213 -0.8842
 2344SOL     OW10529  10.757  10.151   5.624 -0.2103 -0.3751 -0.5989
 2344SOL    HW110530  10.793  10.226   5.577 -0.6408  0.1868 -0.0549
 2344SOL    HW210531  10.823  10.083   5.616  0.9976  0.6346  0.4149
 2345SOL     OW10532   3.233   7.553  10.846  0.1571  0.0885 -0.1116
 2345SOL    HW110533   3.196   7.638  10.870  0.8963  1.0915 -2.2424
 2345SOL    HW210534   3.313   7.575  10.797  1.4423 -1.9010  0.9563
 2346SOL     OW10535   4.914  10.684   9.194  0.3547  0.4769 -0.0131
 2346SOL    HW110536   4.947  10.621   9.257  2.6356  0.9444 -0.6376
 2346SOL    HW210537   4.967  10.670   9.115 -1.8766  0.4210 -1.6077
 2347SOL     OW10538   9.671   9.146   7.415  0.5661 -0.3437 -0.2749
 2347SOL    HW110539   9.617   9.069   7.400  0.9496 -0.5524 -0.5876
 2347SOL    HW210540   9.737   9.117   7.478  0.1364 -0.0068  0.3364
 2348SOL     OW10541  10.335   9.802   2.295  0.1324 -0.2239 -0.4914
 2348SOL    HW110542  10.381   9.720   2.310 -0.6324 -0.2602  2.1020
 2348SOL    HW210543  10.287   9.788   2.213  2.7100 -1.0434 -1.9783
 2349SOL     OW10544   5.166   6.072   5.025 -0.0931 -0.0779  0.0479
 2349SOL    HW110545   5.163   5.977   5.021 -0.2391 -0.1168  0.8289
 2349SOL    HW210546   5.166   6.092   5.119 -1.1079  0.7181 -0.0961
 2350SOL     OW10547   5.669   0.722   7.704  0.2227  0.4984 -0.3449
 2350SOL    HW110548   5.603   0.728   7.774 -0.2523 -0.1295 -0.7272
 2350SOL    HW210549   5.665   0.807   7.660  1.8688  1.6456  1.5363
 2351SOL     OW10550   6.080   4.733   4.900 -0.0103  0.1114 -0.5934
 2351SOL    HW110551   6.024   4.811   4.902  0.4875  0.4526  0.3906
 2351SOL    HW210552   6.140   4.749   4.828  0.2198  0.7354 -0.2733
 2352SOL     OW10553   4.032  10.133   9.115 -0.2306  0.6889  0.6251
 2352SOL    HW110554   4.060  10.110   9.026 -0.6062  1.1629  0.3816
 2352SOL    HW210555   4.113  10.132   9.166 -0.1802 -0.7805  0.5506
 2353SOL     OW10556   0.869   9.878   1.625  0.7036  0.0087 -0.0750
 2353SOL    HW110557   0.796   9.937   1.642  0.3501 -0.6008  0.5042
 2353SOL    HW210558   0.937   9.907   1.686  0.5973 -0.0750  0.0806
 2354SOL     OW10559   9.478   7.941   0.569 -0.6140  0.0034  0.0460
 2354SOL    HW110560   9.568   7.970   0.556 -0.6228  0.0980  0.1879
 2354SOL    HW210561   9.426   8.001   0.516 -0.6394  0.3019  0.3978
 2355SOL     OW10562   3.094   4.556   0.339 -0.0542 -0.5206 -0.4210
 2355SOL    HW110563   3.051   4.541   0.423 -1.2903 -1.0019 -1.1089
 2355SOL    HW210564   3.115   4.649   0.340  0.7170 -0.6870  0.7528
 2356SOL     OW10565  10.555   5.657   8.676  0.5008  0.2835 -0.3746
 2356SOL    HW110566  10.493   5.685   8.609 -1.9355  2.0653  2.3849
 2356SOL    HW210567  10.550   5.561   8.675  0.2691  0.2780 -2.4063
 2357SOL     OW10568   1.048   5.651   3.557 -0.3925 -0.4410  0.5452
 2357SOL    HW110569   1.071   5.742   3.578 -1.8233 -0.5942  3.0801
 2357SOL    HW210570   0.968   5.658   3.506 -0.5370 -0.2733  0.7937
 2358SOL     OW10571   5.469   7.789   4.103  0.2210 -0.2114  0.2904
 2358SOL    HW110572   5.443   7.826   4.188  1.5572  0.8979  0.2626
 2358SOL    HW210573   5.446   7.857   4.040 -0.6350 -0.9741 -0.2439
 2359SOL     OW10574   8.750  10.380   2.332  0.4637  0.8162  0.3110
 2359SOL    HW110575   8.790  10.294   2.317 -0.7482  0.4198 -0.9498
 2359SOL    HW210576   8.678  10.363   2.392  0.4594  1.0152  0.3619
 2360SOL     OW10577   3.238   9.274   6.806 -0.7015  0.0023  0.0099
 2360SOL    HW110578   3.219   9.333   6.879 -0.7870 -1.3198  1.0997
 2360SOL    HW210579   3.154   9.263   6.761 -0.6690  0.7373 -0.2560
 2361SOL     OW10580   1.379   2.659   8.762 -0.3029  0.2235  0.0557
 2361SOL    HW110581   1.295   2.650   8.806 -0.1319 -1.2028  0.1477
 2361SOL    HW210582   1.433   2.709   8.823 -0.8235  0.3964  0.3771
 2362SOL     OW10583   7.371   1.424   5.568  0.2886 -0.3018 -0.6308
 2362SOL    HW110584   7.450   1.445   5.618 -0.4979  0.5768  0.2773
 2362SOL    HW210585   7.299   1.445   5.627 -0.6551 -0.0919 -1.8194
 2363SOL     OW10586  10.431   0.782   0.577 -0.1775  0.0945 -0.2521
 2363SOL    HW110587  10.403   0.860   0.529 -0.9723  0.1659  0.3211
 2363SOL    HW210588  10.353   0.753   0.623  0.8989  0.8743  2.2049
 2364SOL     OW10589   9.733   2.951   5.043  0.2128 -0.2031  0.5958
 2364SOL    HW110590   9.729   3.040   5.006  0.9204  0.5193  2.1770
 2364SOL    HW210591   9.684   2.897   4.980  1.1196  1.0002 -1.2212
 2365SOL     OW10592   8.967   0.255   2.461 -0.2360  0.6509  0.4797
 2365SOL    HW110593   9.040   0.222   2.515  0.2342  2.3406  0.9394
 2365SOL    HW210594   8.897   0.272   2.524  0.2177  2.3665  0.5741
 2366SOL     OW10595   7.081   4.917   7.752  0.4898 -0.6796  0.0872
 2366SOL    HW110596   7.060   4.996   7.703  0.9487 -0.6552 -0.0798
 2366SOL    HW210597   7.102   4.851   7.686  0.4033 -0.8534  0.2307
 2367SOL     OW10598   8.275   8.367   2.452  0.3282  0.6517 -0.1933
 2367SOL    HW110599   8.223   8.329   2.381  1.5224  0.0401 -0.7680
 2367SOL    HW210600   8.216   8.367   2.527 -0.7947  0.8453 -1.0551
 2368SOL     OW10601   3.397   1.849   3.490 -0.6145  0.2574  0.0106
 2368SOL    HW110602   3.466   1.784   3.502 -0.5862  0.2066 -0.3871
 2368SOL    HW210603   3.438   1.933   3.514 -0.5549  0.1692  0.2159
 2369SOL     OW10604   3.119   6.263   9.059  0.1695 -0.2480 -0.1495
 2369SOL    HW110605   3.046   6.202   9.047 -0.6384  0.3753  1.2918
 2369SOL    HW210606   3.110   6.326   8.987 -0.2025 -0.6755 -0.4760
 2370SOL     OW10607   7.009   2.926   5.630 -0.3789  0.0813 -0.1765
 2370SOL    HW110608   7.080   2.941   5.692  0.0090 -0.8854 -0.3762
 2370SOL    HW210609   7.017   2.998   5.567  1.4453 -0.8841 -1.1258
 2371SOL     OW10610   7.588   1.945   9.164 -0.3505  0.5221 -0.3083
 2371SOL    HW110611   7.580   1.850   9.151  2.8636  0.4844 -3.8783
 2371SOL    HW210612   7.647   1.953   9.239 -2.7943 -0.0642  1.8164
 2372SOL     OW10613   3.118   8.542   4.663  0.0105  0.0837 -0.8949
 2372SOL    HW110614   3.122   8.543   4.759  1.5082  1.8900 -0.9213
 2372SOL    HW210615   3.110   8.449   4.640 -0.4009 -0.3760  0.9563
 2373SOL     OW10616   9.424   7.430   0.740 -0.5623 -0.3918  0.0772
 2373SOL    HW110617   9.455   7.339   0.750  0.5794 -0.2049 -1.3047
 2373SOL    HW210618   9.389   7.432   0.651 -1.0467  0.3975  0.2880
 2374SOL     OW10619   7.857  10.719   4.593  0.1864  0.5852 -0.1594
 2374SOL    HW110620   7.770  10.687   4.616  0.0147  0.6594 -0.6806
 2374SOL    HW210621   7.895  10.648   4.540 -0.4948  1.5344 -1.9894
 2375SOL     OW10622   2.571   2.817  10.566 -0.3157  0.5432  0.1050
 2375SOL    HW110623   2.656   2.774  10.562 -1.8496 -2.7778 -0.0588
 2375SOL    HW210624   2.544   2.810  10.657  1.4508  6.0919  1.4809
 2376SOL     OW10625   8.129   2.102   2.046  0.1049 -0.1867  0.3334
 2376SOL    HW110626   8.147   2.095   2.140 -3.2063  1.7550  1.3004
 2376SOL    HW210627   8.128   2.012   2.015  1.6717 -0.8592  2.0503
 2377SOL     OW10628   6.584   4.258   3.017  0.2301 -0.2247  0.0415
 2377SOL    HW110629   6.563   4.167   2.996  1.0954 -0.4323  0.0473
 2377SOL    HW210630   6.633   4.289   2.941 -1.8615  0.9086 -0.9218
 2378SOL     OW10631   2.342   4.746  10.251  0.2556  0.0130  0.8821
 2378SOL    HW110632   2.253   4.711  10.262  0.3770 -0.4637  0.4014
 2378SOL    HW210633   2.399   4.670  10.256  0.4462 -0.0603 -1.2574
 2379SOL     OW10634   4.625   3.242   9.632  0.1074 -0.0531 -0.7214
 2379SOL    HW110635   4.698   3.293   9.598  0.7416 -0.8338 -0.5620
 2379SOL    HW210636   4.665   3.183   9.696 -0.9112  0.7184  0.6865
 2380SOL     OW10637   9.981   2.549  10.707 -0.1267 -0.0040  0.7998
 2380SOL    HW110638  10.054   2.491  10.728  0.0355  0.2398  0.9076
 2380SOL    HW210639   9.919   2.536  10.778 -0.5592 -0.8173  0.3014
 2381SOL     OW10640   4.557   5.789   1.086  0.3613 -0.3328  0.3742
 2381SOL    HW110641   4.541   5.741   1.005  1.0163 -0.5059  0.3364
 2381SOL    HW210642   4.652   5.787   1.096  0.5395  2.0275 -0.2512
 2382SOL     OW10643   7.624   8.970   9.279  0.5480  0.4677 -0.8263
 2382SOL    HW110644   7.678   8.931   9.348 -0.1673  0.5313 -0.2200
 2382SOL    HW210645   7.639   8.915   9.203 -0.3210 -0.9046 -0.0302
 2383SOL     OW10646   3.317   0.892   2.419  0.5581  0.3659 -0.5230
 2383SOL    HW110647   3.275   0.882   2.504 -0.2120 -1.4175 -1.0693
 2383SOL    HW210648   3.411   0.891   2.439  0.3954 -0.6052  0.2691
 2384SOL     OW10649   1.040   7.242   6.550 -0.0040  0.5009  0.3326
 2384SOL    HW110650   1.131   7.229   6.523 -0.1528 -0.2823  0.1800
 2384SOL    HW210651   0.989   7.227   6.471 -0.2770  0.7351  0.4655
 2385SOL     OW10652   0.337   1.563   4.052 -0.7723 -0.4532  0.0386
 2385SOL    HW110653   0.395   1.566   4.129 -0.2258 -1.6933 -0.2960
 2385SOL    HW210654   0.376   1.624   3.990 -1.0204  0.2954  0.5986
 2386SOL     OW10655   7.044   0.714   1.752  0.0623  0.2796  0.2885
 2386SOL    HW110656   7.078   0.626   1.770 -2.2165 -0.6526  0.4112
 2386SOL    HW210657   6.992   0.736   1.830 -0.9727  0.8954 -0.5452
 2387SOL     OW10658   1.095   7.767   2.597  0.4454  0.1515 -0.0492
 2387SOL    HW110659   1.102   7.671   2.591  0.8886  0.1310  0.7095
 2387SOL    HW210660   1.044   7.783   2.676  2.2669  0.5637  1.1167
 2388SOL     OW10661   1.227   0.754   1.815 -0.2031 -0.8377  0.2437
 2388SOL    HW110662   1.138   0.723   1.830 -0.9259  1.6975  1.8275
 2388SOL    HW210663   1.259   0.702   1.741 -2.4737 -2.7588  0.5122
 2389SOL     OW10664   8.184   3.338   2.971 -0.1792 -0.0268  0.5936
 2389SOL    HW110665   8.128   3.261   2.959 -1.2361  0.4900  1.8651
 2389SOL    HW210666   8.126   3.403   3.011  0.8857  1.1752  0.2348
 2390SOL     OW10667   7.822   6.289   7.234 -0.1127 -0.0987  0.4715
 2390SOL    HW110668   7.767   6.275   7.157 -0.1466 -0.0071  0.4789
 2390SOL    HW210669   7.763   6.330   7.297 -0.0515 -0.0573  0.5015
 2391SOL     OW10670   9.398   8.861   6.485  0.0539 -0.3008  0.4651
 2391SOL    HW110671   9.355   8.852   6.400 -1.9418  0.1054  1.3874
 2391SOL    HW210672   9.468   8.925   6.470 -0.4051 -0.0849 -0.8146
 2392SOL     OW10673   4.015   0.513   4.923 -0.7790  0.4218  0.1700
 2392SOL    HW110674   3.930   0.540   4.958 -1.2659 -1.6264  0.6895
 2392SOL    HW210675   3.995   0.436   4.869  0.5540  0.8596 -0.9857
 2393SOL     OW10676  10.857   2.283  10.804  0.3759 -0.6151  0.1700
 2393SOL    HW110677  10.883   2.375  10.815 -1.9015  0.6076 -3.2021
 2393SOL    HW210678  10.940   2.235  10.808  1.8453  1.7466  0.5555
 2394SOL     OW10679   3.710   1.136   5.101 -0.2730 -0.6653  0.7497
 2394SOL    HW110680   3.667   1.120   5.185 -1.7307  0.6263  0.3015
 2394SOL    HW210681   3.642   1.175   5.046  0.1336 -3.1066 -1.6625
 2395SOL     OW10682   0.430   7.957   9.075 -0.4987  0.0804  0.4223
 2395SOL    HW110683   0.411   8.028   9.136 -2.7953 -1.0608  1.1207
 2395SOL    HW210684   0.526   7.950   9.075 -0.2853  2.3341  1.2607
 2396SOL     OW10685   7.100   7.722  10.487 -0.2343  0.5911  0.2712
 2396SOL    HW110686   7.113   7.681  10.401 -0.1640 -1.1388  1.0782
 2396SOL    HW210687   7.172   7.785  10.494  1.0821 -0.8365 -0.0192
 2397SOL     OW10688   7.142   0.906   0.300 -0.0253 -0.2508  0.0228
 2397SOL    HW110689   7.227   0.938   0.268  0.5280 -0.7868  0.8879
 2397SOL    HW210690   7.161   0.817   0.331 -0.6656 -0.0113  1.1498
 2398SOL     OW10691   8.079   2.435   9.272 -0.2201  0.3452 -0.4269
 2398SOL    HW110692   8.043   2.522   9.254  0.0059  0.6823  0.6799
 2398SOL    HW210693   8.153   2.426   9.212 -0.3858  0.8167 -0.7076
 2399SOL     OW10694   9.827  10.835   1.648 -0.3338  0.4965  0.5182
 2399SOL    HW110695   9.869  10.904   1.597 -0.0091 -0.3250 -0.3540
 2399SOL    HW210696   9.751  10.809   1.596  0.3573 -0.7859  0.0991
 2400SOL     OW10697   5.040   0.676   2.947  0.4522 -0.4579 -0.2451
 2400SOL    HW110698   5.120   0.629   2.922  0.9131 -0.7937  1.7495
 2400SOL    HW210699   5.071   0.752   2.996 -0.3975 -1.9680  2.9036
 2401SOL     OW10700   4.363   4.001   3.191 -0.3649  0.5075 -0.3706
 2401SOL    HW110701   4.395   3.950   3.265  0.5482  0.8157 -0.5391
 2401SOL    HW210702   4.347   3.937   3.122  1.8932  0.5193 -0.9737
 2402SOL     OW10703   8.962   5.186   2.492  0.1609 -0.1659 -0.1230
 2402SOL    HW110704   8.901   5.199   2.565  0.7616 -0.0441  0.3645
 2402SOL    HW210705   8.907   5.151   2.421 -0.6597  0.8615 -0.0228
 2403SOL     OW10706   2.919   3.551   1.806 -0.2533 -0.3234 -0.2187
 2403SOL    HW110707   2.842   3.600   1.776 -0.7067  0.7588  2.4570
 2403SOL    HW210708   2.885   3.489   1.870  0.9645 -0.6092  0.1767
 2404SOL     OW10709   4.120   2.228   5.417 -0.2804 -0.4142 -0.0138
 2404SOL    HW110710   4.165   2.161   5.366 -1.1363 -0.7609 -0.3266
 2404SOL    HW210711   4.052   2.181   5.464 -0.0988  0.0486  0.7433
 2405SOL     OW10712   3.578   8.710   5.201  0.2816  0.1578 -0.1746
 2405SOL    HW110713   3.660   8.665   5.220 -0.3064 -2.2081 -2.5691
 2405SOL    HW210714   3.511   8.654   5.242 -0.3632 -0.4657 -1.9614
 2406SOL     OW10715   8.561   9.687   4.257  0.1132  0.2256  0.3423
 2406SOL    HW110716   8.535   9.595   4.258  0.3343  0.0609 -2.2515
 2406SOL    HW210717   8.502   9.728   4.194  1.4810  1.3379 -0.2850
 2407SOL     OW10718   9.043   7.518   2.270 -0.4290  0.0081  0.4975
 2407SOL    HW110719   9.121   7.546   2.222 -0.2366  1.3118  1.5152
 2407SOL    HW210720   9.052   7.558   2.357 -1.9525 -0.2892  0.8314
 2408SOL     OW10721   1.584   7.674   2.945  0.0224  0.1378  0.4888
 2408SOL    HW110722   1.610   7.648   2.856  0.2023 -0.7841  0.8028
 2408SOL    HW210723   1.658   7.725   2.978  0.0428  0.3041  0.1968
 2409SOL     OW10724   5.251   3.811   5.725  0.3224 -0.0466 -0.0701
 2409SOL    HW110725   5.238   3.777   5.814 -0.9687  1.9245  0.5568
 2409SOL    HW210726   5.203   3.893   5.724  2.5763  1.3430 -1.7542
 2410SOL     OW10727   3.278   1.657   3.795 -0.0683 -0.0034  0.0595
 2410SOL    HW110728   3.257   1.564   3.800  1.3327 -0.3623 -0.2844
 2410SOL    HW210729   3.350   1.662   3.732 -0.3697  1.3596 -0.2024
 2411SOL     OW10730   4.522  10.155   0.693  0.1433  1.3007 -0.2062
 2411SOL    HW110731   4.526  10.101   0.614  0.6923  0.5062  0.3471
 2411SOL    HW210732   4.558  10.239   0.666 -0.4007  1.2908 -1.0003
 2412SOL     OW10733   8.641   3.032   6.401  0.3437  0.0704 -0.6346
 2412SOL    HW110734   8.603   3.119   6.388 -0.5157 -0.3460 -1.0375
 2412SOL    HW210735   8.709   3.044   6.467 -1.1732  0.6910  0.8898
 2413SOL     OW10736  10.894   5.757   1.153 -0.1491  0.3724  0.1863
 2413SOL    HW110737  10.819   5.816   1.156 -1.5289 -1.2449 -0.8272
 2413SOL    HW210738  10.951   5.794   1.086 -0.7677  0.8261 -0.1036
 2414SOL     OW10739   6.884   0.910   1.203  0.0788 -0.7616 -1.0024
 2414SOL    HW110740   6.957   0.896   1.143  0.9802  0.3789 -0.2256
 2414SOL    HW210741   6.863   1.003   1.194  0.4123 -0.4910  0.6093
 2415SOL     OW10742   0.058   9.127   7.121 -0.1193 -0.2002 -0.7001
 2415SOL    HW110743   0.128   9.108   7.182 -0.7050 -0.6374 -0.1508
 2415SOL    HW210744   0.078   9.075   7.043 -1.8406 -3.4830  0.8719
 2416SOL     OW10745   8.268   9.306   2.708 -0.4871  0.4878  0.1015
 2416SOL    HW110746   8.348   9.277   2.751 -0.3521 -0.3008 -0.6647
 2416SOL    HW210747   8.291   9.389   2.666 -1.3137  2.8038  3.7269
 2417SOL     OW10748   9.341   8.053   8.736  0.0830  0.1202  0.1328
 2417SOL    HW110749   9.318   8.001   8.659  0.7630 -0.9817  0.6613
 2417SOL    HW210750   9.318   7.998   8.810 -0.2624  1.0423  0.7288
 2418SOL     OW10751   2.224   1.759   9.222 -0.8077  0.2116  0.6401
 2418SOL    HW110752   2.248   1.816   9.295  0.1800  0.0128  0.4826
 2418SOL    HW210753   2.145   1.799   9.185 -1.4957  0.1518  1.9903
 2419SOL     OW10754   0.573   7.743   7.407 -0.3460  0.0870  0.3250
 2419SOL    HW110755   0.521   7.703   7.338  0.3381 -1.9551  0.9285
 2419SOL    HW210756   0.609   7.669   7.456  2.1538  1.4222  0.6535
 2420SOL     OW10757   5.021   2.109   1.374 -0.4936 -0.2853  0.1233
 2420SOL    HW110758   5.078   2.044   1.333  0.0223  0.8305 -1.0080
 2420SOL    HW210759   5.073   2.189   1.377 -2.1618  0.9521 -1.5493
 2421SOL     OW10760   4.562   6.862   1.133 -0.0085  0.8885 -0.2679
 2421SOL    HW110761   4.485   6.858   1.189  0.1376  0.2053 -0.1063
 2421SOL    HW210762   4.538   6.922   1.062 -0.1499  1.8793  0.5863
 2422SOL     OW10763   3.320   2.294   9.767  0.0479 -0.0981 -0.0760
 2422SOL    HW110764   3.319   2.365   9.703  0.0862 -0.4013 -0.4165
 2422SOL    HW210765   3.377   2.327   9.837 -0.0926  0.2854 -0.1371
 2423SOL     OW10766   6.004   7.674   2.881 -0.2330  0.4799 -0.2428
 2423SOL    HW110767   5.911   7.687   2.861 -0.2324 -0.6719 -1.1089
 2423SOL    HW210768   6.005   7.637   2.969 -0.5833  0.6793 -0.1528
 2424SOL     OW10769   8.568   0.562   4.389 -0.4196 -0.0528 -0.5993
 2424SOL    HW110770   8.598   0.632   4.447 -1.1832 -0.4020  0.2360
 2424SOL    HW210771   8.477   0.546   4.415  0.2491 -2.5649  0.4655
 2425SOL     OW10772   1.182   9.832   1.079 -0.0238 -0.4294 -0.3348
 2425SOL    HW110773   1.090   9.809   1.085 -0.2075  0.2720 -0.3741
 2425SOL    HW210774   1.186   9.924   1.105  0.7323 -0.5929  0.1810
 2426SOL     OW10775   9.995   7.345  10.933 -0.2090  0.4768  0.9802
 2426SOL    HW110776  10.021   7.410  10.998  0.4586  0.4097  0.7839
 2426SOL    HW210777   9.934   7.288  10.980  1.3076 -0.3869  1.9584
 2427SOL     OW10778   9.034   7.796   9.979  0.0743  0.2303  0.5201
 2427SOL    HW110779   8.983   7.798  10.060  0.8918 -0.6972  1.0907
 2427SOL    HW210780   9.033   7.703   9.953 -0.7066  0.6045 -0.8924
 2428SOL     OW10781   5.188   1.439   7.836 -0.0504  0.3613  0.4385
 2428SOL    HW110782   5.120   1.378   7.807 -0.6236  0.6359  1.1696
 2428SOL    HW210783   5.140   1.518   7.862  0.7032  1.3126 -0.9090
 2429SOL     OW10784   5.860   4.574   1.442  0.4016  0.6181 -0.1373
 2429SOL    HW110785   5.923   4.629   1.488  0.8793  1.2707 -1.5279
 2429SOL    HW210786   5.907   4.542   1.365 -0.1730 -0.9780  0.1254
 2430SOL     OW10787  10.269   7.477   9.875 -0.1758 -0.8002  0.4134
 2430SOL    HW110788  10.328   7.479   9.951 -0.1070 -0.7304  0.3581
 2430SOL    HW210789  10.327   7.491   9.800 -0.5283  1.2777  0.4957
 2431SOL     OW10790   2.533   4.952   8.914 -0.1104  0.6558  0.2837
 2431SOL    HW110791   2.571   4.886   8.972 -0.5480  0.0159 -0.1453
 2431SOL    HW210792   2.560   5.036   8.952  1.3594  0.2251  0.2308
 2432SOL     OW10793   8.442   2.678   6.272 -0.0044 -0.4221  0.3376
 2432SOL    HW110794   8.382   2.667   6.346 -0.8135 -0.3216 -0.2978
 2432SOL    HW210795   8.401   2.631   6.200 -0.6825  1.8747 -0.8634
 2433SOL     OW10796   3.691   6.466   5.901  0.2207  0.3553 -0.2749
 2433SOL    HW110797   3.738   6.430   5.825  1.0243 -0.2571  0.4875
 2433SOL    HW210798   3.760   6.484   5.965 -0.4496  0.8359  0.3181
 2434SOL     OW10799   8.074   4.943   6.466 -0.0626 -0.3106 -0.5129
 2434SOL    HW110800   8.123   5.025   6.457 -3.1800  1.7152 -0.8226
 2434SOL    HW210801   8.060   4.914   6.376 -1.2460  0.3796 -0.5755
 2435SOL     OW10802   7.684   4.330   4.875 -0.1649 -0.1761  0.0417
 2435SOL    HW110803   7.709   4.390   4.804 -0.9040 -1.7618 -1.6247
 2435SOL    HW210804   7.767   4.301   4.912  0.2206  0.9408  0.1011
 2436SOL     OW10805   7.492   4.650   6.673 -0.4707 -0.2367  0.4161
 2436SOL    HW110806   7.553   4.613   6.735 -2.2299  2.6697  4.3086
 2436SOL    HW210807   7.508   4.745   6.676 -1.1594  0.1545 -3.1442
 2437SOL     OW10808   3.693   6.056   2.883 -0.0054  0.0449  0.7855
 2437SOL    HW110809   3.670   6.005   2.806  1.4526  1.1200 -0.4122
 2437SOL    HW210810   3.610   6.097   2.910 -0.3728  0.3660 -0.7444
 2438SOL     OW10811   5.062   2.190  10.269  0.1865  0.3880  0.1708
 2438SOL    HW110812   5.083   2.105  10.308 -0.8476 -0.0097 -0.0999
 2438SOL    HW210813   5.057   2.250  10.342  0.6233  0.1465  0.4000
 2439SOL     OW10814   0.584   6.938   5.588 -0.1183  0.5926 -0.0534
 2439SOL    HW110815   0.617   6.936   5.678  0.3559  1.8664 -0.1924
 2439SOL    HW210816   0.643   6.996   5.541  0.0480 -0.5799 -1.3812
 2440SOL     OW10817   3.224   1.446   8.259  0.2848 -0.3565  0.3301
 2440SOL    HW110818   3.309   1.456   8.215  0.5433 -0.0837  0.8790
 2440SOL    HW210819   3.241   1.471   8.350 -0.0616 -1.6243  0.7638
 2441SOL     OW10820   8.684   7.542   4.940 -0.1948 -0.2241 -0.3114
 2441SOL    HW110821   8.744   7.616   4.941 -0.0834 -0.3174 -0.0155
 2441SOL    HW210822   8.723   7.478   4.999  0.0099 -0.7628 -1.0122
 2442SOL     OW10823   3.361   4.052   6.016 -0.3973  0.2093  0.0937
 2442SOL    HW110824   3.340   3.962   5.993  0.1765  0.3815 -1.2040
 2442SOL    HW210825   3.457   4.056   6.013 -0.4037  0.7666  0.5026
 2443SOL     OW10826   4.325   1.590   6.576 -0.2303 -0.4349 -0.4276
 2443SOL    HW110827   4.343   1.569   6.668 -0.6857 -1.9606 -0.6670
 2443SOL    HW210828   4.407   1.627   6.543  0.6286 -1.8426  0.0437
 2444SOL     OW10829   3.129   1.298   1.178  1.0538 -0.7682  0.2365
 2444SOL    HW110830   3.061   1.320   1.114  2.3175 -0.3825 -1.0314
 2444SOL    HW210831   3.151   1.207   1.160  2.0351 -0.4029 -0.5220
 2445SOL     OW10832   6.824   5.550   6.015 -0.3154 -0.1940 -0.4111
 2445SOL    HW110833   6.827   5.568   6.109  2.0126  0.5276 -0.5726
 2445SOL    HW210834   6.734   5.522   5.999 -1.4435  1.9498  1.6152
 2446SOL     OW10835  10.853   1.214   6.228 -0.1396  0.1069 -0.1769
 2446SOL    HW110836  10.948   1.204   6.237 -0.1181  1.1772  1.1191
 2446SOL    HW210837  10.830   1.157   6.154  1.3587 -0.9410  0.1096
 2447SOL     OW10838  10.770   9.513   1.503  0.0602  0.5970 -0.1355
 2447SOL    HW110839  10.862   9.485   1.505  0.1474  0.8972  0.0971
 2447SOL    HW210840  10.753   9.547   1.591 -0.4679 -0.0669  0.0267
 2448SOL     OW10841   6.320   6.265   9.655 -0.4155 -0.1467  0.2275
 2448SOL    HW110842   6.312   6.360   9.656 -0.2917 -0.0384 -2.1104
 2448SOL    HW210843   6.410   6.248   9.627 -0.0359 -1.0093  1.8281
 2449SOL     OW10844   0.253   2.231   7.371  0.4914  0.0405  0.6324
 2449SOL    HW110845   0.314   2.301   7.348  2.2290 -1.2661  1.1117
 2449SOL    HW210846   0.232   2.189   7.287 -0.6646  1.1668  0.3243
 2450SOL     OW10847   5.063   9.687  10.641  0.5174  0.8379 -0.7264
 2450SOL    HW110848   5.025   9.657  10.723  0.2882  0.0089 -1.1170
 2450SOL    HW210849   5.035   9.777  10.632  0.0898  0.7653 -0.1622
 2451SOL     OW10850   4.853   7.676   5.507 -0.2318 -1.0290  0.6069
 2451SOL    HW110851   4.780   7.721   5.548 -1.1492 -1.9464  0.0252
 2451SOL    HW210852   4.879   7.734   5.435 -0.1228 -0.5234  1.0440
 2452SOL     OW10853   7.357   5.687   7.039 -0.1151 -0.4193 -0.5175
 2452SOL    HW110854   7.426   5.695   6.973  0.0732  0.9046 -0.2024
 2452SOL    HW210855   7.400   5.712   7.121 -0.9972  0.6261 -0.3512
 2453SOL     OW10856   6.080   7.274   9.963 -0.1600  0.6337  0.5668
 2453SOL    HW110857   6.031   7.262  10.044  1.2965  0.7378  1.5129
 2453SOL    HW210858   6.156   7.216   9.973 -0.2398  0.2317 -0.9795
 2454SOL     OW10859   7.505   0.899   5.618 -0.2162  0.6837 -0.3670
 2454SOL    HW110860   7.595   0.909   5.586  0.9804  0.3940  2.5810
 2454SOL    HW210861   7.467   0.986   5.610  0.5401  0.9670 -1.0330
 2455SOL     OW10862  10.423   0.522   6.293  0.3031  0.2833  0.0387
 2455SOL    HW110863  10.440   0.608   6.331 -1.7545  0.4917  0.6307
 2455SOL    HW210864  10.363   0.480   6.354  0.5102 -1.2011 -0.7281
 2456SOL     OW10865   5.039   2.631   1.416  0.0133 -0.0381 -0.1184
 2456SOL    HW110866   5.067   2.546   1.382  0.0949  0.1146 -0.4321
 2456SOL    HW210867   4.966   2.657   1.360 -1.4457 -0.8897  1.2810
 2457SOL     OW10868   9.723   9.549   9.577  0.0274  0.2815  0.2128
 2457SOL    HW110869   9.736   9.486   9.648 -0.9795 -1.7139 -1.2672
 2457SOL    HW210870   9.795   9.533   9.517 -0.3145  0.4549 -0.2499
 2458SOL     OW10871   4.252  10.813   4.977 -0.0939  0.1117  0.4329
 2458SOL    HW110872   4.343  10.787   4.990  0.7740  1.2246 -2.6248
 2458SOL    HW210873   4.248  10.904   5.007 -0.3852 -0.1131  1.1045
 2459SOL     OW10874   9.787   6.705   2.211 -0.1457  0.0127 -0.1357
 2459SOL    HW110875   9.859   6.674   2.157 -0.0659  0.7861 -0.4847
 2459SOL    HW210876   9.818   6.692   2.301  0.0693 -0.4634 -0.2726
 2460SOL     OW10877   5.845   0.583   1.791 -0.7461 -0.0147 -0.6240
 2460SOL    HW110878   5.820   0.505   1.741  0.2933  0.0058 -1.2039
 2460SOL    HW210879   5.898   0.634   1.731  3.0822 -1.3598  1.2613
 2461SOL     OW10880   8.140   7.555   5.908  0.1198  0.0601 -0.0704
 2461SOL    HW110881   8.220   7.502   5.905  0.3273  0.3624 -3.2964
 2461SOL    HW210882   8.138   7.601   5.824 -2.1814  2.0318  0.9353
 2462SOL     OW10883   8.642   2.860   0.550 -0.1852  0.5133 -0.0336
 2462SOL    HW110884   8.610   2.832   0.464  0.6344  2.8493 -1.1517
 2462SOL    HW210885   8.729   2.894   0.534  0.4272  0.0262  1.9511
 2463SOL     OW10886   8.074   4.827   5.654  0.0705 -0.2448 -0.8433
 2463SOL    HW110887   7.988   4.819   5.612 -1.3805  0.0435  1.8202
 2463SOL    HW210888   8.056   4.874   5.736  2.8276  0.0128 -0.2905
 2464SOL     OW10889   1.193   8.885   5.268 -0.0359  0.0049  0.5078
 2464SOL    HW110890   1.264   8.890   5.332  0.3789 -0.4275  0.0840
 2464SOL    HW210891   1.226   8.931   5.191  0.4905 -1.6948 -0.3302
 2465SOL     OW10892   0.669   0.630   1.304 -0.2524 -0.2709 -0.3804
 2465SOL    HW110893   0.671   0.667   1.392  1.3443 -2.0666  0.4139
 2465SOL    HW210894   0.747   0.666   1.261 -1.1985  0.8565 -1.2240
 2466SOL     OW10895   9.728   4.858   3.134  0.5314  0.4431 -0.1231
 2466SOL    HW110896   9.809   4.854   3.184  0.2788  2.2822  0.5211
 2466SOL    HW210897   9.756   4.869   3.043  0.9929  0.1234 -0.0208
 2467SOL     OW10898   9.613   4.609   0.041 -0.2897 -0.0079  0.2387
 2467SOL    HW110899   9.570   4.587   0.123 -0.4957  0.2700  0.2067
 2467SOL    HW210900   9.627   4.525  -0.003 -2.6071  0.0147 -0.6582
 2468SOL     OW10901   6.721   4.809   5.903  0.4379  0.4877 -0.0593
 2468SOL    HW110902   6.682   4.858   5.975  0.5715  1.6047 -0.7263
 2468SOL    HW210903   6.815   4.827   5.910  0.5265  0.0645 -0.1269
 2469SOL     OW10904  10.166   8.573   0.705  0.0153  0.1495  0.2546
 2469SOL    HW110905  10.119   8.655   0.690  1.6696  1.5277  2.0848
 2469SOL    HW210906  10.229   8.568   0.633  0.4505  0.9518  0.5612
 2470SOL     OW10907   0.242   1.977   0.398  0.2607 -0.1720 -0.3855
 2470SOL    HW110908   0.188   1.916   0.349  0.0810 -1.1327  0.9559
 2470SOL    HW210909   0.254   2.052   0.339 -1.3103 -0.5681 -1.2515
 2471SOL     OW10910   4.410  10.712   8.672  0.2085  0.3893  0.3386
 2471SOL    HW110911   4.414  10.682   8.581 -1.0475 -1.8166  0.9301
 2471SOL    HW210912   4.453  10.797   8.671 -2.3566  1.9161 -2.9263
 2472SOL     OW10913   3.922   1.901   6.650  0.3024 -0.7754  0.3486
 2472SOL    HW110914   3.942   1.980   6.598 -1.6486  0.2755  1.0812
 2472SOL    HW210915   3.986   1.836   6.620  0.9493  0.5844 -1.4474
 2473SOL     OW10916   0.013  10.262  10.118 -0.4712  0.0190 -0.2811
 2473SOL    HW110917  -0.010  10.178  10.156  0.6108  0.1005  0.6071
 2473SOL    HW210918  -0.060  10.320  10.141 -0.6911 -0.3941  0.0751
 2474SOL     OW10919   6.802   4.732   1.690  0.0740  0.5052  0.1459
 2474SOL    HW110920   6.796   4.827   1.681 -1.7741  0.3812 -0.4060
 2474SOL    HW210921   6.717   4.706   1.724  0.3592 -1.0134 -0.2268
 2475SOL     OW10922   9.581   9.934   3.231 -0.2016 -0.1383  0.1087
 2475SOL    HW110923   9.568  10.027   3.251 -0.9522 -0.3098  0.4429
 2475SOL    HW210924   9.606   9.933   3.139  1.0113  0.4862  0.4162
 2476SOL     OW10925   7.129   0.120   6.418 -0.1513 -0.3692 -0.0530
 2476SOL    HW110926   7.131   0.070   6.337 -0.9725 -1.4449  0.5621
 2476SOL    HW210927   7.204   0.179   6.412  1.8938 -2.8032 -0.1142
 2477SOL     OW10928   2.764   0.289   6.546 -0.4751  0.4623  0.1279
 2477SOL    HW110929   2.676   0.319   6.525 -0.0688  0.8906 -1.0325
 2477SOL    HW210930   2.822   0.341   6.490  0.4233 -0.8173 -0.1798
 2478SOL     OW10931   5.199   4.255   8.096  1.0028 -0.2871 -0.2587
 2478SOL    HW110932   5.112   4.268   8.060  0.1558  1.0396  2.0651
 2478SOL    HW210933   5.241   4.341   8.090  1.1313 -0.2330  1.0769
 2479SOL     OW10934   2.054   3.615   0.221 -0.2486  0.2497  0.1102
 2479SOL    HW110935   2.139   3.637   0.184 -0.7090  2.7584  0.3563
 2479SOL    HW210936   2.043   3.675   0.295 -0.8537 -2.2926  2.2321
 2480SOL     OW10937   2.432   3.190   9.343  0.0031  0.7911  0.0042
 2480SOL    HW110938   2.401   3.138   9.269  0.0417  1.6040 -0.6041
 2480SOL    HW210939   2.484   3.260   9.303  1.1701  0.4719  0.8921
 2481SOL     OW10940   6.508   7.523   8.516 -0.1698  0.6476  0.0517
 2481SOL    HW110941   6.449   7.519   8.441  0.4621 -3.6861 -0.4950
 2481SOL    HW210942   6.450   7.529   8.592 -1.0570  1.0132 -0.6408
 2482SOL     OW10943   8.028  10.907   3.157 -0.4312  0.1745 -0.4169
 2482SOL    HW110944   7.986  10.969   3.098 -0.7675  0.2077 -0.1444
 2482SOL    HW210945   7.994  10.928   3.243  1.4626  1.3565  0.1007
 2483SOL     OW10946   1.753   0.130   8.256 -0.4316 -0.2440  0.5717
 2483SOL    HW110947   1.832   0.125   8.311  0.3042 -0.0920 -0.4498
 2483SOL    HW210948   1.763   0.213   8.209 -0.8769 -0.5515 -0.0603
 2484SOL     OW10949   3.965   8.150   8.834  0.2821 -0.0325 -0.4031
 2484SOL    HW110950   4.031   8.083   8.849  1.2685  1.2316  1.1905
 2484SOL    HW210951   3.883   8.110   8.864  0.9139 -0.4464  0.8460
 2485SOL     OW10952   4.477   4.537   6.083  0.4661  0.0124 -0.3732
 2485SOL    HW110953   4.546   4.511   6.021 -0.5111  0.1047 -1.5420
 2485SOL    HW210954   4.403   4.482   6.060 -0.6796  1.6796 -0.8905
 2486SOL     OW10955   0.905   5.293   0.426  1.0448  0.1417 -0.0083
 2486SOL    HW110956   0.810   5.280   0.436  0.9469  1.4258  0.9758
 2486SOL    HW210957   0.930   5.234   0.355 -0.9442  1.6050 -2.0797
 2487SOL     OW10958   9.269   8.504   8.462  0.2020 -0.0884  0.1881
 2487SOL    HW110959   9.296   8.483   8.551  1.2869 -0.8289 -0.2813
 2487SOL    HW210960   9.348   8.488   8.409 -0.9406 -1.6207 -1.1741
 2488SOL     OW10961   1.124   4.073   0.092  0.1436 -0.0422  0.3671
 2488SOL    HW110962   1.187   4.143   0.106  0.0957 -0.0970  0.8639
 2488SOL    HW210963   1.167   4.015   0.029  0.1221  0.5055 -0.1603
 2489SOL     OW10964   5.791   0.337  10.001 -0.7112  0.4933  0.0394
 2489SOL    HW110965   5.841   0.258  10.024 -3.6062 -1.5391 -0.1255
 2489SOL    HW210966   5.729   0.348  10.073 -1.7317  1.3887 -0.9394
 2490SOL     OW10967   8.714   1.765   7.397  0.6378  0.0953  0.3491
 2490SOL    HW110968   8.809   1.773   7.394  0.6276  0.5279  1.1041
 2490SOL    HW210969   8.690   1.794   7.485 -0.3637  1.8750 -0.4544
 2491SOL     OW10970   6.451   6.079   6.885 -0.1619  0.0098 -0.1574
 2491SOL    HW110971   6.438   6.030   6.966  0.4844 -1.2349 -0.7831
 2491SOL    HW210972   6.530   6.130   6.900 -1.1839  1.3896  0.7271
 2492SOL     OW10973   8.233   8.726   7.939  0.2684 -0.1042  0.4061
 2492SOL    HW110974   8.231   8.794   8.007  1.5844  0.1737  0.1971
 2492SOL    HW210975   8.326   8.711   7.923  0.0231 -2.3585  0.8080
 2493SOL     OW10976  10.792   1.880   7.959 -0.0558 -0.3763 -0.2714
 2493SOL    HW110977  10.784   1.787   7.934 -0.1557 -0.2716 -0.6396
 2493SOL    HW210978  10.783   1.927   7.876  1.8156 -0.1158 -0.3719
 2494SOL     OW10979   2.434   2.542   9.823  0.3280  0.4160  0.4869
 2494SOL    HW110980   2.456   2.616   9.880  0.0300 -0.7627  2.1993
 2494SOL    HW210981   2.393   2.478   9.881  0.6348 -1.1387 -0.9305
 2495SOL     OW10982   1.484   3.546   0.179  0.3125  0.2087  0.1680
 2495SOL    HW110983   1.485   3.450   0.179 -2.2657  0.0751 -1.7499
 2495SOL    HW210984   1.530   3.571   0.099  1.6852  0.6766  1.0591
 2496SOL     OW10985   9.521   0.364   2.828  0.4189 -0.5543 -0.1949
 2496SOL    HW110986   9.537   0.396   2.917 -0.0089  0.7722 -0.5726
 2496SOL    HW210987   9.450   0.300   2.838  0.5383 -0.5931  0.4451
 2497SOL     OW10988   2.957   9.137   7.167  0.4461  0.6670  0.2383
 2497SOL    HW110989   2.871   9.178   7.160 -0.6313 -1.6020 -0.7759
 2497SOL    HW210990   2.939   9.044   7.182  2.6228 -0.2803 -2.0663
 2498SOL     OW10991   5.386   0.551   7.119 -0.3386  0.2095  0.0815
 2498SOL    HW110992   5.326   0.489   7.077 -2.0108  1.6761  0.2241
 2498SOL    HW210993   5.426   0.501   7.190 -0.4789 -1.1389 -0.7403
 2499SOL     OW10994   7.000   2.651   7.325 -0.5333 -0.2684 -0.4916
 2499SOL    HW110995   6.991   2.600   7.406 -0.1209 -0.9500 -0.8610
 2499SOL    HW210996   6.910   2.678   7.304 -0.3162  3.5096  2.3694
 2500SOL     OW10997   9.361   7.585   8.548  0.1642 -0.3555 -0.5133
 2500SOL    HW110998   9.306   7.518   8.507 -0.4844 -0.2090  0.1026
 2500SOL    HW210999   9.443   7.581   8.499 -0.5858 -0.1844 -1.8447
 2501SOL     OW11000   0.269   7.512   4.118  0.1800 -0.4538  0.5294
 2501SOL    HW111001   0.346   7.494   4.172 -0.1233 -1.6224  0.5947
 2501SOL    HW211002   0.212   7.437   4.131 -1.0391  0.4429  0.5663
 2502SOL     OW11003   5.398   7.268   3.347  0.3687 -0.1534  0.3503
 2502SOL    HW111004   5.333   7.329   3.312  0.2406 -1.0572 -1.0238
 2502SOL    HW211005   5.359   7.182   3.335  0.9728 -0.5891  1.3822
 2503SOL     OW11006   6.509   6.987   4.738 -0.5118  0.1749 -0.3915
 2503SOL    HW111007   6.428   7.031   4.714 -1.2872 -0.1070  1.5631
 2503SOL    HW211008   6.490   6.894   4.729  0.2460  0.1263 -1.8095
 2504SOL     OW11009   8.723   7.249   6.830  0.2668  0.5118 -0.6043
 2504SOL    HW111010   8.753   7.336   6.807  2.1680  0.2731  0.7784
 2504SOL    HW211011   8.734   7.244   6.925 -0.7461 -0.8930 -0.5298
 2505SOL     OW11012   8.939   8.439   9.109  0.2742  0.2241 -0.0455
 2505SOL    HW111013   8.939   8.411   9.018  1.3481 -1.2978  0.3932
 2505SOL    HW211014   8.963   8.361   9.159  0.1963  1.1440  1.5064
 2506SOL     OW11015   6.469   7.658   5.059 -0.1984  0.0837  0.6506
 2506SOL    HW111016   6.380   7.649   5.093 -0.0203 -0.6460  0.9422
 2506SOL    HW211017   6.473   7.599   4.984  0.5859 -1.3823  1.7852
 2507SOL     OW11018   5.464   0.376   1.911  0.2443 -0.2262  0.1819
 2507SOL    HW111019   5.477   0.437   1.983 -1.0952 -0.1793  0.3991
 2507SOL    HW211020   5.387   0.409   1.865  0.0256 -1.2639 -0.2149
 2508SOL     OW11021   2.099   3.412   8.477 -0.1805  0.3565  0.3030
 2508SOL    HW111022   2.086   3.343   8.412 -0.5705  0.0520  0.7034
 2508SOL    HW211023   2.072   3.492   8.432 -1.8496 -0.0308  0.5338
 2509SOL     OW11024   3.188   4.061   9.187 -0.3326  0.2384  0.0748
 2509SOL    HW111025   3.210   3.968   9.177 -0.5613  0.0591  1.1624
 2509SOL    HW211026   3.103   4.070   9.142 -0.3519 -0.0952  0.0399
 2510SOL     OW11027   5.330   5.308   8.633  0.4030  0.4956  0.3237
 2510SOL    HW111028   5.262   5.363   8.672  1.2324 -0.0286  2.6638
 2510SOL    HW211029   5.361   5.358   8.558  0.0270  2.5013  1.4292
 2511SOL     OW11030   6.752   0.036   5.662  0.6258  0.0651  0.0864
 2511SOL    HW111031   6.798   0.109   5.704 -1.8477  2.1467 -0.5349
 2511SOL    HW211032   6.722  -0.019   5.734 -1.8930  2.5494  1.1005
 2512SOL     OW11033   9.275   3.951   3.419 -0.4591  0.0687 -0.2137
 2512SOL    HW111034   9.259   3.961   3.325  0.3944 -1.2871 -0.5390
 2512SOL    HW211035   9.232   3.869   3.442  1.4886 -0.9678 -0.0095
 2513SOL     OW11036   1.247   1.912   1.604  0.1228  0.3811 -0.3629
 2513SOL    HW111037   1.306   1.979   1.638  0.5247  0.4999 -1.2596
 2513SOL    HW211038   1.161   1.936   1.639  0.3081  1.2230 -0.4767
 2514SOL     OW11039  10.331   8.228   2.782 -0.0998 -0.0761  0.1459
 2514SOL    HW111040  10.333   8.136   2.807 -0.0113 -0.2585 -0.5385
 2514SOL    HW211041  10.244   8.258   2.810  0.5313  0.1346  2.0851
 2515SOL     OW11042   7.569   1.695   5.914  0.2355 -0.1448  0.4336
 2515SOL    HW111043   7.535   1.629   5.853  3.0242 -0.0244 -1.4107
 2515SOL    HW211044   7.516   1.773   5.897 -1.8736 -1.2776  1.3318
 2516SOL     OW11045  10.677   6.705   8.757 -0.3535 -0.5325 -0.4174
 2516SOL    HW111046  10.636   6.789   8.778 -0.8035 -1.4486  2.8502
 2516SOL    HW211047  10.762   6.707   8.801 -1.0387 -2.3221  1.1335
 2517SOL     OW11048   5.189   0.536   3.165  0.6829  0.4763  0.4081
 2517SOL    HW111049   5.247   0.606   3.133 -0.4649  1.9290  1.4170
 2517SOL    HW211050   5.175   0.556   3.257 -0.5489 -0.4892  0.4509
 2518SOL     OW11051   2.892   6.238   3.530  0.3501 -0.0938  0.6317
 2518SOL    HW111052   2.886   6.175   3.459  2.1486  2.8095 -2.3738
 2518SOL    HW211053   2.838   6.312   3.502  0.0596  0.6743  2.9680
 2519SOL     OW11054   4.726   9.889   8.956 -0.2669 -0.2218 -0.0049
 2519SOL    HW111055   4.820   9.870   8.965  0.0137 -0.1699 -2.1209
 2519SOL    HW211056   4.707   9.953   9.024  1.5849  0.8197 -0.4044
 2520SOL     OW11057   4.244   7.686   8.943 -0.0201 -0.0796  0.2550
 2520SOL    HW111058   4.215   7.725   9.025 -1.7103 -1.4825  0.3649
 2520SOL    HW211059   4.208   7.743   8.875 -0.2980 -0.0224  0.4509
 2521SOL     OW11060   6.203   5.529   5.317  0.1775  0.7354 -0.0021
 2521SOL    HW111061   6.146   5.553   5.390 -0.0194  1.4928 -0.3966
 2521SOL    HW211062   6.142   5.502   5.248  0.2219  2.3342 -0.7150
 2522SOL     OW11063   7.820   4.387   9.988  0.0418  0.2031  0.4658
 2522SOL    HW111064   7.805   4.479   9.968  1.6686  0.6360  1.0839
 2522SOL    HW211065   7.749   4.364  10.048 -0.4335  1.0211  0.2345
 2523SOL     OW11066   9.018   0.667   2.569 -0.4850  0.1839 -0.0727
 2523SOL    HW111067   8.939   0.628   2.531 -1.2303  0.1330  1.4546
 2523SOL    HW211068   9.059   0.595   2.617  0.2990  0.3073 -0.5393
 2524SOL     OW11069   9.852   8.925   8.534 -0.3206  0.0468  0.5279
 2524SOL    HW111070   9.940   8.953   8.511  0.0110 -0.9905  0.4795
 2524SOL    HW211071   9.862   8.833   8.561 -0.9468  0.6431  3.1247
 2525SOL     OW11072   1.806   8.144   4.094 -0.7625 -0.1912  0.3687
 2525SOL    HW111073   1.762   8.228   4.106  0.4918  0.7711 -1.3001
 2525SOL    HW211074   1.877   8.145   4.159 -1.4757 -0.5478  1.1857
 2526SOL     OW11075   9.704   6.978   9.736  0.3614  0.1723 -0.0915
 2526SOL    HW111076   9.651   6.901   9.716  0.2806 -0.0931  1.0631
 2526SOL    HW211077   9.645   7.052   9.726  0.1754  0.0004 -0.2662
 2527SOL     OW11078   7.465  10.286   1.742  0.0592 -0.1458  0.1150
 2527SOL    HW111079   7.560  10.298   1.734 -0.1666  1.5770 -0.3668
 2527SOL    HW211080   7.448  10.205   1.694  1.3501 -0.8286  0.7446
 2528SOL     OW11081   7.440   1.959   6.184  0.4313  0.3951  0.3584
 2528SOL    HW111082   7.370   1.945   6.248 -0.0868  2.9384  0.4680
 2528SOL    HW211083   7.520   1.953   6.236  0.2612 -1.3566  0.4634
 2529SOL     OW11084   5.669   1.363   7.391  0.3675 -0.3565  0.1394
 2529SOL    HW111085   5.685   1.272   7.366 -0.1108 -0.4055  0.0059
 2529SOL    HW211086   5.666   1.411   7.308  0.6989 -0.2056  0.2143
 2530SOL     OW11087   0.496   8.873   8.737  0.3436  0.0674 -0.5044
 2530SOL    HW111088   0.426   8.837   8.682  0.1368 -1.1582  0.4983
 2530SOL    HW211089   0.453   8.895   8.820  1.2248 -1.4132  0.4011
 2531SOL     OW11090   4.750   7.838   8.005  0.1901 -0.1127 -0.2848
 2531SOL    HW111091   4.667   7.841   8.054 -0.5405 -0.2069 -1.4784
 2531SOL    HW211092   4.759   7.746   7.980  0.2805  0.0301 -0.7772
 2532SOL     OW11093   9.327   3.014   1.635 -0.1851 -0.1705 -0.7767
 2532SOL    HW111094   9.260   3.023   1.703  0.7545  1.7651 -0.0165
 2532SOL    HW211095   9.302   3.077   1.567  0.4936  0.1203 -0.7734
 2533SOL     OW11096   9.177   6.537   6.007 -0.3132 -0.2002  0.4432
 2533SOL    HW111097   9.145   6.495   5.927  0.0035 -0.4156  0.4259
 2533SOL    HW211098   9.114   6.607   6.024  0.2103  0.5394 -0.5877
 2534SOL     OW11099  10.240   4.833  10.255 -0.1120 -0.3393 -0.0699
 2534SOL    HW111100  10.154   4.799  10.276 -1.4523  1.2865 -2.4152
 2534SOL    HW211101  10.242   4.920  10.294 -0.4834  0.5014 -1.7911
 2535SOL     OW11102   9.400   4.881   7.680  0.1958  0.6982  0.1768
 2535SOL    HW111103   9.352   4.857   7.601 -1.1449  0.4129  1.0440
 2535SOL    HW211104   9.376   4.814   7.744  2.4262  0.0574  0.4361
 2536SOL     OW11105   4.818   7.662   6.223 -0.4944 -0.4596 -0.5256
 2536SOL    HW111106   4.767   7.635   6.147 -1.8880 -0.2510  0.2748
 2536SOL    HW211107   4.907   7.635   6.205 -1.0807 -1.7607 -1.5744
 2537SOL     OW11108   2.431   9.736   8.102  0.3494  0.5281 -0.1351
 2537SOL    HW111109   2.424   9.643   8.080  2.5148  0.6597 -1.7072
 2537SOL    HW211110   2.421   9.781   8.018 -0.1947  1.7197  0.5362
 2538SOL     OW11111   2.754   0.433   4.404 -0.2076 -0.2704  0.3735
 2538SOL    HW111112   2.681   0.394   4.451 -0.8432  0.0803 -0.3120
 2538SOL    HW211113   2.714   0.479   4.331  0.7368 -0.4566 -0.2731
 2539SOL     OW11114   4.572   9.785  10.450  0.2828  0.3142  0.2037
 2539SOL    HW111115   4.638   9.742  10.395  0.3955  0.6212  0.0924
 2539SOL    HW211116   4.608   9.873  10.466  1.1981 -0.3936  2.4157
 2540SOL     OW11117   1.006   6.816   2.998 -0.8711 -0.1090 -0.0734
 2540SOL    HW111118   0.914   6.823   2.972 -1.0649  0.0602  0.6226
 2540SOL    HW211119   1.013   6.730   3.040 -0.6522 -0.2235 -0.3388
 2541SOL     OW11120   2.792   5.776   5.476  0.0168  0.1319 -0.3723
 2541SOL    HW111121   2.767   5.684   5.468  1.5182 -0.3168 -0.1834
 2541SOL    HW211122   2.875   5.783   5.428 -0.6141  1.6352 -1.3168
 2542SOL     OW11123   6.745   7.254   0.029 -0.0089 -0.6222  0.2745
 2542SOL    HW111124   6.747   7.165   0.064  2.1060 -1.0068 -0.6214
 2542SOL    HW211125   6.815   7.299   0.075 -0.4018  0.2860  0.0001
 2543SOL     OW11126   7.422   4.447   2.000 -0.1108 -0.0050 -0.9598
 2543SOL    HW111127   7.390   4.374   1.946  0.2093 -0.1382 -0.9700
 2543SOL    HW211128   7.517   4.447   1.987  0.2716 -1.3964  1.2321
 2544SOL     OW11129   6.890   8.600   7.253  0.0157  0.0686  0.1353
 2544SOL    HW111130   6.868   8.596   7.159 -0.0291  2.3716  0.0010
 2544SOL    HW211131   6.978   8.563   7.258 -0.0820 -0.3210 -0.7570
 2545SOL     OW11132   8.560   6.614   4.274 -0.2214  0.2489 -0.8723
 2545SOL    HW111133   8.547   6.658   4.191 -0.1187  1.0225 -0.4910
 2545SOL    HW211134   8.529   6.676   4.340  0.5149  0.0111 -0.2784
 2546SOL     OW11135   5.477   0.322   9.894  0.5759  0.2846  0.5256
 2546SOL    HW111136   5.527   0.310   9.975  1.0890  1.3461  0.3806
 2546SOL    HW211137   5.501   0.247   9.840  0.7958 -0.0425  1.0662
 2547SOL     OW11138   9.897   8.383  10.675 -0.5004 -0.3491 -0.1132
 2547SOL    HW111139   9.927   8.292  10.670  2.0127  0.2158  1.9882
 2547SOL    HW211140   9.818   8.379  10.729  1.0114 -1.1682  2.2323
 2548SOL     OW11141   1.316   3.816   1.790 -0.0034 -0.0331 -0.1805
 2548SOL    HW111142   1.343   3.874   1.719  1.7447 -0.2106  0.2808
 2548SOL    HW211143   1.249   3.760   1.751  1.2239 -0.4281 -1.8568
 2549SOL     OW11144   5.981  10.986   4.725  0.2577 -0.2764  0.0713
 2549SOL    HW111145   5.916  10.930   4.682 -0.0714  0.3124 -0.2105
 2549SOL    HW211146   5.931  11.060   4.758  0.7899  0.2041 -0.1762
 2550SOL     OW11147   3.496   5.299   0.154 -0.0374  0.3888 -0.8198
 2550SOL    HW111148   3.449   5.232   0.104  1.1695 -0.4492 -0.8821
 2550SOL    HW211149   3.428   5.349   0.198 -0.9455 -1.9631  0.6369
 2551SOL     OW11150   1.260   0.732   2.543  0.0337  0.2145  0.4313
 2551SOL    HW111151   1.322   0.782   2.596 -0.3049  1.0070  0.0892
 2551SOL    HW211152   1.299   0.644   2.538  1.5110  0.8574 -0.3470
 2552SOL     OW11153   1.710   3.270   6.139  0.8311 -0.5083  0.0889
 2552SOL    HW111154   1.786   3.282   6.082 -0.0959  1.1089 -0.8515
 2552SOL    HW211155   1.741   3.210   6.207  2.4199 -1.2772 -1.2449
 2553SOL     OW11156   9.430   4.596   1.955 -0.2182  0.0416 -0.1088
 2553SOL    HW111157   9.450   4.509   1.989 -1.8462  0.1304  1.2237
 2553SOL    HW211158   9.492   4.653   2.000 -1.9426  0.0722  2.4821
 2554SOL     OW11159   5.228   1.953   3.298  0.2543  0.7384 -0.1500
 2554SOL    HW111160   5.194   2.041   3.314  0.9277  0.6336  2.2652
 2554SOL    HW211161   5.272   1.929   3.380 -0.2126 -1.9879 -0.6001
 2555SOL     OW11162   7.178   5.907   7.968 -0.8320  0.1225 -0.4097
 2555SOL    HW111163   7.091   5.925   7.932 -1.7311  1.0302  2.0526
 2555SOL    HW211164   7.224   5.990   7.962 -0.9164  0.2257  0.2854
 2556SOL     OW11165   3.144   2.095   9.161  0.3683  0.2784  0.1788
 2556SOL    HW111166   3.162   2.085   9.067  0.2189 -1.1659  0.2706
 2556SOL    HW211167   3.223   2.135   9.197  1.3475 -1.2103 -0.2415
 2557SOL     OW11168   6.469   2.035  10.598  0.0449 -0.0633  0.2112
 2557SOL    HW111169   6.457   1.966  10.533  1.6904 -1.8344  1.6511
 2557SOL    HW211170   6.389   2.033  10.651 -0.9348  0.8102 -1.1769
 2558SOL     OW11171   0.152   0.822   2.201 -0.3387 -0.3634 -0.0892
 2558SOL    HW111172   0.173   0.742   2.249 -0.8035  0.1348  0.9713
 2558SOL    HW211173   0.065   0.806   2.164  0.4254 -1.1381 -1.6794
 2559SOL     OW11174   3.531   8.413   1.052 -0.0448  0.7253 -0.1030
 2559SOL    HW111175   3.526   8.399   0.957  1.9558  1.6300 -0.3803
 2559SOL    HW211176   3.475   8.344   1.088  1.9303 -2.0068 -1.7839
 2560SOL     OW11177   4.365   5.861   4.493  0.7226 -0.0518  0.3281
 2560SOL    HW111178   4.291   5.870   4.553 -0.3409 -0.0878 -0.9286
 2560SOL    HW211179   4.359   5.938   4.436  2.3913  0.5877  0.9626
 2561SOL     OW11180   9.870   4.073   7.849  0.1474 -0.7828  0.1445
 2561SOL    HW111181   9.821   4.079   7.767  0.8766  0.5936 -0.2257
 2561SOL    HW211182   9.954   4.035   7.824  0.1590 -0.8998  0.3577
 2562SOL     OW11183   2.345   9.630   3.624  0.3294  0.1349  0.1580
 2562SOL    HW111184   2.416   9.686   3.655  1.8806 -1.8835  0.4781
 2562SOL    HW211185   2.322   9.576   3.701 -2.3344  1.4249  0.3895
 2563SOL     OW11186  10.447   7.806  10.160  0.0753  0.2786  0.3127
 2563SOL    HW111187  10.465   7.797  10.066 -0.4977 -2.3367  0.3618
 2563SOL    HW211188  10.529   7.838  10.197  0.9818 -0.5789 -0.8570
 2564SOL     OW11189   6.682   6.270   6.229 -0.5563  0.3398  0.0878
 2564SOL    HW111190   6.710   6.219   6.305  0.5137  1.0452  0.1944
 2564SOL    HW211191   6.758   6.271   6.171 -0.0565  2.8514  0.6675
 2565SOL     OW11192   7.805   5.084   1.953 -0.0318  0.7700  0.5935
 2565SOL    HW111193   7.866   5.097   1.880  1.2983  1.4635  1.7821
 2565SOL    HW211194   7.815   4.992   1.977  0.3622  0.8238  0.6347
 2566SOL     OW11195   2.768   2.107   3.163 -0.5706 -0.5027  0.1406
 2566SOL    HW111196   2.833   2.042   3.189 -1.0972 -0.7470  0.8721
 2566SOL    HW211197   2.812   2.161   3.097  1.2278  0.8310  2.2893
 2567SOL     OW11198   6.153  10.308   1.229 -0.8236  0.5529  0.1586
 2567SOL    HW111199   6.081  10.247   1.217 -1.6244  1.3789  0.6630
 2567SOL    HW211200   6.231  10.253   1.237 -1.3462 -0.3323 -0.7090
 2568SOL     OW11201   7.878   6.412   4.716 -0.0762  0.1190  0.5700
 2568SOL    HW111202   7.962   6.367   4.706 -0.9492 -1.8813  1.6912
 2568SOL    HW211203   7.866   6.421   4.810 -1.1804  0.2318  0.4321
 2569SOL     OW11204   2.498   9.638   2.914 -0.6496  0.4971  0.5007
 2569SOL    HW111205   2.548   9.556   2.914 -0.3424  0.6780 -0.2565
 2569SOL    HW211206   2.433   9.627   2.844 -1.2499  0.5243  1.0434
 2570SOL     OW11207  10.992   0.862   1.737  0.3747 -0.1578  0.4761
 2570SOL    HW111208  10.941   0.782   1.751 -0.5818  0.6357  1.7737
 2570SOL    HW211209  11.082   0.831   1.726  0.1540 -1.3855  1.7807
 2571SOL     OW11210   7.080   3.947   1.251  0.1257 -0.1969 -0.2646
 2571SOL    HW111211   6.998   3.989   1.229  0.0114  0.4886  1.3357
 2571SOL    HW211212   7.104   3.984   1.336  1.8259 -0.7610 -0.4596
 2572SOL     OW11213   2.395   0.582   4.430  0.4978 -0.0292  0.3848
 2572SOL    HW111214   2.376   0.562   4.338  1.3903  1.6125 -0.2001
 2572SOL    HW211215   2.382   0.676   4.437 -1.4546 -0.3598  2.4662
 2573SOL     OW11216   8.801   4.971   0.949  0.2840 -0.1737  0.2449
 2573SOL    HW111217   8.773   5.058   0.922 -1.5769 -0.8397 -0.1071
 2573SOL    HW211218   8.867   4.946   0.885  1.2581  1.1738  0.6783
 2574SOL     OW11219   9.510   0.505   6.608  0.4584  0.1166  0.0644
 2574SOL    HW111220   9.486   0.522   6.516  0.5703 -0.9995 -0.1826
 2574SOL    HW211221   9.602   0.479   6.604 -0.2624 -2.6784  0.1330
 2575SOL     OW11222   1.478   5.928  10.941 -0.6374 -0.5335  0.1611
 2575SOL    HW111223   1.472   5.910  11.035 -0.0135 -1.2122  0.0877
 2575SOL    HW211224   1.570   5.951  10.927 -0.9908  0.7847 -0.0944
 2576SOL     OW11225   2.920   0.994   2.997 -0.2641  0.0813 -0.3831
 2576SOL    HW111226   2.839   0.951   3.024 -0.8825  1.5147  0.1525
 2576SOL    HW211227   2.985   0.964   3.061 -0.6014 -0.2975 -0.2120
 2577SOL     OW11228   9.694   3.796   6.757 -0.6080  0.0688  0.0625
 2577SOL    HW111229   9.655   3.884   6.754 -1.0250 -0.0727  0.9961
 2577SOL    HW211230   9.621   3.737   6.738 -0.9335 -0.2052  1.9650
 2578SOL     OW11231   2.426  10.848   5.780  0.1783  0.0518  0.0323
 2578SOL    HW111232   2.498  10.812   5.728  2.3283  3.0661  0.6538
 2578SOL    HW211233   2.399  10.926   5.732 -1.8584 -0.3355  0.4807
 2579SOL     OW11234   9.862   3.116   5.937 -0.4826  0.1564 -0.3194
 2579SOL    HW111235   9.802   3.179   5.896 -0.3537  0.1721 -0.4833
 2579SOL    HW211236   9.933   3.170   5.971 -1.4116  0.3662  1.4688
 2580SOL     OW11237   1.630   1.706   5.301 -0.1503 -0.1673  0.5302
 2580SOL    HW111238   1.566   1.659   5.247 -1.8395  1.3076  1.1590
 2580SOL    HW211239   1.670   1.769   5.241  0.2486 -0.6499  0.2850
 2581SOL     OW11240   7.921   6.801   1.122  0.1668  0.1722 -0.2586
 2581SOL    HW111241   7.910   6.724   1.066  2.0854  1.2721 -2.3365
 2581SOL    HW211242   7.846   6.856   1.101  0.9611  0.6615 -2.0111
 2582SOL     OW11243   4.811  10.716   1.254 -0.2878 -0.0714 -0.0779
 2582SOL    HW111244   4.862  10.783   1.301  1.0468 -1.5391  0.6655
 2582SOL    HW211245   4.830  10.731   1.162 -0.7151  1.1086  0.0093
 2583SOL     OW11246   4.634   9.184   4.366 -0.3435 -0.1177  0.1912
 2583SOL    HW111247   4.616   9.226   4.282 -2.5957 -2.6003 -0.7099
 2583SOL    HW211248   4.570   9.221   4.426 -0.4173 -0.1954  0.1595
 2584SOL     OW11249   5.369   2.466   5.294  0.5763 -0.5633 -0.1494
 2584SOL    HW111250   5.436   2.404   5.266 -0.4495 -1.5586 -0.4623
 2584SOL    HW211251   5.389   2.484   5.386  0.8541 -1.4025 -0.0437
 2585SOL     OW11252   6.316   6.153   4.971 -0.3197  0.9201 -0.0223
 2585SOL    HW111253   6.372   6.094   5.021  0.2622 -0.1169 -1.7787
 2585SOL    HW211254   6.228   6.137   5.005 -0.1832 -1.0320 -0.4231
 2586SOL     OW11255   3.492   9.761   7.635  0.1545  0.3320 -0.4718
 2586SOL    HW111256   3.556   9.720   7.577 -0.1720 -1.1926  0.1941
 2586SOL    HW211257   3.421   9.697   7.640 -1.1169  1.6852 -0.6400
 2587SOL     OW11258   7.885   1.069   8.302 -0.2397 -0.7679  0.2484
 2587SOL    HW111259   7.844   1.070   8.389 -3.8532 -0.6811 -1.2721
 2587SOL    HW211260   7.881   0.977   8.275  0.4516 -0.7184 -0.0310
 2588SOL     OW11261   5.097   6.623   5.143 -0.2576 -0.0823 -0.2812
 2588SOL    HW111262   5.068   6.546   5.095  2.8950 -2.2066  0.9220
 2588SOL    HW211263   5.070   6.608   5.233  2.5879 -1.2420  0.5002
 2589SOL     OW11264   8.504   1.796   0.806 -1.3331  0.3207  0.3664
 2589SOL    HW111265   8.449   1.719   0.789 -0.1608 -0.6243  0.7243
 2589SOL    HW211266   8.495   1.850   0.727 -2.9622  0.3201  0.5218
 2590SOL     OW11267   2.774   0.004   7.442 -0.1414  0.3690  0.2795
 2590SOL    HW111268   2.801  -0.057   7.511 -1.5340  0.6994  1.1403
 2590SOL    HW211269   2.795  -0.042   7.360  1.5615 -0.0130  0.8814
 2591SOL     OW11270   2.279   1.776   1.822 -0.1163 -0.6434 -0.0934
 2591SOL    HW111271   2.272   1.711   1.892  1.4052  0.4155  1.0897
 2591SOL    HW211272   2.372   1.794   1.814 -0.5048  1.8137  0.0442
 2592SOL     OW11273   8.789  10.732   6.288 -0.2158  0.4238 -0.4165
 2592SOL    HW111274   8.732  10.746   6.212  0.0946  0.0152 -0.7276
 2592SOL    HW211275   8.822  10.643   6.277 -0.6551  0.1387  0.5259
 2593SOL     OW11276   9.503   0.904   3.814 -0.1200  0.0591  0.0868
 2593SOL    HW111277   9.548   0.950   3.743 -1.4482  1.7847  0.3141
 2593SOL    HW211278   9.426   0.865   3.772 -0.2069 -0.0323  0.3332
 2594SOL     OW11279   8.688  10.209   7.454  0.1257 -0.3860 -0.7604
 2594SOL    HW111280   8.717  10.214   7.545  0.2002  0.4923 -0.8247
 2594SOL    HW211281   8.694  10.299   7.422 -0.9959 -0.4838 -1.3005
 2595SOL     OW11282  10.108   8.937   8.435  0.2505 -0.2175 -0.2748
 2595SOL    HW111283  10.184   8.880   8.450 -1.1711 -2.0713  0.2768
 2595SOL    HW211284  10.082   8.918   8.345  0.1566  0.0417 -0.3014
 2596SOL     OW11285   6.245   9.942   6.847  0.4169 -0.3533  0.2040
 2596SOL    HW111286   6.221  10.022   6.895  1.3294 -0.5229  0.9751
 2596SOL    HW211287   6.331   9.963   6.809  0.7658 -1.0437  0.6058
 2597SOL     OW11288   8.141   3.844   5.533  0.0050 -0.5368  0.2486
 2597SOL    HW111289   8.221   3.797   5.512 -0.0778 -0.6403  0.1619
 2597SOL    HW211290   8.166   3.937   5.530  0.2161 -0.5831  0.6379
 2598SOL     OW11291   9.161  10.215   0.672  0.4764  0.0133 -0.3581
 2598SOL    HW111292   9.124  10.229   0.759 -0.1064 -0.9380 -0.4408
 2598SOL    HW211293   9.253  10.196   0.687  0.8098  1.6847 -0.0971
 2599SOL     OW11294   8.706   3.097   9.881  0.2113 -0.0715 -0.5177
 2599SOL    HW111295   8.668   3.018   9.920  1.4136 -0.8884 -0.9273
 2599SOL    HW211296   8.633   3.159   9.877 -0.5983 -0.9154  0.4440
 2600SOL     OW11297   6.838   6.307   2.467  0.2731  0.2746 -0.0631
 2600SOL    HW111298   6.762   6.337   2.516  1.7419  3.3815  0.5689
 2600SOL    HW211299   6.899   6.273   2.533  0.0738 -0.8148 -0.4089
 2601SOL     OW11300   7.123   0.116   3.704  0.3370  0.6777 -0.0847
 2601SOL    HW111301   7.041   0.163   3.717 -1.2487 -2.1434  0.9028
 2601SOL    HW211302   7.164   0.115   3.791  0.4177  0.3564 -0.1254
 2602SOL     OW11303   9.191   0.845   2.472 -0.3064  0.4571 -0.4461
 2602SOL    HW111304   9.130   0.785   2.516  0.8966 -0.1308  0.4972
 2602SOL    HW211305   9.248   0.787   2.421 -1.0862  1.0699 -2.0591
 2603SOL     OW11306   9.293   4.581   6.443  0.3147 -0.4587  0.2715
 2603SOL    HW111307   9.375   4.580   6.493  0.0504 -0.2663  0.7181
 2603SOL    HW211308   9.321   4.588   6.352  0.7529  2.3609  0.5394
 2604SOL     OW11309   8.151   5.188   5.143  0.0790 -0.1610  0.0957
 2604SOL    HW111310   8.137   5.096   5.121  1.1192 -0.6709  1.3849
 2604SOL    HW211311   8.103   5.237   5.076 -0.6181 -1.6353 -0.5283
 2605SOL     OW11312  10.050   8.559   5.609  0.0567 -0.2246 -0.3080
 2605SOL    HW111313  10.116   8.526   5.669  0.8888  0.4867 -0.8044
 2605SOL    HW211314  10.058   8.654   5.614 -1.5811 -0.0906  0.3205
 2606SOL     OW11315   7.691   4.779   1.877 -0.0020 -0.2768  0.0292
 2606SOL    HW111316   7.714   4.793   1.969  1.2504 -0.1480 -0.2776
 2606SOL    HW211317   7.734   4.696   1.855  1.0523  0.4881 -0.8605
 2607SOL     OW11318   6.219   9.805   1.594 -0.3580 -0.5718 -0.3269
 2607SOL    HW111319   6.160   9.729   1.591 -0.4434 -0.6972  2.3287
 2607SOL    HW211320   6.182   9.861   1.662  0.5798  1.1218 -1.1652
 2608SOL     OW11321   4.138   5.413   8.016 -0.2105  0.2833  0.0891
 2608SOL    HW111322   4.217   5.410   8.070 -0.6955 -1.0817  0.7813
 2608SOL    HW211323   4.066   5.402   8.079 -0.8657  0.1084 -0.6780
 2609SOL     OW11324   4.106   0.974   6.516 -0.5356  0.4337  0.3172
 2609SOL    HW111325   4.102   0.965   6.421  1.0071 -2.0725  0.3723
 2609SOL    HW211326   4.095   0.884   6.549  1.6299  0.7716  2.3152
 2610SOL     OW11327   0.245   1.472   5.807 -0.3102  0.2744 -0.2120
 2610SOL    HW111328   0.254   1.408   5.737 -1.0261  0.0465 -0.1065
 2610SOL    HW211329   0.158   1.455   5.844  0.6974 -0.7383  1.8442
 2611SOL     OW11330   5.693   6.429   2.123 -0.1659 -0.3545  0.2923
 2611SOL    HW111331   5.719   6.369   2.193  2.8895  1.1202  0.6008
 2611SOL    HW211332   5.623   6.483   2.162  0.5570 -0.4325  1.7742
 2612SOL     OW11333   8.057   3.613   3.273 -0.2833 -0.5759  0.4331
 2612SOL    HW111334   8.054   3.706   3.295 -1.9676 -0.0595 -1.6486
 2612SOL    HW211335   8.019   3.570   3.350 -1.5544  0.6849  0.5670
 2613SOL     OW11336   7.464   3.165  10.389  0.0152  0.3920  0.2241
 2613SOL    HW111337   7.394   3.226  10.368 -0.1555 -0.0808 -0.6031
 2613SOL    HW211338   7.528   3.218  10.437  0.1322  1.3546 -0.9594
 2614SOL     OW11339   3.263   1.118   2.756 -0.2075  0.5557  0.6039
 2614SOL    HW111340   3.220   1.033   2.754  2.1316 -0.7594  2.0259
 2614SOL    HW211341   3.356   1.099   2.746  0.2276  3.2220 -1.9568
 2615SOL     OW11342   6.929   4.034   6.195 -0.0125 -0.2620  0.4484
 2615SOL    HW111343   6.984   4.091   6.141 -3.6064  2.5205 -0.7292
 2615SOL    HW211344   6.906   4.087   6.271 -0.9931 -1.2898  0.9015
 2616SOL     OW11345   2.976   1.210   3.372  0.5741  0.0839  0.3170
 2616SOL    HW111346   3.025   1.164   3.440  1.7891  0.2636 -0.3980
 2616SOL    HW211347   2.995   1.303   3.387 -2.4181  0.4963  2.1784
 2617SOL     OW11348   8.607   7.526   0.677 -0.0060 -0.9879 -0.1773
 2617SOL    HW111349   8.651   7.445   0.700 -1.9894 -1.7940  1.0737
 2617SOL    HW211350   8.566   7.555   0.758  1.0564  1.5800 -0.4738
 2618SOL     OW11351   4.891   4.565   6.901  0.6024 -0.0533  0.1848
 2618SOL    HW111352   4.858   4.573   6.991  0.1625 -1.0240  0.1251
 2618SOL    HW211353   4.894   4.471   6.886  0.5176  0.1102 -0.8813
 2619SOL     OW11354  10.448   8.645   2.528  0.3673 -0.0802 -0.4039
 2619SOL    HW111355  10.531   8.648   2.480  0.3575  1.4878 -0.3670
 2619SOL    HW211356  10.403   8.568   2.493  1.2568 -0.1664 -1.4105
 2620SOL     OW11357   7.728   3.375   0.213 -0.2556  0.4459 -0.2536
 2620SOL    HW111358   7.771   3.413   0.137  1.1956  0.2348  0.4423
 2620SOL    HW211359   7.767   3.289   0.223  0.0056  0.7048  1.0814
 2621SOL     OW11360  10.729   2.582   9.128 -0.0951  0.3941  0.4310
 2621SOL    HW111361  10.802   2.642   9.117 -0.3591  0.4359 -1.4264
 2621SOL    HW211362  10.768   2.500   9.158  0.7110  0.4265 -0.5123
 2622SOL     OW11363   2.959   4.326   7.057  0.1546 -0.1571 -0.2629
 2622SOL    HW111364   2.954   4.385   7.132 -1.3369  2.0458 -1.9877
 2622SOL    HW211365   2.930   4.378   6.982 -3.0227 -3.4908 -1.6749
 2623SOL     OW11366   5.707   7.675   6.143 -0.6740  0.1998 -0.0774
 2623SOL    HW111367   5.803   7.672   6.142 -0.6908 -1.6819 -0.9373
 2623SOL    HW211368   5.683   7.692   6.052 -1.1532 -0.2100 -0.0307
 2624SOL     OW11369   3.560   6.536  10.437 -0.4622  0.0860  0.0687
 2624SOL    HW111370   3.595   6.448  10.450 -1.3481 -0.0756  1.5567
 2624SOL    HW211371   3.502   6.528  10.361 -2.0223 -1.1137  1.3069
 2625SOL     OW11372   8.698   6.790   5.752  0.4786 -0.1002 -0.2869
 2625SOL    HW111373   8.743   6.820   5.831  0.5681 -1.6710  0.3069
 2625SOL    HW211374   8.642   6.863   5.726  0.9157  0.6680  0.8705
 2626SOL     OW11375   4.330   3.329   2.559 -0.3017  0.0349 -0.5082
 2626SOL    HW111376   4.410   3.332   2.505 -1.2917 -0.2462 -2.0400
 2626SOL    HW211377   4.270   3.388   2.515 -0.4904  1.3744  1.4525
 2627SOL     OW11378   9.810   2.791   4.370 -0.1090  0.0315 -0.1546
 2627SOL    HW111379   9.736   2.843   4.338 -0.3765  0.1343  0.6154
 2627SOL    HW211380   9.887   2.834   4.334 -0.3212  1.0671  0.6007
 2628SOL     OW11381   9.204   1.553   5.709 -0.9330 -0.5009  0.0310
 2628SOL    HW111382   9.296   1.576   5.724 -1.2271  0.6121  0.2193
 2628SOL    HW211383   9.208   1.467   5.667  0.1006 -1.6559  2.3081
 2629SOL     OW11384   0.755   2.358   7.170  0.2495 -0.7730  0.4181
 2629SOL    HW111385   0.804   2.356   7.253  1.3941 -0.3182 -0.2160
 2629SOL    HW211386   0.724   2.448   7.163  0.7958 -0.6047  0.0195
 2630SOL     OW11387   3.264   0.534   8.524 -0.1909  0.2892 -0.7289
 2630SOL    HW111388   3.241   0.469   8.591 -2.5134  0.8167 -0.9095
 2630SOL    HW211389   3.352   0.562   8.547 -0.1747 -0.9661  0.9513
 2631SOL     OW11390  10.428   5.376   0.418  0.3369  0.8772  0.4538
 2631SOL    HW111391  10.415   5.288   0.382 -1.1438  1.3757 -0.3398
 2631SOL    HW211392  10.428   5.363   0.513  1.0109 -0.0711  0.3396
 2632SOL     OW11393  10.003   7.569   9.428  0.4010 -0.2940  0.2539
 2632SOL    HW111394  10.049   7.646   9.463 -0.1584 -0.1173  0.6040
 2632SOL    HW211395  10.002   7.507   9.501 -0.9224  0.1418  0.6256
 2633SOL     OW11396   4.481   1.217   1.211  0.1586  0.6275 -0.3868
 2633SOL    HW111397   4.426   1.253   1.281  0.6571  0.4321  0.1077
 2633SOL    HW211398   4.556   1.179   1.256  0.0620 -0.2702 -0.9638
 2634SOL     OW11399   9.670   5.485   5.112  0.0456 -0.6300  0.0253
 2634SOL    HW111400   9.683   5.542   5.188  0.6350  0.6215 -0.9734
 2634SOL    HW211401   9.612   5.536   5.054 -1.7567 -2.2362  0.3127
 2635SOL     OW11402   0.993   1.072   9.691 -0.6347  0.2159 -0.1137
 2635SOL    HW111403   0.922   1.129   9.721 -0.2666  0.1633  0.9096
 2635SOL    HW211404   1.033   1.040   9.772 -0.9089 -1.6109 -0.6704
 2636SOL     OW11405   4.696   9.814   1.223  0.0865  0.0996  0.5983
 2636SOL    HW111406   4.740   9.753   1.283 -0.1097  0.0634  0.7066
 2636SOL    HW211407   4.766   9.852   1.171  0.1804 -0.4626  0.3115
 2637SOL     OW11408   2.466  10.477   4.961 -0.2753  0.1271 -0.6706
 2637SOL    HW111409   2.458  10.567   4.994 -0.5733  0.4619 -1.6226
 2637SOL    HW211410   2.378  10.440   4.972 -0.4892  0.3816 -1.4664
 2638SOL     OW11411   0.080   1.234   7.017  0.1506  0.2120  0.3558
 2638SOL    HW111412   0.090   1.316   6.970 -0.3631  0.3034  0.4023
 2638SOL    HW211413   0.001   1.195   6.980  0.4602 -0.3253  0.2412
 2639SOL     OW11414   1.239   8.128   8.741 -0.3784 -0.3017 -0.6242
 2639SOL    HW111415   1.299   8.140   8.814 -0.8572  2.4810 -0.5713
 2639SOL    HW211416   1.296   8.117   8.665  0.1721  0.0919 -0.2737
 2640SOL     OW11417   6.021   9.892   6.694  0.3815 -0.2105  0.1404
 2640SOL    HW111418   6.110   9.896   6.730  0.6557  0.7678 -0.6215
 2640SOL    HW211419   6.033   9.864   6.603 -0.0272  0.5412 -0.1523
 2641SOL     OW11420   4.469   1.246   5.605 -0.2309  0.4796 -0.6805
 2641SOL    HW111421   4.453   1.280   5.693 -0.5647 -1.2559 -0.0330
 2641SOL    HW211422   4.564   1.249   5.595 -0.0974 -0.2384  0.1701
 2642SOL     OW11423   5.408   4.611   8.959  0.3974  0.0982  0.0383
 2642SOL    HW111424   5.470   4.541   8.982  0.1709  0.5823  2.3210
 2642SOL    HW211425   5.462   4.689   8.950  0.2067  0.5365  2.1044
 2643SOL     OW11426   1.506   7.141   4.486  0.4278 -0.2451 -0.2386
 2643SOL    HW111427   1.546   7.169   4.568 -1.0240  0.6430  0.1921
 2643SOL    HW211428   1.425   7.097   4.512 -1.0581  1.7544 -1.2171
 2644SOL     OW11429   7.915   2.977   6.166  0.3543  0.2627  0.3738
 2644SOL    HW111430   7.999   2.934   6.180  0.4104  0.6482  1.2795
 2644SOL    HW211431   7.903   3.033   6.243  0.5353  2.2732 -0.9774
 2645SOL     OW11432   2.068   6.836   8.346  0.8663 -0.1085  0.3803
 2645SOL    HW111433   2.105   6.776   8.282  2.1204  1.6532 -0.6154
 2645SOL    HW211434   1.985   6.864   8.307  1.0341  0.0063  0.1035
 2646SOL     OW11435   9.800   0.290   3.962  0.0827 -1.0116  0.1627
 2646SOL    HW111436   9.867   0.293   4.030 -0.5714  1.3028  0.7985
 2646SOL    HW211437   9.717   0.291   4.010 -0.4607  3.6271 -0.4798
 2647SOL     OW11438   9.182   3.952   1.788 -0.3934  0.2250 -0.6468
 2647SOL    HW111439   9.155   3.905   1.867  0.4569  0.6035 -0.1148
 2647SOL    HW211440   9.171   3.888   1.717 -1.9706  0.1438 -0.3662
 2648SOL     OW11441   3.339   8.319   5.198 -0.3024 -0.2036  0.6546
 2648SOL    HW111442   3.400   8.255   5.235  1.1695  1.0411  0.4770
 2648SOL    HW211443   3.311   8.280   5.115  0.0144 -0.9176  0.8726
 2649SOL     OW11444   0.701   2.194   2.481 -0.4455 -0.1539  0.6549
 2649SOL    HW111445   0.776   2.206   2.423  0.7203  0.1008  2.1558
 2649SOL    HW211446   0.639   2.262   2.455  0.6582  0.8715  0.6376
 2650SOL     OW11447   9.389   6.684   1.389  0.8171  0.7043 -0.3987
 2650SOL    HW111448   9.379   6.606   1.444 -0.8571  1.3933  0.3580
 2650SOL    HW211449   9.474   6.720   1.413  1.4545 -0.6698 -0.4974
 2651SOL     OW11450   6.375   6.381   2.357 -0.2619 -0.4476 -0.3072
 2651SOL    HW111451   6.415   6.308   2.404  0.5802 -1.3867 -2.3512
 2651SOL    HW211452   6.339   6.341   2.277 -3.3525  0.7283  0.3295
 2652SOL     OW11453   8.335   0.793   6.992 -0.6997 -0.3070 -0.7966
 2652SOL    HW111454   8.326   0.698   6.982 -0.3321 -0.3514 -0.7011
 2652SOL    HW211455   8.286   0.813   7.072  0.4246 -0.6189 -0.0087
 2653SOL     OW11456   3.974   3.399   2.011  0.0268  0.2525  0.0551
 2653SOL    HW111457   4.062   3.370   2.037  0.5052  1.4528 -0.1524
 2653SOL    HW211458   3.982   3.494   2.001 -1.3043  0.3835  0.0364
 2654SOL     OW11459   0.984   4.956   7.605  0.1956 -0.2095 -0.3620
 2654SOL    HW111460   1.047   4.948   7.534  2.3933 -1.2730  1.5695
 2654SOL    HW211461   0.977   4.868   7.641 -0.7233  0.3252  0.8424
 2655SOL     OW11462   9.394   2.633   6.100  0.2655 -0.2293  0.1284
 2655SOL    HW111463   9.423   2.568   6.164  0.6597  0.1578  0.3486
 2655SOL    HW211464   9.442   2.611   6.021 -1.1571 -1.4985 -0.4493
 2656SOL     OW11465   8.124   4.466   8.531  0.0888 -0.1001 -0.1702
 2656SOL    HW111466   8.029   4.469   8.517 -0.3485  1.8635  2.4275
 2656SOL    HW211467   8.161   4.518   8.459 -1.3121  3.2567  1.3273
 2657SOL     OW11468   2.831   3.583   4.113  0.0104 -0.3897 -0.1091
 2657SOL    HW111469   2.889   3.516   4.078  0.7393 -0.3940  1.0490
 2657SOL    HW211470   2.872   3.610   4.195  0.2389  2.1620 -0.9720
 2658SOL     OW11471   1.758   9.440   1.557 -0.6684 -0.1224  0.0865
 2658SOL    HW111472   1.746   9.534   1.546  0.9560  0.0437 -0.6016
 2658SOL    HW211473   1.744   9.425   1.651 -0.9395  0.8013  0.2018
 2659SOL     OW11474   6.149   2.180   4.743 -0.0082 -0.2404 -0.4298
 2659SOL    HW111475   6.209   2.254   4.741  0.1975 -0.4161 -0.7401
 2659SOL    HW211476   6.117   2.172   4.653  1.9838 -2.1716 -1.0653
 2660SOL     OW11477   4.501   1.456   9.623  0.3858 -0.0623 -0.0417
 2660SOL    HW111478   4.543   1.402   9.690  1.5651  1.1927  0.2782
 2660SOL    HW211479   4.570   1.516   9.594 -0.5983  0.5899 -1.1159
 2661SOL     OW11480   7.609   4.929   8.422  0.1720  0.1123  0.8035
 2661SOL    HW111481   7.633   4.933   8.515 -0.9397  0.1118  1.1088
 2661SOL    HW211482   7.677   4.980   8.378  1.5362 -1.0968  1.4225
 2662SOL     OW11483   6.434   2.918   6.688  0.3416  0.0004 -0.2012
 2662SOL    HW111484   6.514   2.917   6.636  0.9675 -0.7234  0.7357
 2662SOL    HW211485   6.453   2.976   6.761 -0.0070 -0.1523  0.0130
 2663SOL     OW11486   5.383   6.744   6.474 -0.9286 -0.0295 -0.0849
 2663SOL    HW111487   5.348   6.658   6.496  1.6702 -0.6823  2.0433
 2663SOL    HW211488   5.452   6.727   6.410 -0.2802  0.4008  0.4736
 2664SOL     OW11489   5.837   2.801   7.520 -0.2918 -0.2559  0.0358
 2664SOL    HW111490   5.885   2.883   7.535 -3.4487  1.9922 -1.0523
 2664SOL    HW211491   5.875   2.765   7.440  0.6217  0.5837  0.0746
 2665SOL     OW11492   9.397   8.959   0.172  0.4739  0.4259 -0.0728
 2665SOL    HW111493   9.459   9.012   0.121  1.2974  0.5988  1.0634
 2665SOL    HW211494   9.401   8.872   0.132  0.5873  0.7241 -0.7282
 2666SOL     OW11495   5.521   2.003   1.906  0.1259 -0.0892 -0.2663
 2666SOL    HW111496   5.573   2.066   1.856  0.7470  0.0597  0.5420
 2666SOL    HW211497   5.542   2.022   1.997 -2.2046  0.7092  0.1650
 2667SOL     OW11498  10.467   5.047   7.052  0.3317  0.1131 -0.0500
 2667SOL    HW111499  10.410   5.099   7.108  0.8379  0.7488 -0.1165
 2667SOL    HW211500  10.544   5.101   7.039 -0.1551  0.4010 -2.1412
 2668SOL     OW11501   5.063   2.582   6.727 -0.2219 -0.2924  0.6453
 2668SOL    HW111502   4.989   2.546   6.677 -1.4911 -0.5118  2.5575
 2668SOL    HW211503   5.129   2.602   6.662 -2.1679  0.3910 -1.2364
 2669SOL     OW11504   0.157   3.447   3.186  0.1234 -0.4046 -0.2108
 2669SOL    HW111505   0.115   3.517   3.236 -0.4081 -1.6441  1.1637
 2669SOL    HW211506   0.099   3.434   3.111  0.1560  0.5085 -0.4133
 2670SOL     OW11507   6.017   7.691   1.555  0.4154 -0.1312 -0.8888
 2670SOL    HW111508   6.104   7.699   1.516  0.4135  0.5217 -0.7706
 2670SOL    HW211509   5.978   7.778   1.545 -0.0779 -0.3165 -0.6017
 2671SOL     OW11510  10.420   6.344   7.951  0.0671  0.3637  0.5944
 2671SOL    HW111511  10.387   6.325   8.039 -1.2181  0.9489  0.2613
 2671SOL    HW211512  10.375   6.425   7.925 -1.4575 -1.0661 -1.5400
 2672SOL     OW11513   0.466   1.457   4.753 -0.5671 -0.4221  0.2481
 2672SOL    HW111514   0.430   1.458   4.842 -0.1914 -1.7571  0.4270
 2672SOL    HW211515   0.392   1.485   4.698 -0.8818  0.1489  0.9405
 2673SOL     OW11516  10.512   1.379   8.836  0.3181 -0.6604  0.3001
 2673SOL    HW111517  10.599   1.340   8.843  0.6119 -0.3277 -1.1960
 2673SOL    HW211518  10.521   1.444   8.766 -1.3855 -1.2896 -0.5289
 2674SOL     OW11519   7.434   6.370   0.474 -0.2258 -0.5381  0.6729
 2674SOL    HW111520   7.441   6.462   0.501 -1.2475 -0.4803  0.7673
 2674SOL    HW211521   7.432   6.373   0.378  1.3493 -0.5962  0.6069
 2675SOL     OW11522   2.791   7.145   2.651  0.1593  0.1793 -0.0050
 2675SOL    HW111523   2.820   7.224   2.606  1.1563  0.1902  0.6342
 2675SOL    HW211524   2.816   7.158   2.742 -1.6526  0.0719  0.5547
 2676SOL     OW11525   0.938   2.339   5.865  0.3430  0.3416  0.2710
 2676SOL    HW111526   0.853   2.317   5.905  0.6950 -2.3418 -0.2354
 2676SOL    HW211527   0.923   2.331   5.771  1.5792 -2.5587  0.1918
 2677SOL     OW11528   1.515   8.704   3.332 -0.0904 -0.3019 -0.4231
 2677SOL    HW111529   1.503   8.742   3.244 -1.1672 -1.0922 -0.6335
 2677SOL    HW211530   1.429   8.709   3.372 -0.0607 -1.7126 -0.1348
 2678SOL     OW11531   6.607   3.618   2.216  0.2981 -0.7461 -0.5238
 2678SOL    HW111532   6.568   3.662   2.140  1.8749 -0.8664 -1.4462
 2678SOL    HW211533   6.696   3.597   2.189  1.6982  1.1812  2.1145
 2679SOL     OW11534   4.295   2.352  10.917  0.0661  0.2593 -0.0520
 2679SOL    HW111535   4.329   2.411  10.984 -0.2345  0.4105 -0.0309
 2679SOL    HW211536   4.337   2.268  10.934  0.0501  0.3192  0.2755
 2680SOL     OW11537   7.779   6.676   6.396  0.1048  0.2343 -0.1563
 2680SOL    HW111538   7.691   6.686   6.360  0.4138 -1.5096 -1.5576
 2680SOL    HW211539   7.837   6.719   6.333  0.3447  0.5263  0.2567
 2681SOL     OW11540   0.316   6.642  10.755 -0.2058 -0.0313 -0.1150
 2681SOL    HW111541   0.225   6.613  10.752 -0.1611 -0.1320 -0.6478
 2681SOL    HW211542   0.315   6.719  10.812 -0.4728 -0.5485  0.6018
 2682SOL     OW11543   0.942   6.184  10.170 -0.3202  0.0633  0.4964
 2682SOL    HW111544   1.003   6.251  10.201 -1.2867  0.7110  1.0610
 2682SOL    HW211545   0.940   6.120  10.241  1.5687 -1.2722 -0.5721
 2683SOL     OW11546   2.950   7.613   7.467 -0.1119 -0.5743  0.4356
 2683SOL    HW111547   2.994   7.687   7.424 -1.2979  0.0028  0.1853
 2683SOL    HW211548   3.015   7.542   7.464  0.1890 -0.2818 -1.5083
 2684SOL     OW11549   5.569   4.426   6.398  0.4280  0.2970 -0.6042
 2684SOL    HW111550   5.584   4.356   6.462 -0.3284  0.9427  0.3050
 2684SOL    HW211551   5.597   4.505   6.443  1.9667  0.5248 -1.8873
 2685SOL     OW11552   0.911   9.101   5.353 -0.0270 -0.3569 -0.8797
 2685SOL    HW111553   0.878   9.018   5.388  0.2905  0.1091  0.5763
 2685SOL    HW211554   0.994   9.077   5.311 -0.4966 -0.9568 -1.4819
 2686SOL     OW11555   4.561   9.985   0.132  0.0411  0.2120 -0.5894
 2686SOL    HW111556   4.607  10.005   0.050  0.8312 -2.3052 -0.8511
 2686SOL    HW211557   4.477   9.949   0.104  0.1421 -0.2675 -0.2788
 2687SOL     OW11558   4.035   7.106   4.264  0.0942 -0.1876  0.0938
 2687SOL    HW111559   4.075   7.051   4.197  0.3469 -1.1882  1.0336
 2687SOL    HW211560   3.951   7.064   4.283 -0.1900  0.3598  0.0689
 2688SOL     OW11561   6.859   5.206   4.154  0.4460 -0.4387 -0.6080
 2688SOL    HW111562   6.769   5.178   4.136  0.2628  0.9099 -2.0072
 2688SOL    HW211563   6.849   5.287   4.204  0.9261 -0.9875  0.4029
 2689SOL     OW11564   7.550   6.878   7.551 -0.3908 -0.5288  0.0770
 2689SOL    HW111565   7.613   6.950   7.546 -1.0720  0.3032  2.2445
 2689SOL    HW211566   7.569   6.836   7.635 -2.2906 -0.6393  0.5045
 2690SOL     OW11567  10.568   8.085   0.063 -0.6320  0.2366  0.2803
 2690SOL    HW111568  10.570   8.084  -0.033 -1.0420  2.7309  0.1785
 2690SOL    HW211569  10.652   8.122   0.088 -0.6466 -0.1261  0.8764
 2691SOL     OW11570   5.336   2.187   9.925  0.3775 -0.5474  0.1453
 2691SOL    HW111571   5.368   2.100   9.901  1.6206 -0.2084  0.5002
 2691SOL    HW211572   5.255   2.197   9.875  1.7411 -0.7156 -2.2774
 2692SOL     OW11573   5.256   7.720   9.257 -0.3914 -0.2542 -0.2602
 2692SOL    HW111574   5.224   7.723   9.167  1.0613 -0.4583 -0.7930
 2692SOL    HW211575   5.274   7.811   9.279 -2.5057  0.0354  0.5078
 2693SOL     OW11576   0.071   6.039   8.470 -0.5153 -0.4588  0.4560
 2693SOL    HW111577   0.165   6.058   8.461 -0.7845  1.7214  1.5353
 2693SOL    HW211578   0.034   6.063   8.385 -0.0747 -1.8435 -0.1656
 2694SOL     OW11579   0.849   3.354   3.388  0.0634 -0.9065 -0.0539
 2694SOL    HW111580   0.932   3.337   3.433 -0.1833 -1.9361  0.0268
 2694SOL    HW211581   0.809   3.268   3.378 -1.1138 -0.3949  0.1207
 2695SOL     OW11582   4.538   3.929   8.770  0.4214  0.1666  0.4383
 2695SOL    HW111583   4.484   3.978   8.709 -0.4354  0.0880  1.1229
 2695SOL    HW211584   4.587   3.867   8.715 -0.1922  0.2293 -0.1810
 2696SOL     OW11585   4.706   4.688   0.357  0.6560  0.2287  0.0242
 2696SOL    HW111586   4.616   4.715   0.374 -0.9478 -3.0991 -2.1666
 2696SOL    HW211587   4.731   4.735   0.277  1.3470  1.9382  1.1909
 2697SOL     OW11588  10.411   3.229   9.149 -0.4199  0.2482  0.2085
 2697SOL    HW111589  10.358   3.291   9.199  0.1069  0.2775  0.7480
 2697SOL    HW211590  10.371   3.228   9.062 -1.8598 -0.4314  0.8391
 2698SOL     OW11591   5.933   9.342   4.744 -0.5104 -0.2926 -0.1354
 2698SOL    HW111592   5.949   9.329   4.650  1.5765  1.0168 -0.0143
 2698SOL    HW211593   6.017   9.370   4.779 -0.7420 -2.5255  2.5247
 2699SOL     OW11594   4.833  10.849   3.827 -0.0189 -0.5750  0.2376
 2699SOL    HW111595   4.860  10.785   3.893 -0.7790 -3.7099 -2.2861
 2699SOL    HW211596   4.743  10.872   3.852 -0.0132 -1.0889  0.7584
 2700SOL     OW11597   4.865   6.397   5.518  0.1979  0.0020 -0.4643
 2700SOL    HW111598   4.788   6.344   5.500  0.3233 -0.5258  0.5379
 2700SOL    HW211599   4.938   6.348   5.479  0.4690 -1.1421  1.3999
 2701SOL     OW11600   5.773   0.940   3.166  0.0145  0.3945 -0.4086
 2701SOL    HW111601   5.849   0.986   3.131  1.4901 -1.1394  0.6439
 2701SOL    HW211602   5.758   0.867   3.106  0.1454 -0.0054  0.0342
 2702SOL     OW11603   8.571   0.561   5.854 -0.4056 -0.0504  0.1625
 2702SOL    HW111604   8.633   0.630   5.827 -0.0407  0.0314  1.1369
 2702SOL    HW211605   8.497   0.571   5.796  0.4412 -0.0537 -0.9506
 2703SOL     OW11606   7.176   1.411   1.650  0.1280  0.0636 -0.0738
 2703SOL    HW111607   7.123   1.491   1.648 -1.2425 -0.7561  1.2042
 2703SOL    HW211608   7.118   1.346   1.689  1.4335 -1.4026 -0.5169
 2704SOL     OW11609   9.421   4.471  10.209 -0.1710 -0.6747  0.3525
 2704SOL    HW111610   9.330   4.488  10.235 -0.6285 -0.9287 -0.9784
 2704SOL    HW211611   9.420   4.479  10.113  1.7986  2.1520  0.4422
 2705SOL     OW11612   4.417   5.190   7.562 -0.2310 -0.1345  1.1082
 2705SOL    HW111613   4.353   5.198   7.633 -0.4609  0.5115  0.8380
 2705SOL    HW211614   4.459   5.276   7.558  0.3486 -0.4234  0.9970
 2706SOL     OW11615   5.295   0.201   1.731  0.2393  0.2055 -0.3077
 2706SOL    HW111616   5.335   0.214   1.816 -2.2393  0.7072  0.8782
 2706SOL    HW211617   5.354   0.244   1.669  1.4179  1.0165  1.3201
 2707SOL     OW11618   8.764   6.769   4.621  0.2665  0.2309 -0.0098
 2707SOL    HW111619   8.848   6.725   4.630 -0.5671 -1.2312  0.9652
 2707SOL    HW211620   8.765   6.804   4.532  1.6906 -0.1998 -0.1916
 2708SOL     OW11621   7.004   4.949   5.379  0.1053  0.1153 -0.3710
 2708SOL    HW111622   6.934   4.909   5.326 -0.9381  2.0270 -0.5486
 2708SOL    HW211623   6.964   4.961   5.465  0.7123 -0.0874 -0.0624
 2709SOL     OW11624  10.046   0.274   4.622  0.2872 -0.3097 -0.0176
 2709SOL    HW111625  10.110   0.255   4.554 -1.1900 -1.2500 -1.2246
 2709SOL    HW211626  10.087   0.340   4.677  1.5924  0.3816 -1.7483
 2710SOL     OW11627   2.806   3.007   9.765  0.1790 -0.3650  0.3608
 2710SOL    HW111628   2.780   2.980   9.853 -2.3596  0.2125 -0.1158
 2710SOL    HW211629   2.752   3.084   9.747 -0.7209 -1.4964 -2.3194
 2711SOL     OW11630   8.490   0.222   5.588 -0.5507 -0.1865 -0.1395
 2711SOL    HW111631   8.564   0.256   5.539  0.2774 -0.6551  0.7684
 2711SOL    HW211632   8.479   0.132   5.555 -0.9468 -0.0071 -0.5150
 2712SOL     OW11633  10.002   3.598   6.106  0.3005  0.0319  0.2468
 2712SOL    HW111634   9.910   3.621   6.092  0.1398 -1.2288 -1.0597
 2712SOL    HW211635  10.005   3.567   6.196 -0.6761 -0.3743  0.1522
 2713SOL     OW11636   0.874   5.994   2.346  0.1925 -0.4997  0.3495
 2713SOL    HW111637   0.848   6.070   2.295  2.4811  0.3522  0.3289
 2713SOL    HW211638   0.833   6.007   2.432 -1.8839 -0.8347 -0.5393
 2714SOL     OW11639   5.659  10.586   9.684  0.0773  0.8512  0.5905
 2714SOL    HW111640   5.714  10.579   9.761 -0.5282 -0.3887  0.9362
 2714SOL    HW211641   5.709  10.542   9.615 -1.1302 -1.9724  1.3254
 2715SOL     OW11642   9.605   1.695   6.228 -0.2869 -0.8499 -0.7905
 2715SOL    HW111643   9.574   1.747   6.303  0.6722  0.3144 -1.1781
 2715SOL    HW211644   9.666   1.632   6.266  1.4202  0.7695 -0.7455
 2716SOL     OW11645   1.718   3.627   6.432 -0.1850 -0.6579 -0.0577
 2716SOL    HW111646   1.800   3.580   6.444  0.3485  0.5389  1.4354
 2716SOL    HW211647   1.744   3.718   6.415 -1.1847 -0.2686  0.3828
 2717SOL     OW11648   8.651   8.141   6.654  0.4600 -0.5806 -0.6601
 2717SOL    HW111649   8.626   8.231   6.632 -0.0260 -0.6551 -0.4298
 2717SOL    HW211650   8.639   8.136   6.749  1.3131 -0.6374 -0.5481
 2718SOL     OW11651   7.021   6.249   0.729 -0.2748  0.7857  0.5280
 2718SOL    HW111652   6.993   6.322   0.673 -0.6628 -1.0175 -1.8095
 2718SOL    HW211653   7.117   6.250   0.723 -0.3278 -0.8010 -2.3187
 2719SOL     OW11654   2.143   0.643   5.019 -0.3281  0.3949  0.2060
 2719SOL    HW111655   2.077   0.637   5.088  0.5983  0.0420  1.0967
 2719SOL    HW211656   2.168   0.736   5.017  0.1757  0.2864  0.8911
 2720SOL     OW11657  10.690   3.271   9.084  0.5170  0.4135 -0.2517
 2720SOL    HW111658  10.602   3.247   9.115  0.3334 -1.3359 -1.9550
 2720SOL    HW211659  10.684   3.268   8.989  2.4974 -0.0280 -0.4061
 2721SOL     OW11660   4.037   3.121   1.559  0.0524  0.5331  0.1716
 2721SOL    HW111661   4.077   3.202   1.530 -1.1620 -0.1999 -4.1569
 2721SOL    HW211662   3.947   3.146   1.583 -0.1408  0.5817 -0.5872
 2722SOL     OW11663   7.439   1.931   7.993 -0.1508 -0.0179  0.1888
 2722SOL    HW111664   7.441   1.994   7.921  0.7816 -0.3109 -0.0574
 2722SOL    HW211665   7.477   1.851   7.956  1.2273  0.1146  1.2677
 2723SOL     OW11666   8.146   0.390  10.729  0.4379 -0.8214 -0.0677
 2723SOL    HW111667   8.155   0.366  10.821 -0.3915 -3.1288 -0.5235
 2723SOL    HW211668   8.076   0.334  10.696  1.6700 -1.1065 -2.4453
 2724SOL     OW11669   2.953   3.603   2.351  0.0715  0.2959 -0.5911
 2724SOL    HW111670   2.866   3.622   2.316 -0.0496 -0.6863 -0.8445
 2724SOL    HW211671   3.010   3.604   2.274 -0.2343 -2.1182 -0.9258
 2725SOL     OW11672   1.698   6.534   1.304  0.2343 -0.1581 -0.6998
 2725SOL    HW111673   1.773   6.561   1.356 -0.0444  0.8689 -0.8016
 2725SOL    HW211674   1.643   6.485   1.364 -1.1484  2.8147  0.6960
 2726SOL     OW11675   4.799   4.621   7.152 -0.0163 -0.0575  0.6223
 2726SOL    HW111676   4.714   4.656   7.181 -0.2663 -1.8371  2.2197
 2726SOL    HW211677   4.845   4.601   7.233  1.7730  0.4155 -0.2411
 2727SOL     OW11678   8.196   2.448   2.175  0.0109 -0.1899  0.1780
 2727SOL    HW111679   8.188   2.494   2.092  0.4008 -0.1664  0.1513
 2727SOL    HW211680   8.142   2.369   2.165 -0.1923 -0.0320  0.0183
 2728SOL     OW11681   5.781   2.106   9.800  0.2894 -0.1284  0.0024
 2728SOL    HW111682   5.849   2.103   9.867 -0.6432 -1.3647  0.9664
 2728SOL    HW211683   5.822   2.148   9.725  1.1388  2.1282  1.6043
 2729SOL     OW11684   4.798   7.269   1.884  0.0513 -0.4298  0.5758
 2729SOL    HW111685   4.762   7.249   1.970 -1.0388 -0.6117  0.0906
 2729SOL    HW211686   4.759   7.203   1.826 -0.9252  0.9832 -0.4352
 2730SOL     OW11687   6.889   6.242   8.776 -0.4526 -0.2983  0.1276
 2730SOL    HW111688   6.948   6.304   8.818 -1.2338  0.9207 -0.5306
 2730SOL    HW211689   6.807   6.289   8.765 -0.4603 -0.7096 -2.2393
 2731SOL     OW11690   5.684   1.744   9.386  0.6556 -0.1458  0.4940
 2731SOL    HW111691   5.731   1.784   9.460  0.1295  0.0403  0.7268
 2731SOL    HW211692   5.595   1.778   9.393  0.5491 -0.3025 -0.1006
 2732SOL     OW11693   5.909   3.903  10.381  0.2828  0.2659 -0.4388
 2732SOL    HW111694   5.975   3.834  10.392  3.2144  2.8894 -0.1612
 2732SOL    HW211695   5.875   3.889  10.292  2.4130 -0.2877 -1.2327
 2733SOL     OW11696   2.721   3.687   1.704  0.4633  0.0121  0.8544
 2733SOL    HW111697   2.724   3.638   1.622  2.7192 -0.8370  1.3763
 2733SOL    HW211698   2.691   3.775   1.679 -1.1674 -0.8770 -0.4772
 2734SOL     OW11699   0.646   3.386  10.916  0.7610 -0.0457 -0.2813
 2734SOL    HW111700   0.695   3.391  10.834  0.1714 -0.5433 -0.6645
 2734SOL    HW211701   0.683   3.310  10.962 -0.3956 -1.1163 -1.0722
 2735SOL     OW11702   3.280   5.220   1.173 -0.2888 -0.5089  0.0579
 2735SOL    HW111703   3.309   5.307   1.146  1.1912 -1.0201 -0.0465
 2735SOL    HW211704   3.187   5.218   1.150 -0.6270  1.4228  1.0523
 2736SOL     OW11705   6.428   5.436   3.630  0.2230 -0.0708  0.0509
 2736SOL    HW111706   6.508   5.486   3.614  2.3562 -3.7433 -2.0284
 2736SOL    HW211707   6.436   5.405   3.720  1.6850 -1.1401 -0.4114
 2737SOL     OW11708   0.082   4.495   9.838  0.4249 -0.0754  0.5683
 2737SOL    HW111709   0.061   4.531   9.925 -0.9806 -1.1530  0.7122
 2737SOL    HW211710   0.126   4.412   9.857  2.3977  0.8285  0.2257
 2738SOL     OW11711   8.848   4.736   3.619 -0.0663  0.1195 -0.1127
 2738SOL    HW111712   8.854   4.791   3.540 -0.6407  0.0763 -0.1851
 2738SOL    HW211713   8.913   4.774   3.678  0.7915 -0.2028 -0.8217
 2739SOL     OW11714   5.680   5.964   3.075  0.1968  0.1736 -0.1449
 2739SOL    HW111715   5.722   6.049   3.083 -2.0048  1.2151  1.3125
 2739SOL    HW211716   5.727   5.909   3.139  0.5776  0.7570  0.0869
 2740SOL     OW11717   2.437   4.664   2.876 -0.3839 -0.2044 -0.2284
 2740SOL    HW111718   2.438   4.723   2.801 -0.3093  2.0384  1.4331
 2740SOL    HW211719   2.409   4.580   2.840  0.7608  0.4715 -2.9387
 2741SOL     OW11720   4.396   1.598   6.176 -0.4132  0.0746  0.1516
 2741SOL    HW111721   4.465   1.603   6.242 -0.8722  0.0957  0.6370
 2741SOL    HW211722   4.441   1.572   6.096  0.1846  0.2759  0.4211
 2742SOL     OW11723   8.621   6.035   4.648  0.1483 -0.1075  0.6136
 2742SOL    HW111724   8.556   6.081   4.595  1.2578  1.3607  0.4716
 2742SOL    HW211725   8.630   5.949   4.606  0.2538  0.6608 -0.9904
 2743SOL     OW11726  10.886   9.383   4.133 -0.1310  0.1428  0.5652
 2743SOL    HW111727  10.968   9.388   4.181  1.8719  0.5179 -2.5830
 2743SOL    HW211728  10.876   9.470   4.094  0.0302 -0.8988 -2.0253
 2744SOL     OW11729   0.768   9.523   2.639  1.2905 -0.0764 -0.1136
 2744SOL    HW111730   0.768   9.447   2.581  0.2175 -1.3831  1.4760
 2744SOL    HW211731   0.722   9.591   2.591  0.9289 -0.9314 -0.9996
 2745SOL     OW11732   4.018   4.771   7.242 -0.0162  0.3166 -0.3524
 2745SOL    HW111733   3.998   4.776   7.149 -2.9348  1.5177  0.2183
 2745SOL    HW211734   4.015   4.678   7.263 -0.9337  0.1314 -1.2093
 2746SOL     OW11735   6.487   6.297  10.914  0.1911 -0.1986 -0.0611
 2746SOL    HW111736   6.466   6.307  10.821 -1.1522 -0.2368  0.2212
 2746SOL    HW211737   6.569   6.345  10.925 -0.4990  1.2417 -0.9232
 2747SOL     OW11738   6.333   1.660   2.216  0.2237  0.1970  0.8777
 2747SOL    HW111739   6.382   1.740   2.235 -0.7041  0.8600  0.5824
 2747SOL    HW211740   6.389   1.610   2.157  1.2369  0.1593  1.8428
 2748SOL     OW11741   0.780   8.612   8.921  0.0615  0.4378  0.6182
 2748SOL    HW111742   0.874   8.601   8.935  0.0686 -0.3938 -0.0085
 2748SOL    HW211743   0.743   8.525   8.936 -0.6886  0.8644  1.3678
 2749SOL     OW11744   8.619   1.042   0.962  0.6789 -0.0061  0.3044
 2749SOL    HW111745   8.647   1.132   0.977 -0.5223  0.6458 -1.0409
 2749SOL    HW211746   8.700   0.993   0.948  1.3316  0.9202  0.7419
 2750SOL     OW11747   8.491   2.268   7.191 -0.7940 -0.0919 -0.4482
 2750SOL    HW111748   8.560   2.206   7.217 -1.1197 -0.6394 -0.8653
 2750SOL    HW211749   8.534   2.353   7.191 -0.0889 -0.4379 -0.7788
 2751SOL     OW11750   1.648   5.835   8.661 -0.5215  0.2812 -0.2489
 2751SOL    HW111751   1.599   5.890   8.722  2.3240  0.6066  1.9502
 2751SOL    HW211752   1.657   5.751   8.706  1.0425  0.3009 -0.4688
 2752SOL     OW11753   6.093   9.104   6.597  0.2846 -0.2627  0.0758
 2752SOL    HW111754   6.016   9.160   6.603  0.2034 -0.3795  0.1237
 2752SOL    HW211755   6.068   9.023   6.642  0.2582 -0.4925 -0.3472
 2753SOL     OW11756   8.313   5.211   9.827  0.2965 -0.3222 -0.2468
 2753SOL    HW111757   8.246   5.249   9.771  1.3997 -0.4593 -1.7225
 2753SOL    HW211758   8.285   5.232   9.916 -1.6774 -0.3848 -0.8205
 2754SOL     OW11759   2.116   3.037   9.305  0.4496 -0.4700  0.0747
 2754SOL    HW111760   2.117   3.043   9.209 -3.0877 -0.3801 -0.0859
 2754SOL    HW211761   2.060   2.962   9.324  1.9449 -1.1438  2.1348
 2755SOL     OW11762   8.712   5.538   2.182 -0.0923  0.3024  0.1785
 2755SOL    HW111763   8.698   5.472   2.114  1.6160 -0.6065  0.6668
 2755SOL    HW211764   8.806   5.553   2.183 -0.2036  1.0995  1.6116
 2756SOL     OW11765   4.993   1.589   7.972  0.0738 -0.5969  0.0419
 2756SOL    HW111766   4.940   1.656   7.931  0.1221 -2.2134 -2.9427
 2756SOL    HW211767   4.936   1.512   7.975  0.5882 -0.9490  1.7221
 2757SOL     OW11768   5.810   6.201   3.453 -0.1850  0.1971 -0.0017
 2757SOL    HW111769   5.829   6.227   3.362  0.2871 -0.0175  0.0313
 2757SOL    HW211770   5.851   6.116   3.462  0.4828  0.5811  0.6608
 2758SOL     OW11771   4.713   2.932   7.028 -0.1103 -0.1673  0.3948
 2758SOL    HW111772   4.726   2.840   7.005  0.5563 -0.0783  0.4141
 2758SOL    HW211773   4.618   2.946   7.019  0.0444 -0.2674 -1.8473
 2759SOL     OW11774   7.599   6.024   1.780  0.4296 -0.0096  0.2474
 2759SOL    HW111775   7.666   6.090   1.796 -0.2278  0.1744  2.6484
 2759SOL    HW211776   7.618   5.954   1.843  0.2396 -1.4624 -1.2323
 2760SOL     OW11777   7.768   6.439   6.951  0.3043 -0.0513 -0.6145
 2760SOL    HW111778   7.702   6.393   6.900  0.5482  0.2236 -1.1930
 2760SOL    HW211779   7.718   6.496   7.010 -0.0437 -2.0669  1.1380
 2761SOL     OW11780   6.993   9.453   3.286  0.6353 -0.3128  0.3456
 2761SOL    HW111781   7.044   9.443   3.206  0.9180  0.2649  0.4457
 2761SOL    HW211782   6.902   9.446   3.258  0.7568 -1.4072  0.1714
 2762SOL     OW11783   0.043   8.342   4.248  0.4086  0.2144 -0.0901
 2762SOL    HW111784   0.063   8.260   4.202  1.0062  0.7431 -0.8101
 2762SOL    HW211785  -0.047   8.331   4.279  0.8359 -1.1269  0.7645
 2763SOL     OW11786   3.783   3.008   7.468 -0.2985  0.0112  0.2815
 2763SOL    HW111787   3.740   3.034   7.549  0.5061 -0.4479  0.8708
 2763SOL    HW211788   3.853   2.949   7.496 -0.5457 -0.8351 -0.8161
 2764SOL     OW11789  10.819   5.367   7.741 -0.1624  0.0530 -0.3917
 2764SOL    HW111790  10.845   5.450   7.702 -0.4671 -0.4029 -1.6188
 2764SOL    HW211791  10.900   5.317   7.749  0.0564  0.5302  0.5620
 2765SOL     OW11792  10.238   1.132   5.831 -0.5272 -0.2037 -0.0495
 2765SOL    HW111793  10.314   1.152   5.886  1.2376 -0.4420 -2.2541
 2765SOL    HW211794  10.184   1.074   5.885  1.9140 -1.7902  0.8842
 2766SOL     OW11795   8.321   3.893   1.015 -0.0131  0.1500 -0.2795
 2766SOL    HW111796   8.239   3.879   0.966  1.3287 -0.5712 -2.4640
 2766SOL    HW211797   8.376   3.944   0.955  1.7641 -0.8414  0.4450
 2767SOL     OW11798   9.104   8.820   3.725  0.3609  0.2104  0.0730
 2767SOL    HW111799   9.062   8.740   3.695 -0.9083  0.9975 -0.3497
 2767SOL    HW211800   9.047   8.890   3.693  2.0077  1.3472 -0.5177
 2768SOL     OW11801   3.517   2.523   6.516  0.0345 -0.1778 -0.1376
 2768SOL    HW111802   3.468   2.497   6.594  0.5787 -1.8523 -0.3244
 2768SOL    HW211803   3.544   2.613   6.534 -0.4187 -0.3150  1.3262
 2769SOL     OW11804   9.203   5.104   0.449  0.2793  0.0240  0.4251
 2769SOL    HW111805   9.198   5.013   0.478 -0.3438  0.5530  2.1178
 2769SOL    HW211806   9.153   5.107   0.367  1.1157 -1.3244 -0.1645
 2770SOL     OW11807   0.010   4.023   2.133  0.4816  0.1259 -0.6532
 2770SOL    HW111808   0.072   4.088   2.168 -0.0821 -0.5560  1.7703
 2770SOL    HW211809  -0.029   4.066   2.057  0.5460  2.4225  0.5294
 2771SOL     OW11810  10.525   0.429   1.313  0.5580  0.1601  0.2172
 2771SOL    HW111811  10.507   0.337   1.294  0.1241  0.2524  0.1706
 2771SOL    HW211812  10.586   0.456   1.245 -0.3282  0.2579 -0.5562
 2772SOL     OW11813   2.284   9.758   4.391 -0.1215 -0.2938  0.8038
 2772SOL    HW111814   2.206   9.766   4.447 -0.7469  0.8110 -0.1789
 2772SOL    HW211815   2.352   9.725   4.450 -1.4967 -2.0076  1.5357
 2773SOL     OW11816   1.801   8.838   9.989 -0.0762  0.0841 -0.8072
 2773SOL    HW111817   1.853   8.814   9.913  2.1935 -2.7201  1.3722
 2773SOL    HW211818   1.724   8.781   9.984 -0.3192  0.4585 -1.3809
 2774SOL     OW11819   3.908   4.749   5.498  0.1676 -0.6429  0.1234
 2774SOL    HW111820   3.916   4.827   5.553 -0.4707 -0.4833 -0.0005
 2774SOL    HW211821   3.962   4.768   5.421 -1.6878  0.6112 -0.9312
 2775SOL     OW11822   9.647  10.452   6.921 -0.3067  0.0276  0.3488
 2775SOL    HW111823   9.713  10.384   6.908  0.0958  0.3243  0.7886
 2775SOL    HW211824   9.580  10.411   6.976  0.0361  0.0487  0.7817
 2776SOL     OW11825   3.038   9.866   0.203 -0.2861  0.2563  0.1583
 2776SOL    HW111826   3.076   9.932   0.261  0.2993 -1.6923  2.1067
 2776SOL    HW211827   3.063   9.782   0.241 -1.2050 -1.1463 -2.0868
 2777SOL     OW11828   8.884   4.921   1.398  0.4867 -0.3598  0.0597
 2777SOL    HW111829   8.795   4.885   1.405  0.2476  0.1173 -0.4728
 2777SOL    HW211830   8.926   4.896   1.480 -0.0568 -0.8121  0.2103
 2778SOL     OW11831   3.252   0.600   4.295 -0.4026  0.2755  0.6683
 2778SOL    HW111832   3.269   0.514   4.257 -0.5630  0.2659  0.6131
 2778SOL    HW211833   3.208   0.648   4.225 -2.4690 -0.3699  1.4207
 2779SOL     OW11834   5.318   1.297   8.510 -0.1985 -0.6654  0.1121
 2779SOL    HW111835   5.394   1.270   8.561 -0.0011 -1.8174 -0.7707
 2779SOL    HW211836   5.337   1.388   8.486  2.0632 -1.5854 -2.0649
 2780SOL     OW11837   1.472   9.578   9.642  0.4161 -0.4805  0.2385
 2780SOL    HW111838   1.378   9.561   9.634  0.3503 -0.4874  1.0132
 2780SOL    HW211839   1.492   9.636   9.568  0.1055 -1.6849 -0.8237
 2781SOL     OW11840   5.867   3.710   1.823  0.5602  0.0979  0.4962
 2781SOL    HW111841   5.852   3.616   1.817  0.4040  0.1798 -0.6382
 2781SOL    HW211842   5.779   3.747   1.835  0.5624  0.1325  0.4092
 2782SOL     OW11843   8.607   1.672   9.609 -0.5544 -0.2492 -0.2466
 2782SOL    HW111844   8.663   1.692   9.684 -0.7985  0.8988 -0.3558
 2782SOL    HW211845   8.542   1.742   9.608 -1.8060 -1.3663 -0.3289
 2783SOL     OW11846  10.210   2.424   1.984  0.4572 -0.1800 -0.9694
 2783SOL    HW111847  10.224   2.420   2.079  0.7864  1.3385 -0.9261
 2783SOL    HW211848  10.292   2.461   1.949  0.0066  0.1217 -1.7361
 2784SOL     OW11849   2.895   3.309   6.068  0.2996 -0.5775  0.5899
 2784SOL    HW111850   2.936   3.383   6.112  2.1026 -1.6712  0.8257
 2784SOL    HW211851   2.863   3.345   5.986 -0.1300  0.7571  1.3016
 2785SOL     OW11852   1.440   3.506   9.303 -0.6326  0.2810  0.3259
 2785SOL    HW111853   1.530   3.476   9.312 -0.4908  0.9823  1.4092
 2785SOL    HW211854   1.437   3.546   9.216 -0.1777 -0.6075 -0.1231
 2786SOL     OW11855   7.580   5.126   4.018 -0.1522 -0.1096  0.7265
 2786SOL    HW111856   7.632   5.160   3.945 -0.5048 -1.5756 -0.2628
 2786SOL    HW211857   7.604   5.033   4.023 -1.8726 -0.5788  0.9238
 2787SOL     OW11858  10.630   5.199   3.403  0.3435 -0.5990  0.2302
 2787SOL    HW111859  10.595   5.111   3.415  0.8449 -0.4420  3.6655
 2787SOL    HW211860  10.723   5.192   3.424  0.2360  0.8506  1.4090
 2788SOL     OW11861   6.207   6.849   7.647  0.5137 -0.7617 -0.7628
 2788SOL    HW111862   6.196   6.873   7.555 -0.7991 -0.2545 -0.4909
 2788SOL    HW211863   6.133   6.791   7.666  0.0514  0.1357  0.2925
 2789SOL     OW11864   1.824   2.147   2.720 -0.2066  0.7696  0.2184
 2789SOL    HW111865   1.906   2.103   2.744 -0.3373  1.5685  2.2655
 2789SOL    HW211866   1.777   2.081   2.668  0.7233 -0.5791  0.9980
 2790SOL     OW11867  10.290   8.651   8.151  0.3319  0.3733  0.2872
 2790SOL    HW111868  10.237   8.616   8.079 -0.5748  1.8072  0.2136
 2790SOL    HW211869  10.290   8.582   8.216  1.7674 -1.2554 -1.3260
 2791SOL     OW11870   0.361   1.660   1.116  0.0999 -0.1094  0.3882
 2791SOL    HW111871   0.400   1.742   1.147 -0.9725  0.2011  0.9845
 2791SOL    HW211872   0.306   1.686   1.043 -2.1550  0.1458  2.0588
 2792SOL     OW11873   4.074   7.145  10.102  0.5577 -0.2275  0.2428
 2792SOL    HW111874   4.038   7.224  10.061  0.4027 -0.3782  0.0867
 2792SOL    HW211875   4.164   7.141  10.071  0.3403 -0.5304 -0.3645
 2793SOL     OW11876   0.066   5.490   3.559 -0.0838  0.3917 -0.3613
 2793SOL    HW111877   0.134   5.483   3.626 -1.3088 -2.0427  0.7193
 2793SOL    HW211878   0.075   5.411   3.507 -2.1597 -0.0623 -0.0934
 2794SOL     OW11879   9.112   3.802   6.740 -0.2520 -0.0422 -0.3014
 2794SOL    HW111880   9.119   3.847   6.655 -2.3492  0.3908 -0.3077
 2794SOL    HW211881   9.194   3.823   6.785 -0.0577  1.6355 -1.3319
 2795SOL     OW11882   3.366   7.603   4.631 -0.2102 -0.1214  0.5702
 2795SOL    HW111883   3.414   7.612   4.713 -0.2472  0.4817  0.5291
 2795SOL    HW211884   3.408   7.666   4.572 -0.0043 -0.7430  0.0451
 2796SOL     OW11885   3.413   8.129   0.409 -0.0908  0.4633 -0.2160
 2796SOL    HW111886   3.497   8.169   0.384 -0.1620 -0.4658 -2.0749
 2796SOL    HW211887   3.355   8.148   0.336 -0.9470 -0.5689  0.1796
 2797SOL     OW11888   4.310   0.803   8.256 -0.2054  0.3552 -0.5491
 2797SOL    HW111889   4.218   0.803   8.232 -0.3256  0.2647 -0.1004
 2797SOL    HW211890   4.336   0.895   8.249  0.3697  0.0666 -3.2276
 2798SOL     OW11891   9.104  10.873   7.596  0.0835  0.3635  0.2757
 2798SOL    HW111892   9.044  10.944   7.572 -0.7528 -0.7900 -1.1835
 2798SOL    HW211893   9.049  10.810   7.643  0.0446 -0.8247 -1.3020
 2799SOL     OW11894   7.435   2.255   1.524 -0.2676 -0.3334 -0.1582
 2799SOL    HW111895   7.467   2.303   1.447 -1.6618 -0.9636 -1.1715
 2799SOL    HW211896   7.389   2.321   1.575 -0.6615 -0.2218 -0.6524
 2800SOL     OW11897   9.452   4.270   5.926  1.1443  0.3457  0.0555
 2800SOL    HW111898   9.535   4.235   5.956  0.3572 -0.2219  1.7001
 2800SOL    HW211899   9.410   4.303   6.006 -0.3949  0.2021 -0.6661
 2801SOL     OW11900   7.730  10.005   9.663 -0.1251 -0.0197  0.5946
 2801SOL    HW111901   7.763  10.093   9.679 -1.3368  0.6596 -0.4794
 2801SOL    HW211902   7.797   9.947   9.700 -0.0676  1.3329  2.7439
 2802SOL     OW11903  10.542   7.850   4.019  0.5444  0.0477 -0.0113
 2802SOL    HW111904  10.616   7.908   3.998  0.4968  0.4579  0.8949
 2802SOL    HW211905  10.578   7.790   4.084 -0.0832  0.6524  0.9107
 2803SOL     OW11906   1.391   9.078   4.403 -0.2294  0.3298 -0.2555
 2803SOL    HW111907   1.350   9.088   4.489  1.9404  1.0111  0.7843
 2803SOL    HW211908   1.396   8.983   4.390  0.8830  0.1523  1.1776
 2804SOL     OW11909   6.149   4.379   3.717 -0.1635 -0.3592  0.0874
 2804SOL    HW111910   6.055   4.395   3.707 -0.1254 -0.4584 -0.4941
 2804SOL    HW211911   6.179   4.360   3.628  0.1721 -1.5595  0.4299
 2805SOL     OW11912   6.349   9.487   1.697 -0.3424 -0.3106 -0.0945
 2805SOL    HW111913   6.399   9.544   1.639 -0.5194 -0.9092 -0.8484
 2805SOL    HW211914   6.287   9.443   1.640  1.3182 -3.0278  0.0138
 2806SOL     OW11915   5.439   0.453   8.713 -0.3316  0.5260  0.9242
 2806SOL    HW111916   5.464   0.369   8.674 -0.2687  0.2892  1.4666
 2806SOL    HW211917   5.477   0.451   8.801 -1.5419  0.5011  1.4731
 2807SOL     OW11918   9.596   1.921   3.250  0.4379  0.0571  0.5184
 2807SOL    HW111919   9.602   1.959   3.338  1.7795 -1.3453  1.0879
 2807SOL    HW211920   9.642   1.983   3.193 -0.9273  1.2541  0.6800
 2808SOL     OW11921   1.148   1.358   6.008  0.2799  0.1894  0.3646
 2808SOL    HW111922   1.220   1.307   5.974  1.3634 -0.2201  3.0376
 2808SOL    HW211923   1.188   1.440   6.036 -0.8584  1.1823 -0.7736
 2809SOL     OW11924   5.864   5.253   7.830 -0.5271 -0.3180  0.1341
 2809SOL    HW111925   5.888   5.162   7.846 -0.3169 -0.3693 -0.4587
 2809SOL    HW211926   5.852   5.259   7.735 -0.1249  0.3733  0.1199
 2810SOL     OW11927   9.140   0.212   7.061 -0.4252  0.7546 -0.2708
 2810SOL    HW111928   9.202   0.245   7.126  0.0531 -0.8683  0.1446
 2810SOL    HW211929   9.171   0.123   7.041 -1.7681  0.4539 -1.1586
 2811SOL     OW11930  10.028  10.430   2.161  0.6338 -0.4594 -0.4921
 2811SOL    HW111931  10.006  10.374   2.087  1.1447 -0.0481 -0.9695
 2811SOL    HW211932   9.947  10.439   2.210  1.0209 -3.5433  0.9347
 2812SOL     OW11933   3.359   5.894   7.987  0.1675 -0.6416 -0.6040
 2812SOL    HW111934   3.419   5.821   8.003  0.0065 -1.0858 -1.9043
 2812SOL    HW211935   3.281   5.872   8.038  1.0610 -0.0802  1.0660
 2813SOL     OW11936   0.632   9.580   6.307 -0.2798 -0.5614 -0.2187
 2813SOL    HW111937   0.575   9.642   6.262  1.7151  1.1996 -0.4614
 2813SOL    HW211938   0.605   9.584   6.399  0.4396  1.4736 -0.0527
 2814SOL     OW11939   5.407   8.344   3.662 -0.2428  0.7060  0.2462
 2814SOL    HW111940   5.390   8.416   3.723  2.1431  0.4577  1.3070
 2814SOL    HW211941   5.406   8.265   3.716 -1.2574  0.0699 -0.6394
 2815SOL     OW11942  10.049   2.079   9.662  0.1420 -0.0834 -0.0316
 2815SOL    HW111943   9.960   2.100   9.637 -0.2673  0.1238  1.5182
 2815SOL    HW211944  10.043   2.052   9.754  1.7274  0.3437  0.2314
 2816SOL     OW11945   2.157   4.861   8.677  0.0614  0.2480 -0.4856
 2816SOL    HW111946   2.139   4.953   8.660  1.6219  0.6604 -0.0259
 2816SOL    HW211947   2.232   4.840   8.622  0.1481 -0.5703 -0.0742
 2817SOL     OW11948   7.067   1.136  10.918  0.0184  0.0677 -0.4752
 2817SOL    HW111949   7.131   1.202  10.944 -1.6412  1.0060  1.5649
 2817SOL    HW211950   7.102   1.053  10.949  0.6112  0.4532 -0.1000
 2818SOL     OW11951   0.304   8.658   1.578 -0.0414 -0.1965  0.0784
 2818SOL    HW111952   0.343   8.743   1.600  1.4451 -0.7901 -0.1927
 2818SOL    HW211953   0.336   8.639   1.490 -1.7469 -0.2782 -0.5784
 2819SOL     OW11954   7.378   8.523   7.624  0.5921  0.0713  0.0826
 2819SOL    HW111955   7.442   8.501   7.692  0.4980 -1.2333 -0.2117
 2819SOL    HW211956   7.306   8.461   7.638 -1.6568  2.8196  1.7246
 2820SOL     OW11957   6.866   9.106   1.913  0.0503  0.1973  0.1988
 2820SOL    HW111958   6.957   9.079   1.914 -0.1324 -0.4470  1.6050
 2820SOL    HW211959   6.861   9.173   1.844  1.0901 -1.3560 -1.4886
 2821SOL     OW11960   5.963   9.135   2.212  0.1826 -0.1847  0.0992
 2821SOL    HW111961   5.927   9.214   2.171 -1.6006 -0.0908  1.7519
 2821SOL    HW211962   6.028   9.104   2.148 -1.2412  0.8845 -2.0064
 2822SOL     OW11963   9.378   9.814   0.229  0.1323  0.0319  0.0358
 2822SOL    HW111964   9.446   9.754   0.198 -2.5636 -2.9367 -0.6434
 2822SOL    HW211965   9.298   9.782   0.188 -1.6151  3.9577  0.0076
 2823SOL     OW11966   8.432   8.366   6.939  0.2697  0.2339  0.2225
 2823SOL    HW111967   8.447   8.460   6.934  0.9559  0.2152  1.4933
 2823SOL    HW211968   8.519   8.327   6.934  0.6077 -0.0455  4.4069
 2824SOL     OW11969   9.791   7.144   8.351  0.4035  0.2549 -0.0239
 2824SOL    HW111970   9.808   7.236   8.372 -0.5980  0.1975  1.0797
 2824SOL    HW211971   9.870   7.116   8.303 -0.2905  2.3408 -2.6057
 2825SOL     OW11972   1.610   1.761   9.684  0.4616  0.1949  0.6931
 2825SOL    HW111973   1.696   1.720   9.700  0.6483 -1.3250 -3.0748
 2825SOL    HW211974   1.595   1.747   9.590 -3.6329  1.0119  1.0724
 2826SOL     OW11975   6.813   6.981   3.523  0.2400  0.0895  0.1830
 2826SOL    HW111976   6.890   6.927   3.506  0.2829  0.2140 -0.0290
 2826SOL    HW211977   6.843   7.071   3.506 -0.0172  0.1170 -0.1468
 2827SOL     OW11978   8.353   3.820   8.467 -0.1257  0.6042  0.0792
 2827SOL    HW111979   8.339   3.758   8.539 -0.0702  1.0236  0.4582
 2827SOL    HW211980   8.356   3.766   8.389 -0.4565  0.1656  0.3634
 2828SOL     OW11981   7.045   3.890   6.829  0.5307  0.4078  0.0334
 2828SOL    HW111982   7.051   3.904   6.923  0.6382  0.4076  0.0271
 2828SOL    HW211983   7.094   3.809   6.814  0.4382  0.3605 -0.0108
 2829SOL     OW11984   5.272   8.782   2.751  0.2272  0.0712 -0.2469
 2829SOL    HW111985   5.227   8.719   2.694 -2.7354  1.2014  0.6942
 2829SOL    HW211986   5.305   8.729   2.824 -0.3341 -0.6919 -0.5318
 2830SOL     OW11987   2.321   4.241   3.592  0.1059 -0.1109 -0.4936
 2830SOL    HW111988   2.308   4.235   3.498 -1.6472  1.8178 -0.4577
 2830SOL    HW211989   2.351   4.331   3.607 -0.5169 -0.0946  0.8391
 2831SOL     OW11990   4.801   3.718   9.888  0.0438  0.0345  0.5531
 2831SOL    HW111991   4.805   3.741   9.981  0.9702 -0.6543  0.6976
 2831SOL    HW211992   4.893   3.712   9.861 -0.2139  0.0426 -0.3630
 2832SOL     OW11993  10.291   4.870   8.288 -0.3684 -0.1729 -0.7435
 2832SOL    HW111994  10.262   4.784   8.259  0.3728 -0.7161  0.0674
 2832SOL    HW211995  10.245   4.931   8.231 -1.7591 -1.0529 -0.6147
 2833SOL     OW11996   0.640   3.456   0.302 -0.1438 -0.4039 -0.0898
 2833SOL    HW111997   0.620   3.363   0.294 -0.4287 -0.3255 -0.3016
 2833SOL    HW211998   0.597   3.496   0.226 -1.1056  0.0691  0.6759
 2834SOL     OW11999   0.194   2.350  10.588 -0.0264 -0.0232  0.4061
 2834SOL    HW112000   0.180   2.392  10.503  0.2248 -0.2225  0.2658
 2834SOL    HW212001   0.218   2.260  10.567  2.3912  0.5112  0.5772
 2835SOL     OW12002   8.371   9.543   9.763  0.3799 -0.3351 -0.3463
 2835SOL    HW112003   8.326   9.559   9.845  0.1997 -0.5499 -0.4005
 2835SOL    HW212004   8.445   9.603   9.763 -1.1958  1.7520 -1.3156
 2836SOL     OW12005   8.479   3.527  10.376 -0.2162 -0.6165  0.2100
 2836SOL    HW112006   8.494   3.474  10.297 -0.7876 -1.5270  0.6969
 2836SOL    HW212007   8.532   3.605  10.362  1.7589 -1.9071  0.0904
 2837SOL     OW12008   4.894   4.460   6.197 -0.0034  0.9845  0.0490
 2837SOL    HW112009   4.864   4.372   6.223  2.2201 -0.0821 -0.7076
 2837SOL    HW212010   4.898   4.508   6.280 -0.4383  0.1105  0.6019
 2838SOL     OW12011   7.542   9.924   4.716  0.0189 -0.5122  0.3055
 2838SOL    HW112012   7.631   9.902   4.743 -0.7714 -1.1972  2.5955
 2838SOL    HW212013   7.529   9.876   4.634  2.2119  0.8102 -0.9103
 2839SOL     OW12014  10.467   5.736  10.439 -0.1289  0.0700 -0.2762
 2839SOL    HW112015  10.486   5.747  10.532  0.0155  1.3267 -0.4385
 2839SOL    HW212016  10.542   5.776  10.395 -0.5036  0.0621 -0.9301
 2840SOL     OW12017   7.290   9.354   7.354  0.6717 -0.6229 -0.3588
 2840SOL    HW112018   7.216   9.296   7.342  0.3240 -0.3220  0.3039
 2840SOL    HW212019   7.307   9.353   7.448 -1.5342  2.9666  0.2560
 2841SOL     OW12020   3.485   7.676   4.891  0.7190 -0.6485 -0.6274
 2841SOL    HW112021   3.490   7.641   4.980 -0.9618  1.3946  0.3619
 2841SOL    HW212022   3.462   7.768   4.903 -0.3142 -0.4885 -3.2001
 2842SOL     OW12023   8.924   7.680   1.276 -0.2371  0.3024  0.3863
 2842SOL    HW112024   8.984   7.643   1.340 -0.9884  0.2078  1.0508
 2842SOL    HW212025   8.952   7.643   1.192 -0.4505 -1.1276  0.9283
 2843SOL     OW12026  10.333   5.989   5.505 -0.7517 -0.2838 -0.1926
 2843SOL    HW112027  10.272   5.919   5.481 -0.3334 -0.9201  0.5390
 2843SOL    HW212028  10.336   5.986   5.601 -0.0576  0.1519 -0.1924
 2844SOL     OW12029   6.324   5.804   8.644 -0.8974 -0.4739 -0.4522
 2844SOL    HW112030   6.237   5.810   8.606 -0.9836  0.2635 -0.1513
 2844SOL    HW212031   6.335   5.885   8.694  0.4835  0.0789 -1.5735
 2845SOL     OW12032   3.565   8.035   5.861  0.3547 -0.2418  0.5694
 2845SOL    HW112033   3.532   8.028   5.771  0.5328 -2.1790  0.5986
 2845SOL    HW212034   3.637   8.097   5.856  0.7064 -0.7146 -0.7513
 2846SOL     OW12035   6.337   4.552   0.287  0.0037  0.1185  0.1200
 2846SOL    HW112036   6.274   4.621   0.265  0.2823  0.1128 -0.7313
 2846SOL    HW212037   6.352   4.562   0.381  1.0530  2.1170 -0.1954
 2847SOL     OW12038   3.226   7.880   5.795 -0.7010  0.0447 -0.3227
 2847SOL    HW112039   3.276   7.933   5.733  1.6243 -1.0658  0.4793
 2847SOL    HW212040   3.175   7.820   5.740  2.5516 -2.0521 -1.3439
 2848SOL     OW12041  10.252   7.155   6.471  0.1059  0.0163  0.0920
 2848SOL    HW112042  10.168   7.126   6.506 -0.4132  2.1575  0.7667
 2848SOL    HW212043  10.282   7.220   6.534  2.7546 -1.3222  0.3562
 2849SOL     OW12044   2.849   1.237   5.621  0.6607 -0.5730  0.0523
 2849SOL    HW112045   2.766   1.278   5.645  0.5108 -0.8590  0.0325
 2849SOL    HW212046   2.829   1.143   5.619 -0.3608 -0.5257 -4.7571
 2850SOL     OW12047   1.429   3.376   2.164 -0.6761 -0.3393 -0.1105
 2850SOL    HW112048   1.371   3.361   2.238 -1.7617 -0.7597 -1.0223
 2850SOL    HW212049   1.503   3.317   2.178  0.4958  1.4911  2.0053
 2851SOL     OW12050   2.895   4.784   8.195 -0.0984  0.1355 -0.2548
 2851SOL    HW112051   2.982   4.788   8.235 -0.5825 -1.9692  1.1925
 2851SOL    HW212052   2.840   4.839   8.251 -0.5113 -1.8239  1.3699
 2852SOL     OW12053   8.133   0.017   3.955 -0.2371  0.2388 -0.5181
 2852SOL    HW112054   8.098   0.105   3.944  0.8916  1.2857  3.0232
 2852SOL    HW212055   8.184   0.001   3.876 -0.6031  2.6950 -1.3148
 2853SOL     OW12056   7.899   9.052   7.098  0.1858  0.5842 -0.3259
 2853SOL    HW112057   7.895   8.970   7.049  3.7168  1.5396 -2.5304
 2853SOL    HW212058   7.973   9.040   7.157  1.1355  2.3505 -1.1062
 2854SOL     OW12059   7.536   4.866   4.990 -0.1694  0.2538 -0.3217
 2854SOL    HW112060   7.524   4.956   4.962  0.5161  0.2839 -0.5298
 2854SOL    HW212061   7.577   4.823   4.915  0.7622  0.0978  0.2711
 2855SOL     OW12062   3.260   9.724  10.575 -0.0356 -0.1350  0.2762
 2855SOL    HW112063   3.239   9.793  10.512 -0.5866  0.6654  1.3155
 2855SOL    HW212064   3.303   9.769  10.647  0.3114 -1.0007  0.6272
 2856SOL     OW12065  10.254   1.627  10.176 -0.9438 -0.1249 -0.1072
 2856SOL    HW112066  10.225   1.657  10.262  0.8808  0.9797  0.1821
 2856SOL    HW212067  10.323   1.564  10.195 -0.2738  0.4002 -0.7369
 2857SOL     OW12068   7.677   0.305   0.100 -0.1711 -0.3634  0.2966
 2857SOL    HW112069   7.625   0.294   0.180  0.1082 -1.3864  0.3564
 2857SOL    HW212070   7.653   0.392   0.068 -1.2362 -0.4457  0.8117
 2858SOL     OW12071   0.100   0.588   3.116  0.2788 -0.0897 -0.5413
 2858SOL    HW112072   0.038   0.648   3.158  1.4825  0.4111  0.5964
 2858SOL    HW212073   0.184   0.610   3.155  1.0608 -1.2604 -1.5042
 2859SOL     OW12074  10.611   5.704   1.776  0.0749 -0.0036 -0.7454
 2859SOL    HW112075  10.565   5.705   1.692  0.7962 -2.1758 -1.2281
 2859SOL    HW212076  10.542   5.715   1.841 -0.6385  0.5466 -1.5636
 2860SOL     OW12077   9.494   5.233  10.116  0.3651 -0.5168 -0.7730
 2860SOL    HW112078   9.529   5.319  10.092  0.1843 -0.2477 -0.0782
 2860SOL    HW212079   9.553   5.201  10.184 -1.6231  0.6629  1.6262
 2861SOL     OW12080   6.798   8.684   9.634 -0.0289  0.2398 -0.3535
 2861SOL    HW112081   6.769   8.740   9.562 -0.5256  0.5531  0.0860
 2861SOL    HW212082   6.885   8.654   9.607 -0.2478  0.2835 -1.1197
 2862SOL     OW12083   6.831   7.567   7.494  0.2697 -0.0374  0.2455
 2862SOL    HW112084   6.803   7.638   7.551  0.7075 -0.2985  0.7949
 2862SOL    HW212085   6.921   7.590   7.470 -0.1147  0.3973 -0.8683
 2863SOL     OW12086   8.456   5.783   8.694 -0.1215 -0.2435 -0.4166
 2863SOL    HW112087   8.372   5.738   8.682 -1.2800  1.4761  0.6567
 2863SOL    HW212088   8.431   5.873   8.717  1.9758 -0.0693  1.5082
 2864SOL     OW12089   3.931   7.704  10.241 -0.0268 -0.0145 -0.1114
 2864SOL    HW112090   4.016   7.749  10.242 -1.5318  3.5161 -3.1748
 2864SOL    HW212091   3.915   7.688  10.148 -2.6644 -0.6623  0.3959
 2865SOL     OW12092   3.022  10.264   3.074  0.5298 -0.1898  0.1465
 2865SOL    HW112093   2.980  10.248   3.159 -1.5083 -0.8228 -0.8997
 2865SOL    HW212094   3.046  10.176   3.043 -2.1632 -0.4933 -1.4865
 2866SOL     OW12095   7.491   3.228   0.023  0.0257  0.1465 -0.0880
 2866SOL    HW112096   7.540   3.152   0.057  0.4613  0.1282 -0.7244
 2866SOL    HW212097   7.538   3.304   0.058  2.4750  0.2351 -3.0603
 2867SOL     OW12098  10.303   4.546   6.691 -0.2345  0.3536  0.0904
 2867SOL    HW112099  10.357   4.496   6.751 -1.3108  0.8371  1.5052
 2867SOL    HW212100  10.254   4.481   6.641 -0.5521 -0.0275  0.8980
 2868SOL     OW12101   4.199   6.676   4.189 -0.5288  0.3894 -0.3694
 2868SOL    HW112102   4.251   6.690   4.268  1.4284 -1.4086 -1.2491
 2868SOL    HW212103   4.111   6.660   4.221 -0.1430  1.3749  1.3101
 2869SOL     OW12104  10.685   3.671   4.925  0.1142 -0.4618  0.0218
 2869SOL    HW112105  10.612   3.727   4.899 -1.1293 -2.0049  0.0872
 2869SOL    HW212106  10.751   3.732   4.959 -0.8529  1.0179 -0.6558
 2870SOL     OW12107   6.105   9.769   0.621  0.2192  0.6888 -0.0622
 2870SOL    HW112108   6.133   9.736   0.706 -0.5628 -0.2152 -0.1390
 2870SOL    HW212109   6.152   9.852   0.611  2.3912 -0.4533  0.0659
 2871SOL     OW12110   5.538   8.368   0.944  0.1071 -0.5492  0.1129
 2871SOL    HW112111   5.473   8.299   0.955  0.9520 -1.1388  1.8913
 2871SOL    HW212112   5.602   8.332   0.883 -0.4038 -0.5967 -0.3960
 2872SOL     OW12113   5.211   3.431   1.649 -0.0712  0.4823  0.2509
 2872SOL    HW112114   5.144   3.450   1.583  0.0298  0.2846  0.0909
 2872SOL    HW212115   5.265   3.362   1.609  1.3881  1.9398 -0.4244
 2873SOL     OW12116   8.392   2.614   8.008  1.0324 -0.2923  0.3315
 2873SOL    HW112117   8.365   2.643   7.921 -1.0993 -1.2951  0.6001
 2873SOL    HW212118   8.367   2.686   8.066 -0.2875 -0.8435  0.4640
 2874SOL     OW12119   6.953  10.820   3.606 -0.5595 -0.2059 -0.3125
 2874SOL    HW112120   6.900  10.896   3.579 -2.2163 -1.4859 -0.8173
 2874SOL    HW212121   6.986  10.844   3.693  0.0671  1.6240 -1.0048
 2875SOL     OW12122   8.423   6.798   9.983 -0.4494  0.6745  0.7439
 2875SOL    HW112123   8.372   6.798   9.902 -0.4316 -1.5741  0.6817
 2875SOL    HW212124   8.427   6.706  10.010 -0.4061  1.3234  3.2826
 2876SOL     OW12125   0.628   5.458   6.047  1.1722 -0.4967  0.1912
 2876SOL    HW112126   0.690   5.494   5.984 -1.6239 -1.1836 -3.2533
 2876SOL    HW212127   0.617   5.367   6.020 -0.2414 -0.7879  1.6129
 2877SOL     OW12128   6.843   8.249   8.057  0.3220 -0.3874 -0.3984
 2877SOL    HW112129   6.762   8.275   8.013  0.2049 -1.2405 -0.6930
 2877SOL    HW212130   6.828   8.159   8.086  1.1708 -0.5618 -0.4647
 2878SOL     OW12131   9.721   8.414   6.051  0.5926  0.6866 -0.2996
 2878SOL    HW112132   9.660   8.386   6.120 -0.3851 -0.0704 -1.4383
 2878SOL    HW212133   9.695   8.504   6.031  0.1113  0.5066 -0.4957
 2879SOL     OW12134   4.073   1.073   1.537 -0.3044 -0.0132  0.1088
 2879SOL    HW112135   4.130   1.004   1.504  0.5872  0.2585  1.0443
 2879SOL    HW212136   4.009   1.027   1.591 -1.1777 -0.3477 -1.1528
 2880SOL     OW12137   4.341   5.114   6.991 -0.3165 -0.1063  0.4557
 2880SOL    HW112138   4.248   5.100   7.011 -0.7315  1.8809  0.0564
 2880SOL    HW212139   4.345   5.121   6.896  0.4226 -1.1578  0.3866
 2881SOL     OW12140   0.361   2.466   4.708 -0.4032  0.2059  0.1506
 2881SOL    HW112141   0.347   2.376   4.737 -1.6726  0.2010 -0.3936
 2881SOL    HW212142   0.400   2.458   4.621 -1.6475  0.1516 -0.4173
 2882SOL     OW12143   5.755  10.100   9.828  0.3044 -0.3218  0.0804
 2882SOL    HW112144   5.660  10.088   9.821  0.2385 -1.5675  2.2095
 2882SOL    HW212145   5.767  10.150   9.909  1.4051  1.8236 -1.3223
 2883SOL     OW12146   8.056   7.805   1.067 -0.0886  0.2447 -0.1065
 2883SOL    HW112147   8.064   7.900   1.053 -0.8801  0.1584 -1.3112
 2883SOL    HW212148   7.995   7.796   1.140  0.4893  0.6676  0.4365
 2884SOL     OW12149   3.439   9.501   0.385  0.0565  0.0631  0.1979
 2884SOL    HW112150   3.534   9.504   0.373 -0.2261  0.2555 -2.4713
 2884SOL    HW212151   3.427   9.448   0.464  2.3596  0.0446  0.6222
 2885SOL     OW12152   6.797   2.781   4.884 -0.0686 -0.1683 -0.3495
 2885SOL    HW112153   6.759   2.841   4.949  0.8248  0.0178  0.0251
 2885SOL    HW212154   6.748   2.699   4.896  0.3484 -0.2695  0.8616
 2886SOL     OW12155   6.955   1.518   5.616  0.1285 -0.4407 -0.0515
 2886SOL    HW112156   6.921   1.437   5.653  1.0344 -0.2484  1.2587
 2886SOL    HW212157   6.926   1.516   5.525  0.5489 -2.4707 -0.1972
 2887SOL     OW12158   6.981   4.199   4.554 -0.1799  0.5730 -0.1344
 2887SOL    HW112159   7.045   4.182   4.484 -0.2441  1.2455 -0.3625
 2887SOL    HW212160   6.904   4.150   4.528  0.2125 -0.1825  0.1007
 2888SOL     OW12161   6.396   4.191   1.268  0.5023  0.3034  0.1317
 2888SOL    HW112162   6.392   4.096   1.274  0.7838  0.2926  0.1640
 2888SOL    HW212163   6.324   4.221   1.324  0.1148  0.1046 -0.2534
 2889SOL     OW12164   1.891  10.006   5.022 -0.1753 -0.3941 -0.0825
 2889SOL    HW112165   1.851   9.919   5.016  0.9341 -0.8834 -0.5734
 2889SOL    HW212166   1.823  10.066   4.991 -0.7641 -1.1341 -0.2423
 2890SOL     OW12167   2.942  10.180   2.095  0.2725 -0.4378  1.1737
 2890SOL    HW112168   3.029  10.218   2.079  0.1303 -0.3630  0.5870
 2890SOL    HW212169   2.956  10.085   2.089 -0.0324 -0.3975 -0.7730
 2891SOL     OW12170   3.060   9.413   5.723 -0.1467 -0.2483  0.2188
 2891SOL    HW112171   3.133   9.422   5.662  0.2232 -0.2280  0.6511
 2891SOL    HW212172   3.026   9.501   5.734 -0.5364 -0.3251 -0.3389
 2892SOL     OW12173   8.729   9.019   1.765  0.6465 -0.1219 -0.7393
 2892SOL    HW112174   8.808   8.980   1.803  0.6184  0.0041 -0.5521
 2892SOL    HW212175   8.685   8.945   1.722 -0.2944 -0.6864  1.0761
 2893SOL     OW12176   9.757   0.297  10.656 -0.5646  0.0338  0.5134
 2893SOL    HW112177   9.816   0.323  10.585  0.4030 -0.6501  1.0415
 2893SOL    HW212178   9.670   0.303  10.618  0.0182 -2.1260 -1.3650
 2894SOL     OW12179   0.654   0.760   6.914  0.0477  0.6196 -0.7052
 2894SOL    HW112180   0.628   0.843   6.875 -1.2388  0.8377  0.5724
 2894SOL    HW212181   0.581   0.734   6.969  0.3962 -1.3993 -1.0921
 2895SOL     OW12182   3.879   3.754   5.492  0.5230  0.5634  0.0675
 2895SOL    HW112183   3.914   3.761   5.403 -0.9328 -1.6761 -0.7759
 2895SOL    HW212184   3.831   3.836   5.506 -1.3312 -0.0241 -2.2562
 2896SOL     OW12185   8.025   2.463   8.532  0.5185  0.0369  0.1939
 2896SOL    HW112186   8.013   2.380   8.578 -0.9408 -0.6305 -1.2899
 2896SOL    HW212187   7.940   2.506   8.538  0.9737  0.9780  0.0816
 2897SOL     OW12188   8.050   4.675   1.257 -0.0049 -0.5012  0.0569
 2897SOL    HW112189   8.069   4.587   1.225 -2.2054 -1.1349  0.3193
 2897SOL    HW212190   7.977   4.705   1.202  0.6881  1.1817 -0.0193
 2898SOL     OW12191   3.639   3.517   6.692  0.4629 -0.4477 -0.0901
 2898SOL    HW112192   3.553   3.538   6.656  0.5975 -0.9668 -0.7384
 2898SOL    HW212193   3.623   3.450   6.757  0.4324 -0.9718 -0.6283
 2899SOL     OW12194   5.502   7.640   4.997  0.3756  0.1563  0.6425
 2899SOL    HW112195   5.487   7.581   4.923 -3.8545  2.6295 -0.8280
 2899SOL    HW212196   5.476   7.589   5.074 -0.8631 -0.6509 -0.2788
 2900SOL     OW12197   2.377   4.408   2.500 -0.3205  0.2240  0.5507
 2900SOL    HW112198   2.460   4.368   2.473 -0.5329 -1.0024  1.6331
 2900SOL    HW212199   2.385   4.499   2.472  0.2958 -0.4679 -1.7453
 2901SOL     OW12200   4.011   8.006   4.025  0.2852  0.2400  0.1934
 2901SOL    HW112201   3.921   7.979   4.044 -0.1189  0.6912 -1.0204
 2901SOL    HW212202   4.031   7.966   3.940  1.6774 -0.8564  0.9807
 2902SOL     OW12203   2.417   5.778   2.407  0.0927 -0.5939  0.3708
 2902SOL    HW112204   2.356   5.852   2.405 -1.7899 -2.0932 -0.1006
 2902SOL    HW212205   2.464   5.789   2.490  0.5127  1.6076 -0.1103
 2903SOL     OW12206   8.432   1.920   8.237 -0.3707  0.1412  0.2367
 2903SOL    HW112207   8.348   1.884   8.210 -0.9061  0.7999  0.9497
 2903SOL    HW212208   8.497   1.863   8.197 -1.0953  0.9346 -2.2416
 2904SOL     OW12209   0.665   8.125   4.410 -0.8043  0.3557 -0.2672
 2904SOL    HW112210   0.714   8.207   4.407 -0.1510  0.0569  1.1158
 2904SOL    HW212211   0.637   8.117   4.502 -1.5631 -0.5583 -0.5601
 2905SOL     OW12212   7.027   4.334   9.020 -0.4211  0.1822  0.4621
 2905SOL    HW112213   6.996   4.247   9.046 -1.3521  1.2829  3.4450
 2905SOL    HW212214   7.062   4.372   9.100 -0.7234  2.8428 -0.5714
 2906SOL     OW12215   6.531   1.077   9.417  0.5856 -0.0419 -0.0369
 2906SOL    HW112216   6.558   1.009   9.478  0.1431  1.1085  1.5342
 2906SOL    HW212217   6.559   1.046   9.331 -0.1317 -2.4640  0.5227
 2907SOL     OW12218   2.221   5.384   5.447  0.2125 -0.0733 -0.3491
 2907SOL    HW112219   2.228   5.441   5.370  0.0280  0.4450  0.0111
 2907SOL    HW212220   2.296   5.325   5.440  0.8536  0.7213 -0.3130
 2908SOL     OW12221   7.263   8.817   1.144  0.0776 -0.5811 -0.1712
 2908SOL    HW112222   7.333   8.883   1.142  0.0325 -0.5280 -1.8889
 2908SOL    HW212223   7.266   8.777   1.057 -0.9452 -1.7498  0.3078
 2909SOL     OW12224   2.015  10.945   6.533 -0.1990  0.7781  0.1695
 2909SOL    HW112225   2.040  10.887   6.461  0.1646  0.0891  0.8454
 2909SOL    HW212226   2.098  10.980   6.566 -0.4042  1.5813 -0.1359
 2910SOL     OW12227   1.163   1.618   9.871  0.1567 -0.6074  0.3490
 2910SOL    HW112228   1.217   1.641   9.947  1.1723  0.7866 -0.7257
 2910SOL    HW212229   1.197   1.673   9.800 -1.5345 -0.9869 -0.8311
 2911SOL     OW12230   6.712   1.202   5.822 -0.3640  0.1116 -0.3856
 2911SOL    HW112231   6.777   1.147   5.865  0.7386  0.8288 -1.1007
 2911SOL    HW212232   6.628   1.157   5.838  0.3511 -1.0820  0.1228
 2912SOL     OW12233   0.524   9.974   1.204 -0.2393 -0.1332  0.1685
 2912SOL    HW112234   0.610  10.007   1.231 -0.3280  1.0961 -0.9558
 2912SOL    HW212235   0.499   9.914   1.274  0.9077  0.5526  1.2176
 2913SOL     OW12236   1.476   1.496   4.151 -0.3046 -0.2610  0.1706
 2913SOL    HW112237   1.451   1.578   4.193  0.4194 -0.1120  0.3237
 2913SOL    HW212238   1.563   1.477   4.186 -1.0673 -1.8967  1.3478
 2914SOL     OW12239   1.601   3.952   4.176 -0.1310  0.0204  0.1346
 2914SOL    HW112240   1.517   3.952   4.130  0.4086 -1.3347 -0.9085
 2914SOL    HW212241   1.614   4.043   4.202 -1.5021  0.4113 -0.4465
 2915SOL     OW12242   7.794   7.266  10.154 -0.5582  1.3613 -0.3107
 2915SOL    HW112243   7.886   7.243  10.141 -0.8620  0.1919 -0.5250
 2915SOL    HW212244   7.781   7.345  10.102  0.2128  1.2814 -0.6331
 2916SOL     OW12245   4.805   0.594   0.341 -0.0282 -0.1610 -0.5901
 2916SOL    HW112246   4.811   0.682   0.305 -0.7762  1.0637  2.0799
 2916SOL    HW212247   4.713   0.583   0.364  0.0843 -1.6081 -0.7450
 2917SOL     OW12248   2.930   1.733   1.488 -0.2294  0.0074  0.0026
 2917SOL    HW112249   2.864   1.741   1.419 -1.0682 -1.7162  0.5569
 2917SOL    HW212250   2.955   1.641   1.487  0.0339  0.0256  1.7589
 2918SOL     OW12251   9.500   2.222   7.263  0.3144 -0.3324  0.1128
 2918SOL    HW112252   9.493   2.232   7.358  1.0099 -1.1662  0.2727
 2918SOL    HW212253   9.546   2.138   7.251  0.8207  0.0703 -0.9471
 2919SOL     OW12254   0.342   6.800   5.816  0.1793 -0.8274  0.0245
 2919SOL    HW112255   0.269   6.861   5.822 -0.0468 -0.9512 -1.2407
 2919SOL    HW212256   0.419   6.853   5.838  0.1622  0.3410 -2.3398
 2920SOL     OW12257  10.462  10.371   2.955 -0.1348  0.1269  0.0188
 2920SOL    HW112258  10.388  10.417   2.915  0.6652 -0.6110 -2.4795
 2920SOL    HW212259  10.488  10.306   2.890  2.5734  0.1942  0.9221
 2921SOL     OW12260   5.010   9.355   0.175 -0.5418  0.2414  0.2176
 2921SOL    HW112261   4.965   9.271   0.187 -0.4070  0.3001  1.1938
 2921SOL    HW212262   5.018   9.390   0.263  0.3206  0.8130 -0.0830
 2922SOL     OW12263   8.407   8.670   2.603 -0.2139  0.3580  0.0239
 2922SOL    HW112264   8.479   8.646   2.661  0.5318  1.4102 -0.4404
 2922SOL    HW212265   8.424   8.620   2.523 -2.1371 -2.3833  1.1758
 2923SOL     OW12266   4.757   8.933   3.372 -0.1698  0.4588  1.2178
 2923SOL    HW112267   4.819   8.997   3.407  0.3456  0.2854  0.6435
 2923SOL    HW212268   4.742   8.962   3.282 -0.6262  0.2787  1.2333
 2924SOL     OW12269  10.628   6.033   5.002  0.4338 -0.3751  0.1117
 2924SOL    HW112270  10.723   6.033   4.986  0.4195 -1.3711 -0.0574
 2924SOL    HW212271  10.594   5.965   4.944 -0.3392 -0.2828  0.4469
 2925SOL     OW12272   8.456  10.856  10.345 -0.4133  0.2096  0.2345
 2925SOL    HW112273   8.369  10.822  10.369 -0.2372  0.0319  0.6247
 2925SOL    HW212274   8.504  10.860  10.428 -0.2402  0.8621  0.1052
 2926SOL     OW12275   4.364   6.877   9.589  0.3781  0.0007 -0.2024
 2926SOL    HW112276   4.403   6.794   9.618 -0.0789  0.4244  1.8014
 2926SOL    HW212277   4.271   6.868   9.608  0.2864  0.8623 -0.2105
 2927SOL     OW12278   1.010   6.408   8.133 -0.3010  0.5622  0.5951
 2927SOL    HW112279   1.082   6.413   8.196 -0.8041  0.7878  1.1650
 2927SOL    HW212280   1.023   6.324   8.089  0.4692  0.7322  0.4872
 2928SOL     OW12281  10.601   7.382   1.543  0.1654 -0.3353 -0.4053
 2928SOL    HW112282  10.577   7.327   1.617  0.1092  0.5171  0.2328
 2928SOL    HW212283  10.539   7.455   1.545  1.0372  0.4365 -0.4254
 2929SOL     OW12284  10.725   3.432   6.475  0.7406  0.5248  0.4308
 2929SOL    HW112285  10.723   3.472   6.561  0.3675 -1.2547  1.2974
 2929SOL    HW212286  10.665   3.485   6.423 -0.2412  0.7200  1.7120
 2930SOL     OW12287   5.573   8.538   7.369 -0.1037  0.1097  0.3520
 2930SOL    HW112288   5.586   8.628   7.399  0.8645  0.2136 -0.3102
 2930SOL    HW212289   5.507   8.544   7.300  0.3425  0.4046 -0.0576
 2931SOL     OW12290   7.301   9.621   0.418  0.1230 -0.5642 -0.4649
 2931SOL    HW112291   7.317   9.567   0.496  1.5303  0.5471  0.0515
 2931SOL    HW212292   7.385   9.621   0.372 -0.0656  0.5619 -0.8323
 2932SOL     OW12293   6.207   5.187   3.246 -0.5483  0.2608 -0.6203
 2932SOL    HW112294   6.156   5.186   3.165  1.3297  1.0380 -1.8981
 2932SOL    HW212295   6.272   5.118   3.234  0.7982  1.4569 -0.5612
 2933SOL     OW12296   5.949  10.138   8.615  0.2908  0.0708  0.0195
 2933SOL    HW112297   5.865  10.149   8.570  0.5970 -0.7515 -0.7673
 2933SOL    HW212298   6.013  10.131   8.545  1.0014  0.4744  0.6147
 2934SOL     OW12299   7.867   7.708   8.496  0.0665  0.0360  0.6047
 2934SOL    HW112300   7.892   7.764   8.569  1.1377  0.8104 -0.3284
 2934SOL    HW212301   7.942   7.651   8.482 -0.2242 -0.2728  0.2530
 2935SOL     OW12302   9.410   8.078   6.712  0.1367 -0.2832  0.2164
 2935SOL    HW112303   9.459   8.044   6.636  0.7244  0.9505  0.0201
 2935SOL    HW212304   9.328   8.109   6.675  0.7498  1.0546 -0.0700
 2936SOL     OW12305  10.826   3.470   2.000  0.0964 -0.1461 -0.0316
 2936SOL    HW112306  10.820   3.375   2.012 -1.6352 -0.2641 -1.3664
 2936SOL    HW212307  10.884   3.482   1.925 -0.5656 -0.2362 -0.5687
 2937SOL     OW12308   8.479  10.681   4.731 -0.1421  0.0867  1.0486
 2937SOL    HW112309   8.510  10.703   4.643  0.4685 -1.3336  0.8673
 2937SOL    HW212310   8.418  10.750   4.753  1.0184  1.4402  0.2262
 2938SOL     OW12311   2.062   1.196   4.089 -0.7106 -0.0848 -0.1385
 2938SOL    HW112312   2.099   1.168   4.005  0.4553 -1.6655  0.8256
 2938SOL    HW212313   2.129   1.253   4.127 -1.2680  0.6898 -0.3105
 2939SOL     OW12314  10.068   8.136   3.642 -0.0423  0.3083 -0.0149
 2939SOL    HW112315  10.003   8.066   3.649  0.5921 -0.4389 -1.2672
 2939SOL    HW212316  10.123   8.125   3.720 -0.1823 -0.3627 -0.0049
 2940SOL     OW12317   7.717   1.656   6.939 -0.0244  0.3115  0.4196
 2940SOL    HW112318   7.793   1.602   6.960  0.0684  0.5947  0.8297
 2940SOL    HW212319   7.752   1.725   6.882 -0.0793  0.1301  0.1651
 2941SOL     OW12320   0.419   5.869   4.400 -0.2158  0.6073  0.0277
 2941SOL    HW112321   0.470   5.904   4.473 -0.8030  0.9760  0.2713
 2941SOL    HW212322   0.404   5.777   4.424  3.0159 -0.4712 -1.5444
 2942SOL     OW12323   0.730   4.598   7.792 -0.8357  0.3221 -0.3520
 2942SOL    HW112324   0.725   4.529   7.857  0.3523 -0.7520 -1.3547
 2942SOL    HW212325   0.700   4.677   7.838 -0.3313 -0.4588  1.3853
 2943SOL     OW12326   9.642   2.174  10.625  0.1933 -0.1589  0.1494
 2943SOL    HW112327   9.579   2.126  10.680 -0.8942  1.4113  0.3434
 2943SOL    HW212328   9.712   2.198  10.686  1.2132 -2.1911 -0.1321
 2944SOL     OW12329   1.974  10.672   6.767 -0.6925  0.1702  0.2703
 2944SOL    HW112330   2.002  10.660   6.858 -0.4435  0.8592  0.2904
 2944SOL    HW212331   2.053  10.698   6.720 -1.1147  1.3852  0.1803
 2945SOL     OW12332   5.224   2.565   5.081  0.1655 -0.1042  0.4555
 2945SOL    HW112333   5.167   2.640   5.100  2.6109  1.4765  2.2517
 2945SOL    HW212334   5.264   2.544   5.165  4.1222  0.6272 -1.0340
 2946SOL     OW12335   0.775   0.465   5.284  0.1626  0.1854 -0.1683
 2946SOL    HW112336   0.752   0.384   5.331  0.5414  1.0826  1.6390
 2946SOL    HW212337   0.692   0.512   5.276  0.0930  0.0194 -0.4334
 2947SOL     OW12338   0.765   6.521   3.636  0.8089 -0.2832 -0.3609
 2947SOL    HW112339   0.783   6.584   3.566  0.1493 -0.4305 -0.6704
 2947SOL    HW212340   0.788   6.436   3.599  0.7383 -0.3326 -0.2911
 2948SOL     OW12341  10.306   7.304   0.026  0.4357  0.0069  0.0590
 2948SOL    HW112342  10.293   7.286  -0.067  1.3532 -0.5187  0.0194
 2948SOL    HW212343  10.373   7.241   0.053  1.4934  1.3378  0.6483
 2949SOL     OW12344   4.059   0.826   8.213  0.4781 -0.7137  0.2388
 2949SOL    HW112345   3.994   0.756   8.206 -0.1908 -0.2187  1.2662
 2949SOL    HW212346   4.050   0.875   8.131 -0.6207 -0.5229  0.4586
 2950SOL     OW12347   7.112   4.390   4.854  0.4186  0.4200  0.0672
 2950SOL    HW112348   7.043   4.454   4.836  0.1946  0.1140 -0.1752
 2950SOL    HW212349   7.068   4.320   4.902  0.6043  0.3239  0.1004
 2951SOL     OW12350   7.815   2.287   2.118  0.4789 -0.5610  0.0979
 2951SOL    HW112351   7.796   2.223   2.050 -1.4644  0.2887 -0.2360
 2951SOL    HW212352   7.895   2.255   2.160  0.9903 -1.8149 -1.6959
 2952SOL     OW12353   8.869   2.474   4.341 -0.3611 -0.1006 -0.1937
 2952SOL    HW112354   8.865   2.383   4.312 -0.2984 -0.9883  2.3194
 2952SOL    HW212355   8.928   2.516   4.278  1.0815 -2.2357 -0.3973
 2953SOL     OW12356   6.350   8.097   6.896 -0.3090  0.1518 -0.1615
 2953SOL    HW112357   6.406   8.029   6.859  2.6806  1.8659  0.8948
 2953SOL    HW212358   6.332   8.067   6.985 -1.6958 -0.6944 -0.6957
 2954SOL     OW12359   9.188   0.684   6.825  0.7991  0.0679  0.0064
 2954SOL    HW112360   9.183   0.778   6.808  0.2086 -0.0663 -0.6107
 2954SOL    HW212361   9.281   0.663   6.820  0.9337  0.6199  0.1597
 2955SOL     OW12362   4.663   1.642   9.523 -0.3613 -0.3127 -0.2182
 2955SOL    HW112363   4.714   1.671   9.447 -1.2083  0.5798 -0.4674
 2955SOL    HW212364   4.699   1.691   9.597  0.0997 -0.7716 -0.1362
 2956SOL     OW12365   8.915   0.537   0.367 -0.7068 -0.2815 -0.2060
 2956SOL    HW112366   8.928   0.442   0.369 -2.7436 -0.6039 -0.2919
 2956SOL    HW212367   8.949   0.564   0.282  0.0457 -0.9025 -0.1124
 2957SOL     OW12368   3.435   1.335   5.992 -0.0849  0.4675 -0.2590
 2957SOL    HW112369   3.489   1.256   5.989  1.0074  0.9366  3.1473
 2957SOL    HW212370   3.453   1.379   5.909  2.8318 -0.6495 -0.3443
 2958SOL     OW12371   5.799   5.201   6.836  0.2263  0.0759  0.1326
 2958SOL    HW112372   5.707   5.212   6.860  0.1472 -0.1755 -0.0552
 2958SOL    HW212373   5.803   5.229   6.745  0.1742 -0.6992 -0.1120
 2959SOL     OW12374   9.018   3.986   0.417 -0.1210 -0.1109  0.0873
 2959SOL    HW112375   9.008   4.010   0.325  0.1347 -1.2379 -0.2479
 2959SOL    HW212376   8.929   3.974   0.449 -0.1749 -0.8836 -0.3405
 2960SOL     OW12377   9.052  10.622   9.193  0.1347  0.3316  0.6887
 2960SOL    HW112378   9.133  10.673   9.189 -0.1035  0.6297 -0.7162
 2960SOL    HW212379   9.076  10.544   9.244  1.6261 -0.1060 -0.5942
 2961SOL     OW12380   8.016   5.121   0.873 -0.7895  0.5293 -0.4370
 2961SOL    HW112381   8.050   5.119   0.962  0.9331  0.4641 -1.0544
 2961SOL    HW212382   8.059   5.047   0.829 -2.0450  0.2099 -1.1866
 2962SOL     OW12383   9.967   1.226   4.711 -0.7419  0.1328 -0.1907
 2962SOL    HW112384   9.939   1.317   4.724 -1.4084  0.2526 -2.0735
 2962SOL    HW212385   9.890   1.174   4.735 -0.1195 -0.0081  1.5928
 2963SOL     OW12386   2.941  10.504   1.565  0.2579 -0.4045 -0.6784
 2963SOL    HW112387   2.893  10.585   1.551 -4.6395 -2.7723  0.3639
 2963SOL    HW212388   2.918  10.450   1.489  2.2423 -1.4060 -0.6380
 2964SOL     OW12389   2.190   2.049   1.544  0.1228  0.4092  0.5368
 2964SOL    HW112390   2.102   2.052   1.506  0.5375 -0.8246 -0.6576
 2964SOL    HW212391   2.234   2.125   1.508 -0.0017  0.1751 -0.1269
 2965SOL     OW12392   2.631   7.331   9.094 -0.5562 -0.6165  0.0302
 2965SOL    HW112393   2.703   7.270   9.112  1.8957  2.0375 -0.0739
 2965SOL    HW212394   2.607   7.314   9.003 -0.0091 -1.5104  0.0407
 2966SOL     OW12395   7.368   3.941   0.074 -0.4189 -0.5749  0.1256
 2966SOL    HW112396   7.394   4.004   0.140  1.2971 -0.6705 -0.4047
 2966SOL    HW212397   7.356   3.859   0.122 -2.6701  0.0850  0.8155
 2967SOL     OW12398   7.718   2.252   6.821  0.0186  0.6221 -0.1647
 2967SOL    HW112399   7.734   2.308   6.897 -0.7618  1.5806 -0.6879
 2967SOL    HW212400   7.625   2.231   6.827  0.5378 -1.7925  0.7813
 2968SOL     OW12401   9.814   7.918   7.242  0.0097 -0.2317  0.4814
 2968SOL    HW112402   9.774   7.914   7.155  0.3192 -1.9504  0.3679
 2968SOL    HW212403   9.889   7.859   7.236  1.8362  1.9171  1.0728
 2969SOL     OW12404   2.133   4.281   1.381  0.1309  0.0702 -0.0137
 2969SOL    HW112405   2.081   4.356   1.409  0.5837  0.1365  0.6924
 2969SOL    HW212406   2.072   4.223   1.337 -0.6862 -0.1751  1.3973
 2970SOL     OW12407   1.403   9.786   8.736  0.7260  0.3289 -0.4197
 2970SOL    HW112408   1.388   9.790   8.642  2.0489  0.8154 -0.6276
 2970SOL    HW212409   1.489   9.827   8.749 -0.1285  1.7820  1.1700
 2971SOL     OW12410   2.709   5.724   3.589  0.5819  0.3899  0.2333
 2971SOL    HW112411   2.787   5.670   3.603 -0.2010 -0.3542  2.0545
 2971SOL    HW212412   2.719   5.797   3.650 -1.0941 -0.8463  2.1121
 2972SOL     OW12413   1.089   7.251   2.140 -0.4268 -0.0723 -0.0585
 2972SOL    HW112414   1.129   7.246   2.226 -0.7405 -0.8589  0.0512
 2972SOL    HW212415   1.017   7.188   2.143 -0.3276 -0.2455 -0.9524
 2973SOL     OW12416   2.057   3.968   6.859 -0.3227 -0.1551  0.0287
 2973SOL    HW112417   2.059   4.050   6.907 -0.3478  0.7293 -1.4265
 2973SOL    HW212418   1.965   3.955   6.835  0.0675  1.1496 -2.5440
 2974SOL     OW12419   4.784   9.555   3.555  0.6331 -0.0276  0.0361
 2974SOL    HW112420   4.744   9.473   3.584  2.1528 -0.4831  0.9361
 2974SOL    HW212421   4.709   9.614   3.540 -0.5266 -1.7492 -1.3270
 2975SOL     OW12422   0.130   0.244   2.167  0.0536  0.3872  0.1151
 2975SOL    HW112423   0.072   0.168   2.164 -1.4764  1.5550 -0.9866
 2975SOL    HW212424   0.077   0.314   2.205  0.5180  1.6510 -1.4674
 2976SOL     OW12425   5.092   3.913   6.402  0.2732 -0.1842  0.1209
 2976SOL    HW112426   5.037   3.836   6.418  0.7105 -0.7211 -0.8151
 2976SOL    HW212427   5.180   3.876   6.388  0.4556  0.4743 -0.4961
 2977SOL     OW12428   7.855   4.803   8.173 -0.0699  0.5311  0.2010
 2977SOL    HW112429   7.826   4.779   8.085 -0.3324 -0.2187  0.4795
 2977SOL    HW212430   7.863   4.719   8.219  1.6154  0.7782  0.4222
 2978SOL     OW12431   5.461   6.002   1.447  0.3431 -0.0558  0.3615
 2978SOL    HW112432   5.374   5.966   1.431  1.0470 -1.4699 -0.5997
 2978SOL    HW212433   5.483   5.973   1.536  0.2429 -0.6203  0.2062
 2979SOL     OW12434   7.669   4.726   5.346  0.5366  0.0784  0.2831
 2979SOL    HW112435   7.578   4.753   5.348  0.4589 -0.0543 -0.7162
 2979SOL    HW212436   7.680   4.683   5.260  1.5920  0.3235  0.2734
 2980SOL     OW12437   6.997   9.123   6.273 -0.2304  0.4395  0.3388
 2980SOL    HW112438   6.982   9.094   6.183  0.7935 -0.0966  0.3350
 2980SOL    HW212439   6.996   9.219   6.266  2.4960  0.4723 -0.7543
 2981SOL     OW12440   1.298  10.403   8.949  0.1989 -0.0185 -0.1644
 2981SOL    HW112441   1.368  10.396   9.015  1.0723 -1.2091 -1.1625
 2981SOL    HW212442   1.343  10.390   8.865 -1.1338 -0.1705 -0.8863
 2982SOL     OW12443  10.054   8.731   2.409  0.7469  0.3042 -0.1114
 2982SOL    HW112444   9.965   8.731   2.373  1.1529  2.7055 -1.3065
 2982SOL    HW212445  10.041   8.737   2.503 -0.3345 -0.9431 -0.1443
 2983SOL     OW12446  10.007  10.796   0.522  0.0298  0.5700  0.4494
 2983SOL    HW112447  10.098  10.811   0.496  0.7563 -1.5197  1.5458
 2983SOL    HW212448   9.996  10.845   0.603  0.4328  0.2584  0.7001
 2984SOL     OW12449   0.979   7.957   0.266 -0.3976  0.5926  0.5113
 2984SOL    HW112450   0.885   7.978   0.266 -0.6461 -0.2692 -1.3322
 2984SOL    HW212451   0.990   7.900   0.342 -1.9369 -1.2938 -0.5737
 2985SOL     OW12452  10.251   5.540   8.842  0.0440  0.2953  0.2917
 2985SOL    HW112453  10.319   5.481   8.873  0.4746  0.9703  0.6537
 2985SOL    HW212454  10.212   5.495   8.767 -0.1159 -0.7624  0.9964
 2986SOL     OW12455   8.720   9.170   6.494  0.3177 -0.6048 -0.4333
 2986SOL    HW112456   8.650   9.126   6.543 -1.6928  1.2396 -1.4842
 2986SOL    HW212457   8.790   9.181   6.557 -0.2531 -2.6246  0.6482
 2987SOL     OW12458  10.626   3.431   7.660  0.2387 -0.2969  0.1696
 2987SOL    HW112459  10.576   3.379   7.597  1.0845 -1.0947  0.1272
 2987SOL    HW212460  10.604   3.394   7.745  3.0197 -2.7922 -0.0280
 2988SOL     OW12461   2.681   4.525   5.194  0.0251  0.0641  0.7508
 2988SOL    HW112462   2.615   4.456   5.188 -0.2579  0.3752  0.1704
 2988SOL    HW212463   2.638   4.602   5.156 -0.0202  0.8267  2.2890
 2989SOL     OW12464   5.815   6.914   3.602 -0.1422  0.4289  0.5537
 2989SOL    HW112465   5.879   6.856   3.561 -2.7614 -1.2665 -1.5118
 2989SOL    HW212466   5.797   6.874   3.687  0.8450  0.4139  0.7601
 2990SOL     OW12467   0.200   5.949   9.194  0.0913 -0.1903  0.0560
 2990SOL    HW112468   0.161   5.990   9.117 -0.9130  1.3497  1.3285
 2990SOL    HW212469   0.293   5.940   9.172 -0.0528  0.8506 -1.0788
 2991SOL     OW12470   2.156   4.021   4.664  0.0313  0.2611  0.4062
 2991SOL    HW112471   2.099   3.980   4.729  0.3190 -0.3277  0.2855
 2991SOL    HW212472   2.179   4.105   4.703 -0.6921  0.3897  0.5812
 2992SOL     OW12473   6.698   5.825   7.770  0.2109 -0.2792  0.6669
 2992SOL    HW112474   6.665   5.866   7.690  0.6140 -0.7511  0.2582
 2992SOL    HW212475   6.703   5.732   7.750  0.7555 -0.3485  1.0891
 2993SOL     OW12476   1.655   9.591  10.677  0.1975 -0.1165  0.7242
 2993SOL    HW112477   1.707   9.512  10.668  0.2917  0.0575 -0.4859
 2993SOL    HW212478   1.664   9.635  10.592  0.5400  1.4274  1.5163
 2994SOL     OW12479   3.093   3.146   7.526 -0.3676  0.5124  0.2527
 2994SOL    HW112480   3.077   3.130   7.433 -2.8697 -2.0204  0.9456
 2994SOL    HW212481   3.188   3.154   7.534 -0.1708  2.0639 -2.6216
 2995SOL     OW12482   1.301   2.114   4.989 -0.3203  0.2500 -0.1235
 2995SOL    HW112483   1.225   2.146   5.037  0.9938  3.7510 -0.1133
 2995SOL    HW212484   1.366   2.093   5.056 -0.9452 -2.1536 -0.1640
 2996SOL     OW12485   9.303   5.697   8.649 -0.3089 -0.4694  0.6397
 2996SOL    HW112486   9.224   5.727   8.695 -0.5935 -1.2284  0.6756
 2996SOL    HW212487   9.280   5.609   8.619  0.2851 -0.4253  0.0417
 2997SOL     OW12488   1.249   1.287   9.781  0.0903 -1.1358 -0.7307
 2997SOL    HW112489   1.276   1.377   9.801  0.5432 -1.4883  0.2950
 2997SOL    HW212490   1.218   1.291   9.691  0.3060  0.0090 -0.7678
 2998SOL     OW12491  10.468   6.994   6.425  0.4453  0.2909 -0.4309
 2998SOL    HW112492  10.376   7.004   6.400  0.7982  1.9710 -1.2352
 2998SOL    HW212493  10.490   6.904   6.402 -1.2214 -0.4413  0.6401
 2999SOL     OW12494   3.889   1.750   4.932 -0.4871  0.3749  0.7440
 2999SOL    HW112495   3.869   1.818   4.996 -3.2518 -1.3903  1.9641
 2999SOL    HW212496   3.824   1.761   4.863 -0.7424 -0.7657  0.7818
 3000SOL     OW12497   8.626   9.457   9.580  0.3264  0.4096  0.1463
 3000SOL    HW112498   8.701   9.512   9.561 -0.5435  0.7486 -2.7639
 3000SOL    HW212499   8.556   9.491   9.524 -1.4867 -0.9911  1.4358
 3001SOL     OW12500   0.007   0.968   0.478 -0.0208  0.6400  0.0709
 3001SOL    HW112501  -0.022   1.055   0.448  0.6023  1.2347  1.1125
 3001SOL    HW212502   0.098   0.962   0.449  0.0835  0.5338  0.4198
 3002SOL     OW12503   7.269  10.218  10.719  1.3322 -0.0041 -0.2822
 3002SOL    HW112504   7.181  10.189  10.739  1.3279  0.8417  0.9763
 3002SOL    HW212505   7.322  10.138  10.722  0.9633 -0.2106  1.0252
 3003SOL     OW12506   8.451   7.747   2.157 -0.1840 -0.1413  0.4544
 3003SOL    HW112507   8.464   7.717   2.247  1.2560  2.9727  1.4159
 3003SOL    HW212508   8.384   7.815   2.164  0.4110  0.5906 -0.7139
 3004SOL     OW12509   7.872   6.125   4.268 -0.0376 -0.4346 -0.3524
 3004SOL    HW112510   7.849   6.213   4.300  1.9177  0.3644 -1.0180
 3004SOL    HW212511   7.875   6.135   4.173  1.4478 -0.8869 -0.3635
 3005SOL     OW12512   5.351   3.035   4.847 -0.5484 -0.2291  0.6478
 3005SOL    HW112513   5.256   3.024   4.848 -0.7102  0.9619  0.4216
 3005SOL    HW212514   5.383   2.958   4.800 -1.5680  0.2561 -0.9346
 3006SOL     OW12515   8.732   7.236   2.072 -0.0031  0.4266  0.0753
 3006SOL    HW112516   8.674   7.208   2.002  0.1632 -0.0934  0.1379
 3006SOL    HW212517   8.699   7.322   2.098 -0.9315  0.0120  0.3110
 3007SOL     OW12518   9.059   3.934   4.049 -0.0622  0.2040 -0.2120
 3007SOL    HW112519   9.031   3.849   4.016  0.9632 -0.0345 -0.5099
 3007SOL    HW212520   9.068   3.989   3.971  0.4396  0.2293 -0.1390
 3008SOL     OW12521   7.965   6.802   8.588 -0.6956 -0.1258 -0.4485
 3008SOL    HW112522   8.033   6.775   8.527 -1.2936 -2.1713 -0.2852
 3008SOL    HW212523   8.012   6.829   8.667 -0.0318 -0.5489 -0.6945
 3009SOL     OW12524   6.898   9.830   7.428 -0.0683 -0.0264  0.6080
 3009SOL    HW112525   6.895   9.919   7.463  0.5058 -0.0016  0.6026
 3009SOL    HW212526   6.807   9.799   7.431 -0.0946  0.1340  1.7032
 3010SOL     OW12527   1.925   4.680   7.699  0.0365  0.6330 -0.1461
 3010SOL    HW112528   1.850   4.633   7.661  0.6851  0.4198 -1.1981
 3010SOL    HW212529   2.002   4.635   7.664  0.6668  1.5270  0.0497
 3011SOL     OW12530   1.558   7.223  10.138 -0.3814  0.0323 -0.2408
 3011SOL    HW112531   1.504   7.145  10.135 -0.6794 -0.0321  2.9613
 3011SOL    HW212532   1.648   7.190  10.138 -0.4406 -0.1449 -1.1021
 3012SOL     OW12533   1.578   2.542   3.639  0.0780  0.9022  0.0011
 3012SOL    HW112534   1.485   2.558   3.651  0.0165  1.6983 -1.3484
 3012SOL    HW212535   1.582   2.462   3.586  0.1019  1.7126 -1.2422
 3013SOL     OW12536   8.351   9.094   7.543 -0.3571  0.0257 -0.4615
 3013SOL    HW112537   8.320   9.183   7.530  0.8788  0.5186 -0.1497
 3013SOL    HW212538   8.435   9.104   7.587  0.1913 -1.2679 -1.1653
 3014SOL     OW12539   7.067   8.060   4.367 -0.2101 -0.1536 -0.2146
 3014SOL    HW112540   7.051   7.973   4.403  0.2875 -0.2063 -0.1191
 3014SOL    HW212541   7.001   8.070   4.298  0.1129 -0.8403 -0.6219
 3015SOL     OW12542   9.290   1.637   4.673  0.6456  0.7676 -0.2727
 3015SOL    HW112543   9.341   1.615   4.595 -0.4910  2.3012 -1.5268
 3015SOL    HW212544   9.264   1.552   4.710  2.4169  0.0018 -0.7065
 3016SOL     OW12545   5.292   8.670   5.753  0.7865 -0.1383 -0.4874
 3016SOL    HW112546   5.312   8.762   5.736  1.1855 -0.6346 -3.1682
 3016SOL    HW212547   5.196   8.668   5.761  0.7665  0.4830 -0.4835
 3017SOL     OW12548   7.891   0.141   1.640  0.1863 -0.1217  0.7084
 3017SOL    HW112549   7.813   0.148   1.584  0.0605 -0.3984  0.8447
 3017SOL    HW212550   7.889   0.219   1.694  2.2546  2.0850 -2.0988
 3018SOL     OW12551   0.567   7.208   1.176  0.4148  0.2008 -0.0041
 3018SOL    HW112552   0.505   7.262   1.225  0.7363  0.7807 -0.2261
 3018SOL    HW212553   0.577   7.129   1.229 -0.7156 -0.0212 -0.1053
 3019SOL     OW12554   8.087   6.477   0.859 -0.4576  0.1333 -0.1853
 3019SOL    HW112555   8.111   6.511   0.773 -2.3228  0.3487 -0.6578
 3019SOL    HW212556   8.048   6.391   0.841  2.1727 -1.3876  0.7896
 3020SOL     OW12557   5.097   4.634   0.039  0.1815 -0.0056 -0.0631
 3020SOL    HW112558   5.126   4.676  -0.042  1.5361 -1.0757 -0.1733
 3020SOL    HW212559   5.163   4.657   0.104  0.2384 -0.8575  0.2000
 3021SOL     OW12560   6.970   4.204   7.177  0.1573 -1.1842 -0.4286
 3021SOL    HW112561   6.901   4.195   7.110  0.1468 -0.1621 -0.5679
 3021SOL    HW212562   7.017   4.120   7.174 -1.0597 -1.8933 -0.3466
 3022SOL     OW12563   4.081   6.507   7.120  0.4367  0.0992 -0.0856
 3022SOL    HW112564   4.039   6.451   7.186 -0.6745 -0.0008 -0.8583
 3022SOL    HW212565   4.133   6.447   7.068 -0.1941 -0.1230 -0.4727
 3023SOL     OW12566   8.045   2.033   7.217 -0.2163 -0.7031  0.2467
 3023SOL    HW112567   8.020   2.092   7.146  1.6768 -1.6005 -1.2977
 3023SOL    HW212568   8.093   2.088   7.279 -1.9193  0.1014  0.8880
 3024SOL     OW12569   4.358   1.739   3.353  0.0322 -0.6089 -0.2373
 3024SOL    HW112570   4.360   1.655   3.399 -1.3263 -0.5054  0.0511
 3024SOL    HW212571   4.355   1.804   3.423 -2.0845 -0.4531 -0.3990
 3025SOL     OW12572  10.199   3.749   2.481 -0.2735  0.2943  0.3735
 3025SOL    HW112573  10.235   3.831   2.447  1.6911 -0.8460 -0.5056
 3025SOL    HW212574  10.111   3.743   2.443  0.2519  1.1412 -1.0277
 3026SOL     OW12575   8.847   4.168   5.197  0.0176 -0.2737 -0.1515
 3026SOL    HW112576   8.782   4.167   5.127 -1.4617  0.5739  1.1583
 3026SOL    HW212577   8.922   4.215   5.159 -1.2332  1.2933 -0.7919
 3027SOL     OW12578   9.267   9.806   7.700 -0.4094 -0.2022 -0.2536
 3027SOL    HW112579   9.185   9.765   7.671 -0.5700 -0.4332  0.5204
 3027SOL    HW212580   9.321   9.809   7.621 -0.5432 -1.5673 -0.4256
 3028SOL     OW12581   4.662   7.329   9.032 -0.4110  0.3542  0.1363
 3028SOL    HW112582   4.642   7.243   9.068  1.0106  0.1050  0.4158
 3028SOL    HW212583   4.587   7.383   9.055  0.3991  0.2351  3.5995
 3029SOL     OW12584   3.132   3.892   7.612  0.6212  0.4792 -0.3904
 3029SOL    HW112585   3.112   3.968   7.557 -1.2897  0.4833  0.2264
 3029SOL    HW212586   3.117   3.817   7.555  1.0446  0.5254 -0.5670
 3030SOL     OW12587   0.169   3.974   3.578  0.0894 -0.3162  0.0395
 3030SOL    HW112588   0.260   4.001   3.564  0.6500 -2.0620  0.0509
 3030SOL    HW212589   0.143   4.016   3.660  1.0655 -0.1785  0.2862
 3031SOL     OW12590   7.266   7.606   4.479 -0.0958  0.9845  0.0303
 3031SOL    HW112591   7.227   7.530   4.436 -0.9471  0.0911  2.1932
 3031SOL    HW212592   7.342   7.572   4.525 -0.4415  1.4255  0.9628
 3032SOL     OW12593   3.651   2.565  10.780  0.1993  0.4697 -0.3776
 3032SOL    HW112594   3.614   2.638  10.732  2.0879  0.6487 -1.6503
 3032SOL    HW212595   3.595   2.490  10.758 -1.0494  1.2510  0.0276
 3033SOL     OW12596   4.359   3.579  10.049 -0.0440  0.7669  0.3197
 3033SOL    HW112597   4.333   3.660  10.095 -0.1661  1.0322 -0.2135
 3033SOL    HW212598   4.422   3.608   9.983 -0.3472  0.4697 -0.1000
 3034SOL     OW12599   3.890   3.117  10.389 -0.2061 -0.2377  0.7498
 3034SOL    HW112600   3.974   3.147  10.425 -0.2326  1.0938 -0.2267
 3034SOL    HW212601   3.852   3.195  10.350 -1.4957 -1.0310  0.3738
 3035SOL     OW12602   8.362   5.241   4.309  0.6365  0.4747  0.0438
 3035SOL    HW112603   8.433   5.300   4.335  1.2218 -0.8082  1.5043
 3035SOL    HW212604   8.328   5.207   4.391  0.3963 -1.3016 -0.7594
 3036SOL     OW12605  10.756   8.736   1.190  0.1386 -0.4205 -0.1493
 3036SOL    HW112606  10.743   8.770   1.102 -0.3323 -0.9845 -0.3042
 3036SOL    HW212607  10.669   8.712   1.220  0.3796 -0.8672  0.2093
 3037SOL     OW12608   9.996   6.687   2.909  0.1786 -0.0962  0.0505
 3037SOL    HW112609  10.078   6.667   2.954  0.6044  2.8932  0.8600
 3037SOL    HW212610  10.022   6.706   2.819 -0.0255 -1.5634 -0.3423
 3038SOL     OW12611   1.302   7.686   8.873  0.0302 -0.1877 -0.9564
 3038SOL    HW112612   1.310   7.738   8.793  0.7831 -0.3022 -0.9602
 3038SOL    HW212613   1.358   7.610   8.857 -1.5385 -1.3379 -1.2088
 3039SOL     OW12614   8.594   5.885   0.650 -0.0055 -0.0603 -0.0965
 3039SOL    HW112615   8.514   5.921   0.688 -0.3290  0.4264 -1.1867
 3039SOL    HW212616   8.635   5.960   0.607  0.3412 -0.5884 -0.6996
 3040SOL     OW12617  10.024   9.125   2.033  0.1628  0.0030  0.3932
 3040SOL    HW112618  10.049   9.157   1.946  0.4297  0.3337  0.5861
 3040SOL    HW212619  10.091   9.161   2.091  2.1521 -3.1821  0.2838
 3041SOL     OW12620   5.244   4.041   5.141  0.0894 -0.0858  0.2829
 3041SOL    HW112621   5.149   4.046   5.153  0.2391  0.1509  1.4606
 3041SOL    HW212622   5.274   3.980   5.209  0.7031 -0.7695 -0.5765
 3042SOL     OW12623   7.487   2.078   7.061 -0.1292 -0.2081  0.3302
 3042SOL    HW112624   7.429   2.116   6.995 -0.0587 -0.4827  0.1110
 3042SOL    HW212625   7.518   1.997   7.022 -1.9399 -1.5839  1.6203
 3043SOL     OW12626   8.770   6.776   3.110  0.0040  0.0314  0.2897
 3043SOL    HW112627   8.800   6.862   3.139 -2.5593  1.3379 -0.5890
 3043SOL    HW212628   8.849   6.723   3.104  2.1373  3.1174 -1.7559
 3044SOL     OW12629   5.924   1.343   0.284  0.9624  0.5017 -0.9974
 3044SOL    HW112630   5.874   1.323   0.363  0.8907  0.2593 -1.1028
 3044SOL    HW212631   6.013   1.315   0.304  0.8496  0.0016 -1.1677
 3045SOL     OW12632   8.045   3.101   2.957  0.0891 -0.2242  0.3092
 3045SOL    HW112633   8.017   3.023   2.911  0.5375  0.3086 -0.9255
 3045SOL    HW212634   8.085   3.069   3.039  0.5030 -1.2945 -0.2979
 3046SOL     OW12635   0.141   1.866   1.297  0.1732  0.2661 -0.4839
 3046SOL    HW112636   0.085   1.891   1.224  1.6363  1.7493 -1.1691
 3046SOL    HW212637   0.230   1.873   1.262  1.0379  2.6804  1.8507
 3047SOL     OW12638   2.393  10.260   7.459 -0.4244 -0.0584 -0.4344
 3047SOL    HW112639   2.383  10.177   7.411 -2.1046 -0.1623  0.0312
 3047SOL    HW212640   2.350  10.325   7.403 -1.3293  0.0340  0.3484
 3048SOL     OW12641   2.976   6.701  10.389  0.0512  0.3277 -0.0001
 3048SOL    HW112642   2.963   6.612  10.356 -0.4695  0.4869 -0.2302
 3048SOL    HW212643   3.016   6.689  10.475 -0.7820 -0.1569  0.3354
 3049SOL     OW12644   4.740   5.314   3.618 -0.2081 -0.6398 -0.1985
 3049SOL    HW112645   4.703   5.226   3.611 -0.8882 -0.3614 -0.1051
 3049SOL    HW212646   4.834   5.299   3.631 -0.3167 -1.3509 -0.1946
 3050SOL     OW12647   6.855   7.400  10.415  0.2846  0.0736  0.2285
 3050SOL    HW112648   6.862   7.305  10.422  1.1644  0.1822  0.9843
 3050SOL    HW212649   6.877   7.420  10.324 -0.2940 -0.4637 -0.0406
 3051SOL     OW12650   4.069   1.340   5.361 -0.4435 -0.4343 -0.1762
 3051SOL    HW112651   4.130   1.411   5.382 -0.9502  0.0557 -0.3178
 3051SOL    HW212652   4.087   1.318   5.270  0.3024 -1.0921  0.1176
 3052SOL     OW12653   6.318   4.708   3.559  0.1170  0.3840  0.4048
 3052SOL    HW112654   6.327   4.802   3.569  0.3839  0.5078 -0.7827
 3052SOL    HW212655   6.408   4.675   3.555  0.0866  0.4171 -1.7149
 3053SOL     OW12656   8.350   0.528  10.614 -0.2057  0.0141 -0.3761
 3053SOL    HW112657   8.270   0.477  10.625 -0.4920  0.5726  0.1873
 3053SOL    HW212658   8.323   0.618  10.628  0.5970  0.1743  0.2392
 3054SOL     OW12659   3.198   8.449   2.403  0.2236  0.0611 -0.1358
 3054SOL    HW112660   3.228   8.378   2.459  0.3046  0.0492 -0.1940
 3054SOL    HW212661   3.187   8.409   2.317  1.8145  0.4557 -0.5539
 3055SOL     OW12662   9.411   2.879   2.331 -0.4761  0.2605  0.3553
 3055SOL    HW112663   9.496   2.857   2.369 -0.8322 -1.0006  0.4377
 3055SOL    HW212664   9.366   2.795   2.320 -0.8075  0.6591 -1.8556
 3056SOL     OW12665   8.836   8.349   4.584 -0.1083  0.5823  0.1266
 3056SOL    HW112666   8.914   8.361   4.639  1.1274 -1.1689 -1.1620
 3056SOL    HW212667   8.870   8.338   4.496 -1.8808  0.2724 -0.5502
 3057SOL     OW12668   3.887   2.068   4.009 -0.0863 -0.2000  0.4281
 3057SOL    HW112669   3.969   2.114   3.993 -1.5710  2.3812 -0.2496
 3057SOL    HW212670   3.872   2.077   4.103 -0.3050  0.6361  0.3186
 3058SOL     OW12671   7.789   9.299   0.915  0.1616 -0.4876 -0.1533
 3058SOL    HW112672   7.706   9.317   0.872 -0.7544  1.8139  2.3059
 3058SOL    HW212673   7.847   9.370   0.887  0.5881 -0.8079 -0.1015
 3059SOL     OW12674   2.398   9.129   4.318 -0.3217 -0.1640  0.2500
 3059SOL    HW112675   2.388   9.133   4.223  0.3882  1.3378  0.2007
 3059SOL    HW212676   2.468   9.065   4.333 -1.7468 -1.8757 -0.0826
 3060SOL     OW12677   1.467  10.850   8.040 -0.1983  0.5633 -0.0697
 3060SOL    HW112678   1.396  10.803   8.084 -0.2120  0.9268  0.3044
 3060SOL    HW212679   1.422  10.916   7.986 -0.1497  0.8604  0.2446
 3061SOL     OW12680   2.291   4.402  10.265 -0.1179 -0.3706 -0.1998
 3061SOL    HW112681   2.306   4.418  10.358  1.2243 -0.8438 -0.3280
 3061SOL    HW212682   2.227   4.331  10.263 -0.0493 -0.4547  0.3626
 3062SOL     OW12683   1.214   1.403   4.095  0.5782 -0.2612  0.2266
 3062SOL    HW112684   1.202   1.332   4.159  1.2502  0.2137  0.9032
 3062SOL    HW212685   1.304   1.433   4.109 -0.4193  2.4055  1.7227
 3063SOL     OW12686   3.942   3.337   7.514  0.1734  0.2783  0.0591
 3063SOL    HW112687   4.006   3.302   7.452 -0.0838 -0.0845 -0.0066
 3063SOL    HW212688   3.927   3.427   7.485 -2.0074 -0.6819 -2.1104
 3064SOL     OW12689   7.046   6.320   9.254  0.5126 -0.6821  0.4908
 3064SOL    HW112690   6.985   6.340   9.325 -0.2259 -0.2428 -0.2553
 3064SOL    HW212691   7.003   6.249   9.205  1.3301 -1.4542  0.8649
 3065SOL     OW12692  10.895  10.051   2.528  0.1758  0.1036 -0.4878
 3065SOL    HW112693  10.842   9.974   2.508  1.3786 -1.2766  1.2079
 3065SOL    HW212694  10.942  10.026   2.608  2.0158  1.9117 -0.9303
 3066SOL     OW12695   7.961   2.797   0.120 -0.0293  0.0409  0.4032
 3066SOL    HW112696   7.978   2.730   0.054 -0.3170 -0.1025  0.4738
 3066SOL    HW212697   7.871   2.780   0.149 -1.0914  1.9998 -1.4176
 3067SOL     OW12698   8.733   8.379   5.912  0.1416 -0.5129  0.0564
 3067SOL    HW112699   8.747   8.366   5.818 -1.3589 -0.3999 -0.2024
 3067SOL    HW212700   8.751   8.293   5.951 -0.6083 -0.9392 -0.5121
 3068SOL     OW12701   2.307   9.465   3.833  0.2159  0.3191 -0.4221
 3068SOL    HW112702   2.215   9.438   3.840  0.3891  0.1108  1.8480
 3068SOL    HW212703   2.356   9.382   3.828  0.3131  0.4288 -1.6202
 3069SOL     OW12704   6.448   9.265   6.352  0.3032 -0.4039 -0.3569
 3069SOL    HW112705   6.395   9.191   6.382 -1.2993  0.3741 -1.1244
 3069SOL    HW212706   6.398   9.302   6.279  1.5655  0.8307 -0.6429
 3070SOL     OW12707   1.415   8.748   2.919  0.0458 -1.0278  0.1890
 3070SOL    HW112708   1.459   8.666   2.897  0.2002 -0.7690 -0.4820
 3070SOL    HW212709   1.470   8.788   2.986  1.7484  0.0519 -1.7347
 3071SOL     OW12710  10.042   0.580   2.035  0.2375 -0.8468  0.2747
 3071SOL    HW112711  10.125   0.564   1.991  0.5379  0.9186  0.0976
 3071SOL    HW212712   9.986   0.507   2.008  0.4371  0.0625 -3.0426
 3072SOL     OW12713   3.393   6.263   7.194  0.2288  0.2300  0.5872
 3072SOL    HW112714   3.416   6.329   7.128  1.7626  0.3247  1.1762
 3072SOL    HW212715   3.309   6.294   7.229  0.8890  1.8781  0.8284
 3073SOL     OW12716   5.398   4.271   9.936  0.1742  0.0849 -0.2175
 3073SOL    HW112717   5.486   4.301   9.914  0.2661  0.7621  0.9817
 3073SOL    HW212718   5.348   4.280   9.855  0.5241  2.3047 -0.2483
 3074SOL     OW12719   0.023   3.059   5.937  0.3908  0.5476  0.0774
 3074SOL    HW112720   0.038   3.098   6.023  0.1469 -0.5317  0.6312
 3074SOL    HW212721  -0.063   3.018   5.944  0.6040 -0.0215 -0.4889
 3075SOL     OW12722   6.615   4.516   9.357 -0.2576  0.1804  0.4515
 3075SOL    HW112723   6.584   4.576   9.425 -1.3313  1.8491 -1.3785
 3075SOL    HW212724   6.536   4.468   9.330  0.6838 -2.6206  2.2763
 3076SOL     OW12725   5.861   1.828   8.924  0.1269  0.7512 -0.2789
 3076SOL    HW112726   5.904   1.881   8.856 -1.8606 -0.1479 -2.3961
 3076SOL    HW212727   5.831   1.892   8.988  1.5391  1.7107 -0.5097
 3077SOL     OW12728   1.581   4.206   3.686 -0.3711 -0.3194  0.1055
 3077SOL    HW112729   1.645   4.221   3.756 -0.0191 -3.4253  0.5914
 3077SOL    HW212730   1.562   4.293   3.652  2.7480  0.9087  1.1440
 3078SOL     OW12731   4.498   6.822   4.657 -0.3387 -0.0737  0.1101
 3078SOL    HW112732   4.486   6.760   4.729  0.4769 -0.8707 -0.4258
 3078SOL    HW212733   4.560   6.887   4.691 -1.5362  0.7259  0.8269
 3079SOL     OW12734   8.330   2.303   9.687  0.3927 -0.4220 -0.0844
 3079SOL    HW112735   8.415   2.301   9.731  0.4063  0.9917  0.0047
 3079SOL    HW212736   8.298   2.392   9.702 -0.1218 -0.2601 -1.9593
 3080SOL     OW12737   8.770   9.063   7.512  0.0204 -0.1110 -0.1230
 3080SOL    HW112738   8.804   9.099   7.595 -1.3727 -1.2153  0.9630
 3080SOL    HW212739   8.718   9.134   7.475  0.7306  0.4233 -0.1315
 3081SOL     OW12740  10.463   7.642   1.954 -0.3348 -0.4053  0.3133
 3081SOL    HW112741  10.483   7.570   2.014  0.3487 -1.3306 -0.9772
 3081SOL    HW212742  10.474   7.604   1.867 -0.8089  1.0420 -0.3994
 3082SOL     OW12743   1.106   8.745   7.263  0.2355  1.1536 -0.2838
 3082SOL    HW112744   1.183   8.710   7.218  0.6694  0.4547  0.9772
 3082SOL    HW212745   1.140   8.817   7.317 -0.0997  1.2248 -0.1651
 3083SOL     OW12746   5.492  10.088   2.482  0.2784  0.0985  0.1543
 3083SOL    HW112747   5.424  10.052   2.538  1.7159 -1.7820  0.8136
 3083SOL    HW212748   5.530  10.011   2.439  1.6706  1.1345 -0.5473
 3084SOL     OW12749  10.192  10.039   4.512  0.4461 -0.4966 -0.2575
 3084SOL    HW112750  10.272  10.025   4.462 -0.3459 -0.5482 -1.5628
 3084SOL    HW212751  10.146  10.109   4.464  0.4123  0.6430  1.3410
 3085SOL     OW12752   0.258   4.720   3.511  0.1130  0.1292 -0.5652
 3085SOL    HW112753   0.169   4.688   3.493  0.8685 -3.5759  1.3276
 3085SOL    HW212754   0.254   4.753   3.601  0.7012 -0.3868 -0.3441
 3086SOL     OW12755   9.585  10.550   7.744  0.5089  0.4684  0.5753
 3086SOL    HW112756   9.599  10.455   7.738  0.6262  0.4861  0.5713
 3086SOL    HW212757   9.494  10.562   7.716  0.8813  0.4922 -0.6614
 3087SOL     OW12758   4.096   6.247   2.391 -0.5343  0.1412  0.1528
 3087SOL    HW112759   4.178   6.291   2.415 -0.8264  0.4048  0.6826
 3087SOL    HW212760   4.075   6.192   2.467 -0.8470  0.0666  0.0154
 3088SOL     OW12761   9.803   2.903   7.255 -0.3218  0.0974  0.1468
 3088SOL    HW112762   9.754   2.923   7.175 -0.0530  0.4447  0.0668
 3088SOL    HW212763   9.875   2.967   7.256 -0.0163 -0.2472  0.3931
 3089SOL     OW12764   4.691   2.857   5.223 -0.4141 -0.2665  0.3556
 3089SOL    HW112765   4.695   2.929   5.161  0.1959  0.0906  0.8079
 3089SOL    HW212766   4.606   2.816   5.206 -1.6619  1.7136  1.3833
 3090SOL     OW12767  10.956   4.553   1.721  0.2547 -0.4710  0.4236
 3090SOL    HW112768  11.036   4.508   1.750 -0.4031 -0.7339  1.9053
 3090SOL    HW212769  10.971   4.569   1.628  1.5353 -1.5861  0.3957
 3091SOL     OW12770   0.759  10.077  10.727 -0.6859 -0.7450  0.0651
 3091SOL    HW112771   0.694  10.113  10.788 -1.5894 -1.4431 -0.4511
 3091SOL    HW212772   0.842  10.081  10.774 -1.1939 -0.3029  0.9384
 3092SOL     OW12773   4.394   9.036   8.769  0.0157  0.1335  0.1836
 3092SOL    HW112774   4.390   8.948   8.731 -1.1792  0.6074 -0.8424
 3092SOL    HW212775   4.360   9.093   8.700  1.2971  1.4858  0.6180
 3093SOL     OW12776   7.338   8.887   6.834 -0.6676  0.4415  0.0330
 3093SOL    HW112777   7.381   8.803   6.820  0.2365  0.7556  0.7858
 3093SOL    HW212778   7.244   8.868   6.828 -0.4508 -0.3082 -1.3886
 3094SOL     OW12779   2.800  10.139   1.616 -0.1351  0.2891 -0.5340
 3094SOL    HW112780   2.768  10.211   1.670  2.9504  2.2005 -1.0179
 3094SOL    HW212781   2.824  10.180   1.533  1.2206 -1.3793 -1.0146
 3095SOL     OW12782   5.823   1.650   7.556  0.0142  0.5137  0.1299
 3095SOL    HW112783   5.880   1.645   7.479  0.2305 -3.5293  0.3454
 3095SOL    HW212784   5.877   1.695   7.622  1.1569  0.8981 -1.0079
 3096SOL     OW12785   4.300   2.182   7.796 -0.1664 -0.2839  0.7326
 3096SOL    HW112786   4.207   2.162   7.808 -0.4421 -0.3577 -1.2698
 3096SOL    HW212787   4.329   2.214   7.882 -1.9090 -0.7211  1.5166
 3097SOL     OW12788   5.401   0.416   3.601 -0.1805  0.6396  0.4950
 3097SOL    HW112789   5.326   0.396   3.658  0.3158 -1.4137  0.4930
 3097SOL    HW212790   5.448   0.333   3.593  0.5037  1.1905 -1.8554
 3098SOL     OW12791   2.335   8.584   0.497  0.5651 -0.0942 -0.2511
 3098SOL    HW112792   2.361   8.515   0.559 -0.7383 -3.3882 -3.0086
 3098SOL    HW212793   2.283   8.645   0.549  3.1830 -0.1015  2.7311
 3099SOL     OW12794   7.827   2.561   9.173  0.0266 -0.1827  0.1789
 3099SOL    HW112795   7.740   2.591   9.148  0.3136  0.3840 -0.1405
 3099SOL    HW212796   7.887   2.623   9.132  0.6747 -1.7013 -1.2641
 3100SOL     OW12797   4.244   2.996   8.337  0.0671 -0.3508 -0.4776
 3100SOL    HW112798   4.237   2.992   8.242 -1.0659  0.8728 -0.4770
 3100SOL    HW212799   4.319   2.941   8.358  0.7524 -0.1030 -2.1276
 3101SOL     OW12800  10.111  10.754  10.857 -0.0661 -0.0679 -0.6651
 3101SOL    HW112801  10.137  10.682  10.800  0.2639 -0.3877 -0.1225
 3101SOL    HW212802  10.189  10.810  10.862  0.1296 -0.3848 -0.0170
 3102SOL     OW12803   4.869   8.239   2.318 -0.1070  0.5669  0.2030
 3102SOL    HW112804   4.880   8.259   2.225  0.1434  0.8569  0.2908
 3102SOL    HW212805   4.957   8.217   2.349 -0.1149  0.8857  0.4620
 3103SOL     OW12806   8.275   8.521   1.682 -0.0001 -0.0420  0.3900
 3103SOL    HW112807   8.365   8.493   1.695  0.4208  0.2743 -1.5349
 3103SOL    HW212808   8.280   8.587   1.612 -1.7820 -0.5446 -0.2642
 3104SOL     OW12809   8.060   9.237   2.505  0.8853  0.2080 -0.0541
 3104SOL    HW112810   8.118   9.252   2.580  0.4931  0.0546  0.2861
 3104SOL    HW212811   8.111   9.263   2.429  1.6818 -0.6738  0.1734
 3105SOL     OW12812   3.076   4.858   6.089 -0.1513  0.2548  0.2133
 3105SOL    HW112813   3.162   4.817   6.083 -0.6068 -0.5382 -1.2647
 3105SOL    HW212814   3.081   4.933   6.030 -0.6455 -0.1372 -0.3416
 3106SOL     OW12815   2.253   5.495   8.837  0.1110 -0.0047 -0.7798
 3106SOL    HW112816   2.308   5.558   8.884 -0.3945  0.6638 -1.0805
 3106SOL    HW212817   2.225   5.433   8.904  0.9361 -0.1583 -0.5555
 3107SOL     OW12818   8.043   1.327   1.831 -0.3408 -0.3511  0.4133
 3107SOL    HW112819   7.959   1.281   1.837 -0.0400 -1.1075 -0.9010
 3107SOL    HW212820   8.101   1.267   1.784  0.3580  0.9776 -0.4915
 3108SOL     OW12821   6.359   0.129   9.668  0.4417 -0.1119  0.1180
 3108SOL    HW112822   6.381   0.124   9.761  1.0649  0.5455  0.0168
 3108SOL    HW212823   6.266   0.152   9.667  1.1203  3.2601  0.6725
 3109SOL     OW12824   2.140   7.370  10.510 -0.0397  0.1842  0.1048
 3109SOL    HW112825   2.162   7.457  10.477 -1.5970  0.0489 -1.4276
 3109SOL    HW212826   2.115   7.385  10.601 -2.1754  1.6966 -0.6514
 3110SOL     OW12827   0.600   1.290  10.030  0.3312  0.0610  0.6525
 3110SOL    HW112828   0.671   1.266  10.090  1.5997 -0.0595 -0.8193
 3110SOL    HW212829   0.624   1.378   9.999  0.1735 -0.2318 -0.3313
 3111SOL     OW12830   6.163   8.337   5.801  0.0461  0.1228 -0.0308
 3111SOL    HW112831   6.075   8.326   5.836  0.5771  1.1087  1.7692
 3111SOL    HW212832   6.199   8.249   5.796 -0.6631 -0.1898  0.2791
 3112SOL     OW12833   7.792   3.163   8.199  0.1070 -0.5042 -0.0559
 3112SOL    HW112834   7.753   3.087   8.242 -0.3754 -0.1796  0.0937
 3112SOL    HW212835   7.803   3.227   8.269 -0.3255 -0.1134 -0.3362
 3113SOL     OW12836   4.913   1.637   6.121  0.2398 -0.2775  0.0503
 3113SOL    HW112837   4.889   1.552   6.086  0.1176  0.0828 -0.7470
 3113SOL    HW212838   4.989   1.664   6.070 -0.7440  0.8479 -0.8642
 3114SOL     OW12839   9.510   8.248   7.184  0.2537 -0.4211  0.5913
 3114SOL    HW112840   9.434   8.266   7.129 -0.6107 -0.6276  1.6836
 3114SOL    HW212841   9.565   8.190   7.131 -1.1063 -1.5638  0.3720
 3115SOL     OW12842   1.765   0.139   5.422 -0.0823  0.0282 -0.6144
 3115SOL    HW112843   1.842   0.196   5.426  0.6719 -1.0068  1.5139
 3115SOL    HW212844   1.719   0.156   5.504 -0.1772 -1.8912 -0.2147
 3116SOL     OW12845   4.991   6.472   8.259  0.2026 -0.6699 -0.1808
 3116SOL    HW112846   4.904   6.477   8.297  0.3177 -0.8436  0.1042
 3116SOL    HW212847   4.977   6.434   8.172  0.0572 -1.2087  0.0744
 3117SOL     OW12848   1.413   4.761   5.915 -1.1028 -1.0677 -0.6982
 3117SOL    HW112849   1.367   4.688   5.874 -0.4953 -0.7085 -2.0925
 3117SOL    HW212850   1.499   4.725   5.938 -0.1480 -0.4328 -2.9532
 3118SOL     OW12851   9.607   6.121   2.199  0.5990 -0.3031  0.0507
 3118SOL    HW112852   9.545   6.118   2.272  0.3878  0.5383 -0.0813
 3118SOL    HW212853   9.584   6.045   2.145  1.2198 -1.3464  1.2071
 3119SOL     OW12854   7.977   4.132  10.921 -0.5396  0.1584  0.1747
 3119SOL    HW112855   7.952   4.147  10.830  0.4590  2.0924  0.1826
 3119SOL    HW212856   7.896   4.141  10.970 -0.8986  0.1707 -0.4078
 3120SOL     OW12857   3.813   3.128   3.918  0.4219  0.5114 -0.1567
 3120SOL    HW112858   3.831   3.084   3.835 -0.5113 -1.2278  0.5086
 3120SOL    HW212859   3.898   3.159   3.948  0.9573  0.0459 -1.1626
 3121SOL     OW12860   9.647   9.206   9.394  0.2258 -0.1713 -0.2634
 3121SOL    HW112861   9.712   9.175   9.457 -0.8782 -1.3266  0.3544
 3121SOL    HW212862   9.639   9.135   9.331 -0.4026 -0.0177 -0.3614
 3122SOL     OW12863  10.859   1.651   4.844 -0.0406  0.6931 -0.2375
 3122SOL    HW112864  10.885   1.611   4.761 -2.3089  1.8650 -1.6055
 3122SOL    HW212865  10.786   1.598   4.875  0.3933  0.6291  0.7002
 3123SOL     OW12866   6.302   7.633   1.170 -0.0821  0.6037 -0.0350
 3123SOL    HW112867   6.323   7.715   1.125 -0.2901  1.1754  0.8885
 3123SOL    HW212868   6.374   7.622   1.233 -1.9421  2.1367  2.5753
 3124SOL     OW12869   3.850   5.606   0.655  0.8916 -0.0167 -0.3874
 3124SOL    HW112870   3.888   5.647   0.577  0.8378 -0.9211 -0.9065
 3124SOL    HW212871   3.758   5.635   0.655  1.0925  0.6335 -0.2016
 3125SOL     OW12872   3.581   6.736   4.884 -0.3429  0.4377  0.0263
 3125SOL    HW112873   3.494   6.770   4.907 -0.7543  0.3277 -1.2711
 3125SOL    HW212874   3.640   6.774   4.949 -1.2079  1.3350  0.3154
 3126SOL     OW12875   3.961   8.403   2.194  0.5272 -0.0091 -0.6711
 3126SOL    HW112876   3.918   8.476   2.239  0.6366 -0.3067 -0.0750
 3126SOL    HW212877   3.922   8.403   2.107 -2.9433 -2.1130  0.6938
 3127SOL     OW12878   4.227   2.182   4.383  0.7971 -0.6782 -0.4550
 3127SOL    HW112879   4.277   2.199   4.463  1.0866 -1.7908 -0.3906
 3127SOL    HW212880   4.163   2.115   4.407 -1.4548  1.3962 -0.2712
 3128SOL     OW12881   2.340   1.811   5.865 -0.1756  0.7335 -0.6334
 3128SOL    HW112882   2.314   1.851   5.782 -3.0138  0.1816 -0.1418
 3128SOL    HW212883   2.348   1.718   5.845  1.8979  0.9009 -0.8071
 3129SOL     OW12884   3.508   1.513   0.073  0.1198 -0.2771 -0.0652
 3129SOL    HW112885   3.543   1.482   0.157 -1.1346  0.6730  0.8343
 3129SOL    HW212886   3.483   1.434   0.026 -0.5073 -0.7604  1.0648
 3130SOL     OW12887   8.315   7.239  10.330  0.1645  0.1218 -0.4428
 3130SOL    HW112888   8.226   7.261  10.359  0.8132  0.6400  1.3061
 3130SOL    HW212889   8.312   7.145  10.312 -1.3301  0.5414 -2.8722
 3131SOL     OW12890   7.671   5.271   2.322 -0.2049 -0.2403  0.0023
 3131SOL    HW112891   7.758   5.251   2.287 -0.5597  0.2667 -1.2131
 3131SOL    HW212892   7.610   5.238   2.257 -0.9923 -1.6428  1.3817
 3132SOL     OW12893   4.881   9.057   8.484  0.0719 -0.1343  0.8035
 3132SOL    HW112894   4.896   9.078   8.576 -2.6309  0.6803  1.1595
 3132SOL    HW212895   4.815   8.988   8.486 -0.9704  0.7663 -0.4772
 3133SOL     OW12896   1.810   0.372   2.860 -0.3053 -0.4112  0.1002
 3133SOL    HW112897   1.828   0.422   2.939 -1.7277 -1.2737  1.0261
 3133SOL    HW212898   1.869   0.297   2.865 -0.4276 -0.4915  0.3805
 3134SOL     OW12899   3.106   6.758   7.993 -0.3851  0.5971  0.3345
 3134SOL    HW112900   3.091   6.671   8.029  0.1321 -0.3587 -1.6429
 3134SOL    HW212901   3.174   6.796   8.048  1.5219 -1.4151 -0.4952
 3135SOL     OW12902  10.465   1.497   7.215 -0.5244  0.1596  0.4015
 3135SOL    HW112903  10.460   1.590   7.239  1.6318  0.3843  0.2421
 3135SOL    HW212904  10.521   1.496   7.138 -1.5364 -1.1949 -0.3511
 3136SOL     OW12905   9.007   5.094   4.545  0.9613 -0.1282 -0.1193
 3136SOL    HW112906   8.935   5.044   4.582  0.5665 -0.7243 -1.6447
 3136SOL    HW212907   9.078   5.083   4.608 -0.4567  1.1113  1.8272
 3137SOL     OW12908   7.626   7.133   1.994 -0.0001  0.2726  0.2953
 3137SOL    HW112909   7.618   7.082   1.913 -0.5649  0.4226  0.2498
 3137SOL    HW212910   7.557   7.199   1.987 -2.1104 -1.5797  2.2318
 3138SOL     OW12911   9.676   8.592   1.774 -0.0514 -0.2244  0.2121
 3138SOL    HW112912   9.601   8.589   1.716  0.1000  0.2818 -0.0161
 3138SOL    HW212913   9.732   8.520   1.745 -0.5721 -0.7716  0.5597
 3139SOL     OW12914   2.232   4.200   6.223  0.0548 -0.3394  0.4203
 3139SOL    HW112915   2.213   4.118   6.269  0.3680  0.7370  2.6130
 3139SOL    HW212916   2.309   4.180   6.169 -0.4877 -1.7281  0.1085
 3140SOL     OW12917   0.442   2.708   3.269 -0.0951 -0.1068  0.4735
 3140SOL    HW112918   0.441   2.709   3.364  0.3934 -0.6459  0.4862
 3140SOL    HW212919   0.494   2.631   3.246  1.0684  0.8506 -0.2228
 3141SOL     OW12920   8.421  10.119   9.205  0.6340  0.3816 -0.5817
 3141SOL    HW112921   8.462  10.036   9.180  1.5914  0.1035  1.6145
 3141SOL    HW212922   8.341  10.093   9.251 -0.5428  0.8305 -2.2742
 3142SOL     OW12923   9.978   2.786   5.112  0.3660 -0.8841  0.2809
 3142SOL    HW112924  10.013   2.871   5.139 -1.5285  0.2513 -0.6358
 3142SOL    HW212925   9.886   2.803   5.093 -0.0419 -3.1425 -0.0275
 3143SOL     OW12926   7.849   1.104   2.910 -0.0125 -0.2255 -0.2563
 3143SOL    HW112927   7.878   1.086   2.999 -1.8132  0.1080  0.4499
 3143SOL    HW212928   7.929   1.124   2.862  0.9090  0.7418  1.5669
 3144SOL     OW12929   8.110   2.911   8.441  0.2569  0.0395 -0.6090
 3144SOL    HW112930   8.070   2.884   8.524  0.6826 -0.4181 -0.5429
 3144SOL    HW212931   8.161   2.834   8.414  1.5803  0.8108 -0.3759
 3145SOL     OW12932   7.210   0.779   9.882  0.1492 -0.3010 -0.0709
 3145SOL    HW112933   7.197   0.871   9.859  1.6023 -0.2888 -0.9785
 3145SOL    HW212934   7.261   0.743   9.809  0.4905 -1.5729  0.7645
 3146SOL     OW12935   5.983   4.238   9.986  0.2974  0.3149  0.2253
 3146SOL    HW112936   5.940   4.204  10.065  1.5556 -2.3349 -0.1252
 3146SOL    HW212937   5.936   4.320   9.967 -0.2598  0.9082  3.4961
 3147SOL     OW12938   5.627  10.494   2.998 -0.4307 -0.1360 -0.4046
 3147SOL    HW112939   5.672  10.416   2.966  0.0635 -0.7070  1.5755
 3147SOL    HW212940   5.563  10.462   3.061  0.0908  1.0741  0.7929
 3148SOL     OW12941   3.940   0.177   4.916  0.2763 -0.2574  0.1933
 3148SOL    HW112942   3.994   0.214   4.846  1.3205 -0.7946  0.6956
 3148SOL    HW212943   3.963   0.084   4.917 -1.1011 -0.6221  0.0358
 3149SOL     OW12944   6.217   6.756   9.793 -0.5751  0.1078 -0.5421
 3149SOL    HW112945   6.255   6.840   9.768 -1.0336  0.1414 -1.1758
 3149SOL    HW212946   6.172   6.773   9.876  0.3585  0.1837 -0.0476
 3150SOL     OW12947   1.126   9.307   2.553 -0.1732  0.0262 -0.1949
 3150SOL    HW112948   1.107   9.213   2.554 -1.8244  0.3341  0.9735
 3150SOL    HW212949   1.200   9.316   2.613 -0.8060 -0.4055  0.6848
 3151SOL     OW12950   5.607   5.049   5.280 -0.6890 -0.4462 -0.3266
 3151SOL    HW112951   5.663   4.971   5.285 -1.5302 -1.0794 -0.6061
 3151SOL    HW212952   5.557   5.038   5.199 -0.8082  0.4004 -0.3834
 3152SOL     OW12953   5.268   7.170   5.865  0.4789 -0.0461  0.3613
 3152SOL    HW112954   5.331   7.103   5.891  0.5066 -0.2651 -0.2404
 3152SOL    HW212955   5.199   7.121   5.819 -0.7759  0.0202  2.0603
 3153SOL     OW12956  10.502  10.795   9.559  0.3509 -0.3782  0.3440
 3153SOL    HW112957  10.535  10.852   9.629  0.1380  0.2538 -0.0694
 3153SOL    HW212958  10.407  10.804   9.564  0.3461 -0.1232 -0.2043
 3154SOL     OW12959   2.900   2.644   0.521  0.7553 -0.5055 -0.4124
 3154SOL    HW112960   2.823   2.641   0.464 -0.6293 -0.4275  1.3611
 3154SOL    HW212961   2.946   2.561   0.503  0.6407 -0.2617 -1.9567
 3155SOL     OW12962   9.309  10.570   7.734 -0.1309  0.2910  0.1311
 3155SOL    HW112963   9.288  10.663   7.728 -1.2254  0.0809  0.5204
 3155SOL    HW212964   9.304  10.550   7.827 -2.7471 -0.7488 -0.1593
 3156SOL     OW12965   6.757   7.205   7.826  0.1442 -0.4493  0.2516
 3156SOL    HW112966   6.726   7.234   7.913 -0.8885  0.3627 -0.3571
 3156SOL    HW212967   6.693   7.242   7.765  1.0216 -0.7631 -0.8867
 3157SOL     OW12968   6.041   8.113   4.520 -0.3885 -0.1371 -0.2168
 3157SOL    HW112969   5.985   8.155   4.585 -1.7583 -1.3535 -0.5669
 3157SOL    HW212970   6.046   8.176   4.449 -0.3890  0.4425  0.2886
 3158SOL     OW12971   9.022   2.179   4.770 -0.0983  0.0147 -0.3201
 3158SOL    HW112972   9.000   2.086   4.766 -0.4678  0.0953 -0.2230
 3158SOL    HW212973   8.947   2.223   4.730 -1.0747  0.4272  1.7886
 3159SOL     OW12974  10.935   1.208   0.388  0.1041  0.1809 -0.0399
 3159SOL    HW112975  10.947   1.280   0.326 -1.9351 -0.6912 -1.5578
 3159SOL    HW212976  10.843   1.214   0.415  0.0565 -1.4968  0.2702
 3160SOL     OW12977   1.219   9.718   0.059 -0.0894  0.0470 -0.3918
 3160SOL    HW112978   1.149   9.675   0.010  1.0266  0.9336 -2.9849
 3160SOL    HW212979   1.228   9.804   0.017 -0.1433  1.5865  2.5490
 3161SOL     OW12980   0.546   0.986   6.830  0.2037 -0.1079 -0.5311
 3161SOL    HW112981   0.457   0.987   6.865  0.7783 -0.2248  1.0073
 3161SOL    HW212982   0.540   1.033   6.747 -1.5232 -1.2323 -1.0922
 3162SOL     OW12983   6.546   9.387   9.235 -0.2751  0.0908 -0.4623
 3162SOL    HW112984   6.456   9.397   9.267  0.4113  2.4372  0.9724
 3162SOL    HW212985   6.543   9.422   9.146 -0.8026  0.0683 -0.4583
 3163SOL     OW12986   5.729   9.503  10.490 -0.4509  0.3724  0.3382
 3163SOL    HW112987   5.679   9.424  10.474  0.1472 -0.1433  0.9616
 3163SOL    HW212988   5.668   9.575  10.471 -0.7582 -0.2199 -0.9841
 3164SOL     OW12989   0.397   5.304   7.727  0.2054 -0.0717 -0.1735
 3164SOL    HW112990   0.492   5.313   7.726  0.2252 -0.1223  0.5435
 3164SOL    HW212991   0.365   5.387   7.761  0.0693 -0.4685  0.7164
 3165SOL     OW12992   9.460   1.203   6.821  0.1843  0.4270  0.1997
 3165SOL    HW112993   9.385   1.216   6.762  0.7450  0.5055 -0.5063
 3165SOL    HW212994   9.529   1.257   6.784  0.8171 -0.2092  0.4356
 3166SOL     OW12995   4.433   1.401   4.480 -0.0858 -0.2706 -0.9359
 3166SOL    HW112996   4.379   1.335   4.524 -0.5181 -0.8837 -2.3263
 3166SOL    HW212997   4.422   1.480   4.533 -0.9146 -0.8662 -0.1906
 3167SOL     OW12998   7.496   7.948   8.631  0.1494  0.3456 -0.7984
 3167SOL    HW112999   7.588   7.954   8.606  0.3517 -0.0248 -0.1839
 3167SOL    HW213000   7.479   8.029   8.680  0.1723  0.3723 -0.8352
 3168SOL     OW13001   1.143  10.886   7.058 -0.3897  0.1493  0.1363
 3168SOL    HW113002   1.095  10.951   7.008 -0.9663 -1.8355 -2.0863
 3168SOL    HW213003   1.076  10.829   7.095  0.1230 -0.8952 -0.4762
 3169SOL     OW13004  10.166   1.925   5.736 -0.2612  0.4276  0.1414
 3169SOL    HW113005  10.074   1.906   5.720 -0.4185 -0.6066  2.0650
 3169SOL    HW213006  10.213   1.856   5.690 -0.4902  0.2245  0.2146
 3170SOL     OW13007   1.935   5.387   6.775  0.9361  0.0318  0.2095
 3170SOL    HW113008   1.937   5.361   6.867 -0.3013 -1.8082 -0.2308
 3170SOL    HW213009   1.998   5.329   6.732  0.4162 -0.1369 -0.3330
 3171SOL     OW13010   5.894   5.227   2.769 -0.3147 -0.1736 -0.0618
 3171SOL    HW113011   5.809   5.269   2.759  0.3782  1.3524  0.1880
 3171SOL    HW213012   5.956   5.288   2.729  0.8970 -0.3114  1.5059
 3172SOL     OW13013   3.196   5.417   4.293  0.0944  0.3089  0.0067
 3172SOL    HW113014   3.134   5.344   4.287  0.8347 -0.4572  1.1215
 3172SOL    HW213015   3.208   5.431   4.387  0.5518  1.3664 -0.1904
 3173SOL     OW13016   9.381   3.556   3.929  1.1786  0.0528  0.4195
 3173SOL    HW113017   9.361   3.487   3.992 -0.2409  0.2434  0.2131
 3173SOL    HW213018   9.409   3.630   3.983  0.0098  0.2027  0.8524
 3174SOL     OW13019   4.164   4.423   7.716 -0.1193 -0.1766 -0.8581
 3174SOL    HW113020   4.117   4.359   7.770 -1.5714 -0.2259 -2.1229
 3174SOL    HW213021   4.235   4.454   7.773 -0.7147 -1.2728  0.5559
 3175SOL     OW13022   1.501  10.212   4.053  0.1796 -0.8206  0.1064
 3175SOL    HW113023   1.488  10.149   3.983  1.3946 -0.7829 -0.1667
 3175SOL    HW213024   1.574  10.266   4.024  0.5500 -0.6544  1.2875
 3176SOL     OW13025   0.788   9.975   1.279  0.3122 -0.0697 -0.4627
 3176SOL    HW113026   0.843   9.898   1.268  2.2717  1.5457 -2.8061
 3176SOL    HW213027   0.844  10.039   1.323 -0.3014  0.9818 -1.1695
 3177SOL     OW13028   4.548   0.901   4.013 -0.2082  0.2415 -0.2311
 3177SOL    HW113029   4.457   0.918   4.034 -0.3198 -0.2111 -0.3323
 3177SOL    HW213030   4.550   0.808   3.989  0.4205  0.0209  0.6070
 3178SOL     OW13031   7.232   0.889   7.185 -0.0042 -0.6975  0.1400
 3178SOL    HW113032   7.151   0.847   7.155  0.1267 -1.8430  1.3173
 3178SOL    HW213033   7.299   0.856   7.126 -0.4330  0.6884 -1.2006
 3179SOL     OW13034   3.952   7.922   8.613 -0.8386 -0.2330  0.1193
 3179SOL    HW113035   3.859   7.947   8.618 -1.2224 -1.3129 -1.0947
 3179SOL    HW213036   3.991   7.987   8.554 -0.4126  1.2296  1.9186
 3180SOL     OW13037   9.451  10.439   1.283  0.1807  0.0048 -0.1124
 3180SOL    HW113038   9.476  10.348   1.263  0.0246  0.0287 -0.4094
 3180SOL    HW213039   9.463  10.486   1.201 -0.7186  0.0441 -0.2355
 3181SOL     OW13040   8.366   0.353   4.523 -0.2392 -0.3980 -0.5954
 3181SOL    HW113041   8.288   0.360   4.468  0.0488  0.4302 -0.9143
 3181SOL    HW213042   8.393   0.262   4.515 -1.3437 -0.7777 -0.2346
 3182SOL     OW13043   0.042   0.347  10.419 -0.3678  0.1239  0.1021
 3182SOL    HW113044   0.017   0.317  10.506 -1.8678 -1.5354 -0.8324
 3182SOL    HW213045   0.130   0.313  10.406 -1.1735 -2.0613 -0.0367
 3183SOL     OW13046   8.010  10.413   0.154 -0.8046 -0.2877  0.2517
 3183SOL    HW113047   7.935  10.445   0.204 -2.6544 -1.0124 -1.8671
 3183SOL    HW213048   7.972  10.353   0.090  1.5376 -0.3369 -1.2212
 3184SOL     OW13049   2.429   7.083   4.964  0.0042  0.1228  0.3673
 3184SOL    HW113050   2.395   7.130   5.041 -0.2396  2.0535 -0.8395
 3184SOL    HW213051   2.358   7.091   4.899  1.2472  0.9391 -0.9442
 3185SOL     OW13052   6.190   6.125   7.686 -0.3848 -0.6835  0.0198
 3185SOL    HW113053   6.105   6.155   7.717  0.5999  3.1434 -0.4266
 3185SOL    HW213054   6.178   6.110   7.592 -0.5454 -0.0078 -0.0701
 3186SOL     OW13055   6.489   6.723   7.163 -0.0272  0.6128 -0.2910
 3186SOL    HW113056   6.544   6.794   7.130 -0.7081  1.5048  0.4369
 3186SOL    HW213057   6.417   6.767   7.207  0.1896 -0.5109  1.2848
 3187SOL     OW13058   2.640   3.935  10.152  0.5049  0.2115 -0.6757
 3187SOL    HW113059   2.583   3.963  10.223  0.2473  1.5965 -1.3986
 3187SOL    HW213060   2.607   3.981  10.075  1.5261 -0.3169 -1.4550
 3188SOL     OW13061   6.238   3.051   9.998 -0.1235 -0.1866  0.3539
 3188SOL    HW113062   6.279   3.095  10.072  0.0225 -0.0744  0.2084
 3188SOL    HW213063   6.146   3.042  10.022 -0.4744  1.5350 -0.2217
 3189SOL     OW13064   1.064   6.451  10.493  0.2613 -0.0808  0.2671
 3189SOL    HW113065   1.129   6.407  10.549 -0.6409 -0.4168  1.0810
 3189SOL    HW213066   1.092   6.430  10.404  1.4140 -0.0014  0.5870
 3190SOL     OW13067   0.129   3.103   2.609 -0.0183  0.0652  0.5642
 3190SOL    HW113068   0.067   3.147   2.667 -1.6388 -0.3701 -0.7551
 3190SOL    HW213069   0.083   3.097   2.525  1.1783 -1.7934 -0.0133
 3191SOL     OW13070   7.966   2.187   7.954 -0.0216 -0.6047  0.1605
 3191SOL    HW113071   8.014   2.268   7.971  1.5100 -1.8957  2.5989
 3191SOL    HW213072   7.877   2.204   7.985 -0.2906  0.7391 -1.2548
 3192SOL     OW13073   9.753   9.651   0.396  0.0308  0.0440 -0.6398
 3192SOL    HW113074   9.841   9.614   0.402  0.2698  0.7785  0.8893
 3192SOL    HW213075   9.767   9.742   0.369 -0.2757  0.1014 -0.6034
 3193SOL     OW13076   5.724   2.255   0.385 -0.3335  0.2752  0.0213
 3193SOL    HW113077   5.745   2.335   0.433 -0.3394  0.5677 -0.4570
 3193SOL    HW213078   5.768   2.266   0.301 -0.3930 -0.1932 -0.0700
 3194SOL     OW13079   1.302   9.559   2.423 -0.4514  0.4904 -0.4752
 3194SOL    HW113080   1.284   9.585   2.333  0.5341  0.1206 -0.7989
 3194SOL    HW213081   1.376   9.498   2.416  1.0958  2.0973  0.7450
 3195SOL     OW13082   4.006   3.882   8.155  0.2065 -0.2046 -0.1570
 3195SOL    HW113083   4.035   3.797   8.188 -2.0297 -0.7825  0.5325
 3195SOL    HW213084   4.002   3.871   8.060 -1.6548 -1.4972  0.0116
 3196SOL     OW13085   9.880   3.750   8.897 -0.3473 -0.0821 -0.0808
 3196SOL    HW113086   9.887   3.726   8.805 -1.2176  0.2792 -0.2543
 3196SOL    HW213087   9.885   3.846   8.897 -1.8606  0.0121  0.0820
 3197SOL     OW13088   1.839  10.233   6.535 -0.2169 -0.6121  0.0241
 3197SOL    HW113089   1.790  10.269   6.461 -1.5952  1.2880  1.7836
 3197SOL    HW213090   1.907  10.298   6.553 -0.1903 -0.8289  0.7454
 3198SOL     OW13091   5.507   5.670   5.165 -0.1437 -0.0366 -0.1012
 3198SOL    HW113092   5.413   5.678   5.176 -0.2995 -1.7152 -0.0110
 3198SOL    HW213093   5.519   5.605   5.096  0.9394 -0.7151  0.6864
 3199SOL     OW13094   9.619   2.432   8.338  0.3590 -0.4034  0.6147
 3199SOL    HW113095   9.570   2.451   8.258  1.2837 -0.8231 -0.0781
 3199SOL    HW213096   9.554   2.398   8.399 -0.0110 -2.2603 -0.7434
 3200SOL     OW13097   5.287   7.881   0.336  0.7280 -0.0311  0.0405
 3200SOL    HW113098   5.222   7.923   0.393 -0.6129  0.3600 -1.7092
 3200SOL    HW213099   5.354   7.948   0.325  0.4097  0.3219  0.1963
 3201SOL     OW13100   1.858   8.931   4.198  0.1662  0.4341 -0.3546
 3201SOL    HW113101   1.854   8.836   4.185 -0.3024  0.5825 -1.3640
 3201SOL    HW213102   1.857   8.968   4.110  1.2182  1.3626 -0.0110
 3202SOL     OW13103   2.392   2.559  10.225  0.5051  0.5312  0.3342
 3202SOL    HW113104   2.386   2.650  10.198 -0.2359  0.0804 -1.0896
 3202SOL    HW213105   2.369   2.508  10.147 -2.3408 -0.8260  1.8980
 3203SOL     OW13106   5.838  10.842   8.278  0.2169 -0.7052 -0.6890
 3203SOL    HW113107   5.769  10.907   8.283  2.0980  1.3365  1.1089
 3203SOL    HW213108   5.815  10.787   8.203 -2.0626  1.3232 -1.5909
 3204SOL     OW13109   7.718   3.855   5.777  0.0573 -0.6872  0.0910
 3204SOL    HW113110   7.788   3.908   5.737  1.4602 -1.4093  1.4686
 3204SOL    HW213111   7.657   3.838   5.705  0.3934  1.4167 -0.7569
 3205SOL     OW13112   7.391   7.682   7.747 -0.1888 -0.2479  0.4400
 3205SOL    HW113113   7.340   7.606   7.775 -1.9256  0.2285 -1.1948
 3205SOL    HW213114   7.397   7.737   7.826 -0.7859 -1.0783  1.0874
 3206SOL     OW13115   7.877   0.850   5.295 -0.1633  0.0135 -0.2135
 3206SOL    HW113116   7.877   0.786   5.224 -1.0556 -0.9129  0.5921
 3206SOL    HW213117   7.969   0.862   5.317  0.1071  0.0962 -1.3155
 3207SOL     OW13118   2.311   6.041   2.369 -0.1218 -0.2364  0.2390
 3207SOL    HW113119   2.250   6.011   2.302  0.8914 -3.3180  0.5412
 3207SOL    HW213120   2.391   6.061   2.321  0.1411 -1.0063  0.3444
 3208SOL     OW13121   2.660   8.258   1.011 -0.2627 -0.2184 -0.3357
 3208SOL    HW113122   2.675   8.196   1.082  1.0161 -1.3520 -1.5396
 3208SOL    HW213123   2.691   8.342   1.045 -0.1392 -0.6401  0.6086
 3209SOL     OW13124   0.029  10.636  10.657  0.0878  0.1282  1.0240
 3209SOL    HW113125   0.054  10.544  10.667  0.3420  0.0121 -0.4510
 3209SOL    HW213126   0.109  10.685  10.672  0.6122 -0.0771 -0.8409
 3210SOL     OW13127   8.395   6.084   0.131 -0.1581 -0.2478 -0.2405
 3210SOL    HW113128   8.474   6.136   0.115 -0.8581  1.5232  1.6589
 3210SOL    HW213129   8.406   6.051   0.220 -1.2688 -0.5255 -0.1895
 3211SOL     OW13130   2.941   6.703   7.380  0.3300 -0.3623  0.1323
 3211SOL    HW113131   2.894   6.652   7.447 -0.7041  0.4968  0.0945
 3211SOL    HW213132   3.020   6.733   7.424 -0.8413  1.0736  1.3508
 3212SOL     OW13133   8.815   3.185   0.985 -0.4944  0.5081 -0.1239
 3212SOL    HW113134   8.790   3.093   0.992  2.2979 -0.2806  0.7825
 3212SOL    HW213135   8.740   3.233   1.020  0.2339 -1.7688  5.7058
 3213SOL     OW13136   2.904   0.021   4.238  0.0108  0.5096 -0.2098
 3213SOL    HW113137   2.902   0.114   4.213  2.5505  1.0894  1.4075
 3213SOL    HW213138   2.956  -0.021   4.169  0.2221  0.5971 -0.1047
 3214SOL     OW13139   8.136  10.668   8.402 -0.1642 -0.2288 -0.0902
 3214SOL    HW113140   8.128  10.594   8.341  1.1004  0.5848 -1.3196
 3214SOL    HW213141   8.197  10.728   8.358  0.1793  0.7550  1.6576
 3215SOL     OW13142   8.534  10.804   2.291 -0.3006 -0.1163 -0.3622
 3215SOL    HW113143   8.457  10.837   2.245 -0.8693  1.2343  1.4600
 3215SOL    HW213144   8.500  10.753   2.364  0.4793  0.8340  0.7110
 3216SOL     OW13145   0.088   8.144   6.190  0.3206  0.3556  0.3722
 3216SOL    HW113146   0.163   8.177   6.141 -0.3925  3.0680  0.9549
 3216SOL    HW213147   0.107   8.165   6.281 -1.8554  2.8851  0.3763
 3217SOL     OW13148   4.347   6.064   9.848  1.2460  0.2927 -0.7875
 3217SOL    HW113149   4.381   5.998   9.909 -1.4067 -1.0598 -0.6364
 3217SOL    HW213150   4.329   6.140   9.902  1.5486  0.1120 -0.4264
 3218SOL     OW13151   5.340   3.186   8.412 -0.1539  0.0711  0.1718
 3218SOL    HW113152   5.405   3.165   8.480  1.2981 -2.1728 -1.7457
 3218SOL    HW213153   5.334   3.281   8.413  1.7903  0.2390  1.7050
 3219SOL     OW13154   4.613   2.971  10.318  0.7867 -0.9089 -0.0304
 3219SOL    HW113155   4.656   2.889  10.342 -0.5365 -1.5257  0.3161
 3219SOL    HW213156   4.595   3.014  10.402 -0.8534 -1.5027 -0.0501
 3220SOL     OW13157   5.969   8.728   8.327 -0.4377 -0.2175  0.4803
 3220SOL    HW113158   5.934   8.640   8.344 -0.4115 -0.1736  0.7511
 3220SOL    HW213159   6.037   8.740   8.392  0.0482 -0.2786 -0.0141
 3221SOL     OW13160   6.829   5.963   3.623 -0.0128 -0.6324 -0.0743
 3221SOL    HW113161   6.825   5.955   3.528 -1.1701 -2.4065  0.0760
 3221SOL    HW213162   6.905   5.912   3.649  1.6505  1.6450 -0.1366
 3222SOL     OW13163   3.066   5.615   4.876 -0.0350 -0.0566 -0.1664
 3222SOL    HW113164   2.974   5.638   4.889 -0.5576 -1.2893 -1.4079
 3222SOL    HW213165   3.094   5.582   4.961 -0.8791 -0.0882  0.1135
 3223SOL     OW13166   0.518  10.665   6.261  0.2191  0.5562  0.2360
 3223SOL    HW113167   0.587  10.684   6.198 -0.2208  1.6585  0.0571
 3223SOL    HW213168   0.492  10.751   6.294 -0.9736  0.1473  0.4030
 3224SOL     OW13169   0.099   1.455   8.840  0.2188  0.1506 -0.1757
 3224SOL    HW113170   0.013   1.470   8.881  0.8855  0.8539  1.0433
 3224SOL    HW213171   0.087   1.378   8.785 -1.6345  1.2071 -1.3596
 3225SOL     OW13172   6.595  10.006   5.893 -0.2954  0.1917  0.1023
 3225SOL    HW113173   6.644   9.968   5.821 -2.2978 -1.6795 -0.3894
 3225SOL    HW213174   6.610   9.947   5.967  0.9682  1.5655  1.0054
 3226SOL     OW13175   9.906   1.821   5.720  0.4561 -0.3449  0.1225
 3226SOL    HW113176   9.837   1.764   5.754 -1.1847  0.2518 -2.0294
 3226SOL    HW213177   9.867   1.909   5.722  1.9667  0.3402  0.8748
 3227SOL     OW13178   7.130  10.465   3.903  0.5822 -0.1526 -0.5949
 3227SOL    HW113179   7.191  10.478   3.830  1.0528  1.4537  0.0318
 3227SOL    HW213180   7.050  10.511   3.876 -0.3022 -2.0079 -1.2897
 3228SOL     OW13181   6.281   9.023   6.400 -0.0494 -0.0897 -0.3414
 3228SOL    HW113182   6.242   8.936   6.414  1.8737 -1.1273 -1.1043
 3228SOL    HW213183   6.244   9.077   6.469 -3.5274 -0.6999 -1.5001
 3229SOL     OW13184   1.450   3.222   0.222  0.4492  0.2999 -1.1436
 3229SOL    HW113185   1.542   3.232   0.244  0.6354 -2.1021 -0.5462
 3229SOL    HW213186   1.406   3.209   0.306 -0.4576  1.3184 -1.4226
 3230SOL     OW13187   7.603   9.890   0.012 -0.1464 -0.3295  0.5292
 3230SOL    HW113188   7.676   9.916   0.069  0.5411  0.2200 -0.5738
 3230SOL    HW213189   7.597   9.796   0.024  1.5049 -0.5696 -0.1939
 3231SOL     OW13190  10.363   2.604   5.062 -0.1314 -0.4831  0.0275
 3231SOL    HW113191  10.339   2.551   4.986  0.7563 -0.0136 -0.6006
 3231SOL    HW213192  10.301   2.578   5.130 -0.0102 -1.9928 -0.4056
 3232SOL     OW13193   1.940   6.470   2.264 -0.2321 -0.5516 -0.4000
 3232SOL    HW113194   1.903   6.472   2.352  2.1728  0.0325  0.6948
 3232SOL    HW213195   1.909   6.551   2.223 -1.2359 -0.7447 -0.0549
 3233SOL     OW13196  10.390   1.359   9.079 -0.5164 -0.0187  0.1554
 3233SOL    HW113197  10.438   1.329   9.002  0.2493  1.4776  0.0129
 3233SOL    HW213198  10.403   1.289   9.143  0.9230 -0.1871 -0.2716
 3234SOL     OW13199   9.688   3.401   6.544  0.6939  0.2084  0.8686
 3234SOL    HW113200   9.640   3.429   6.466  1.3357 -1.7684 -0.3009
 3234SOL    HW213201   9.620   3.372   6.605  0.2787 -1.3343 -0.2634
 3235SOL     OW13202   7.024   9.536   6.680 -0.9005  0.2787  0.4187
 3235SOL    HW113203   7.060   9.450   6.702  0.4438  1.1028  1.6644
 3235SOL    HW213204   7.040   9.589   6.758 -1.8733  1.6130 -0.2547
 3236SOL     OW13205   0.824   2.630   3.156 -0.0478  0.1361  0.2913
 3236SOL    HW113206   0.758   2.561   3.147  0.1041 -0.1051  0.9345
 3236SOL    HW213207   0.856   2.621   3.246  1.2420 -0.1073 -0.1637
 3237SOL     OW13208   0.790   8.827   6.455  0.2334  0.0757 -0.5575
 3237SOL    HW113209   0.798   8.852   6.363 -1.9680  0.1306 -0.7895
 3237SOL    HW213210   0.867   8.865   6.497  0.9164  0.6608 -2.2413
 3238SOL     OW13211   4.280   6.027   3.179 -0.2342 -0.2125  0.2142
 3238SOL    HW113212   4.368   6.060   3.195  0.3618  0.0816 -2.9811
 3238SOL    HW213213   4.294   5.938   3.145 -0.7981  0.8469 -3.1539
 3239SOL     OW13214   4.650   1.375   9.028 -0.4550  0.6128 -0.2830
 3239SOL    HW113215   4.602   1.315   9.085  1.9122 -0.0223  1.1506
 3239SOL    HW213216   4.649   1.333   8.942 -0.9084 -0.2573  0.1371
 3240SOL     OW13217  10.128   8.491   7.212  0.1850  0.0468  0.7061
 3240SOL    HW113218  10.138   8.559   7.146 -0.0043  1.0458  1.6639
 3240SOL    HW213219  10.056   8.523   7.268 -1.6871 -2.1772 -0.2840
 3241SOL     OW13220   0.444   1.167   9.408  0.5393 -0.3210  0.3145
 3241SOL    HW113221   0.522   1.121   9.376  0.2489 -0.8856  0.4044
 3241SOL    HW213222   0.475   1.213   9.486  0.4888 -1.6658  1.1768
 3242SOL     OW13223   6.061   1.420   9.081 -0.2631 -0.3828  0.4745
 3242SOL    HW113224   5.969   1.434   9.057 -0.4578  0.4484  1.6386
 3242SOL    HW213225   6.094   1.507   9.101  0.8424 -0.6580 -0.0992
 3243SOL     OW13226   2.436   4.608   8.997 -0.3948 -0.4320  0.5289
 3243SOL    HW113227   2.450   4.562   8.914  0.6165 -2.3765  1.6966
 3243SOL    HW213228   2.370   4.674   8.978  0.7088  0.0277 -2.1122
 3244SOL     OW13229   6.624   1.565   3.204 -0.4647 -0.1151  0.4139
 3244SOL    HW113230   6.581   1.637   3.158 -0.8714 -1.1644 -0.9365
 3244SOL    HW213231   6.611   1.584   3.296 -0.7521  1.4166  0.0830
 3245SOL     OW13232   8.650  10.149   6.021  0.0742  0.6554 -0.3871
 3245SOL    HW113233   8.582  10.129   5.958 -0.1043 -0.5252  0.1615
 3245SOL    HW213234   8.690  10.065   6.042  1.9332  1.3528 -0.9421
 3246SOL     OW13235   9.810   8.315   2.119  0.1981  0.6312 -0.0076
 3246SOL    HW113236   9.761   8.266   2.052  0.2112 -0.3178  0.6606
 3246SOL    HW213237   9.768   8.402   2.120 -1.2635 -0.0486  0.3097
 3247SOL     OW13238  10.223   0.103   7.015  0.0235  0.0942  0.1551
 3247SOL    HW113239  10.177   0.161   6.955  0.4462  1.2106  0.8787
 3247SOL    HW213240  10.156   0.043   7.048 -0.5098  0.4601 -0.2655
 3248SOL     OW13241   4.275   2.736   5.827 -0.0388  0.4466  0.0371
 3248SOL    HW113242   4.356   2.786   5.817 -0.0430  0.1601 -1.7264
 3248SOL    HW213243   4.234   2.739   5.740 -1.0805 -0.8466  0.4531
 3249SOL     OW13244   8.867   7.115   4.389 -0.3703  0.0385  0.6395
 3249SOL    HW113245   8.883   7.201   4.351 -0.4382  0.3374  1.2785
 3249SOL    HW213246   8.954   7.083   4.414  0.0299 -1.2388 -1.9622
 3250SOL     OW13247   2.076   9.496   1.199 -0.3535 -0.3843 -0.4454
 3250SOL    HW113248   2.009   9.483   1.132  0.6419 -0.3204 -1.4990
 3250SOL    HW213249   2.045   9.571   1.249 -1.0712 -0.3581 -0.9060
 3251SOL     OW13250   6.901   0.867   5.648  0.2300  0.2120  0.1327
 3251SOL    HW113251   6.848   0.863   5.568  0.5417 -2.4425 -0.0224
 3251SOL    HW213252   6.989   0.844   5.619  0.9455  1.9764  0.8267
 3252SOL     OW13253   2.220   0.319   4.870  0.1713  0.4360 -1.0007
 3252SOL    HW113254   2.216   0.314   4.775 -1.8489  1.5326 -1.0343
 3252SOL    HW213255   2.200   0.230   4.900 -3.8810  0.9610 -1.6557
 3253SOL     OW13256   3.961   6.610   4.400 -0.0061 -0.0275  0.4857
 3253SOL    HW113257   3.945   6.517   4.385  1.2970 -0.3115  0.7261
 3253SOL    HW213258   3.891   6.654   4.353 -0.0434 -1.1044 -0.5237
 3254SOL     OW13259   0.061   9.712   3.553  0.2551 -0.9306  0.4062
 3254SOL    HW113260   0.069   9.625   3.514  1.0552 -0.4014 -0.6413
 3254SOL    HW213261   0.124   9.766   3.506 -1.2820  0.6003  0.0129
 3255SOL     OW13262   8.788   6.659   1.445 -0.2444 -0.1753  0.0938
 3255SOL    HW113263   8.870   6.694   1.479  0.3702 -2.3159  0.9875
 3255SOL    HW213264   8.726   6.732   1.452  1.0364  0.8372  1.4702
 3256SOL     OW13265  10.029   8.360   0.786 -0.4082  0.7654 -0.2247
 3256SOL    HW113266  10.059   8.441   0.744 -0.0544 -0.3929 -2.3469
 3256SOL    HW213267  10.098   8.297   0.768 -0.9238 -0.1815  0.9379
 3257SOL     OW13268   8.336   0.167   2.311 -0.0777 -0.1269  1.0933
 3257SOL    HW113269   8.336   0.097   2.376 -1.9869 -1.1544  0.0839
 3257SOL    HW213270   8.285   0.238   2.351  0.4586  0.0588  1.4667
 3258SOL     OW13271   6.727   2.535  10.287 -0.2490  0.7132 -0.7030
 3258SOL    HW113272   6.790   2.602  10.311 -0.0634  0.2016  0.3277
 3258SOL    HW213273   6.749   2.460  10.344  0.4968 -0.7751 -2.8245
 3259SOL     OW13274   6.387   4.743   6.577 -0.3084 -0.0847 -0.4242
 3259SOL    HW113275   6.310   4.715   6.527 -0.8625 -1.9410  1.3511
 3259SOL    HW213276   6.358   4.821   6.624 -1.2608 -0.9714  0.4995
 3260SOL     OW13277   3.915   8.436  10.351  0.0787 -0.1163  0.5557
 3260SOL    HW113278   3.861   8.393  10.418  1.6227 -1.3031  1.1083
 3260SOL    HW213279   3.856   8.450  10.278 -1.3801  0.1635  1.7403
 3261SOL     OW13280  10.832   2.993   8.244 -0.2103 -0.5167  0.2859
 3261SOL    HW113281  10.829   2.934   8.319 -0.5298 -1.9589 -0.8156
 3261SOL    HW213282  10.850   2.936   8.169 -1.5181  0.6315 -0.9696
 3262SOL     OW13283   6.083   3.476   3.079  0.2474 -0.3806  0.2948
 3262SOL    HW113284   6.123   3.560   3.103 -1.3344  0.1463  1.2930
 3262SOL    HW213285   6.115   3.458   2.991  1.6485  0.6113  0.5656
 3263SOL     OW13286  10.053   3.391   3.000 -0.9426  0.0928 -0.0306
 3263SOL    HW113287  10.095   3.437   2.926 -1.1311  1.1691  0.5038
 3263SOL    HW213288  10.126   3.355   3.050 -0.6827  1.1860  0.4057
 3264SOL     OW13289   4.131   3.681  10.613 -0.4072  0.0858 -0.1322
 3264SOL    HW113290   4.213   3.684  10.563 -0.0377 -1.9066  0.2502
 3264SOL    HW213291   4.103   3.589  10.607 -3.5931  0.9957 -1.7439
 3265SOL     OW13292   3.450   1.285   1.876 -0.4293  0.2702  0.4520
 3265SOL    HW113293   3.424   1.210   1.823 -0.2232  0.0290  0.6904
 3265SOL    HW213294   3.428   1.361   1.822 -0.6582  0.0397  0.2191
 3266SOL     OW13295   1.374   6.218   5.887 -0.0401  0.0779 -0.0969
 3266SOL    HW113296   1.401   6.231   5.978  0.1831  0.3749 -0.2011
 3266SOL    HW213297   1.306   6.151   5.891 -0.3934  0.4568  0.3431
 3267SOL     OW13298   1.728   8.040   7.106  0.4784  0.6351 -0.0213
 3267SOL    HW113299   1.725   8.098   7.030  1.1785  0.0600 -0.5028
 3267SOL    HW213300   1.704   7.954   7.071 -1.3507  0.7437  0.8322
 3268SOL     OW13301   7.237   2.567   2.128  0.0481  0.0754  0.2033
 3268SOL    HW113302   7.144   2.565   2.151 -0.3216 -1.3256 -1.2239
 3268SOL    HW213303   7.269   2.480   2.150  1.1590  0.6738  1.0714
 3269SOL     OW13304   8.150  10.324   9.110 -0.0038  0.2443 -0.1946
 3269SOL    HW113305   8.232  10.317   9.061  0.0301 -1.3373  0.0179
 3269SOL    HW213306   8.084  10.287   9.052 -0.1345 -0.7185  0.5340
 3270SOL     OW13307   7.039   6.222   5.474 -0.1161  0.8900  0.3037
 3270SOL    HW113308   7.125   6.188   5.449 -1.0739 -0.4203 -1.5292
 3270SOL    HW213309   6.993   6.147   5.512 -1.2437  0.8490 -1.0221
 3271SOL     OW13310   0.886   1.694   0.752  0.2273 -0.2781 -0.3310
 3271SOL    HW113311   0.945   1.759   0.790 -0.4485  0.5037 -0.5674
 3271SOL    HW213312   0.871   1.631   0.823  0.4382  0.1445  0.0978
 3272SOL     OW13313   2.766   5.111   4.267  0.0607  0.3254  0.0251
 3272SOL    HW113314   2.756   5.105   4.172  1.2067 -0.4773 -0.0710
 3272SOL    HW213315   2.860   5.098   4.282 -0.3787 -1.8180  1.3970
 3273SOL     OW13316   2.775   6.255   9.710 -0.0938 -0.0949  0.5318
 3273SOL    HW113317   2.831   6.323   9.673  0.7976 -0.7509  0.6432
 3273SOL    HW213318   2.820   6.173   9.691 -0.3086 -0.5490  1.8262
 3274SOL     OW13319   0.422   6.953   9.746 -0.1434 -0.1659 -0.6146
 3274SOL    HW113320   0.435   6.944   9.652  1.2027  0.2472 -0.4865
 3274SOL    HW213321   0.433   7.047   9.763  2.2425 -0.5425  0.2803
 3275SOL     OW13322   1.336   4.768   0.821 -0.2134  0.5264  0.0177
 3275SOL    HW113323   1.273   4.839   0.825 -1.1617 -0.2607 -0.5671
 3275SOL    HW213324   1.412   4.806   0.776 -0.3205  1.4224  0.5640
 3276SOL     OW13325   2.025   5.449  10.724  0.0680  0.2622 -0.3380
 3276SOL    HW113326   1.936   5.430  10.696  0.6086 -0.3200 -1.7293
 3276SOL    HW213327   2.050   5.526  10.673  0.6426 -0.0681 -0.5635
 3277SOL     OW13328   0.993   4.176   7.981  0.3501  0.5626  0.0886
 3277SOL    HW113329   1.028   4.101   8.030 -0.6769 -0.3288 -0.4925
 3277SOL    HW213330   0.975   4.242   8.047  1.8447  0.5448  0.5467
 3278SOL     OW13331   3.113   7.894   2.543 -0.1099  0.2025 -0.3564
 3278SOL    HW113332   3.047   7.889   2.611 -0.1822  0.1537 -0.4303
 3278SOL    HW213333   3.079   7.958   2.480  1.1208  2.2294  0.9205
 3279SOL     OW13334   8.089   7.577   7.735 -0.3487  0.1356  0.0698
 3279SOL    HW113335   8.150   7.648   7.753 -0.3508  0.2057 -0.1995
 3279SOL    HW213336   8.080   7.576   7.640  1.1667 -1.4761 -0.1182
 3280SOL     OW13337   2.044   3.258   9.022 -0.6062  0.3964 -0.2796
 3280SOL    HW113338   2.096   3.181   9.000 -0.0795  1.4677 -3.2763
 3280SOL    HW213339   2.085   3.294   9.101  1.4436 -0.3794 -0.9279
 3281SOL     OW13340   1.599   0.812   1.835  0.0546 -0.0448 -0.2330
 3281SOL    HW113341   1.591   0.887   1.776  1.7613  1.4483  1.3363
 3281SOL    HW213342   1.509   0.779   1.842 -0.6034  1.2847 -1.6709
 3282SOL     OW13343   7.158   5.035   1.840  0.1421  0.0014 -0.2413
 3282SOL    HW113344   7.083   4.991   1.800  0.4194 -0.4641 -0.2654
 3282SOL    HW213345   7.185   5.100   1.775 -0.3381  0.2830 -0.1612
 3283SOL     OW13346   6.765   7.002   6.244  0.1592  0.1753 -0.2891
 3283SOL    HW113347   6.693   6.995   6.181 -0.9157 -1.3671  0.9898
 3283SOL    HW213348   6.823   6.929   6.223  0.3522  0.2876 -0.1531
 3284SOL     OW13349   2.365   7.175   0.558 -0.7207 -0.2501 -0.1182
 3284SOL    HW113350   2.307   7.118   0.609 -1.3058  1.4760  1.2598
 3284SOL    HW213351   2.306   7.241   0.521  0.2602  1.5130  1.2747
 3285SOL     OW13352   7.752   1.960   6.194  0.6001  0.4012  0.6255
 3285SOL    HW113353   7.774   1.893   6.130 -0.6029  1.6638 -1.2312
 3285SOL    HW213354   7.832   2.011   6.204  0.4301  1.0981 -1.1243
 3286SOL     OW13355   9.350   7.701   8.015  0.2923 -0.2384  0.1937
 3286SOL    HW113356   9.292   7.777   8.011  0.1646 -0.3078  0.7383
 3286SOL    HW213357   9.292   7.626   8.005  0.1715 -0.3454  1.5817
 3287SOL     OW13358   6.506   7.802  10.020  0.1515  0.2238 -0.0281
 3287SOL    HW113359   6.425   7.765   9.986 -0.1632  1.9177 -1.2488
 3287SOL    HW213360   6.519   7.883   9.970  1.0017  1.5653  2.1943
 3288SOL     OW13361   6.178  10.985   3.132 -0.1844 -0.0209  0.4605
 3288SOL    HW113362   6.158  10.892   3.132  0.4944 -0.2439  2.9887
 3288SOL    HW213363   6.095  11.028   3.110 -0.4306 -1.1983 -1.0031
 3289SOL     OW13364   8.148   9.815   6.647  0.0980  0.6062  0.2151
 3289SOL    HW113365   8.232   9.832   6.605  0.6944 -2.2067  0.0585
 3289SOL    HW213366   8.162   9.838   6.739 -0.0832  3.3384 -0.3616
 3290SOL     OW13367  10.670   1.441   2.707  0.0406 -0.2150 -0.3721
 3290SOL    HW113368  10.735   1.444   2.777 -1.0381 -0.2635  0.6545
 3290SOL    HW213369  10.721   1.417   2.629  1.3662  0.4733  0.2464
 3291SOL     OW13370   4.287   3.018   2.567 -0.2167  0.0446 -0.5359
 3291SOL    HW113371   4.326   2.954   2.508  0.8139  0.3710 -0.2277
 3291SOL    HW213372   4.354   3.086   2.576  0.7718 -1.1683  2.9489
 3292SOL     OW13373   4.618   3.525   5.311 -0.1790  0.3443 -0.3218
 3292SOL    HW113374   4.620   3.433   5.283  2.0040  0.7031 -1.6010
 3292SOL    HW213375   4.533   3.535   5.354 -1.7672 -1.5361 -2.7311
 3293SOL     OW13376  10.714   1.889   6.035 -0.3023 -0.1203  0.1369
 3293SOL    HW113377  10.737   1.963   6.091  0.6846  0.6143 -1.1683
 3293SOL    HW213378  10.669   1.929   5.961 -1.0013 -0.9929  0.0718
 3294SOL     OW13379   7.979   5.778   8.134 -0.0422  0.3494 -0.1856
 3294SOL    HW113380   7.903   5.814   8.087  0.2336  2.3801  0.7986
 3294SOL    HW213381   8.053   5.831   8.104  0.9231 -1.1947 -0.6541
 3295SOL     OW13382  10.162   8.332   6.985  0.1347  0.2659 -0.2773
 3295SOL    HW113383  10.153   8.378   7.068  1.0932 -0.3752  0.1981
 3295SOL    HW213384  10.225   8.262   7.003  1.3734  0.9227 -1.8849
 3296SOL     OW13385   1.696   9.478   2.696 -0.1995  0.1329  0.0853
 3296SOL    HW113386   1.749   9.466   2.617 -0.5575 -2.3964  0.1394
 3296SOL    HW213387   1.726   9.409   2.756 -1.8611  0.1959  1.0616
 3297SOL     OW13388   5.339   8.158   0.692 -0.1557 -0.6236 -0.4660
 3297SOL    HW113389   5.363   8.250   0.695 -0.6252 -0.4963 -0.6294
 3297SOL    HW213390   5.399   8.120   0.628 -0.5145 -0.2648 -1.0211
 3298SOL     OW13391   4.006   3.009   3.398 -0.2186  0.1138 -0.0503
 3298SOL    HW113392   4.047   3.059   3.469  1.0821 -0.9232 -0.0191
 3298SOL    HW213393   3.995   2.921   3.435 -0.2157 -0.2432 -0.8739
 3299SOL     OW13394   0.875  10.857   3.136 -0.8337  0.0794  0.2539
 3299SOL    HW113395   0.818  10.889   3.066 -0.9120 -1.7433 -0.5712
 3299SOL    HW213396   0.963  10.860   3.100 -0.8256 -0.4851  0.2243
 3300SOL     OW13397   2.269   0.201   7.246 -0.3817 -0.0234 -0.1424
 3300SOL    HW113398   2.322   0.280   7.242  0.3458 -0.5558 -1.8444
 3300SOL    HW213399   2.285   0.166   7.334  0.6568  0.7788  0.0104
 3301SOL     OW13400   6.849   2.227  10.351  0.1204 -0.0136 -0.3507
 3301SOL    HW113401   6.868   2.268  10.435 -2.5929 -0.6907  0.7045
 3301SOL    HW213402   6.850   2.133  10.370 -0.5994 -0.1707 -1.0294
 3302SOL     OW13403   7.560   0.962   8.645  0.2321 -0.2710  0.5421
 3302SOL    HW113404   7.645   0.933   8.610  0.4032  2.4995 -1.7354
 3302SOL    HW213405   7.499   0.894   8.616  1.3181 -1.1032  0.0928
 3303SOL     OW13406   7.123   2.951   6.500 -0.0642  0.2347 -0.0158
 3303SOL    HW113407   7.154   2.876   6.551 -1.0596 -0.4575 -0.3871
 3303SOL    HW213408   7.195   2.972   6.441  1.4115  1.4990  2.0708
 3304SOL     OW13409   3.511   9.068   4.057  0.1033  0.0912  0.0673
 3304SOL    HW113410   3.423   9.053   4.092  0.1493 -0.2262  0.0494
 3304SOL    HW213411   3.540   8.981   4.028  0.4278  0.1944  0.0865
 3305SOL     OW13412   3.978   6.685   8.156 -0.2476 -0.3476 -0.1738
 3305SOL    HW113413   4.038   6.755   8.130 -0.7334  0.3645  0.5851
 3305SOL    HW213414   3.901   6.698   8.100 -0.1367 -0.5920 -0.3854
 3306SOL     OW13415   5.439   2.298   9.042  0.3011 -0.0015  0.2168
 3306SOL    HW113416   5.502   2.307   8.971  0.2211 -0.0881  0.1339
 3306SOL    HW213417   5.402   2.386   9.053  1.8355  0.5216  1.5840
 3307SOL     OW13418   2.326   7.883   5.352 -0.0831 -0.1372  0.2936
 3307SOL    HW113419   2.302   7.827   5.425 -1.2522  0.6165  0.5087
 3307SOL    HW213420   2.322   7.972   5.387 -0.2515  0.2094 -0.5693
 3308SOL     OW13421   4.982   1.127   8.842 -0.6137  0.2134 -0.5171
 3308SOL    HW113422   4.948   1.038   8.850 -0.5554  0.0167 -2.2048
 3308SOL    HW213423   4.971   1.164   8.930 -0.3748 -1.5310  0.2989
 3309SOL     OW13424   6.143   6.400   9.935  0.0044  0.0164 -0.2380
 3309SOL    HW113425   6.077   6.404  10.004 -0.4229 -0.0838 -0.6437
 3309SOL    HW213426   6.128   6.317   9.891  0.4827 -0.0666 -0.2506
 3310SOL     OW13427   9.175   2.050   5.326  0.2193  0.1785  0.4380
 3310SOL    HW113428   9.183   1.985   5.256 -1.2557 -2.5679  2.6286
 3310SOL    HW213429   9.087   2.086   5.314  0.2179  0.1884  0.4800
 3311SOL     OW13430  10.984   3.264   0.479  0.4762 -0.3357  0.0297
 3311SOL    HW113431  10.976   3.335   0.542 -0.3808 -0.2795 -0.1255
 3311SOL    HW213432  11.078   3.257   0.461  0.8913 -1.1723  2.2449
 3312SOL     OW13433   3.738   9.453   2.155 -0.1868 -0.1167  0.3129
 3312SOL    HW113434   3.815   9.422   2.202  0.4838  0.8418 -0.1221
 3312SOL    HW213435   3.668   9.452   2.220  0.1561 -1.0832  0.6863
 3313SOL     OW13436   4.269   5.746  10.439 -0.4521 -0.0378 -0.1771
 3313SOL    HW113437   4.342   5.704  10.392  0.3620 -1.1269  1.9299
 3313SOL    HW213438   4.208   5.674  10.456 -0.9091  0.4158  0.0822
 3314SOL     OW13439   1.356   2.548   9.763 -0.1133 -0.3617 -0.4776
 3314SOL    HW113440   1.403   2.631   9.756  0.0350 -0.2848  1.0634
 3314SOL    HW213441   1.414   2.483   9.723  0.1528  0.1422 -0.9111
 3315SOL     OW13442   1.770   9.021   7.449  0.3769  0.3484  0.4977
 3315SOL    HW113443   1.760   8.986   7.361 -1.4644  0.5842  0.5850
 3315SOL    HW213444   1.838   8.965   7.489 -0.7828 -1.6207 -0.1327
 3316SOL     OW13445   7.407   4.410   7.125 -0.2300 -0.2291  0.1842
 3316SOL    HW113446   7.314   4.427   7.141 -0.0796  1.9718 -0.8601
 3316SOL    HW213447   7.415   4.409   7.030  0.8473 -0.2324  0.2641
 3317SOL     OW13448   4.945   5.909   7.585 -0.0385 -0.2371 -0.1800
 3317SOL    HW113449   4.911   5.903   7.675  1.1804  1.4801  0.4522
 3317SOL    HW213450   4.904   5.836   7.539 -0.3116 -1.4698  1.8984
 3318SOL     OW13451   9.320   9.899   0.819 -0.3481 -0.1103  0.3746
 3318SOL    HW113452   9.369   9.876   0.740 -1.5643  1.4494 -0.9143
 3318SOL    HW213453   9.371   9.969   0.859 -0.1708 -0.3062  0.4895
 3319SOL     OW13454   3.635   4.655  10.489 -0.0724 -0.0601  0.3228
 3319SOL    HW113455   3.687   4.686  10.415 -1.1554 -0.5357 -0.6721
 3319SOL    HW213456   3.633   4.560  10.479  0.1734 -0.1695  1.2470
 3320SOL     OW13457   8.632   1.857  10.309  0.2295  0.0442 -0.6369
 3320SOL    HW113458   8.656   1.937  10.356  0.2017  0.3182 -1.0771
 3320SOL    HW213459   8.576   1.809  10.370 -2.1440  1.7110 -1.3360
 3321SOL     OW13460  10.424   8.295   6.495  0.0252  0.1954  0.5577
 3321SOL    HW113461  10.476   8.376   6.501  1.1082 -0.4711  0.3816
 3321SOL    HW213462  10.476   8.238   6.438 -1.8241  0.2066 -1.2781
 3322SOL     OW13463   9.519   4.837   3.292  0.0966  0.3554  0.0126
 3322SOL    HW113464   9.549   4.762   3.344  1.4992  0.8870  0.0258
 3322SOL    HW213465   9.589   4.852   3.229 -2.0216 -0.9546 -2.9045
 3323SOL     OW13466  10.136   5.675   6.919 -0.1649  0.3899 -0.1690
 3323SOL    HW113467  10.113   5.767   6.901  1.2088  0.4889 -1.7090
 3323SOL    HW213468  10.070   5.624   6.871  0.0522  0.6184 -0.7296
 3324SOL     OW13469   5.201  10.789   5.722 -0.7661 -0.6723  0.3184
 3324SOL    HW113470   5.179  10.700   5.748  0.3406 -0.3891  2.4042
 3324SOL    HW213471   5.291  10.783   5.691 -1.4213 -0.6345 -1.7527
 3325SOL     OW13472   5.128   8.285  10.218 -0.1811  0.2216  0.1181
 3325SOL    HW113473   5.154   8.371  10.186 -1.0335 -0.0750 -1.4706
 3325SOL    HW213474   5.036   8.295  10.242 -0.2213 -0.1821  0.1403
 3326SOL     OW13475   5.440   6.462   2.825 -0.5137 -0.2302  0.1822
 3326SOL    HW113476   5.430   6.538   2.882 -1.6205 -0.7235  0.6661
 3326SOL    HW213477   5.471   6.498   2.742 -0.4700  0.6741  0.5826
 3327SOL     OW13478  10.301   3.121   0.400  0.6515 -0.6055  0.1811
 3327SOL    HW113479  10.304   3.215   0.383 -0.9105 -0.6188 -0.4275
 3327SOL    HW213480  10.211   3.096   0.376  1.2581 -2.3783 -0.3769
 3328SOL     OW13481   9.435   1.496   6.518 -0.0900 -0.2900  0.1329
 3328SOL    HW113482   9.352   1.460   6.489 -0.1078 -1.3048  1.3505
 3328SOL    HW213483   9.497   1.474   6.448 -0.8351  0.5750 -0.8321
 3329SOL     OW13484   2.108   5.577   9.311  0.2721  0.1565 -0.1068
 3329SOL    HW113485   2.102   5.660   9.263 -2.2137 -0.6510 -1.3494
 3329SOL    HW213486   2.171   5.595   9.381  1.2539  2.5032 -1.4598
 3330SOL     OW13487   7.027   0.322   4.400 -0.7339 -0.0221 -0.1591
 3330SOL    HW113488   7.005   0.258   4.332 -0.8307 -0.4232  0.2505
 3330SOL    HW213489   7.098   0.373   4.362 -0.4481 -0.5699 -0.3692
 3331SOL     OW13490   7.258   3.352   0.732 -0.1515  0.5846 -0.1325
 3331SOL    HW113491   7.186   3.335   0.792 -0.9306  0.9981 -0.9242
 3331SOL    HW213492   7.323   3.286   0.754 -0.5501  0.5289  0.9423
 3332SOL     OW13493   8.434   6.822   7.769 -0.0255 -0.4226  0.0097
 3332SOL    HW113494   8.465   6.839   7.857  0.7018 -0.3534 -0.2546
 3332SOL    HW213495   8.338   6.824   7.776  0.0253  0.9503  0.5401
 3333SOL     OW13496   2.745   4.117   3.722  0.3276  0.1157 -0.1763
 3333SOL    HW113497   2.708   4.043   3.674 -1.2635  0.6649  0.1404
 3333SOL    HW213498   2.793   4.166   3.656  1.7862 -1.4023 -0.3084
 3334SOL     OW13499   8.567  10.213   3.593  0.8437  0.2051 -0.6285
 3334SOL    HW113500   8.498  10.183   3.652  1.2421 -1.2461 -0.8615
 3334SOL    HW213501   8.544  10.175   3.508  1.3513  0.6150 -0.9538
 3335SOL     OW13502   9.358   0.424   9.917  0.6360 -0.9576 -0.1680
 3335SOL    HW113503   9.354   0.445   9.823 -0.4755 -0.7311 -0.0876
 3335SOL    HW213504   9.416   0.492   9.953 -1.9156  1.3737 -0.1216
 3336SOL     OW13505   1.837   6.270   2.665  0.0619  0.1184 -0.5135
 3336SOL    HW113506   1.744   6.248   2.668  0.0315  0.3667  1.2781
 3336SOL    HW213507   1.882   6.186   2.659 -0.2386 -0.0975  0.1945
 3337SOL     OW13508   2.281   9.984   1.460  0.1507  0.0664 -0.6116
 3337SOL    HW113509   2.311   9.935   1.536 -1.0748 -1.9872 -1.3773
 3337SOL    HW213510   2.331   9.948   1.387 -1.5391 -0.8900 -1.3532
 3338SOL     OW13511   3.103   9.137   9.945 -0.6378  0.0559  0.0998
 3338SOL    HW113512   3.162   9.127   9.870 -0.6550 -0.1064  0.1073
 3338SOL    HW213513   3.038   9.067   9.934 -0.1282 -0.5307  0.7401
 3339SOL     OW13514   9.007   9.914   0.492 -0.6434 -0.0244  0.1197
 3339SOL    HW113515   9.034   9.881   0.577  0.6776  1.1617  0.2142
 3339SOL    HW213516   8.952   9.990   0.512 -0.3593  0.2352 -0.0611
 3340SOL     OW13517   5.117   7.364   8.631  0.0034 -0.2425  0.2139
 3340SOL    HW113518   5.077   7.412   8.704 -1.0525  1.1931 -1.2369
 3340SOL    HW213519   5.056   7.292   8.614 -0.0437 -0.2452  0.3952
 3341SOL     OW13520   6.676   7.465   4.294 -0.4229  0.0215  0.3806
 3341SOL    HW113521   6.589   7.440   4.325 -1.3755  1.1663 -1.1889
 3341SOL    HW213522   6.734   7.447   4.367 -2.1227  0.0935  1.8166
 3342SOL     OW13523   7.996   3.135   4.391 -0.0855 -0.5692  0.2626
 3342SOL    HW113524   7.990   3.229   4.377  0.1233 -0.7799 -1.6025
 3342SOL    HW213525   8.086   3.120   4.420  0.1702 -0.2732 -0.3534
 3343SOL     OW13526   7.306   6.511   1.785  0.5802 -0.2182  0.0202
 3343SOL    HW113527   7.316   6.550   1.872  3.3967 -2.8704  1.0564
 3343SOL    HW213528   7.261   6.428   1.801 -0.5472  0.0803 -1.3658
 3344SOL     OW13529   1.248   0.627   3.433  0.1471 -0.0327  0.1211
 3344SOL    HW113530   1.240   0.705   3.488  2.8516  0.8832 -0.6043
 3344SOL    HW213531   1.340   0.601   3.442  0.2747 -0.8540 -2.6227
 3345SOL     OW13532   3.775   0.033   6.714 -0.3438 -0.7201  0.6464
 3345SOL    HW113533   3.755   0.089   6.639  0.7002  0.3562  1.1289
 3345SOL    HW213534   3.853  -0.015   6.689 -1.5429 -2.4522  0.0213
 3346SOL     OW13535   3.610   7.584   2.773  0.3270  0.1478 -0.2126
 3346SOL    HW113536   3.523   7.548   2.756  0.2871  0.7054 -1.2265
 3346SOL    HW213537   3.641   7.535   2.850 -0.8245 -0.1387  0.0939
 3347SOL     OW13538   6.749   6.233   3.661 -0.3097  0.2589 -0.3163
 3347SOL    HW113539   6.839   6.219   3.688 -0.7209 -0.5464  0.6791
 3347SOL    HW213540   6.722   6.149   3.624 -0.4551  0.6940 -1.2333
 3348SOL     OW13541   5.590   7.115   1.559 -0.1987  0.1922 -0.0281
 3348SOL    HW113542   5.548   7.052   1.500 -1.5322  1.7476 -0.8017
 3348SOL    HW213543   5.563   7.086   1.647 -0.3278 -0.6330 -0.3303
 3349SOL     OW13544   4.632   7.781   5.604 -0.3390 -0.1681  0.0554
 3349SOL    HW113545   4.608   7.873   5.612  0.7810  0.1413  0.0099
 3349SOL    HW213546   4.617   7.745   5.692 -0.1559  0.2143  0.2462
 3350SOL     OW13547   8.361   8.326   0.487 -0.7693 -0.0081 -0.2331
 3350SOL    HW113548   8.336   8.418   0.482 -0.8401  0.1696  2.1494
 3350SOL    HW213549   8.294   8.280   0.436 -1.4215  1.1551 -0.4637
 3351SOL     OW13550   8.705   6.055   8.556 -0.6123  0.5670 -0.2696
 3351SOL    HW113551   8.632   6.104   8.517 -0.3925  1.6515  0.6458
 3351SOL    HW213552   8.673   6.030   8.643 -1.2884 -2.2632 -1.1934
 3352SOL     OW13553   7.778  10.165  10.340  0.4069  0.2620 -0.0680
 3352SOL    HW113554   7.791  10.259  10.355 -1.0673  1.2594 -3.9668
 3352SOL    HW213555   7.864  10.133  10.315  0.8578  0.5699  0.9931
 3353SOL     OW13556   5.765   9.314  10.741 -0.3329 -0.1830  0.7859
 3353SOL    HW113557   5.695   9.302  10.804  0.2630  0.6029  1.6351
 3353SOL    HW213558   5.721   9.330  10.658 -1.1753  0.4199  1.3309
 3354SOL     OW13559   1.349   6.973   0.002  0.3675  0.2852  0.0176
 3354SOL    HW113560   1.342   7.067  -0.013  0.4441  0.4345  0.8570
 3354SOL    HW213561   1.351   6.935  -0.086  2.0948  1.1826 -0.3838
 3355SOL     OW13562   9.437   1.794   3.572 -0.1570 -0.5331  0.0163
 3355SOL    HW113563   9.388   1.753   3.644 -0.3077  0.3570  0.4311
 3355SOL    HW213564   9.529   1.778   3.594 -0.2235 -1.1903 -0.1575
 3356SOL     OW13565   8.400   7.104   0.319 -0.2829 -0.2540  0.2345
 3356SOL    HW113566   8.338   7.058   0.375 -0.9589 -0.0598 -0.3503
 3356SOL    HW213567   8.366   7.194   0.313 -0.7714 -0.5150 -1.2725
 3357SOL     OW13568   4.768   7.679   2.984 -0.4654  0.6568  0.2824
 3357SOL    HW113569   4.809   7.697   2.899 -1.1677 -2.4117 -0.8017
 3357SOL    HW213570   4.839   7.693   3.047  1.2046 -0.6738 -1.1811
 3358SOL     OW13571  10.996   9.446   0.072 -0.7640 -0.1250  0.2990
 3358SOL    HW113572  11.035   9.365   0.106  0.1029 -0.0489 -0.4543
 3358SOL    HW213573  10.975   9.425  -0.019  1.2363  1.0435 -0.4830
 3359SOL     OW13574   8.292   0.006   3.060  0.8725 -0.5078  0.0403
 3359SOL    HW113575   8.278  -0.084   3.088  0.7211  0.2641  2.7411
 3359SOL    HW213576   8.205   0.044   3.056  1.0305 -0.1214  0.2289
 3360SOL     OW13577   5.022   1.767   6.911 -0.0120  0.3497 -0.1327
 3360SOL    HW113578   5.077   1.780   6.834  1.1462  0.3240  0.6738
 3360SOL    HW213579   5.046   1.681   6.944  0.9401  1.1363  1.3601
 3361SOL     OW13580   1.379   8.411   8.942 -0.5728  0.2351  0.4011
 3361SOL    HW113581   1.360   8.318   8.955 -0.1437  0.2016  0.8337
 3361SOL    HW213582   1.345   8.454   9.021 -0.8868  0.4686  0.1453
 3362SOL     OW13583   6.678   3.547   5.339  0.0934 -0.4199 -0.8434
 3362SOL    HW113584   6.746   3.526   5.404  0.0208  2.0657  0.1287
 3362SOL    HW213585   6.727   3.569   5.259  0.3003 -1.0046 -0.8835
 3363SOL     OW13586   4.198   5.291   0.474 -0.3452 -0.3495 -0.2586
 3363SOL    HW113587   4.237   5.341   0.402  1.8025 -2.1976 -0.4785
 3363SOL    HW213588   4.183   5.204   0.438 -1.3206 -0.6990  0.9188
 3364SOL     OW13589   4.491   6.973   8.636  0.3363  0.4644 -0.2543
 3364SOL    HW113590   4.419   6.947   8.694 -0.5293 -1.1106 -1.9450
 3364SOL    HW213591   4.498   6.903   8.572  2.0769  1.5464 -1.3512
 3365SOL     OW13592   9.033   5.336   7.583 -0.0440 -0.0248 -0.6905
 3365SOL    HW113593   8.963   5.275   7.560 -0.0167 -0.1539 -0.4342
 3365SOL    HW213594   9.055   5.314   7.673  1.3327 -0.9697 -1.2231
 3366SOL     OW13595   5.414   6.131   8.258 -0.4747 -0.2633  0.1912
 3366SOL    HW113596   5.463   6.152   8.337 -0.6164  0.5091  0.0888
 3366SOL    HW213597   5.323   6.148   8.281 -0.3263  2.8438 -0.9205
 3367SOL     OW13598   7.597   6.601   2.677  0.0769 -0.1831  0.1435
 3367SOL    HW113599   7.593   6.656   2.598 -0.6916  1.9074  1.5538
 3367SOL    HW213600   7.511   6.610   2.717  0.7346 -0.4709  1.6899
 3368SOL     OW13601   0.756   4.762   0.298  0.5307  0.2933 -0.2767
 3368SOL    HW113602   0.755   4.788   0.205  0.3262  0.9206 -0.1028
 3368SOL    HW213603   0.801   4.834   0.342  2.9274 -1.1322 -0.2092
 3369SOL     OW13604   8.412   7.450  10.773  0.4208 -0.0366 -0.5751
 3369SOL    HW113605   8.462   7.517  10.727 -0.6515  1.8222  0.8119
 3369SOL    HW213606   8.479   7.396  10.815  1.3645  1.7184  0.3400
 3370SOL     OW13607  10.360   9.804   7.189  0.5588 -0.9539 -0.0027
 3370SOL    HW113608  10.332   9.733   7.131 -2.3424  1.7259 -2.2169
 3370SOL    HW213609  10.294   9.805   7.258 -0.5408  0.6101 -1.0049
 3371SOL     OW13610   6.800   5.187   1.507  0.0256  0.4168  0.4218
 3371SOL    HW113611   6.805   5.214   1.415 -2.5092 -1.8655 -0.5172
 3371SOL    HW213612   6.812   5.268   1.557  1.9650  1.6583 -1.8260
 3372SOL     OW13613   3.519   8.391   1.715 -0.3367  0.1670 -0.0136
 3372SOL    HW113614   3.566   8.472   1.696 -0.4916  0.3108  0.2114
 3372SOL    HW213615   3.486   8.402   1.804  0.6204 -0.6170  0.4606
 3373SOL     OW13616  10.945   1.851   6.546  0.2416  0.1933  0.1049
 3373SOL    HW113617  10.894   1.832   6.467  2.1159  0.9957 -1.3754
 3373SOL    HW213618  10.916   1.786   6.609 -4.0236  1.7624  0.0891
 3374SOL     OW13619  10.880  11.005   2.689  0.2597  0.0531  0.7386
 3374SOL    HW113620  10.930  10.988   2.769 -0.6530 -0.6899  1.1736
 3374SOL    HW213621  10.840  10.921   2.667 -0.6199  0.5676  0.2925
 3375SOL     OW13622   0.127   5.449   0.664  0.6420  0.4878  0.0589
 3375SOL    HW113623   0.199   5.412   0.613 -0.4817 -1.3403 -0.2980
 3375SOL    HW213624   0.070   5.374   0.683 -0.9253  1.7885  0.7446
 3376SOL     OW13625   1.957   9.256   0.574  0.1055 -0.2612 -0.0048
 3376SOL    HW113626   1.888   9.241   0.639  0.8625  0.1598  0.9203
 3376SOL    HW213627   1.966   9.173   0.528 -0.1761 -0.6800  0.6863
 3377SOL     OW13628   5.789   9.832  10.977 -0.3225  0.2128 -0.2392
 3377SOL    HW113629   5.779   9.747  10.935  2.0627 -2.7729  4.3868
 3377SOL    HW213630   5.883   9.850  10.971 -0.4563  1.3867  0.7854
 3378SOL     OW13631   8.661   1.306   0.978 -0.2792 -0.0079  0.1666
 3378SOL    HW113632   8.607   1.364   1.031 -0.2319  0.2030 -0.0103
 3378SOL    HW213633   8.662   1.347   0.891 -0.8197 -0.6444 -0.1489
 3379SOL     OW13634  10.013   6.491   5.503  0.3232 -0.0984 -0.0927
 3379SOL    HW113635  10.046   6.502   5.592 -0.9565 -0.7950  0.5023
 3379SOL    HW213636  10.036   6.401   5.481 -0.0006 -0.1673 -0.1627
 3380SOL     OW13637   4.734   5.917   3.778  0.0614 -0.0874  0.2555
 3380SOL    HW113638   4.643   5.898   3.757  0.7418 -2.2447 -1.0735
 3380SOL    HW213639   4.753   5.863   3.855  0.6417 -0.9550 -0.4763
 3381SOL     OW13640   4.478   2.018   4.630 -0.2363  0.2365  0.0209
 3381SOL    HW113641   4.497   2.110   4.613  3.6844 -0.5624 -0.7473
 3381SOL    HW213642   4.474   1.978   4.544 -0.0751 -0.6127  0.3954
 3382SOL     OW13643   8.912   5.803   1.025  0.2341  0.5899  0.1135
 3382SOL    HW113644   8.828   5.778   0.986 -0.0647 -0.3303  1.2839
 3382SOL    HW213645   8.964   5.835   0.952 -0.6419 -0.1873 -0.8744
 3383SOL     OW13646   7.354  10.139   0.342 -0.8355 -0.0911  0.1254
 3383SOL    HW113647   7.292  10.066   0.334 -2.4239  1.3112 -1.3199
 3383SOL    HW213648   7.386  10.152   0.253  1.4724 -0.6567  0.8172
 3384SOL     OW13649   9.865   7.750   8.047  0.0537 -0.4533  0.2334
 3384SOL    HW113650   9.953   7.735   8.081  1.1481 -1.0252 -2.5730
 3384SOL    HW213651   9.878   7.808   7.972 -2.1737  0.6390  0.6314
 3385SOL     OW13652   9.435  10.853   5.169 -0.1121  0.1605  0.0517
 3385SOL    HW113653   9.352  10.808   5.179 -0.5063  0.5091 -1.4618
 3385SOL    HW213654   9.422  10.915   5.097  1.7447 -0.5082 -0.9349
 3386SOL     OW13655   9.969   9.129   0.288 -0.0775  0.3300 -0.4685
 3386SOL    HW113656  10.024   9.139   0.365 -0.1831 -0.6984 -0.2448
 3386SOL    HW213657  10.016   9.174   0.218 -0.4271  2.1219  0.3726
 3387SOL     OW13658   9.668   8.134   9.935  0.1612  0.6139  0.0274
 3387SOL    HW113659   9.749   8.114   9.981  0.1715  0.7900  0.0861
 3387SOL    HW213660   9.635   8.049   9.906  1.1904  0.6720 -1.4009
 3388SOL     OW13661  10.926   6.816   5.935 -0.7035 -0.5377 -0.4572
 3388SOL    HW113662  10.876   6.769   5.869  1.3331 -1.1754 -1.6254
 3388SOL    HW213663  10.982   6.749   5.975 -2.0494 -0.2280  2.1546
 3389SOL     OW13664   6.401   4.220   5.817  0.3021 -0.2423  0.1111
 3389SOL    HW113665   6.327   4.188   5.765  1.2768  1.0062 -2.1939
 3389SOL    HW213666   6.369   4.301   5.856  0.0501 -0.3767  0.1866
 3390SOL     OW13667   6.219   4.812   4.627  0.6189 -0.0673  0.1677
 3390SOL    HW113668   6.180   4.894   4.596  1.5302  0.3338  0.0456
 3390SOL    HW213669   6.310   4.834   4.646  1.3326 -1.4020 -1.3915
 3391SOL     OW13670   2.778   0.526   3.643  0.1303  0.4748 -0.2562
 3391SOL    HW113671   2.713   0.485   3.699  0.3464 -1.0624 -1.0759
 3391SOL    HW213672   2.861   0.490   3.672  0.4387  1.0723 -0.3797
 3392SOL     OW13673   1.098   7.948   3.288 -0.0992  0.4393  0.1081
 3392SOL    HW113674   1.136   7.882   3.346  1.6863  1.6173  0.3580
 3392SOL    HW213675   1.054   7.898   3.220 -1.1879 -0.9799  1.7697
 3393SOL     OW13676   3.502  10.286   1.345 -0.7414 -0.2584  0.3787
 3393SOL    HW113677   3.520  10.307   1.436 -2.9118 -1.3942  1.1457
 3393SOL    HW213678   3.560  10.212   1.325  0.1506  0.3658  0.6475
 3394SOL     OW13679   5.361   1.859   2.809  0.9266 -0.1257 -0.2228
 3394SOL    HW113680   5.446   1.821   2.830  0.6971 -0.6710 -0.2705
 3394SOL    HW213681   5.373   1.897   2.721  0.9689 -0.6666 -0.4528
 3395SOL     OW13682   3.117   5.659   6.932  0.0873  0.0987  0.6510
 3395SOL    HW113683   3.027   5.628   6.933  0.3700 -0.8182  2.2710
 3395SOL    HW213684   3.112   5.747   6.896 -1.1455 -0.7110 -1.3280
 3396SOL     OW13685   3.270   7.082   6.565  0.3230 -0.1037 -0.3238
 3396SOL    HW113686   3.187   7.046   6.596 -0.9930  1.3340 -1.9188
 3396SOL    HW213687   3.308   7.013   6.511  0.5223 -1.0116  0.9453
 3397SOL     OW13688   7.128   4.111   6.026  0.0838  0.5254 -0.7496
 3397SOL    HW113689   7.152   4.042   5.965 -0.3099  0.9726 -1.4316
 3397SOL    HW213690   7.077   4.173   5.973  2.2506  2.4645 -0.7317
 3398SOL     OW13691   3.324   8.296   9.031  0.8457 -0.6457 -0.3474
 3398SOL    HW113692   3.251   8.325   8.977 -0.2903 -1.8476  0.4616
 3398SOL    HW213693   3.396   8.353   9.007 -0.5729  1.1185 -0.6198
 3399SOL     OW13694   5.071   7.203   6.086  0.0386  0.0111  0.1788
 3399SOL    HW113695   4.980   7.177   6.105  0.3119 -1.4254 -0.3489
 3399SOL    HW213696   5.077   7.199   5.991 -0.4227  4.0460 -0.1842
 3400SOL     OW13697   5.898   9.866   5.607 -0.1725  0.2487 -0.1498
 3400SOL    HW113698   5.931   9.777   5.621 -0.3371  0.2440  0.2183
 3400SOL    HW213699   5.861   9.892   5.692  0.8291  1.0723  0.0614
 3401SOL     OW13700   3.829   6.570   7.285  0.0512  0.1744 -0.0391
 3401SOL    HW113701   3.770   6.603   7.352  2.6089  0.3762  2.2906
 3401SOL    HW213702   3.875   6.497   7.326  0.2176 -1.1466 -2.3734
 3402SOL     OW13703   9.030   4.810   9.250 -0.1019  0.3120 -0.5178
 3402SOL    HW113704   9.000   4.773   9.333 -0.3406  0.4652 -0.5319
 3402SOL    HW213705   8.949   4.831   9.203  0.0161  1.4839 -0.2224
 3403SOL     OW13706   6.395   5.290   7.865  0.3630  0.2881  0.5312
 3403SOL    HW113707   6.445   5.257   7.940  0.3126 -0.2653  0.3314
 3403SOL    HW213708   6.408   5.223   7.798  1.8355  1.5881 -0.5647
 3404SOL     OW13709   1.186   8.581  10.511 -0.1890 -0.0500  0.0229
 3404SOL    HW113710   1.128   8.646  10.471  0.8035  1.4763  0.9418
 3404SOL    HW213711   1.274   8.616  10.496  0.2596  0.4347  3.1188
 3405SOL     OW13712   4.260   4.128   6.118  0.0801  0.1276 -0.1097
 3405SOL    HW113713   4.181   4.083   6.090  1.1348 -1.3723 -0.7954
 3405SOL    HW213714   4.311   4.140   6.038  0.8597  0.4405  0.4167
 3406SOL     OW13715   7.788   8.281   3.764  0.0202 -0.3228 -0.2137
 3406SOL    HW113716   7.855   8.348   3.784 -0.3190  0.1552 -0.6486
 3406SOL    HW213717   7.782   8.230   3.844  1.1819 -0.6126 -0.2884
 3407SOL     OW13718   1.955   3.764   0.423 -0.0995 -0.1215  0.1540
 3407SOL    HW113719   1.861   3.769   0.407 -0.0663 -2.0329 -0.9584
 3407SOL    HW213720   1.963   3.713   0.504 -0.0332 -2.3152 -1.1558
 3408SOL     OW13721   8.892   5.170   9.381 -0.0142  0.1349 -0.0841
 3408SOL    HW113722   8.888   5.265   9.397 -0.5138  0.5354 -2.2200
 3408SOL    HW213723   8.800   5.142   9.380  0.1160 -0.3071  0.1361
 3409SOL     OW13724   7.320   7.891   5.693  0.2150 -0.3682  0.3976
 3409SOL    HW113725   7.240   7.944   5.695  0.1859 -0.3971  0.1082
 3409SOL    HW213726   7.341   7.876   5.785 -0.5372 -0.9926  0.4778
 3410SOL     OW13727   7.888   7.836   0.664  0.0051  0.3214  0.2262
 3410SOL    HW113728   7.901   7.741   0.661 -0.8564  0.2041  0.0000
 3410SOL    HW213729   7.833   7.850   0.741 -0.1468  0.6001  0.0677
 3411SOL     OW13730   0.771   6.545   4.680  0.2456  0.1413 -0.1119
 3411SOL    HW113731   0.715   6.515   4.608  1.3886 -0.5702 -0.7267
 3411SOL    HW213732   0.855   6.502   4.665  0.5623  0.1045  1.5706
 3412SOL     OW13733   6.057  10.323  10.169  0.1363  0.0521  0.1351
 3412SOL    HW113734   6.062  10.353  10.260 -0.5978  0.0176  0.1908
 3412SOL    HW213735   6.118  10.381  10.122  0.9299 -0.2781  0.7242
 3413SOL     OW13736   0.366   6.470   0.086  0.2052 -0.6557 -0.2723
 3413SOL    HW113737   0.398   6.385   0.056  1.9423 -0.7548  1.6371
 3413SOL    HW213738   0.426   6.534   0.045 -1.9456 -0.1093 -2.8707
 3414SOL     OW13739   5.787   3.433   0.168 -0.3293 -0.1301 -0.1084
 3414SOL    HW113740   5.757   3.344   0.184 -0.2149 -0.1985 -0.2796
 3414SOL    HW213741   5.881   3.430   0.186 -0.0447 -0.3907 -1.5566
 3415SOL     OW13742   4.629   9.668   1.552 -0.1882  0.4504 -0.3107
 3415SOL    HW113743   4.550   9.636   1.508 -1.3470 -0.0717  1.9841
 3415SOL    HW213744   4.613   9.762   1.565  0.1755  0.6145 -0.9904
 3416SOL     OW13745   2.286   6.200   3.130 -0.1443  0.0312  0.1528
 3416SOL    HW113746   2.369   6.170   3.094  0.0696 -0.2877  0.8796
 3416SOL    HW213747   2.309   6.229   3.219 -0.3776  2.1079 -0.4007
 3417SOL     OW13748   5.276   1.584   8.133 -0.0241 -0.4529 -0.3006
 3417SOL    HW113749   5.217   1.533   8.078 -0.0176 -1.1636  0.3450
 3417SOL    HW213750   5.297   1.662   8.080 -1.1066 -0.4518 -0.7441
 3418SOL     OW13751   6.386   1.520   8.231  0.3074  0.0507 -0.0292
 3418SOL    HW113752   6.413   1.502   8.321 -0.3457  1.6666  0.5332
 3418SOL    HW213753   6.467   1.513   8.180  0.6576 -1.0335  0.6364
 3419SOL     OW13754   9.197   0.750   7.139 -0.2689  0.8351  0.2588
 3419SOL    HW113755   9.131   0.716   7.079 -0.6571  0.1924  1.0385
 3419SOL    HW213756   9.148   0.778   7.216  0.4847 -1.1864  1.5388
 3420SOL     OW13757   0.938  10.028   9.216  0.0263 -0.3413  0.7361
 3420SOL    HW113758   0.891  10.064   9.291 -1.1419  1.8300 -0.9271
 3420SOL    HW213759   1.010  10.089   9.201 -1.1182  0.5889 -1.2687
 3421SOL     OW13760   9.441   8.476   2.344  0.0151 -0.1661  0.3598
 3421SOL    HW113761   9.502   8.484   2.270 -1.1178  1.8652 -0.4240
 3421SOL    HW213762   9.498   8.460   2.420  1.3847  0.0060 -0.5849
 3422SOL     OW13763   9.862   0.615   8.893  0.2807  0.2052 -0.5127
 3422SOL    HW113764   9.888   0.540   8.839  0.0740  0.5830 -1.1536
 3422SOL    HW213765   9.936   0.675   8.889 -0.2210  0.8038 -1.4577
 3423SOL     OW13766   5.025   3.454   4.808 -0.5468 -0.1778 -0.1268
 3423SOL    HW113767   5.082   3.404   4.750  0.2861  0.3661  0.2020
 3423SOL    HW213768   5.085   3.500   4.867 -1.2731  1.1546 -0.3743
 3424SOL     OW13769   8.979  10.860   4.414  0.1674  0.7272 -0.2327
 3424SOL    HW113770   8.952  10.778   4.372 -1.6684  0.5302  1.2025
 3424SOL    HW213771   9.015  10.913   4.343 -1.7228 -0.0306 -1.8450
 3425SOL     OW13772  10.664   7.878   7.247  0.1979 -0.5221 -0.5533
 3425SOL    HW113773  10.587   7.853   7.196 -0.1003 -1.7983  0.4405
 3425SOL    HW213774  10.701   7.953   7.201 -1.8317  0.3444 -0.8650
 3426SOL     OW13775   1.408  10.778   5.539  0.4385 -0.4671  0.3297
 3426SOL    HW113776   1.426  10.684   5.538  0.0080 -0.5648 -1.3951
 3426SOL    HW213777   1.457  10.811   5.614 -0.4843 -2.2618  1.8049
 3427SOL     OW13778   3.290   6.864   8.143 -0.6279  0.4337 -0.1154
 3427SOL    HW113779   3.255   6.942   8.187 -1.3129 -0.4582  0.9903
 3427SOL    HW213780   3.380   6.857   8.174 -0.4070  1.0702 -0.6145
 3428SOL     OW13781   8.440   6.504  10.050 -0.3273 -0.5594  0.9828
 3428SOL    HW113782   8.471   6.452   9.976 -1.7050 -0.4891  0.3247
 3428SOL    HW213783   8.470   6.456  10.128  1.0314 -0.6935  0.3946
 3429SOL     OW13784   1.044   1.415   3.427  0.6482  0.2036 -0.0849
 3429SOL    HW113785   1.119   1.362   3.401 -0.2039 -0.6702 -0.8228
 3429SOL    HW213786   1.080   1.480   3.488  2.0361 -0.0332 -0.6264
 3430SOL     OW13787   5.467   1.621   6.111  0.3058 -0.2900 -0.4111
 3430SOL    HW113788   5.525   1.618   6.186  2.1943 -1.0638 -1.8159
 3430SOL    HW213789   5.463   1.714   6.087 -2.4297  0.3767  2.0988
 3431SOL     OW13790   6.605   2.878   8.539  0.1128  0.1223  0.1089
 3431SOL    HW113791   6.601   2.952   8.478  0.1839 -0.5753 -0.7538
 3431SOL    HW213792   6.546   2.903   8.611 -0.2654  0.7879 -0.4242
 3432SOL     OW13793   3.211   1.884  10.405  0.5653 -0.5980 -0.5384
 3432SOL    HW113794   3.210   1.820  10.476 -2.2552 -2.0141 -1.7044
 3432SOL    HW213795   3.155   1.846  10.338 -0.6912  2.7821 -1.6148
 3433SOL     OW13796  10.407  10.965   5.005 -0.0658  0.2953  0.4557
 3433SOL    HW113797  10.470  10.893   5.008  0.7357  0.9303 -0.7994
 3433SOL    HW213798  10.454  11.040   5.040 -0.1292  0.7704 -0.4654
 3434SOL     OW13799   1.452   6.375   0.329  0.3395  0.6763 -0.0368
 3434SOL    HW113800   1.434   6.319   0.405 -0.4923 -1.3940 -1.6633
 3434SOL    HW213801   1.380   6.439   0.329  0.3333  0.6794  0.8982
 3435SOL     OW13802   7.525  10.550   5.649  0.1023  0.3471  0.0194
 3435SOL    HW113803   7.598  10.528   5.707 -0.6213 -0.6898  0.5504
 3435SOL    HW213804   7.522  10.646   5.651  1.0841  0.3875  0.4294
 3436SOL     OW13805   9.271   9.255   3.649 -0.2575  0.3500 -0.0565
 3436SOL    HW113806   9.357   9.296   3.643 -0.2599  0.4578  0.5895
 3436SOL    HW213807   9.276   9.180   3.589  1.6057 -1.9815  2.7576
 3437SOL     OW13808   4.137   8.748   8.032 -0.4035 -0.8900 -0.7646
 3437SOL    HW113809   4.170   8.675   8.083 -1.8028 -0.6945  0.5023
 3437SOL    HW213810   4.214   8.784   7.987  0.8356 -1.2355  0.9950
 3438SOL     OW13811   4.457  10.221  10.694 -0.2589 -0.2023  0.1917
 3438SOL    HW113812   4.459  10.307  10.653  1.3279  0.9442  2.4944
 3438SOL    HW213813   4.366  10.194  10.687 -0.5891  1.1414 -1.5328
 3439SOL     OW13814   4.761  10.404   1.224 -0.0556 -0.0934 -0.3534
 3439SOL    HW113815   4.757  10.455   1.143  0.7531 -1.1300 -1.0737
 3439SOL    HW213816   4.762  10.469   1.294 -0.0252  0.8399 -1.2045
 3440SOL     OW13817   6.518   1.188   3.193  0.3618 -0.0082 -0.1507
 3440SOL    HW113818   6.486   1.256   3.133  0.2996 -1.2640 -1.5994
 3440SOL    HW213819   6.521   1.231   3.279  1.0558  2.0451 -1.1386
 3441SOL     OW13820   4.941   8.638   0.462  0.5056 -0.5309  0.3220
 3441SOL    HW113821   4.934   8.566   0.400 -0.9825 -0.2781  0.1539
 3441SOL    HW213822   4.850   8.667   0.476  1.0721  1.4954  0.1577
 3442SOL     OW13823   7.160   7.011   3.676 -0.9233 -0.2192 -0.3394
 3442SOL    HW113824   7.095   6.964   3.623 -1.5410  1.6906 -1.3562
 3442SOL    HW213825   7.244   6.982   3.641 -1.3182  0.8069 -2.2470
 3443SOL     OW13826   2.165   8.790   0.955  0.2249 -0.1321  0.2694
 3443SOL    HW113827   2.157   8.826   1.043 -0.8679 -0.1314  0.1843
 3443SOL    HW213828   2.110   8.712   0.956 -1.2800  0.8629 -0.9115
 3444SOL     OW13829   8.712   6.167   7.223 -0.8996 -0.4177  0.3648
 3444SOL    HW113830   8.759   6.248   7.245  0.2711 -0.4882 -1.7010
 3444SOL    HW213831   8.665   6.145   7.304  1.2206  0.6017  1.9981
 3445SOL     OW13832   2.983   2.474  10.689 -0.2352 -0.1451 -0.3140
 3445SOL    HW113833   3.072   2.439  10.695 -0.2159  0.0331  0.5183
 3445SOL    HW213834   2.993   2.569  10.695 -0.5209 -0.1505  0.2694
 3446SOL     OW13835   7.330   4.733   7.346  0.3965 -0.5103  0.0216
 3446SOL    HW113836   7.409   4.774   7.381  0.6147  0.0076 -1.0411
 3446SOL    HW213837   7.304   4.789   7.273 -0.9831 -0.6477  0.3788
 3447SOL     OW13838   2.704   9.325   2.536 -0.2076  0.3097 -0.0094
 3447SOL    HW113839   2.722   9.273   2.457 -1.0323 -0.0357  0.0225
 3447SOL    HW213840   2.750   9.407   2.521 -0.2607  0.2057 -0.8111
 3448SOL     OW13841   3.639   4.713   4.239  0.8198  0.0378  0.1461
 3448SOL    HW113842   3.653   4.777   4.309  3.0338  0.3231 -0.4783
 3448SOL    HW213843   3.662   4.629   4.279  1.9357  0.1828 -0.1339
 3449SOL     OW13844   2.244   8.898   9.743 -0.0107 -0.1347 -0.0569
 3449SOL    HW113845   2.265   8.900   9.650 -0.6147  0.2666 -0.1869
 3449SOL    HW213846   2.248   8.989   9.771 -0.6227 -0.1580  0.1258
 3450SOL     OW13847   8.749   1.458   9.699  0.5432  0.3832  0.4258
 3450SOL    HW113848   8.674   1.512   9.674  1.6558  2.9514  2.2087
 3450SOL    HW213849   8.821   1.491   9.647  0.6325 -1.7305 -0.9001
 3451SOL     OW13850   7.375   4.864   9.629  0.1170  0.4220 -0.3208
 3451SOL    HW113851   7.349   4.785   9.676 -1.0244  0.5972 -0.6224
 3451SOL    HW213852   7.457   4.841   9.586  1.1188  0.1963  1.5830
 3452SOL     OW13853   7.958   1.020   9.993 -0.9673  0.0310 -0.3222
 3452SOL    HW113854   8.045   0.986  10.015 -0.9402 -2.1589 -3.2832
 3452SOL    HW213855   7.949   1.099  10.047  2.1701 -0.5307  1.2404
 3453SOL     OW13856   6.857   4.990   1.688 -0.1212 -0.0558  0.6539
 3453SOL    HW113857   6.851   5.060   1.623 -0.2256  1.7130  2.4727
 3453SOL    HW213858   6.852   5.035   1.772  2.0870 -2.0228  1.9611
 3454SOL     OW13859   0.567   4.626   1.851 -0.4155  0.2032 -0.5408
 3454SOL    HW113860   0.521   4.601   1.931 -1.1093 -2.1421 -1.5713
 3454SOL    HW213861   0.513   4.695   1.813  0.6029  2.2822  1.5702
 3455SOL     OW13862   0.674   3.877   8.009  0.6523 -0.0429 -0.3916
 3455SOL    HW113863   0.619   3.953   8.024 -1.2399 -1.5475  0.8583
 3455SOL    HW213864   0.660   3.855   7.917 -0.1943  0.0837 -0.2984
 3456SOL     OW13865   8.479   7.232   3.410 -0.7619  0.1711 -0.1946
 3456SOL    HW113866   8.506   7.284   3.486  1.0874  1.0063 -1.3547
 3456SOL    HW213867   8.455   7.297   3.344 -0.3582 -0.4724 -0.9978
 3457SOL     OW13868   8.314   0.406   0.818  0.0232  0.1764 -0.9393
 3457SOL    HW113869   8.331   0.500   0.825 -0.1439  0.0977  1.1446
 3457SOL    HW213870   8.243   0.399   0.755 -0.6037  1.5396 -0.4169
 3458SOL     OW13871   2.295   8.086   5.139 -0.6603 -1.1229 -0.6057
 3458SOL    HW113872   2.315   8.016   5.201 -2.9395 -1.6188 -0.3600
 3458SOL    HW213873   2.220   8.131   5.178 -0.9071 -0.2311 -2.0746
 3459SOL     OW13874   1.269   4.956   0.124 -0.1813 -0.0909 -0.0355
 3459SOL    HW113875   1.209   4.993   0.188 -1.6450 -1.0493 -0.7858
 3459SOL    HW213876   1.321   5.030   0.093 -0.0033  0.5138  1.6464
 3460SOL     OW13877   7.331   0.658   8.136 -0.0784  0.2255 -0.1421
 3460SOL    HW113878   7.387   0.646   8.213  1.5150 -0.4123 -1.3129
 3460SOL    HW213879   7.354   0.584   8.079 -0.6135  1.0988 -1.5533
 3461SOL     OW13880   8.043   0.643  10.990 -0.0466 -0.8450  0.1886
 3461SOL    HW113881   8.102   0.715  11.013 -1.8978  1.1965 -1.0767
 3461SOL    HW213882   8.088   0.564  11.021  2.3365  0.7776  1.1328
 3462SOL     OW13883  10.424   7.354   4.591  0.0963 -0.4548  0.5775
 3462SOL    HW113884  10.476   7.284   4.630 -0.4204 -0.1656  1.8063
 3462SOL    HW213885  10.395   7.408   4.664  1.4469  1.7590 -0.4085
 3463SOL     OW13886   0.493   6.261   1.948  0.6464  0.1497 -0.2212
 3463SOL    HW113887   0.426   6.195   1.959 -0.3115  1.1746  0.2986
 3463SOL    HW213888   0.447   6.337   1.913  1.5151  0.8962  0.2014
 3464SOL     OW13889  10.641   8.822   7.225 -0.4319 -0.2084 -0.1242
 3464SOL    HW113890  10.679   8.909   7.223  0.4205 -0.5259  0.9162
 3464SOL    HW213891  10.714   8.763   7.205 -0.6787 -0.7540  0.5311
 3465SOL     OW13892   0.270  10.492   1.897  0.9416  0.6344 -0.0461
 3465SOL    HW113893   0.335  10.531   1.956  0.9255  1.4011 -0.5142
 3465SOL    HW213894   0.187  10.525   1.929  0.3662 -2.7230  2.4537
 3466SOL     OW13895   6.183  10.082  10.065  0.3029  0.1266  0.8043
 3466SOL    HW113896   6.275  10.103  10.047 -0.1441  0.5226 -1.3815
 3466SOL    HW213897   6.151  10.158  10.114  0.4881  1.3877 -0.9043
 3467SOL     OW13898   5.588   2.682   4.582 -0.2939  0.2058  0.4790
 3467SOL    HW113899   5.524   2.749   4.560 -0.1627 -0.3150 -1.7222
 3467SOL    HW213900   5.540   2.617   4.633 -0.8067  1.1718  1.2361
 3468SOL     OW13901   2.266   5.328   0.129 -0.3787 -0.7772 -0.0286
 3468SOL    HW113902   2.201   5.392   0.159  1.3814  0.6366  0.9712
 3468SOL    HW213903   2.230   5.294   0.048 -1.7910  0.8811 -0.1637
 3469SOL     OW13904  10.503   4.519  10.644  0.2871 -0.7051 -0.0911
 3469SOL    HW113905  10.414   4.494  10.619 -0.1437  0.9024 -0.2668
 3469SOL    HW213906  10.558   4.485  10.574 -0.3049 -0.8487 -0.4921
 3470SOL     OW13907   6.399   8.972   7.240 -0.2195 -0.2354 -0.1206
 3470SOL    HW113908   6.312   8.939   7.264 -0.1584 -0.9856 -0.8884
 3470SOL    HW213909   6.458   8.931   7.302 -0.3360 -0.2499 -0.0189
 3471SOL     OW13910   0.195   1.704   4.877 -0.1035  0.9960  0.6747
 3471SOL    HW113911   0.242   1.780   4.909  2.0477 -0.8367  2.1787
 3471SOL    HW213912   0.148   1.670   4.953  0.1896 -0.0190  0.4218
 3472SOL     OW13913   3.520   6.991  10.561  0.2053 -0.4090 -0.0221
 3472SOL    HW113914   3.598   6.935  10.559 -1.3356 -2.6548 -1.4273
 3472SOL    HW213915   3.549   7.070  10.607  3.0277 -1.5364  0.3563
 3473SOL     OW13916  10.884   0.156   5.753  0.3731 -0.0107  0.4703
 3473SOL    HW113917  10.803   0.196   5.784 -0.1974 -1.1572  0.5159
 3473SOL    HW213918  10.876   0.064   5.777  0.1635 -0.8629 -2.4729
 3474SOL     OW13919   4.943   6.148   9.165  0.0105  0.2381 -0.2680
 3474SOL    HW113920   4.890   6.079   9.127  0.3775 -1.1487  1.5746
 3474SOL    HW213921   4.898   6.170   9.247  1.1936  0.4278  0.3546
 3475SOL     OW13922   6.897   9.137   1.269 -0.6828  0.6835  0.5799
 3475SOL    HW113923   6.906   9.193   1.192  0.8718  0.1668  0.3521
 3475SOL    HW213924   6.929   9.052   1.241  3.6764  1.3297  2.6990
 3476SOL     OW13925   1.848   4.752  10.558 -0.1454  1.0406 -0.0816
 3476SOL    HW113926   1.829   4.677  10.502 -0.8966  2.3706 -1.6815
 3476SOL    HW213927   1.885   4.818  10.500  0.4044  1.9723  1.2655
 3477SOL     OW13928   0.738   5.463   0.928  1.0331 -0.1343  0.5817
 3477SOL    HW113929   0.744   5.504   1.015 -1.2708  0.6678  0.4259
 3477SOL    HW213930   0.667   5.400   0.936  0.4527  0.3164 -0.8635
 3478SOL     OW13931   8.526   1.837   4.033 -0.1053 -0.2554 -0.1457
 3478SOL    HW113932   8.596   1.881   4.081 -0.3063  1.6054 -1.4399
 3478SOL    HW213933   8.449   1.893   4.045 -0.7825 -1.0538 -0.6104
 3479SOL     OW13934   6.966   5.977   8.969  0.7524  0.2846 -0.1883
 3479SOL    HW113935   6.928   6.045   9.024  2.5382  1.9248 -0.8445
 3479SOL    HW213936   7.042   6.019   8.928  2.7147 -2.4756  0.3289
 3480SOL     OW13937   1.509   6.022   9.442  0.0033 -0.2455 -0.4163
 3480SOL    HW113938   1.603   6.039   9.453  0.2291 -1.8089  0.2723
 3480SOL    HW213939   1.503   5.969   9.362 -0.2701 -0.3412 -0.3333
 3481SOL     OW13940   3.483   6.622   3.947  0.3252 -0.4643 -0.3936
 3481SOL    HW113941   3.475   6.667   3.863 -2.3137  0.9907  0.5362
 3481SOL    HW213942   3.439   6.538   3.933  1.0355 -0.7906 -0.7726
 3482SOL     OW13943  10.504   2.701   7.885 -0.1417  0.3202  0.4991
 3482SOL    HW113944  10.418   2.731   7.914 -0.1999  0.7491 -0.1145
 3482SOL    HW213945  10.543   2.777   7.843 -0.7794 -0.7413 -2.1779
 3483SOL     OW13946   4.711   6.625   2.688 -0.7973 -0.3391 -0.4833
 3483SOL    HW113947   4.686   6.552   2.631 -2.0473  0.2982 -0.7601
 3483SOL    HW213948   4.726   6.698   2.628  1.8566 -0.6672 -0.3568
 3484SOL     OW13949   8.900  10.770   8.292 -0.0717 -0.1241 -0.1714
 3484SOL    HW113950   8.879  10.691   8.341  1.2609  0.2886  1.1568
 3484SOL    HW213951   8.824  10.827   8.304 -0.8287 -0.9967 -0.7297
 3485SOL     OW13952   3.005   0.246   1.827  0.1960 -0.6192 -0.6428
 3485SOL    HW113953   2.958   0.225   1.908 -0.0212 -0.1313 -0.6437
 3485SOL    HW213954   3.087   0.286   1.857 -0.3896  0.6412 -0.6730
 3486SOL     OW13955   6.191   8.087   7.385 -0.1854  0.5866  0.2206
 3486SOL    HW113956   6.152   8.063   7.469  1.3780  2.3855  1.5413
 3486SOL    HW213957   6.231   8.006   7.353 -0.2071  0.0338  1.5506
 3487SOL     OW13958   8.189   8.269   7.743 -0.0718 -0.2896  0.1851
 3487SOL    HW113959   8.148   8.340   7.791  0.1285  0.8326 -1.2499
 3487SOL    HW213960   8.269   8.249   7.793 -0.5207 -0.0465  1.0124
 3488SOL     OW13961   0.714   8.261   2.050  0.2477 -0.1859 -0.3100
 3488SOL    HW113962   0.624   8.245   2.078  0.2913  0.8808  0.4654
 3488SOL    HW213963   0.764   8.189   2.088 -0.2817 -0.8563 -0.8496
 3489SOL     OW13964   4.175   3.571   3.241  0.3757 -0.1171  0.3870
 3489SOL    HW113965   4.214   3.507   3.300  0.7610  0.6634  1.0055
 3489SOL    HW213966   4.091   3.534   3.217  1.3289 -1.6875 -0.7062
 3490SOL     OW13967   9.401   5.653   1.417  0.5481 -0.0478 -0.4242
 3490SOL    HW113968   9.368   5.732   1.460  0.2494 -0.6172  0.4164
 3490SOL    HW213969   9.434   5.599   1.488 -0.9929 -1.5100 -0.7662
 3491SOL     OW13970   5.649   2.152   4.280  0.1685  0.0362 -0.2295
 3491SOL    HW113971   5.713   2.208   4.235 -2.0144  1.5807 -1.5896
 3491SOL    HW213972   5.565   2.175   4.241 -1.3004 -1.7379  1.6604
 3492SOL     OW13973  10.865   2.579  10.643  0.0881 -0.2071  0.3185
 3492SOL    HW113974  10.944   2.620  10.679  0.2984  1.9085 -2.2540
 3492SOL    HW213975  10.898   2.518  10.576 -0.4043 -0.1083 -0.0232
 3493SOL     OW13976   7.921   3.546   8.557 -0.1151  0.0394  0.0328
 3493SOL    HW113977   7.883   3.634   8.557 -1.8002 -0.6368  0.7000
 3493SOL    HW213978   7.994   3.551   8.618  0.2782  1.1452 -0.5028
 3494SOL     OW13979   9.985   9.162   2.883 -0.3250 -0.1130 -0.0837
 3494SOL    HW113980   9.964   9.148   2.976 -0.8158  1.3611  0.0528
 3494SOL    HW213981   9.902   9.152   2.838 -0.4225  0.8777 -0.1411
 3495SOL     OW13982   4.008   2.856   5.400  0.1474 -0.5771  0.6524
 3495SOL    HW113983   4.040   2.832   5.313 -0.2988 -2.3477  0.9428
 3495SOL    HW213984   3.949   2.929   5.384  1.8579  0.6853 -0.2396
 3496SOL     OW13985   8.602   6.205   1.026  0.6671 -0.1210  0.2143
 3496SOL    HW113986   8.608   6.111   1.047  1.1249  0.1363  1.2699
 3496SOL    HW213987   8.534   6.238   1.083  0.0786  0.0876 -0.5934
 3497SOL     OW13988   9.337   9.042   4.073  0.0373  0.7006 -0.3092
 3497SOL    HW113989   9.280   9.063   4.147 -0.8378 -0.7963 -0.5312
 3497SOL    HW213990   9.302   9.093   4.000  0.3862  1.5230  0.0819
 3498SOL     OW13991   4.276   1.789   4.004 -0.4671  0.2134 -0.4330
 3498SOL    HW113992   4.296   1.733   4.079 -1.1071 -0.4674 -0.7544
 3498SOL    HW213993   4.309   1.741   3.928  0.8766  1.2481 -0.5534
 3499SOL     OW13994   4.917   8.310   3.231  0.4961  0.4551 -0.0636
 3499SOL    HW113995   4.895   8.264   3.312 -2.0659  2.6515  0.6268
 3499SOL    HW213996   4.834   8.317   3.184  1.0820  2.8077 -0.8979
 3500SOL     OW13997   3.125   6.192   8.246 -0.2973  0.3350 -0.6342
 3500SOL    HW113998   3.090   6.263   8.193 -1.7246 -1.2503 -1.9409
 3500SOL    HW213999   3.199   6.158   8.197 -0.0601  0.4637 -0.3668
 3501SOL     OW14000  10.806   0.027   7.105 -0.6957 -0.5694  0.0880
 3501SOL    HW114001  10.717   0.048   7.133 -1.0147  0.6767 -1.6758
 3501SOL    HW214002  10.844   0.112   7.082  0.2576 -1.2765 -1.0352
 3502SOL     OW14003   3.142  10.668   4.109 -0.0742 -0.1103 -0.0944
 3502SOL    HW114004   3.156  10.593   4.050 -1.3877 -0.4616 -0.0042
 3502SOL    HW214005   3.223  10.675   4.159  1.4337  0.7186 -2.4723
 3503SOL     OW14006  10.046   8.870   5.836 -0.3183 -0.0498  0.2850
 3503SOL    HW114007  10.124   8.857   5.783  0.7278  0.0233  1.7664
 3503SOL    HW214008  10.010   8.953   5.805  0.2837  0.0133 -0.2783
 3504SOL     OW14009   2.879   8.540  10.067 -0.5790 -0.2438 -0.3017
 3504SOL    HW114010   2.911   8.576  10.150 -1.8754  1.9489 -0.6654
 3504SOL    HW214011   2.839   8.457  10.090  0.0943 -0.2176  1.0777
 3505SOL     OW14012   1.947   7.555   1.844  0.3823 -0.4308 -0.3981
 3505SOL    HW114013   1.890   7.532   1.917  1.6261  2.0728  1.5109
 3505SOL    HW214014   1.905   7.631   1.803  1.0295 -0.1556 -0.5769
 3506SOL     OW14015   4.583  10.003   2.658  0.3263 -0.3973  0.2068
 3506SOL    HW114016   4.542   9.927   2.616  0.3976  0.0711 -0.7415
 3506SOL    HW214017   4.550  10.078   2.608  1.1946  0.0961  0.3596
 3507SOL     OW14018   3.044   5.964   1.254 -0.1070  0.0640 -0.1864
 3507SOL    HW114019   3.108   5.894   1.246  1.4796  1.2900  1.1093
 3507SOL    HW214020   3.046   5.989   1.346 -0.4237  1.9738 -0.6543
 3508SOL     OW14021   6.587   7.704   4.597 -0.3351 -0.0616 -1.0661
 3508SOL    HW114022   6.545   7.631   4.643  1.4084 -0.2919  0.2597
 3508SOL    HW214023   6.653   7.661   4.541  0.1037  0.4463 -0.9405
 3509SOL     OW14024   6.545  10.248   0.008 -0.5207  0.2466 -0.3555
 3509SOL    HW114025   6.506  10.336   0.008 -2.1008 -0.3729 -2.3898
 3509SOL    HW214026   6.532  10.217   0.097 -2.0896  1.2209 -0.1900
 3510SOL     OW14027   5.702   5.956   4.803  0.2799 -0.1865 -0.4465
 3510SOL    HW114028   5.649   5.920   4.874 -1.2739 -1.4456 -2.1372
 3510SOL    HW214029   5.643   6.014   4.756  1.2678  0.5967 -0.7670
 3511SOL     OW14030   4.678   4.806   3.819  0.4012 -0.0075 -0.5729
 3511SOL    HW114031   4.701   4.722   3.780 -0.0393  0.0564 -0.9799
 3511SOL    HW214032   4.591   4.826   3.784  0.8417  1.0140 -1.1268
 3512SOL     OW14033   3.421   8.477   0.067  0.4128 -0.0758  0.1663
 3512SOL    HW114034   3.348   8.508   0.121  1.8418  2.2585  0.9327
 3512SOL    HW214035   3.475   8.555   0.053  2.0318 -1.4096 -1.5635
 3513SOL     OW14036   7.660   6.367   5.359  0.3904 -0.0761 -0.0334
 3513SOL    HW114037   7.577   6.413   5.353  0.0741 -0.7933 -3.6039
 3513SOL    HW214038   7.642   6.289   5.411 -1.7499 -1.0987 -2.1198
 3514SOL     OW14039   2.680   1.092   0.729 -0.0995 -0.1079  0.3013
 3514SOL    HW114040   2.758   1.037   0.732  0.1427  0.2661  2.1111
 3514SOL    HW214041   2.713   1.182   0.738 -0.6248  0.2205 -0.8211
 3515SOL     OW14042   4.340   6.814   3.570  0.4748 -0.3429  0.2246
 3515SOL    HW114043   4.290   6.787   3.647  1.7300 -1.2574  0.7397
 3515SOL    HW214044   4.431   6.805   3.596  0.9256 -1.0044 -1.4886
 3516SOL     OW14045  11.003   4.705   4.001 -0.0817 -0.3571  0.1230
 3516SOL    HW114046  10.998   4.730   4.093  1.1968  1.6950 -0.3092
 3516SOL    HW214047  11.097   4.706   3.981 -0.1707 -2.6646 -0.7765
 3517SOL     OW14048   8.890   4.343   2.284 -0.2889 -0.3079 -0.1692
 3517SOL    HW114049   8.801   4.308   2.292 -0.3921  0.2290  1.3967
 3517SOL    HW214050   8.880   4.437   2.292  0.4880 -0.2937  0.8319
 3518SOL     OW14051   3.146   9.525   5.134 -0.2311  0.1748 -0.1408
 3518SOL    HW114052   3.201   9.512   5.056 -0.6404  0.9733 -0.5800
 3518SOL    HW214053   3.189   9.595   5.183  0.0922 -0.4112  0.4242
 3519SOL     OW14054   1.603  10.047   8.076  0.0266 -0.2786  0.0255
 3519SOL    HW114055   1.525  10.098   8.097  0.4072  0.3076  0.0597
 3519SOL    HW214056   1.639  10.090   7.998  0.2573 -0.6047 -0.0504
 3520SOL     OW14057   6.737   9.088   5.313  0.0759 -0.5585  0.2043
 3520SOL    HW114058   6.715   8.996   5.302  1.2845 -0.6932 -1.5851
 3520SOL    HW214059   6.670   9.135   5.262  0.7809 -0.6230 -0.8079
 3521SOL     OW14060   7.038   4.574   8.654  0.3692 -0.4814  0.3198
 3521SOL    HW114061   7.057   4.651   8.707  0.1862 -0.8408  0.9078
 3521SOL    HW214062   6.944   4.560   8.665  0.0039  0.3413 -1.3179
 3522SOL     OW14063   8.743   1.011   6.020  0.0238  0.0547  0.3376
 3522SOL    HW114064   8.812   1.004   6.085  0.8810 -0.7473 -0.6335
 3522SOL    HW214065   8.681   1.074   6.057  0.7183 -0.0493  1.7049
 3523SOL     OW14066   4.282   5.064   3.680 -0.0146  0.0100 -0.2983
 3523SOL    HW114067   4.300   5.146   3.727  2.8505  0.0121 -1.2288
 3523SOL    HW214068   4.258   5.002   3.749  2.3855  0.4557  1.0274
 3524SOL     OW14069   1.986   0.460   0.252 -0.6328  0.1709  0.0943
 3524SOL    HW114070   1.941   0.540   0.280 -0.9954 -0.4475  1.3706
 3524SOL    HW214071   1.917   0.394   0.246  0.1282 -1.0677  3.1434
 3525SOL     OW14072   9.918   5.436   7.277 -0.3384 -0.9794  0.0759
 3525SOL    HW114073   9.903   5.358   7.329 -0.2392 -0.5177  0.8124
 3525SOL    HW214074   9.837   5.486   7.284 -0.2717 -0.8463 -0.0835
 3526SOL     OW14075   7.881  10.093   6.354  0.2680 -0.3157 -0.0103
 3526SOL    HW114076   7.914  10.003   6.356 -0.7780 -0.7103  1.6061
 3526SOL    HW214077   7.906  10.129   6.439 -0.5869  0.4393 -0.0694
 3527SOL     OW14078   1.885   4.551   3.757  0.2004 -0.3557 -0.1852
 3527SOL    HW114079   1.936   4.546   3.838  0.6511  0.5198 -0.4040
 3527SOL    HW214080   1.922   4.626   3.711 -0.3250 -0.6048 -1.0185
 3528SOL     OW14081   1.542   3.989   4.565  0.0116 -0.1442 -0.0673
 3528SOL    HW114082   1.513   3.981   4.474 -0.0456 -0.1087 -0.0522
 3528SOL    HW214083   1.501   4.071   4.596 -0.8365 -0.6948  0.3132
 3529SOL     OW14084   8.277   7.911   4.493  0.3879  0.1162 -0.7550
 3529SOL    HW114085   8.305   7.976   4.557  0.7803  1.1541 -1.9326
 3529SOL    HW214086   8.275   7.829   4.541  0.7594  0.8441  0.5506
 3530SOL     OW14087   3.919   3.074   5.827 -0.6322  0.3300  0.1711
 3530SOL    HW114088   3.930   3.036   5.914  1.1030 -0.2413 -0.2620
 3530SOL    HW214089   3.956   3.162   5.834 -1.3482  0.6347  0.2351
 3531SOL     OW14090   4.588   6.762   3.639 -0.1942  0.1717  1.0035
 3531SOL    HW114091   4.594   6.667   3.631  1.4051  0.4044 -3.1295
 3531SOL    HW214092   4.676   6.789   3.667 -0.0218  0.5241  0.1360
 3532SOL     OW14093   8.570   5.800   1.591 -0.0986 -0.5967 -0.3053
 3532SOL    HW114094   8.526   5.820   1.509 -1.2838 -1.8722 -0.0063
 3532SOL    HW214095   8.634   5.871   1.601 -2.1762  1.4320 -0.6539
 3533SOL     OW14096   0.590   4.024   6.055  0.5635 -0.3044 -0.1170
 3533SOL    HW114097   0.505   4.014   6.097  0.0019  0.8473 -0.9171
 3533SOL    HW214098   0.603   3.942   6.006 -1.4941  0.5968 -2.3721
 3534SOL     OW14099   0.768   2.802   4.909 -0.1047  0.0120  1.2920
 3534SOL    HW114100   0.844   2.770   4.958  2.2082 -0.1913 -2.0972
 3534SOL    HW214101   0.734   2.724   4.864  1.1875  0.8975 -1.4665
 3535SOL     OW14102   7.026   7.823   4.462 -0.1938 -0.1743  0.6598
 3535SOL    HW114103   7.003   7.796   4.551  3.5029  0.0598  1.8498
 3535SOL    HW214104   7.017   7.743   4.410  1.5838 -1.4345  2.1751
 3536SOL     OW14105   0.103   2.481   4.704 -0.2017 -0.2702  0.3360
 3536SOL    HW114106   0.197   2.468   4.696 -0.3841 -1.4673 -0.0573
 3536SOL    HW214107   0.069   2.465   4.616 -0.5969  2.0687 -0.0141
 3537SOL     OW14108   5.338   5.797   9.959  0.1456 -0.2172 -0.1390
 3537SOL    HW114109   5.263   5.833  10.006  0.7409 -0.9070  1.3954
 3537SOL    HW214110   5.349   5.855   9.884 -1.9468 -0.1424 -0.4530
 3538SOL     OW14111   2.826   6.780  10.884  0.0675 -0.3447  0.1588
 3538SOL    HW114112   2.824   6.861  10.834 -0.4126  0.0770  0.8391
 3538SOL    HW214113   2.918   6.755  10.886  0.0098 -0.8689 -1.6868
 3539SOL     OW14114   5.278   2.786   3.366  0.2722 -0.4804  0.3787
 3539SOL    HW114115   5.187   2.767   3.389 -0.0352 -0.5973 -0.8712
 3539SOL    HW214116   5.330   2.729   3.423 -0.4779 -1.2598  0.2961
 3540SOL     OW14117   2.839  10.396   2.240 -0.6658 -0.7390 -0.6661
 3540SOL    HW114118   2.889  10.325   2.200  2.0050  0.6801 -0.0915
 3540SOL    HW214119   2.905  10.458   2.271 -2.7584  0.4591  1.7999
 3541SOL     OW14120   5.126   2.975   6.775 -0.1328 -0.2079 -0.6472
 3541SOL    HW114121   5.100   2.999   6.864  1.4078  1.6245 -0.6165
 3541SOL    HW214122   5.089   3.043   6.720  2.0017  0.8327 -0.9110
 3542SOL     OW14123   2.627   3.075   7.956 -0.2365 -0.5898  0.0498
 3542SOL    HW114124   2.710   3.120   7.970 -0.4586 -0.0609 -0.3149
 3542SOL    HW214125   2.639   3.027   7.874 -0.5357  0.0747 -0.3896
 3543SOL     OW14126   8.166   5.648   5.310 -0.1300 -0.1536 -0.0614
 3543SOL    HW114127   8.259   5.634   5.297  0.1371  2.0498 -0.8312
 3543SOL    HW214128   8.161   5.717   5.377 -1.0909  1.5304 -1.7773
 3544SOL     OW14129   4.356   7.202  10.024 -0.7511  0.0482 -0.4473
 3544SOL    HW114130   4.393   7.123   9.984  0.6398 -0.3206  1.4150
 3544SOL    HW214131   4.402   7.274   9.982 -0.0835 -0.2832 -0.3044
 3545SOL     OW14132   3.148   9.417   7.877  0.2187  0.1421  0.1099
 3545SOL    HW114133   3.158   9.323   7.862  1.6269  0.5908 -2.2827
 3545SOL    HW214134   3.236   9.452   7.870 -0.1803  1.5991  1.7444
 3546SOL     OW14135   4.524   2.525   9.636  0.0483  0.0114 -0.0753
 3546SOL    HW114136   4.559   2.545   9.723 -1.5940  1.7807  0.2304
 3546SOL    HW214137   4.569   2.444   9.611 -1.5620 -2.3289  3.6824
 3547SOL     OW14138   7.849   6.094   8.308  0.1699  0.0165  0.2048
 3547SOL    HW114139   7.858   6.186   8.284 -3.0008  0.2748 -0.4765
 3547SOL    HW214140   7.883   6.046   8.232 -2.6303  0.7906 -1.7462
 3548SOL     OW14141  10.846   8.501  10.499 -0.0210  0.3614 -0.9711
 3548SOL    HW114142  10.843   8.411  10.532 -0.8922  0.2439 -1.3556
 3548SOL    HW214143  10.930   8.506  10.454  0.9563  0.3578  0.7572
 3549SOL     OW14144   0.820   3.571   9.021 -0.0223  0.0571  0.2580
 3549SOL    HW114145   0.819   3.552   8.928 -1.2594 -1.3853  0.5324
 3549SOL    HW214146   0.896   3.523   9.055 -0.6011 -0.8960  0.2484
 3550SOL     OW14147   2.607   2.552   6.337  0.6019  0.0290  0.8403
 3550SOL    HW114148   2.697   2.576   6.359  1.2336 -1.1132 -0.3253
 3550SOL    HW214149   2.599   2.574   6.244  0.5446 -2.1810  0.2653
 3551SOL     OW14150   8.440   0.137   3.548 -0.0618 -0.1698 -0.6273
 3551SOL    HW114151   8.390   0.159   3.470 -0.4453 -1.0425 -0.6420
 3551SOL    HW214152   8.528   0.119   3.516  0.1788  0.9950 -0.6496
 3552SOL     OW14153   0.428   1.295   7.096  0.4124  0.7935  0.5007
 3552SOL    HW114154   0.424   1.326   7.006  0.4292  0.8689  0.5260
 3552SOL    HW214155   0.380   1.361   7.147 -3.1555 -1.1461  0.0340
 3553SOL     OW14156   9.407   1.234   0.966 -0.0643  0.3593  0.5304
 3553SOL    HW114157   9.446   1.273   0.888  0.8163  3.2096  2.2590
 3553SOL    HW214158   9.453   1.151   0.976  1.5424  1.0383 -0.6563
 3554SOL     OW14159   1.901   7.216   6.733  0.8495  0.2156  0.1435
 3554SOL    HW114160   1.904   7.180   6.822 -0.1430 -0.2498 -0.0063
 3554SOL    HW214161   1.889   7.140   6.676 -1.1738  0.7372 -0.1829
 3555SOL     OW14162   4.148  10.903   5.874  0.3480  0.1068 -0.0822
 3555SOL    HW114163   4.179  10.866   5.792 -0.1604 -1.2805  0.3250
 3555SOL    HW214164   4.054  10.883   5.875  0.5114 -0.7068  1.2329
 3556SOL     OW14165   5.144   1.595   9.992  0.1066  0.5552 -0.4917
 3556SOL    HW114166   5.071   1.576   9.933  0.7674 -0.7477 -0.9083
 3556SOL    HW214167   5.220   1.605   9.935  0.9370 -1.5959  0.1237
 3557SOL     OW14168   2.616   5.831   9.204 -0.4532  0.1246  0.2337
 3557SOL    HW114169   2.681   5.850   9.137 -0.0939  1.1522  0.8525
 3557SOL    HW214170   2.644   5.882   9.281 -1.1194 -0.6407  1.0110
 3558SOL     OW14171   8.429   0.731   0.654 -0.6706 -0.1453 -0.7764
 3558SOL    HW114172   8.456   0.644   0.624 -0.2970 -0.0190 -0.8036
 3558SOL    HW214173   8.339   0.718   0.683 -0.3373 -0.7334  0.0259
 3559SOL     OW14174   9.153   5.538   0.718 -0.0345 -0.1357 -0.1784
 3559SOL    HW114175   9.105   5.476   0.772 -2.5422  0.0707 -2.0184
 3559SOL    HW214176   9.106   5.621   0.727  2.4807  1.2796  1.1974
 3560SOL     OW14177   1.969   3.145   3.551 -0.1640 -0.0175  0.1833
 3560SOL    HW114178   1.926   3.185   3.475  2.7883  1.5528 -0.8298
 3560SOL    HW214179   1.982   3.054   3.526 -1.0882 -0.0426 -0.2711
 3561SOL     OW14180   6.529   6.968  10.742  0.5216  0.2502  0.2775
 3561SOL    HW114181   6.515   7.000  10.831  0.4068 -1.6764  1.0190
 3561SOL    HW214182   6.447   6.924  10.719  0.8349  0.0189 -0.4419
 3562SOL     OW14183   1.551   3.969   2.053 -0.2520  0.0023  0.4240
 3562SOL    HW114184   1.498   4.047   2.033  0.4178  0.2522 -0.4606
 3562SOL    HW214185   1.493   3.895   2.035 -0.5865  0.2829  0.3295
 3563SOL     OW14186   5.183   4.949   7.130  0.2111 -0.2506  0.1004
 3563SOL    HW114187   5.122   4.877   7.119 -3.4017  2.4932  0.0675
 3563SOL    HW214188   5.225   4.958   7.045 -0.2979 -1.4364 -0.2948
 3564SOL     OW14189   0.599   1.464   5.237  0.3199  0.4369  0.2433
 3564SOL    HW114190   0.572   1.460   5.329 -0.5037  0.4859  0.0134
 3564SOL    HW214191   0.677   1.409   5.232  0.1977  0.1929  0.9134
 3565SOL     OW14192   7.210   5.390   4.579  0.1993 -0.2375 -0.0621
 3565SOL    HW114193   7.267   5.436   4.641 -0.2558  1.0896 -0.6083
 3565SOL    HW214194   7.269   5.359   4.510  0.5396 -0.7137  0.4292
 3566SOL     OW14195   5.890   1.902   7.060  0.1307 -0.1534  0.7481
 3566SOL    HW114196   5.866   1.900   7.152  3.0020  0.4802  1.6142
 3566SOL    HW214197   5.981   1.872   7.058 -0.3119 -1.7017 -2.1069
 3567SOL     OW14198  10.585   4.071  10.022 -0.3790 -0.2616  0.1416
 3567SOL    HW114199  10.645   4.043   9.953 -3.2615  0.5356 -2.9649
 3567SOL    HW214200  10.609   4.162  10.040 -0.7274  0.1243 -1.2344
 3568SOL     OW14201   6.084   3.649   6.636 -0.1083 -0.0544 -0.1510
 3568SOL    HW114202   6.086   3.729   6.689 -0.8746  0.1785 -0.4594
 3568SOL    HW214203   5.992   3.623   6.635  0.2574 -1.5151  0.7828
 3569SOL     OW14204   8.849  10.199   3.941 -0.0249  0.5905  0.1874
 3569SOL    HW114205   8.845  10.281   3.891  1.4534  0.3329 -0.4240
 3569SOL    HW214206   8.871  10.133   3.875 -0.2818 -0.1392  0.8276
 3570SOL     OW14207  10.776   8.015   9.316 -0.1611 -0.1802  0.1124
 3570SOL    HW114208  10.738   8.076   9.253 -0.3499  1.7611  2.0335
 3570SOL    HW214209  10.854   8.058   9.349  0.9568 -1.9521 -0.0642
 3571SOL     OW14210   6.708  10.088   9.594  0.1725 -0.5316 -0.4119
 3571SOL    HW114211   6.770  10.043   9.536  1.9301 -0.3188  1.2335
 3571SOL    HW214212   6.673  10.019   9.650  2.5326 -0.0398  1.8107
 3572SOL     OW14213   8.523   9.587   7.611  0.3486 -0.5520 -0.3414
 3572SOL    HW114214   8.602   9.542   7.641  0.1281 -1.2805 -0.8318
 3572SOL    HW214215   8.524   9.578   7.516 -1.0290 -1.7974 -0.2781
 3573SOL     OW14216   0.894   6.901   0.259 -0.3240 -0.8439 -0.8038
 3573SOL    HW114217   0.963   6.869   0.202 -0.1970  0.6526 -1.5562
 3573SOL    HW214218   0.868   6.985   0.220 -0.9075 -0.2430  0.7878
 3574SOL     OW14219   9.583   7.323   3.733  0.5138  0.5076  0.0636
 3574SOL    HW114220   9.625   7.331   3.819  0.5775  0.9922 -0.0113
 3574SOL    HW214221   9.655   7.305   3.673  0.5735  0.9643 -0.0070
 3575SOL     OW14222   9.462   1.488   9.887 -0.2433  0.0893 -0.6881
 3575SOL    HW114223   9.394   1.481   9.821  2.1128 -0.4265 -3.2805
 3575SOL    HW214224   9.525   1.550   9.850  1.3716 -0.5281  0.8635
 3576SOL     OW14225   8.016  10.963   2.711 -0.7564 -0.0372  0.1269
 3576SOL    HW114226   8.036  10.889   2.768  0.8025 -0.2104 -0.6020
 3576SOL    HW214227   7.979  10.923   2.632 -2.4489  0.1717  0.7679
 3577SOL     OW14228  10.491   9.958   6.078 -0.2926  0.4490  0.0583
 3577SOL    HW114229  10.584   9.950   6.101 -0.5965 -0.9838  0.8908
 3577SOL    HW214230  10.488   9.931   5.986 -0.0635 -0.9534  0.4374
 3578SOL     OW14231   7.550  10.110   1.395  0.2352  0.4698 -0.0665
 3578SOL    HW114232   7.486  10.158   1.343 -0.6925 -1.1529 -0.4852
 3578SOL    HW214233   7.514  10.109   1.484  0.4974  0.9558  0.0471
 3579SOL     OW14234   1.219   8.549  10.937  0.0112  0.3957  0.1749
 3579SOL    HW114235   1.246   8.605  10.864  0.7678 -0.5402 -0.3040
 3579SOL    HW214236   1.294   8.490  10.950 -0.8723 -0.7031  0.4441
 3580SOL     OW14237   2.597   8.865   4.861 -0.3894  0.2075  0.6712
 3580SOL    HW114238   2.608   8.943   4.914  2.1032 -0.0696  0.6823
 3580SOL    HW214239   2.550   8.895   4.783  0.1857  1.6351  0.8465
 3581SOL     OW14240   9.766   3.619   5.576  0.5278  0.1846 -0.1309
 3581SOL    HW114241   9.715   3.543   5.549  1.0974  0.4517 -2.1387
 3581SOL    HW214242   9.838   3.583   5.627 -0.1672 -0.4534  0.4120
 3582SOL     OW14243   7.351   6.566   4.867 -0.1317 -0.2968  0.2009
 3582SOL    HW114244   7.341   6.475   4.896 -1.4156 -0.3282 -0.2644
 3582SOL    HW214245   7.412   6.560   4.793 -1.2795 -0.9994 -0.7283
 3583SOL     OW14246   7.326   5.203   7.623  0.1754  0.4826  0.2212
 3583SOL    HW114247   7.268   5.141   7.578  1.0341 -0.2799  0.1153
 3583SOL    HW214248   7.373   5.149   7.687  0.6829  1.0953  0.3802
 3584SOL     OW14249   5.916  10.364   4.194  0.4142  0.1304 -0.2673
 3584SOL    HW114250   5.923  10.307   4.117 -0.7257  0.6172 -0.7674
 3584SOL    HW214251   5.835  10.336   4.237  1.1632 -0.3025  0.9236
 3585SOL     OW14252   4.733   4.723  10.104 -0.2339 -0.4975  0.2784
 3585SOL    HW114253   4.800   4.766  10.051 -0.7146  0.3652  0.3590
 3585SOL    HW214254   4.748   4.629  10.090  0.2325 -0.2918 -0.6355
 3586SOL     OW14255   0.572   5.669   0.381 -0.1679 -0.3256  0.5152
 3586SOL    HW114256   0.577   5.642   0.473 -0.5405 -0.8523  0.3847
 3586SOL    HW214257   0.629   5.745   0.376  1.3971 -1.4163  0.7822
 3587SOL     OW14258   2.261   7.768   6.035  0.7062  0.0252  0.2154
 3587SOL    HW114259   2.237   7.726   5.953  2.8126 -0.5376 -0.1852
 3587SOL    HW214260   2.325   7.835   6.009  0.7548  0.4177  1.3025
 3588SOL     OW14261   9.445   2.861   0.828  0.1178  0.4465 -0.1235
 3588SOL    HW114262   9.396   2.779   0.835  0.9571  0.0132  0.9511
 3588SOL    HW214263   9.531   2.835   0.795  0.5136  0.8489  0.5808
 3589SOL     OW14264   0.248   4.604   0.451  0.0243  0.4271  0.0724
 3589SOL    HW114265   0.297   4.550   0.389  0.0558 -2.2392  2.2101
 3589SOL    HW214266   0.157   4.575   0.442 -0.2501  1.2608  0.0748
 3590SOL     OW14267   4.611   1.341  10.552  0.3709 -0.1348  0.1518
 3590SOL    HW114268   4.641   1.262  10.596  0.1649 -0.4941 -0.3524
 3590SOL    HW214269   4.520   1.324  10.529  0.5436 -0.0493 -0.6297
 3591SOL     OW14270   4.114   2.104   2.110 -0.1994 -0.0795 -0.3510
 3591SOL    HW114271   4.197   2.067   2.139 -0.5138 -0.7157 -0.2521
 3591SOL    HW214272   4.138   2.162   2.037  0.3406 -0.1576 -0.2395
 3592SOL     OW14273   0.620  10.031   5.848 -0.1144 -0.1829  0.4247
 3592SOL    HW114274   0.712  10.018   5.825 -0.2069 -0.9264  0.4470
 3592SOL    HW214275   0.572  10.018   5.765 -0.1380  1.0660  0.2278
 3593SOL     OW14276   3.801   7.129   0.123 -0.1243  0.0247 -0.3800
 3593SOL    HW114277   3.782   7.172   0.040 -0.1560 -0.2149 -0.4988
 3593SOL    HW214278   3.737   7.165   0.184 -0.8410 -0.6229 -0.7274
 3594SOL     OW14279   6.163   2.421   9.979  1.4037  0.1802 -0.2821
 3594SOL    HW114280   6.254   2.393   9.966  1.4133 -0.2965  0.7059
 3594SOL    HW214281   6.114   2.339   9.981  1.0805  0.3825  0.1201
 3595SOL     OW14282   6.855   1.845   5.452 -0.2165 -0.7597 -0.0090
 3595SOL    HW114283   6.836   1.857   5.544 -0.3682 -0.1636 -0.1141
 3595SOL    HW214284   6.772   1.820   5.412  0.0898 -2.1874  0.2024
 3596SOL     OW14285   4.423   3.121   5.779 -0.5431  0.1048 -0.2756
 3596SOL    HW114286   4.366   3.122   5.856  1.2815 -1.7657  1.2472
 3596SOL    HW214287   4.366   3.142   5.706 -2.3514  2.0862  1.5805
 3597SOL     OW14288  10.631   8.467  10.288  0.2326 -0.0346 -0.1278
 3597SOL    HW114289  10.711   8.501  10.329  0.3840 -0.7182  0.1699
 3597SOL    HW214290  10.565   8.474  10.356 -0.0148  0.7214 -0.4414
 3598SOL     OW14291   5.864   8.851   9.184 -0.2480 -0.1041  0.3771
 3598SOL    HW114292   5.786   8.841   9.130 -0.7592  1.8284  0.6802
 3598SOL    HW214293   5.937   8.832   9.125 -0.7543  2.4870 -1.2050
 3599SOL     OW14294   5.995   6.305   2.937  0.4635 -0.2589 -0.4660
 3599SOL    HW114295   6.012   6.389   2.979 -0.9523  0.1449 -0.6824
 3599SOL    HW214296   6.082   6.263   2.933  1.0390  0.7853  0.4667
 3600SOL     OW14297   7.626   6.454   6.545  0.1358  0.1291  0.0844
 3600SOL    HW114298   7.693   6.397   6.582  1.8193  2.3883  0.7011
 3600SOL    HW214299   7.616   6.424   6.455 -0.8769 -2.6722  1.0187
 3601SOL     OW14300   0.082   5.710   7.212 -0.3667 -0.0466  0.8849
 3601SOL    HW114301   0.106   5.743   7.125  0.2419  1.0627  1.4476
 3601SOL    HW214302   0.147   5.642   7.230 -0.8299 -0.6792  0.2625
 3602SOL     OW14303   6.868   2.861   0.330  0.4268  0.3049  0.2022
 3602SOL    HW114304   6.946   2.815   0.359  0.5726  0.7419  0.5218
 3602SOL    HW214305   6.852   2.830   0.241 -0.9221 -2.2638  1.2401
 3603SOL     OW14306   0.516   9.571   9.525 -1.1544  0.3176 -0.6216
 3603SOL    HW114307   0.461   9.494   9.536 -1.1639  0.3033 -0.7696
 3603SOL    HW214308   0.498   9.624   9.603  0.7909 -1.0180  0.8480
 3604SOL     OW14309   4.987  10.463   9.354  0.1408 -0.4870 -0.3398
 3604SOL    HW114310   5.072  10.476   9.313  0.8790 -1.8382  0.6934
 3604SOL    HW214311   4.948  10.389   9.306 -1.6239  1.6739 -2.5067
 3605SOL     OW14312   7.570   8.072  10.116 -0.0380  0.9377  0.1100
 3605SOL    HW114313   7.604   8.063  10.026  1.0737  0.1172  0.5844
 3605SOL    HW214314   7.500   8.008  10.122  1.6554 -0.9814  0.5996
 3606SOL     OW14315   5.887   3.284   9.162 -0.1210  0.0402 -0.4259
 3606SOL    HW114316   5.890   3.206   9.107 -2.5067 -0.1602 -0.3757
 3606SOL    HW214317   5.945   3.263   9.236  0.5730 -0.9883 -1.2223
 3607SOL     OW14318  10.616   0.711   8.763 -0.4389 -0.3661  0.0096
 3607SOL    HW114319  10.533   0.679   8.728 -0.6775 -0.1964  0.4194
 3607SOL    HW214320  10.625   0.670   8.849 -0.3374 -0.0067  0.1754
 3608SOL     OW14321   1.159   2.243   6.257 -0.3275  0.7965  0.0892
 3608SOL    HW114322   1.185   2.261   6.167  0.2272 -1.9187 -0.3771
 3608SOL    HW214323   1.225   2.183   6.290 -1.8455 -0.2151  1.4747
 3609SOL     OW14324   5.803   6.004   0.349 -0.2659  0.4859 -0.0981
 3609SOL    HW114325   5.899   6.009   0.347 -0.2528  0.1087 -1.4525
 3609SOL    HW214326   5.776   6.081   0.399  0.7315  0.7525  0.0456
 3610SOL     OW14327   0.551   9.011   2.841  0.2672  0.4449  0.3860
 3610SOL    HW114328   0.496   9.059   2.903 -1.0395 -1.2072  0.6046
 3610SOL    HW214329   0.556   8.922   2.877  0.1520 -0.3559 -1.4307
 3611SOL     OW14330   1.371   4.778   3.931  0.1418  0.1863  0.3067
 3611SOL    HW114331   1.462   4.749   3.945  0.2208  1.5120  3.4772
 3611SOL    HW214332   1.318   4.705   3.961  0.1293 -0.3926 -1.0692
 3612SOL     OW14333   6.761   7.035   2.454 -0.1043 -0.0618  0.0780
 3612SOL    HW114334   6.676   7.027   2.497  0.1327  0.6347  0.6939
 3612SOL    HW214335   6.740   7.055   2.363 -0.6140  1.7685  0.5529
 3613SOL     OW14336   7.972   9.913   5.290 -0.1754  0.0826 -0.9501
 3613SOL    HW114337   7.936   9.999   5.310 -0.3000  0.2300 -1.7822
 3613SOL    HW214338   7.961   9.863   5.371  0.2954  0.9720 -0.3155
 3614SOL     OW14339   1.997   9.390   2.152  0.6072  0.0902 -0.1690
 3614SOL    HW114340   1.964   9.478   2.137 -1.6425 -0.9505 -1.9859
 3614SOL    HW214341   2.088   9.393   2.123  1.0826  2.1429  1.2981
 3615SOL     OW14342   0.128   7.590   0.143  0.1485 -0.5250 -0.3202
 3615SOL    HW114343   0.042   7.594   0.183  1.0732  0.1943  1.7239
 3615SOL    HW214344   0.169   7.513   0.182  0.6925 -0.4558 -0.7385
 3616SOL     OW14345   6.983  10.215   1.331 -0.1493  0.1806 -0.6055
 3616SOL    HW114346   7.037  10.230   1.409 -0.1519 -0.0705 -0.5550
 3616SOL    HW214347   7.010  10.283   1.269 -0.4362  0.6391 -0.2364
 3617SOL     OW14348   7.735   3.542   8.109 -0.2933 -0.1382 -0.1823
 3617SOL    HW114349   7.781   3.548   8.026  0.2818  0.2717  0.1524
 3617SOL    HW214350   7.646   3.572   8.090 -0.0314  0.4249 -0.5504
 3618SOL     OW14351   7.362   5.561   8.802  0.3747  0.6564  0.3482
 3618SOL    HW114352   7.343   5.627   8.869 -3.7854  1.6182 -1.4875
 3618SOL    HW214353   7.388   5.612   8.725  2.7324 -0.3149  0.4009
 3619SOL     OW14354   7.112   7.362   4.396  0.0463  0.2066 -0.0715
 3619SOL    HW114355   7.065   7.374   4.478 -2.9363  1.6188 -1.8268
 3619SOL    HW214356   7.152   7.275   4.403  1.0897  0.8451  3.3316
 3620SOL     OW14357   8.608   5.297   8.693 -0.1412  0.0397 -0.4077
 3620SOL    HW114358   8.541   5.340   8.639  0.6596  2.5604  0.4720
 3620SOL    HW214359   8.576   5.307   8.783  0.0435 -1.3400 -0.1688
 3621SOL     OW14360   2.629   9.525   1.720 -0.2898 -0.4145  0.1264
 3621SOL    HW114361   2.696   9.587   1.746 -0.9166 -0.4630  2.0504
 3621SOL    HW214362   2.546   9.569   1.740 -0.8332 -0.6064 -1.5792
 3622SOL     OW14363   8.018   3.192   7.110 -0.6874 -0.3986  0.3717
 3622SOL    HW114364   8.100   3.221   7.070 -0.3031 -1.7084  0.1468
 3622SOL    HW214365   7.970   3.151   7.038 -0.0949 -2.5605  1.1269
 3623SOL     OW14366   4.690   1.860   9.074 -0.1822 -0.4341 -0.0287
 3623SOL    HW114367   4.693   1.947   9.113  0.9385 -0.8140  0.7944
 3623SOL    HW214368   4.731   1.870   8.988 -0.3249 -0.0946 -0.0566
 3624SOL     OW14369   9.343   4.009   3.847 -0.0575  0.6110  0.2874
 3624SOL    HW114370   9.254   4.029   3.815  0.5317  2.3940 -0.3812
 3624SOL    HW214371   9.355   3.916   3.827 -1.5859  0.4545 -0.0677
 3625SOL     OW14372   5.176  10.973   1.295  0.0664 -0.0291  0.0832
 3625SOL    HW114373   5.086  10.987   1.325  0.2711  0.2284  0.5952
 3625SOL    HW214374   5.225  11.047   1.332  0.3065  0.3881 -1.0197
 3626SOL     OW14375   0.424   9.917   2.798  0.1461  0.1187 -0.1577
 3626SOL    HW114376   0.359   9.967   2.847  0.5962 -0.6130  1.2188
 3626SOL    HW214377   0.392   9.827   2.801  1.9261 -0.5269  1.8649
 3627SOL     OW14378   1.490   6.049   0.235 -0.7130  0.1523  0.2417
 3627SOL    HW114379   1.476   6.074   0.327  1.5203 -0.8267  0.9147
 3627SOL    HW214380   1.585   6.040   0.227 -0.9361 -0.8155 -1.8994
 3628SOL     OW14381   7.170   9.419   1.989 -0.7038 -0.5209  0.3295
 3628SOL    HW114382   7.212   9.504   1.982  0.6633 -0.9568  2.2459
 3628SOL    HW214383   7.129   9.405   1.904  1.1054  0.9820 -0.8788
 3629SOL     OW14384   4.603   8.163   1.885 -0.1324 -0.1488  0.2409
 3629SOL    HW114385   4.697   8.150   1.876  0.0883 -0.6052  2.4168
 3629SOL    HW214386   4.588   8.254   1.860  1.0363  0.1770  0.6721
 3630SOL     OW14387   7.023   4.885   1.360  0.0336  0.2820 -0.1006
 3630SOL    HW114388   7.023   4.955   1.425 -1.7151 -0.8084  1.1622
 3630SOL    HW214389   7.101   4.833   1.381 -0.8535 -0.4315  1.6140
 3631SOL     OW14390   3.906   9.434   1.472 -0.1069  0.2960 -0.7960
 3631SOL    HW114391   4.001   9.436   1.486  0.0754 -0.9805 -1.6767
 3631SOL    HW214392   3.870   9.482   1.546  1.2403  1.1319 -0.6446
 3632SOL     OW14393   4.427   7.290   8.254  0.0921 -0.4821 -0.2127
 3632SOL    HW114394   4.450   7.234   8.328 -2.7196 -2.3570 -0.5928
 3632SOL    HW214395   4.381   7.231   8.193 -2.1098  2.0153 -1.1225
 3633SOL     OW14396   9.057   6.754   2.193 -0.0222  0.2979 -0.1170
 3633SOL    HW114397   9.034   6.663   2.180  1.8595  0.0055 -2.0084
 3633SOL    HW214398   8.981   6.793   2.236 -0.7634 -2.1800  0.9602
 3634SOL     OW14399   8.599   8.541   9.094  0.2663  0.3243  0.1861
 3634SOL    HW114400   8.597   8.446   9.097 -1.3538  0.2724 -1.1459
 3634SOL    HW214401   8.672   8.565   9.151  1.0278 -1.7136  0.1560
 3635SOL     OW14402   9.154   9.424   9.630  0.1085  0.1290  0.4687
 3635SOL    HW114403   9.138   9.330   9.619 -0.7390  0.1413  1.4688
 3635SOL    HW214404   9.250   9.431   9.635  0.2980 -0.4552 -1.3461
 3636SOL     OW14405  10.362  10.444   5.897 -0.3261  0.1907 -0.4297
 3636SOL    HW114406  10.419  10.421   5.823  2.2236  0.3623  1.3471
 3636SOL    HW214407  10.367  10.369   5.956  0.5684  1.3870  1.1251
 3637SOL     OW14408   7.410   1.070   3.044  0.1189  0.5262  0.5074
 3637SOL    HW114409   7.441   1.121   3.119  0.7883  0.6942  0.1275
 3637SOL    HW214410   7.478   1.004   3.030  1.3930  2.1669 -1.6078
 3638SOL     OW14411   7.858   4.823   9.268 -0.4325 -0.2910  0.5338
 3638SOL    HW114412   7.835   4.741   9.225 -0.5892 -0.1456  0.3364
 3638SOL    HW214413   7.918   4.798   9.338 -0.9563 -0.6451  0.8648
 3639SOL     OW14414   5.554   3.835   3.268  0.1894  0.2143  0.1602
 3639SOL    HW114415   5.568   3.741   3.267  2.1547  0.4751  0.2851
 3639SOL    HW214416   5.490   3.849   3.338 -0.9230 -1.0853 -0.5388
 3640SOL     OW14417   2.817   8.544   8.952  0.0331  0.1779 -0.0735
 3640SOL    HW114418   2.799   8.450   8.943  0.6439  0.1957 -1.8488
 3640SOL    HW214419   2.751   8.575   9.014 -0.4333 -1.3518  0.2430
 3641SOL     OW14420   8.787   9.989   3.118 -0.2402  0.1750 -0.1841
 3641SOL    HW114421   8.785  10.009   3.212  3.0264  2.5380 -0.4181
 3641SOL    HW214422   8.725  10.051   3.079 -0.1997  0.5044  0.2664
 3642SOL     OW14423   9.913   9.994   1.251  0.0218 -0.4241 -0.0750
 3642SOL    HW114424   9.999  10.033   1.234 -0.1353  0.1137  0.3331
 3642SOL    HW214425   9.856  10.031   1.183  0.2863 -1.4567 -0.8978
 3643SOL     OW14426   6.963  10.600  10.166 -0.0512  0.2941  0.2846
 3643SOL    HW114427   6.951  10.569  10.076 -1.0402  0.2988  0.4048
 3643SOL    HW214428   7.049  10.567  10.191  0.4489  0.7028 -0.8265
 3644SOL     OW14429   0.507   6.799   0.818 -0.2603  0.1754  0.4029
 3644SOL    HW114430   0.430   6.783   0.763 -1.0010 -1.1371  1.7670
 3644SOL    HW214431   0.498   6.891   0.845 -0.5821  0.4453 -0.5716
 3645SOL     OW14432   9.160   9.268   5.289  0.3592 -0.0466  0.2286
 3645SOL    HW114433   9.214   9.189   5.297  1.2489  0.5096 -0.1249
 3645SOL    HW214434   9.206   9.334   5.340 -0.2832  0.3008  0.3729
 3646SOL     OW14435  10.077  10.958   1.907  0.2939  0.1414 -0.2004
 3646SOL    HW114436  10.086  10.974   2.001 -0.0326  0.0877 -0.1597
 3646SOL    HW214437  10.015  11.024   1.877 -0.6796 -0.7164 -0.1176
 3647SOL     OW14438   9.780   3.021   4.594  0.1204 -0.2758 -0.1089
 3647SOL    HW114439   9.798   3.035   4.501  1.4864 -1.4849 -0.0540
 3647SOL    HW214440   9.821   3.095   4.638  1.0329 -0.6264 -0.3479
 3648SOL     OW14441  10.758   1.262  10.143  0.5184 -0.6348 -0.2648
 3648SOL    HW114442  10.851   1.252  10.164  0.6687 -1.4991 -1.2623
 3648SOL    HW214443  10.714   1.264  10.228  1.1219 -3.6282  0.2366
 3649SOL     OW14444   0.834   9.225   5.709  0.0204  0.1844  0.2015
 3649SOL    HW114445   0.753   9.216   5.758  0.1417  1.8490  0.7700
 3649SOL    HW214446   0.809   9.269   5.628  0.4139  1.2476  0.6378
 3650SOL     OW14447   6.349   3.871   5.926 -0.1501  0.1503 -0.3876
 3650SOL    HW114448   6.286   3.814   5.972 -0.8562 -0.6784 -2.2844
 3650SOL    HW214449   6.295   3.921   5.865  0.6372  1.9979  0.3894
 3651SOL     OW14450   0.718   7.026   4.222 -0.3033  0.0620  0.3633
 3651SOL    HW114451   0.743   6.935   4.235 -1.9379 -0.3377  1.0486
 3651SOL    HW214452   0.770   7.056   4.148  0.6915 -1.2452  0.5093
 3652SOL     OW14453   0.262   6.777   9.859 -0.6549 -0.4821 -0.0748
 3652SOL    HW114454   0.241   6.760   9.768 -3.2104  1.0381  0.1457
 3652SOL    HW214455   0.320   6.853   9.856 -1.3406  0.0400 -0.4359
 3653SOL     OW14456   2.592   5.399  10.878  0.2026  0.5771 -0.3497
 3653SOL    HW114457   2.617   5.325  10.933 -1.1201  1.0458  0.9515
 3653SOL    HW214458   2.622   5.375  10.791 -1.2327 -2.0481 -0.2143
 3654SOL     OW14459  10.973   2.976   1.495 -0.0411 -0.2672  0.3962
 3654SOL    HW114460  11.045   3.035   1.470 -1.0008  0.8273  0.1129
 3654SOL    HW214461  10.934   2.950   1.412 -0.4191 -0.2663  0.5730
 3655SOL     OW14462   7.868   4.574   1.787  0.1989  0.2344  0.1118
 3655SOL    HW114463   7.885   4.570   1.693  0.7333 -2.5958  0.2279
 3655SOL    HW214464   7.950   4.608   1.824  0.3515  0.4004 -0.3672
 3656SOL     OW14465   7.240   4.613   0.105  0.6973  0.7034  0.0567
 3656SOL    HW114466   7.235   4.521   0.132  0.0676  0.4522 -0.8510
 3656SOL    HW214467   7.240   4.663   0.187  1.8928 -0.1298  0.5846
 3657SOL     OW14468   4.967   6.010   5.928  0.1682  0.2049  0.6240
 3657SOL    HW114469   4.948   5.917   5.918 -0.7363  0.3969  0.4363
 3657SOL    HW214470   4.957   6.046   5.840 -1.2306  0.7733  0.9884
 3658SOL     OW14471   1.941   2.528   8.781 -0.4411 -0.3194  0.3340
 3658SOL    HW114472   1.992   2.609   8.771 -1.3734  0.2813  0.3100
 3658SOL    HW214473   1.883   2.546   8.856 -1.4369 -0.5385 -0.3629
 3659SOL     OW14474   5.197   4.842   7.671 -0.0576  0.0231 -0.5097
 3659SOL    HW114475   5.130   4.860   7.605 -0.1401  2.5820  0.1870
 3659SOL    HW214476   5.280   4.843   7.622 -0.2422  0.3688 -0.8246
 3660SOL     OW14477   1.736   9.289   7.470  0.1212  0.3996 -0.2617
 3660SOL    HW114478   1.662   9.306   7.411 -0.9488 -1.2883  0.5229
 3660SOL    HW214479   1.748   9.194   7.467 -0.4644  0.1433  2.7358
 3661SOL     OW14480   6.795   8.303  10.149 -0.3090 -0.2103  0.5158
 3661SOL    HW114481   6.815   8.217  10.187 -0.9740 -0.7664 -0.3545
 3661SOL    HW214482   6.707   8.294  10.113 -0.0077  0.5262 -0.4610
 3662SOL     OW14483   3.218   9.633  10.122 -0.1843  0.4986 -0.0426
 3662SOL    HW114484   3.155   9.702  10.143  0.5871  1.3334 -0.4004
 3662SOL    HW214485   3.302   9.668  10.152  0.1973 -0.3599 -0.0871
 3663SOL     OW14486   4.034   3.106   2.597  0.2568  0.0865  0.3753
 3663SOL    HW114487   4.001   3.175   2.540 -0.2071  0.3078  0.8969
 3663SOL    HW214488   4.125   3.095   2.572 -0.1747 -0.4767 -1.0315
 3664SOL     OW14489   8.652   1.491   7.375  0.1420  0.5407 -0.2964
 3664SOL    HW114490   8.591   1.538   7.318 -0.2442  3.1038  2.0357
 3664SOL    HW214491   8.730   1.546   7.378  0.2035  0.4184  1.5033
 3665SOL     OW14492   1.874   9.422   7.651  0.2410  0.1339  0.1419
 3665SOL    HW114493   1.887   9.347   7.709  0.9471 -1.3590 -1.8540
 3665SOL    HW214494   1.820   9.389   7.580 -0.3110  1.8279 -0.2893
 3666SOL     OW14495   6.579   3.095   8.337 -0.0770  0.4501  0.0159
 3666SOL    HW114496   6.653   3.051   8.295  0.2950  0.4417  0.6671
 3666SOL    HW214497   6.502   3.068   8.286  0.5883  2.3440 -2.2273
 3667SOL     OW14498   5.452   0.762   7.885  0.4540  0.2052  0.3170
 3667SOL    HW114499   5.469   0.854   7.903  1.0779  0.3452 -0.9246
 3667SOL    HW214500   5.371   0.761   7.834 -0.5627 -0.0985  1.8397
 3668SOL     OW14501  10.620   7.478  10.627 -0.0065 -0.0911  0.3507
 3668SOL    HW114502  10.672   7.409  10.668 -0.4190 -0.5373  0.1391
 3668SOL    HW214503  10.542   7.485  10.682 -0.4646 -0.5455 -0.2242
 3669SOL     OW14504   7.217   3.966   8.959  0.4391 -0.1873 -0.1394
 3669SOL    HW114505   7.253   3.884   8.925 -0.6236 -0.2433 -1.2136
 3669SOL    HW214506   7.206   4.022   8.882  1.2600  1.0312  0.5931
 3670SOL     OW14507   7.238   3.316   2.468  0.7288  0.4604 -0.1632
 3670SOL    HW114508   7.315   3.273   2.431  1.5395  2.1546 -0.5678
 3670SOL    HW214509   7.185   3.337   2.391  0.0543 -0.3075  0.0808
 3671SOL     OW14510   3.260   5.708   2.521 -1.0449 -0.7645  0.1446
 3671SOL    HW114511   3.296   5.622   2.543 -1.7272 -0.7833  1.2165
 3671SOL    HW214512   3.333   5.754   2.480 -0.6825 -1.8625 -0.4849
 3672SOL     OW14513   5.905   0.434   0.998 -0.5022  0.6639 -0.1383
 3672SOL    HW114514   5.915   0.360   1.057 -0.0886  0.6525 -0.2173
 3672SOL    HW214515   5.811   0.449   0.993 -0.4771  1.8569  1.9828
 3673SOL     OW14516   5.452   4.872   2.231 -0.3705  0.1565  0.3913
 3673SOL    HW114517   5.490   4.929   2.297  1.2223  0.5777 -0.8268
 3673SOL    HW214518   5.472   4.783   2.261 -0.3283  0.3205  0.8517
 3674SOL     OW14519   8.762   2.290   9.560  0.4128  0.1126  0.4587
 3674SOL    HW114520   8.702   2.332   9.621  0.3792  1.6904 -0.5906
 3674SOL    HW214521   8.849   2.317   9.589  0.3316  2.3271 -1.1175
 3675SOL     OW14522   3.283   5.579   6.588  0.2493  0.1064  0.1274
 3675SOL    HW114523   3.217   5.512   6.567  0.9720 -0.8259  0.7097
 3675SOL    HW214524   3.303   5.620   6.504  0.3848 -0.9922 -0.4037
 3676SOL     OW14525   6.268   8.377   6.846  0.5035  0.0159 -0.6719
 3676SOL    HW114526   6.178   8.370   6.878  0.3686  0.5397 -0.9336
 3676SOL    HW214527   6.303   8.288   6.855  0.4408  0.1102  0.8597
 3677SOL     OW14528  10.463   9.156   6.870 -0.4836  0.3549 -0.4266
 3677SOL    HW114529  10.551   9.171   6.835  0.0171 -0.9230  0.2277
 3677SOL    HW214530  10.460   9.063   6.889 -1.5955  0.5815  0.6449
 3678SOL     OW14531   1.376   7.679   4.336 -0.5847 -0.2052  0.1374
 3678SOL    HW114532   1.418   7.613   4.393  0.0280  0.8536  0.9500
 3678SOL    HW214533   1.439   7.692   4.265 -1.6951 -2.1160 -1.3075
 3679SOL     OW14534   8.454   6.381   6.810  0.0798  0.3533  0.6523
 3679SOL    HW114535   8.467   6.472   6.781 -1.0385  0.6786  1.0993
 3679SOL    HW214536   8.513   6.371   6.884 -0.7508  1.1650  1.4552
 3680SOL     OW14537   6.383   3.439   1.996 -0.3532 -0.3907 -0.0603
 3680SOL    HW114538   6.328   3.468   2.068 -0.4672 -0.6139 -0.0590
 3680SOL    HW214539   6.425   3.359   2.028  1.4850  0.7994  0.6899
 3681SOL     OW14540   0.329   9.363   4.513  0.3018  0.2613  0.2315
 3681SOL    HW114541   0.252   9.353   4.569 -0.5304  1.0757 -0.7180
 3681SOL    HW214542   0.325   9.454   4.483  1.4583  0.2199 -0.0933
 3682SOL     OW14543   9.554   2.684   6.659  0.4149  0.0919  0.4438
 3682SOL    HW114544   9.578   2.758   6.604 -1.1657  0.8669  0.7368
 3682SOL    HW214545   9.460   2.695   6.675  0.8865  0.2737  3.7741
 3683SOL     OW14546   9.782   4.546   0.596 -0.0755 -0.1714  0.5236
 3683SOL    HW114547   9.861   4.557   0.649 -0.9336  0.6223  1.7048
 3683SOL    HW214548   9.764   4.633   0.560 -0.0780 -0.4802 -0.2367
 3684SOL     OW14549  10.655   9.001   3.666  0.1058  0.1911 -0.6876
 3684SOL    HW114550  10.679   9.001   3.573  1.1728 -1.4323 -0.4633
 3684SOL    HW214551  10.739   9.003   3.713 -0.3463 -0.5179  0.1989
 3685SOL     OW14552   1.644   3.181   2.164  0.4132 -0.2221 -0.2744
 3685SOL    HW114553   1.712   3.220   2.219  0.5634 -0.5807 -0.2080
 3685SOL    HW214554   1.663   3.214   2.076  0.9233 -0.6550 -0.3285
 3686SOL     OW14555   3.304   3.427   0.295 -0.1594  0.0263  0.7360
 3686SOL    HW114556   3.346   3.403   0.212  0.5051  3.0200  0.0891
 3686SOL    HW214557   3.372   3.472   0.345 -0.6595 -1.3686  2.7898
 3687SOL     OW14558   3.103   6.704   3.430 -0.3092 -0.1141 -0.0439
 3687SOL    HW114559   3.046   6.733   3.359 -0.4205 -0.2916 -0.0284
 3687SOL    HW214560   3.043   6.672   3.498 -0.1878 -0.5914 -0.1544
 3688SOL     OW14561   5.940   5.123   7.068 -0.4244 -0.2000  0.3894
 3688SOL    HW114562   5.912   5.153   6.982 -1.1202 -0.2081  0.6071
 3688SOL    HW214563   6.035   5.121   7.063 -0.4740 -1.2538 -0.7349
 3689SOL     OW14564   9.827   6.962   5.308 -0.2139 -0.5979  0.1887
 3689SOL    HW114565   9.818   7.000   5.221 -0.7798 -0.5512  0.2613
 3689SOL    HW214566   9.738   6.933   5.330 -0.3168  0.4245  1.2135
 3690SOL     OW14567   1.946   1.024   6.062  0.3874  0.0480  0.0574
 3690SOL    HW114568   1.991   0.948   6.099  0.9970 -0.8298 -2.3252
 3690SOL    HW214569   1.871   0.987   6.015 -1.8917  1.3488  2.4196
 3691SOL     OW14570   7.658   4.350   0.395 -0.0449 -0.6852 -0.1708
 3691SOL    HW114571   7.751   4.354   0.375  0.1494  1.8246  0.8525
 3691SOL    HW214572   7.623   4.433   0.363 -1.5708 -0.8061  1.0598
 3692SOL     OW14573   3.229   9.284   8.364  0.7509  0.1041 -0.0882
 3692SOL    HW114574   3.217   9.378   8.347  0.4691  0.0841 -0.0133
 3692SOL    HW214575   3.272   9.251   8.285 -1.3165 -0.1408 -1.1804
 3693SOL     OW14576   8.317   0.403   5.473  0.0157 -0.2746 -0.2274
 3693SOL    HW114577   8.305   0.463   5.546 -1.6928 -1.3631  0.4326
 3693SOL    HW214578   8.366   0.329   5.510 -1.5659 -1.2106  0.0726
 3694SOL     OW14579   6.956   9.720   1.971 -0.0348  0.5854  0.3286
 3694SOL    HW114580   6.943   9.723   2.066  0.3022 -0.1688  0.4083
 3694SOL    HW214581   7.047   9.690   1.960 -0.2590  0.0940 -0.2325
 3695SOL     OW14582   8.153   2.374   7.998 -0.0987 -0.0390  0.1360
 3695SOL    HW114583   8.141   2.395   8.091 -1.0071  0.7326 -0.1421
 3695SOL    HW214584   8.248   2.379   7.985  0.0007  0.3499  0.9095
 3696SOL     OW14585   8.719   7.994   5.494  0.2622 -1.2775 -0.1986
 3696SOL    HW114586   8.777   8.058   5.452 -1.5916 -0.1840 -1.2449
 3696SOL    HW214587   8.715   8.022   5.585  0.0486 -0.3215 -0.4908
 3697SOL     OW14588  10.456   7.207   2.937 -0.1849 -0.4643  0.0565
 3697SOL    HW114589  10.527   7.146   2.958  0.0088 -0.5913 -0.8898
 3697SOL    HW214590  10.394   7.153   2.887 -0.1359  0.0409 -0.5656
 3698SOL     OW14591   2.182   4.867   1.054 -0.0353 -0.5784 -0.0586
 3698SOL    HW114592   2.185   4.808   1.129  0.2573 -0.8328 -0.2644
 3698SOL    HW214593   2.193   4.954   1.091  0.0534 -0.6974  0.1994
 3699SOL     OW14594   5.814   7.019   0.862 -0.5701  0.2959  0.2944
 3699SOL    HW114595   5.858   7.096   0.899 -1.0453  0.4881  0.4649
 3699SOL    HW214596   5.861   6.944   0.901  2.0914  0.4011 -2.3623
 3700SOL     OW14597   6.344   1.406   3.807 -0.3914  0.3541  0.4738
 3700SOL    HW114598   6.255   1.373   3.815 -0.6628  0.6947 -0.8995
 3700SOL    HW214599   6.348   1.442   3.718  1.3117 -0.2409  0.2806
 3701SOL     OW14600   5.117   6.555  10.276 -0.2098  0.5195  0.2808
 3701SOL    HW114601   5.197   6.567  10.328 -0.5799  2.3554  0.5051
 3701SOL    HW214602   5.149   6.540  10.187  0.3952  0.1746  0.5446
 3702SOL     OW14603   1.824   7.103   4.055 -0.2863  0.3817  0.5001
 3702SOL    HW114604   1.880   7.149   4.117  1.7877 -0.9752 -0.2535
 3702SOL    HW214605   1.863   7.120   3.970 -0.4015 -1.3970  0.0413
 3703SOL     OW14606   2.948   4.544   7.764  0.1921  0.1668 -0.2325
 3703SOL    HW114607   3.016   4.577   7.705 -0.0857 -1.1599 -1.3096
 3703SOL    HW214608   2.991   4.473   7.812 -0.1919 -0.1301 -0.3293
 3704SOL     OW14609   6.566   5.786   1.587  0.4175  0.4347 -0.0225
 3704SOL    HW114610   6.517   5.781   1.670 -1.1701 -0.5031 -0.9707
 3704SOL    HW214611   6.658   5.788   1.614 -0.0931  1.5856  1.8045
 3705SOL     OW14612  10.940   3.493  10.146 -0.1557  0.0154 -0.3111
 3705SOL    HW114613  10.847   3.472  10.135 -0.3949  1.6959 -2.0509
 3705SOL    HW214614  10.982   3.410  10.167 -1.8794 -0.9914 -0.7279
 3706SOL     OW14615   3.250   0.977   0.070 -0.6961  0.9263 -0.4572
 3706SOL    HW114616   3.220   0.908   0.129 -1.9186  0.5966 -1.4104
 3706SOL    HW214617   3.323   1.017   0.115 -0.5045 -0.4350  0.5097
 3707SOL     OW14618  10.298   6.316   4.699  0.1408  0.0330 -0.0971
 3707SOL    HW114619  10.359   6.327   4.626 -1.4508  0.8742 -1.3507
 3707SOL    HW214620  10.231   6.257   4.666 -1.3148  1.4580  0.1950
 3708SOL     OW14621   4.441   3.621   1.647  0.1652  0.1421 -0.0704
 3708SOL    HW114622   4.370   3.652   1.590  0.8041  1.2742 -0.2876
 3708SOL    HW214623   4.444   3.685   1.718 -1.8154 -2.1883  2.3220
 3709SOL     OW14624   9.873   3.974   1.446  0.5093 -0.4231  0.0429
 3709SOL    HW114625   9.947   4.030   1.471 -0.2590  0.5015  0.3245
 3709SOL    HW214626   9.796   4.024   1.473 -0.2046 -1.6861  0.3920
 3710SOL     OW14627   7.309   3.865   8.119  0.0861  0.2579  0.0280
 3710SOL    HW114628   7.382   3.811   8.090 -1.6188 -2.8347  1.1195
 3710SOL    HW214629   7.284   3.916   8.042  2.0059 -0.1685 -0.9358
 3711SOL     OW14630   0.760   8.172   5.611 -0.0455  0.1683  0.1442
 3711SOL    HW114631   0.797   8.097   5.565 -0.0017 -0.7842  1.6687
 3711SOL    HW214632   0.743   8.236   5.542  3.0090  0.0875 -0.8637
 3712SOL     OW14633   2.531   2.725   4.979  0.0491  0.0238 -0.3263
 3712SOL    HW114634   2.514   2.656   4.915 -0.1779  1.2166 -1.6204
 3712SOL    HW214635   2.444   2.759   5.001  0.2337  1.0236 -1.0473
 3713SOL     OW14636  10.648   5.245   0.905 -0.1833 -0.1186  0.3565
 3713SOL    HW114637  10.732   5.221   0.944  1.4000  1.1981 -2.0098
 3713SOL    HW214638  10.670   5.307   0.835 -3.2519  1.3035  0.4592
 3714SOL     OW14639   5.539  10.337   0.916  0.6566 -0.1409 -0.4768
 3714SOL    HW114640   5.609  10.392   0.953 -0.2502  0.0120  1.1090
 3714SOL    HW214641   5.585  10.268   0.870  1.8518  0.5027 -0.3050
 3715SOL     OW14642   4.860   0.477  10.291 -0.5847 -0.8967 -0.6749
 3715SOL    HW114643   4.792   0.521  10.341 -1.4478  0.4528 -2.8674
 3715SOL    HW214644   4.841   0.500  10.200  4.1786  1.6922 -1.3317
 3716SOL     OW14645   1.233  10.465   9.470 -0.1206 -0.2252 -0.1390
 3716SOL    HW114646   1.156  10.420   9.507 -1.6796  1.2771 -1.3912
 3716SOL    HW214647   1.234  10.438   9.378  0.0378  0.8090 -0.4525
 3717SOL     OW14648   5.596  10.592   6.391  0.6855 -0.4037 -0.6646
 3717SOL    HW114649   5.678  10.616   6.434  0.4364 -0.1100 -0.3562
 3717SOL    HW214650   5.536  10.663   6.411  0.2389 -0.7998 -0.5699
 3718SOL     OW14651   0.501   9.721   7.379 -0.0487 -0.0746 -0.3527
 3718SOL    HW114652   0.498   9.736   7.284 -0.5763 -0.2958 -0.3771
 3718SOL    HW214653   0.583   9.675   7.394  0.6687  1.0913 -0.5280
 3719SOL     OW14654   8.441   7.541   4.329 -0.3598  0.3049  0.3153
 3719SOL    HW114655   8.455   7.491   4.248  1.1131 -0.6735  1.1260
 3719SOL    HW214656   8.449   7.476   4.399 -0.7403  1.2839  1.2932
 3720SOL     OW14657   9.257   9.260   3.919  0.4241  0.4228 -0.6198
 3720SOL    HW114658   9.226   9.347   3.945 -0.2115 -0.1682  0.6761
 3720SOL    HW214659   9.295   9.273   3.833 -0.7528  1.7636 -0.9718
 3721SOL     OW14660   7.825   1.653   1.784 -0.1323 -0.8681 -0.0272
 3721SOL    HW114661   7.767   1.581   1.809 -0.4270 -0.4152  0.6553
 3721SOL    HW214662   7.773   1.705   1.722 -0.0241 -1.1007 -0.3083
 3722SOL     OW14663   4.669   5.220   1.577  0.1294  0.0635  0.1694
 3722SOL    HW114664   4.708   5.144   1.621 -0.8190 -0.4004  0.2311
 3722SOL    HW214665   4.692   5.294   1.633  0.4507 -0.2749  0.4946
 3723SOL     OW14666  10.642   8.723   4.171 -0.3832  0.1342  1.0868
 3723SOL    HW114667  10.618   8.694   4.083 -0.5742  0.3883  1.0529
 3723SOL    HW214668  10.695   8.801   4.156  0.6736 -0.5502  1.1503
 3724SOL     OW14669   8.116   6.730   5.986  0.0467  0.0122  0.2289
 3724SOL    HW114670   8.084   6.805   5.937 -1.9681 -0.8853  0.0860
 3724SOL    HW214671   8.138   6.665   5.920 -0.4558 -0.3658  0.4305
 3725SOL     OW14672   4.651   1.328   7.226  0.5990  0.1141  0.0418
 3725SOL    HW114673   4.743   1.314   7.202  0.7388 -0.9767  1.0939
 3725SOL    HW214674   4.653   1.400   7.289  0.8913 -0.6758  0.9561
 3726SOL     OW14675   6.640   2.489   6.352 -0.7670  0.3994  0.5509
 3726SOL    HW114676   6.584   2.439   6.292 -0.5269 -0.0936  0.7364
 3726SOL    HW214677   6.614   2.581   6.338  0.3177  0.4407 -1.3660
 3727SOL     OW14678   5.591   9.711   0.550  0.3402 -0.2851  0.2405
 3727SOL    HW114679   5.531   9.643   0.522  1.6742 -1.4697  0.1607
 3727SOL    HW214680   5.666   9.703   0.491  1.0507  0.4336  1.0157
 3728SOL     OW14681  10.400   0.070   0.653 -0.0901 -0.0497  0.7669
 3728SOL    HW114682  10.369   0.005   0.716  1.6480 -1.6289  0.0981
 3728SOL    HW214683  10.370   0.154   0.688 -1.2593 -1.0764  2.3748
 3729SOL     OW14684   4.792   8.198   3.462  0.4450 -0.1678  0.0922
 3729SOL    HW114685   4.758   8.109   3.455  0.1794 -0.1406  0.9168
 3729SOL    HW214686   4.862   8.193   3.527  0.9791  0.0740 -0.4576
 3730SOL     OW14687   2.175   9.385   0.611  0.2384 -0.0154  0.4462
 3730SOL    HW114688   2.089   9.347   0.596  1.1395 -2.1940  0.4999
 3730SOL    HW214689   2.157   9.478   0.629 -2.0656 -0.3995  0.4456
 3731SOL     OW14690   2.568   7.635   4.006 -1.0351  0.5577  0.0954
 3731SOL    HW114691   2.539   7.720   3.974 -1.8558 -0.0261 -0.7466
 3731SOL    HW214692   2.529   7.572   3.946 -0.8704 -0.4454  1.0130
 3732SOL     OW14693   0.946   7.461   9.510 -0.1379 -0.0322  0.1097
 3732SOL    HW114694   0.892   7.388   9.543 -1.1898  0.1779 -1.0562
 3732SOL    HW214695   1.012   7.419   9.456 -0.3257 -0.1728 -0.0143
 3733SOL     OW14696   8.639   1.837   5.383 -0.6165 -0.1414  0.2710
 3733SOL    HW114697   8.726   1.875   5.370 -0.7342  0.3947  0.9981
 3733SOL    HW214698   8.645   1.750   5.343 -0.1947  0.4367 -0.9695
 3734SOL     OW14699   9.553   4.612   7.129 -0.5093 -0.1166  0.2604
 3734SOL    HW114700   9.619   4.649   7.071 -2.3152 -0.3800 -2.0871
 3734SOL    HW214701   9.541   4.679   7.197 -1.2212  2.0964 -1.9238
 3735SOL     OW14702   3.160   4.093   7.846  0.2726 -0.3050  0.3072
 3735SOL    HW114703   3.159   4.018   7.786  0.4141 -2.0445  2.3265
 3735SOL    HW214704   3.068   4.112   7.863  0.1909  1.1794 -1.5217
 3736SOL     OW14705   9.467   2.007   9.667  0.4330  0.6936 -0.6620
 3736SOL    HW114706   9.405   1.935   9.685 -1.2826  2.2004 -0.2015
 3736SOL    HW214707   9.420   2.064   9.607  0.5587  2.8395  1.1337
 3737SOL     OW14708   9.269   5.668   5.517  0.2314 -0.3481 -0.2189
 3737SOL    HW114709   9.236   5.758   5.514 -0.7547 -0.7074 -0.1580
 3737SOL    HW214710   9.300   5.657   5.607  0.5996  0.0108 -0.2960
 3738SOL     OW14711   0.131   7.873   1.138  0.1903  0.3319  0.2935
 3738SOL    HW114712   0.091   7.933   1.076 -0.5056 -0.3670  0.0508
 3738SOL    HW214713   0.131   7.920   1.221  3.5576  2.3749 -0.6606
 3739SOL     OW14714  10.620   8.985   1.748  0.0932 -0.1848 -0.4066
 3739SOL    HW114715  10.646   8.925   1.678 -0.1262 -0.6071 -0.1295
 3739SOL    HW214716  10.695   8.987   1.807  0.3678  0.3458 -0.7598
 3740SOL     OW14717   1.600   3.294   4.782  0.0408 -0.6969 -0.3371
 3740SOL    HW114718   1.591   3.388   4.798  1.3968 -0.4830 -0.6593
 3740SOL    HW214719   1.527   3.272   4.725 -1.9841 -0.4530  1.9826
 3741SOL     OW14720   4.060   3.275   4.858 -0.4306  0.0438 -0.2534
 3741SOL    HW114721   4.003   3.321   4.919 -1.4714 -0.3022 -0.9327
 3741SOL    HW214722   4.145   3.270   4.903 -0.5749  1.6602  0.2590
 3742SOL     OW14723   3.943   6.326   4.326  0.1371 -0.0662 -0.2894
 3742SOL    HW114724   3.980   6.245   4.362  1.6375 -0.1324 -1.8343
 3742SOL    HW214725   3.928   6.306   4.233  0.9904  1.5586 -0.8163
 3743SOL     OW14726   7.422   8.357   5.481  0.3969  0.3614  0.2472
 3743SOL    HW114727   7.480   8.373   5.407  1.1269  1.2104  0.9820
 3743SOL    HW214728   7.462   8.284   5.528  0.0551 -0.0295 -0.0603
 3744SOL     OW14729   3.150   6.012   3.155 -0.0275 -0.3953  0.7161
 3744SOL    HW114730   3.212   5.947   3.186  2.2740  1.8970  1.2415
 3744SOL    HW214731   3.110   5.972   3.078  2.0474 -2.0221  0.4015
 3745SOL     OW14732   3.233   9.808   1.261 -0.0894 -0.3083 -0.3146
 3745SOL    HW114733   3.242   9.713   1.254  0.1048 -0.3015 -0.1667
 3745SOL    HW214734   3.255   9.827   1.352  0.9754 -0.0020 -0.6165
 3746SOL     OW14735   2.532  10.197   1.295  0.0594  0.2885  0.3728
 3746SOL    HW114736   2.485  10.280   1.302  0.6086  0.6435 -0.0569
 3746SOL    HW214737   2.619  10.215   1.332  0.7633  0.3899 -1.2483
 3747SOL     OW14738  10.893   4.054   4.809 -0.0214 -0.1519  0.3898
 3747SOL    HW114739  10.804   4.032   4.782 -1.2120  2.7955  1.4420
 3747SOL    HW214740  10.904   4.011   4.894 -1.1343  0.7595  1.0351
 3748SOL     OW14741   4.417   6.021   8.838 -0.2858 -0.1079 -0.6024
 3748SOL    HW114742   4.394   6.113   8.824 -1.2675 -0.3887 -0.8717
 3748SOL    HW214743   4.507   6.024   8.869 -1.2239  1.1577  2.3035
 3749SOL     OW14744   1.771   8.338   9.808  0.3278  0.0407  0.2222
 3749SOL    HW114745   1.825   8.294   9.874  0.0397 -1.5416 -0.5395
 3749SOL    HW214746   1.829   8.351   9.733 -0.0074 -0.5544 -0.1516
 3750SOL     OW14747   6.383   0.420  10.921 -0.6056  0.1282  0.5173
 3750SOL    HW114748   6.361   0.369  10.843  2.2551 -0.4536 -0.0378
 3750SOL    HW214749   6.394   0.509  10.889  1.5235 -0.2787 -0.0235
 3751SOL     OW14750   0.930   3.220   9.361  0.6783 -0.0802  0.1375
 3751SOL    HW114751   0.862   3.286   9.373  0.9205  0.4221 -1.1020
 3751SOL    HW214752   0.993   3.238   9.431  0.1300  0.1989  0.5681
 3752SOL     OW14753   5.600  10.523   7.669  0.0843  0.4662  0.3981
 3752SOL    HW114754   5.644  10.518   7.754 -0.4867  1.3933  0.7581
 3752SOL    HW214755   5.659  10.477   7.609  0.9788  0.6850  1.0904
 3753SOL     OW14756   8.757   1.459   4.497 -0.4475 -0.1621 -0.1801
 3753SOL    HW114757   8.665   1.486   4.502 -0.4842 -0.4613  1.4655
 3753SOL    HW214758   8.769   1.430   4.406 -1.0044  3.0877 -1.4258
 3754SOL     OW14759   5.385   4.553   5.906 -0.1622  0.2284 -0.0303
 3754SOL    HW114760   5.349   4.470   5.937  1.5853 -0.2795  0.7915
 3754SOL    HW214761   5.370   4.551   5.811  1.3867 -1.8884 -0.3060
 3755SOL     OW14762   7.660   6.205   7.849 -0.1132  0.0770  0.1000
 3755SOL    HW114763   7.604   6.131   7.877 -1.6227  1.7772  1.8797
 3755SOL    HW214764   7.668   6.260   7.927  2.0585  1.1837 -0.8164
 3756SOL     OW14765   4.345   7.213   8.894 -0.1807  0.1780 -0.0120
 3756SOL    HW114766   4.417   7.154   8.916  0.7512  1.6409  1.0557
 3756SOL    HW214767   4.386   7.282   8.842 -0.9498  0.6675  0.0144
 3757SOL     OW14768   1.304   1.528  10.436 -0.2026 -0.1479 -0.2432
 3757SOL    HW114769   1.296   1.527  10.340 -0.0885  2.3301 -0.3458
 3757SOL    HW214770   1.238   1.592  10.464  0.5829  0.0406  1.2452
 3758SOL     OW14771   5.462  10.741   4.132 -0.5230  0.1543 -0.1571
 3758SOL    HW114772   5.557  10.735   4.141 -0.5287 -0.9807 -0.6712
 3758SOL    HW214773   5.438  10.820   4.179  0.7784  0.9370 -0.7546
 3759SOL     OW14774   3.934   0.897   7.449 -0.3670  0.1646 -0.4013
 3759SOL    HW114775   3.961   0.811   7.481 -0.4848 -0.3739 -1.6619
 3759SOL    HW214776   4.016   0.941   7.427 -0.2647  0.6934  0.9767
 3760SOL     OW14777   5.436   0.842   3.749  0.2743 -0.4020 -0.4480
 3760SOL    HW114778   5.360   0.846   3.808  0.1209  0.3331 -0.6801
 3760SOL    HW214779   5.512   0.846   3.807  0.1299  1.2734 -0.3092
 3761SOL     OW14780  10.007   9.540   0.316  0.3005  0.0248 -0.3722
 3761SOL    HW114781  10.015   9.470   0.251 -0.8363 -1.6121  1.1669
 3761SOL    HW214782  10.066   9.514   0.387 -2.1392 -0.9123  1.4527
 3762SOL     OW14783   3.143   4.010   1.388 -0.0850  0.2768 -0.0865
 3762SOL    HW114784   3.232   4.036   1.362 -0.5337  1.7307 -0.2688
 3762SOL    HW214785   3.156   3.955   1.465  1.0551 -0.9167 -1.0675
 3763SOL     OW14786   6.297   8.869   5.262  0.1850  0.5046  0.2821
 3763SOL    HW114787   6.283   8.884   5.356 -0.7586  1.8407 -0.0396
 3763SOL    HW214788   6.246   8.791   5.242  0.0834  0.4306  0.8128
 3764SOL     OW14789   6.715   2.874   2.399 -0.6240 -0.0249  0.6039
 3764SOL    HW114790   6.790   2.864   2.458 -0.7393 -0.6099  0.6589
 3764SOL    HW214791   6.643   2.901   2.455 -0.8366 -0.9832  0.8080
 3765SOL     OW14792   7.167   1.503   2.087 -0.3415  0.7017  0.0577
 3765SOL    HW114793   7.186   1.551   2.007 -1.2675 -0.0004 -0.6060
 3765SOL    HW214794   7.168   1.570   2.156  1.1682  1.1975 -0.4095
 3766SOL     OW14795   9.250   0.736   9.927  0.4334  0.2800  1.0344
 3766SOL    HW114796   9.199   0.701   9.853  0.0262  0.8548  1.0431
 3766SOL    HW214797   9.341   0.721   9.901  0.2732 -0.6272  0.9591
 3767SOL     OW14798   4.531   2.040   1.861  0.3540 -0.3758 -0.0826
 3767SOL    HW114799   4.626   2.048   1.875  0.2871 -0.3420  0.3554
 3767SOL    HW214800   4.505   2.125   1.826  0.4009 -0.2124  0.2791
 3768SOL     OW14801   9.051   9.418   6.543 -0.7487 -0.1729  0.1334
 3768SOL    HW114802   9.043   9.405   6.449 -0.7432  0.1701  0.0857
 3768SOL    HW214803   9.133   9.465   6.554  0.2917 -1.9636  0.4728
 3769SOL     OW14804   9.659  10.450   8.127 -0.2227  0.5871  0.1533
 3769SOL    HW114805   9.684  10.525   8.074 -1.0460  0.5089 -0.3646
 3769SOL    HW214806   9.656  10.377   8.066  3.3592 -0.5706  1.0979
 3770SOL     OW14807   4.945   5.794   6.833 -0.1494  0.0331  0.1769
 3770SOL    HW114808   4.869   5.825   6.881 -1.0461 -2.4611  0.5146
 3770SOL    HW214809   4.921   5.804   6.741  0.0345  1.2919  0.2528
 3771SOL     OW14810   0.265   8.675   5.439 -0.1470  0.0384  0.1066
 3771SOL    HW114811   0.270   8.695   5.532 -1.0512 -0.9800  0.3960
 3771SOL    HW214812   0.334   8.728   5.399  1.2374 -0.5935  1.5454
 3772SOL     OW14813   1.575   2.028   1.139  0.4631  0.1796 -0.3670
 3772SOL    HW114814   1.538   2.041   1.227 -1.4417  2.3489 -1.3862
 3772SOL    HW214815   1.534   1.947   1.108  0.5803 -0.2053  0.4477
 3773SOL     OW14816   6.106   2.453   6.127 -0.1043  0.3054 -0.7951
 3773SOL    HW114817   6.127   2.544   6.107 -0.1903  0.6959  0.7201
 3773SOL    HW214818   6.032   2.459   6.188 -1.1900 -0.8536 -1.9455
 3774SOL     OW14819   9.146   6.036   1.746 -0.5041 -0.1548 -0.4111
 3774SOL    HW114820   9.147   6.124   1.709  0.0020  0.0479  0.0754
 3774SOL    HW214821   9.084   6.042   1.819  0.1533  0.0174  0.1393
 3775SOL     OW14822   9.054   8.760   2.117  0.2071 -0.2783  0.1118
 3775SOL    HW114823   9.115   8.687   2.122  1.2205  0.5076 -0.3306
 3775SOL    HW214824   8.989   8.743   2.186 -0.0901 -2.0167 -0.5500
 3776SOL     OW14825   8.210   4.568   8.257  0.6143 -0.3306  0.1564
 3776SOL    HW114826   8.199   4.663   8.262  1.5442 -0.2878  2.8245
 3776SOL    HW214827   8.218   4.550   8.163 -1.5182  1.9494 -0.5856
 3777SOL     OW14828   4.051   6.185  10.744 -0.0145  0.4444 -0.1791
 3777SOL    HW114829   4.076   6.264  10.793 -0.4815  0.9520 -0.7529
 3777SOL    HW214830   4.098   6.114  10.788  2.7213  1.3827 -1.3727
 3778SOL     OW14831   2.310   7.158   9.013  0.3432 -0.2009  0.5118
 3778SOL    HW114832   2.355   7.194   9.089  1.1235 -2.5612  1.2530
 3778SOL    HW214833   2.364   7.185   8.938 -0.8124  2.7352  0.6011
 3779SOL     OW14834   5.050   6.789   8.222  0.0687  0.0752 -0.4569
 3779SOL    HW114835   5.114   6.729   8.260  0.1020 -0.0408 -0.6923
 3779SOL    HW214836   4.982   6.733   8.186 -0.4288  0.2186  0.2495
 3780SOL     OW14837   4.172  10.711   2.642  0.5953  0.7092  0.4101
 3780SOL    HW114838   4.141  10.781   2.700  1.6996  2.5658 -1.1285
 3780SOL    HW214839   4.236  10.753   2.585  0.8027 -1.4229 -1.0684
 3781SOL     OW14840  10.740   9.587   1.777  0.7177  0.2533 -0.0988
 3781SOL    HW114841  10.812   9.630   1.823  1.1936 -0.3921 -0.2294
 3781SOL    HW214842  10.697   9.534   1.845 -0.2179  1.3615  0.1915
 3782SOL     OW14843  10.442   5.097   1.694 -0.2165  0.0137  0.2068
 3782SOL    HW114844  10.515   5.111   1.635 -0.7393 -0.2881 -0.5299
 3782SOL    HW214845  10.472   5.027   1.753 -0.9501 -2.3427 -2.0152
 3783SOL     OW14846   9.060   1.072   3.602  0.6326  0.0001 -0.1762
 3783SOL    HW114847   9.016   1.147   3.562  0.7757 -0.0149 -0.3623
 3783SOL    HW214848   9.051   1.002   3.537 -3.7219 -1.6512  1.8230
 3784SOL     OW14849   5.202   2.262   8.092  0.5647 -0.5909 -0.9669
 3784SOL    HW114850   5.189   2.291   8.183  0.0342  0.4613 -1.3640
 3784SOL    HW214851   5.297   2.260   8.081  0.6267 -0.1050 -0.5753
 3785SOL     OW14852   4.731   0.254   9.379  0.1140 -0.4988  0.5900
 3785SOL    HW114853   4.816   0.275   9.340 -0.3712  0.2902 -0.0808
 3785SOL    HW214854   4.718   0.321   9.446  0.6759 -1.5018  1.7401
 3786SOL     OW14855   1.625   9.622   6.667  0.3300  0.3010  0.2697
 3786SOL    HW114856   1.616   9.642   6.574 -0.5192  0.0746  0.2993
 3786SOL    HW214857   1.685   9.547   6.670  0.6755  0.5595 -0.0610
 3787SOL     OW14858   0.643   8.082   5.849 -0.1471 -0.9391  0.2852
 3787SOL    HW114859   0.553   8.050   5.855 -0.7145  0.6054  0.4526
 3787SOL    HW214860   0.652   8.111   5.758 -0.0218 -0.5120  0.4350
 3788SOL     OW14861   1.147   1.081   5.641  0.3148 -0.3118 -0.1647
 3788SOL    HW114862   1.085   1.031   5.692 -0.0818  0.4362  0.1027
 3788SOL    HW214863   1.202   1.015   5.598  0.3023 -0.9501  0.7806
 3789SOL     OW14864  10.491   9.016   9.631  0.2963 -0.0336 -1.1320
 3789SOL    HW114865  10.412   9.010   9.577  0.0920  0.8355 -0.9572
 3789SOL    HW214866  10.486   9.103   9.670 -0.1360 -1.0460  1.2144
 3790SOL     OW14867   8.446   7.964   0.283  0.1561 -0.3385 -0.4491
 3790SOL    HW114868   8.479   8.052   0.269 -2.2002  1.4741  3.5873
 3790SOL    HW214869   8.405   7.940   0.200 -0.0830  2.8700 -1.3741
 3791SOL     OW14870   5.031   8.781  10.217 -0.5031 -0.2557  0.1809
 3791SOL    HW114871   4.946   8.760  10.256 -0.3077  1.4993  1.6871
 3791SOL    HW214872   5.018   8.867  10.178 -0.4023 -1.5349 -2.9373
 3792SOL     OW14873   3.899   8.989   0.046  0.3710 -0.2989  0.2377
 3792SOL    HW114874   3.856   8.917   0.092 -1.9766  1.3392  0.7939
 3792SOL    HW214875   3.858   8.990  -0.041 -0.3159  0.8849  0.5501
 3793SOL     OW14876   1.865   7.154  11.002  0.3152 -0.4984  0.1031
 3793SOL    HW114877   1.901   7.067  10.981 -1.0965 -1.2634  0.7296
 3793SOL    HW214878   1.930   7.193  11.060  2.2269 -0.0480 -2.1687
 3794SOL     OW14879   0.148  10.031  10.426 -0.0698  0.6018  0.2921
 3794SOL    HW114880   0.081   9.967  10.400  1.0120 -0.3891 -0.1314
 3794SOL    HW214881   0.223   9.977  10.451  0.5348  1.6967  0.8848
 3795SOL     OW14882  10.664   2.288   9.559  0.4425  0.0678  0.1195
 3795SOL    HW114883  10.727   2.237   9.509  1.3278  0.2989  0.9643
 3795SOL    HW214884  10.579   2.269   9.518  1.1523  0.4866 -1.6399
 3796SOL     OW14885   8.253   6.717   6.971 -0.4211 -0.2512  0.1561
 3796SOL    HW114886   8.174   6.664   6.968 -0.4042 -0.2345 -0.9464
 3796SOL    HW214887   8.262   6.742   7.063 -1.2702 -0.8811  0.4179
 3797SOL     OW14888   4.588   6.149  10.791 -0.9302  0.0244  0.0016
 3797SOL    HW114889   4.609   6.236  10.760 -0.5619 -0.0794 -0.0483
 3797SOL    HW214890   4.495   6.153  10.815 -0.9090  0.4311  0.0166
 3798SOL     OW14891   6.137   2.382   4.319 -0.4574 -0.2112 -0.4930
 3798SOL    HW114892   6.158   2.402   4.411 -1.3555 -1.0975 -0.0762
 3798SOL    HW214893   6.219   2.346   4.284 -0.5908 -1.5349  0.4792
 3799SOL     OW14894   1.973   1.745   9.558  0.7070 -0.3146  0.0603
 3799SOL    HW114895   2.013   1.824   9.522  1.2772 -1.3532 -1.7182
 3799SOL    HW214896   1.910   1.717   9.492 -0.4907 -0.6270  1.2752
 3800SOL     OW14897   3.836   7.765   8.786  0.6927 -0.1409 -0.0874
 3800SOL    HW114898   3.901   7.808   8.730  0.5226  0.6142  0.2782
 3800SOL    HW214899   3.781   7.717   8.726  2.1690 -1.6148 -0.3387
 3801SOL     OW14900   0.241   7.200   7.558 -0.0072 -0.2548 -0.4178
 3801SOL    HW114901   0.297   7.131   7.594  0.5209 -0.4323 -1.5570
 3801SOL    HW214902   0.256   7.198   7.464 -0.4007  1.0589 -0.5362
 3802SOL     OW14903   1.757   8.017   1.901  0.6476  0.8938  0.4750
 3802SOL    HW114904   1.705   8.010   1.981  0.4359  0.6106  0.3164
 3802SOL    HW214905   1.731   8.101   1.862 -0.2903  0.3974 -0.0112
 3803SOL     OW14906   0.401   6.278   9.217 -0.2709  0.2067  0.0643
 3803SOL    HW114907   0.309   6.296   9.237 -0.5214  0.3435 -1.1063
 3803SOL    HW214908   0.429   6.354   9.166 -0.1198 -0.7403 -1.3322
 3804SOL     OW14909   0.876   2.576   8.925  0.2654 -0.0660  0.0218
 3804SOL    HW114910   0.825   2.505   8.887  3.2898 -2.8539  0.7038
 3804SOL    HW214911   0.813   2.647   8.939 -2.7948 -2.2967 -1.3967
 3805SOL     OW14912   2.834  10.069   6.433  0.3808 -0.4128 -0.1450
 3805SOL    HW114913   2.827  10.148   6.381 -1.8307 -0.8862 -0.6639
 3805SOL    HW214914   2.877  10.006   6.376  0.8148 -0.0307 -0.2473
 3806SOL     OW14915   5.614   4.420   9.801  0.1673  0.4530  0.0458
 3806SOL    HW114916   5.556   4.484   9.761 -0.3696  0.0876  0.2263
 3806SOL    HW214917   5.654   4.373   9.727  0.4069  0.8535 -0.0814
 3807SOL     OW14918   9.081   0.741   3.797  0.3125  0.3806  0.5179
 3807SOL    HW114919   9.063   0.683   3.872 -0.2305  1.3348  1.1353
 3807SOL    HW214920   9.085   0.681   3.722 -2.6986 -0.2325  0.7401
 3808SOL     OW14921   9.986   5.689   7.442  0.4741  0.3188 -0.3996
 3808SOL    HW114922  10.066   5.639   7.427  0.5931  0.0036  1.1608
 3808SOL    HW214923   9.922   5.650   7.382  0.5251 -1.8307  0.8472
 3809SOL     OW14924   2.806   6.140   5.863  0.2908  0.2856  0.5113
 3809SOL    HW114925   2.845   6.065   5.818  0.3137  0.7215 -0.2135
 3809SOL    HW214926   2.715   6.115   5.877 -0.2435  0.9201 -1.5868
 3810SOL     OW14927  10.207   3.707   1.424 -0.5523  0.1813  0.0642
 3810SOL    HW114928  10.159   3.781   1.386  1.5372  1.8161  0.4106
 3810SOL    HW214929  10.143   3.665   1.482 -2.2353  0.7948 -1.2373
 3811SOL     OW14930   6.749   5.555   8.645 -0.5311 -0.0306 -0.4147
 3811SOL    HW114931   6.708   5.588   8.725 -0.1603  1.0189 -0.6507
 3811SOL    HW214932   6.679   5.556   8.580 -0.8307 -0.8767 -0.1265
 3812SOL     OW14933   3.934   6.964   4.592 -0.7029 -0.2392 -0.7690
 3812SOL    HW114934   3.868   6.896   4.597  0.2266 -1.0849  1.8366
 3812SOL    HW214935   3.912   7.025   4.663  1.5963 -0.9402  0.6847
 3813SOL     OW14936   9.627   2.399   1.936  0.4213 -0.4101  0.8534
 3813SOL    HW114937   9.614   2.494   1.936 -1.9419 -0.6123 -1.9570
 3813SOL    HW214938   9.722   2.389   1.941  0.8890  2.1876 -0.7077
 3814SOL     OW14939   7.402   0.885   0.185 -0.0315 -0.3533  0.0489
 3814SOL    HW114940   7.488   0.849   0.163 -0.6361 -1.3512 -0.7579
 3814SOL    HW214941   7.340   0.818   0.157 -1.1431  0.8229 -0.3784
 3815SOL     OW14942   9.580  10.143   5.027 -0.0295  0.4326  0.5284
 3815SOL    HW114943   9.549  10.064   5.072  0.1802  0.2119  0.2871
 3815SOL    HW214944   9.671  10.152   5.055  1.2937 -1.7155 -2.5159
 3816SOL     OW14945   2.690   7.413   8.578 -1.1126  0.0422 -0.0203
 3816SOL    HW114946   2.740   7.467   8.518 -1.5172  0.2312 -0.1896
 3816SOL    HW214947   2.650   7.346   8.522  2.0793 -2.6130  0.5121
 3817SOL     OW14948   6.343  10.041   3.141  0.0227 -0.3660 -0.5940
 3817SOL    HW114949   6.305  10.050   3.229  1.7902  0.2889  0.1361
 3817SOL    HW214950   6.375   9.951   3.139 -1.3322 -0.8685 -1.1540
 3818SOL     OW14951  10.411   4.128   7.569  0.3992 -0.2196 -0.0919
 3818SOL    HW114952  10.454   4.076   7.636 -2.1600  0.6593  2.4542
 3818SOL    HW214953  10.457   4.212   7.569  0.9652 -0.5323 -0.0740
 3819SOL     OW14954   8.885   1.093  10.863 -0.6019  0.3167 -0.2678
 3819SOL    HW114955   8.903   1.136  10.779 -0.7063  0.5192 -0.1872
 3819SOL    HW214956   8.890   1.164  10.927  1.4137 -0.1423  0.1671
 3820SOL     OW14957   1.483   2.296   5.212 -0.1804  0.0242  0.1553
 3820SOL    HW114958   1.509   2.297   5.120  0.6871  0.4945  0.3932
 3820SOL    HW214959   1.493   2.205   5.239 -1.0161 -0.2376 -0.3552
 3821SOL     OW14960  10.118   6.911   0.137  0.0073  0.0178 -0.1088
 3821SOL    HW114961  10.196   6.862   0.163  0.1300 -0.1897 -0.8437
 3821SOL    HW214962  10.045   6.861   0.174  0.2048  0.0296  0.3004
 3822SOL     OW14963   8.587   2.327   1.014 -0.1455  0.0212  0.1850
 3822SOL    HW114964   8.629   2.287   1.090 -2.5622 -0.9631  1.1073
 3822SOL    HW214965   8.501   2.356   1.046 -1.6013 -1.1794 -2.3197
 3823SOL     OW14966   2.399   7.857   1.542 -0.4676  0.0819 -0.1164
 3823SOL    HW114967   2.427   7.894   1.458 -2.9898  0.7648 -0.7360
 3823SOL    HW214968   2.306   7.877   1.547 -0.3956  0.0930  2.9003
 3824SOL     OW14969   8.823  10.641   4.316  0.1906 -0.0662 -0.3725
 3824SOL    HW114970   8.768  10.706   4.271  1.4006  2.0597  1.0185
 3824SOL    HW214971   8.777  10.626   4.399 -0.4300 -1.5888 -0.9539
 3825SOL     OW14972   5.003   9.392  10.127  0.0089 -0.3677  1.1668
 3825SOL    HW114973   4.989   9.483  10.154  2.2653  0.7138 -0.8179
 3825SOL    HW214974   5.078   9.397  10.068  0.3767 -3.6065  1.2016
 3826SOL     OW14975   1.478   2.645   2.670 -0.5526  0.4685  1.0072
 3826SOL    HW114976   1.543   2.577   2.652 -0.1366  0.6031  1.9349
 3826SOL    HW214977   1.395   2.597   2.676 -0.6077  0.3295 -0.4508
 3827SOL     OW14978   6.860   5.924   2.240  0.6709  0.1331  0.1634
 3827SOL    HW114979   6.911   5.919   2.321  1.1566  0.1831 -0.1382
 3827SOL    HW214980   6.777   5.965   2.267  1.2768  1.2390  0.4273
 3828SOL     OW14981   5.726   5.764   9.983  0.3269 -0.7528  0.4723
 3828SOL    HW114982   5.787   5.838   9.976 -0.3263 -0.2923 -0.5796
 3828SOL    HW214983   5.749   5.707   9.910 -2.2008  0.7580 -1.6764
 3829SOL     OW14984   2.976   8.750   7.044 -0.7031 -0.2636 -0.2144
 3829SOL    HW114985   3.056   8.754   7.095 -0.8369  0.7868 -0.0788
 3829SOL    HW214986   2.950   8.658   7.047 -0.5168 -0.2812  1.3045
 3830SOL     OW14987   6.057  10.273   3.484 -0.1496  0.0368 -0.2211
 3830SOL    HW114988   6.142  10.316   3.485  0.5020 -1.1965 -0.2446
 3830SOL    HW214989   5.993  10.345   3.484  0.8661  0.9859  0.9839
 3831SOL     OW14990   0.346   6.048   8.510 -0.0114 -0.3063 -0.3872
 3831SOL    HW114991   0.387   5.976   8.557 -0.0833 -0.1583 -0.0956
 3831SOL    HW214992   0.404   6.064   8.435 -0.4280 -1.1985 -0.9093
 3832SOL     OW14993   9.537   5.472   0.784 -0.2038  0.0666  0.0601
 3832SOL    HW114994   9.443   5.473   0.764 -0.2008 -0.2845  0.0178
 3832SOL    HW214995   9.579   5.504   0.704 -0.4125  2.6680  0.9020
 3833SOL     OW14996   8.079   8.187   4.064  0.6507  0.3354 -0.2924
 3833SOL    HW114997   8.086   8.138   4.145 -2.4936 -0.8662 -0.6099
 3833SOL    HW214998   8.134   8.139   4.002 -1.0061 -1.9054 -0.1452
 3834SOL     OW14999   1.430   9.149   9.673  0.4819 -0.2918  0.1259
 3834SOL    HW115000   1.513   9.192   9.695  0.2872  0.7674 -1.1138
 3834SOL    HW215001   1.421   9.161   9.579 -1.4770  0.3578  0.3594
 3835SOL     OW15002   0.636   7.364   4.162 -0.1682  0.1614  0.5588
 3835SOL    HW115003   0.683   7.341   4.242  0.2261 -0.4137  0.1709
 3835SOL    HW215004   0.612   7.279   4.124 -3.1065  0.3782  1.6484
 3836SOL     OW15005   1.914   8.826   9.510  0.3438 -0.0639  0.1548
 3836SOL    HW115006   1.902   8.732   9.500 -1.1866  0.2524 -1.6574
 3836SOL    HW215007   1.925   8.840   9.604  0.8231 -2.0545  0.4281
 3837SOL     OW15008   1.091   0.549   4.750  0.4326  0.1199 -0.1131
 3837SOL    HW115009   1.059   0.487   4.685 -0.6177  0.2588  0.2539
 3837SOL    HW215010   1.141   0.495   4.811 -0.6021 -0.4237  0.2944
 3838SOL     OW15011   5.063   5.946   4.631 -0.2421 -0.7069 -0.4625
 3838SOL    HW115012   4.972   5.944   4.661 -0.9874  1.3133 -2.3318
 3838SOL    HW215013   5.115   5.935   4.711 -2.1065  1.2529  1.1309
 3839SOL     OW15014   7.349  10.848   6.092 -0.0383 -0.4146  0.1340
 3839SOL    HW115015   7.308  10.816   6.011  1.0851 -0.2741 -0.5140
 3839SOL    HW215016   7.297  10.924   6.117 -0.2681 -0.3307 -0.5821
 3840SOL     OW15017   4.335  10.265  10.981 -0.0409  1.1875 -0.0138
 3840SOL    HW115018   4.358  10.254  10.889 -0.2335  0.6150  0.0009
 3840SOL    HW215019   4.396  10.332  11.013  2.7013 -1.2479  0.3637
 3841SOL     OW15020   1.749   0.813   9.500  0.4018  0.4704 -0.3181
 3841SOL    HW115021   1.663   0.799   9.459  0.7825 -2.2637 -0.3913
 3841SOL    HW215022   1.808   0.828   9.426  0.2939  0.4002 -0.4210
 3842SOL     OW15023   1.981   8.849   9.785  0.6298  0.3107 -0.4278
 3842SOL    HW115024   2.061   8.901   9.795  0.6801  0.8298 -2.8548
 3842SOL    HW215025   2.012   8.765   9.751  0.2249  0.2624 -0.6814
 3843SOL     OW15026   3.152   1.920   5.744  0.1742 -0.1666  0.1283
 3843SOL    HW115027   3.231   1.921   5.799  1.8417 -1.0063 -2.1013
 3843SOL    HW215028   3.149   1.831   5.709 -0.1559  0.6313 -2.0024
 3844SOL     OW15029   2.017   5.434   3.729 -0.7184  0.2338 -0.1332
 3844SOL    HW115030   1.966   5.470   3.656 -0.4311 -0.0892 -0.4952
 3844SOL    HW215031   2.003   5.497   3.801 -0.8768  0.6338 -0.5092
 3845SOL     OW15032  10.273   9.090   3.141  0.8024 -0.4147 -0.1789
 3845SOL    HW115033  10.273   9.083   3.045 -0.8909 -2.2503 -0.1110
 3845SOL    HW215034  10.321   9.013   3.170 -2.0320 -2.1193  0.4184
 3846SOL     OW15035   6.989   3.277   0.738  0.2280 -0.0802  0.3436
 3846SOL    HW115036   7.035   3.261   0.656 -0.3265 -1.8196  0.3423
 3846SOL    HW215037   6.906   3.317   0.713  1.2595  2.1965  0.2906
 3847SOL     OW15038   4.814   7.468   1.258  0.0616 -0.4150  0.3945
 3847SOL    HW115039   4.723   7.486   1.279 -0.0653  2.3898 -1.8810
 3847SOL    HW215040   4.811   7.430   1.170  1.1207  0.3213  0.0279
 3848SOL     OW15041   5.963   9.253   4.059  0.9247 -0.0425  0.0690
 3848SOL    HW115042   5.951   9.224   3.969  1.1836  1.1388 -0.3634
 3848SOL    HW215043   6.006   9.179   4.102  0.2032 -0.8748 -0.5933
 3849SOL     OW15044   2.970   0.740   8.274  0.1020  0.1479 -0.1000
 3849SOL    HW115045   2.926   0.657   8.259  0.6619  0.0430 -1.2478
 3849SOL    HW215046   2.910   0.790   8.329 -1.6949  0.1970 -2.0110
 3850SOL     OW15047   2.042   3.288   4.254 -0.1290  0.0714  0.0955
 3850SOL    HW115048   2.122   3.311   4.207  0.0374 -1.1110 -0.2385
 3850SOL    HW215049   2.031   3.194   4.238  0.3966 -0.6199  3.0693
 3851SOL     OW15050   2.430   8.978   4.633 -0.2140 -0.1739 -0.0920
 3851SOL    HW115051   2.351   8.925   4.626 -0.9604  0.6413  1.6752
 3851SOL    HW215052   2.427   9.037   4.558 -1.0151 -0.5017 -0.3236
 3852SOL     OW15053   7.720   5.303  10.920  0.0698 -0.5909 -0.1013
 3852SOL    HW115054   7.709   5.346  10.836  1.5189  1.9832  0.8982
 3852SOL    HW215055   7.641   5.251  10.932  0.0977 -1.5265 -3.2643
 3853SOL     OW15056  10.505   1.224   2.271  0.1707  0.0799  0.1551
 3853SOL    HW115057  10.526   1.138   2.306 -0.1742 -0.7776 -1.6388
 3853SOL    HW215058  10.479   1.275   2.348  0.1212 -1.4770  1.2254
 3854SOL     OW15059   2.952   1.251  10.117 -0.1497 -0.3801 -0.2030
 3854SOL    HW115060   2.946   1.222  10.026  0.0650  0.1174 -0.3807
 3854SOL    HW215061   3.027   1.202  10.152  0.6691  0.4622 -0.7092
 3855SOL     OW15062   2.311   7.079   1.369  0.5518 -0.2314  0.0978
 3855SOL    HW115063   2.304   7.136   1.445  0.5489 -0.6784  0.4380
 3855SOL    HW215064   2.260   7.123   1.301  0.3114  0.0231  0.4385
 3856SOL     OW15065   4.345   3.735   5.798 -0.3800  0.0312 -0.5136
 3856SOL    HW115066   4.370   3.643   5.798 -0.6486 -0.0617  0.5799
 3856SOL    HW215067   4.258   3.736   5.760 -0.7924 -0.3164  0.3770
 3857SOL     OW15068   5.987   1.051   0.198  0.0468  0.5776  0.1754
 3857SOL    HW115069   5.920   1.078   0.135  0.5394 -0.3775 -0.7992
 3857SOL    HW215070   5.960   1.090   0.281 -0.2007  2.5561 -0.7843
 3858SOL     OW15071   3.787   7.022   9.440 -0.1777  0.4320 -0.4449
 3858SOL    HW115072   3.814   6.995   9.352 -1.1125 -1.8875 -0.0626
 3858SOL    HW215073   3.699   7.057   9.428 -0.1406  0.5148 -0.4817
 3859SOL     OW15074   6.404   1.621   4.003  0.0353 -0.5693  0.6203
 3859SOL    HW115075   6.343   1.686   3.968  1.6004  0.2063 -0.8432
 3859SOL    HW215076   6.372   1.537   3.970 -0.2392 -0.1764 -0.1369
 3860SOL     OW15077   5.012   3.119   2.315  0.5420 -0.5553  0.3165
 3860SOL    HW115078   5.033   3.031   2.286  1.8998 -0.2018  0.1686
 3860SOL    HW215079   5.057   3.177   2.254  0.4583  0.2322  0.9719
 3861SOL     OW15080   7.033  10.107   2.236  0.1025  0.0675  0.3184
 3861SOL    HW115081   6.972  10.180   2.237  0.9933  0.8551  2.3432
 3861SOL    HW215082   7.099  10.130   2.171 -1.0752 -0.2641 -1.0480
 3862SOL     OW15083   9.213  10.489   0.352 -0.4598 -0.4111  0.2488
 3862SOL    HW115084   9.239  10.397   0.348 -0.8955 -0.4850 -1.6864
 3862SOL    HW215085   9.287  10.534   0.392  1.5887 -1.0095 -2.6084
 3863SOL     OW15086   7.302   2.493   1.625 -0.1831 -0.7062  0.0679
 3863SOL    HW115087   7.220   2.456   1.657  0.2945 -0.7635  1.2582
 3863SOL    HW215088   7.310   2.577   1.670  0.7442 -1.0156  0.5155
 3864SOL     OW15089   0.060   7.918   5.252  0.1514 -0.2999  0.0728
 3864SOL    HW115090  -0.025   7.952   5.223  0.4575 -0.4962 -1.1054
 3864SOL    HW215091   0.047   7.823   5.258  0.1880 -0.2934  0.2699
 3865SOL     OW15092  10.222   2.006   1.127  0.0586 -0.0026 -0.2617
 3865SOL    HW115093  10.230   1.915   1.155  4.3567  0.6905  1.5209
 3865SOL    HW215094  10.243   2.057   1.205 -0.9094  2.5227 -1.5448
 3866SOL     OW15095   9.729   6.029  10.807 -0.1155  0.9982  0.6372
 3866SOL    HW115096   9.741   6.109  10.859 -0.1012  0.7120  1.0819
 3866SOL    HW215097   9.780   6.044  10.728  0.7419  1.0140  1.1762
 3867SOL     OW15098   5.408   6.348   8.076 -0.3767 -0.0692 -0.0903
 3867SOL    HW115099   5.401   6.279   8.142 -0.6429 -1.0027 -1.0671
 3867SOL    HW215100   5.395   6.303   7.993  1.9067  0.7231 -0.9604
 3868SOL     OW15101  10.970   2.220   0.258 -0.0214 -0.4198 -0.7734
 3868SOL    HW115102  11.048   2.266   0.228  0.4648 -0.4961  0.2982
 3868SOL    HW215103  10.969   2.139   0.207  0.4238 -0.2695 -1.0310
 3869SOL     OW15104   2.142   8.326   6.852  0.0422  0.1024 -0.2623
 3869SOL    HW115105   2.123   8.276   6.932  0.0000  0.1910 -0.2172
 3869SOL    HW215106   2.192   8.401   6.882 -3.2062  2.2859  0.2706
 3870SOL     OW15107   9.566   3.835   9.021  0.1052 -1.0289 -0.0491
 3870SOL    HW115108   9.615   3.889   9.083 -0.1993 -0.3656 -0.3762
 3870SOL    HW215109   9.513   3.898   8.971  0.3288 -1.5510 -0.9651
 3871SOL     OW15110   0.967   4.377   8.784  0.3712 -0.8713  0.4435
 3871SOL    HW115111   0.881   4.385   8.743  0.1070 -0.2569  1.1134
 3871SOL    HW215112   1.007   4.301   8.741 -1.2591 -2.3672  1.4562
 3872SOL     OW15113  10.861   4.478   6.886  0.3305  0.1748  0.2699
 3872SOL    HW115114  10.780   4.522   6.863 -0.9370 -2.1870 -0.1905
 3872SOL    HW215115  10.863   4.478   6.981  0.2459  1.0099  0.2730
 3873SOL     OW15116   1.645   2.006   2.123  0.1714 -0.9349 -0.8527
 3873SOL    HW115117   1.657   1.971   2.211  1.2239 -0.7696 -0.9212
 3873SOL    HW215118   1.582   2.078   2.135 -1.7983 -2.5940 -0.6728
 3874SOL     OW15119   9.752   8.589  10.498  0.4996  0.3478 -0.1339
 3874SOL    HW115120   9.725   8.532  10.426 -0.2499 -0.3506  0.6835
 3874SOL    HW215121   9.786   8.530  10.565  2.5834  1.0921 -0.4606
 3875SOL     OW15122   7.834   5.924   6.463 -0.4041  0.2401  0.3982
 3875SOL    HW115123   7.808   5.957   6.377  0.8050  0.7889  0.2213
 3875SOL    HW215124   7.877   5.841   6.446 -0.9508 -0.0859  0.5728
 3876SOL     OW15125   1.019   2.419   1.887  0.0365 -0.0542  0.1488
 3876SOL    HW115126   1.109   2.452   1.884  0.4053 -1.0536 -1.6799
 3876SOL    HW215127   0.981   2.446   1.804 -1.3132  0.1846  0.8207
 3877SOL     OW15128   1.273   8.890   3.424 -0.0245 -0.2383 -0.1071
 3877SOL    HW115129   1.261   8.858   3.514 -0.6292 -0.7358 -0.3602
 3877SOL    HW215130   1.252   8.814   3.369 -0.4198  0.2903 -0.6890
 3878SOL     OW15131   4.910   3.735   7.674 -0.0152  0.3684 -0.2507
 3878SOL    HW115132   4.820   3.749   7.703 -0.0017 -1.5638  0.8334
 3878SOL    HW215133   4.901   3.700   7.585 -0.4044 -0.7063  0.1941
 3879SOL     OW15134   9.676   1.673   3.500 -0.0473 -0.6402 -0.1748
 3879SOL    HW115135   9.722   1.641   3.578 -0.4891  0.1213  0.3992
 3879SOL    HW215136   9.732   1.743   3.466 -0.7121  0.2154  0.4632
 3880SOL     OW15137   4.752   3.141   8.959  0.4091  0.4207 -0.4655
 3880SOL    HW115138   4.676   3.198   8.953 -0.2926 -0.2705  1.2361
 3880SOL    HW215139   4.720   3.056   8.930  0.3421 -0.0069  0.8026
 3881SOL     OW15140   5.379   5.430   5.732 -0.2140 -0.0472  0.2690
 3881SOL    HW115141   5.420   5.450   5.648  1.5019  2.3344  1.5684
 3881SOL    HW215142   5.286   5.445   5.718  0.1898  1.5357 -0.8904
 3882SOL     OW15143   6.646   5.212   0.201 -0.2673 -0.4676  0.3157
 3882SOL    HW115144   6.741   5.218   0.191 -0.2709 -0.2167  0.4382
 3882SOL    HW215145   6.617   5.302   0.212 -0.4739 -0.5794  0.7107
 3883SOL     OW15146   4.673   5.908   0.058  0.4617 -0.5745  0.2089
 3883SOL    HW115147   4.672   5.877  -0.033 -0.9396  0.7337 -0.2594
 3883SOL    HW215148   4.728   5.844   0.104 -0.2947 -2.3307 -1.1874
 3884SOL     OW15149   8.792   3.781   3.041 -0.5388 -0.5991 -0.1573
 3884SOL    HW115150   8.763   3.824   2.960 -0.5012 -1.1963 -0.4994
 3884SOL    HW215151   8.711   3.759   3.087 -0.6361 -1.8178 -0.8729
 3885SOL     OW15152   2.831   4.666   4.905  0.0603 -0.0077 -0.1754
 3885SOL    HW115153   2.841   4.719   4.984  0.2016 -1.0174  0.5044
 3885SOL    HW215154   2.741   4.633   4.909  0.6060 -1.5081  0.5242
 3886SOL     OW15155   7.906   0.369   5.235 -0.0127 -0.7278  0.7230
 3886SOL    HW115156   7.984   0.373   5.180  0.4226  2.6813  1.3787
 3886SOL    HW215157   7.833   0.365   5.173  0.5700  0.0409 -0.0278
 3887SOL     OW15158   3.883   7.819  10.872  0.0848  0.0534  0.0260
 3887SOL    HW115159   3.912   7.737  10.911  0.2654 -0.6020 -1.4232
 3887SOL    HW215160   3.831   7.793  10.796  0.9256  1.2693 -1.0134
 3888SOL     OW15161   3.608   0.263   6.160  0.0191  0.0851 -0.5003
 3888SOL    HW115162   3.656   0.181   6.161  1.1242  0.6832 -1.3327
 3888SOL    HW215163   3.519   0.239   6.136  0.2829 -0.8763 -0.5528
 3889SOL     OW15164  10.852   5.238  10.657  0.0695 -0.5363  0.2313
 3889SOL    HW115165  10.797   5.288  10.718  0.9279 -0.5251  1.0088
 3889SOL    HW215166  10.855   5.150  10.693  1.3467 -0.3043  0.7376
 3890SOL     OW15167   0.167  10.698   3.611  0.3289  0.3370  0.2221
 3890SOL    HW115168   0.171  10.697   3.516 -0.5129  1.2315  0.1592
 3890SOL    HW215169   0.205  10.614   3.638  0.0505 -0.1716 -0.9206
 3891SOL     OW15170   2.632   6.634   1.801 -0.0946  0.2096 -0.3251
 3891SOL    HW115171   2.715   6.622   1.849 -0.9047  0.0701  1.0945
 3891SOL    HW215172   2.617   6.729   1.804 -0.8391  0.0734  0.9591
 3892SOL     OW15173   7.219   0.435   5.564  0.3833  0.0412  0.5701
 3892SOL    HW115174   7.273   0.398   5.634  0.3245 -0.1835  0.4964
 3892SOL    HW215175   7.236   0.529   5.568 -0.3053  0.1373  1.4617
 3893SOL     OW15176  10.968   1.965   1.113  0.5994 -0.0082 -0.8034
 3893SOL    HW115177  10.873   1.969   1.123  0.6801  0.0775 -0.0104
 3893SOL    HW215178  10.982   1.933   1.024 -0.1700  1.8359 -1.6467
 3894SOL     OW15179   9.798   8.146   2.745  1.2489 -0.1683 -0.1385
 3894SOL    HW115180   9.817   8.067   2.693 -0.2358 -1.0616  0.6018
 3894SOL    HW215181   9.759   8.207   2.683  0.8812 -0.6534 -0.3917
 3895SOL     OW15182  10.702   9.115   2.524  0.1331  0.5708 -0.1679
 3895SOL    HW115183  10.769   9.105   2.591  1.4747  0.9785 -1.3814
 3895SOL    HW215184  10.630   9.059   2.552 -0.0539  1.9631  2.4239
 3896SOL     OW15185   9.191   6.023   9.047 -0.3385  0.2175 -0.2345
 3896SOL    HW115186   9.136   5.972   9.107 -2.3313  1.6409 -0.7323
 3896SOL    HW215187   9.203   6.107   9.091 -1.8019  1.2737 -1.7135
 3897SOL     OW15188   9.526   5.500   3.254  0.2616 -0.3863  0.1371
 3897SOL    HW115189   9.487   5.488   3.341 -1.2472 -0.5917 -0.5328
 3897SOL    HW215190   9.605   5.551   3.270 -0.6082  0.5970  1.5162
 3898SOL     OW15191   4.909   5.573   6.155 -0.2902 -0.3029 -0.4936
 3898SOL    HW115192   4.935   5.489   6.193  0.2482 -0.5062 -1.2919
 3898SOL    HW215193   4.814   5.565   6.143 -0.5289 -0.1307  1.0179
 3899SOL     OW15194  10.984   1.408   5.843 -0.1578 -0.1389 -0.1568
 3899SOL    HW115195  10.939   1.471   5.787 -1.2611  0.4289  1.3199
 3899SOL    HW215196  10.915   1.368   5.896  0.6759 -1.7366 -0.2005
 3900SOL     OW15197   6.672   9.097   0.942  0.2261 -0.3467  0.2194
 3900SOL    HW115198   6.627   9.099   1.027 -1.1765 -0.1055 -0.5067
 3900SOL    HW215199   6.734   9.170   0.947  0.7541 -0.8421  1.3379
 3901SOL     OW15200   8.208   9.398  10.291 -0.0135 -0.2304 -0.3538
 3901SOL    HW115201   8.213   9.362  10.380 -0.2378 -0.0142 -0.2515
 3901SOL    HW215202   8.297   9.429  10.273 -0.3527  1.3574  0.4956
 3902SOL     OW15203   8.115   1.769   0.504  0.9406 -0.0085  0.1013
 3902SOL    HW115204   8.127   1.677   0.480  1.7883  0.4884 -1.5261
 3902SOL    HW215205   8.094   1.767   0.597  1.6911 -1.8020  0.2710
 3903SOL     OW15206   9.144   0.815   8.787  0.2523 -0.4259 -0.3077
 3903SOL    HW115207   9.230   0.809   8.745 -0.1711 -0.4676 -1.1893
 3903SOL    HW215208   9.096   0.740   8.752 -0.1966 -0.3160  0.0683
 3904SOL     OW15209   4.659   7.751   8.577  0.5124 -0.2112 -0.1272
 3904SOL    HW115210   4.700   7.732   8.661  0.0440 -0.4898  0.0440
 3904SOL    HW215211   4.720   7.716   8.512  0.4896 -0.7456  0.1303
 3905SOL     OW15212   9.195   7.099   5.658 -0.0954 -0.0848 -0.0725
 3905SOL    HW115213   9.175   7.011   5.626  0.7734  0.3811 -2.0422
 3905SOL    HW215214   9.149   7.157   5.597  0.4892  0.8520  0.3583
 3906SOL     OW15215   1.562  10.865   6.068  0.3440  0.1621  0.4297
 3906SOL    HW115216   1.532  10.799   6.131  0.5161  0.4044  0.7717
 3906SOL    HW215217   1.483  10.889   6.019  0.3501 -0.5448  0.0659
 3907SOL     OW15218   4.882   7.399  10.562  0.1644  0.2386  0.0807
 3907SOL    HW115219   4.939   7.461  10.607  3.1481  0.9455 -4.0452
 3907SOL    HW215220   4.850   7.447  10.485 -0.7498 -2.0825 -1.0838
 3908SOL     OW15221   5.967   5.176   9.525  0.3245  0.3941  0.2732
 3908SOL    HW115222   6.024   5.248   9.500  1.8727 -0.0969  2.1838
 3908SOL    HW215223   5.955   5.186   9.619  0.2668 -1.6073  0.5219
 3909SOL     OW15224   3.302   8.186  10.642  0.0646 -0.3328 -0.1583
 3909SOL    HW115225   3.240   8.149  10.579 -0.4858 -0.1133  0.2459
 3909SOL    HW215226   3.251   8.250  10.692  0.7848  0.3456 -0.2658
 3910SOL     OW15227  10.633   2.524   2.602  0.3920  0.2800 -0.1063
 3910SOL    HW115228  10.654   2.498   2.692  1.2269 -2.5249 -1.0101
 3910SOL    HW215229  10.707   2.580   2.577  0.2256  0.9785  0.8704
 3911SOL     OW15230   7.730   9.619   2.915  0.3987  0.1316 -0.0304
 3911SOL    HW115231   7.653   9.647   2.966 -0.0477 -2.2179  0.6843
 3911SOL    HW215232   7.694   9.559   2.850  1.5363 -0.4243 -0.1535
 3912SOL     OW15233   4.768   8.297   6.306  0.0980 -0.2217  0.4124
 3912SOL    HW115234   4.780   8.212   6.350  0.4874  0.4307  1.6211
 3912SOL    HW215235   4.690   8.334   6.346 -0.1918 -0.0851 -0.2665
 3913SOL     OW15236  10.191   2.193   2.384  0.3027  0.0949 -0.0195
 3913SOL    HW115237  10.179   2.249   2.307  2.2303  0.5524 -0.0316
 3913SOL    HW215238  10.242   2.119   2.351  0.3341 -0.1790  0.6395
 3914SOL     OW15239   2.001   8.052   5.614  0.8446 -0.3794 -0.1783
 3914SOL    HW115240   2.069   8.073   5.678  1.4947 -2.0839 -0.2421
 3914SOL    HW215241   1.971   7.965   5.639 -2.5377  0.9122  0.8289
 3915SOL     OW15242   3.967  10.546   8.566  0.0544 -0.0025 -0.0236
 3915SOL    HW115243   3.921  10.472   8.605  0.0734 -1.0047 -1.8108
 3915SOL    HW215244   4.006  10.592   8.640 -1.4287 -0.7589  1.2839
 3916SOL     OW15245   1.388   9.556   0.323 -0.2581  0.8529  0.5433
 3916SOL    HW115246   1.422   9.534   0.409 -1.5798  1.3223  1.2105
 3916SOL    HW215247   1.457   9.608   0.282  0.4517  0.4764  1.2398
 3917SOL     OW15248   2.739   8.658   0.042 -0.3162  0.1377 -0.2303
 3917SOL    HW115249   2.825   8.634   0.077 -0.5973  0.0115  0.4014
 3917SOL    HW215250   2.726   8.600  -0.032 -0.8384 -1.4893  1.0702
 3918SOL     OW15251   6.380  10.163   4.545  0.1777 -0.1612  0.1300
 3918SOL    HW115252   6.288  10.175   4.519  0.7188 -0.4220 -2.1723
 3918SOL    HW215253   6.412  10.251   4.562  0.1511  0.2542 -1.7272
 3919SOL     OW15254  10.731   3.562   4.029  0.5447  0.1615 -0.2435
 3919SOL    HW115255  10.710   3.480   4.074  2.6014  0.1865  0.8972
 3919SOL    HW215256  10.793   3.536   3.961 -0.4317  0.5176 -1.3027
 3920SOL     OW15257   4.770   7.670   3.910 -0.7312 -0.4474 -0.2119
 3920SOL    HW115258   4.690   7.723   3.902 -1.6296 -1.8460 -0.9058
 3920SOL    HW215259   4.738   7.581   3.922  0.7368 -0.7718  1.9021
 3921SOL     OW15260  10.198   1.716  10.823  0.8043 -0.1803 -0.0634
 3921SOL    HW115261  10.157   1.780  10.766 -0.9302 -2.7457 -1.9224
 3921SOL    HW215262  10.144   1.717  10.903  0.5848  0.4109 -0.2173
 3922SOL     OW15263   2.852   3.687   3.343  0.2053  0.1793 -0.5052
 3922SOL    HW115264   2.831   3.742   3.267 -0.0396 -0.4576 -0.9139
 3922SOL    HW215265   2.935   3.722   3.376 -1.0708  2.2705  0.6918
 3923SOL     OW15266   5.130   8.980  10.520  0.5474  0.3963 -0.3956
 3923SOL    HW115267   5.207   9.009  10.567  0.5374 -1.6985  1.0395
 3923SOL    HW215268   5.112   8.892  10.554 -1.4569  0.1326 -1.9166
 3924SOL     OW15269   9.983   1.669   3.086 -0.2917  0.3937 -0.1597
 3924SOL    HW115270   9.975   1.642   2.995  2.2140 -0.9039 -0.0871
 3924SOL    HW215271   9.909   1.629   3.131 -0.3560 -0.7933 -1.2798
 3925SOL     OW15272   9.205   0.744   4.997 -0.0425 -0.4306 -0.8184
 3925SOL    HW115273   9.216   0.816   4.935  3.3803 -0.3733 -0.3590
 3925SOL    HW215274   9.252   0.671   4.957 -1.3354 -1.6820 -0.1392
 3926SOL     OW15275   7.788   2.714   4.706 -0.6058 -0.2987  0.4197
 3926SOL    HW115276   7.768   2.637   4.759 -0.0885 -0.3475  0.5571
 3926SOL    HW215277   7.745   2.697   4.622  1.8271 -2.1423 -0.5986
 3927SOL     OW15278   2.474   8.331  10.626 -0.4045 -0.3152  0.0750
 3927SOL    HW115279   2.537   8.303  10.692  0.7360  2.7499  0.4737
 3927SOL    HW215280   2.391   8.335  10.674 -0.7854 -3.3084 -0.1709
 3928SOL     OW15281   3.208   4.473   6.557 -0.3314 -0.0695 -0.1179
 3928SOL    HW115282   3.143   4.526   6.603 -0.5576 -1.0784  0.7640
 3928SOL    HW215283   3.158   4.416   6.499 -0.2210 -0.5244  0.2224
 3929SOL     OW15284   0.200   3.960   7.248  0.2022  0.5291 -0.2389
 3929SOL    HW115285   0.227   3.876   7.284  0.4440 -0.1229 -1.8560
 3929SOL    HW215286   0.281   4.000   7.216  0.4356  2.3408  2.2585
 3930SOL     OW15287  10.600   4.353  10.133  0.1883 -0.0674  0.0473
 3930SOL    HW115288  10.559   4.437  10.112  1.4909  0.0244 -2.4407
 3930SOL    HW215289  10.688   4.375  10.162 -0.6551 -0.4106  3.1769
 3931SOL     OW15290   8.082   9.327   8.645  0.5142 -0.0428  0.3713
 3931SOL    HW115291   8.142   9.260   8.613  0.6406 -0.2283  0.9833
 3931SOL    HW215292   8.054   9.374   8.567  0.2133 -0.9800 -0.0912
 3932SOL     OW15293   2.350   0.914   8.786 -0.5180 -0.0834 -0.5801
 3932SOL    HW115294   2.281   0.978   8.805 -0.3279  0.0677 -0.4051
 3932SOL    HW215295   2.396   0.902   8.869 -1.8016 -1.9550 -0.0657
 3933SOL     OW15296   8.917   9.564   5.519 -0.3402 -0.2337 -0.1241
 3933SOL    HW115297   8.831   9.606   5.506 -0.8648 -1.6269 -1.4568
 3933SOL    HW215298   8.954   9.559   5.431  0.6193 -0.6887  0.2959
 3934SOL     OW15299   1.168   3.673   6.767 -0.3142  0.2018  0.2545
 3934SOL    HW115300   1.189   3.663   6.674  1.7250  1.8754  0.4573
 3934SOL    HW215301   1.134   3.762   6.774 -0.3620  0.1185  1.1229
 3935SOL     OW15302   1.392   2.865   9.423  0.5843  0.1371 -0.4775
 3935SOL    HW115303   1.375   2.790   9.480  0.5029 -0.5204 -1.3561
 3935SOL    HW215304   1.486   2.862   9.407  0.3382 -0.8287 -1.9203
 3936SOL     OW15305   1.797   5.012   9.353 -0.5514  1.3269  0.0759
 3936SOL    HW115306   1.741   5.065   9.297  1.5154 -0.2611 -3.8788
 3936SOL    HW215307   1.885   5.047   9.339  0.5850 -1.6409 -1.0689
 3937SOL     OW15308   2.952   3.781   3.977  0.7156 -0.3122  0.4951
 3937SOL    HW115309   2.916   3.869   3.986 -0.5333 -0.7991  0.3972
 3937SOL    HW215310   2.916   3.732   4.051 -0.1060 -1.2231 -0.4686
 3938SOL     OW15311   0.004   8.519   3.619 -0.1470 -0.4310 -0.6486
 3938SOL    HW115312   0.021   8.574   3.696 -0.1235 -0.1747 -0.8380
 3938SOL    HW215313   0.069   8.547   3.555 -0.4137 -0.3851 -0.8976
 3939SOL     OW15314   1.175   8.897   8.043 -0.3272  0.6856  0.2410
 3939SOL    HW115315   1.142   8.937   7.962 -2.2462 -0.2306  0.5219
 3939SOL    HW215316   1.239   8.960   8.076  1.4680  0.5537 -2.5828
 3940SOL     OW15317   8.964   8.132   5.763 -0.0827 -0.3131  0.1594
 3940SOL    HW115318   8.895   8.194   5.740 -0.1881 -0.4753  0.0412
 3940SOL    HW215319   8.920   8.063   5.812  0.1279 -0.0163  0.7780
 3941SOL     OW15320   6.948  10.627   9.240 -0.1187  0.0158 -0.4704
 3941SOL    HW115321   6.957  10.580   9.323  1.7409 -1.8205 -1.5969
 3941SOL    HW215322   6.895  10.570   9.185 -2.8068  1.9903 -0.1097
 3942SOL     OW15323   2.516   0.342   2.587  0.3697 -0.2171 -0.1568
 3942SOL    HW115324   2.609   0.327   2.570  0.6246 -0.0666  1.0087
 3942SOL    HW215325   2.479   0.254   2.596  0.8443 -0.2687  1.5388
 3943SOL     OW15326   0.889   4.829   1.697  0.1414  0.3318  0.4506
 3943SOL    HW115327   0.851   4.742   1.706  0.0619  0.3950  0.7458
 3943SOL    HW215328   0.820   4.880   1.653 -0.3254  0.5743  1.4286
 3944SOL     OW15329   7.075   5.930   0.699 -0.3606  0.1999  0.0868
 3944SOL    HW115330   7.009   5.862   0.714  1.1182 -1.4514 -0.5837
 3944SOL    HW215331   7.031   5.993   0.642 -0.6134 -2.1674 -2.5182
 3945SOL     OW15332   0.934   5.140   3.149  0.2668 -0.1380  0.1979
 3945SOL    HW115333   0.988   5.198   3.095  1.4451 -1.0591  0.3430
 3945SOL    HW215334   0.995   5.075   3.184 -0.9489 -1.2810  0.3106
 3946SOL     OW15335   8.001   2.727   7.682  0.4678 -0.3646 -0.8888
 3946SOL    HW115336   7.955   2.803   7.645  0.0923  0.2546  0.7726
 3946SOL    HW215337   8.033   2.757   7.767 -0.0306 -2.1761 -0.0155
 3947SOL     OW15338   1.687   5.885   1.439 -0.2226  0.1640 -0.8142
 3947SOL    HW115339   1.711   5.963   1.390  1.5333 -0.6840 -1.3838
 3947SOL    HW215340   1.766   5.831   1.440 -1.0333 -1.0974  0.5683
 3948SOL     OW15341   6.013   6.624   5.260 -0.9921 -0.2507 -0.7647
 3948SOL    HW115342   5.932   6.601   5.213 -0.0757 -0.3091 -2.4048
 3948SOL    HW215343   6.005   6.717   5.277 -2.2652 -0.6245  0.9046
 3949SOL     OW15344   0.773   5.465   4.073 -0.4263  0.1715  0.1272
 3949SOL    HW115345   0.713   5.408   4.120 -0.6119 -0.3322 -0.7111
 3949SOL    HW215346   0.741   5.466   3.983  0.9698 -0.3470 -0.4080
 3950SOL     OW15347   8.479   2.547   1.408 -0.1840  0.0179 -0.0961
 3950SOL    HW115348   8.510   2.457   1.422  0.6340 -0.0392 -2.0359
 3950SOL    HW215349   8.385   2.538   1.397 -0.1556 -0.5442  0.0714
 3951SOL     OW15350   5.308   7.338   9.006  0.2062 -0.9156 -0.1217
 3951SOL    HW115351   5.290   7.280   9.080 -0.0312 -1.2494 -0.4459
 3951SOL    HW215352   5.392   7.379   9.028  0.9100 -2.1827 -0.3971
 3952SOL     OW15353   3.916   4.098   0.346 -0.2877  0.2394 -0.1803
 3952SOL    HW115354   3.934   4.150   0.425 -1.2517  0.1717  0.0942
 3952SOL    HW215355   3.863   4.025   0.377  0.9398 -0.8598 -0.5886
 3953SOL     OW15356   5.901   3.767   9.781 -0.5122  0.1411  0.2770
 3953SOL    HW115357   5.989   3.791   9.809 -0.2594  1.4495 -1.4961
 3953SOL    HW215358   5.880   3.829   9.711 -2.5478 -0.6273  0.1433
 3954SOL     OW15359   1.117  10.260   5.408 -0.3625 -0.0760  0.1392
 3954SOL    HW115360   1.057  10.218   5.346 -1.1337 -0.9998  1.4640
 3954SOL    HW215361   1.194  10.202   5.409  1.2875  1.8154 -2.5988
 3955SOL     OW15362   8.678   0.425   9.900  0.3292  0.4078 -0.6305
 3955SOL    HW115363   8.743   0.373   9.947  1.2846  1.1322 -1.1379
 3955SOL    HW215364   8.594   0.384   9.923  0.9751 -0.7302 -0.2264
 3956SOL     OW15365   6.314   7.903   7.113  0.0635 -0.5541 -0.5302
 3956SOL    HW115366   6.260   7.857   7.049  2.5270 -0.6120 -2.7198
 3956SOL    HW215367   6.394   7.851   7.120  0.8242  0.7058  0.8501
 3957SOL     OW15368   4.289   0.785   6.142 -0.0417  0.0714  0.0811
 3957SOL    HW115369   4.260   0.718   6.203  1.2507 -1.2797 -0.7221
 3957SOL    HW215370   4.281   0.867   6.191 -0.9594 -0.7334  1.3381
 3958SOL     OW15371   9.667   4.842   9.402  0.0738  0.0358  0.6755
 3958SOL    HW115372   9.651   4.827   9.495  0.5251 -0.1478  0.7283
 3958SOL    HW215373   9.761   4.861   9.396  0.2822 -1.0839  0.1218
 3959SOL     OW15374   9.508   8.443   2.598 -0.0050 -0.3362  0.5247
 3959SOL    HW115375   9.536   8.385   2.669  1.4543  0.7931  0.9107
 3959SOL    HW215376   9.524   8.531   2.631  1.2827  0.2101 -1.4010
 3960SOL     OW15377  10.383  10.105   0.988  0.2785  0.2406  0.3027
 3960SOL    HW115378  10.342  10.024   1.016 -0.9134  1.2161  1.4838
 3960SOL    HW215379  10.465  10.109   1.037  1.7535 -1.5417 -1.8090
 3961SOL     OW15380  10.443   4.342   6.063 -0.3421 -0.0355 -0.1376
 3961SOL    HW115381  10.445   4.283   5.988  1.2574  0.7084 -0.7262
 3961SOL    HW215382  10.522   4.319   6.113  1.5585  2.9138 -1.4949
 3962SOL     OW15383   0.984   8.100   1.911  0.8667  0.3687  0.5125
 3962SOL    HW115384   0.925   8.046   1.859  2.2528  0.9121 -1.7888
 3962SOL    HW215385   0.953   8.091   2.001 -1.2326 -1.1966 -0.2987
 3963SOL     OW15386   5.213   3.635   7.479 -0.3910 -0.3855 -0.5786
 3963SOL    HW115387   5.150   3.703   7.454  0.0860 -0.0965 -1.0076
 3963SOL    HW215388   5.172   3.553   7.452 -1.2899 -0.3519  0.5748
 3964SOL     OW15389  10.504   3.297   2.959  0.8390  0.2175  0.9222
 3964SOL    HW115390  10.485   3.335   2.873  0.4729 -1.9377 -0.0116
 3964SOL    HW215391  10.433   3.329   3.015 -0.4467 -0.4508 -0.2568
 3965SOL     OW15392  10.158   0.596   6.621  0.7660 -0.1171 -0.2089
 3965SOL    HW115393  10.065   0.579   6.605  0.5886  0.5531  0.0818
 3965SOL    HW215394  10.204   0.534   6.564  0.1553 -1.3591  0.6000
 3966SOL     OW15395   5.459   2.800   5.064 -0.0975 -0.0734 -0.1166
 3966SOL    HW115396   5.488   2.887   5.089 -0.4497  0.3399 -1.1215
 3966SOL    HW215397   5.414   2.766   5.142 -2.1899  1.6271 -0.5052
 3967SOL     OW15398   8.371   7.004   2.671  0.0929 -0.5726  0.0605
 3967SOL    HW115399   8.462   7.034   2.662 -0.5363  1.4037 -0.1480
 3967SOL    HW215400   8.379   6.909   2.681  2.1423 -0.5368 -0.5711
 3968SOL     OW15401   2.460   5.463  10.532 -0.4463  0.6979 -0.3393
 3968SOL    HW115402   2.377   5.417  10.540 -0.3201  0.6784  1.1329
 3968SOL    HW215403   2.452   5.538  10.591  0.8868  0.2038  0.5146
 3969SOL     OW15404   8.996   6.020   9.944 -0.4174 -0.4041  0.7190
 3969SOL    HW115405   9.010   6.079  10.019 -0.1317 -0.9551  1.1050
 3969SOL    HW215406   8.963   5.939   9.983 -0.2289 -0.7093  0.2474
 3970SOL     OW15407   3.150   1.151   6.420 -0.3462  0.2254 -0.4159
 3970SOL    HW115408   3.212   1.080   6.401  0.9641  0.9466  0.8604
 3970SOL    HW215409   3.116   1.177   6.335  1.1671 -0.1779 -1.1862
 3971SOL     OW15410   0.135   6.741   5.120  0.0838  0.2469 -0.1325
 3971SOL    HW115411   0.165   6.694   5.042  3.4125  0.1221  1.0680
 3971SOL    HW215412   0.118   6.672   5.185 -0.5925  0.4531 -0.0828
 3972SOL     OW15413   1.781   1.294   2.826 -0.1908  0.0401 -0.5260
 3972SOL    HW115414   1.822   1.251   2.751  0.8399 -0.0318  0.0638
 3972SOL    HW215415   1.840   1.366   2.848 -0.5599  0.1434  0.1378
 3973SOL     OW15416   7.681   2.625   0.440 -0.0512  0.6049 -0.2841
 3973SOL    HW115417   7.608   2.588   0.389  0.6443 -2.0720  0.5005
 3973SOL    HW215418   7.645   2.635   0.528 -0.4616  2.6929 -0.6456
 3974SOL     OW15419   1.188   2.416   2.936  0.2492 -0.5173  0.3588
 3974SOL    HW115420   1.194   2.321   2.926  0.1507 -0.3791 -1.2441
 3974SOL    HW215421   1.227   2.451   2.856 -0.6741  0.7744  0.4497
 3975SOL     OW15422   9.996   4.786   3.364  0.1071 -0.6478  0.3656
 3975SOL    HW115423  10.029   4.716   3.307 -0.4962 -1.1744  0.6552
 3975SOL    HW215424   9.980   4.744   3.448  1.1997  0.1768  1.0117
 3976SOL     OW15425   2.063   5.381   7.417  0.4021  0.0262  0.3365
 3976SOL    HW115426   2.010   5.413   7.344  1.9920 -2.0006 -1.8781
 3976SOL    HW215427   2.145   5.430   7.410  0.8933 -0.7976  0.1533
 3977SOL     OW15428   5.966   8.513   4.193 -0.6446  0.6603 -0.1474
 3977SOL    HW115429   5.877   8.494   4.162  0.1070 -1.9319 -0.9773
 3977SOL    HW215430   6.019   8.518   4.114  0.4072 -0.8302  0.4131
 3978SOL     OW15431  10.900   0.417   5.197 -0.5005 -0.8918 -0.1375
 3978SOL    HW115432  10.934   0.331   5.225 -0.2517 -0.6791  0.2220
 3978SOL    HW215433  10.957   0.480   5.241 -2.4938 -0.4637  2.0546
 3979SOL     OW15434   7.591  10.539   8.914  0.0419 -0.1382  0.2393
 3979SOL    HW115435   7.555  10.451   8.923  2.0509 -1.5862 -3.5389
 3979SOL    HW215436   7.549  10.573   8.834  2.8696  0.2373 -1.2033
 3980SOL     OW15437   3.242   5.151   1.487 -0.1599 -0.3203  1.0999
 3980SOL    HW115438   3.311   5.086   1.501  0.4034  0.2676  1.1014
 3980SOL    HW215439   3.253   5.177   1.395 -0.3539 -0.1867  1.1145
 3981SOL     OW15440   7.859   2.024   5.268  0.0990 -0.0692 -0.3663
 3981SOL    HW115441   7.866   2.089   5.197  0.2511  2.0372  1.4766
 3981SOL    HW215442   7.912   2.061   5.339 -0.7602 -1.6756  1.1648
 3982SOL     OW15443   4.721   1.646  10.861 -0.2356 -0.0635 -0.0890
 3982SOL    HW115444   4.753   1.639  10.951 -0.7535  0.1303  0.1169
 3982SOL    HW215445   4.781   1.592  10.810  2.5212  2.8594 -0.2776
 3983SOL     OW15446   4.984   7.145  10.027  0.1990  0.1401 -0.5569
 3983SOL    HW115447   5.017   7.227   9.990  1.3898  1.0831  2.2383
 3983SOL    HW215448   5.043   7.078   9.993  0.8181  0.8388 -0.8882
 3984SOL     OW15449  10.547   4.628   8.860 -0.5929  0.5908 -0.3075
 3984SOL    HW115450  10.479   4.561   8.870 -0.2901  0.1991 -0.8068
 3984SOL    HW215451  10.530   4.666   8.774  1.1689 -1.0849 -1.4657
 3985SOL     OW15452  10.844   4.388   4.388 -0.3317  0.8162 -0.0993
 3985SOL    HW115453  10.888   4.326   4.329 -0.7329 -1.1870  1.5898
 3985SOL    HW215454  10.754   4.391   4.356 -0.5345 -0.2151  0.3218
 3986SOL     OW15455   8.060   1.135   5.291  0.1648  0.5922 -0.0605
 3986SOL    HW115456   8.101   1.048   5.292 -1.1809 -0.0550  0.8495
 3986SOL    HW215457   8.124   1.192   5.334  1.5165  0.3078 -1.5927
 3987SOL     OW15458   8.969   4.645   1.973 -0.4724  0.4304  0.4757
 3987SOL    HW115459   9.054   4.689   1.982  0.4006 -1.0757  0.0935
 3987SOL    HW215460   8.914   4.709   1.928  0.3530  1.5663  1.0154
 3988SOL     OW15461   5.575   0.145   3.976 -0.0853 -0.2503  0.4089
 3988SOL    HW115462   5.591   0.074   4.038  0.9534  0.0987  0.5643
 3988SOL    HW215463   5.610   0.113   3.893 -1.4098 -0.6896 -0.0054
 3989SOL     OW15464   7.050   3.943   1.832  0.2216 -0.3562  0.4207
 3989SOL    HW115465   7.142   3.913   1.833 -0.1204 -1.6975 -1.2805
 3989SOL    HW215466   7.054   4.031   1.796  0.8221 -0.6559 -0.2858
 3990SOL     OW15467   9.670   6.009   5.283 -0.1543  0.5857 -0.0886
 3990SOL    HW115468   9.603   5.945   5.308 -0.0555  0.6609  0.3736
 3990SOL    HW215469   9.653   6.085   5.339  0.6713  0.3957  0.4305
 3991SOL     OW15470   4.006   8.411   0.340 -0.3514  0.7066  0.0382
 3991SOL    HW115471   4.036   8.350   0.272  1.4008 -0.4947  1.8117
 3991SOL    HW215472   3.963   8.481   0.290  2.5426  0.9148 -2.5231
 3992SOL     OW15473  10.216   7.838   0.551 -0.0924 -0.2437 -0.1801
 3992SOL    HW115474  10.195   7.751   0.518  1.9970  0.0890 -2.7767
 3992SOL    HW215475  10.296   7.862   0.503  0.6776  2.1865  2.1208
 3993SOL     OW15476   3.513   1.741   7.827  0.6918 -0.5122  0.2963
 3993SOL    HW115477   3.419   1.721   7.822  0.5189 -0.0112  1.3324
 3993SOL    HW215478   3.549   1.673   7.884  0.6433  0.2613  1.2837
 3994SOL     OW15479   6.954   7.059   4.814  0.0681  0.5027  0.2462
 3994SOL    HW115480   6.875   7.020   4.852 -0.5133  0.9967 -0.4329
 3994SOL    HW215481   6.980   6.998   4.745 -0.0993  0.6701  0.0349
 3995SOL     OW15482   4.666   5.596   1.345 -0.0795 -0.2746  0.2347
 3995SOL    HW115483   4.692   5.682   1.378  0.5979  0.7484 -2.6309
 3995SOL    HW215484   4.571   5.594   1.353 -0.1604  1.0209 -0.1792
 3996SOL     OW15485   0.320   2.870   2.890  0.2337  0.1363 -0.4159
 3996SOL    HW115486   0.296   2.790   2.937 -1.1412  0.8926  0.2413
 3996SOL    HW215487   0.298   2.852   2.799 -0.3446 -0.1407 -0.2283
 3997SOL     OW15488   2.442   3.972   0.958 -0.2009  0.1499  0.5826
 3997SOL    HW115489   2.403   3.885   0.954 -1.4189  0.6607  0.8711
 3997SOL    HW215490   2.438   4.005   0.868  0.0716  0.0015  0.5131
 3998SOL     OW15491   3.830   3.914   6.566 -0.3550 -0.3050  0.0984
 3998SOL    HW115492   3.743   3.953   6.573  0.6267  2.0782 -0.2372
 3998SOL    HW215493   3.890   3.988   6.562  1.5056 -1.7811 -2.4843
 3999SOL     OW15494   0.476   5.457   5.677 -0.4702 -0.5983  0.6849
 3999SOL    HW115495   0.441   5.478   5.590  0.8817 -0.8595  0.0579
 3999SOL    HW215496   0.441   5.370   5.696  2.5175 -2.4609 -1.4954
 4000SOL     OW15497   0.765   2.511   1.256  0.6420  0.1059 -0.3150
 4000SOL    HW115498   0.714   2.533   1.335 -0.1457  0.8365 -1.0019
 4000SOL    HW215499   0.846   2.560   1.266  0.3281  0.6128 -0.1972
 4001SOL     OW15500   4.046   3.318   5.817  0.2457  0.2604  0.2657
 4001SOL    HW115501   4.073   3.323   5.725  1.3402  3.6509  0.6482
 4001SOL    HW215502   4.019   3.407   5.839 -0.5801 -0.5854  3.1118
 4002SOL     OW15503   8.013   2.197   0.855  0.2812  0.2518  0.2776
 4002SOL    HW115504   8.022   2.261   0.784  0.4537 -0.9068 -0.7940
 4002SOL    HW215505   7.966   2.124   0.815 -0.7287  0.0650  1.7222
 4003SOL     OW15506   4.723   7.580   0.040  0.5934 -0.2427 -0.7433
 4003SOL    HW115507   4.647   7.583  -0.019 -0.4003 -1.2571  0.4310
 4003SOL    HW215508   4.778   7.511   0.003  0.1849 -0.5736 -0.7499
 4004SOL     OW15509   6.840   0.523   7.915  0.5231  0.3689 -0.1090
 4004SOL    HW115510   6.847   0.480   7.829 -0.0458  1.0407 -0.5085
 4004SOL    HW215511   6.922   0.571   7.924  0.8088 -0.1289 -0.0373
 4005SOL     OW15512   9.184   6.035   8.053 -0.8141 -0.5632 -0.2754
 4005SOL    HW115513   9.256   6.087   8.088 -0.7736 -0.8357  0.0573
 4005SOL    HW215514   9.178   6.060   7.961 -1.5731  0.9261  0.1518
 4006SOL     OW15515  10.633   3.927   6.099  0.3650  0.1631 -0.3432
 4006SOL    HW115516  10.637   3.870   6.022  0.3644 -1.3672  0.7412
 4006SOL    HW215517  10.724   3.944   6.122  0.4076  2.2221 -1.7517
 4007SOL     OW15518   8.266  10.399  10.544  0.0219 -0.0849 -0.4586
 4007SOL    HW115519   8.194  10.357  10.592 -0.4008  0.2742 -0.7656
 4007SOL    HW215520   8.344  10.352  10.571 -0.1632  0.3148  0.8243
 4008SOL     OW15521   3.289   2.419   2.921 -0.2100 -0.5141 -0.1153
 4008SOL    HW115522   3.251   2.464   2.845 -0.5035  1.6980  1.2829
 4008SOL    HW215523   3.232   2.443   2.994  0.0020 -2.7000  0.8471
 4009SOL     OW15524   0.366   9.111   5.984  0.0278  0.6034  0.6704
 4009SOL    HW115525   0.295   9.134   6.045 -1.5783  1.0752 -1.2780
 4009SOL    HW215526   0.346   9.021   5.959  0.8447  0.3172  1.0196
 4010SOL     OW15527   8.005   4.976   7.268 -0.3083  0.0835  0.3474
 4010SOL    HW115528   7.954   5.045   7.227  0.7598  0.5101 -0.2857
 4010SOL    HW215529   8.019   4.911   7.199 -0.0850 -0.0822  0.5446
 4011SOL     OW15530   7.274   3.300   7.276  0.2762 -0.4576  0.2720
 4011SOL    HW115531   7.287   3.293   7.371  3.2687 -0.4498 -0.0382
 4011SOL    HW215532   7.243   3.389   7.263  1.7116  0.2264  1.1696
 4012SOL     OW15533   2.981   0.670   5.108  0.2605  0.2261 -0.3478
 4012SOL    HW115534   3.018   0.704   5.027  0.7214  0.2110 -0.1514
 4012SOL    HW215535   3.053   0.678   5.171  0.0545 -0.1947 -0.0586
 4013SOL     OW15536   9.724  10.020   1.503  0.0590 -0.4243 -0.2042
 4013SOL    HW115537   9.807  10.013   1.455 -0.6780 -1.5829 -1.3904
 4013SOL    HW215538   9.663  10.055   1.439 -0.2039  1.3019  0.9258
 4014SOL     OW15539   9.577   3.153   2.536 -0.4644 -0.2907  0.0646
 4014SOL    HW115540   9.554   3.090   2.469 -1.0044  0.7947 -0.8047
 4014SOL    HW215541   9.673   3.146   2.544 -0.5187 -1.2041 -0.0063
 4015SOL     OW15542   6.374   0.849  10.440  0.3180 -0.3004  0.1500
 4015SOL    HW115543   6.437   0.903  10.487  0.2813 -0.5530  0.4913
 4015SOL    HW215544   6.428   0.790  10.386  0.3532  0.7366 -0.9962
 4016SOL     OW15545  10.856   8.488   1.232  0.4273  0.0262 -0.8987
 4016SOL    HW115546  10.878   8.452   1.146 -0.0380  0.3183 -1.1445
 4016SOL    HW215547  10.797   8.561   1.213  0.0529 -0.1194 -0.3125
 4017SOL     OW15548   8.884   2.189   9.315  0.0477  0.2362 -0.1987
 4017SOL    HW115549   8.845   2.207   9.400 -0.4482  1.6266 -0.6877
 4017SOL    HW215550   8.976   2.213   9.326  0.6183 -2.0154  0.6361
 4018SOL     OW15551   2.908   2.240   9.306  0.0102  0.2431  0.4381
 4018SOL    HW115552   2.984   2.180   9.305  0.4935  0.8476 -0.3136
 4018SOL    HW215553   2.876   2.238   9.216  0.1444  1.2498  0.3597
 4019SOL     OW15554   9.710  10.417   4.944 -0.7356 -0.0564 -0.4949
 4019SOL    HW115555   9.676  10.332   4.970 -0.9813  0.3582  0.5994
 4019SOL    HW215556   9.797  10.398   4.909  0.0014 -0.5853  1.5029
 4020SOL     OW15557   1.890   4.660   6.822  0.0709  0.0636  0.4359
 4020SOL    HW115558   1.813   4.713   6.797 -0.2264  0.4198  2.0121
 4020SOL    HW215559   1.964   4.704   6.779 -0.3906  0.7594  0.3302
 4021SOL     OW15560   1.242   4.234   4.886 -0.1113 -0.3332 -0.2470
 4021SOL    HW115561   1.251   4.143   4.857 -2.6314 -0.8018  0.2569
 4021SOL    HW215562   1.149   4.254   4.875  0.5178  2.5318 -1.2321
 4022SOL     OW15563   3.118   5.823   2.838 -0.6065  0.2997 -0.2500
 4022SOL    HW115564   3.149   5.737   2.866 -1.1157 -0.3894 -1.6925
 4022SOL    HW215565   3.061   5.805   2.763  0.2470  1.9556 -1.3845
 4023SOL     OW15566  10.967   8.157   9.047  0.9427 -0.1339 -0.8308
 4023SOL    HW115567  11.046   8.190   9.091  0.0972 -2.1455  2.5743
 4023SOL    HW215568  10.897   8.171   9.110 -0.6503 -2.1004 -2.0404
 4024SOL     OW15569   6.388   8.351   0.770  0.2996 -0.7643  0.1277
 4024SOL    HW115570   6.344   8.271   0.742  2.6575 -2.4818  0.9487
 4024SOL    HW215571   6.476   8.345   0.731  0.8832  0.9074  1.0746
 4025SOL     OW15572   0.244   6.989   1.088  0.2441 -0.5151 -0.3930
 4025SOL    HW115573   0.295   7.053   1.038  0.6591 -1.2037 -0.8669
 4025SOL    HW215574   0.205   6.931   1.022 -2.7420  1.0809 -0.1794
 4026SOL     OW15575   6.686   8.186   4.701  0.4035 -0.5414  0.3127
 4026SOL    HW115576   6.647   8.100   4.720 -1.1475 -0.1516 -0.9198
 4026SOL    HW215577   6.704   8.184   4.607  0.7573  0.3302  0.3568
 4027SOL     OW15578   8.470   0.906   0.448 -0.3076  0.0680  0.1535
 4027SOL    HW115579   8.452   0.859   0.366  0.5951  0.7666 -0.4697
 4027SOL    HW215580   8.453   0.842   0.517  0.3770 -1.0187 -0.6519
 4028SOL     OW15581  10.843   5.172   9.536 -0.5088  0.0286  0.7176
 4028SOL    HW115582  10.883   5.086   9.522  0.4809  0.5210  0.4511
 4028SOL    HW215583  10.906   5.234   9.500 -1.8589  0.8026 -0.4478
 4029SOL     OW15584   5.688   3.487   9.108  0.9576  0.4776  0.8849
 4029SOL    HW115585   5.770   3.443   9.132  0.7824 -0.1496  0.3428
 4029SOL    HW215586   5.621   3.440   9.157  0.7694  0.1341  0.3049
 4030SOL     OW15587   7.955   6.116   0.534 -0.2745 -0.5539  0.3172
 4030SOL    HW115588   7.876   6.087   0.578  0.1805 -1.7907  0.3536
 4030SOL    HW215589   7.924   6.175   0.466 -1.0129  1.2484  2.0986
 4031SOL     OW15590   4.553   5.277   3.390  0.0918  0.4566 -0.3317
 4031SOL    HW115591   4.561   5.242   3.479  0.0425 -0.5568 -0.7229
 4031SOL    HW215592   4.468   5.321   3.390 -0.2265 -0.1405 -0.0795
 4032SOL     OW15593   9.106   6.347   5.838 -0.2813  0.1860 -0.0014
 4032SOL    HW115594   9.128   6.321   5.748  1.3671 -2.5795  1.0599
 4032SOL    HW215595   9.017   6.315   5.850 -0.1926 -0.2495 -0.4151
 4033SOL     OW15596   6.045   2.305   3.687  0.8671 -0.4270 -0.0510
 4033SOL    HW115597   6.001   2.309   3.772  2.5742  0.2200  0.8351
 4033SOL    HW215598   5.994   2.363   3.631 -0.3370 -0.9343  0.4669
 4034SOL     OW15599   4.492   4.939   4.347  0.4729  0.3551 -0.1875
 4034SOL    HW115600   4.479   5.020   4.397  1.8283  1.4066 -1.4572
 4034SOL    HW215601   4.584   4.941   4.323  0.4392 -1.4135 -0.5375
 4035SOL     OW15602   6.365   7.121   2.808 -0.3246  0.6721 -0.2651
 4035SOL    HW115603   6.394   7.104   2.898 -2.6337 -0.3138  0.3649
 4035SOL    HW215604   6.288   7.064   2.797  0.6212 -0.1653 -3.3087
 4036SOL     OW15605  10.059   9.533   7.212  0.0265 -0.0157  0.0876
 4036SOL    HW115606  10.116   9.472   7.260 -0.0940 -0.4516 -0.3163
 4036SOL    HW215607  10.085   9.523   7.120 -0.3430  0.1714 -0.0370
 4037SOL     OW15608   7.755   5.535   7.349 -0.7599  0.4042  0.5524
 4037SOL    HW115609   7.811   5.552   7.425  0.5016 -1.4518  0.0979
 4037SOL    HW215610   7.755   5.618   7.301  1.0590  0.6744  0.9324
 4038SOL     OW15611   2.316   0.279   0.922  0.2963 -0.3366  0.0623
 4038SOL    HW115612   2.280   0.309   1.005 -0.1683 -0.8335  0.0524
 4038SOL    HW215613   2.341   0.188   0.939 -3.5175 -1.8797 -1.3387
 4039SOL     OW15614   2.071  10.143  10.021 -0.5596 -0.2871 -0.4628
 4039SOL    HW115615   2.149  10.197  10.008 -0.6281 -0.3950 -1.3613
 4039SOL    HW215616   1.999  10.207  10.028 -0.2193 -0.0840  2.0768
 4040SOL     OW15617   1.135   4.260   0.665  0.4260 -0.0262 -0.1911
 4040SOL    HW115618   1.132   4.248   0.570 -0.1983 -2.2654  0.0472
 4040SOL    HW215619   1.070   4.328   0.683 -0.1782 -0.2884 -1.2889
 4041SOL     OW15620  10.058   6.039   9.003 -0.1999  0.9440  0.3499
 4041SOL    HW115621  10.149   6.055   9.029 -0.6541  2.5513  1.0612
 4041SOL    HW215622  10.010   6.034   9.086 -0.8724  0.8374 -0.0340
 4042SOL     OW15623   3.390   3.913   1.269  0.1075  0.6929 -0.1474
 4042SOL    HW115624   3.381   3.946   1.180  0.7187  0.3293 -0.3510
 4042SOL    HW215625   3.412   3.820   1.258  1.3129  0.8994  0.3414
 4043SOL     OW15626   2.228   6.516   7.444  0.1631  0.3295 -0.5104
 4043SOL    HW115627   2.252   6.440   7.496  0.3521 -0.2429 -1.4169
 4043SOL    HW215628   2.219   6.587   7.508  1.7066 -0.0365  0.1575
 4044SOL     OW15629   4.764   1.995   1.054  0.9014  0.2351 -0.2458
 4044SOL    HW115630   4.749   1.943   0.975  1.3699  1.0857 -0.9146
 4044SOL    HW215631   4.849   1.966   1.085  1.0094  0.3540 -0.4259
 4045SOL     OW15632  10.725   9.342   5.816  0.0692  0.6375  0.2145
 4045SOL    HW115633  10.670   9.263   5.815 -0.4335  0.8499 -3.3099
 4045SOL    HW215634  10.814   9.309   5.821 -0.1876 -0.1187  0.0301
 4046SOL     OW15635   8.182   4.886   1.367  0.1785 -0.7115 -0.7799
 4046SOL    HW115636   8.129   4.824   1.316  0.5433  1.0741 -3.5083
 4046SOL    HW215637   8.255   4.907   1.310  0.9027  1.0464  0.7239
 4047SOL     OW15638   7.767   1.925   3.431 -0.0939  0.2849  0.1073
 4047SOL    HW115639   7.731   1.878   3.356 -1.2722  0.7120  0.3972
 4047SOL    HW215640   7.733   1.879   3.507 -2.2301  2.2369  0.4223
 4048SOL     OW15641   8.597   2.387   3.686  0.5628  0.0083 -0.4969
 4048SOL    HW115642   8.685   2.399   3.649  1.2785 -0.4170  0.9828
 4048SOL    HW215643   8.558   2.474   3.683 -0.0629 -0.2648 -3.6898
 4049SOL     OW15644   0.582   3.965   3.941 -0.0649 -0.3996  0.0679
 4049SOL    HW115645   0.530   3.953   3.861  0.3193  0.2925 -0.3008
 4049SOL    HW215646   0.642   3.890   3.941  3.5484  2.0709 -3.1704
 4050SOL     OW15647   2.765   1.329   2.619  0.0435  0.1610 -0.6333
 4050SOL    HW115648   2.791   1.412   2.659  0.4811  0.1891 -0.9613
 4050SOL    HW215649   2.733   1.276   2.692 -3.4806  1.7743 -0.8105
 4051SOL     OW15650   6.309   9.279   9.455  0.4388  0.3850 -0.2099
 4051SOL    HW115651   6.305   9.347   9.388  1.0576  0.8316  0.2004
 4051SOL    HW215652   6.220   9.245   9.460  0.7682 -1.0844 -2.7108
 4052SOL     OW15653   7.303   1.343   2.587  0.0013 -0.2759 -0.1997
 4052SOL    HW115654   7.318   1.280   2.658  0.9599 -0.9983 -1.0088
 4052SOL    HW215655   7.277   1.289   2.512 -1.4339  0.5156 -0.2992
 4053SOL     OW15656   6.297   5.916   9.868 -0.5825  0.1405 -0.1480
 4053SOL    HW115657   6.380   5.889   9.908  1.0810  1.3317 -2.5844
 4053SOL    HW215658   6.276   5.845   9.808  0.4666  1.2627 -1.9237
 4054SOL     OW15659   8.648   2.976   8.782 -0.3877  0.5438  0.5892
 4054SOL    HW115660   8.715   2.925   8.736 -0.7999  1.4913 -1.1507
 4054SOL    HW215661   8.591   2.910   8.822  0.2773 -0.3086  0.1663
 4055SOL     OW15662   5.774   0.838   4.629  0.1719  0.0816  0.0476
 4055SOL    HW115663   5.706   0.798   4.683  0.0409  0.5947  0.2701
 4055SOL    HW215664   5.733   0.845   4.542 -1.0654  2.7511  0.7374
 4056SOL     OW15665   9.205   5.583   2.703  0.2685  0.5373 -0.2743
 4056SOL    HW115666   9.203   5.603   2.797 -0.8159 -0.4380 -0.0662
 4056SOL    HW215667   9.289   5.618   2.673  0.8898  0.3624  1.1764
 4057SOL     OW15668   0.825   1.338   2.538 -0.2490 -0.1082 -0.2785
 4057SOL    HW115669   0.879   1.289   2.476  1.3836 -0.4634  1.3483
 4057SOL    HW215670   0.785   1.407   2.485  1.2472 -0.2596 -1.6939
 4058SOL     OW15671   7.115   9.006   1.895 -0.6830 -0.2230  0.2542
 4058SOL    HW115672   7.158   9.070   1.951 -0.5280 -0.7428  0.7316
 4058SOL    HW215673   7.143   8.921   1.929 -1.6121 -0.5599  0.1974
 4059SOL     OW15674   8.508   2.654   3.731 -0.7817 -0.0308  0.2163
 4059SOL    HW115675   8.498   2.740   3.773 -1.8845 -0.1370  0.2155
 4059SOL    HW215676   8.435   2.649   3.669 -1.0547 -1.1725  0.5924
 4060SOL     OW15677  10.110   3.069   5.609 -0.4778 -0.4090 -0.5429
 4060SOL    HW115678  10.108   3.100   5.518 -0.5828  0.3976 -0.2733
 4060SOL    HW215679  10.032   3.014   5.617 -1.3133  0.7339 -0.5352
 4061SOL     OW15680   9.496   6.920   6.449 -0.2825 -0.2411  0.1317
 4061SOL    HW115681   9.489   6.976   6.372 -0.9377 -0.3310  0.1206
 4061SOL    HW215682   9.459   6.971   6.520  2.1676  0.6556  0.8539
 4062SOL     OW15683  10.612   3.267   8.809  0.4599  0.8369 -0.1372
 4062SOL    HW115684  10.632   3.273   8.716  0.1090  2.9876 -0.1273
 4062SOL    HW215685  10.566   3.349   8.829 -0.2375  0.0511  1.7484
 4063SOL     OW15686   4.842   9.660   9.514 -0.4152  0.3200 -0.1424
 4063SOL    HW115687   4.919   9.633   9.465  0.1738  0.6984  0.5609
 4063SOL    HW215688   4.800   9.578   9.539  0.2880  0.0846  0.2924
 4064SOL     OW15689  10.256   8.244   7.923 -0.0295 -0.7757 -0.5550
 4064SOL    HW115690  10.208   8.162   7.927  0.4581 -1.0002  1.8130
 4064SOL    HW215691  10.348   8.218   7.912 -0.1036 -0.4218 -2.3965
 4065SOL     OW15692   3.961   4.735   3.292  0.0507  0.3264  0.2995
 4065SOL    HW115693   3.958   4.770   3.380  0.2820  0.4238  0.2682
 4065SOL    HW215694   3.937   4.643   3.302  1.1327  0.0671  0.6099
 4066SOL     OW15695   4.835   7.384   6.244 -0.4457  0.4684 -0.0407
 4066SOL    HW115696   4.825   7.291   6.266  0.2514  0.1931 -0.8277
 4066SOL    HW215697   4.800   7.431   6.320 -0.4426 -0.4370  0.5311
 4067SOL     OW15698   1.567   6.615   9.300  0.0552 -0.0727  0.3642
 4067SOL    HW115699   1.627   6.602   9.227  0.8348 -1.7503  1.2623
 4067SOL    HW215700   1.587   6.545   9.361 -2.5246 -0.4217  0.9319
 4068SOL     OW15701   4.218   5.399   9.915  0.3092 -0.5741 -0.4232
 4068SOL    HW115702   4.283   5.372   9.850  0.9305 -2.3833  0.8732
 4068SOL    HW215703   4.206   5.323   9.971 -0.8441  0.6358  1.0892
 4069SOL     OW15704   3.686  10.141   7.564 -0.1573  0.2324  0.0157
 4069SOL    HW115705   3.765  10.131   7.512  0.4143  0.0699  0.8879
 4069SOL    HW215706   3.717  10.147   7.655 -1.1780 -0.4937  0.4398
 4070SOL     OW15707   7.830   7.185   0.356 -0.4163  0.1274 -0.1059
 4070SOL    HW115708   7.831   7.185   0.452  0.3340  1.3915 -0.1031
 4070SOL    HW215709   7.743   7.219   0.333  0.0553  1.5515  0.1494
 4071SOL     OW15710   4.926   5.140   7.396 -0.1289  0.4729  0.1677
 4071SOL    HW115711   4.925   5.068   7.459 -0.4595 -0.7957 -1.2241
 4071SOL    HW215712   5.016   5.173   7.399  0.5407 -1.1860 -0.4140
 4072SOL     OW15713   0.686   0.180   2.192 -0.1840  0.2256 -0.0715
 4072SOL    HW115714   0.637   0.186   2.111  0.5385  3.5403 -0.4339
 4072SOL    HW215715   0.632   0.128   2.250 -1.3548 -1.0780 -2.2237
 4073SOL     OW15716   3.353   4.084   2.333 -0.0880 -0.6212 -0.8903
 4073SOL    HW115717   3.359   4.056   2.242  0.5357  0.9272 -1.3513
 4073SOL    HW215718   3.277   4.143   2.336  0.2443 -0.1996 -0.5424
 4074SOL     OW15719   7.684   5.562   6.688  0.0988 -0.7558 -0.1902
 4074SOL    HW115720   7.604   5.599   6.651  0.5919 -0.2711 -0.7766
 4074SOL    HW215721   7.721   5.632   6.741  0.3982 -0.8202 -0.3157
 4075SOL     OW15722   4.182   7.346   9.071 -0.4231  0.4798  0.7153
 4075SOL    HW115723   4.217   7.293   9.000 -1.7335 -2.0249  1.8350
 4075SOL    HW215724   4.185   7.436   9.037  3.7318  0.0996 -0.5240
 4076SOL     OW15725   6.170   5.683   9.788 -0.1664  0.2775  0.0142
 4076SOL    HW115726   6.241   5.625   9.816 -1.1184 -1.3328 -0.7712
 4076SOL    HW215727   6.090   5.639   9.816 -0.9305  1.0946 -0.8116
 4077SOL     OW15728   6.330   3.576   3.841  0.0486 -0.3701 -0.0947
 4077SOL    HW115729   6.248   3.598   3.798  0.6033 -0.3412 -1.1824
 4077SOL    HW215730   6.305   3.546   3.928 -0.8911  3.9591  1.3955
 4078SOL     OW15731   5.532   4.565   7.095 -0.1578 -0.4158 -0.0979
 4078SOL    HW115732   5.488   4.646   7.123 -2.8630 -2.0650  0.7486
 4078SOL    HW215733   5.522   4.563   7.000 -0.5112  0.0060 -0.0716
 4079SOL     OW15734   6.779   7.144   1.903 -0.4740  0.4495 -0.3474
 4079SOL    HW115735   6.753   7.067   1.853 -0.2512  1.1069 -1.4973
 4079SOL    HW215736   6.705   7.204   1.896  0.6783  1.7369 -2.4145
 4080SOL     OW15737  10.397   7.611   7.339 -0.3024  0.0358 -0.2048
 4080SOL    HW115738  10.369   7.702   7.336  0.1397  0.4359  3.3587
 4080SOL    HW215739  10.320   7.563   7.369 -0.2169 -0.6271 -1.0022
 4081SOL     OW15740   6.953   8.916   6.622 -0.1610 -0.0200 -0.2654
 4081SOL    HW115741   7.031   8.860   6.619  1.8648  2.5612 -2.2079
 4081SOL    HW215742   6.938   8.932   6.715  1.2751 -1.0800  0.1880
 4082SOL     OW15743   6.907  10.699   6.768 -0.2323 -0.1639 -0.0784
 4082SOL    HW115744   6.982  10.655   6.729  1.3736  0.8272  1.7483
 4082SOL    HW215745   6.938  10.729   6.853 -2.6578  0.4642  0.6627
 4083SOL     OW15746   2.733   6.166   6.954  0.2795 -0.7481 -0.3234
 4083SOL    HW115747   2.671   6.232   6.985  0.1011 -1.0343 -0.0674
 4083SOL    HW215748   2.758   6.118   7.032 -1.1068 -2.2697 -0.7592
 4084SOL     OW15749   3.677   8.605   9.367  0.4235  0.3841  0.0123
 4084SOL    HW115750   3.750   8.561   9.323  0.3584  2.4199 -2.3474
 4084SOL    HW215751   3.598   8.572   9.323  0.2241  1.0320 -0.1393
 4085SOL     OW15752   9.662   6.720   7.735  0.0149  0.0214 -0.8532
 4085SOL    HW115753   9.689   6.648   7.792  0.2017  0.1573 -0.7695
 4085SOL    HW215754   9.573   6.698   7.710 -0.6018  0.6871  0.6570
 4086SOL     OW15755   4.695  10.068   8.382  0.3941 -0.6898  0.7523
 4086SOL    HW115756   4.740  10.148   8.409 -2.2496  1.2400 -0.2313
 4086SOL    HW215757   4.707  10.064   8.287  0.5838 -1.5636  0.7987
 4087SOL     OW15758   5.732   9.206   0.703 -0.3257  0.4286 -0.5553
 4087SOL    HW115759   5.724   9.143   0.632  0.9147 -2.1922  1.4703
 4087SOL    HW215760   5.817   9.188   0.742 -1.0104  1.6396  1.6871
 4088SOL     OW15761  10.564   8.142   7.038 -0.1746  0.2943  0.4889
 4088SOL    HW115762  10.605   8.210   7.092 -0.2901  0.4473  0.3851
 4088SOL    HW215763  10.611   8.148   6.954 -0.5417  0.6055  0.3025
 4089SOL     OW15764  10.998   8.078   0.995  0.3749  0.6450 -0.3991
 4089SOL    HW115765  11.021   8.166   0.963  1.6517  0.3300 -0.3977
 4089SOL    HW215766  10.974   8.030   0.916 -1.1207  1.1969 -0.3161
 4090SOL     OW15767   6.197   9.340   4.882 -0.3785 -0.6093  0.1705
 4090SOL    HW115768   6.249   9.335   4.802  0.6586 -1.5118  0.8591
 4090SOL    HW215769   6.225   9.422   4.924 -2.9407  1.3313 -1.6601
 4091SOL     OW15770   5.685   8.535   4.136  0.0841  0.0339 -0.5792
 4091SOL    HW115771   5.724   8.615   4.172 -1.8059  0.8697 -0.2909
 4091SOL    HW215772   5.597   8.561   4.109 -0.7919 -2.0685  0.0631
 4092SOL     OW15773   9.166   2.717   7.913  0.1649 -0.4360 -0.0410
 4092SOL    HW115774   9.083   2.704   7.959  0.1159  2.2412  0.8019
 4092SOL    HW215775   9.147   2.781   7.845  1.0949 -1.4586 -1.3130
 4093SOL     OW15776   6.630   4.063   8.052  0.4130 -0.5833 -0.1767
 4093SOL    HW115777   6.637   4.133   8.116  0.6871 -0.8053  0.0402
 4093SOL    HW215778   6.536   4.055   8.035  0.5201  1.7111 -2.3017
 4094SOL     OW15779  10.700   4.484   5.441 -0.0235  0.1694  0.4637
 4094SOL    HW115780  10.631   4.523   5.387  1.3899  1.5302 -0.4471
 4094SOL    HW215781  10.747   4.426   5.381  0.3666  0.1987  0.7374
 4095SOL     OW15782   5.572   8.658   6.614 -0.2163  0.6605 -0.2638
 4095SOL    HW115783   5.480   8.663   6.641 -0.5258 -2.9115 -0.2327
 4095SOL    HW215784   5.569   8.614   6.530  1.5355 -1.6756  0.8145
 4096SOL     OW15785  10.677   8.244   9.168 -0.4568 -0.1784 -0.2694
 4096SOL    HW115786  10.592   8.285   9.151  0.2512  1.1935 -0.6731
 4096SOL    HW215787  10.737   8.318   9.181  0.5047 -1.1140  0.9278
 4097SOL     OW15788   7.795   5.832   7.669 -0.3523  0.5719 -0.1459
 4097SOL    HW115789   7.762   5.917   7.699  0.0948 -0.4788  3.9151
 4097SOL    HW215790   7.724   5.771   7.685  1.0622 -0.6022  2.1839
 4098SOL     OW15791   7.408   3.984   5.533 -0.7075 -0.4887  0.5610
 4098SOL    HW115792   7.468   4.050   5.569 -1.4181 -0.7352  2.3056
 4098SOL    HW215793   7.460   3.904   5.530  0.1347  0.0633 -1.4880
 4099SOL     OW15794   8.948   7.030   4.739  0.1205 -0.4625  0.4160
 4099SOL    HW115795   8.973   7.105   4.793 -0.9046  1.1721 -1.2176
 4099SOL    HW215796   8.858   7.009   4.767 -0.1872 -0.0066 -0.2045
 4100SOL     OW15797   5.420   4.563  10.709 -0.0443  0.0286 -0.1258
 4100SOL    HW115798   5.465   4.496  10.659 -0.0440 -0.1533  0.1180
 4100SOL    HW215799   5.338   4.577  10.662  0.5587  0.8673 -0.9783
 4101SOL     OW15800   5.789   2.979   9.819  0.1597 -0.5294  0.2972
 4101SOL    HW115801   5.731   2.996   9.745  0.6341  0.4655  0.1278
 4101SOL    HW215802   5.779   3.055   9.876  2.4146  0.4784 -0.5039
 4102SOL     OW15803  10.060   7.251   3.884 -0.1015 -0.1999 -0.5319
 4102SOL    HW115804  10.143   7.286   3.918  0.0971 -0.8273 -0.3589
 4102SOL    HW215805  10.019   7.208   3.959  0.7791 -2.4209 -1.2419
 4103SOL     OW15806   8.476   7.973   5.361  0.2860 -0.1375 -0.4449
 4103SOL    HW115807   8.452   8.064   5.343  0.3118 -0.1236 -0.4084
 4103SOL    HW215808   8.569   7.976   5.383  0.0518 -0.0327  0.5531
 4104SOL     OW15809   7.989   3.999   4.827  0.4489 -0.2934  0.7025
 4104SOL    HW115810   8.015   3.935   4.761  1.0363  0.3012  0.3438
 4104SOL    HW215811   7.893   3.998   4.826  0.4559 -0.7946  0.3417
 4105SOL     OW15812   4.907   9.145   3.464  0.9517  0.3235  0.3552
 4105SOL    HW115813   4.895   9.229   3.509  1.0632  0.8516 -0.5818
 4105SOL    HW215814   4.962   9.094   3.524 -2.5590 -0.7638  2.9843
 4106SOL     OW15815   5.357   0.190   1.222  0.4411  0.3735  0.0211
 4106SOL    HW115816   5.372   0.122   1.156 -1.4917 -2.1928  1.9919
 4106SOL    HW215817   5.271   0.226   1.201  1.2060  1.9010 -0.6692
 4107SOL     OW15818   6.439   0.394   4.340 -0.1727  0.2212 -0.0906
 4107SOL    HW115819   6.440   0.465   4.276 -0.7108  0.3638  0.0571
 4107SOL    HW215820   6.348   0.386   4.367 -0.1679 -0.7294 -0.3195
 4108SOL     OW15821   2.853   0.339   5.923 -0.0781 -0.3802  0.2918
 4108SOL    HW115822   2.946   0.324   5.937 -0.1381 -1.5263 -0.4375
 4108SOL    HW215823   2.847   0.431   5.895  0.7859 -0.2093  0.6555
 4109SOL     OW15824   1.104   7.645  10.216  0.0469  0.0312  0.6937
 4109SOL    HW115825   1.138   7.721  10.169  0.7552 -0.1777  0.8646
 4109SOL    HW215826   1.122   7.663  10.308 -0.5775  0.0516  0.8166
 4110SOL     OW15827   3.421   8.344   2.788  0.7951  0.1449  0.2199
 4110SOL    HW115828   3.437   8.256   2.822  0.3337  0.2588  0.7385
 4110SOL    HW215829   3.488   8.356   2.720  0.6259 -0.7449 -0.1140
 4111SOL     OW15830   3.347   0.073   1.970 -0.3458  0.6347  0.3471
 4111SOL    HW115831   3.386   0.033   1.892  0.7312  0.5879  0.8884
 4111SOL    HW215832   3.417   0.070   2.036 -0.9634  1.4280  1.0601
 4112SOL     OW15833   8.865   6.839   5.970 -0.3569 -0.1782 -0.2822
 4112SOL    HW115834   8.879   6.927   6.005 -3.1213  1.1599 -2.1331
 4112SOL    HW215835   8.868   6.781   6.046  0.5398  1.6286  1.1234
 4113SOL     OW15836   3.717   7.711   8.122  0.1966  0.0560 -0.2510
 4113SOL    HW115837   3.776   7.674   8.187  0.7635  1.6153  0.1651
 4113SOL    HW215838   3.652   7.642   8.107  1.2790 -1.1374  0.3619
 4114SOL     OW15839   9.638   6.804   6.047  0.6508  0.7187  0.2921
 4114SOL    HW115840   9.722   6.822   6.005  0.5161 -1.1140 -0.8520
 4114SOL    HW215841   9.654   6.727   6.101  0.1630  1.5179  1.6047
 4115SOL     OW15842   4.007  10.317   2.892 -0.2927  0.1895  0.1147
 4115SOL    HW115843   3.975  10.402   2.861 -1.2714 -0.2019  0.0388
 4115SOL    HW215844   4.064  10.339   2.966 -0.1696  0.9433 -0.1927
 4116SOL     OW15845   0.371   4.562   2.891 -0.0034  0.1783  0.1405
 4116SOL    HW115846   0.330   4.494   2.946  4.0682 -1.5711  1.4210
 4116SOL    HW215847   0.406   4.514   2.816 -0.5555  1.6188 -1.0738
 4117SOL     OW15848   7.188   7.641   6.925 -0.7790  0.2646 -1.1894
 4117SOL    HW115849   7.279   7.613   6.914 -0.3391  1.5761 -0.9528
 4117SOL    HW215850   7.180   7.721   6.873 -0.7598  2.2677  1.7082
 4118SOL     OW15851   9.558   8.433   9.077 -0.0867  0.0314 -0.2655
 4118SOL    HW115852   9.523   8.510   9.032  2.8894  1.8667  0.2619
 4118SOL    HW215853   9.541   8.361   9.017 -0.4557  1.5874 -2.1516
 4119SOL     OW15854   0.689   5.554   8.719 -0.1622 -0.3654  0.2021
 4119SOL    HW115855   0.784   5.540   8.715 -0.2107 -1.0150  1.0755
 4119SOL    HW215856   0.665   5.530   8.808 -0.8702  1.5973  0.5895
 4120SOL     OW15857   6.710   9.652   7.183 -0.6558 -0.1368  0.0182
 4120SOL    HW115858   6.626   9.683   7.216  0.0568  0.8747  0.9725
 4120SOL    HW215859   6.707   9.668   7.089 -0.6029  2.2682  0.3698
 4121SOL     OW15860   9.862   3.710  10.538  0.0561  0.2104  0.2184
 4121SOL    HW115861   9.817   3.661  10.606 -0.3689 -0.1863 -0.3318
 4121SOL    HW215862   9.793   3.761  10.495  0.1309 -0.3318 -0.5753
 4122SOL     OW15863   6.966   5.624   4.727  0.4504 -0.0539  0.3332
 4122SOL    HW115864   6.999   5.698   4.676 -1.5255  0.2622 -0.5824
 4122SOL    HW215865   6.895   5.660   4.779 -1.1545 -1.4386 -0.8072
 4123SOL     OW15866   4.760   0.969   5.688  0.3303 -0.4929 -0.0285
 4123SOL    HW115867   4.743   0.926   5.604 -0.8749 -1.9723  0.9124
 4123SOL    HW215868   4.704   1.047   5.687  0.3856 -0.4572 -0.6219
 4124SOL     OW15869   2.969   8.552   8.335 -0.1971  0.2208 -0.2477
 4124SOL    HW115870   3.004   8.612   8.269 -1.2016  0.5240 -0.5389
 4124SOL    HW215871   3.003   8.466   8.311 -1.5038  0.1187 -1.9180
 4125SOL     OW15872   2.264   2.379   4.039 -0.8511  0.5228 -0.7233
 4125SOL    HW115873   2.232   2.452   4.093 -0.3139 -0.7771  1.5042
 4125SOL    HW215874   2.359   2.380   4.052 -0.8105 -0.3715 -0.9187
 4126SOL     OW15875   4.806   4.798   0.094 -0.5816  0.3863  0.0699
 4126SOL    HW115876   4.896   4.777   0.069 -0.3798  0.8803  0.3727
 4126SOL    HW215877   4.753   4.769   0.019 -0.2720 -0.7336  0.2576
 4127SOL     OW15878  10.109   7.879   2.264 -0.0137 -0.1025 -0.0303
 4127SOL    HW115879  10.190   7.833   2.288 -0.2934 -0.8878 -0.5526
 4127SOL    HW215880  10.055   7.874   2.343 -0.5950 -1.9422 -0.4832
 4128SOL     OW15881   8.261   1.644   8.436  0.0948  0.3455 -0.3771
 4128SOL    HW115882   8.281   1.692   8.517  0.4220  0.6081 -0.6090
 4128SOL    HW215883   8.165   1.637   8.435  0.1370 -0.6221  0.5769
 4129SOL     OW15884   5.693   6.421   9.934 -0.1667  0.0742 -0.8109
 4129SOL    HW115885   5.765   6.439   9.874  1.4258 -2.0514  0.3104
 4129SOL    HW215886   5.686   6.326   9.936 -1.8743  0.1662  0.4249
 4130SOL     OW15887   4.644   3.775   8.536 -0.9055  0.5258  0.0187
 4130SOL    HW115888   4.667   3.716   8.464 -2.0699  0.8968 -0.6863
 4130SOL    HW215889   4.686   3.858   8.514  0.8714 -0.0388  1.0950
 4131SOL     OW15890   4.229   7.835   4.611  0.3665 -0.7491  0.1051
 4131SOL    HW115891   4.308   7.857   4.660 -0.2968  0.3056  0.7476
 4131SOL    HW215892   4.242   7.744   4.583  2.1955 -0.3070 -0.6185
 4132SOL     OW15893   3.908   4.406   7.903  0.0140  0.2400  0.5408
 4132SOL    HW115894   3.847   4.344   7.943  0.9154 -0.0322  1.5467
 4132SOL    HW215895   3.946   4.358   7.830 -0.1404  0.0082  0.6115
 4133SOL     OW15896   8.276   4.106   5.567  0.0958  0.6403  0.0975
 4133SOL    HW115897   8.354   4.113   5.512  0.0382  0.5212  0.0015
 4133SOL    HW215898   8.239   4.195   5.567  0.0152  0.6107 -0.1762
 4134SOL     OW15899   1.012   8.930   9.799  0.3468  0.2676  0.3571
 4134SOL    HW115900   1.001   8.873   9.875 -0.9971 -0.5580 -0.4093
 4134SOL    HW215901   1.056   8.874   9.734  2.1483  1.1846  0.7409
 4135SOL     OW15902   0.527  10.917   9.404  0.0862  0.1385 -0.0172
 4135SOL    HW115903   0.485  10.968   9.473  0.9966  0.9398 -0.0430
 4135SOL    HW215904   0.621  10.921   9.424  0.5482  1.6807 -2.1083
 4136SOL     OW15905  10.047   1.352   2.300 -0.1065  0.1602  0.2306
 4136SOL    HW115906  10.112   1.289   2.271 -0.2419 -0.3465  1.0198
 4136SOL    HW215907   9.969   1.299   2.320 -0.6779  0.7234 -0.4353
 4137SOL     OW15908   7.671   7.614   6.605  0.1297 -0.1999  0.3398
 4137SOL    HW115909   7.731   7.581   6.672 -0.1065  1.5366  1.4523
 4137SOL    HW215910   7.724   7.678   6.556  0.2423 -1.3077 -1.0460
 4138SOL     OW15911  10.981   2.576   0.784 -0.1114 -0.4741 -0.0867
 4138SOL    HW115912  10.919   2.625   0.730  1.3225  1.6831  0.1347
 4138SOL    HW215913  10.927   2.537   0.853 -1.5302 -0.6699 -1.2567
 4139SOL     OW15914   7.749   9.704   9.174 -0.0675 -0.6760  0.1763
 4139SOL    HW115915   7.731   9.614   9.146  0.3954 -0.9445  0.7209
 4139SOL    HW215916   7.745   9.700   9.270  0.5044 -0.2366  0.2198
 4140SOL     OW15917   8.877   4.163   6.205  0.0136  0.5966  0.2947
 4140SOL    HW115918   8.861   4.181   6.112 -2.9621 -0.9346  0.3761
 4140SOL    HW215919   8.810   4.212   6.251  0.7534  0.4483  1.5721
 4141SOL     OW15920   4.559   5.158   2.117 -0.7825  0.2654  0.1417
 4141SOL    HW115921   4.533   5.148   2.209  1.2804 -0.8750  0.6489
 4141SOL    HW215922   4.521   5.082   2.073 -0.0323 -0.3263  0.4904
 4142SOL     OW15923   9.974   5.462   8.909  0.0188 -0.1386 -0.1012
 4142SOL    HW115924   9.977   5.372   8.878 -1.4090  0.1723 -1.2773
 4142SOL    HW215925   9.884   5.490   8.891  0.0421  1.1028  1.4699
 4143SOL     OW15926   9.895   1.959   2.141  0.3360 -0.4442  0.2024
 4143SOL    HW115927   9.917   1.869   2.166 -0.0252 -0.4885  0.3774
 4143SOL    HW215928   9.945   2.013   2.202  0.4780 -0.5276  0.1611
 4144SOL     OW15929  10.828   4.906   1.073  0.0442 -0.1612 -0.4212
 4144SOL    HW115930  10.793   4.919   1.161  1.5911 -1.3835  0.4378
 4144SOL    HW215931  10.833   4.811   1.063  0.5389 -0.0367 -1.5688
 4145SOL     OW15932   6.392   0.513   6.786  0.0478 -0.0691 -0.2969
 4145SOL    HW115933   6.368   0.528   6.695 -0.5740 -0.8893 -0.2797
 4145SOL    HW215934   6.436   0.428   6.786  1.4783  0.6448 -0.0597
 4146SOL     OW15935   8.878   7.716   6.050  0.3863 -0.3506 -0.4929
 4146SOL    HW115936   8.800   7.699   5.996 -0.2087  1.4621 -0.2689
 4146SOL    HW215937   8.944   7.656   6.016 -0.4359 -0.3412 -2.2099
 4147SOL     OW15938   9.240   6.304   5.582  1.0443 -0.7854 -0.0249
 4147SOL    HW115939   9.331   6.321   5.606  1.3114 -0.7057 -1.0714
 4147SOL    HW215940   9.234   6.208   5.581  0.7737 -0.8080  1.2403
 4148SOL     OW15941   1.571   6.695   5.601  0.3191  0.1729 -0.4860
 4148SOL    HW115942   1.555   6.699   5.507 -0.7993  0.0399 -0.3080
 4148SOL    HW215943   1.546   6.606   5.625  0.2137  0.3345  0.0068
 4149SOL     OW15944   4.582   3.925   0.502 -0.2253  0.6968  0.2821
 4149SOL    HW115945   4.560   4.010   0.541 -0.4317  0.5962  0.3901
 4149SOL    HW215946   4.615   3.946   0.415  1.6126  1.0496  1.0079
 4150SOL     OW15947   1.061  10.526   9.725  0.0542  0.0568  0.4899
 4150SOL    HW115948   0.986  10.585   9.729  1.1534  1.6131 -0.5006
 4150SOL    HW215949   1.071  10.506   9.632  0.9762  0.0642  0.5728
 4151SOL     OW15950   1.018   6.175   9.569  0.2941 -0.1091 -0.5344
 4151SOL    HW115951   1.102   6.156   9.611  0.0940 -0.2258 -0.1776
 4151SOL    HW215952   1.024   6.268   9.545  1.2857 -0.5956 -2.3183
 4152SOL     OW15953   4.919   6.956   1.535  0.5623 -0.0587 -0.4892
 4152SOL    HW115954   4.927   7.041   1.492 -1.7226  0.0061 -0.9060
 4152SOL    HW215955   4.859   6.906   1.479 -0.1433 -1.0313  1.0516
 4153SOL     OW15956   7.257   8.530   9.417  0.0988  0.4415 -0.0929
 4153SOL    HW115957   7.242   8.437   9.434 -0.9349  0.7434  0.7903
 4153SOL    HW215958   7.333   8.532   9.360 -0.4370 -0.9913 -0.9139
 4154SOL     OW15959  10.203   1.746   1.286 -0.1665 -0.1892  0.5165
 4154SOL    HW115960  10.217   1.659   1.323 -0.6085 -0.9963 -1.1206
 4154SOL    HW215961  10.108   1.757   1.285 -0.0768  1.3678  2.9479
 4155SOL     OW15962   3.694   2.682   2.759 -0.1848 -0.3785  0.4125
 4155SOL    HW115963   3.649   2.658   2.839  0.2075 -0.2166  0.6846
 4155SOL    HW215964   3.628   2.671   2.690 -0.6247 -0.1765  0.7966
 4156SOL     OW15965   7.758   6.199   7.578  0.2868 -0.5170 -0.0858
 4156SOL    HW115966   7.721   6.206   7.666 -1.0602  1.2628 -0.7429
 4156SOL    HW215967   7.696   6.144   7.530  1.4423 -2.1910  0.2221
 4157SOL     OW15968   7.194   1.593   5.766  0.4539 -0.5654  0.1635
 4157SOL    HW115969   7.114   1.577   5.716  0.5891 -1.3256  0.1713
 4157SOL    HW215970   7.185   1.682   5.799  0.4917  0.0684 -1.4587
 4158SOL     OW15971   7.044   0.658   7.500 -0.0631  0.5860  0.1148
 4158SOL    HW115972   7.131   0.698   7.501  1.0290 -1.6300  1.4738
 4158SOL    HW215973   7.025   0.640   7.592 -0.6181 -1.5913 -0.3678
 4159SOL     OW15974  10.992   4.101  10.408  0.5156 -0.0452  0.5129
 4159SOL    HW115975  10.903   4.124  10.385  0.5734 -0.6494 -0.3773
 4159SOL    HW215976  10.992   4.098  10.504 -0.4485 -0.1770  0.5193
 4160SOL     OW15977   1.904   6.984   2.669  0.6498 -0.2727  0.0725
 4160SOL    HW115978   1.972   6.917   2.677 -0.0993 -0.8393  2.9964
 4160SOL    HW215979   1.825   6.937   2.644  1.0279  0.2355 -2.2703
 4161SOL     OW15980   5.527   7.266   5.306 -0.2829  0.2214  0.3312
 4161SOL    HW115981   5.504   7.177   5.278 -0.1320  0.2421  0.1400
 4161SOL    HW215982   5.597   7.253   5.370  0.3478  0.2410 -0.3358
 4162SOL     OW15983   3.291   3.044   7.088 -0.6945 -0.1993 -0.0966
 4162SOL    HW115984   3.279   2.954   7.057 -2.3259  0.3617 -1.1982
 4162SOL    HW215985   3.319   3.093   7.011 -0.5281  0.3826  0.3233
 4163SOL     OW15986   6.307   2.800   5.181 -0.2108  0.4377  0.0008
 4163SOL    HW115987   6.245   2.740   5.222 -1.4318  0.5859 -1.5519
 4163SOL    HW215988   6.350   2.747   5.113  0.6877  0.5970  0.4290
 4164SOL     OW15989   0.468   9.247   9.791  0.4172 -0.0408 -0.0260
 4164SOL    HW115990   0.404   9.178   9.810 -0.0742  0.2565 -0.5563
 4164SOL    HW215991   0.531   9.205   9.731 -1.2302  0.5952 -2.3543
 4165SOL     OW15992   3.349   8.619   8.076  0.6548  0.1528 -0.3988
 4165SOL    HW115993   3.377   8.567   8.151 -0.1358  1.7597  1.0851
 4165SOL    HW215994   3.395   8.581   8.001  0.7570 -2.0848  0.7363
 4166SOL     OW15995  10.365   9.656   7.565 -0.8847  0.1434  0.1185
 4166SOL    HW115996  10.282   9.622   7.531  0.1067  0.3443 -2.7386
 4166SOL    HW215997  10.432   9.600   7.525  0.4512  0.9559  1.1337
 4167SOL     OW15998   5.325   2.375   9.640  0.1652  0.1806  0.0823
 4167SOL    HW115999   5.331   2.457   9.688  0.5416  0.9352 -1.1885
 4167SOL    HW216000   5.324   2.401   9.548 -2.4881 -1.0965 -0.3396
 4168SOL     OW16001   4.807   2.922   0.469  0.1579 -0.3014  0.6446
 4168SOL    HW116002   4.799   2.966   0.384  1.6398 -2.4839 -0.7247
 4168SOL    HW216003   4.754   2.976   0.528 -0.3171  1.7391 -1.4594
 4169SOL     OW16004   0.417   8.154   4.806 -0.0002 -0.1318  0.8268
 4169SOL    HW116005   0.497   8.109   4.781  0.0207  0.2194  0.2497
 4169SOL    HW216006   0.357   8.084   4.832 -0.3442 -0.6052 -1.0767
 4170SOL     OW16007   4.173   1.380   9.221 -0.0690 -0.2174  0.1192
 4170SOL    HW116008   4.200   1.378   9.313  1.4246 -2.1451 -0.3152
 4170SOL    HW216009   4.157   1.473   9.204 -0.1057  0.2286  2.2256
 4171SOL     OW16010   9.414   1.652   6.726 -0.1633 -0.3195 -0.0786
 4171SOL    HW116011   9.443   1.587   6.662  1.8466  1.8981 -1.6003
 4171SOL    HW216012   9.321   1.666   6.706  0.0031 -0.9083 -1.4001
 4172SOL     OW16013   6.277   6.810  10.687 -0.5091 -0.2402 -0.0917
 4172SOL    HW116014   6.245   6.832  10.775 -0.7974 -0.6203 -0.0979
 4172SOL    HW216015   6.198   6.804  10.634 -0.3059  0.3613 -0.4635
 4173SOL     OW16016  10.231  10.537  10.282  0.0272  0.4092 -0.2546
 4173SOL    HW116017  10.231  10.633  10.287  0.8662  0.5355 -2.1511
 4173SOL    HW216018  10.316  10.511  10.317 -0.6302  0.2574  1.2956
 4174SOL     OW16019   1.072   7.815   4.045  0.4796 -0.3882  0.1699
 4174SOL    HW116020   1.027   7.899   4.041 -0.3936 -0.8434  0.1928
 4174SOL    HW216021   1.014   7.759   4.098 -0.4991 -1.9095 -2.2974
 4175SOL     OW16022   2.581  10.787   0.777  0.0965  0.0337  0.1929
 4175SOL    HW116023   2.604  10.724   0.845 -1.9114 -1.1047 -0.1061
 4175SOL    HW216024   2.487  10.802   0.789 -0.0212  0.8682 -1.4737
 4176SOL     OW16025   3.860   4.877  10.349 -0.7377  0.1866 -0.0847
 4176SOL    HW116026   3.804   4.931  10.405 -1.5281 -1.3050  0.6356
 4176SOL    HW216027   3.849   4.914  10.262  1.2940  3.2067  0.7886
 4177SOL     OW16028   0.589   1.404   5.567  0.5884  0.3825 -0.6255
 4177SOL    HW116029   0.630   1.332   5.519  1.4390  0.7168 -0.4303
 4177SOL    HW216030   0.655   1.430   5.632 -0.8860 -0.7190  1.4314
 4178SOL     OW16031   3.954  10.859   6.660  0.2311  0.7313  0.1475
 4178SOL    HW116032   4.040  10.823   6.638  0.0469  0.4469 -0.1091
 4178SOL    HW216033   3.924  10.805   6.733  0.0269  0.4695 -0.1294
 4179SOL     OW16034   4.151   6.862   3.282  0.0244  0.2035 -0.5266
 4179SOL    HW116035   4.135   6.956   3.283  1.8022  0.5278 -0.5658
 4179SOL    HW216036   4.171   6.840   3.373  0.3060 -0.0076 -0.6366
 4180SOL     OW16037  10.599   6.354   2.606 -0.4985  0.5912 -0.5833
 4180SOL    HW116038  10.689   6.355   2.573 -0.0479  0.4211  0.5939
 4180SOL    HW216039  10.574   6.446   2.612  0.2146  0.7229  0.6646
 4181SOL     OW16040   4.203   7.217   1.886  0.4745 -0.2335  0.1167
 4181SOL    HW116041   4.170   7.129   1.901  1.1874 -0.4753  0.2812
 4181SOL    HW216042   4.178   7.238   1.796 -1.6615  0.2679  0.7677
 4182SOL     OW16043   0.626   9.830   3.150 -0.1472 -0.5675 -0.1179
 4182SOL    HW116044   0.688   9.791   3.088 -1.0102 -0.1002 -1.3119
 4182SOL    HW216045   0.540   9.809   3.114 -0.6730 -0.0128  0.7712
 4183SOL     OW16046   1.816   8.416   1.043 -0.4466 -0.3216 -0.1416
 4183SOL    HW116047   1.772   8.474   1.105  2.3584  1.6298  0.1833
 4183SOL    HW216048   1.796   8.454   0.957  0.9356  0.8518  0.0361
 4184SOL     OW16049   9.165   6.352   5.105 -0.1066 -0.1105 -0.1366
 4184SOL    HW116050   9.098   6.285   5.119 -1.0676  0.9119  0.3550
 4184SOL    HW216051   9.156   6.411   5.180  2.4888 -0.8344  0.8270
 4185SOL     OW16052   9.463   1.708   3.153  0.3384 -0.3983 -1.0184
 4185SOL    HW116053   9.493   1.785   3.202  0.5815 -1.5217  0.6621
 4185SOL    HW216054   9.370   1.724   3.138  0.0932 -0.3270  0.4550
 4186SOL     OW16055   7.430   6.274   8.339 -0.1203  0.2727 -0.0294
 4186SOL    HW116056   7.454   6.316   8.256  0.8334  1.5040  0.8271
 4186SOL    HW216057   7.411   6.347   8.398  1.4825 -0.4527  1.4948
 4187SOL     OW16058   4.837   6.769   0.791 -0.6483 -0.1160 -0.0949
 4187SOL    HW116059   4.768   6.833   0.811 -0.2222  0.5084 -0.5581
 4187SOL    HW216060   4.914   6.802   0.839  0.0827  0.7818 -1.7975
 4188SOL     OW16061   3.820   5.028  10.639 -0.1474  0.5104 -0.1058
 4188SOL    HW116062   3.813   4.933  10.651 -0.0485  0.6986  1.7736
 4188SOL    HW216063   3.730   5.060  10.649  0.1013  0.7934  1.5403
 4189SOL     OW16064   9.749   1.948   7.551 -0.0051  0.0804  0.5449
 4189SOL    HW116065   9.836   1.912   7.537 -0.7888 -1.1120 -1.7777
 4189SOL    HW216066   9.763   2.042   7.565  1.7351 -0.3511  2.0133
 4190SOL     OW16067   4.168   5.983   8.233 -0.0910 -0.2717  0.1490
 4190SOL    HW116068   4.225   6.016   8.164 -0.0198 -0.9843 -0.1440
 4190SOL    HW216069   4.228   5.951   8.300 -0.1490 -0.4627  0.1109
 4191SOL     OW16070   9.820   2.378   4.619 -0.6133 -0.3222 -0.1549
 4191SOL    HW116071   9.830   2.472   4.606 -0.4271 -0.2229  0.6734
 4191SOL    HW216072   9.883   2.339   4.559 -0.1406  0.1088  0.0564
 4192SOL     OW16073   5.040   6.893   9.660 -0.1509  0.5003 -0.5741
 4192SOL    HW116074   5.036   6.986   9.684  1.3098  0.0786  1.5422
 4192SOL    HW216075   5.125   6.884   9.616  0.7666 -0.2053  1.2546
 4193SOL     OW16076   6.251   4.152   8.296 -0.1797  0.4505 -0.4125
 4193SOL    HW116077   6.255   4.059   8.275 -1.6974  0.4302 -0.7426
 4193SOL    HW216078   6.285   4.196   8.218  0.4611  0.1860 -0.2889
 4194SOL     OW16079   9.035   1.381   7.756  0.9219 -0.1282 -0.5872
 4194SOL    HW116080   8.948   1.359   7.724 -0.2966  0.8189  1.8168
 4194SOL    HW216081   9.062   1.305   7.808 -0.4364  1.1733  2.2366
 4195SOL     OW16082   5.847   0.205   5.065 -0.5782  0.4583  0.0250
 4195SOL    HW116083   5.819   0.167   5.149 -0.0310  0.5123  0.2356
 4195SOL    HW216084   5.828   0.298   5.074 -0.7793  0.4229 -0.0208
 4196SOL     OW16085   3.573   1.245   2.253 -0.0193  0.2457 -0.0802
 4196SOL    HW116086   3.481   1.231   2.275  0.4103  0.6101  2.1376
 4196SOL    HW216087   3.620   1.229   2.334  2.0510 -1.1649 -1.4450
 4197SOL     OW16088   2.655   8.982   4.349  0.3962  0.1664  0.2723
 4197SOL    HW116089   2.716   8.935   4.292 -0.8239 -0.0135 -0.9147
 4197SOL    HW216090   2.630   8.918   4.416  0.5898 -0.1208  0.0706
 4198SOL     OW16091   6.732   8.446   2.661  0.3584  0.1177 -0.1515
 4198SOL    HW116092   6.660   8.451   2.724 -0.4159  0.2345 -1.0215
 4198SOL    HW216093   6.757   8.537   2.646  0.8227  0.0671  0.2879
 4199SOL     OW16094   0.277   7.019   7.848 -0.1948  0.1692  0.7770
 4199SOL    HW116095   0.351   7.046   7.793 -0.0503 -0.6886  0.5338
 4199SOL    HW216096   0.267   7.090   7.911 -0.0450  0.9404 -0.0462
 4200SOL     OW16097   6.611   5.407   9.674 -0.4901  0.1733 -0.7523
 4200SOL    HW116098   6.688   5.457   9.646  0.6814 -0.8244  0.5461
 4200SOL    HW216099   6.556   5.472   9.718  0.2022  0.6646 -0.5893
 4201SOL     OW16100   2.646   2.662   1.928  0.0429 -0.3846  0.1625
 4201SOL    HW116101   2.566   2.636   1.882 -0.4988 -0.3596  1.0438
 4201SOL    HW216102   2.714   2.607   1.891 -0.4159 -0.5164 -0.5029
 4202SOL     OW16103   7.052   6.457  10.471 -0.2157 -0.0216 -0.3746
 4202SOL    HW116104   7.004   6.391  10.421  1.3617 -1.0546 -0.5935
 4202SOL    HW216105   7.068   6.416  10.556 -1.9783  1.3316  0.7010
 4203SOL     OW16106   4.326  10.530   0.157  0.1198 -0.7094  0.3613
 4203SOL    HW116107   4.364  10.618   0.156  0.0826 -0.6612 -1.9235
 4203SOL    HW216108   4.246  10.538   0.104 -1.7771 -1.3937  2.9377
 4204SOL     OW16109   9.643   6.619   3.246  0.5852  0.5413  0.2777
 4204SOL    HW116110   9.717   6.605   3.304  1.4735 -2.2979 -1.3441
 4204SOL    HW216111   9.566   6.614   3.304  1.4699 -1.2286  1.3991
 4205SOL     OW16112  10.148   4.188   7.498 -0.0144  0.2718 -0.3969
 4205SOL    HW116113  10.222   4.133   7.523 -0.3226  1.1403  2.8035
 4205SOL    HW216114  10.090   4.129   7.450  1.2936 -1.2407 -0.1997
 4206SOL     OW16115   2.898   5.048   2.461  0.0321 -0.4693 -0.3641
 4206SOL    HW116116   2.986   5.027   2.429 -0.4831 -2.7314 -0.4181
 4206SOL    HW216117   2.854   5.087   2.385  1.6275  2.9972  0.2962
 4207SOL     OW16118   0.649   8.232   9.847 -0.6544 -0.1895 -0.0733
 4207SOL    HW116119   0.699   8.212   9.926 -1.0953  1.2600  0.6029
 4207SOL    HW216120   0.702   8.196   9.776  0.4139 -0.3473  0.7691
 4208SOL     OW16121   2.504   9.621   4.002  0.2264 -0.3505  0.4265
 4208SOL    HW116122   2.512   9.576   4.086 -0.6338 -1.1058  0.1131
 4208SOL    HW216123   2.433   9.576   3.956  0.9503 -0.2184 -0.8790
 4209SOL     OW16124   4.965   6.336   5.097  0.5150 -0.1343 -0.1638
 4209SOL    HW116125   5.023   6.304   5.166  0.6773 -0.3123 -0.3806
 4209SOL    HW216126   4.972   6.270   5.028 -0.0054 -0.1982 -0.1609
 4210SOL     OW16127   9.880   7.635   6.159 -0.0032  0.2652 -0.4730
 4210SOL    HW116128   9.790   7.662   6.140  0.3135 -0.5953 -4.0070
 4210SOL    HW216129   9.871   7.546   6.195 -0.6060  1.4584  2.6220
 4211SOL     OW16130   4.238   6.562   5.969 -0.1908  0.5240  0.2211
 4211SOL    HW116131   4.253   6.487   5.912  1.1526  0.5323  0.5394
 4211SOL    HW216132   4.201   6.525   6.050 -2.7308  0.5734 -0.8175
 4212SOL     OW16133   4.677   0.912   7.698  0.1140 -0.3884  0.0652
 4212SOL    HW116134   4.629   0.908   7.781 -1.1041 -0.4991 -0.6177
 4212SOL    HW216135   4.616   0.874   7.633  1.8171 -2.2740 -0.5488
 4213SOL     OW16136   7.099   4.224   1.714  1.0754 -0.2425 -0.5036
 4213SOL    HW116137   7.121   4.308   1.675  2.0314 -0.6706 -0.9127
 4213SOL    HW216138   7.033   4.245   1.780  0.4123  0.6619 -1.4214
 4214SOL     OW16139   1.282   5.675   3.912  0.0707 -0.6192 -0.3224
 4214SOL    HW116140   1.194   5.703   3.934  0.5495 -0.0217  0.9426
 4214SOL    HW216141   1.271   5.612   3.841 -1.4764 -1.6053  0.7500
 4215SOL     OW16142   0.672   1.770   2.051  0.0960  0.5747 -0.2462
 4215SOL    HW116143   0.605   1.755   2.118  0.9241 -0.0133  0.4606
 4215SOL    HW216144   0.686   1.865   2.053 -1.4885  0.8696 -1.1771
 4216SOL     OW16145   4.039   0.234   0.411 -0.4143 -0.5262 -0.3474
 4216SOL    HW116146   4.005   0.323   0.403  2.0592  0.6498  1.0469
 4216SOL    HW216147   3.996   0.199   0.489  0.4308  0.4193  0.5739
 4217SOL     OW16148   5.807   9.253   4.268 -0.2451 -0.3407  0.0055
 4217SOL    HW116149   5.712   9.251   4.257 -0.6831  3.6719  1.3484
 4217SOL    HW216150   5.841   9.269   4.180 -1.0011  0.0855 -0.2225
 4218SOL     OW16151   4.595   8.873   5.581  0.5508 -0.2664  0.1049
 4218SOL    HW116152   4.500   8.885   5.586  0.4973 -0.4831 -0.3630
 4218SOL    HW216153   4.611   8.842   5.492  0.4682 -5.5772  1.6346
 4219SOL     OW16154   0.666   1.287   0.421  0.6373  0.1927 -0.3909
 4219SOL    HW116155   0.714   1.297   0.503  1.3835  1.7979 -0.9675
 4219SOL    HW216156   0.596   1.225   0.441  0.1901  1.2838  1.7324
 4220SOL     OW16157   7.912   1.739   7.225  0.6633  0.3518 -0.1829
 4220SOL    HW116158   7.916   1.732   7.320  1.1181 -0.4423 -0.2448
 4220SOL    HW216159   7.935   1.830   7.207  0.8395  0.4421  0.4561
 4221SOL     OW16160  10.597   0.455  10.840 -0.2040 -0.5602 -0.1577
 4221SOL    HW116161  10.525   0.403  10.806 -2.2928  1.2056  1.2608
 4221SOL    HW216162  10.599   0.436  10.934  2.5362 -2.0190 -0.3939
 4222SOL     OW16163   8.347   3.947   3.324  0.2368 -0.3152 -0.7081
 4222SOL    HW116164   8.395   4.029   3.336  0.5856 -0.2505 -2.3222
 4222SOL    HW216165   8.318   3.949   3.233 -0.1269 -1.7945 -0.6545
 4223SOL     OW16166   4.801   7.714   6.782  0.0241 -0.3296  0.3012
 4223SOL    HW116167   4.732   7.653   6.809 -0.6650  0.2155 -0.1809
 4223SOL    HW216168   4.788   7.790   6.839  0.6877 -0.5037  0.6930
 4224SOL     OW16169   8.513   2.671   9.168  0.1473 -0.0083 -0.3369
 4224SOL    HW116170   8.464   2.707   9.094  0.8019  3.8706  0.8577
 4224SOL    HW216171   8.463   2.697   9.245  2.3251  1.2180  0.7624
 4225SOL     OW16172   2.723  10.529   5.830  0.2006 -0.1408 -0.2884
 4225SOL    HW116173   2.748  10.566   5.915  1.1187  0.6611 -0.8846
 4225SOL    HW216174   2.782  10.455   5.818 -1.0707 -1.3132  0.5231
 4226SOL     OW16175   3.656   5.471   7.512  0.1343 -0.1967 -0.4547
 4226SOL    HW116176   3.630   5.518   7.433  1.3997  0.5823 -0.4390
 4226SOL    HW216177   3.721   5.528   7.554 -1.2044 -0.1442  1.6801
 4227SOL     OW16178   6.913   8.028   2.540  0.3311 -0.1387  0.0164
 4227SOL    HW116179   6.927   7.933   2.537  0.9890 -0.1437  2.0140
 4227SOL    HW216180   6.937   8.058   2.453  0.3646 -1.7742 -0.5779
 4228SOL     OW16181   9.026   4.341   5.070  0.2376 -0.0832  0.2547
 4228SOL    HW116182   9.067   4.389   5.142 -1.8898  2.7808 -0.2973
 4228SOL    HW216183   9.073   4.368   4.992 -1.7342  2.2513 -0.2188
 4229SOL     OW16184   0.109   8.278   0.865 -0.1700  0.2245 -0.5833
 4229SOL    HW116185   0.195   8.268   0.907 -0.0459  1.1426 -0.5950
 4229SOL    HW216186   0.129   8.287   0.772 -0.0872  2.3820 -0.4144
 4230SOL     OW16187   7.901   8.807   1.763 -0.2031  0.3562  0.0190
 4230SOL    HW116188   7.832   8.744   1.739  0.1586  0.2538 -0.7878
 4230SOL    HW216189   7.856   8.891   1.768 -0.3631  0.3181 -0.6790
 4231SOL     OW16190  10.024   8.488   8.773 -0.0934 -0.1880  0.1509
 4231SOL    HW116191   9.980   8.421   8.720 -0.1002  0.7004 -1.0089
 4231SOL    HW216192  10.049   8.442   8.853 -0.6793 -1.4109 -0.3342
 4232SOL     OW16193   4.749   5.761   8.672  0.3881  0.0862  0.1389
 4232SOL    HW116194   4.683   5.824   8.644 -1.6669 -1.9195  0.0683
 4232SOL    HW216195   4.718   5.732   8.758  0.4337 -1.7749 -0.4257
 4233SOL     OW16196   8.922   0.993   7.105 -0.0995 -0.3064 -0.2357
 4233SOL    HW116197   8.913   0.898   7.116  0.3493 -0.4298 -0.8690
 4233SOL    HW216198   8.848   1.030   7.154  0.2222 -0.9346  0.7595
 4234SOL     OW16199   0.847   1.524   5.833 -0.0535  0.0828 -0.1592
 4234SOL    HW116200   0.819   1.576   5.758 -2.2066  2.2593  1.9590
 4234SOL    HW216201   0.905   1.583   5.882  1.1054 -1.1988  0.0532
 4235SOL     OW16202   8.912   2.879   0.511 -0.4230 -0.2247  0.2270
 4235SOL    HW116203   8.930   2.907   0.600 -1.1347  1.1326 -0.0295
 4235SOL    HW216204   8.969   2.804   0.497  0.9395  0.5868  1.2385
 4236SOL     OW16205   7.493   5.961   7.806  0.6730 -0.1655 -0.6003
 4236SOL    HW116206   7.435   5.936   7.734 -0.0257 -1.0417  0.2391
 4236SOL    HW216207   7.437   5.961   7.884  1.5034  0.3111  0.0183
 4237SOL     OW16208   8.069   7.416   2.676  0.2546 -0.2437  0.0090
 4237SOL    HW116209   8.092   7.490   2.733  2.1706 -1.4310  0.8547
 4237SOL    HW216210   8.051   7.344   2.736 -0.6508 -0.7416 -0.8318
 4238SOL     OW16211  10.999   9.127   0.040 -0.4079 -0.2358  0.4974
 4238SOL    HW116212  10.981   9.088   0.126  1.6353 -0.0316  1.0708
 4238SOL    HW216213  11.059   9.066  -0.002  0.6910  0.9179  0.3104
 4239SOL     OW16214   3.245   4.937   9.199  0.1551 -0.4831  0.4767
 4239SOL    HW116215   3.150   4.932   9.210 -0.1808 -2.7054 -2.2714
 4239SOL    HW216216   3.259   5.012   9.141  0.1681  0.1642  1.2986
 4240SOL     OW16217   4.694   9.422   2.194  0.2300 -0.2314 -0.1063
 4240SOL    HW116218   4.739   9.451   2.273 -0.0405  1.8340 -0.6454
 4240SOL    HW216219   4.725   9.482   2.126 -0.6987 -0.9917 -1.2333
 4241SOL     OW16220   8.247   1.804   9.510  0.1196  0.3888  0.0419
 4241SOL    HW116221   8.226   1.715   9.540  0.1253 -0.2972 -1.8490
 4241SOL    HW216222   8.169   1.832   9.463 -0.1221  1.6712  1.1624
 4242SOL     OW16223   6.215   5.058   7.069 -0.4910  0.7563 -0.4318
 4242SOL    HW116224   6.279   5.129   7.065 -0.2484  0.7141  1.6212
 4242SOL    HW216225   6.226   5.011   6.986  0.6647  1.9844 -1.0083
 4243SOL     OW16226   4.672   5.953   3.335 -0.4001 -0.2240  0.3659
 4243SOL    HW116227   4.640   6.029   3.287  0.0661  0.2475  0.7937
 4243SOL    HW216228   4.732   5.989   3.401  0.4126 -1.0175  0.0820
 4244SOL     OW16229   2.375   9.220   7.692 -0.1169 -0.0990  0.4139
 4244SOL    HW116230   2.453   9.272   7.675  1.0838 -1.8366  0.4074
 4244SOL    HW216231   2.346   9.247   7.779  0.8241  0.1579  0.6526
 4245SOL     OW16232   0.863   1.766   5.212 -0.0332 -0.3888 -0.1800
 4245SOL    HW116233   0.932   1.760   5.277  0.6412  0.9781 -0.7265
 4245SOL    HW216234   0.893   1.710   5.140 -0.3531 -1.1853  0.2900
 4246SOL     OW16235   5.033   0.417   4.258 -0.0630  0.0410  1.4084
 4246SOL    HW116236   4.974   0.486   4.227 -0.3078  0.0310  1.8433
 4246SOL    HW216237   5.026   0.421   4.354  1.1031  0.4464  1.4911
 4247SOL     OW16238   4.791   4.198   1.029  0.3940 -0.0675  0.2681
 4247SOL    HW116239   4.752   4.267   1.083  1.7913  0.7957  0.2073
 4247SOL    HW216240   4.885   4.214   1.032  0.7442 -1.8323  0.0436
 4248SOL     OW16241   1.051   0.023   4.726  0.3190 -0.2164  0.1952
 4248SOL    HW116242   0.970  -0.007   4.767 -0.7323  0.3691 -1.3856
 4248SOL    HW216243   1.104  -0.057   4.717 -0.4666 -0.7719  0.3757
 4249SOL     OW16244   5.411   4.596   1.809  0.2020  0.1538  0.1815
 4249SOL    HW116245   5.504   4.611   1.793 -0.0459 -0.0885 -1.6749
 4249SOL    HW216246   5.393   4.511   1.770 -1.2406  1.1681 -1.5641
 4250SOL     OW16247   7.773   2.475   7.516  0.0741 -0.3062 -0.1565
 4250SOL    HW116248   7.691   2.525   7.516  0.1765 -0.0582  1.5217
 4250SOL    HW216249   7.780   2.442   7.606  1.7380 -0.4663 -0.3227
 4251SOL     OW16250   8.033   4.986  10.173  0.0490  0.5225 -0.5382
 4251SOL    HW116251   8.073   4.989  10.259  0.8852  0.8644 -0.9238
 4251SOL    HW216252   8.073   4.911  10.130  0.1682  0.7764 -0.8776
 4252SOL     OW16253   9.861   7.427   7.814 -0.5969 -0.3854  0.4702
 4252SOL    HW116254   9.883   7.398   7.902 -2.3491  1.8911  1.7588
 4252SOL    HW216255   9.767   7.445   7.817 -0.3806  1.4388 -1.3294
 4253SOL     OW16256   1.810   1.647   0.108 -0.5894 -0.0618 -0.2365
 4253SOL    HW116257   1.884   1.655   0.048 -2.5361 -0.4482 -2.8670
 4253SOL    HW216258   1.797   1.736   0.143  0.8558  0.0752  0.0082
 4254SOL     OW16259   0.813   4.551   3.588 -0.4816 -0.3677  0.1585
 4254SOL    HW116260   0.848   4.494   3.519  0.3778  1.4038 -0.9500
 4254SOL    HW216261   0.889   4.577   3.639 -1.0758 -1.4274  1.6505
 4255SOL     OW16262   1.117   9.491  10.565 -0.2096 -0.1210 -0.1080
 4255SOL    HW116263   1.047   9.446  10.517 -0.4226  0.1971 -0.1038
 4255SOL    HW216264   1.124   9.443  10.647 -0.5042 -0.0898 -0.0615
 4256SOL     OW16265   0.363   5.078   4.946 -0.0221 -0.1486 -0.0891
 4256SOL    HW116266   0.421   5.137   4.899 -0.4894  0.1349 -0.3122
 4256SOL    HW216267   0.338   5.012   4.882  2.5623 -2.1729  0.7770
 4257SOL     OW16268   1.010  10.361  10.308 -0.1503 -0.3212 -0.0285
 4257SOL    HW116269   0.996  10.268  10.292  1.6731 -0.7322  0.5954
 4257SOL    HW216270   0.999  10.371  10.402  0.8418 -0.1398  0.0748
 4258SOL     OW16271   6.906   4.739   9.092  0.4094 -0.6407 -0.6214
 4258SOL    HW116272   6.985   4.712   9.138  0.3633 -0.1437 -0.2454
 4258SOL    HW216273   6.913   4.834   9.087 -1.0292 -0.4106  1.0101
 4259SOL     OW16274   3.270   9.779   7.967  0.5548  0.8558 -0.0658
 4259SOL    HW116275   3.287   9.787   8.061  0.4431  0.1158  0.0268
 4259SOL    HW216276   3.293   9.688   7.946  0.5810  1.0150 -0.7560
 4260SOL     OW16277   2.116   7.937   6.982 -0.3824  0.3923 -0.1104
 4260SOL    HW116278   2.149   7.871   7.044 -0.8260 -3.0036 -3.1338
 4260SOL    HW216279   2.194   7.970   6.939 -0.2126  1.4521  0.9450
 4261SOL     OW16280   9.242   5.459   5.339  0.1470 -0.2056  0.0196
 4261SOL    HW116281   9.256   5.534   5.281 -0.2108  0.0026  0.2024
 4261SOL    HW216282   9.255   5.495   5.427  3.3159 -1.0545  0.0143
 4262SOL     OW16283   3.294  10.975   0.784 -0.4437  0.1001  0.2577
 4262SOL    HW116284   3.311  10.924   0.863  0.1289  1.5455  1.1153
 4262SOL    HW216285   3.352  11.051   0.792 -1.7193  1.2190 -0.6365
 4263SOL     OW16286   4.191   4.865   9.427  0.1441 -0.5004 -0.0605
 4263SOL    HW116287   4.255   4.798   9.403 -0.5157 -0.3131 -2.6074
 4263SOL    HW216288   4.234   4.915   9.497  1.0010 -2.9532  1.2959
 4264SOL     OW16289   2.870   5.901   5.702  0.3680  0.9684 -0.3824
 4264SOL    HW116290   2.830   5.866   5.623  1.2772  1.0726 -0.9048
 4264SOL    HW216291   2.958   5.927   5.675  1.0329  0.1436  0.8695
 4265SOL     OW16292   3.873   4.483  10.878 -0.5022  0.2584  0.4118
 4265SOL    HW116293   3.875   4.503  10.972 -0.0861  2.6470 -0.0206
 4265SOL    HW216294   3.780   4.479  10.857 -0.6426 -2.1937  1.2085
 4266SOL     OW16295   9.751   6.652   9.479 -0.7729 -0.0643 -0.0392
 4266SOL    HW116296   9.813   6.723   9.493 -0.9235 -0.0584  0.6072
 4266SOL    HW216297   9.671   6.681   9.522 -1.4104  0.1655 -1.3183
 4267SOL     OW16298   1.596  10.528   8.581  0.2800 -1.2542  0.9071
 4267SOL    HW116299   1.678  10.545   8.628 -1.0276  1.9995  2.3175
 4267SOL    HW216300   1.602  10.584   8.503 -1.4501  0.8367  2.1942
 4268SOL     OW16301   4.569   0.747   1.689 -0.0041  0.2788 -0.2238
 4268SOL    HW116302   4.610   0.830   1.664  1.1394 -0.1540  0.1485
 4268SOL    HW216303   4.626   0.711   1.756 -0.1935 -1.0755 -0.7500
 4269SOL     OW16304   6.986   6.168   5.105  0.4416 -0.4014  0.3566
 4269SOL    HW116305   6.900   6.209   5.110  0.6335  0.2439 -1.1048
 4269SOL    HW216306   7.048   6.239   5.119  0.7505 -0.7798  0.9447
 4270SOL     OW16307   8.831   4.405   6.470  0.2116 -0.5937 -0.8614
 4270SOL    HW116308   8.823   4.483   6.417 -0.1920  0.3310  0.5070
 4270SOL    HW216309   8.923   4.404   6.497 -0.3484  1.0135  1.3918
 4271SOL     OW16310   3.294   6.013   2.782 -0.0912 -0.0333 -0.3153
 4271SOL    HW116311   3.225   5.948   2.785 -1.8534  1.6720 -1.5077
 4271SOL    HW216312   3.258   6.088   2.830  0.4088  1.3301 -1.9939
 4272SOL     OW16313   6.308   3.781   6.511  0.4598  0.3014  0.3810
 4272SOL    HW116314   6.359   3.707   6.478  1.3936  0.9234  0.3729
 4272SOL    HW216315   6.229   3.742   6.546  0.8679 -0.6856  0.2422
 4273SOL     OW16316   8.870   4.242   7.864 -0.7550 -0.2517 -0.5588
 4273SOL    HW116317   8.875   4.213   7.773 -1.0225  0.3099 -0.7572
 4273SOL    HW216318   8.850   4.336   7.858 -2.2883 -0.5213  0.1014
 4274SOL     OW16319   7.831   7.417   6.818 -0.6656 -0.6829 -0.0349
 4274SOL    HW116320   7.917   7.385   6.791 -0.4873  0.5941 -1.0659
 4274SOL    HW216321   7.850   7.483   6.885 -0.9595 -1.5606  0.9549
 4275SOL     OW16322   0.567   3.599   4.500 -0.0461 -0.4017 -0.2278
 4275SOL    HW116323   0.480   3.624   4.529 -0.2992 -1.8330  0.3242
 4275SOL    HW216324   0.619   3.594   4.580  0.1269 -1.1080 -0.3774
 4276SOL     OW16325   6.046   2.076  10.895  0.7483 -0.6306 -0.2546
 4276SOL    HW116326   5.977   2.093  10.831 -0.0429 -0.3047  0.6509
 4276SOL    HW216327   6.126   2.068  10.843  0.3161  0.7514 -1.1794
 4277SOL     OW16328   0.125   3.037   0.643  0.2632  0.6027  0.7106
 4277SOL    HW116329   0.141   3.108   0.581 -1.8912  0.5249  0.0059
 4277SOL    HW216330   0.169   2.961   0.604  1.1849  1.1551  0.6514
 4278SOL     OW16331   8.713   4.820   4.799 -0.0263 -0.7338  0.3770
 4278SOL    HW116332   8.798   4.840   4.838 -0.0171 -0.8985  0.4426
 4278SOL    HW216333   8.650   4.848   4.866 -0.0211 -0.6953  0.3659
 4279SOL     OW16334   8.944   1.929   4.808 -0.2916  0.5427  0.3547
 4279SOL    HW116335   8.862   1.892   4.775 -0.1886 -0.4835  1.2040
 4279SOL    HW216336   8.941   1.914   4.902  1.1626 -0.1131  0.3227
 4280SOL     OW16337   3.524   4.193   1.042  0.8080 -0.3058 -0.2408
 4280SOL    HW116338   3.485   4.209   1.128  1.4997 -3.0917  0.6966
 4280SOL    HW216339   3.465   4.130   1.001  1.1205  0.1119 -1.3579
 4281SOL     OW16340   3.657   4.069   1.403 -0.2974  0.1800 -0.2394
 4281SOL    HW116341   3.675   4.050   1.311 -1.4522  0.3177 -0.5048
 4281SOL    HW216342   3.567   4.099   1.405 -1.2399 -2.3741  1.2724
 4282SOL     OW16343   9.428   8.849   5.928  0.7008  0.4027  0.3043
 4282SOL    HW116344   9.393   8.890   5.849  1.2884  0.3057 -0.0084
 4282SOL    HW216345   9.350   8.829   5.980  0.2205 -0.3481 -0.6440
 4283SOL     OW16346   8.853   4.012   6.490  0.7808 -0.6318  0.3667
 4283SOL    HW116347   8.766   4.051   6.495  0.9396  0.0984 -1.6654
 4283SOL    HW216348   8.844   3.943   6.425  1.9365  0.1621 -0.6724
 4284SOL     OW16349   5.099   1.742   8.593 -0.3641  0.4820  0.2181
 4284SOL    HW116350   5.188   1.739   8.628  0.2702  0.9116 -1.3221
 4284SOL    HW216351   5.093   1.666   8.535  0.0154  2.0569 -1.9848
 4285SOL     OW16352   9.094   9.645   2.019 -0.6514 -0.1174  0.2371
 4285SOL    HW116353   9.151   9.643   2.095 -0.9743 -0.4342  0.4731
 4285SOL    HW216354   9.142   9.698   1.954 -1.3015  2.0641  1.4256
 4286SOL     OW16355   3.673   6.444   7.736 -0.2611 -0.5637 -0.2234
 4286SOL    HW116356   3.710   6.358   7.719 -1.8886 -1.1528 -0.9389
 4286SOL    HW216357   3.727   6.504   7.684  0.9275 -1.1262  0.3388
 4287SOL     OW16358   6.993   1.784   7.531 -0.0424  0.3598 -0.2078
 4287SOL    HW116359   6.978   1.702   7.484 -0.6962  0.3525 -0.0028
 4287SOL    HW216360   7.031   1.757   7.614 -2.3798  0.0334  0.8420
 4288SOL     OW16361   5.162   5.027   3.986 -0.0521  0.3492 -0.6981
 4288SOL    HW116362   5.125   5.066   4.065 -0.1084 -1.4329  0.1986
 4288SOL    HW216363   5.087   5.015   3.928 -0.7940 -2.0935  0.6269
 4289SOL     OW16364   3.376   1.997   9.580 -0.0824 -0.1614 -0.1591
 4289SOL    HW116365   3.443   2.017   9.645 -1.0485 -0.0330  0.8472
 4289SOL    HW216366   3.355   2.082   9.540  0.6314 -0.2659 -0.7734
 4290SOL     OW16367   9.677   4.803   4.740 -0.4999 -0.4676 -0.1695
 4290SOL    HW116368   9.757   4.835   4.781 -1.5888  0.1535  1.5888
 4290SOL    HW216369   9.677   4.709   4.758 -0.9442 -0.2132  1.3514
 4291SOL     OW16370   8.515   4.117   5.440  0.0883  0.0760 -0.0149
 4291SOL    HW116371   8.611   4.120   5.445  0.1604 -2.4855  1.7157
 4291SOL    HW216372   8.494   4.172   5.364  2.8829  0.8895 -0.3350
 4292SOL     OW16373   3.504  10.433   6.173  0.1895 -0.2253 -0.0465
 4292SOL    HW116374   3.599  10.429   6.182  0.3124  0.7713 -0.7597
 4292SOL    HW216375   3.478  10.510   6.223 -0.2720 -0.6133  0.3158
 4293SOL     OW16376   7.690   9.355   6.963 -0.4616  0.1802  0.5950
 4293SOL    HW116377   7.595   9.357   6.950 -0.5060 -1.4371  0.4803
 4293SOL    HW216378   7.701   9.324   7.053 -0.0398 -0.9393  0.1662
 4294SOL     OW16379   1.534   1.354   2.024 -0.4248 -0.1714  0.0101
 4294SOL    HW116380   1.499   1.437   2.057 -0.9376 -0.0548 -0.7861
 4294SOL    HW216381   1.612   1.379   1.975  0.6572 -0.4023  1.5451
 4295SOL     OW16382  10.730   0.008   5.374 -0.4568  0.1023 -0.8262
 4295SOL    HW116383  10.650  -0.043   5.358 -1.7408  1.6680  0.2758
 4295SOL    HW216384  10.772  -0.036   5.448 -1.4953  0.5133  0.0414
 4296SOL     OW16385   4.093   9.318   0.636 -0.0697  0.0297  0.5527
 4296SOL    HW116386   4.144   9.361   0.704  0.1596  0.3885  0.1535
 4296SOL    HW216387   4.156   9.296   0.568 -0.5569  1.2743 -0.3525
 4297SOL     OW16388   5.242   2.578   6.512  0.4633 -0.5261 -0.5669
 4297SOL    HW116389   5.219   2.538   6.428  2.6594 -0.1948 -1.3906
 4297SOL    HW216390   5.326   2.538   6.536  1.6368  1.8976 -0.3042
 4298SOL     OW16391   7.254   5.619   9.202  0.1292 -0.7781 -0.0561
 4298SOL    HW116392   7.260   5.685   9.132  0.3036 -0.7171  0.0160
 4298SOL    HW216393   7.169   5.576   9.187  0.7248 -1.6384 -1.0689
 4299SOL     OW16394   8.691   2.693   6.384 -0.0740 -0.7163  0.0024
 4299SOL    HW116395   8.715   2.780   6.351 -0.5742  0.0763  1.6231
 4299SOL    HW216396   8.599   2.682   6.358 -0.1053 -0.6310  0.0796
 4300SOL     OW16397   9.988   5.128   3.755  0.6143 -0.3877 -0.0769
 4300SOL    HW116398   9.947   5.154   3.673  0.6968 -1.2064 -0.3823
 4300SOL    HW216399  10.066   5.183   3.761 -0.7714  1.6570  0.8182
 4301SOL     OW16400   1.789   3.247   8.096 -0.8694  0.2161 -0.3855
 4301SOL    HW116401   1.810   3.253   8.189 -0.3824  1.6836 -0.5664
 4301SOL    HW216402   1.711   3.301   8.086 -0.7828  0.2521 -0.8793
 4302SOL     OW16403   3.101   9.474   1.037  0.0085 -0.8226  0.4859
 4302SOL    HW116404   3.007   9.486   1.042  0.1915  0.6200  1.1131
 4302SOL    HW216405   3.133   9.496   1.125  0.9932 -0.5419  0.0764
 4303SOL     OW16406   7.645  10.070   6.903  0.1363 -1.0739  0.3604
 4303SOL    HW116407   7.736  10.045   6.885  0.6882 -1.3832  3.0966
 4303SOL    HW216408   7.633  10.152   6.854  2.2857 -0.4231  0.7831
 4304SOL     OW16409   4.675   5.575   2.180  0.3351 -0.3922 -0.4323
 4304SOL    HW116410   4.598   5.535   2.222  0.9010 -1.3193 -0.2448
 4304SOL    HW216411   4.711   5.633   2.246 -0.3444  0.2478 -0.6108
 4305SOL     OW16412   8.352  10.422   9.432  0.4338 -0.0703 -0.1265
 4305SOL    HW116413   8.260  10.403   9.450  0.8388 -1.7545  0.4044
 4305SOL    HW216414   8.392  10.432   9.518  1.2436 -2.2241 -0.1702
 4306SOL     OW16415   5.496  10.075   3.687 -0.5291  0.8716  0.7009
 4306SOL    HW116416   5.440  10.150   3.664 -0.6117  0.6408  0.1423
 4306SOL    HW216417   5.467  10.005   3.630 -2.8183 -0.6867  3.5022
 4307SOL     OW16418   0.436   3.889   4.426 -0.2029  0.4536  0.2931
 4307SOL    HW116419   0.386   3.880   4.345 -1.7583 -0.1924  1.2626
 4307SOL    HW216420   0.427   3.803   4.469 -0.3172  1.0942  1.6146
 4308SOL     OW16421   0.126   8.575   9.118 -0.0330 -0.0498 -0.2976
 4308SOL    HW116422   0.099   8.531   9.198 -0.5306  1.6635  0.5172
 4308SOL    HW216423   0.214   8.609   9.137 -0.8184  1.8625  0.2280
 4309SOL     OW16424   6.519   0.354   5.418  0.0568 -0.9479  0.0527
 4309SOL    HW116425   6.603   0.309   5.422  0.8933  0.5384 -0.1725
 4309SOL    HW216426   6.459   0.296   5.465  0.6548 -3.1138 -1.6834
 4310SOL     OW16427   3.369   6.206  10.635 -0.0485  0.1106 -0.2282
 4310SOL    HW116428   3.355   6.125  10.684 -2.3347 -0.4069 -1.5630
 4310SOL    HW216429   3.380   6.177  10.545  1.3173  1.1900 -0.4307
 4311SOL     OW16430   0.101   2.381   2.065 -0.2358  0.1733  0.0778
 4311SOL    HW116431   0.024   2.350   2.113  0.0975 -0.6611  0.0958
 4311SOL    HW216432   0.098   2.333   1.982  0.5954 -0.3556  0.3348
 4312SOL     OW16433   6.477   6.517  10.385 -0.3296  0.5291  0.3535
 4312SOL    HW116434   6.399   6.464  10.369  0.1590 -0.1170  0.0645
 4312SOL    HW216435   6.503   6.548  10.298 -0.4612  1.0377  0.4896
 4313SOL     OW16436   5.192   2.349   4.183  0.4800 -0.2545 -0.4041
 4313SOL    HW116437   5.240   2.425   4.152  0.0257 -0.2854 -1.1984
 4313SOL    HW216438   5.104   2.358   4.146  0.4235 -1.1760 -0.5272
 4314SOL     OW16439   8.944   7.284   0.169 -0.1073  0.0496  0.2196
 4314SOL    HW116440   8.968   7.236   0.090 -3.6721 -1.0275 -0.3793
 4314SOL    HW216441   8.916   7.216   0.230 -3.0447  1.1225  0.1972
 4315SOL     OW16442   0.344   9.430   3.458  0.1218 -0.0551 -0.0796
 4315SOL    HW116443   0.404   9.495   3.420 -1.4976  1.9416  0.5915
 4315SOL    HW216444   0.257   9.461   3.434 -0.7372 -2.5166 -0.4531
 4316SOL     OW16445   0.247   1.971   5.865  0.1172 -0.5824  0.5232
 4316SOL    HW116446   0.293   1.994   5.784  1.2769  0.1440  1.3666
 4316SOL    HW216447   0.253   1.875   5.869  0.5542 -0.5814  0.0414
 4317SOL     OW16448   4.631   0.239   6.148  0.3833 -0.0940  0.1889
 4317SOL    HW116449   4.573   0.314   6.135  1.0512  0.1315 -1.7819
 4317SOL    HW216450   4.623   0.187   6.068  1.9780 -0.6964  0.3756
 4318SOL     OW16451   9.618   9.786   8.174  0.0937  0.3159 -0.5245
 4318SOL    HW116452   9.576   9.720   8.229  1.1714 -0.1901 -0.2699
 4318SOL    HW216453   9.692   9.740   8.134  2.7282  2.0447  1.9888
 4319SOL     OW16454  10.458   4.266   4.714 -0.2861  0.3890 -0.7591
 4319SOL    HW116455  10.370   4.235   4.736 -0.8148  1.4524 -1.2845
 4319SOL    HW216456  10.481   4.218   4.634  0.4613 -1.3517  0.4221
 4320SOL     OW16457   9.976   5.751   9.110 -0.1801  0.1679  0.0508
 4320SOL    HW116458   9.985   5.738   9.205  0.1422 -0.1523 -0.0224
 4320SOL    HW216459   9.885   5.780   9.099 -0.1253  0.5249  0.4899
 4321SOL     OW16460   4.487   3.534   1.262 -0.4833 -0.0250 -0.2496
 4321SOL    HW116461   4.473   3.440   1.257  0.0234 -0.0744 -0.8571
 4321SOL    HW216462   4.403   3.572   1.235 -1.1679 -0.2782  1.4043
 4322SOL     OW16463   4.443   3.200   1.182  0.6149  0.4827  0.1116
 4322SOL    HW116464   4.414   3.185   1.272  0.2962 -0.8286 -0.1921
 4322SOL    HW216465   4.367   3.178   1.129  0.9083  0.9360 -0.4980
 4323SOL     OW16466   6.280   2.763   3.011  0.3461  0.6682 -0.1146
 4323SOL    HW116467   6.230   2.795   3.086 -1.1344  0.4288 -0.9687
 4323SOL    HW216468   6.253   2.820   2.939 -1.4635 -1.6486 -1.4092
 4324SOL     OW16469   1.555   5.700   3.963 -0.1742  0.0661 -0.2711
 4324SOL    HW116470   1.464   5.680   3.940  0.2012  0.3514 -2.1104
 4324SOL    HW216471   1.584   5.624   4.014 -1.6476  0.3087  0.9995
 4325SOL     OW16472   9.787   3.736   9.549 -0.0849 -0.2032 -0.5122
 4325SOL    HW116473   9.841   3.806   9.513 -0.1972  0.4906  0.6133
 4325SOL    HW216474   9.828   3.655   9.517  0.5895  0.3500 -1.0822
 4326SOL     OW16475   6.898   8.915   3.804 -0.0695  0.1787 -0.5902
 4326SOL    HW116476   6.937   8.908   3.891 -0.6101 -0.3640 -0.3807
 4326SOL    HW216477   6.933   8.840   3.756  2.1179  1.7673 -1.6396
 4327SOL     OW16478   5.811   2.318   3.007 -0.2436 -0.5738  0.7001
 4327SOL    HW116479   5.754   2.269   2.947 -0.0538 -0.1401  0.1588
 4327SOL    HW216480   5.753   2.344   3.079 -0.9652  0.6244 -0.2726
 4328SOL     OW16481   9.332   4.923   4.354 -0.3224 -0.1873 -0.0955
 4328SOL    HW116482   9.370   4.859   4.294  0.6835 -0.9069  1.2705
 4328SOL    HW216483   9.347   5.007   4.311 -0.1942 -0.7147 -1.1377
 4329SOL     OW16484  10.291   6.380  10.191  0.2468  0.2783  0.5046
 4329SOL    HW116485  10.240   6.459  10.172  0.0845  0.0675  0.0413
 4329SOL    HW216486  10.228   6.309  10.184  0.9921 -0.2136 -2.2024
 4330SOL     OW16487   2.937   0.307   4.244 -0.2434 -0.5309  0.1020
 4330SOL    HW116488   2.882   0.362   4.300  1.5470  1.5709 -0.0638
 4330SOL    HW216489   2.907   0.328   4.155  0.7858  0.6564  0.0086
 4331SOL     OW16490   2.788   5.185   6.007  0.4134 -0.2323 -0.6871
 4331SOL    HW116491   2.838   5.265   5.990  1.7799 -1.2505 -1.6988
 4331SOL    HW216492   2.709   5.194   5.952 -0.3752  1.2054  0.6105
 4332SOL     OW16493   8.649   1.257   5.011 -0.7124  0.3909 -0.0979
 4332SOL    HW116494   8.561   1.270   5.046 -0.4661  1.1632  0.2404
 4332SOL    HW216495   8.666   1.334   4.957 -0.3868  0.0688 -0.4601
 4333SOL     OW16496   6.546  10.440   3.555 -0.3220  0.2532  0.2409
 4333SOL    HW116497   6.509  10.528   3.544  1.0326  0.7670 -0.4637
 4333SOL    HW216498   6.499  10.386   3.492  0.0733  0.8947 -0.6316
 4334SOL     OW16499   5.473   2.062   8.542 -0.1912  0.3914  0.3591
 4334SOL    HW116500   5.548   2.079   8.599  0.7446 -2.0659 -0.0260
 4334SOL    HW216501   5.434   1.981   8.576 -2.1100  1.0872 -0.0503
 4335SOL     OW16502   6.898   6.532   0.128 -0.0970  0.0811 -0.3270
 4335SOL    HW116503   6.964   6.485   0.078 -1.1126 -1.4676 -0.2740
 4335SOL    HW216504   6.946   6.568   0.203  1.1497  1.1794 -1.6079
 4336SOL     OW16505   3.608   0.742   5.087  0.0605  0.1060 -0.2845
 4336SOL    HW116506   3.569   0.765   5.171  0.3287  1.8647 -0.6116
 4336SOL    HW216507   3.537   0.755   5.024  0.4710  0.9763 -0.5833
 4337SOL     OW16508   7.884   3.902   2.132  0.4196 -0.6017  0.0065
 4337SOL    HW116509   7.964   3.922   2.180  1.0835  0.6935 -1.5207
 4337SOL    HW216510   7.843   3.988   2.117 -0.9025 -1.1859  0.1664
 4338SOL     OW16511   5.811   0.711   4.910 -0.1043 -0.2129 -0.0459
 4338SOL    HW116512   5.740   0.764   4.946 -0.7255 -1.4363  0.5754
 4338SOL    HW216513   5.767   0.649   4.851  0.4252 -1.0335  0.4078
 4339SOL     OW16514   8.358   6.084   3.917  0.2951 -0.2006 -0.2827
 4339SOL    HW116515   8.435   6.047   3.960 -0.3258 -0.5188  0.5766
 4339SOL    HW216516   8.341   6.025   3.844 -0.3635 -1.3352  0.7505
 4340SOL     OW16517   2.667   4.429   7.194  0.4510 -0.0873  0.6758
 4340SOL    HW116518   2.612   4.438   7.272  3.1007  0.8144  2.5987
 4340SOL    HW216519   2.674   4.518   7.160  1.1259 -0.0862  0.7977
 4341SOL     OW16520   6.014   8.557   0.384  0.1464  0.2588 -1.1256
 4341SOL    HW116521   6.058   8.642   0.386  0.0954  0.2784 -0.1359
 4341SOL    HW216522   6.079   8.496   0.420 -0.4087  0.1817 -0.2363
 4342SOL     OW16523   4.955   8.810   5.288 -0.3280 -0.2813 -0.0008
 4342SOL    HW116524   4.904   8.857   5.221 -1.1889 -1.7953 -0.4524
 4342SOL    HW216525   5.004   8.745   5.239 -1.1097 -1.5394  0.8253
 4343SOL     OW16526   4.336   2.634   5.408  0.5463 -0.3496  0.0474
 4343SOL    HW116527   4.363   2.596   5.491  0.6981 -0.2631  0.0372
 4343SOL    HW216528   4.240   2.630   5.410  0.5679 -1.7307 -0.4047
 4344SOL     OW16529   8.113   9.864   4.800  0.1092 -0.2899  0.2000
 4344SOL    HW116530   8.159   9.796   4.850 -0.3631  0.2297  1.4042
 4344SOL    HW216531   8.041   9.889   4.857 -0.9527 -0.2280 -1.1280
 4345SOL     OW16532   9.039   4.513   3.578  0.2849 -0.0438 -0.5454
 4345SOL    HW116533   8.979   4.459   3.526  1.6565 -1.2243 -0.9882
 4345SOL    HW216534   8.986   4.586   3.610 -1.7662 -1.8166  0.3379
 4346SOL     OW16535   3.540   4.008   2.876  0.4203  0.0749  0.1335
 4346SOL    HW116536   3.627   3.985   2.845  0.0596 -0.7690 -0.2914
 4346SOL    HW216537   3.500   4.054   2.802  0.8269  1.3396  0.6672
 4347SOL     OW16538   4.835   3.921   0.148  0.1076 -0.2685 -0.0348
 4347SOL    HW116539   4.872   3.833   0.160  0.5511 -0.1589 -0.5544
 4347SOL    HW216540   4.754   3.920   0.199  0.4956 -0.7323  0.5857
 4348SOL     OW16541   1.191   5.339   2.739 -0.7570 -0.2522 -0.1408
 4348SOL    HW116542   1.137   5.386   2.676  0.3196  0.9007 -0.2471
 4348SOL    HW216543   1.277   5.333   2.697  0.6854  2.6324  2.0391
 4349SOL     OW16544   9.828  10.915   4.313  0.4526  0.1635 -0.3972
 4349SOL    HW116545   9.919  10.944   4.314 -0.1665  2.3113  1.4073
 4349SOL    HW216546   9.830  10.830   4.358  1.3919  0.9771  1.2019
 4350SOL     OW16547   2.002   3.524   1.755 -0.0646 -0.1673  0.4249
 4350SOL    HW116548   1.947   3.583   1.704 -0.4186 -1.3161 -0.5490
 4350SOL    HW216549   2.044   3.581   1.819 -0.4708  1.1272 -0.4199
 4351SOL     OW16550   5.974   8.803   5.360  0.1787 -0.0688  0.1385
 4351SOL    HW116551   5.956   8.780   5.451 -2.0830  1.3129  0.1251
 4351SOL    HW216552   5.951   8.725   5.310  1.4728 -0.8508  0.7250
 4352SOL     OW16553   7.565   9.689   0.358  0.5297 -0.2629  0.3368
 4352SOL    HW116554   7.619   9.755   0.402  2.8050 -0.7901 -1.4873
 4352SOL    HW216555   7.592   9.693   0.266 -3.3669  0.1812 -0.9872
 4353SOL     OW16556   4.291   6.850   5.424  0.1915 -0.3102 -0.7409
 4353SOL    HW116557   4.326   6.920   5.369 -1.4647  2.7177  1.6819
 4353SOL    HW216558   4.223   6.809   5.370 -0.0733  1.2471 -1.6702
 4354SOL     OW16559   6.770   0.074   9.656 -0.4423 -0.5865  0.5957
 4354SOL    HW116560   6.734   0.157   9.626  1.4724  0.0339 -0.1630
 4354SOL    HW216561   6.726   0.057   9.738  0.3942  2.1499  1.7282
 4355SOL     OW16562   4.328   8.936   5.574  0.2754 -0.5511 -0.2459
 4355SOL    HW116563   4.311   9.018   5.528 -0.3235 -0.1429  0.6770
 4355SOL    HW216564   4.268   8.937   5.648  0.6135 -1.5950  0.0601
 4356SOL     OW16565   4.199   1.745   1.938 -0.4339  0.1226 -0.0784
 4356SOL    HW116566   4.224   1.705   1.855 -1.0092  0.1776 -0.2874
 4356SOL    HW216567   4.120   1.697   1.965  1.9559 -2.7452  2.5339
 4357SOL     OW16568   3.380   6.035   6.185  0.2752 -0.0224 -0.4761
 4357SOL    HW116569   3.426   6.115   6.162  0.9485 -0.1745  0.2683
 4357SOL    HW216570   3.410   5.970   6.121 -0.7212  0.4465 -1.4423
 4358SOL     OW16571   6.818   5.694   1.679  0.2283 -0.0062 -0.3229
 4358SOL    HW116572   6.783   5.605   1.687  0.0118  0.1253  0.1915
 4358SOL    HW216573   6.901   5.682   1.633  0.8920 -0.6534  0.9766
 4359SOL     OW16574   7.876   0.528   1.986  0.0235  0.1600 -0.2981
 4359SOL    HW116575   7.943   0.505   2.050 -0.6740 -1.6007 -0.1601
 4359SOL    HW216576   7.793   0.504   2.027 -0.7297  2.2456 -0.4979
 4360SOL     OW16577   7.924   0.340   6.700 -0.5502 -0.1098  0.0655
 4360SOL    HW116578   7.974   0.421   6.713  0.1735 -0.3809 -0.8961
 4360SOL    HW216579   7.865   0.336   6.775  0.5478  0.4674  0.9887
 4361SOL     OW16580   8.040   9.061  10.691 -0.2011  0.1983  0.5332
 4361SOL    HW116581   8.109   9.007  10.729 -0.2787 -0.5444 -0.3405
 4361SOL    HW216582   8.014   9.015  10.611 -0.8428  1.1101  0.1882
 4362SOL     OW16583   4.041   5.556   5.663  0.1864 -0.1445  0.0014
 4362SOL    HW116584   4.057   5.534   5.571 -0.9493 -0.1472 -0.2121
 4362SOL    HW216585   4.128   5.558   5.703  0.8196  1.1980 -1.3653
 4363SOL     OW16586   5.676   1.723   5.330  0.0347  0.6207 -0.2342
 4363SOL    HW116587   5.673   1.807   5.376  0.9015  1.0029 -0.8480
 4363SOL    HW216588   5.753   1.679   5.365 -1.0684 -0.4649  0.9548
 4364SOL     OW16589   0.003   2.325   3.903 -0.4095  0.4034 -0.5777
 4364SOL    HW116590  -0.037   2.251   3.948 -2.3516  1.5981 -0.2365
 4364SOL    HW216591   0.092   2.329   3.937 -0.9154 -0.5267  0.9266
 4365SOL     OW16592   2.113   4.762   6.710 -0.0009 -0.3982 -0.2043
 4365SOL    HW116593   2.177   4.814   6.759  0.9622 -1.2212 -0.5519
 4365SOL    HW216594   2.104   4.808   6.627  0.0568 -0.2101 -0.1076
 4366SOL     OW16595   5.282   3.612   8.994  0.2714  0.3806 -0.5950
 4366SOL    HW116596   5.265   3.596   8.901  1.6861 -1.8715 -0.5649
 4366SOL    HW216597   5.368   3.654   8.996  0.9566 -0.9767 -0.2980
 4367SOL     OW16598   3.864   8.584   8.931  1.1975 -0.6471 -0.6098
 4367SOL    HW116599   3.930   8.516   8.921  0.8194 -1.1437  0.1410
 4367SOL    HW216600   3.801   8.547   8.994  1.0531  0.4403 -0.0879
 4368SOL     OW16601   1.953   8.477  10.923  0.2856  0.3537 -0.1254
 4368SOL    HW116602   1.858   8.473  10.921  0.2193 -0.5888  2.1273
 4368SOL    HW216603   1.974   8.507  11.012  2.0906 -1.7883  0.2684
 4369SOL     OW16604   3.234   4.579   8.816 -0.1387 -0.5718  0.0949
 4369SOL    HW116605   3.314   4.628   8.831  0.5783 -1.2115 -1.3829
 4369SOL    HW216606   3.169   4.619   8.873  1.1908  0.0617  1.1956
 4370SOL     OW16607   6.695   5.581   3.911  0.2538  0.1189 -0.0525
 4370SOL    HW116608   6.748   5.588   3.990  0.6641  2.8667 -0.4752
 4370SOL    HW216609   6.636   5.655   3.914  0.3226  0.3632 -2.3392
 4371SOL     OW16610   8.167  10.304   6.494 -0.3703  0.1785  0.5719
 4371SOL    HW116611   8.249  10.256   6.489 -0.4626 -0.0124  0.8955
 4371SOL    HW216612   8.191  10.395   6.475 -0.2124 -0.0051 -0.1657
 4372SOL     OW16613   2.644  10.300   3.393 -0.5667 -0.0230  0.0201
 4372SOL    HW116614   2.714  10.257   3.343 -2.7894 -0.2132 -3.2705
 4372SOL    HW216615   2.616  10.234   3.456  0.9559 -0.6298  0.1119
 4373SOL     OW16616   0.594   5.311   3.661  0.0760  0.1757  0.1959
 4373SOL    HW116617   0.620   5.383   3.719 -0.3845 -0.4413  1.1884
 4373SOL    HW216618   0.663   5.307   3.595 -0.5480  2.3919 -0.6875
 4374SOL     OW16619   5.722   8.262   0.736  0.1489 -0.1349 -0.2912
 4374SOL    HW116620   5.715   8.284   0.643  1.2297 -1.1307 -0.6236
 4374SOL    HW216621   5.809   8.292   0.762  0.3686 -1.0433  0.0573
 4375SOL     OW16622   6.410   8.023   3.283  0.2954 -0.3378  0.0373
 4375SOL    HW116623   6.379   7.979   3.363  1.8070 -0.1657  0.7633
 4375SOL    HW216624   6.424   7.952   3.221  1.1860 -0.7515  0.6755
 4376SOL     OW16625  10.459   8.475   1.444  0.0537  0.0983 -0.7833
 4376SOL    HW116626  10.395   8.423   1.491  0.5853  1.0813  1.1515
 4376SOL    HW216627  10.543   8.435   1.465  0.4262  1.4104  0.3505
 4377SOL     OW16628   1.516   9.601   5.574  0.7784 -0.1646 -0.1516
 4377SOL    HW116629   1.597   9.592   5.523  0.5230  0.7064 -0.7392
 4377SOL    HW216630   1.511   9.521   5.627  1.7735 -0.4420 -0.4632
 4378SOL     OW16631  10.972   5.171   2.905  0.5134  0.3384  0.3162
 4378SOL    HW116632  11.044   5.113   2.932 -0.6443 -1.6229 -0.6171
 4378SOL    HW216633  11.008   5.221   2.832  0.9761 -0.5642 -0.0914
 4379SOL     OW16634  10.998   7.462   8.854  0.1802 -0.4828  0.3757
 4379SOL    HW116635  10.953   7.422   8.928  0.4660  1.1815  1.4973
 4379SOL    HW216636  11.081   7.492   8.890  0.5929 -0.1753 -0.7856
 4380SOL     OW16637   2.315   1.740  10.343 -0.2543  0.0279  0.2759
 4380SOL    HW116638   2.219   1.735  10.340 -0.2751 -1.2820  1.8232
 4380SOL    HW216639   2.333   1.828  10.377 -0.8058  0.9588 -1.6526
 4381SOL     OW16640   3.937   3.429   8.155 -0.2349 -0.3173  0.1606
 4381SOL    HW116641   3.855   3.478   8.163  0.5422  0.7633  2.1805
 4381SOL    HW216642   3.937   3.397   8.065 -3.3290 -1.2080  0.3444
 4382SOL     OW16643   1.992   2.752  10.860  0.7144 -0.4250 -0.1967
 4382SOL    HW116644   1.986   2.831  10.807  0.7130 -0.7123 -0.6323
 4382SOL    HW216645   1.931   2.767  10.933  0.9462  0.0986 -0.1034
 4383SOL     OW16646   3.176   4.720   8.542 -0.2568  0.2153  0.0047
 4383SOL    HW116647   3.246   4.765   8.590 -0.9184  3.5702 -1.8648
 4383SOL    HW216648   3.116   4.691   8.610  0.8954  1.0043  1.4262
 4384SOL     OW16649   9.410   6.364   4.773  0.3168  0.0749  0.4211
 4384SOL    HW116650   9.449   6.277   4.761  1.6685  0.6794  0.2254
 4384SOL    HW216651   9.348   6.374   4.701  0.7993 -0.3844 -0.0585
 4385SOL     OW16652   9.039   4.280   2.666  0.2053 -0.3524 -0.0387
 4385SOL    HW116653   8.949   4.312   2.662  0.3523 -0.0459 -1.2622
 4385SOL    HW216654   9.042   4.227   2.746 -1.2419 -0.9020 -0.3128
 4386SOL     OW16655   8.386   5.915   2.003  0.3554 -0.7203 -0.1652
 4386SOL    HW116656   8.457   5.868   2.046 -1.2200 -2.8150  0.3094
 4386SOL    HW216657   8.381   5.876   1.915  0.5010  0.2168 -0.6011
 4387SOL     OW16658   3.098   5.836   9.743 -0.0936  0.0303 -0.0623
 4387SOL    HW116659   3.169   5.773   9.728 -0.7604 -0.5833 -0.7153
 4387SOL    HW216660   3.123   5.881   9.824  0.6659 -0.6979  0.1240
 4388SOL     OW16661   4.502  10.392   1.972 -0.3362 -0.4265  0.6698
 4388SOL    HW116662   4.537  10.391   1.883 -0.1576 -0.9435  0.7404
 4388SOL    HW216663   4.573  10.358   2.027 -0.7435 -0.9443  0.8875
 4389SOL     OW16664  10.135   9.350   4.915 -0.1411  0.1502 -0.0423
 4389SOL    HW116665  10.166   9.320   5.000  2.1643 -1.4265 -1.3307
 4389SOL    HW216666  10.101   9.271   4.873  1.4914  0.2397 -1.6523
 4390SOL     OW16667   7.361   9.104   9.765 -0.3166  0.1020  0.6129
 4390SOL    HW116668   7.279   9.054   9.764 -0.6686  0.5796  2.2869
 4390SOL    HW216669   7.337   9.189   9.728 -0.8904  0.6255  2.0992
 4391SOL     OW16670   9.980   4.373   2.329 -0.1814 -0.5107  0.0441
 4391SOL    HW116671   9.930   4.408   2.402  0.0408  0.2497 -0.1574
 4391SOL    HW216672  10.071   4.390   2.351 -0.0548 -1.0737 -0.0095
 4392SOL     OW16673   5.929   6.753   8.579 -0.2828  0.0798 -0.3036
 4392SOL    HW116674   5.836   6.772   8.593 -0.0915 -0.3377  1.8989
 4392SOL    HW216675   5.930   6.686   8.510 -1.4588  1.4367 -1.7260
 4393SOL     OW16676  10.046   5.442   4.710 -0.8008 -0.1315 -0.0445
 4393SOL    HW116677   9.975   5.500   4.682 -1.3466 -0.4591  0.6248
 4393SOL    HW216678  10.073   5.396   4.630 -2.5341 -1.2791 -0.0330
 4394SOL     OW16679  10.042   8.336   3.438 -0.5457  0.0982  0.0621
 4394SOL    HW116680  10.032   8.270   3.507 -0.3391 -0.2799 -0.2621
 4394SOL    HW216681  10.021   8.419   3.480 -0.1330 -0.0929  0.6600
 4395SOL     OW16682   4.284   6.950   9.325  0.2547  1.0959 -0.4320
 4395SOL    HW116683   4.215   7.005   9.363 -0.7724 -0.4621  0.0446
 4395SOL    HW216684   4.338   6.924   9.399 -0.8951 -0.7538 -0.1902
 4396SOL     OW16685   2.871   7.511  10.704  0.3057 -0.7398  0.1802
 4396SOL    HW116686   2.803   7.497  10.769 -0.4925 -0.2820 -0.5329
 4396SOL    HW216687   2.922   7.585  10.737 -1.6316  1.1716 -0.8703
 4397SOL     OW16688   4.366   9.179   0.900  0.6403 -0.1424 -0.3531
 4397SOL    HW116689   4.402   9.128   0.827  1.2834 -1.3708  0.7672
 4397SOL    HW216690   4.418   9.151   0.976 -0.5949  0.4243  0.7361
 4398SOL     OW16691   4.604   9.747   6.546  0.4541 -0.1891  0.0776
 4398SOL    HW116692   4.618   9.652   6.553  1.1430 -0.1554 -0.7080
 4398SOL    HW216693   4.561   9.759   6.461  0.2114  0.1881  0.2510
 4399SOL     OW16694   6.071   9.877   3.111  0.1617  0.1934 -0.3861
 4399SOL    HW116695   6.013   9.911   3.043 -0.2432 -1.1893 -0.7773
 4399SOL    HW216696   6.072   9.944   3.179 -0.9887  0.7363 -0.8912
 4400SOL     OW16697   9.003   6.252   7.754 -0.8442 -0.2662 -0.1606
 4400SOL    HW116698   8.974   6.290   7.671  1.0894  1.0970 -0.2738
 4400SOL    HW216699   8.948   6.295   7.820 -0.5679  0.7096 -0.5352
 4401SOL     OW16700   9.431   2.457   3.776 -0.6768 -0.6942  0.6897
 4401SOL    HW116701   9.371   2.384   3.796 -0.7084 -1.3169 -1.4097
 4401SOL    HW216702   9.376   2.522   3.733 -0.1680 -0.5691  0.2133
 4402SOL     OW16703   0.887   3.618   3.577 -0.3202  0.2383  0.0466
 4402SOL    HW116704   0.945   3.608   3.652 -0.5365 -0.6693  0.1105
 4402SOL    HW216705   0.891   3.534   3.532  0.5031  1.0510 -1.4887
 4403SOL     OW16706   9.791   9.664   3.802 -0.4057 -0.1783  0.4587
 4403SOL    HW116707   9.798   9.731   3.871  1.2384  1.0288 -0.7837
 4403SOL    HW216708   9.745   9.708   3.731 -1.1935 -1.0776  0.4029
 4404SOL     OW16709   6.038   1.727   9.463  0.1888 -0.5826 -0.3953
 4404SOL    HW116710   6.026   1.757   9.554 -1.6576  1.4851 -1.2249
 4404SOL    HW216711   5.990   1.645   9.459  0.2565 -0.6781  0.4885
 4405SOL     OW16712   3.989  10.654   3.929 -0.1802 -0.1393  0.2355
 4405SOL    HW116713   4.066  10.711   3.925 -1.3898  1.5367 -0.4967
 4405SOL    HW216714   3.918  10.712   3.957 -1.6863 -1.0276 -1.5114
 4406SOL     OW16715   1.120   2.487   8.620  0.0147  0.1831  0.5239
 4406SOL    HW116716   1.041   2.534   8.595  0.4202  0.0851 -1.0294
 4406SOL    HW216717   1.162   2.543   8.686 -1.1474  0.4069  1.0907
 4407SOL     OW16718   6.489   0.325   1.490  0.3606  0.0458 -0.0410
 4407SOL    HW116719   6.456   0.284   1.410  1.6119  0.0524 -0.5770
 4407SOL    HW216720   6.572   0.282   1.507  0.4976  0.6148  0.8043
 4408SOL     OW16721   9.942   9.392   5.197  0.3617 -0.6699 -0.8887
 4408SOL    HW116722  10.029   9.376   5.160  0.8104  2.5405 -1.5439
 4408SOL    HW216723   9.953   9.381   5.291  1.1821 -1.3911 -1.0597
 4409SOL     OW16724   2.821   1.160   6.156 -0.1585 -0.1122  0.3124
 4409SOL    HW116725   2.772   1.192   6.079  1.2545 -1.0387 -1.0365
 4409SOL    HW216726   2.857   1.076   6.128  3.0249  0.9407  0.8382
 4410SOL     OW16727   3.036   5.520   7.271  0.3950  0.1122  0.2497
 4410SOL    HW116728   3.086   5.550   7.347  0.3145 -2.2825  1.3454
 4410SOL    HW216729   2.970   5.587   7.257  0.2716  0.5172  2.4522
 4411SOL     OW16730   5.637   6.571   1.101  0.1795 -0.6806  1.1601
 4411SOL    HW116731   5.559   6.525   1.069  0.4655 -0.5796  0.2930
 4411SOL    HW216732   5.705   6.504   1.102  0.6751 -0.2443 -0.4020
 4412SOL     OW16733   0.927   7.164   0.438 -0.0926  0.0637 -0.0210
 4412SOL    HW116734   0.887   7.138   0.355 -0.1046 -1.3176  0.3971
 4412SOL    HW216735   0.872   7.124   0.505  1.4589 -1.1409  0.5850
 4413SOL     OW16736  10.718  10.321   3.384 -0.0576  0.7133  1.2555
 4413SOL    HW116737  10.730  10.413   3.408 -1.7001  0.9935  1.1586
 4413SOL    HW216738  10.657  10.324   3.310  1.4595 -0.3685 -0.1099
 4414SOL     OW16739   8.042  10.959   4.553  0.0459 -0.0265 -0.2499
 4414SOL    HW116740   8.095  10.960   4.474 -0.3052 -0.1197 -0.4876
 4414SOL    HW216741   8.004  10.872   4.556 -0.0258  0.0097 -0.0298
 4415SOL     OW16742   5.177  10.741  10.760  0.5667 -0.4690  0.4949
 4415SOL    HW116743   5.103  10.684  10.784 -0.0506  0.0849 -0.0477
 4415SOL    HW216744   5.191  10.795  10.837 -2.0158  1.9517 -0.5403
 4416SOL     OW16745   4.461   7.455   7.972 -0.5681  0.2367  0.4287
 4416SOL    HW116746   4.490   7.393   8.039  0.1851 -3.0001 -2.6096
 4416SOL    HW216747   4.366   7.456   7.981 -0.5132 -0.4665  1.2516
 4417SOL     OW16748   2.686   4.350   8.706 -0.0106 -0.2725 -0.0699
 4417SOL    HW116749   2.724   4.408   8.639 -0.7723  0.2322 -0.0766
 4417SOL    HW216750   2.751   4.349   8.776  0.8916 -0.9620 -0.8901
 4418SOL     OW16751   1.534   8.075  10.434  0.1665 -0.5098  0.1445
 4418SOL    HW116752   1.600   8.046  10.371  0.0179  1.4916 -0.9962
 4418SOL    HW216753   1.475   8.131  10.384 -0.7011  0.1222  1.7873
 4419SOL     OW16754   9.122   7.989   4.123  0.4899 -0.0994 -0.1370
 4419SOL    HW116755   9.057   7.998   4.193  0.3456  1.3979 -0.4199
 4419SOL    HW216756   9.108   8.066   4.067  1.8464 -0.2630 -0.7488
 4420SOL     OW16757   1.148   3.660   4.982 -0.0338  0.1832  0.5864
 4420SOL    HW116758   1.079   3.649   4.916  1.0671 -1.0198 -0.4271
 4420SOL    HW216759   1.216   3.710   4.937  0.3988  0.0300  1.0600
 4421SOL     OW16760  10.362   3.701   8.658 -0.1418  0.0584 -0.0751
 4421SOL    HW116761  10.286   3.743   8.700  0.4924  0.5704  0.5815
 4421SOL    HW216762  10.382   3.757   8.584 -1.8104 -1.3174 -1.6640
 4422SOL     OW16763   8.082  10.566   5.381  0.0434 -0.5636 -0.3154
 4422SOL    HW116764   8.134  10.629   5.332 -0.8125  0.4080 -0.0089
 4422SOL    HW216765   8.019  10.532   5.318  0.7985 -1.4852 -0.5994
 4423SOL     OW16766   7.224   4.940   0.217 -0.1660  0.2174 -0.1423
 4423SOL    HW116767   7.177   5.023   0.230 -1.0823 -0.3601  0.4152
 4423SOL    HW216768   7.185   4.903   0.137  0.8312  0.7028 -0.8655
 4424SOL     OW16769   9.672   2.404  10.174 -0.9059  0.3728  0.0707
 4424SOL    HW116770   9.752   2.452  10.193  0.3012 -1.6187  0.2545
 4424SOL    HW216771   9.661   2.412  10.079  0.4574 -0.6903 -0.2033
 4425SOL     OW16772   2.004   2.564   3.148  0.3412  0.2865  0.5206
 4425SOL    HW116773   2.063   2.600   3.082 -0.7213  0.1482 -0.5363
 4425SOL    HW216774   1.946   2.636   3.170 -2.1369 -0.7610 -1.9912
 4426SOL     OW16775   5.197   7.389  10.585  0.5278 -0.4996 -0.5382
 4426SOL    HW116776   5.190   7.476  10.625 -0.6554  0.1068 -1.9754
 4426SOL    HW216777   5.184   7.329  10.658 -1.9356  0.5648  0.0148
 4427SOL     OW16778   9.215   1.770   0.768 -0.3312 -0.1683  0.1412
 4427SOL    HW116779   9.225   1.781   0.862 -0.3491 -1.2122  0.2736
 4427SOL    HW216780   9.267   1.841   0.730  1.2117 -0.8213  0.9153
 4428SOL     OW16781   5.348   1.755   7.431 -0.1037 -0.2280  0.4561
 4428SOL    HW116782   5.300   1.809   7.495 -1.0131 -0.5026  0.0134
 4428SOL    HW216783   5.410   1.706   7.484  0.9159  1.4171  0.8505
 4429SOL     OW16784  10.327   0.669   1.899 -0.2599 -0.1209 -0.0744
 4429SOL    HW116785  10.325   0.577   1.874  2.4422 -0.2353 -0.1566
 4429SOL    HW216786  10.261   0.710   1.843 -0.5313 -1.7840 -1.0458
 4430SOL     OW16787   6.210   2.726   0.173  0.1328 -0.0186  0.0251
 4430SOL    HW116788   6.200   2.817   0.202 -1.4436 -0.2758  0.3529
 4430SOL    HW216789   6.190   2.674   0.250  0.2629 -0.6610 -0.3725
 4431SOL     OW16790  10.711   0.092   6.403 -0.0670  0.0684 -0.2353
 4431SOL    HW116791  10.617   0.087   6.390  0.2399  1.1428 -3.6017
 4431SOL    HW216792  10.746   0.016   6.356  0.7388 -1.4565  2.5996
 4432SOL     OW16793   3.416   7.024   2.696 -0.0354 -0.7586  0.3679
 4432SOL    HW116794   3.487   7.002   2.756  1.0906 -0.7667 -0.9196
 4432SOL    HW216795   3.446   7.105   2.654 -1.2312 -0.2469  0.4731
 4433SOL     OW16796   2.807   3.687   5.762  0.2091  0.0459 -0.0403
 4433SOL    HW116797   2.722   3.685   5.806  0.6725 -0.3468  0.8560
 4433SOL    HW216798   2.867   3.723   5.826  1.2809 -2.3297  0.4045
 4434SOL     OW16799  10.919   9.884   5.590  0.0009 -0.0494 -0.0177
 4434SOL    HW116800  10.981   9.935   5.642 -0.7074  0.5886  0.2240
 4434SOL    HW216801  10.935   9.793   5.615 -0.9731  0.3008  2.0542
 4435SOL     OW16802   9.112   8.265   7.093  0.6632 -0.2500 -0.6143
 4435SOL    HW116803   9.183   8.299   7.038 -1.2621  1.1952 -2.3508
 4435SOL    HW216804   9.069   8.199   7.038  0.7304 -1.2228  0.4760
 4436SOL     OW16805   2.584   6.928  10.323 -0.6870  0.4437 -0.1945
 4436SOL    HW116806   2.622   6.871  10.390  1.4259  0.3849 -1.3673
 4436SOL    HW216807   2.511   6.877  10.287 -1.0889 -0.0130  1.1921
 4437SOL     OW16808   7.076   9.610   6.938 -0.0461  0.3055  0.7625
 4437SOL    HW116809   7.029   9.684   6.975 -0.7249 -1.2600  3.2293
 4437SOL    HW216810   7.130   9.577   7.009  0.7259 -1.1912 -0.4495
 4438SOL     OW16811   6.115   0.029   5.430  1.0445  0.3703 -0.3908
 4438SOL    HW116812   6.146  -0.062   5.432  2.1626  0.7290 -0.6502
 4438SOL    HW216813   6.028   0.026   5.470 -0.8805 -1.5496 -4.1065
 4439SOL     OW16814   0.651   4.323   6.785  0.2920 -0.2328  0.7524
 4439SOL    HW116815   0.565   4.356   6.813 -0.4275 -0.7929 -0.6888
 4439SOL    HW216816   0.702   4.403   6.767  0.0330  0.1033  1.4669
 4440SOL     OW16817   7.462   7.959   4.705 -0.2092  0.4081 -0.4492
 4440SOL    HW116818   7.438   8.009   4.783  1.7953  0.0444  0.4816
 4440SOL    HW216819   7.381   7.915   4.677 -1.5280  2.4744 -0.0592
 4441SOL     OW16820   6.083   3.702  10.719  0.5382  0.2478 -0.4745
 4441SOL    HW116821   6.123   3.789  10.710 -0.2604  0.7841  0.9546
 4441SOL    HW216822   6.153   3.647  10.754  1.1222  0.2280 -1.6205
 4442SOL     OW16823   5.219   3.134   5.537  0.5127  0.1697 -0.1747
 4442SOL    HW116824   5.275   3.113   5.612 -1.6203 -0.0780  1.4432
 4442SOL    HW216825   5.159   3.200   5.570 -0.9833 -0.5082 -1.4130
 4443SOL     OW16826   4.769   9.209   2.865 -0.0082  0.1202  0.0105
 4443SOL    HW116827   4.799   9.169   2.783  1.1993  0.5446  0.2264
 4443SOL    HW216828   4.678   9.232   2.848  0.1283 -0.0873 -1.1060
 4444SOL     OW16829   8.622   4.819   1.445 -1.1489 -0.6289 -0.3219
 4444SOL    HW116830   8.621   4.847   1.536  1.6672 -0.2408 -0.3140
 4444SOL    HW216831   8.558   4.875   1.401  0.2938  2.0315  0.7305
 4445SOL     OW16832   3.290   5.596   5.126 -0.0688  0.4140 -0.4885
 4445SOL    HW116833   3.209   5.545   5.136 -0.0766  0.4277 -0.4842
 4445SOL    HW216834   3.360   5.535   5.150 -0.1140  0.5833  0.0838
 4446SOL     OW16835   3.460   7.099   1.677  0.0211 -0.5848 -0.3035
 4446SOL    HW116836   3.529   7.072   1.736 -0.3651 -2.3380 -0.5788
 4446SOL    HW216837   3.437   7.019   1.629 -0.5377  0.4848 -1.9268
 4447SOL     OW16838   3.845   8.403   1.917  0.0637  0.4710 -0.4228
 4447SOL    HW116839   3.826   8.480   1.862 -0.6758 -0.5519 -1.6700
 4447SOL    HW216840   3.800   8.331   1.872  0.7436 -0.6910  0.7171
 4448SOL     OW16841   5.187   6.959   0.801  0.2439  0.2893  0.1213
 4448SOL    HW116842   5.092   6.946   0.804  0.4111 -1.9327 -1.7229
 4448SOL    HW216843   5.206   6.988   0.712  1.4393 -1.3409 -0.2195
 4449SOL     OW16844   1.144   1.238   6.862 -0.2954  0.1384  0.4125
 4449SOL    HW116845   1.159   1.332   6.878 -2.6720  0.9589 -1.6258
 4449SOL    HW216846   1.218   1.212   6.808 -1.2830  1.7831 -1.8988
 4450SOL     OW16847   0.659   9.908  10.542  0.4229 -0.1221  0.6782
 4450SOL    HW116848   0.698   9.972  10.600 -0.3380  1.3460 -0.3501
 4450SOL    HW216849   0.715   9.831  10.548  1.3595  0.6397  1.9485
 4451SOL     OW16850   8.813   2.980   2.933  0.2768 -0.2993  0.5532
 4451SOL    HW116851   8.778   2.910   2.988 -0.9166 -0.5913 -0.5351
 4451SOL    HW216852   8.829   3.052   2.993  0.7186 -1.2073  1.5574
 4452SOL     OW16853   8.850   9.177   3.054  0.1302  0.3267 -0.3747
 4452SOL    HW116854   8.936   9.169   3.013  1.5440  1.9165  2.0303
 4452SOL    HW216855   8.817   9.261   3.024  0.4755  0.7764  0.4755
 4453SOL     OW16856   7.232   2.706   7.178 -0.1116  0.2046 -0.1407
 4453SOL    HW116857   7.159   2.687   7.237 -0.0212  0.8589  0.1838
 4453SOL    HW216858   7.211   2.791   7.139  1.2564  1.2004  1.2008
 4454SOL     OW16859   1.418   1.179   4.528 -0.5714 -0.2859  0.3119
 4454SOL    HW116860   1.485   1.239   4.560  0.4002 -2.3900  2.5995
 4454SOL    HW216861   1.436   1.169   4.435  1.7025 -0.0004  0.6695
 4455SOL     OW16862   0.827   8.058   9.674 -0.5801 -0.4488  0.1736
 4455SOL    HW116863   0.789   8.000   9.740 -0.8180 -1.3853 -0.7483
 4455SOL    HW216864   0.917   8.026   9.663 -0.0613  0.6325  1.0727
 4456SOL     OW16865  10.309   4.524   5.510 -0.2471  0.0960  0.1475
 4456SOL    HW116866  10.308   4.618   5.525  0.9579  0.3545 -1.1758
 4456SOL    HW216867  10.274   4.514   5.421 -4.1912 -1.0774  1.5995
 4457SOL     OW16868   3.171   3.170   0.372 -0.8956 -0.5927  0.1479
 4457SOL    HW116869   3.117   3.095   0.346 -0.8709 -1.7433  3.0303
 4457SOL    HW216870   3.236   3.133   0.432  0.0063  1.5235  0.5575
 4458SOL     OW16871   6.145   1.694   1.058 -0.0949  0.1007  0.0736
 4458SOL    HW116872   6.238   1.690   1.036 -0.3592 -2.4601 -0.9728
 4458SOL    HW216873   6.144   1.704   1.153  1.2679  0.0415  0.1174
 4459SOL     OW16874   1.590   6.817   6.643  0.4248 -0.1308 -0.6248
 4459SOL    HW116875   1.511   6.865   6.618  0.1289 -0.2483  0.0515
 4459SOL    HW216876   1.576   6.795   6.735  0.4461 -1.7455 -0.9811
 4460SOL     OW16877   9.597   8.385   3.808  0.4449 -0.4337 -0.3990
 4460SOL    HW116878   9.627   8.400   3.898 -2.3106  0.0158  0.5451
 4460SOL    HW216879   9.666   8.331   3.769  2.2031  0.1758  1.6418
 4461SOL     OW16880   3.686   9.771   5.048  0.0030 -0.2903 -0.0051
 4461SOL    HW116881   3.764   9.797   4.999  2.1985 -0.5672  3.0608
 4461SOL    HW216882   3.644   9.854   5.072  1.5964  0.0853  1.6154
 4462SOL     OW16883   6.497   6.046   8.498  0.2603  0.5556  0.4278
 4462SOL    HW116884   6.567   6.075   8.556  0.2816 -0.3100  0.8479
 4462SOL    HW216885   6.462   5.968   8.540 -1.0994  1.0812  0.3399
 4463SOL     OW16886   0.042   2.107   5.188  0.2431  0.4328 -0.0881
 4463SOL    HW116887  -0.018   2.132   5.257 -0.6669 -0.0478 -0.6900
 4463SOL    HW216888   0.095   2.186   5.171 -1.7887  1.6465 -1.1706
 4464SOL     OW16889   2.291   3.643   8.006 -0.3958 -0.1744 -0.3466
 4464SOL    HW116890   2.342   3.723   7.995 -0.9569  0.3552  0.7491
 4464SOL    HW216891   2.276   3.636   8.100 -0.4068 -1.5478 -0.4328
 4465SOL     OW16892   1.543   8.591   9.457  0.2797 -0.4589 -0.2435
 4465SOL    HW116893   1.565   8.497   9.461  0.3563 -0.5209 -1.7067
 4465SOL    HW216894   1.563   8.616   9.367  3.2413  1.7315  0.8650
 4466SOL     OW16895   9.255   8.036   3.611  0.1258 -0.4087  0.1662
 4466SOL    HW116896   9.226   7.984   3.685  1.2123  0.4067  1.2176
 4466SOL    HW216897   9.203   8.006   3.537 -1.7055 -0.5431  1.4675
 4467SOL     OW16898   1.386   4.699   8.126 -0.0747 -0.8421  0.0084
 4467SOL    HW116899   1.404   4.757   8.051  0.2183 -0.6116  0.2544
 4467SOL    HW216900   1.397   4.611   8.092 -0.8359 -0.7719 -0.4567
 4468SOL     OW16901   9.286   1.383   7.397  0.4765  0.0096 -0.1971
 4468SOL    HW116902   9.253   1.430   7.320  1.7445 -1.3263 -1.6306
 4468SOL    HW216903   9.281   1.291   7.372  1.5906 -0.4139  1.0499
 4469SOL     OW16904  10.599   9.929   3.723  0.0191  0.1738 -0.6978
 4469SOL    HW116905  10.574  10.018   3.698 -0.1094  0.2604 -0.2678
 4469SOL    HW216906  10.674   9.941   3.781  0.4948 -0.0405 -1.2612
 4470SOL     OW16907   5.207   3.939   4.524 -0.4382  0.0879  0.1389
 4470SOL    HW116908   5.219   3.870   4.458 -0.4864 -0.9705  1.2119
 4470SOL    HW216909   5.284   3.933   4.580 -0.6303  0.6488  0.4711
 4471SOL     OW16910   5.370   0.650   0.899 -0.5386 -0.4571  0.1533
 4471SOL    HW116911   5.445   0.590   0.899 -0.7075 -0.6722  0.4028
 4471SOL    HW216912   5.378   0.698   0.817 -0.2054 -0.5780  0.1130
 4472SOL     OW16913   2.138   6.742   5.276 -0.5037 -0.5356 -0.1131
 4472SOL    HW116914   2.209   6.686   5.245 -0.0463  0.3090 -0.6557
 4472SOL    HW216915   2.069   6.732   5.211 -0.7743 -1.1313  0.2584
 4473SOL     OW16916   2.641   9.544   6.673 -0.2353  0.7856 -0.6835
 4473SOL    HW116917   2.614   9.455   6.693  0.4618  1.1788  2.5075
 4473SOL    HW216918   2.559   9.593   6.667 -0.5470  0.6476  1.7395
 4474SOL     OW16919   0.668   3.049   9.530 -0.4273 -0.4112 -0.0988
 4474SOL    HW116920   0.648   3.140   9.508  2.9509  0.3196 -0.8415
 4474SOL    HW216921   0.720   3.055   9.610 -0.6825 -1.7577  0.1835
 4475SOL     OW16922   7.821   8.805   9.417  0.0939 -0.1433 -0.2447
 4475SOL    HW116923   7.860   8.793   9.331  1.5994  2.9763 -0.0982
 4475SOL    HW216924   7.893   8.791   9.479 -0.9369 -2.2198  0.6276
 4476SOL     OW16925   3.955   9.136   9.617  0.0664 -0.3769  0.1077
 4476SOL    HW116926   4.029   9.115   9.674 -1.3605 -0.4538  2.0665
 4476SOL    HW216927   3.883   9.082   9.651 -1.3119  0.9052 -0.6526
 4477SOL     OW16928   4.027   2.657  10.964 -0.0735  0.5940 -0.3801
 4477SOL    HW116929   4.010   2.649  10.870  0.5302  1.1620 -0.5435
 4477SOL    HW216930   3.944   2.688  11.000 -1.8027 -3.7450 -0.0415
 4478SOL     OW16931   2.922   6.556   9.297  0.1511 -1.1082 -0.5220
 4478SOL    HW116932   2.898   6.641   9.262  0.5555 -0.2085  1.3015
 4478SOL    HW216933   3.000   6.531   9.247  0.0916 -0.3688 -0.9949
 4479SOL     OW16934   9.435   8.420   5.357 -0.4917  0.1566  0.1667
 4479SOL    HW116935   9.421   8.495   5.299 -0.1606 -0.9014 -1.3588
 4479SOL    HW216936   9.361   8.362   5.339  0.2684 -0.7462 -0.1445
 4480SOL     OW16937   0.459   0.015   5.802  0.9262  0.2411 -0.0173
 4480SOL    HW116938   0.386  -0.046   5.792 -1.0673  2.6667 -1.1129
 4480SOL    HW216939   0.533  -0.031   5.760 -0.3049 -1.6418 -0.2544
 4481SOL     OW16940   9.613   9.453   7.071  0.2539  0.1760 -0.0705
 4481SOL    HW116941   9.701   9.434   7.103  0.2589  0.0421 -0.1665
 4481SOL    HW216942   9.555   9.415   7.136  0.2557  1.5414  0.7894
 4482SOL     OW16943   2.346   7.677   7.507  0.0282  0.6426 -0.1841
 4482SOL    HW116944   2.366   7.638   7.422 -0.1215  0.3569 -0.0899
 4482SOL    HW216945   2.381   7.615   7.571 -0.2746  0.6251 -0.0325
 4483SOL     OW16946   6.673   9.385   6.954 -0.2304  0.8385  0.5483
 4483SOL    HW116947   6.635   9.307   6.912  4.1320 -1.8617  1.0424
 4483SOL    HW216948   6.715   9.432   6.882 -0.7052  1.4143  0.6374
 4484SOL     OW16949   6.119   3.305   9.736 -0.2075  0.1719  0.1708
 4484SOL    HW116950   6.150   3.234   9.679 -1.6449  0.2236 -0.7185
 4484SOL    HW216951   6.141   3.385   9.690 -0.7011  0.2317  0.0306
 4485SOL     OW16952   8.604   3.844  10.908 -0.2458 -0.1526  0.2494
 4485SOL    HW116953   8.578   3.847  10.816 -0.8504 -1.7317  0.3358
 4485SOL    HW216954   8.699   3.838  10.906 -0.2456 -0.0710 -0.2660
 4486SOL     OW16955   3.208   8.412   7.793  0.0654  0.3035  0.1217
 4486SOL    HW116956   3.206   8.505   7.813 -0.5045  0.2160  0.5089
 4486SOL    HW216957   3.225   8.408   7.699  0.8294  0.7711  0.2383
 4487SOL     OW16958  10.668   1.537   3.197 -0.7643 -0.3080 -0.0705
 4487SOL    HW116959  10.725   1.553   3.123 -2.5184 -0.9851 -1.6641
 4487SOL    HW216960  10.609   1.467   3.167 -1.0685 -1.1221  2.2309
 4488SOL     OW16961  10.445   0.653   3.951  0.1180  0.3728  0.0440
 4488SOL    HW116962  10.492   0.712   3.893 -0.5300  1.2275  0.3711
 4488SOL    HW216963  10.454   0.693   4.038  0.4639 -0.5065  0.4228
 4489SOL     OW16964   9.786  10.268   5.209  0.3109  0.6462 -0.0713
 4489SOL    HW116965   9.880  10.270   5.222  0.1439  0.8601  1.1798
 4489SOL    HW216966   9.760  10.360   5.207  0.2575  0.6256 -1.5648
 4490SOL     OW16967   5.448   0.934  10.258 -0.1057  0.3319 -0.3416
 4490SOL    HW116968   5.412   0.935  10.347 -1.3734 -0.4404 -0.8167
 4490SOL    HW216969   5.400   0.865  10.213  1.6460 -0.3903 -1.2022
 4491SOL     OW16970  10.978   1.680  10.335  0.2698  0.7337  0.1235
 4491SOL    HW116971  10.888   1.708  10.355  0.1424  0.7540 -0.4567
 4491SOL    HW216972  11.013   1.750  10.279 -0.1228 -0.3289 -1.5281
 4492SOL     OW16973   7.443   8.945   8.529 -0.0632 -0.5725  0.0224
 4492SOL    HW116974   7.399   8.995   8.460 -0.3899  0.2012  0.7709
 4492SOL    HW216975   7.395   8.862   8.532 -0.9987 -0.0359  0.3052
 4493SOL     OW16976   0.704   8.028   7.270  0.0015  0.1505 -0.2488
 4493SOL    HW116977   0.768   8.005   7.338  0.4168  0.0334 -0.6788
 4493SOL    HW216978   0.664   7.945   7.246  0.3465  0.0969 -0.6411
 4494SOL     OW16979  10.176   3.902   9.734 -0.0162  0.0960 -0.5202
 4494SOL    HW116980  10.238   3.847   9.782 -0.4985  0.6844  0.8513
 4494SOL    HW216981  10.124   3.944   9.803 -0.1803  1.6488 -1.5461
 4495SOL     OW16982   7.424   2.954   7.996 -0.3770  0.6534  0.1839
 4495SOL    HW116983   7.363   2.967   7.924 -1.0064 -0.4896  0.4913
 4495SOL    HW216984   7.463   2.867   7.979 -1.4674 -0.2104  1.8636
 4496SOL     OW16985   6.858   6.606   8.066  0.1258 -0.5326 -0.4129
 4496SOL    HW116986   6.891   6.677   8.011 -0.1020 -1.5656 -1.9173
 4496SOL    HW216987   6.786   6.645   8.115  1.0102  0.6841 -0.0161
 4497SOL     OW16988   3.454   3.578   7.273 -0.0541 -0.3605  0.2749
 4497SOL    HW116989   3.535   3.546   7.313  0.3714 -1.1622 -1.1492
 4497SOL    HW216990   3.392   3.583   7.345  0.4720 -2.4534  0.9431
 4498SOL     OW16991   6.657   6.365   5.456 -0.3504 -0.5326  0.2594
 4498SOL    HW116992   6.574   6.346   5.413 -0.8642 -0.0129  1.0038
 4498SOL    HW216993   6.634   6.381   5.547  0.3627  0.9560  0.2203
 4499SOL     OW16994   6.340   1.020   6.439 -0.1530  0.6181  0.4240
 4499SOL    HW116995   6.403   0.969   6.491  2.1246  1.6809 -1.1442
 4499SOL    HW216996   6.332   1.103   6.486  1.9159  1.5842 -0.7918
 4500SOL     OW16997   4.235  10.400   4.459 -0.2714 -0.0664  0.0696
 4500SOL    HW116998   4.299  10.382   4.390  0.1672 -0.1418  0.4874
 4500SOL    HW216999   4.285  10.446   4.527 -1.2083  2.0641 -0.6321
 4501SOL     OW17000   2.528   5.790  10.030  0.4878  0.0029  0.3388
 4501SOL    HW117001   2.584   5.733   9.977 -0.2048  0.5166 -0.9789
 4501SOL    HW217002   2.511   5.866   9.974 -2.8522 -0.8514 -0.0105
 4502SOL     OW17003   1.937   6.760   1.685 -0.1855  1.0298  1.0556
 4502SOL    HW117004   1.887   6.782   1.764 -1.1626  0.1264  0.7091
 4502SOL    HW217005   1.886   6.691   1.643  0.9796  0.6211  0.2810
 4503SOL     OW17006   6.650   5.216   5.921  0.2330 -0.2762 -0.5161
 4503SOL    HW117007   6.639   5.310   5.927 -0.9048 -0.4801  1.5259
 4503SOL    HW217008   6.731   5.204   5.871  1.4628  1.8107  0.8474
 4504SOL     OW17009   0.375   2.381   2.976 -0.1285 -0.5574 -0.1621
 4504SOL    HW117010   0.424   2.330   2.912 -0.7487 -1.4794  0.0668
 4504SOL    HW217011   0.287   2.343   2.975 -0.3206 -0.1859  0.7856
 4505SOL     OW17012  10.192   2.543   4.384 -0.2752 -0.0254 -0.1321
 4505SOL    HW117013  10.245   2.498   4.319 -0.1451  0.1112 -0.1193
 4505SOL    HW217014  10.122   2.480   4.405  0.0853 -0.3475  0.1194
 4506SOL     OW17015  10.163   6.793   5.523 -0.1409 -0.2358  0.5176
 4506SOL    HW117016  10.084   6.833   5.558  1.1503  1.4459  1.7532
 4506SOL    HW217017  10.133   6.735   5.454 -2.5340 -0.7752  1.9012
 4507SOL     OW17018   6.423   0.443   7.046  0.3519 -0.0985 -0.1479
 4507SOL    HW117019   6.510   0.472   7.074 -1.0691  1.6002  3.0774
 4507SOL    HW217020   6.404   0.496   6.968  1.9875 -0.1856 -0.6306
 4508SOL     OW17021   7.123   3.456   2.247 -0.2763 -0.0594  0.4997
 4508SOL    HW117022   7.116   3.544   2.209  1.1457  0.3020  0.9911
 4508SOL    HW217023   7.182   3.410   2.187  1.7939  0.4371  2.0155
 4509SOL     OW17024   3.708   2.050   7.469 -0.5403 -0.1116 -0.0348
 4509SOL    HW117025   3.770   2.109   7.426 -1.1965  0.4687 -0.2087
 4509SOL    HW217026   3.752   1.965   7.469 -0.6938 -0.2586 -2.2995
 4510SOL     OW17027   0.663   8.700   0.730  0.2659 -0.2199 -0.4737
 4510SOL    HW117028   0.603   8.773   0.718 -0.4644 -0.7933 -0.4030
 4510SOL    HW217029   0.652   8.647   0.651 -0.8653 -1.4010  0.4266
 4511SOL     OW17030   3.618   5.817   1.883  0.6746 -0.1412 -0.2375
 4511SOL    HW117031   3.531   5.831   1.847  0.4089  0.4269  0.6118
 4511SOL    HW217032   3.658   5.753   1.824  0.0995  0.4430 -1.2761
 4512SOL     OW17033  10.769   7.488   3.557 -0.5216  0.1403 -0.2536
 4512SOL    HW117034  10.796   7.522   3.643 -0.5793 -1.2952  0.3524
 4512SOL    HW217035  10.679   7.518   3.547 -1.3776 -1.6584  1.3179
 4513SOL     OW17036   0.354   8.233   1.031  0.0499 -0.7370 -0.6852
 4513SOL    HW117037   0.405   8.313   1.021 -1.3777  0.4290  0.7250
 4513SOL    HW217038   0.394   8.170   0.971  3.2198  0.0199  0.4285
 4514SOL     OW17039   5.814   3.437  10.668  0.2005  0.0907  0.2904
 4514SOL    HW117040   5.860   3.355  10.688  1.1259  0.2022 -1.2269
 4514SOL    HW217041   5.823   3.489  10.748 -0.3192 -1.2263  1.2476
 4515SOL     OW17042   9.429  10.542  10.823 -0.3142  0.1225 -0.1088
 4515SOL    HW117043   9.468  10.559  10.909 -0.8821 -1.4367  0.4904
 4515SOL    HW217044   9.348  10.593  10.822 -1.1180 -1.0746  0.9545
 4516SOL     OW17045   8.278   6.098   9.041  0.3492  0.6267  0.0505
 4516SOL    HW117046   8.326   6.156   8.982  1.9256  0.2727  0.9166
 4516SOL    HW217047   8.311   6.010   9.021 -0.4815  0.2738  0.1805
 4517SOL     OW17048   5.728   6.045   1.953  0.6481  0.3832 -0.2973
 4517SOL    HW117049   5.713   5.974   1.890  0.7931  0.7355 -0.7360
 4517SOL    HW217050   5.779   6.005   2.024  3.5566  0.7247 -2.0252
 4518SOL     OW17051   2.741   2.554   1.678 -0.1155 -0.1105 -0.0316
 4518SOL    HW117052   2.699   2.469   1.696 -2.3069  0.6969 -1.0150
 4518SOL    HW217053   2.679   2.600   1.621  1.0900  2.1151  0.3510
 4519SOL     OW17054   4.931   5.321   5.926  0.3839  0.1720  0.2917
 4519SOL    HW117055   4.856   5.373   5.955  1.1857  1.0663  0.8365
 4519SOL    HW217056   4.975   5.375   5.861  1.7879  0.6527  1.5775
 4520SOL     OW17057   7.715   3.989   6.307  0.8191 -0.0588 -0.1794
 4520SOL    HW117058   7.767   3.909   6.317  1.1518  0.1551 -0.1756
 4520SOL    HW217059   7.765   4.056   6.352 -0.2595 -0.1735  1.2542
 4521SOL     OW17060   3.163  10.616   1.411  0.1430 -0.4180  0.7676
 4521SOL    HW117061   3.092  10.617   1.475  1.6227  1.8052  2.5344
 4521SOL    HW217062   3.243  10.607   1.464  1.3768  0.5740 -0.8414
 4522SOL     OW17063   9.181   7.883  10.349 -0.0093 -0.0600 -0.2439
 4522SOL    HW117064   9.201   7.926  10.433 -0.2378 -0.7741  0.1867
 4522SOL    HW217065   9.241   7.923  10.287  1.0712 -0.4427  0.5284
 4523SOL     OW17066   7.858   3.104   0.590 -0.3738  0.0926 -0.1981
 4523SOL    HW117067   7.948   3.117   0.560  0.0125  1.5016  1.4305
 4523SOL    HW217068   7.828   3.191   0.615 -1.1147 -0.7686  2.1607
 4524SOL     OW17069   3.818   0.384  10.752  0.2709  0.8304  0.7393
 4524SOL    HW117070   3.819   0.349  10.840  0.5443  0.7993  0.7235
 4524SOL    HW217071   3.764   0.463  10.758  0.8159  1.1796  1.0692
 4525SOL     OW17072   7.778   1.493   2.786  0.5416  0.0352  0.4471
 4525SOL    HW117073   7.794   1.583   2.758 -0.1447  0.8244  2.4414
 4525SOL    HW217074   7.739   1.451   2.709  1.5088  1.2226 -0.7360
 4526SOL     OW17075   9.105   1.269   8.566  0.1395  0.6121  0.2229
 4526SOL    HW117076   9.096   1.315   8.649  0.1454 -0.0848  0.6134
 4526SOL    HW217077   9.165   1.197   8.585  0.8210  0.9474 -0.5936
 4527SOL     OW17078   2.761   8.588   5.162  0.3231 -0.0687  0.3068
 4527SOL    HW117079   2.692   8.593   5.228 -1.5480  0.3512 -1.5572
 4527SOL    HW217080   2.774   8.679   5.134 -0.3026 -0.4001 -1.1885
 4528SOL     OW17081   9.411   3.686   4.167  0.2631  0.4988  0.3728
 4528SOL    HW117082   9.454   3.745   4.229  0.5163 -1.7642  2.5120
 4528SOL    HW217083   9.322   3.676   4.203  0.3467 -0.6780  0.2645
 4529SOL     OW17084   0.465   6.052   3.343  0.2878  0.1803  0.1459
 4529SOL    HW117085   0.477   6.123   3.406  0.5714  2.4044 -2.2543
 4529SOL    HW217086   0.373   6.057   3.317 -0.1608 -1.5553  1.2390
 4530SOL     OW17087   8.342   5.081   0.874  0.4469 -0.3258  0.2844
 4530SOL    HW117088   8.409   5.029   0.918 -0.7517 -1.1362  1.1940
 4530SOL    HW217089   8.292   5.018   0.823 -0.7328 -0.0261  1.0233
 4531SOL     OW17090   6.466   3.338   5.411  0.0991  0.5186  0.4783
 4531SOL    HW117091   6.491   3.309   5.499  1.6750  1.7915  0.5151
 4531SOL    HW217092   6.524   3.412   5.394  0.3261 -0.1366 -1.9269
 4532SOL     OW17093   4.092   1.569   4.307 -0.4758  0.4843  0.5214
 4532SOL    HW117094   4.076   1.492   4.361 -0.2141 -1.1299 -1.5949
 4532SOL    HW217095   4.178   1.554   4.268 -1.9990 -0.1446 -2.9711
 4533SOL     OW17096   9.513   2.389   8.772  0.2924  0.8570 -0.1963
 4533SOL    HW117097   9.553   2.476   8.779  1.6366  0.1912  0.7792
 4533SOL    HW217098   9.517   2.353   8.861  1.4077 -0.8930 -0.9081
 4534SOL     OW17099   3.732   5.860   7.116  0.5595  0.1929  0.2797
 4534SOL    HW117100   3.658   5.822   7.163 -0.2695  0.2903 -0.9092
 4534SOL    HW217101   3.715   5.841   7.024  1.2977  1.4354 -0.1426
 4535SOL     OW17102   1.081   8.416   3.266 -0.1605  0.1845  0.0614
 4535SOL    HW117103   1.088   8.340   3.325 -1.0119 -0.2556 -0.3878
 4535SOL    HW217104   0.995   8.406   3.224 -0.6171  1.7810  0.5207
 4536SOL     OW17105   9.964   1.661   4.384  0.0659  0.9440  0.2907
 4536SOL    HW117106  10.056   1.637   4.375 -0.0148  1.1908 -1.6577
 4536SOL    HW217107   9.917   1.577   4.391  0.2734  0.7333 -0.7611
 4537SOL     OW17108   6.433  10.547   8.658 -0.0596  0.9628  0.3067
 4537SOL    HW117109   6.496  10.480   8.685 -1.0237 -0.2925 -0.4223
 4537SOL    HW217110   6.404  10.518   8.571 -0.7805  2.1274  0.1413
 4538SOL     OW17111   8.028   2.720   0.437 -0.5032 -0.1872  0.6235
 4538SOL    HW117112   7.975   2.790   0.402  1.5743  0.2780 -1.8632
 4538SOL    HW217113   7.992   2.640   0.398  0.0489  0.0337 -0.3601
 4539SOL     OW17114   1.382   8.012   8.547  0.4008  0.1020 -0.3755
 4539SOL    HW117115   1.406   8.069   8.474  3.2099  1.6531  1.5610
 4539SOL    HW217116   1.455   7.951   8.555 -0.0660 -0.3284  0.8312
 4540SOL     OW17117   4.910   0.066   1.292 -0.0508  0.1241  0.5907
 4540SOL    HW117118   4.828   0.110   1.314 -0.6655  1.1468 -3.0461
 4540SOL    HW217119   4.970   0.137   1.269  0.4384 -0.7094 -0.8541
 4541SOL     OW17120  10.052   1.180  10.500 -0.4971 -0.3247 -0.5588
 4541SOL    HW117121   9.991   1.153  10.432  0.3111  0.4469 -1.6438
 4541SOL    HW217122  10.122   1.226  10.452 -0.6356  1.5578  0.9202
 4542SOL     OW17123   5.350   8.763   6.330 -0.1731 -0.3196  0.5082
 4542SOL    HW117124   5.360   8.787   6.237  1.4114 -0.6789  0.5512
 4542SOL    HW217125   5.268   8.803   6.356  0.4023  1.6545 -0.4891
 4543SOL     OW17126   1.818   3.868   9.591  0.6117 -0.3513 -0.7760
 4543SOL    HW117127   1.736   3.824   9.570  1.5039 -2.2141 -0.5135
 4543SOL    HW217128   1.823   3.867   9.686 -0.0112  1.6335 -0.6804
 4544SOL     OW17129   9.694   2.907   1.418 -0.3275  0.0669 -0.1770
 4544SOL    HW117130   9.697   2.934   1.326  0.6414 -1.1240 -0.5410
 4544SOL    HW217131   9.785   2.914   1.448 -0.5519 -0.0100  0.5451
 4545SOL     OW17132   0.834   1.806   7.586 -0.1533  0.3518  0.2147
 4545SOL    HW117133   0.885   1.881   7.618 -1.1687  1.3452 -0.3953
 4545SOL    HW217134   0.821   1.824   7.493 -0.1962 -0.7261  0.0067
 4546SOL     OW17135   6.116   5.621   8.053  0.2893  0.1561 -0.0509
 4546SOL    HW117136   6.133   5.550   7.991 -0.2088 -0.4830  0.5367
 4546SOL    HW217137   6.195   5.675   8.049  0.1120  0.3584 -1.5345
 4547SOL     OW17138   6.147   8.089   3.086  0.3649 -0.0992  0.5283
 4547SOL    HW117139   6.170   8.120   2.998 -1.7587  0.5471  0.1421
 4547SOL    HW217140   6.183   8.000   3.090  2.5112  0.6637 -0.0750
 4548SOL     OW17141   8.476   3.872   1.881 -0.3103 -0.2362  0.1038
 4548SOL    HW117142   8.559   3.919   1.882 -0.7099  0.6202 -2.0796
 4548SOL    HW217143   8.488   3.802   1.817 -1.8091  1.0870 -1.7391
 4549SOL     OW17144   3.627   4.820   3.525  0.3138 -0.4294 -0.0249
 4549SOL    HW117145   3.635   4.906   3.567  1.1705 -0.3425 -0.3434
 4549SOL    HW217146   3.533   4.810   3.509  0.0248 -0.2363  1.4154
 4550SOL     OW17147   7.273   0.761   8.817  0.2498 -0.1588 -0.2992
 4550SOL    HW117148   7.250   0.757   8.909 -1.3554 -0.4826 -0.6885
 4550SOL    HW217149   7.302   0.851   8.803 -0.4345  0.1667  0.3204
 4551SOL     OW17150   3.371   7.995   3.211  0.0818  0.4455  0.0942
 4551SOL    HW117151   3.369   8.071   3.153  2.2053  1.0347  0.6963
 4551SOL    HW217152   3.308   8.016   3.280 -0.3859  1.0040 -0.4802
 4552SOL     OW17153   5.860  10.187   4.501  0.3059 -0.6160  0.0850
 4552SOL    HW117154   5.912  10.108   4.486 -1.5979 -2.2677  1.5794
 4552SOL    HW217155   5.913  10.241   4.559  2.0722 -0.2475 -1.7676
 4553SOL     OW17156   3.207   0.024   7.304  0.0905 -0.8115  0.2527
 4553SOL    HW117157   3.301   0.037   7.318  0.0746  1.2356 -1.1715
 4553SOL    HW217158   3.167   0.047   7.388  0.7700 -0.5951  0.5264
 4554SOL     OW17159   2.905   4.231   3.523 -0.2767 -0.4289  0.0140
 4554SOL    HW117160   2.961   4.188   3.458 -0.5273  0.3597 -0.7415
 4554SOL    HW217161   2.827   4.256   3.473 -0.4366  0.2648  0.6093
 4555SOL     OW17162   7.391   6.356   9.149  0.4095  0.4286  0.2355
 4555SOL    HW117163   7.417   6.447   9.165  0.3917  0.8422 -1.7983
 4555SOL    HW217164   7.296   6.358   9.146  0.2916 -0.0963  2.3272
 4556SOL     OW17165   2.522   1.947   4.776 -0.0725 -0.3661  0.1940
 4556SOL    HW117166   2.573   2.028   4.781  1.4362 -1.3274  2.0976
 4556SOL    HW217167   2.536   1.915   4.687  0.9822  0.4604  0.0426
 4557SOL     OW17168   5.051   8.763   8.821  0.5170  0.0501 -0.0198
 4557SOL    HW117169   5.044   8.827   8.892  0.0825  0.6309 -0.5729
 4557SOL    HW217170   4.986   8.696   8.842  1.3821 -0.5444  0.8733
 4558SOL     OW17171   6.694  10.125   0.779 -0.3165  0.0442 -0.2610
 4558SOL    HW117172   6.627  10.085   0.835  0.1558  1.0412  1.0773
 4558SOL    HW217173   6.682  10.083   0.694 -2.0495 -0.4438  0.1786
 4559SOL     OW17174   6.291   0.365   7.291 -0.3587  0.3128 -0.1225
 4559SOL    HW117175   6.346   0.410   7.226  1.6979 -0.2780  1.0909
 4559SOL    HW217176   6.212   0.341   7.243  0.3896  1.3006 -1.9649
 4560SOL     OW17177   8.225   5.331   0.387 -0.7866 -0.2567  0.0355
 4560SOL    HW117178   8.320   5.340   0.378 -0.4517 -0.9356  2.2757
 4560SOL    HW217179   8.208   5.353   0.479 -2.7242 -0.7557 -0.1701
 4561SOL     OW17180   4.250   8.303   5.792 -0.0614 -0.8600  0.1595
 4561SOL    HW117181   4.313   8.235   5.816  0.5988  0.1449  1.3676
 4561SOL    HW217182   4.279   8.332   5.705  0.6911 -0.9189  0.3866
 4562SOL     OW17183  10.770   4.268   4.946 -0.7512  0.0135 -0.1672
 4562SOL    HW117184  10.744   4.319   4.869 -2.4083 -1.9630 -1.0206
 4562SOL    HW217185  10.823   4.196   4.910 -0.9930 -0.5564  0.5932
 4563SOL     OW17186   8.537   1.222   7.250  0.4155 -0.4314 -0.1046
 4563SOL    HW117187   8.463   1.199   7.305 -1.5640  1.5174 -1.7452
 4563SOL    HW217188   8.581   1.293   7.297  0.6620 -0.9108  0.4016
 4564SOL     OW17189   5.395   5.145   3.102 -0.0525  0.4377 -0.2406
 4564SOL    HW117190   5.445   5.087   3.044 -0.9803 -1.6574  0.9260
 4564SOL    HW217191   5.323   5.176   3.047 -0.6476 -1.1239 -0.4005
 4565SOL     OW17192   3.052   6.258   1.419 -0.5917 -0.2563 -0.0991
 4565SOL    HW117193   3.022   6.179   1.465  1.6690 -1.2285 -0.1554
 4565SOL    HW217194   3.025   6.243   1.328  0.1703 -1.1864 -0.1896
 4566SOL     OW17195   3.584   5.361  10.446  0.4028  0.7430  0.0506
 4566SOL    HW117196   3.593   5.300  10.373  0.5704  2.3529 -1.3311
 4566SOL    HW217197   3.490   5.382  10.450  0.6127  1.9944 -0.8910
 4567SOL     OW17198   3.990   5.880   6.516 -0.1205  0.1911  0.0340
 4567SOL    HW117199   3.915   5.930   6.548 -0.3546  0.3512 -0.7321
 4567SOL    HW217200   3.996   5.904   6.423  0.6642 -0.0876  0.0090
 4568SOL     OW17201  10.949   1.762   6.195  0.2075  0.1604 -0.7451
 4568SOL    HW117202  10.877   1.770   6.133  0.6502  0.1476 -1.2704
 4568SOL    HW217203  10.987   1.850   6.199  0.2876  0.1207 -0.6241
 4569SOL     OW17204   5.757   1.375  10.138  0.4513 -0.8456 -0.2522
 4569SOL    HW117205   5.798   1.391  10.223  0.7498  1.4931 -0.7884
 4569SOL    HW217206   5.670   1.412  10.146  0.9552  0.6574 -1.3714
 4570SOL     OW17207   4.366   7.873   4.846 -0.2989 -1.1260 -0.2049
 4570SOL    HW117208   4.436   7.813   4.821  0.6964 -0.0230 -0.1751
 4570SOL    HW217209   4.369   7.876   4.942  1.0917  0.5619 -0.2624
 4571SOL     OW17210  10.260   0.067   3.064 -0.8532  0.3628 -0.0212
 4571SOL    HW117211  10.188   0.081   3.126  0.2507  2.3523  0.8927
 4571SOL    HW217212  10.224   0.093   2.979 -1.4694  0.4718  0.2692
 4572SOL     OW17213   0.319   8.754   0.887 -0.2611 -0.2415 -0.3157
 4572SOL    HW117214   0.352   8.824   0.830 -0.4208  1.6916  1.8148
 4572SOL    HW217215   0.226   8.750   0.867 -0.1976 -0.0542 -0.6647
 4573SOL     OW17216   8.752   1.300   8.961  0.0162  0.0261 -0.1219
 4573SOL    HW117217   8.791   1.337   9.041 -2.1068  1.0581  0.5083
 4573SOL    HW217218   8.770   1.206   8.967  1.1939  0.2722  0.7824
 4574SOL     OW17219   2.192  10.690   1.092  0.5099 -0.1565 -0.6191
 4574SOL    HW117220   2.238  10.751   1.151  0.6375  0.1667 -1.0440
 4574SOL    HW217221   2.153  10.625   1.150 -0.2583  0.7495 -0.0885
 4575SOL     OW17222   2.305   1.445   9.409 -0.8881 -0.4588 -0.1822
 4575SOL    HW117223   2.287   1.532   9.443 -0.3341 -0.7957  1.0297
 4575SOL    HW217224   2.248   1.436   9.333 -1.8542  0.4870  0.4123
 4576SOL     OW17225   6.425   2.464   3.062 -0.1592 -0.0168  0.6138
 4576SOL    HW117226   6.386   2.544   3.028  0.2484  0.2111  0.6686
 4576SOL    HW217227   6.367   2.436   3.132 -0.6482 -0.1236  0.1682
 4577SOL     OW17228   4.216   8.581   5.833 -0.0339 -0.1555  0.0477
 4577SOL    HW117229   4.185   8.490   5.836 -0.2972 -0.0495  0.6905
 4577SOL    HW217230   4.273   8.589   5.909  0.2468  0.1266 -0.1965
 4578SOL     OW17231   4.860   1.810   9.650  0.1686 -0.2921 -0.0705
 4578SOL    HW117232   4.856   1.860   9.732 -1.4804  0.7535 -0.7285
 4578SOL    HW217233   4.916   1.863   9.593  1.9624 -1.4099  0.5805
 4579SOL     OW17234   0.692   3.794   0.908  0.3808  0.3723  0.0735
 4579SOL    HW117235   0.602   3.763   0.914  0.1437  1.2242  1.4504
 4579SOL    HW217236   0.696   3.838   0.823 -0.8220  1.2375  0.4341
 4580SOL     OW17237   7.372   7.416   0.429 -0.0708  0.5955  0.5155
 4580SOL    HW117238   7.367   7.417   0.333  0.0074 -0.1611  0.4927
 4580SOL    HW217239   7.414   7.498   0.452  1.1071  0.2074 -0.1809
 4581SOL     OW17240  10.725   6.344   8.915  0.4757 -0.0458 -0.6143
 4581SOL    HW117241  10.747   6.251   8.923 -0.8164 -0.3879 -0.8113
 4581SOL    HW217242  10.651   6.346   8.854 -0.9830  0.8502  1.0697
 4582SOL     OW17243   6.134   4.481   4.968 -0.2047  0.0461  0.0745
 4582SOL    HW117244   6.094   4.566   4.946  1.7731  0.7822 -1.0109
 4582SOL    HW217245   6.172   4.494   5.055 -0.4521  0.0549  0.1827
 4583SOL     OW17246   3.906   1.395   7.972  0.2863 -0.6270 -0.1659
 4583SOL    HW117247   3.962   1.459   8.016  0.2429 -0.1834 -0.7357
 4583SOL    HW217248   3.849   1.361   8.041 -0.3765  0.6836 -0.0195
 4584SOL     OW17249   6.767   3.808   2.506  0.3784  0.2102 -0.1028
 4584SOL    HW117250   6.672   3.810   2.496  0.2068 -1.3089  1.0065
 4584SOL    HW217251   6.796   3.732   2.455  0.7542 -0.5700  1.2407
 4585SOL     OW17252   1.551   8.465   0.946 -0.2632  0.3635 -0.3719
 4585SOL    HW117253   1.557   8.379   0.988 -0.9187  0.9649  0.9969
 4585SOL    HW217254   1.482   8.455   0.881 -0.6157 -0.0422  0.0619
 4586SOL     OW17255   8.793   4.536   3.907  0.0444  0.4545  0.1182
 4586SOL    HW117256   8.800   4.444   3.932 -0.2850  0.3611 -0.1127
 4586SOL    HW217257   8.856   4.582   3.962  1.2559 -0.1018 -0.7525
 4587SOL     OW17258   1.100   6.909   4.818 -0.0103  0.8086  0.0446
 4587SOL    HW117259   1.127   6.919   4.909 -1.1252  0.7407  0.3968
 4587SOL    HW217260   1.008   6.883   4.823  0.0526  0.3055 -1.0890
 4588SOL     OW17261   4.112   9.107   6.610  0.2119  0.3233  0.1778
 4588SOL    HW117262   4.094   9.145   6.524 -1.2554  0.4675  0.5177
 4588SOL    HW217263   4.030   9.065   6.636 -0.0183  1.9108  2.3170
 4589SOL     OW17264   0.390   6.672   8.397 -0.1351  0.1761  0.3214
 4589SOL    HW117265   0.427   6.752   8.434  0.8058  0.3245 -0.8960
 4589SOL    HW217266   0.295   6.684   8.406  0.0255  0.6432  1.7176
 4590SOL     OW17267   5.611   0.733   0.656 -0.3153  0.4910 -0.2249
 4590SOL    HW117268   5.592   0.774   0.741 -0.1050  1.2824 -0.5512
 4590SOL    HW217269   5.684   0.674   0.674 -0.5567  0.3221  0.2330
 4591SOL     OW17270  10.589   6.328   9.358 -0.7883 -0.3973 -0.7669
 4591SOL    HW117271  10.526   6.401   9.353 -2.4521 -1.7371 -0.2645
 4591SOL    HW217272  10.624   6.333   9.447 -0.3083  0.2362 -0.9839
 4592SOL     OW17273   8.540   8.474  10.969  0.3182  0.2095 -0.0866
 4592SOL    HW117274   8.620   8.463  11.022  0.2875  1.9235  0.3663
 4592SOL    HW217275   8.469   8.467  11.032  0.2705  1.9708  0.0988
 4593SOL     OW17276   7.328   3.775   4.240 -0.7796  0.0113  0.4083
 4593SOL    HW117277   7.351   3.691   4.200 -0.4290 -0.5443  1.7481
 4593SOL    HW217278   7.293   3.827   4.167 -0.3979 -1.0584 -0.5657
 4594SOL     OW17279   9.222   8.552   2.733  0.2185 -0.0616  0.1628
 4594SOL    HW117280   9.234   8.457   2.729  2.6225  0.1916 -2.0279
 4594SOL    HW217281   9.275   8.580   2.808  1.6184 -0.3037 -0.6859
 4595SOL     OW17282   0.075   3.249   0.879 -0.0634  0.4183 -0.3458
 4595SOL    HW117283   0.099   3.210   0.963 -1.2996 -0.6408 -0.4498
 4595SOL    HW217284   0.135   3.210   0.816 -0.4528 -0.3553 -0.2496
 4596SOL     OW17285   2.027   9.564   8.411  0.0648  0.2777  0.4023
 4596SOL    HW117286   1.968   9.510   8.464  0.8406 -1.3912 -0.3603
 4596SOL    HW217287   2.041   9.513   8.331  1.6971  1.1260  0.1052
 4597SOL     OW17288   6.441   3.337  10.583 -0.0979 -0.3019  0.3522
 4597SOL    HW117289   6.424   3.244  10.565 -1.3524  0.2429 -1.6562
 4597SOL    HW217290   6.477   3.338  10.672  1.4723 -2.8433 -0.1482
 4598SOL     OW17291   3.598   9.081   1.438 -0.6227 -0.0557 -0.6999
 4598SOL    HW117292   3.614   9.022   1.364  0.0604 -0.5962 -0.1327
 4598SOL    HW217293   3.506   9.107   1.428 -1.0221 -1.4378 -0.8021
 4599SOL     OW17294   9.356   4.949   1.526 -0.7683 -0.6186  0.4468
 4599SOL    HW117295   9.293   4.982   1.462 -0.7457  0.6917  1.0536
 4599SOL    HW217296   9.363   5.020   1.591  1.5159 -0.5979  0.2515
 4600SOL     OW17297   6.404   4.626   4.068  0.6083  0.5510  0.2469
 4600SOL    HW117298   6.356   4.625   3.985  0.2111 -0.2982  0.4825
 4600SOL    HW217299   6.446   4.541   4.073  0.1341  0.3637  1.2022
 4601SOL     OW17300   9.757   6.196   4.695 -0.3974 -0.2916  0.2581
 4601SOL    HW117301   9.811   6.147   4.633  0.9448  0.0788  1.0974
 4601SOL    HW217302   9.667   6.174   4.671  0.1052 -0.6782 -1.3817
 4602SOL     OW17303   9.848   7.707   5.734  0.1112  0.9464 -0.1455
 4602SOL    HW117304   9.816   7.776   5.791 -0.4600  0.9308 -0.4417
 4602SOL    HW217305   9.930   7.742   5.697 -1.4863  2.6188 -2.3858
 4603SOL     OW17306   4.390   0.111   2.882 -0.3441  0.7738 -0.3115
 4603SOL    HW117307   4.460   0.145   2.938  0.2730 -0.7698 -0.0817
 4603SOL    HW217308   4.399   0.159   2.800  0.0054  1.6653  0.2397
 4604SOL     OW17309   0.614   3.876   0.608  0.2939 -0.7771  0.7437
 4604SOL    HW117310   0.664   3.828   0.541  2.0769  1.9368 -0.0064
 4604SOL    HW217311   0.523   3.853   0.590  0.7590 -0.6965 -2.2176
 4605SOL     OW17312   1.658   5.108   0.217  0.0616 -0.0346  0.5328
 4605SOL    HW117313   1.672   5.169   0.144 -1.0208 -1.7616 -1.2228
 4605SOL    HW217314   1.720   5.136   0.284  3.4853 -0.2431 -2.2326
 4606SOL     OW17315  10.774   3.194   5.389 -0.4602  0.3888  0.2592
 4606SOL    HW117316  10.868   3.214   5.393 -0.4932  1.1931 -1.7189
 4606SOL    HW217317  10.732   3.278   5.370 -1.5494 -0.0175  0.7945
 4607SOL     OW17318   0.204   6.133   7.233  0.5133  0.0465  0.4725
 4607SOL    HW117319   0.201   6.104   7.324  0.8933 -1.5379  0.0073
 4607SOL    HW217320   0.113   6.131   7.203  0.5453 -0.8490  0.4104
 4608SOL     OW17321   7.630   2.970   0.109 -0.1879 -0.5865 -0.2568
 4608SOL    HW117322   7.556   2.951   0.051  0.8328 -0.9185 -1.5104
 4608SOL    HW217323   7.655   2.885   0.145 -0.8545 -0.3717  0.7275
 4609SOL     OW17324   5.895   5.948   5.492 -1.0303 -0.3154 -0.7294
 4609SOL    HW117325   5.891   5.919   5.401  0.2490 -1.9857 -0.2792
 4609SOL    HW217326   5.874   5.870   5.543 -0.3924  0.2712  0.4521
 4610SOL     OW17327   5.455   1.131   9.802 -0.2151 -0.9244 -0.0382
 4610SOL    HW117328   5.508   1.150   9.724  0.5998  0.4540  0.8126
 4610SOL    HW217329   5.394   1.063   9.773  1.0803 -1.5562 -1.4531
 4611SOL     OW17330   0.583   1.652   0.871 -0.0649  0.1005  0.0721
 4611SOL    HW117331   0.587   1.745   0.897 -2.0081  0.2672 -0.0705
 4611SOL    HW217332   0.544   1.653   0.784 -0.7066 -0.8820  0.3352
 4612SOL     OW17333   0.051   7.900  10.350 -0.3785 -0.0183  0.2879
 4612SOL    HW117334  -0.006   7.925  10.423  0.0528  0.4096  0.4814
 4612SOL    HW217335   0.042   7.805  10.344 -1.0041  0.0286  0.4046
 4613SOL     OW17336   4.961   0.564   9.791  0.0582  0.0904  0.3208
 4613SOL    HW117337   5.006   0.481   9.808  0.7682  1.0316  3.7678
 4613SOL    HW217338   5.024   0.631   9.818 -1.5880  1.6559  0.4371
 4614SOL     OW17339   5.771   2.328  10.090 -0.4653 -0.3148 -0.1730
 4614SOL    HW117340   5.825   2.253  10.066  2.6460  1.2456  1.4331
 4614SOL    HW217341   5.693   2.289  10.130  0.5795 -2.6772 -0.2593
 4615SOL     OW17342   3.835   6.366   0.993  0.2299 -0.0972 -0.1570
 4615SOL    HW117343   3.882   6.449   1.004 -0.8310  0.4672  0.2210
 4615SOL    HW217344   3.900   6.299   1.012  0.5970  0.6832  1.5592
 4616SOL     OW17345   7.135   0.794   2.195  0.4229 -0.4991 -0.0853
 4616SOL    HW117346   7.197   0.738   2.241  1.3631  0.0122 -0.6978
 4616SOL    HW217347   7.117   0.748   2.114  0.5697 -0.3037 -0.2298
 4617SOL     OW17348  10.315   4.556   6.212  0.3891 -0.2111  0.0903
 4617SOL    HW117349  10.338   4.464   6.202 -0.0849 -0.3588  0.3558
 4617SOL    HW217350  10.399   4.599   6.232  0.6173 -0.5760 -0.0771
 4618SOL     OW17351   4.105   9.794   8.169 -0.1405 -0.1558 -0.3248
 4618SOL    HW117352   4.137   9.775   8.258  0.9305 -1.3579 -0.9442
 4618SOL    HW217353   4.184   9.798   8.116 -0.5891  2.4562 -0.9505
 4619SOL     OW17354  10.535   7.573   6.410 -0.0961  0.5374 -0.4728
 4619SOL    HW117355  10.486   7.559   6.491 -1.2370  1.7273 -0.9180
 4619SOL    HW217356  10.531   7.489   6.364  0.7705 -0.2146  0.7850
 4620SOL     OW17357   2.886   5.933   2.970 -0.5957  0.5380 -0.2347
 4620SOL    HW117358   2.924   5.845   2.971  1.0863  1.0921 -3.1553
 4620SOL    HW217359   2.815   5.930   3.034  0.9713 -2.1905  1.5285
 4621SOL     OW17360   0.269   7.773   5.572 -0.3385 -0.7090  0.3069
 4621SOL    HW117361   0.217   7.705   5.613  1.0856 -1.9683  0.1208
 4621SOL    HW217362   0.340   7.726   5.527  0.9223  0.9042  0.4968
 4622SOL     OW17363   9.616  10.720   8.757  0.4364  0.0996 -0.3052
 4622SOL    HW117364   9.530  10.679   8.758  0.0450  0.7786 -2.1278
 4622SOL    HW217365   9.677  10.646   8.762 -0.2639 -0.5602 -1.1360
 4623SOL     OW17366   9.272   8.166   1.359  0.1354  0.1249 -0.0157
 4623SOL    HW117367   9.249   8.139   1.448 -0.6742  0.6915 -0.0396
 4623SOL    HW217368   9.224   8.248   1.346  0.4732  0.1947 -0.8748
 4624SOL     OW17369   3.731   6.225   1.885  0.4515  0.1599 -0.5431
 4624SOL    HW117370   3.694   6.189   1.804  0.5427 -0.9573 -0.0942
 4624SOL    HW217371   3.678   6.303   1.903 -2.0205 -1.6228  0.3287
 4625SOL     OW17372   9.931   3.450   1.392 -0.3138 -0.4441  0.7360
 4625SOL    HW117373   9.851   3.503   1.397  0.1048  0.1849  0.8717
 4625SOL    HW217374   9.988   3.486   1.459  0.1338 -0.8094  0.5567
 4626SOL     OW17375   7.825   7.424   1.445  0.1194  0.9259 -0.1323
 4626SOL    HW117376   7.917   7.424   1.473 -0.1860 -0.5077  1.0531
 4626SOL    HW217377   7.782   7.366   1.508 -1.4782  1.0643 -1.0555
 4627SOL     OW17378   9.175  10.748   5.168  0.6595  0.1574  0.4613
 4627SOL    HW117379   9.174  10.660   5.207 -2.3597  0.2011  0.7716
 4627SOL    HW217380   9.144  10.735   5.078 -1.1937  0.9580  0.9227
 4628SOL     OW17381   6.845   0.550   6.492 -0.2933 -0.0923  0.2606
 4628SOL    HW117382   6.777   0.588   6.436 -2.6913 -1.3487  2.1256
 4628SOL    HW217383   6.860   0.463   6.454  1.5676  0.7315 -1.0800
 4629SOL     OW17384   2.796   0.834   3.427 -0.8905  0.0100 -0.4743
 4629SOL    HW117385   2.777   0.920   3.389 -0.8135  0.7688  1.1073
 4629SOL    HW217386   2.818   0.853   3.518  1.7919 -1.4240 -0.7427
 4630SOL     OW17387   4.596   8.612   6.191  0.2752  0.5547  0.2955
 4630SOL    HW117388   4.597   8.519   6.170 -1.2924  0.1766  1.6402
 4630SOL    HW217389   4.649   8.653   6.123  0.4477 -1.2399 -0.7093
 4631SOL     OW17390   4.368   4.675   5.182  0.1090 -0.0383 -0.1133
 4631SOL    HW117391   4.314   4.666   5.103 -0.7678 -0.9471  0.5500
 4631SOL    HW217392   4.454   4.701   5.150 -0.4769  0.5330 -1.2901
 4632SOL     OW17393   5.836   1.547   8.957 -0.2156  0.0506 -0.3984
 4632SOL    HW117394   5.833   1.642   8.952 -0.2202  0.0588 -0.2544
 4632SOL    HW217395   5.816   1.517   8.869 -1.3349  0.1649 -0.1967
 4633SOL     OW17396   9.017   8.885   9.626  0.0097 -0.1111 -0.1839
 4633SOL    HW117397   9.065   8.914   9.704  0.4742  1.1955 -0.9088
 4633SOL    HW217398   8.932   8.928   9.633 -0.1647 -0.4703 -0.1030
 4634SOL     OW17399   4.330   6.487   3.618  0.4294 -0.2022 -0.2220
 4634SOL    HW117400   4.280   6.559   3.659 -0.1705 -0.8192  0.1515
 4634SOL    HW217401   4.266   6.441   3.564  0.3935 -1.4409  0.8290
 4635SOL     OW17402   5.171   2.084   4.627  0.1512 -0.3917  0.0283
 4635SOL    HW117403   5.115   2.093   4.704  1.6731 -0.0837  1.1403
 4635SOL    HW217404   5.170   2.171   4.586  0.2436 -0.2289  0.3647
 4636SOL     OW17405   0.038   6.754  10.422  0.0944 -0.0673 -0.0803
 4636SOL    HW117406   0.029   6.709  10.338  3.0488  1.0106 -1.1037
 4636SOL    HW217407  -0.043   6.805  10.431 -0.1859  0.0098 -2.4450
 4637SOL     OW17408   1.391   1.025   9.728  0.1609  0.1078  0.6578
 4637SOL    HW117409   1.453   1.011   9.800  1.1180  0.4708 -0.0592
 4637SOL    HW217410   1.351   1.110   9.746  1.9656  1.2490 -0.2665
 4638SOL     OW17411   7.295   2.359   1.103 -0.2688 -0.4736  0.4856
 4638SOL    HW117412   7.333   2.425   1.044  0.1193  1.0273  2.3422
 4638SOL    HW217413   7.272   2.286   1.045  1.9772  0.0830 -1.2402
 4639SOL     OW17414   0.716   3.961   4.483 -0.4453  0.2068 -0.6754
 4639SOL    HW117415   0.627   3.933   4.462 -0.5140 -0.1952  0.1100
 4639SOL    HW217416   0.708   4.003   4.569  0.4203 -1.6456  0.3712
 4640SOL     OW17417   7.666   4.884   4.715 -0.3236  0.0192  0.1121
 4640SOL    HW117418   7.590   4.827   4.709 -1.1196  1.1438 -0.6591
 4640SOL    HW217419   7.687   4.908   4.625 -0.4436  1.5102  0.4584
 4641SOL     OW17420   8.560   1.609   1.549 -0.1544 -0.9223 -0.4808
 4641SOL    HW117421   8.548   1.604   1.644  1.9500  1.1200 -0.0154
 4641SOL    HW217422   8.593   1.522   1.525  1.7731 -0.7179  1.1441
 4642SOL     OW17423   0.170   3.104   3.767 -0.2403  0.0367  0.1501
 4642SOL    HW117424   0.124   3.121   3.850  2.7237  2.4085  1.5330
 4642SOL    HW217425   0.263   3.113   3.790  0.7110  0.4716 -3.3893
 4643SOL     OW17426   9.618   1.585   1.775  0.6460 -0.0925 -0.6920
 4643SOL    HW117427   9.669   1.506   1.790  1.0460 -0.0002 -1.5210
 4643SOL    HW217428   9.669   1.655   1.815  0.3752 -0.2221 -0.1089
 4644SOL     OW17429   4.149   3.196  10.420 -0.3540  0.5651 -0.3196
 4644SOL    HW117430   4.197   3.114  10.430 -0.0757  0.8260  0.6582
 4644SOL    HW217431   4.205   3.251  10.365 -0.2872  0.2964 -0.5193
 4645SOL     OW17432   7.360   6.083   4.330  0.4052  0.1694  0.4526
 4645SOL    HW117433   7.324   5.999   4.300 -1.8031  0.7126  1.4284
 4645SOL    HW217434   7.432   6.100   4.269  0.4431 -2.0456 -0.2398
 4646SOL     OW17435  10.367   6.569   3.960 -0.0894 -0.3899  0.6313
 4646SOL    HW117436  10.462   6.560   3.970 -0.0716 -0.0103  0.8245
 4646SOL    HW217437  10.338   6.608   4.042 -0.2790  0.3812  0.2131
 4647SOL     OW17438  10.403  10.459   6.713  0.0316  0.8457  0.5179
 4647SOL    HW117439  10.371  10.419   6.632  0.2137  1.4078  0.1622
 4647SOL    HW217440  10.388  10.552   6.701 -0.0207  0.9266  1.1743
 4648SOL     OW17441   4.449   8.059   7.145  0.4251  0.7796  0.1589
 4648SOL    HW117442   4.491   8.145   7.148  1.3195  0.3638  0.0395
 4648SOL    HW217443   4.520   7.997   7.162 -0.3799  0.1005  1.1793
 4649SOL     OW17444   4.311   7.875   0.398  0.4490  0.1444  0.0744
 4649SOL    HW117445   4.308   7.932   0.475 -0.1249  2.0849 -1.3062
 4649SOL    HW217446   4.228   7.891   0.353  0.1694 -1.9887 -0.2875
 4650SOL     OW17447   1.680   9.828   9.712 -0.4220 -0.1406 -0.0305
 4650SOL    HW117448   1.642   9.794   9.632 -0.1601 -0.3653 -0.0618
 4650SOL    HW217449   1.757   9.773   9.727 -0.7578 -0.4365  0.6522
 4651SOL     OW17450   3.603  10.419   0.586 -0.2660  0.0307  0.3109
 4651SOL    HW117451   3.573  10.497   0.539 -1.5231 -1.1859 -1.0265
 4651SOL    HW217452   3.698  10.420   0.576 -0.3267  1.0121 -0.3084
 4652SOL     OW17453   0.687   9.480   0.167  0.0513  0.1120  0.1057
 4652SOL    HW117454   0.593   9.464   0.175  0.0415 -0.4378 -0.9513
 4652SOL    HW217455   0.698   9.572   0.189 -0.5211 -0.1764  1.7616
 4653SOL     OW17456   6.517   9.181   2.615  0.0730  0.4242  0.2182
 4653SOL    HW117457   6.475   9.264   2.595 -0.2176  0.0732 -0.6773
 4653SOL    HW217458   6.591   9.204   2.671  0.9109  1.4541 -1.2617
 4654SOL     OW17459   0.249   0.076   6.651  0.1884  0.1801  0.0437
 4654SOL    HW117460   0.176   0.038   6.602 -0.5055  2.1677 -0.5181
 4654SOL    HW217461   0.317   0.008   6.648 -1.4808 -1.5750  0.3043
 4655SOL     OW17462  10.286   3.457   7.484  0.9098  0.2785  0.0964
 4655SOL    HW117463  10.327   3.536   7.519 -0.4758  0.7688  0.7044
 4655SOL    HW217464  10.338   3.385   7.520  1.3778  0.8766  0.6400
 4656SOL     OW17465   6.968   1.256   6.179  0.1729 -0.1167 -0.0138
 4656SOL    HW117466   6.936   1.323   6.118 -0.1065 -0.0872  0.1652
 4656SOL    HW217467   6.937   1.285   6.265 -0.2217 -0.6388  0.0253
 4657SOL     OW17468  10.681  10.488   9.250  0.2092  0.3284 -0.5523
 4657SOL    HW117469  10.667  10.415   9.310 -2.4485  0.5612 -0.8019
 4657SOL    HW217470  10.603  10.542   9.258  1.7957  2.8614 -0.8592
 4658SOL     OW17471   8.792   0.658   5.704 -0.2466 -0.9780  0.4072
 4658SOL    HW117472   8.765   0.659   5.612  1.3660 -0.9067 -0.1053
 4658SOL    HW217473   8.859   0.727   5.709 -3.0578  1.8572  2.5612
 4659SOL     OW17474  10.170   4.115   4.120 -0.0364 -0.2134  0.1354
 4659SOL    HW117475  10.172   4.205   4.087 -0.8677  0.7061  2.3688
 4659SOL    HW217476  10.077   4.095   4.130  0.1682 -0.7318  1.1115
 4660SOL     OW17477   3.487   2.615   4.982  0.1889 -0.0563  0.1845
 4660SOL    HW117478   3.565   2.624   5.037  0.8899  0.5711 -0.8779
 4660SOL    HW217479   3.479   2.700   4.938 -2.4453  0.7483  1.9720
 4661SOL     OW17480   5.564   1.036   3.554  0.0063  0.1163  0.0704
 4661SOL    HW117481   5.544   1.004   3.642  0.3295  1.7460  0.7658
 4661SOL    HW217482   5.478   1.055   3.516 -0.0845  2.6360  1.3322
 4662SOL     OW17483   5.842   0.280   8.136  0.5799  0.1782  0.2929
 4662SOL    HW117484   5.903   0.207   8.124  2.8528  1.8181  0.9676
 4662SOL    HW217485   5.835   0.290   8.231 -1.0648 -0.1855  0.2301
 4663SOL     OW17486   3.411   3.752   2.962  0.0104 -0.2293 -0.3837
 4663SOL    HW117487   3.413   3.688   2.891  0.1939  0.3975 -0.9544
 4663SOL    HW217488   3.437   3.835   2.921  0.0044  0.1675  0.3886
 4664SOL     OW17489   2.829   8.364   4.405  1.0315 -0.1392  0.1616
 4664SOL    HW117490   2.754   8.336   4.458  0.6827 -0.2529 -0.3863
 4664SOL    HW217491   2.796   8.364   4.315  1.0913  1.8286  0.1021
 4665SOL     OW17492   3.360   1.152   9.241  0.3978 -0.1993 -0.4822
 4665SOL    HW117493   3.406   1.215   9.186  1.0388 -0.1877  0.0604
 4665SOL    HW217494   3.428   1.091   9.269  0.3300  0.4820  1.2814
 4666SOL     OW17495   1.651   2.706   0.118 -0.4315  0.3599  0.2574
 4666SOL    HW117496   1.714   2.650   0.072 -0.9754  0.8806 -1.1979
 4666SOL    HW217497   1.584   2.726   0.052  0.0547  3.2173  0.5059
 4667SOL     OW17498   2.385   1.309   8.743  0.7304  0.1872 -0.2213
 4667SOL    HW117499   2.298   1.272   8.755  0.2412  0.2491 -2.9639
 4667SOL    HW217500   2.444   1.233   8.751  0.4381  0.0952  1.3236
 4668SOL     OW17501   5.261   3.976   6.707  0.1667 -0.1848 -0.1568
 4668SOL    HW117502   5.223   3.917   6.641  0.2949 -0.8078  0.3166
 4668SOL    HW217503   5.236   4.064   6.678  2.0220 -0.2648 -2.2374
 4669SOL     OW17504   7.044   2.338   2.010  0.0262 -0.0999 -0.4873
 4669SOL    HW117505   7.045   2.381   2.096 -1.4383  1.8587 -1.3619
 4669SOL    HW217506   6.967   2.374   1.967  0.5770 -1.2447 -2.5444
 4670SOL     OW17507   2.484   6.492   5.588  0.3181  0.6932 -0.0138
 4670SOL    HW117508   2.568   6.526   5.619 -0.8058  2.0259  1.7873
 4670SOL    HW217509   2.445   6.564   5.539 -1.0855  1.2554  1.8397
 4671SOL     OW17510   0.912   8.490   2.928  0.3488 -0.3277  0.1107
 4671SOL    HW117511   0.920   8.482   2.833  0.0906 -2.4147  0.2132
 4671SOL    HW217512   1.002   8.506   2.958  0.7418 -1.4309 -0.3931
 4672SOL     OW17513   5.635   0.644   5.221  0.3195  0.2541 -0.4984
 4672SOL    HW117514   5.610   0.719   5.275  0.6694  1.1448 -1.5238
 4672SOL    HW217515   5.566   0.638   5.155  0.6397  0.0958 -0.8250
 4673SOL     OW17516   2.292   6.350   1.284  0.4541 -0.0050  0.3703
 4673SOL    HW117517   2.341   6.267   1.278  1.2288  0.5017 -0.7172
 4673SOL    HW217518   2.336   6.408   1.221 -1.5250  0.4865 -0.6451
 4674SOL     OW17519   1.342   3.196   4.867 -0.4289  0.5377  0.1812
 4674SOL    HW117520   1.334   3.263   4.799 -0.4603  1.0791  0.7029
 4674SOL    HW217521   1.355   3.114   4.819 -0.8345  0.8502 -0.4770
 4675SOL     OW17522   6.540  10.222   0.296  0.4535 -0.0170  0.1130
 4675SOL    HW117523   6.539  10.184   0.384 -1.7456  0.1755  0.2213
 4675SOL    HW217524   6.476  10.293   0.299  0.5709  0.2085 -1.5615
 4676SOL     OW17525   7.156   5.099   9.278  0.2962  0.4968  0.0197
 4676SOL    HW117526   7.104   5.123   9.201  0.3679  0.3092 -0.0900
 4676SOL    HW217527   7.098   5.041   9.329  0.5302 -0.0306 -0.2992
 4677SOL     OW17528   1.713   6.125   6.587  0.0028 -0.1190 -0.1924
 4677SOL    HW117529   1.648   6.069   6.631 -0.1232  0.5545  0.5048
 4677SOL    HW217530   1.708   6.209   6.634  0.7669  0.2182 -0.6928
 4678SOL     OW17531   5.588   8.759   0.510  0.2101 -0.1294 -0.6247
 4678SOL    HW117532   5.513   8.706   0.481 -0.4471  0.0115  0.7235
 4678SOL    HW217533   5.652   8.749   0.440 -0.8581 -0.6898 -1.5732
 4679SOL     OW17534   7.022   0.209   7.506 -0.2825  0.4521 -0.2770
 4679SOL    HW117535   7.063   0.167   7.582 -0.4247 -1.1848 -1.0822
 4679SOL    HW217536   7.053   0.159   7.431 -2.1972  0.3991 -1.0782
 4680SOL     OW17537   8.783   7.205   7.608  0.1419 -0.7274  0.5433
 4680SOL    HW117538   8.691   7.186   7.625 -0.2872  1.6597  1.3558
 4680SOL    HW217539   8.801   7.284   7.660  1.2509  1.8106 -3.2575
 4681SOL     OW17540   4.761   2.263   7.211 -0.5432  0.2369  0.6373
 4681SOL    HW117541   4.778   2.354   7.188  1.1114  0.8500  3.8493
 4681SOL    HW217542   4.779   2.214   7.130  1.3986  2.4516 -0.3678
 4682SOL     OW17543   2.281   0.128   5.892  0.4113 -0.4175 -0.2897
 4682SOL    HW117544   2.302   0.071   5.818 -0.0724 -1.6812  0.5082
 4682SOL    HW217545   2.311   0.215   5.865  1.6880 -1.1429 -1.3189
 4683SOL     OW17546   5.256   8.220   3.224 -0.3064  0.0258 -0.0876
 4683SOL    HW117547   5.304   8.147   3.263  0.1010 -0.5836 -1.6573
 4683SOL    HW217548   5.211   8.261   3.298  1.3543 -0.3436  1.1960
 4684SOL     OW17549  10.331   2.920   2.767 -0.5045  0.7470  0.3692
 4684SOL    HW117550  10.378   2.876   2.696 -0.8436 -2.0872  1.7394
 4684SOL    HW217551  10.399   2.959   2.821  0.0628 -0.2563  0.4087
 4685SOL     OW17552   6.048   6.756   4.486  0.4950 -0.2126  0.5340
 4685SOL    HW117553   5.975   6.817   4.494  1.5022  1.1198 -0.2395
 4685SOL    HW217554   6.126   6.807   4.507  1.4207 -1.0752 -0.6221
 4686SOL     OW17555   5.018   3.219   2.025 -0.2668  0.5182 -0.3077
 4686SOL    HW117556   4.990   3.294   1.973 -1.3210 -0.5178 -1.3053
 4686SOL    HW217557   5.032   3.149   1.961 -0.0921 -0.3685  0.6630
 4687SOL     OW17558  10.500   3.250   7.489  0.2435  0.0215  0.3809
 4687SOL    HW117559  10.586   3.234   7.449 -0.1142  2.1545 -1.4115
 4687SOL    HW217560  10.450   3.171   7.469  1.5314 -0.9665  0.8580
 4688SOL     OW17561   6.591   7.265   5.932  0.4810  0.0921 -0.0532
 4688SOL    HW117562   6.626   7.319   6.003  2.7753 -1.6430  0.2127
 4688SOL    HW217563   6.667   7.243   5.878 -0.6809 -1.3771 -1.1700
 4689SOL     OW17564   7.372   6.273   6.537  0.3637  0.9441  0.1408
 4689SOL    HW117565   7.339   6.255   6.449  0.0062 -2.2171  0.7759
 4689SOL    HW217566   7.460   6.237   6.537  0.6573  1.6469  0.8535
 4690SOL     OW17567   5.450   2.573   5.735 -0.2220  0.3677  0.5018
 4690SOL    HW117568   5.452   2.514   5.660  1.3097 -1.7629  2.0915
 4690SOL    HW217569   5.419   2.518   5.807 -0.0283  1.8803  1.7949
 4691SOL     OW17570   8.540   0.526   2.999  0.0029  0.4917 -0.2224
 4691SOL    HW117571   8.634   0.526   3.017  0.1057  0.3469 -0.7399
 4691SOL    HW217572   8.515   0.433   3.005 -0.3112  0.6411  0.9325
 4692SOL     OW17573   6.582   4.968   8.196  0.0770 -0.0670 -0.4129
 4692SOL    HW117574   6.621   5.053   8.219  0.4066 -0.5901  1.0988
 4692SOL    HW217575   6.654   4.920   8.155  0.1020  0.0964 -0.5681
 4693SOL     OW17576   8.469   3.585   5.858 -0.6371  0.0725  0.8063
 4693SOL    HW117577   8.466   3.606   5.951  0.5781 -1.5437  1.2668
 4693SOL    HW217578   8.509   3.498   5.854  0.2654  0.5034 -1.2853
 4694SOL     OW17579   9.823   5.786   0.759 -0.1373 -0.5637 -0.1322
 4694SOL    HW117580   9.849   5.873   0.727 -1.0805 -0.5117 -0.7958
 4694SOL    HW217581   9.799   5.801   0.851  0.6561 -0.3276  0.0499
 4695SOL     OW17582   0.125   7.596   2.380  0.1260  0.2359  0.1406
 4695SOL    HW117583   0.125   7.661   2.451 -0.2768 -1.0655  1.3850
 4695SOL    HW217584   0.218   7.583   2.360  0.2003  1.3570 -0.2894
 4696SOL     OW17585   1.520   8.788  10.980  0.1243  0.0087  0.3418
 4696SOL    HW117586   1.515   8.719  10.914 -1.0559 -1.7775  2.1924
 4696SOL    HW217587   1.434   8.830  10.977  0.6281  1.0515 -0.3367
 4697SOL     OW17588   2.273  10.943   4.756 -0.1943 -0.2998  0.5835
 4697SOL    HW117589   2.284  10.864   4.703 -0.0664 -0.1964  0.4535
 4697SOL    HW217590   2.199  10.990   4.717  0.6254  0.3522 -0.2284
 4698SOL     OW17591   1.528   3.686   5.093  0.0494 -0.5553  0.4001
 4698SOL    HW117592   1.461   3.645   5.148  0.3429 -0.6822  0.6674
 4698SOL    HW217593   1.537   3.774   5.129  1.0608 -1.0008  1.3087
 4699SOL     OW17594   9.065   8.354   1.362  0.0282  0.2104  0.1353
 4699SOL    HW117595   9.071   8.423   1.428  0.1029  0.3318  0.0003
 4699SOL    HW217596   9.002   8.292   1.399  0.7722 -0.1924  0.7534
 4700SOL     OW17597   9.523   1.131   3.990  0.5257 -0.0387  0.4856
 4700SOL    HW117598   9.463   1.137   3.916  0.9701  0.8880  0.1843
 4700SOL    HW217599   9.516   1.040   4.019 -1.9076  0.2961  1.2148
 4701SOL     OW17600  10.391   5.340   6.808 -0.4569  0.2415  0.2922
 4701SOL    HW117601  10.388   5.300   6.894  1.6262  1.4735  1.0226
 4701SOL    HW217602  10.405   5.433   6.825 -0.8646  0.6375 -1.3637
 4702SOL     OW17603   9.543   7.265   4.812  0.2196 -0.0789  0.1065
 4702SOL    HW117604   9.509   7.182   4.780 -0.2138 -0.1931  0.8589
 4702SOL    HW217605   9.564   7.315   4.732 -1.3188 -0.1569 -0.3649
 4703SOL     OW17606   8.606   1.371   3.978 -0.5952 -0.4207  0.2256
 4703SOL    HW117607   8.694   1.406   3.964 -0.2690 -1.0449  0.6204
 4703SOL    HW217608   8.550   1.418   3.917  0.1542 -0.5594 -0.5841
 4704SOL     OW17609   9.248   8.085   5.305 -0.3314  0.4846  0.1139
 4704SOL    HW117610   9.240   8.091   5.400 -1.4197  1.3562 -0.0106
 4704SOL    HW217611   9.337   8.053   5.290  1.2362  3.8511  1.3378
 4705SOL     OW17612   7.157   8.385  10.478 -0.0703 -0.0831  0.2999
 4705SOL    HW117613   7.249   8.405  10.493 -0.4091  0.8209  1.2704
 4705SOL    HW217614   7.116   8.470  10.461 -0.8222 -0.4183  0.3632
 4706SOL     OW17615   2.733   5.816   4.814 -0.0805  0.1912 -0.0935
 4706SOL    HW117616   2.737   5.863   4.731 -1.2851 -0.8055 -0.7449
 4706SOL    HW217617   2.770   5.730   4.795 -0.4651 -0.0820  0.3641
 4707SOL     OW17618   4.523  10.237   5.403  0.0827 -0.3509  0.0899
 4707SOL    HW117619   4.598  10.210   5.457 -0.8069  0.2982  1.7166
 4707SOL    HW217620   4.557  10.307   5.348  0.7841 -0.3685  0.4864
 4708SOL     OW17621   6.368   0.960  10.814  0.3210  0.2921 -0.4218
 4708SOL    HW117622   6.314   0.997  10.745  0.5476  1.0756 -0.1993
 4708SOL    HW217623   6.323   0.983  10.895  1.3714  1.6861 -0.1852
 4709SOL     OW17624   3.349   8.088   2.886 -0.1952  0.5500  0.2033
 4709SOL    HW117625   3.270   8.065   2.837  1.0313  1.2503 -2.2592
 4709SOL    HW217626   3.382   8.004   2.919 -2.1262  0.2874  1.6537
 4710SOL     OW17627   4.178   7.066   2.778 -0.0604 -0.0110  0.6950
 4710SOL    HW117628   4.150   7.150   2.815  1.7749 -0.0935  2.4071
 4710SOL    HW217629   4.141   7.066   2.689 -0.3410  2.4764  0.7336
 4711SOL     OW17630   8.247   9.268   0.773  0.3189 -0.1851 -0.3050
 4711SOL    HW117631   8.330   9.296   0.810  0.1846  0.3199 -0.3902
 4711SOL    HW217632   8.206   9.347   0.739 -0.5859 -0.2812  0.5138
 4712SOL     OW17633   3.811   6.321  10.373 -0.4812  0.1914 -0.2042
 4712SOL    HW117634   3.801   6.362  10.459 -1.7493 -1.8505  0.6990
 4712SOL    HW217635   3.900   6.287  10.372  0.0771  1.5773 -0.3824
 4713SOL     OW17636   3.823   9.872   5.793 -0.0805 -0.3353  0.1194
 4713SOL    HW117637   3.850   9.836   5.878 -0.0330  0.0730  0.2820
 4713SOL    HW217638   3.905   9.890   5.748 -0.0270  1.5200  0.8730
 4714SOL     OW17639  10.579  10.227   9.863  0.0760  0.2444 -0.1960
 4714SOL    HW117640  10.661  10.274   9.846  1.0787 -1.2963  0.1706
 4714SOL    HW217641  10.520  10.294   9.898  1.5661  1.1626  0.7021
 4715SOL     OW17642   1.132   7.090   3.737  0.7347 -0.2886  0.2417
 4715SOL    HW117643   1.112   7.144   3.813 -0.0173 -0.4412  0.1550
 4715SOL    HW217644   1.086   7.132   3.665  1.3522 -0.2101 -0.1151
 4716SOL     OW17645   1.233  10.104   1.128  0.0976 -0.1152  0.0126
 4716SOL    HW117646   1.326  10.090   1.114 -0.0086  0.1551 -1.1085
 4716SOL    HW217647   1.228  10.170   1.197  0.7069 -0.6760  0.6090
 4717SOL     OW17648   5.118   6.185   8.268  0.5052  0.6166  0.3845
 4717SOL    HW117649   5.111   6.268   8.316 -0.8453  1.5742 -1.3146
 4717SOL    HW217650   5.070   6.201   8.187 -0.5494 -2.1327  0.3574
 4718SOL     OW17651   4.673   4.356   7.156 -0.5524 -0.2107 -0.0374
 4718SOL    HW117652   4.624   4.381   7.077  2.6031 -0.1524 -2.1676
 4718SOL    HW217653   4.732   4.430   7.172  2.2798 -2.1530 -0.6933
 4719SOL     OW17654   2.723   3.857   2.555 -0.2489 -0.3770  0.1075
 4719SOL    HW117655   2.684   3.817   2.477  0.4465  0.2755 -0.5910
 4719SOL    HW217656   2.715   3.790   2.622  0.2347 -1.4240 -0.8454
 4720SOL     OW17657  11.001   5.228   7.528 -0.9183 -0.1240  0.5129
 4720SOL    HW117658  10.965   5.240   7.440  0.3731 -0.4925 -0.0801
 4720SOL    HW217659  11.051   5.308   7.545 -1.6193  0.1975  1.1633
 4721SOL     OW17660   4.256   6.380   6.936 -0.4094  0.1025  0.2640
 4721SOL    HW117661   4.268   6.449   6.871 -2.4768 -0.3705 -0.7313
 4721SOL    HW217662   4.189   6.322   6.897 -0.1318 -1.4009  1.8800
 4722SOL     OW17663   6.492   4.610   7.061 -0.6555  0.4979 -0.1655
 4722SOL    HW117664   6.423   4.671   7.035 -0.6720  1.4872  1.9686
 4722SOL    HW217665   6.460   4.571   7.142  0.6222 -0.1651  0.0439
 4723SOL     OW17666   9.947   7.643   0.994  0.2839 -0.0034 -0.2524
 4723SOL    HW117667  10.013   7.713   0.991  1.2303 -0.8361  0.4322
 4723SOL    HW217668   9.915   7.637   0.904 -0.8960  2.2868 -0.0602
 4724SOL     OW17669   4.104   4.353   7.454 -0.9763 -0.3076 -0.5262
 4724SOL    HW117670   4.018   4.391   7.435 -0.7158  1.3715  1.4170
 4724SOL    HW217671   4.111   4.355   7.549  0.5596 -1.9947 -0.5555
 4725SOL     OW17672   3.650   1.460   1.632 -0.0690 -0.0279  0.3521
 4725SOL    HW117673   3.714   1.408   1.681  0.7613  0.4048 -0.2492
 4725SOL    HW217674   3.611   1.398   1.570 -1.8896 -0.8359  2.2142
 4726SOL     OW17675   4.190   5.440   2.798  0.3485  0.3789 -0.3966
 4726SOL    HW117676   4.157   5.429   2.709  0.4430 -0.7089 -0.3115
 4726SOL    HW217677   4.243   5.361   2.814 -2.2228 -1.0969  1.7239
 4727SOL     OW17678   4.865  10.538   0.909  0.0275 -0.0511 -0.3739
 4727SOL    HW117679   4.866  10.632   0.929 -0.5971  0.1013 -1.0612
 4727SOL    HW217680   4.958  10.513   0.910  0.1530  0.4170  0.5115
 4728SOL     OW17681  10.512   8.641   9.256 -0.0268 -0.1448  0.3476
 4728SOL    HW117682  10.469   8.577   9.198 -2.0261  0.4585  1.0717
 4728SOL    HW217683  10.505   8.602   9.343 -0.0294  0.4477  0.6157
 4729SOL     OW17684   4.310   5.215   9.499  0.1429 -0.4699  0.4838
 4729SOL    HW117685   4.339   5.284   9.559 -0.2978 -0.0951  0.2778
 4729SOL    HW217686   4.358   5.137   9.527  1.8425  0.2527 -0.2534
 4730SOL     OW17687   9.318   8.698   7.715 -0.1509 -0.0103  0.1177
 4730SOL    HW117688   9.303   8.760   7.644  2.4139 -0.7019 -1.1523
 4730SOL    HW217689   9.252   8.630   7.704  0.2631 -0.1596 -1.7091
 4731SOL     OW17690   9.217   9.388   6.119  0.0688  0.4544 -0.5154
 4731SOL    HW117691   9.199   9.457   6.183  1.9804 -0.0911  0.7034
 4731SOL    HW217692   9.156   9.318   6.141  1.8245 -0.4251  1.9481
 4732SOL     OW17693   4.891   9.908   4.619  0.2400 -0.2790  0.0843
 4732SOL    HW117694   4.898   9.871   4.707  1.9455 -1.0547 -0.3366
 4732SOL    HW217695   4.922   9.997   4.628  1.4091 -0.6741  0.1004
 4733SOL     OW17696   5.481   7.641   6.322 -0.1303  0.4463  0.0926
 4733SOL    HW117697   5.456   7.555   6.356 -2.8168  1.2605  0.4299
 4733SOL    HW217698   5.540   7.622   6.249 -0.1425 -1.6414  0.5642
 4734SOL     OW17699   2.553   7.840   6.822 -0.1213 -0.1180 -0.2113
 4734SOL    HW117700   2.529   7.829   6.914  0.0167 -0.6683 -0.2389
 4734SOL    HW217701   2.523   7.760   6.780 -2.4668  1.1598 -1.1404
 4735SOL     OW17702   0.887   0.674   2.571  0.0681  0.3842 -0.1434
 4735SOL    HW117703   0.968   0.633   2.542  0.9760  2.3179 -0.5250
 4735SOL    HW217704   0.821   0.605   2.565  1.6135 -1.1497 -0.1106
 4736SOL     OW17705  10.219   5.159   4.670 -0.5362 -0.5385 -0.6334
 4736SOL    HW117706  10.160   5.110   4.612 -1.4448  0.9282 -0.9857
 4736SOL    HW217707  10.246   5.234   4.619 -0.5795  0.2770  0.5066
 4737SOL     OW17708   4.183   8.586   2.073  0.4202 -0.4020  0.5337
 4737SOL    HW117709   4.108   8.551   2.121 -1.0591  1.0890 -0.5492
 4737SOL    HW217710   4.193   8.676   2.106  0.6094 -0.0140 -0.5240
 4738SOL     OW17711   3.199   1.114   3.204  0.5657  0.0559  0.1852
 4738SOL    HW117712   3.126   1.141   3.260  1.0943  0.4072  0.7163
 4738SOL    HW217713   3.178   1.024   3.179 -1.5568  1.0866 -2.1211
 4739SOL     OW17714   4.671   3.708   6.719 -0.0560  0.2820  0.3034
 4739SOL    HW117715   4.581   3.680   6.736 -0.1149  0.8077  0.8725
 4739SOL    HW217716   4.664   3.771   6.647  0.0484 -0.9278 -0.8022
 4740SOL     OW17717   9.841  10.217   8.784  0.1211  0.5587 -0.1639
 4740SOL    HW117718   9.752  10.193   8.807  0.1460  0.6666  0.0466
 4740SOL    HW217719   9.896  10.164   8.843  0.1732  1.3446  0.5108
 4741SOL     OW17720   2.915   7.716   9.213 -0.0699  0.4189 -0.9993
 4741SOL    HW117721   2.909   7.621   9.202 -2.5064  0.4948 -0.8066
 4741SOL    HW217722   2.993   7.741   9.162  1.8641 -1.8489  0.6161
 4742SOL     OW17723   5.545   5.968   2.827 -0.1099  0.2267 -0.2207
 4742SOL    HW117724   5.511   6.057   2.836  0.1376  0.1872  1.2082
 4742SOL    HW217725   5.605   5.957   2.901 -0.6421 -1.3716  0.0035
 4743SOL     OW17726   6.236   4.560  10.119 -0.0806 -0.0831 -0.4351
 4743SOL    HW117727   6.172   4.538  10.187  0.2370 -0.6814 -0.3260
 4743SOL    HW217728   6.306   4.605  10.166 -0.2713  0.2875 -0.5047
 4744SOL     OW17729   8.372   3.234   0.701 -0.3594  0.8005  0.1312
 4744SOL    HW117730   8.346   3.326   0.709 -1.7754  0.5795 -1.2862
 4744SOL    HW217731   8.449   3.236   0.644 -0.4952  1.0992 -0.0477
 4745SOL     OW17732   5.300   1.689   9.781  0.3295 -0.3767 -0.4181
 4745SOL    HW117733   5.244   1.669   9.706 -1.2610  0.3116  0.5291
 4745SOL    HW217734   5.385   1.652   9.759  0.6147  1.7803 -3.5844
 4746SOL     OW17735   1.600   4.968   9.565  0.2847  0.2932 -0.4315
 4746SOL    HW117736   1.662   4.903   9.601 -0.4088 -0.8129 -1.1650
 4746SOL    HW217737   1.653   5.020   9.504  1.0987  1.1494  0.9408
 4747SOL     OW17738   4.408   6.660   0.668 -0.1165  0.0405 -0.0958
 4747SOL    HW117739   4.497   6.657   0.633  0.9224 -0.3866  2.3704
 4747SOL    HW217740   4.381   6.569   0.671 -0.3166  0.1019 -0.0390
 4748SOL     OW17741   7.658   5.185   9.269 -0.2362  0.0709  0.0084
 4748SOL    HW117742   7.566   5.163   9.259 -0.2380  0.2285 -0.3403
 4748SOL    HW217743   7.682   5.227   9.186  0.5489 -1.3894 -0.5426
 4749SOL     OW17744   6.643   2.255   2.150  0.5049 -0.3416 -0.0448
 4749SOL    HW117745   6.582   2.211   2.209  0.5775 -0.5674 -0.1364
 4749SOL    HW217746   6.649   2.197   2.074  0.4201 -0.0574 -0.2687
 4750SOL     OW17747   2.111   4.479   5.378 -0.1245  0.2625  0.7841
 4750SOL    HW117748   2.149   4.392   5.393  1.2628  0.9638  1.5528
 4750SOL    HW217749   2.142   4.504   5.291 -1.3460 -0.3938  0.1344
 4751SOL     OW17750   8.211  10.510   2.573  0.1566  0.1860 -0.2907
 4751SOL    HW117751   8.263  10.471   2.502  0.5092  0.5074 -0.2082
 4751SOL    HW217752   8.128  10.462   2.570  1.0788 -1.5861  0.7210
 4752SOL     OW17753   5.534   0.078   6.932 -0.4736  0.5502 -0.2478
 4752SOL    HW117754   5.469   0.105   6.868  0.2281 -0.7048 -1.5365
 4752SOL    HW217755   5.554   0.158   6.981 -1.8063  1.2973 -0.8697
 4753SOL     OW17756   5.201   5.029   2.021  0.8920 -0.4442  0.5908
 4753SOL    HW117757   5.110   5.011   1.996  1.4904 -1.7742 -0.7776
 4753SOL    HW217758   5.194   5.068   2.108 -1.0050 -0.1676  0.3690
 4754SOL     OW17759   0.176   1.863   6.362  0.3039 -0.2590  0.3904
 4754SOL    HW117760   0.096   1.837   6.407  0.7079 -0.9734  0.7093
 4754SOL    HW217761   0.232   1.899   6.430  0.4700 -0.2689  0.2610
 4755SOL     OW17762   0.542   5.382  10.535  0.3716  0.5607  0.3415
 4755SOL    HW117763   0.496   5.373  10.618  0.1354  0.4819  0.2033
 4755SOL    HW217764   0.555   5.293  10.504  1.2759  0.5474  0.7362
 4756SOL     OW17765   3.035   2.378   1.187  0.0316 -0.1650  0.1243
 4756SOL    HW117766   3.115   2.359   1.236 -0.9913  0.2332  2.0224
 4756SOL    HW217767   3.055   2.459   1.140  1.2826 -0.9563 -0.8007
 4757SOL     OW17768   9.695   4.375  10.951 -0.6136 -0.2226 -0.6985
 4757SOL    HW117769   9.730   4.309  11.010  0.2589 -0.4244 -1.4096
 4757SOL    HW217770   9.762   4.383  10.882 -1.9042 -0.5080 -2.0347
 4758SOL     OW17771   7.386   5.510   4.742  0.0061  0.0437 -0.2510
 4758SOL    HW117772   7.429   5.471   4.819  1.6733 -0.2083 -1.2630
 4758SOL    HW217773   7.459   5.538   4.686 -1.1789  0.4280 -1.6353
 4759SOL     OW17774   9.807   0.262   4.429  0.0097  0.0543 -0.4689
 4759SOL    HW117775   9.843   0.217   4.505 -1.0199  0.5621  0.3379
 4759SOL    HW217776   9.720   0.290   4.456 -0.4329  0.1321 -1.8832
 4760SOL     OW17777  10.647   6.831  10.160 -0.4723 -0.7154  0.1821
 4760SOL    HW117778  10.586   6.787  10.101 -0.6969 -0.1087 -0.0483
 4760SOL    HW217779  10.681   6.904  10.109 -0.9598  0.0492  0.9199
 4761SOL     OW17780   6.122   6.593   7.311 -0.0486  0.0531  0.1247
 4761SOL    HW117781   6.089   6.593   7.221  2.2880  0.1595 -0.7882
 4761SOL    HW217782   6.180   6.669   7.315  0.8638 -0.6846  1.3579
 4762SOL     OW17783   6.325   2.744   9.458  0.2101  0.0798 -0.0593
 4762SOL    HW117784   6.343   2.721   9.367  0.4288  0.7120 -0.1819
 4762SOL    HW217785   6.267   2.675   9.490  0.7870 -0.5786 -0.4338
 4763SOL     OW17786   2.762   8.539   0.405 -0.1249  0.7255  0.6556
 4763SOL    HW117787   2.754   8.444   0.413 -1.6420  0.8042  0.3608
 4763SOL    HW217788   2.817   8.552   0.328 -1.0586  0.0644 -0.1639
 4764SOL     OW17789   6.120  10.672   2.185  0.4802 -0.0705  0.0752
 4764SOL    HW117790   6.028  10.686   2.162  0.5912  0.0523 -0.2916
 4764SOL    HW217791   6.140  10.584   2.152  0.5645 -0.0003 -0.0593
 4765SOL     OW17792   6.082  10.236   7.838  0.2906  0.4773 -0.0682
 4765SOL    HW117793   6.009  10.262   7.895 -0.0383  0.4484 -0.4766
 4765SOL    HW217794   6.064  10.145   7.816  1.6272 -0.2529  1.6437
 4766SOL     OW17795   2.595   8.780   8.148  0.2851  0.4132 -0.4586
 4766SOL    HW117796   2.524   8.721   8.124  0.5630  0.3108 -1.0529
 4766SOL    HW217797   2.620   8.753   8.237  0.3934 -0.3570 -0.7106
 4767SOL     OW17798  10.681   1.849   1.491  0.7872 -0.4008  0.3591
 4767SOL    HW117799  10.586   1.846   1.482  0.8955  1.0911 -2.2035
 4767SOL    HW217800  10.713   1.783   1.430  1.4110 -0.3186  0.5894
 4768SOL     OW17801   2.116   9.116   9.893  0.7203 -0.0107  0.3916
 4768SOL    HW117802   2.022   9.098   9.893  0.5671  0.5015 -1.7613
 4768SOL    HW217803   2.143   9.103   9.984 -1.5483  0.4947  1.2096
 4769SOL     OW17804   6.614   9.420   7.791 -0.0761 -0.2474  0.4999
 4769SOL    HW117805   6.667   9.348   7.827 -0.9769 -0.4157  1.5336
 4769SOL    HW217806   6.591   9.473   7.868 -1.5329 -0.2656  0.0866
 4770SOL     OW17807   4.968   2.919   9.082  0.1417 -0.4978  0.4406
 4770SOL    HW117808   4.878   2.933   9.111  0.0673 -1.4266  0.7112
 4770SOL    HW217809   4.998   3.004   9.052 -0.8088 -0.1669  0.4134
 4771SOL     OW17810   3.954   5.080   4.482 -0.1197 -0.1288  0.3520
 4771SOL    HW117811   3.898   5.041   4.414 -0.0332  1.5243 -0.7236
 4771SOL    HW217812   3.922   5.170   4.491  1.5740  0.4886  0.5893
 4772SOL     OW17813   3.937   3.977   8.754 -0.0011  0.2741  0.0613
 4772SOL    HW117814   3.974   4.054   8.711  0.1871 -0.5678 -1.3384
 4772SOL    HW217815   4.009   3.940   8.805  0.1465  0.5198  0.0298
 4773SOL     OW17816   4.266   7.767   3.512 -0.2183  0.4593 -0.3289
 4773SOL    HW117817   4.214   7.847   3.508  1.2923  1.4535 -1.6448
 4773SOL    HW217818   4.333   7.785   3.579 -0.5643 -0.1756  0.2016
 4774SOL     OW17819   1.278   2.225   5.553 -0.4333  0.0625  0.8460
 4774SOL    HW117820   1.272   2.293   5.487  0.2636 -0.2246  0.4742
 4774SOL    HW217821   1.220   2.155   5.521  0.7676 -0.5547 -0.0722
 4775SOL     OW17822   9.078   5.265   7.850  0.1928  0.2909 -0.1471
 4775SOL    HW117823   9.147   5.317   7.891  0.2584  0.2111 -0.1566
 4775SOL    HW217824   9.114   5.177   7.845  0.6572  0.5332 -1.4683
 4776SOL     OW17825   3.419   7.382   0.211 -0.1007 -0.0891  0.0922
 4776SOL    HW117826   3.447   7.458   0.161  2.0056  0.1745  1.5401
 4776SOL    HW217827   3.369   7.418   0.284  0.2686 -0.1449  0.3746
 4777SOL     OW17828   6.691   4.117   4.113 -0.1537 -0.2909  0.3439
 4777SOL    HW117829   6.616   4.155   4.159 -1.1502  0.1723 -1.5303
 4777SOL    HW217830   6.706   4.033   4.156 -0.7627  0.2833  1.7378
 4778SOL     OW17831   2.873   9.221   5.340 -0.2389 -0.0557 -0.2018
 4778SOL    HW117832   2.964   9.228   5.312 -0.4916  1.2042 -0.7650
 4778SOL    HW217833   2.830   9.298   5.302 -1.3487 -0.1584  0.7982
 4779SOL     OW17834   8.093   8.644   1.872 -0.4754 -0.7028 -0.3630
 4779SOL    HW117835   8.146   8.600   1.805  0.9477  2.2342 -1.3201
 4779SOL    HW217836   8.031   8.697   1.822 -1.2330 -0.5484  0.7131
 4780SOL     OW17837   9.890   3.573   4.775  0.0172  0.4766 -0.0628
 4780SOL    HW117838   9.885   3.607   4.865  0.4075  1.8709 -0.5432
 4780SOL    HW217839   9.880   3.478   4.785  1.8800  0.3974  1.6397
 4781SOL     OW17840   2.402   1.272  10.736  0.0474 -0.2601 -0.3648
 4781SOL    HW117841   2.331   1.208  10.732 -1.1829  1.1090 -1.3820
 4781SOL    HW217842   2.379   1.328  10.810  0.9313 -0.7769  0.3051
 4782SOL     OW17843   8.584   6.985   5.596 -0.1858 -0.3029  0.2213
 4782SOL    HW117844   8.521   6.921   5.564 -0.8023 -0.1030  1.0034
 4782SOL    HW217845   8.605   7.040   5.520 -0.4957 -0.7436 -0.1815
 4783SOL     OW17846   8.175   5.119   5.601 -0.2107 -0.6704  0.5359
 4783SOL    HW117847   8.100   5.178   5.602 -0.0697 -0.4357  3.1613
 4783SOL    HW217848   8.139   5.034   5.629  0.2804 -0.8405  0.6632
 4784SOL     OW17849   5.626   4.563   3.584 -0.2841 -0.2416 -0.3882
 4784SOL    HW117850   5.579   4.486   3.553 -0.2546 -0.0755 -0.8654
 4784SOL    HW217851   5.593   4.635   3.530  0.7440 -0.1727 -0.9681
 4785SOL     OW17852   1.233   5.199   6.686 -0.2019 -0.0360  0.0917
 4785SOL    HW117853   1.272   5.113   6.672 -1.3938 -0.9024  1.7479
 4785SOL    HW217854   1.256   5.221   6.776 -2.9987 -0.3556  0.9632
 4786SOL     OW17855   3.372   9.869   6.765  0.1808 -0.3935 -0.1702
 4786SOL    HW117856   3.339   9.940   6.711  0.6456 -0.5381 -0.6568
 4786SOL    HW217857   3.326   9.791   6.733  0.4105 -0.4698 -0.3137
 4787SOL     OW17858   1.396   1.262   5.080  0.1334  0.3301  0.6504
 4787SOL    HW117859   1.311   1.292   5.112  0.5927  2.2090  0.2372
 4787SOL    HW217860   1.375   1.194   5.016 -1.0855  0.9546  0.3593
 4788SOL     OW17861   3.667   7.494   3.084 -0.0882 -0.3123 -0.3070
 4788SOL    HW117862   3.575   7.485   3.111  0.5232 -0.8760  1.8098
 4788SOL    HW217863   3.701   7.405   3.087  0.8669  0.0584  0.3466
 4789SOL     OW17864   5.432   4.614   4.795  0.0832  0.5446  0.0245
 4789SOL    HW117865   5.449   4.527   4.758  0.7121  0.5058  0.4013
 4789SOL    HW217866   5.351   4.604   4.844 -0.8449  0.6236 -1.4359
 4790SOL     OW17867   8.258   2.864   0.190 -0.3551  0.2899  0.1465
 4790SOL    HW117868   8.291   2.892   0.275  0.9556 -0.1055 -0.2094
 4790SOL    HW217869   8.197   2.933   0.164 -1.0261  0.2645  1.5292
 4791SOL     OW17870   8.923   0.913   0.284  0.2389 -0.4180  0.0780
 4791SOL    HW117871   8.834   0.902   0.250 -0.0602  0.2087  0.6363
 4791SOL    HW217872   8.979   0.897   0.209 -0.4009  0.7256 -0.6754
 4792SOL     OW17873   3.725   3.366  10.651 -0.2757  0.1525  0.5655
 4792SOL    HW117874   3.638   3.385  10.687 -0.3434  1.1339 -0.0975
 4792SOL    HW217875   3.736   3.272  10.666  0.0294  0.5739  3.8193
 4793SOL     OW17876   1.217   0.762   3.809 -0.3572  0.3536 -0.1240
 4793SOL    HW117877   1.181   0.800   3.729  1.4632  3.3656  0.3570
 4793SOL    HW217878   1.241   0.837   3.863 -0.5396 -1.5626  2.8506
 4794SOL     OW17879   7.514   7.058   8.507  0.1758  0.0044 -0.1054
 4794SOL    HW117880   7.605   7.031   8.519  0.6480  1.3601 -0.4453
 4794SOL    HW217881   7.501   7.057   8.412 -1.3064 -3.6293 -0.0091
 4795SOL     OW17882   2.969   8.204   0.717  0.2235 -0.1382 -0.5814
 4795SOL    HW117883   2.951   8.187   0.809  0.9303  0.4612 -0.3266
 4795SOL    HW217884   2.939   8.294   0.703  1.6490  0.3777 -0.4985
 4796SOL     OW17885   0.525   5.315   1.103 -0.3379  0.0180 -0.2493
 4796SOL    HW117886   0.503   5.221   1.103 -0.2423 -0.0107  0.3136
 4796SOL    HW217887   0.444   5.359   1.078 -0.3797 -0.2191 -0.5288
 4797SOL     OW17888   1.058   4.689   3.694  0.3308  0.2328  0.7421
 4797SOL    HW117889   1.014   4.665   3.775 -0.3105 -0.1987  0.2717
 4797SOL    HW217890   1.017   4.772   3.668 -0.4162 -0.3016  0.1646
 4798SOL     OW17891   5.553   9.139   7.219 -0.5649  0.4333 -0.0485
 4798SOL    HW117892   5.479   9.172   7.168  0.8211  2.1836 -1.0119
 4798SOL    HW217893   5.518   9.130   7.308 -1.7172  2.0378 -0.3019
 4799SOL     OW17894   4.235   0.572   8.048 -0.2776 -0.2979  0.1437
 4799SOL    HW117895   4.149   0.584   8.088 -0.6808 -1.6247 -0.2784
 4799SOL    HW217896   4.286   0.647   8.080 -1.4259  0.2458  0.8016
 4800SOL     OW17897   7.976   4.631   7.762 -0.1874 -0.5023  0.6333
 4800SOL    HW117898   8.033   4.655   7.835 -0.9343 -0.9295  1.3759
 4800SOL    HW217899   7.990   4.700   7.697  1.2092 -0.6290  0.7646
 4801SOL     OW17900   3.080   3.048   9.838  0.3293  0.6065 -0.4511
 4801SOL    HW117901   2.992   3.025   9.807  0.2839  0.4533 -0.2103
 4801SOL    HW217902   3.139   3.006   9.776  0.4049 -3.7583  2.1311
 4802SOL     OW17903   4.480   0.382   6.665  0.2343 -0.1350 -0.0436
 4802SOL    HW117904   4.569   0.394   6.700 -0.9515 -1.1729  3.8061
 4802SOL    HW217905   4.425   0.436   6.721 -1.6831  0.1583 -2.0803
 4803SOL     OW17906   1.864   7.181  10.112 -0.2667 -0.1975  0.3363
 4803SOL    HW117907   1.933   7.238  10.145  0.5807  0.1430 -1.8506
 4803SOL    HW217908   1.907   7.125  10.047 -1.2505 -2.7761  1.7393
 4804SOL     OW17909   8.157   1.594   2.772 -0.2420  0.3392  0.5418
 4804SOL    HW117910   8.221   1.662   2.795  0.1212  0.1116  0.2069
 4804SOL    HW217911   8.183   1.519   2.826  1.1717 -0.5028 -1.2114
 4805SOL     OW17912   3.036   4.866   9.797 -0.0260 -0.4503 -0.2077
 4805SOL    HW117913   2.985   4.914   9.732 -1.6527 -0.9844  0.6264
 4805SOL    HW217914   3.066   4.788   9.751 -0.0209 -0.1678 -0.6911
 4806SOL     OW17915   6.816   8.680   2.506  0.3657 -0.4982 -0.1324
 4806SOL    HW117916   6.908   8.653   2.517  0.5049  0.7977  3.3143
 4806SOL    HW217917   6.821   8.768   2.470  0.3420 -1.0818 -1.6290
 4807SOL     OW17918   7.611   6.611   0.186  0.4944  0.2844 -0.2550
 4807SOL    HW117919   7.568   6.634   0.103  1.1485  0.4213 -0.5670
 4807SOL    HW217920   7.598   6.688   0.242 -1.6123 -0.5496  0.4681
 4808SOL     OW17921   0.533   8.746   4.260 -0.2556 -0.0785  0.2254
 4808SOL    HW117922   0.482   8.674   4.297  1.8631 -1.4294  0.6743
 4808SOL    HW217923   0.572   8.789   4.335 -0.3173  0.6340 -0.1411
 4809SOL     OW17924   5.687   8.839   0.777  0.2694 -0.6570  0.0697
 4809SOL    HW117925   5.622   8.837   0.706  0.0483  1.6006  0.1134
 4809SOL    HW217926   5.765   8.877   0.736  1.0632 -1.8922  0.4008
 4810SOL     OW17927   9.138   7.961   2.380  0.5162  0.3116  0.0168
 4810SOL    HW117928   9.187   7.913   2.447  0.2772 -0.5523 -0.4250
 4810SOL    HW217929   9.064   7.904   2.358  0.4940  0.6663 -0.8541
 4811SOL     OW17930   7.559  10.732   8.393  0.0657 -0.7495 -0.6339
 4811SOL    HW117931   7.570  10.748   8.299  1.1142 -1.1024 -0.5857
 4811SOL    HW217932   7.625  10.666   8.414 -1.4951 -2.2015 -0.0472
 4812SOL     OW17933  10.302   7.304   3.975 -0.3599 -0.0826 -0.6293
 4812SOL    HW117934  10.346   7.262   4.049 -1.5422  0.9452  0.7242
 4812SOL    HW217935  10.364   7.369   3.943 -0.2986  0.3338  0.2983
 4813SOL     OW17936   7.610   9.030  10.471  0.0637 -0.4364  0.3236
 4813SOL    HW117937   7.555   9.106  10.488 -0.7364 -0.8565 -0.3056
 4813SOL    HW217938   7.600   9.013  10.377  1.1936 -0.5893  0.2089
 4814SOL     OW17939   1.563  10.873   5.112 -0.6244  0.2771  0.6579
 4814SOL    HW117940   1.555  10.870   5.017 -0.0148 -1.8418  0.6152
 4814SOL    HW217941   1.631  10.939   5.128  1.6026 -1.5574 -0.6342
 4815SOL     OW17942   0.303   0.577   8.656  0.3370 -0.2918 -0.0653
 4815SOL    HW117943   0.256   0.493   8.659  0.6900 -0.4642  1.6289
 4815SOL    HW217944   0.239   0.638   8.620  0.9811 -1.7718 -4.3267
 4816SOL     OW17945   0.331   6.789   8.006  0.0869 -0.2565 -0.1167
 4816SOL    HW117946   0.319   6.848   7.931 -0.3427  1.1359  0.9894
 4816SOL    HW217947   0.425   6.777   8.012  0.1312 -0.3718 -0.8536
 4817SOL     OW17948   1.891   1.770   9.814 -0.6666 -0.1016  0.1783
 4817SOL    HW117949   1.908   1.797   9.724  2.4215  0.1224  0.7198
 4817SOL    HW217950   1.918   1.845   9.867 -1.8764 -0.4471  1.3480
 4818SOL     OW17951   9.232   6.983   1.001  0.6361 -0.1383 -0.1373
 4818SOL    HW117952   9.243   7.030   1.083  0.1745 -1.1307  0.5082
 4818SOL    HW217953   9.137   6.977   0.989  0.6697  1.0457 -1.3861
 4819SOL     OW17954   0.275   6.952   4.608 -0.0995 -0.3997 -0.4776
 4819SOL    HW117955   0.296   7.044   4.621 -0.1118 -0.2522 -1.4256
 4819SOL    HW217956   0.360   6.908   4.603 -0.0607 -0.2630 -1.1624
 4820SOL     OW17957   7.169   4.576   4.591  0.2118  0.0862  0.1119
 4820SOL    HW117958   7.157   4.510   4.658 -3.0016  0.7288  0.3290
 4820SOL    HW217959   7.139   4.534   4.510  1.8318  0.0821 -0.5264
 4821SOL     OW17960   3.210  10.466   4.444  0.0516  0.1725  0.3962
 4821SOL    HW117961   3.199  10.420   4.527 -0.7241  0.8928  0.6964
 4821SOL    HW217962   3.160  10.413   4.381  0.4674 -0.2553  0.4167
 4822SOL     OW17963   1.393   5.406   8.487  0.2884 -0.5265  0.1006
 4822SOL    HW117964   1.448   5.347   8.539 -0.5463 -1.7689 -0.3677
 4822SOL    HW217965   1.318   5.425   8.544  1.2372  1.3132  0.8093
 4823SOL     OW17966   7.431   7.307   1.805 -0.0553  0.6442 -0.7720
 4823SOL    HW117967   7.373   7.282   1.877  0.2200 -0.7663 -1.0111
 4823SOL    HW217968   7.373   7.319   1.730 -0.1017 -0.2624 -0.8866
 4824SOL     OW17969  10.237   8.467   2.422  0.5882 -0.2540 -0.7814
 4824SOL    HW117970  10.199   8.555   2.429  1.8661  0.2364  0.5856
 4824SOL    HW217971  10.162   8.409   2.410 -0.3866  0.8791 -0.3591
 4825SOL     OW17972   1.088   2.796  10.804  1.0925 -0.1629 -0.0359
 4825SOL    HW117973   1.025   2.864  10.826 -1.6102 -2.4418 -0.1348
 4825SOL    HW217974   1.059   2.763  10.718  2.2601 -1.4376  0.0166
 4826SOL     OW17975   2.435   4.030   9.596 -0.6224 -0.0605  0.1499
 4826SOL    HW117976   2.362   4.089   9.578  0.0192  0.3327 -1.3429
 4826SOL    HW217977   2.409   3.946   9.559  0.3896  0.5570 -2.1517
 4827SOL     OW17978  10.716   6.169  10.044 -0.4895  0.5667  0.6813
 4827SOL    HW117979  10.681   6.084  10.019  0.5518  0.3576 -0.1285
 4827SOL    HW217980  10.649   6.206  10.103 -0.3229 -1.3793  2.1898
 4828SOL     OW17981   5.859   7.890   0.536 -0.5428  0.2615 -0.5007
 4828SOL    HW117982   5.870   7.797   0.555  0.8001  0.4067 -0.4544
 4828SOL    HW217983   5.904   7.903   0.452  0.8485  1.1779  0.3466
 4829SOL     OW17984   1.287   5.968  10.003  0.0460 -0.8779 -0.6950
 4829SOL    HW117985   1.338   5.984  10.082  0.8592 -2.3628 -0.8934
 4829SOL    HW217986   1.250   5.881  10.015 -1.1446 -0.4729 -1.2690
 4830SOL     OW17987   4.983   4.152  10.051 -0.5664 -0.3427  0.0462
 4830SOL    HW117988   4.906   4.166  10.106 -0.5025  1.0598 -0.1965
 4830SOL    HW217989   5.023   4.072  10.085 -0.9304  0.1029  1.5890
 4831SOL     OW17990   4.433   8.864   4.603  0.1415 -0.5835 -0.6436
 4831SOL    HW117991   4.439   8.769   4.610 -0.8348 -0.5753  0.8532
 4831SOL    HW217992   4.407   8.893   4.691 -1.8647  0.8518 -1.6211
 4832SOL     OW17993   5.906   3.688   5.890  0.1769 -0.0625  0.6569
 4832SOL    HW117994   5.982   3.679   5.948  0.2726  1.3939  0.8028
 4832SOL    HW217995   5.860   3.765   5.924 -0.3643  0.1568 -0.5380
 4833SOL     OW17996   1.362   0.829  10.015  0.0702  0.0502  0.2246
 4833SOL    HW117997   1.290   0.814  10.076  0.0379 -1.0326 -0.0497
 4833SOL    HW217998   1.320   0.835   9.929  0.3662 -1.9357 -0.1169
 4834SOL     OW17999   2.362   6.707   5.498  0.2854  0.0376  0.5924
 4834SOL    HW118000   2.359   6.803   5.500 -1.4047  0.0065  0.4171
 4834SOL    HW218001   2.324   6.683   5.414  0.2539 -0.8150  0.8427
 4835SOL     OW18002   8.280   1.018  10.517  0.6314 -0.3015 -0.1186
 4835SOL    HW118003   8.338   1.072  10.463  1.1613 -1.5621 -0.8481
 4835SOL    HW218004   8.192   1.044  10.490  0.8172 -2.1927 -3.0842
 4836SOL     OW18005   8.236  10.982  10.668 -0.6203 -0.0502 -0.2024
 4836SOL    HW118006   8.240  11.000  10.762 -0.0533  0.7651 -0.3768
 4836SOL    HW218007   8.267  11.062  10.627 -2.0445  0.0493 -1.1320
 4837SOL     OW18008   1.849   6.606   0.007 -0.6213  0.0667  0.3366
 4837SOL    HW118009   1.850   6.600   0.102 -0.2427 -2.1585  0.2369
 4837SOL    HW218010   1.907   6.536  -0.023 -1.0458  0.4470 -1.5588
 4838SOL     OW18011   1.939   9.821   0.519 -0.4585 -0.6118  0.0880
 4838SOL    HW118012   1.928   9.861   0.433  0.0446  0.5968  0.5501
 4838SOL    HW218013   1.865   9.854   0.570  0.7773  1.0909  0.9214
 4839SOL     OW18014   6.222   4.443   5.484  0.3633  0.3081 -0.1326
 4839SOL    HW118015   6.287   4.471   5.549 -0.0982 -0.1936  0.5661
 4839SOL    HW218016   6.261   4.464   5.400  1.3435  0.2073  0.2843
 4840SOL     OW18017   1.764   7.830   3.252 -0.4397  0.1185 -0.1866
 4840SOL    HW118018   1.705   7.777   3.304 -0.6974  0.6638  0.0770
 4840SOL    HW218019   1.720   7.913   3.241 -0.1713  0.1856 -0.8603
 4841SOL     OW18020   5.376   2.417   0.530 -0.1119 -0.0173 -0.2391
 4841SOL    HW118021   5.334   2.335   0.555 -0.3146  0.4433  1.0064
 4841SOL    HW218022   5.384   2.466   0.612  2.6580  0.0204 -0.4267
 4842SOL     OW18023   6.210   1.997   2.657  0.2523  0.5975  0.1955
 4842SOL    HW118024   6.181   1.945   2.732  0.6351 -0.4411 -0.3502
 4842SOL    HW218025   6.172   2.084   2.671 -1.4244 -0.1562  0.5181
 4843SOL     OW18026   9.026   5.377   0.525 -0.3241  0.3191  0.2621
 4843SOL    HW118027   9.057   5.305   0.579  0.0461 -0.0410 -0.4135
 4843SOL    HW218028   9.084   5.450   0.548 -0.2868  0.2229  0.4824
 4844SOL     OW18029   9.454   3.825   9.451 -0.1016  0.0554 -0.3346
 4844SOL    HW118030   9.478   3.817   9.544  2.3038  3.5831 -0.4219
 4844SOL    HW218031   9.520   3.773   9.405  0.3928  0.4743 -0.1168
 4845SOL     OW18032   8.671   3.708   8.430 -0.1909 -0.1271 -0.0526
 4845SOL    HW118033   8.685   3.751   8.345  0.6505  0.8136  0.5415
 4845SOL    HW218034   8.758   3.676   8.455 -0.4915 -0.6667  0.3203
 4846SOL     OW18035   0.837   2.727   0.066 -0.1661  0.4424  0.2496
 4846SOL    HW118036   0.904   2.662   0.087  0.9899  0.4864 -2.7876
 4846SOL    HW218037   0.878   2.811   0.087  0.4490  0.4259 -0.8262
 4847SOL     OW18038   8.086   8.976   2.735 -0.2419 -0.4734  0.1605
 4847SOL    HW118039   8.072   9.067   2.759 -0.1172 -0.3285 -0.3178
 4847SOL    HW218040   7.999   8.936   2.743 -0.5956  0.0190 -1.0332
 4848SOL     OW18041   7.206   9.325   9.648 -0.2773 -0.8389 -0.2044
 4848SOL    HW118042   7.169   9.317   9.560 -1.6775 -2.1742  0.4540
 4848SOL    HW218043   7.150   9.388   9.693 -1.0731 -1.9367  0.4146
 4849SOL     OW18044   8.839   3.046   6.582 -0.0950  0.1953  0.3015
 4849SOL    HW118045   8.909   3.108   6.603  0.2128 -0.3123  0.7963
 4849SOL    HW218046   8.884   2.964   6.563 -0.3302  0.6656 -2.7209
 4850SOL     OW18047   8.559  10.700   8.127 -0.1493  0.4944  0.0188
 4850SOL    HW118048   8.558  10.747   8.044 -0.3610 -0.2380 -0.4008
 4850SOL    HW218049   8.605  10.618   8.108 -1.3643 -0.2823  0.2673
 4851SOL     OW18050  10.928   0.729   2.933 -0.1118  0.6442  0.0430
 4851SOL    HW118051  10.846   0.701   2.892 -0.2543  0.2010  0.6220
 4851SOL    HW218052  10.983   0.755   2.859 -0.9458  1.4388 -0.3266
 4852SOL     OW18053   8.607   5.500   4.544  0.0945  0.0299 -0.9618
 4852SOL    HW118054   8.596   5.517   4.638 -0.7315 -0.8319 -0.8905
 4852SOL    HW218055   8.565   5.575   4.501  1.5289  1.0473 -0.6670
 4853SOL     OW18056   1.954   9.098   8.435  0.2026 -0.1702  0.2087
 4853SOL    HW118057   1.964   9.134   8.523  0.0733 -0.9670  0.5626
 4853SOL    HW218058   1.997   9.012   8.440 -1.5700 -1.1211  0.0868
 4854SOL     OW18059   9.860   4.158   6.805 -0.4554  0.1394 -1.0791
 4854SOL    HW118060   9.868   4.253   6.816  1.9113 -0.1786  1.0098
 4854SOL    HW218061   9.780   4.135   6.851 -1.3037  1.1371 -2.0030
 4855SOL     OW18062   3.254   6.612   5.907 -0.6849  0.2838 -0.4154
 4855SOL    HW118063   3.186   6.649   5.964  0.1171  0.2769  0.5803
 4855SOL    HW218064   3.225   6.522   5.890  0.0849 -0.4426  1.7786
 4856SOL     OW18065   8.545  10.835   1.610  0.2191 -0.3276 -0.3194
 4856SOL    HW118066   8.553  10.784   1.529  3.0543 -0.8060  0.1775
 4856SOL    HW218067   8.523  10.770   1.677 -2.7371  0.1465 -0.6731
 4857SOL     OW18068   1.949   2.774   2.590 -0.2085  0.0894  0.1462
 4857SOL    HW118069   2.004   2.826   2.647  0.3938 -1.5368  1.1105
 4857SOL    HW218070   1.867   2.763   2.638 -0.7593  1.0599 -0.5405
 4858SOL     OW18071  10.261  10.413   0.706  0.3315 -0.0594 -0.3904
 4858SOL    HW118072  10.319  10.480   0.670 -0.9124  1.1960 -0.1286
 4858SOL    HW218073  10.290  10.403   0.797  0.2720  0.3911 -0.3233
 4859SOL     OW18074  10.306   1.744   3.307 -0.1828  0.8114 -0.1819
 4859SOL    HW118075  10.285   1.835   3.290 -2.5798  0.5780  1.1635
 4859SOL    HW218076  10.256   1.721   3.385  0.2157 -1.7076 -0.5626
 4860SOL     OW18077   7.141   5.959   8.522  0.0643 -0.3102 -0.6332
 4860SOL    HW118078   7.223   6.009   8.524  0.3139 -0.6440  2.0399
 4860SOL    HW218079   7.072   6.026   8.527  0.3552 -0.0728  1.2594
 4861SOL     OW18080   7.921   1.466   4.290  0.3604 -0.4243 -0.3898
 4861SOL    HW118081   7.998   1.427   4.249 -0.0225 -0.4447 -1.0969
 4861SOL    HW218082   7.849   1.444   4.231 -0.0042  0.5632 -0.3159
 4862SOL     OW18083  10.864   0.522   0.232 -0.2898 -0.0255  0.4407
 4862SOL    HW118084  10.953   0.543   0.201 -0.4150  2.7972  1.6215
 4862SOL    HW218085  10.871   0.434   0.268  1.6103 -0.5040 -0.9299
 4863SOL     OW18086   0.327   7.062   7.125  0.5108 -0.0378  0.1411
 4863SOL    HW118087   0.346   6.976   7.162 -1.3368  0.1814  1.7369
 4863SOL    HW218088   0.281   7.109   7.195  0.1729  1.7227 -1.1974
 4864SOL     OW18089   6.681   0.680   8.661  0.1100 -0.0433  0.7902
 4864SOL    HW118090   6.761   0.681   8.714 -0.3197 -2.5373  1.6309
 4864SOL    HW218091   6.646   0.592   8.673 -3.0227  1.0724  0.8131
 4865SOL     OW18092   0.072   0.714   4.663  0.3171  0.0461  0.0790
 4865SOL    HW118093   0.054   0.658   4.587 -2.2993 -0.6896  1.1345
 4865SOL    HW218094   0.132   0.663   4.717 -1.7612 -1.7410  0.8625
 4866SOL     OW18095   5.399   8.213   5.094  0.5690 -0.3332  0.4812
 4866SOL    HW118096   5.328   8.238   5.035  1.2900  0.0493 -0.2568
 4866SOL    HW218097   5.417   8.122   5.072  0.4633 -0.3615  0.5112
 4867SOL     OW18098   4.339   0.397   8.949  0.1540 -0.1845  0.7966
 4867SOL    HW118099   4.324   0.404   8.854  1.2898 -0.4370  0.5842
 4867SOL    HW218100   4.304   0.311   8.972  0.3249 -0.3295  0.5174
 4868SOL     OW18101   6.127   3.438   8.975 -0.6965  0.1313  0.4852
 4868SOL    HW118102   6.111   3.491   8.897 -0.7599  1.0678  1.1161
 4868SOL    HW218103   6.049   3.382   8.982 -0.0699 -0.9532 -0.8821
 4869SOL     OW18104   6.534   5.434   8.895  0.3910 -0.5574 -0.1854
 4869SOL    HW118105   6.533   5.518   8.848 -1.4333 -1.4396 -1.9096
 4869SOL    HW218106   6.503   5.455   8.983 -1.2685  0.4593 -0.9572
 4870SOL     OW18107   1.418   1.773   2.307 -0.4578  0.0988  0.2137
 4870SOL    HW118108   1.342   1.721   2.282 -0.4466 -0.2325  0.8460
 4870SOL    HW218109   1.387   1.863   2.308 -0.8366 -0.0327  0.4418
 4871SOL     OW18110   9.374  10.030   2.003 -0.2829  0.6861 -0.2064
 4871SOL    HW118111   9.366  10.071   1.917 -0.3872  1.6719  0.2581
 4871SOL    HW218112   9.344  10.097   2.065  1.8652  0.8152  0.7939
 4872SOL     OW18113   0.176  10.484   9.213  0.3235 -0.4721 -0.3017
 4872SOL    HW118114   0.095  10.533   9.221  0.0512 -1.0863  1.0755
 4872SOL    HW218115   0.200  10.491   9.121  0.5241  2.5467 -0.1177
 4873SOL     OW18116   4.861   8.544   7.367  0.0150 -0.0978 -0.1082
 4873SOL    HW118117   4.950   8.568   7.344  0.4518  1.5441  2.7268
 4873SOL    HW218118   4.865   8.451   7.388  1.0117 -0.0800 -0.2036
 4874SOL     OW18119   2.260   9.335   2.082 -0.5345 -0.1583 -0.2172
 4874SOL    HW118120   2.351   9.343   2.111 -0.7713 -0.0801  0.5198
 4874SOL    HW218121   2.259   9.257   2.027 -0.4737 -1.5289  1.6339
 4875SOL     OW18122   0.371   7.469  10.522  0.3089 -0.2394  0.5298
 4875SOL    HW118123   0.367   7.535  10.591  2.7582  1.0064 -0.4279
 4875SOL    HW218124   0.384   7.518  10.441 -3.2252 -1.5974 -1.0808
 4876SOL     OW18125   4.655   9.344   7.607 -0.3353  0.4608  0.4301
 4876SOL    HW118126   4.601   9.338   7.529 -0.0877 -0.1943  0.2987
 4876SOL    HW218127   4.601   9.306   7.677 -0.4606  0.8131  0.5258
 4877SOL     OW18128   7.009  10.614   8.255  0.3162  0.0022 -0.2731
 4877SOL    HW118129   7.030  10.522   8.268 -0.3159  0.1408  2.3842
 4877SOL    HW218130   7.094  10.657   8.244  0.7539 -0.6501  0.4980
 4878SOL     OW18131   9.252   5.604  10.156 -0.3842  0.3424 -0.1889
 4878SOL    HW118132   9.240   5.601  10.061  1.9963  0.2352 -0.5511
 4878SOL    HW218133   9.237   5.514  10.186 -0.8123  0.3078 -0.5054
 4879SOL     OW18134   1.300   8.441   1.736  0.0319 -0.4994 -0.0347
 4879SOL    HW118135   1.209   8.437   1.707 -0.0426 -0.0459  0.1272
 4879SOL    HW218136   1.351   8.422   1.658 -0.1788  0.3304 -0.3880
 4880SOL     OW18137   0.779   2.201   4.215  0.0894  0.0804 -0.2931
 4880SOL    HW118138   0.747   2.233   4.131  1.0361  4.8378  0.8660
 4880SOL    HW218139   0.701   2.164   4.257 -0.3659 -2.5975 -3.1163
 4881SOL     OW18140   1.471  10.146   9.477  0.0965 -0.1527  0.4473
 4881SOL    HW118141   1.446  10.075   9.417 -0.0172  0.0939  0.1987
 4881SOL    HW218142   1.412  10.218   9.454  2.1334  1.0706 -1.3602
 4882SOL     OW18143   1.824   2.061   4.691 -0.3507 -0.7017 -0.4760
 4882SOL    HW118144   1.747   2.070   4.747 -2.0628 -0.4303 -2.7291
 4882SOL    HW218145   1.848   2.150   4.666 -0.9118 -0.8943 -1.7877
 4883SOL     OW18146   1.550  10.907   5.732 -0.1610 -0.0557  0.1607
 4883SOL    HW118147   1.557  10.859   5.814  0.3699  1.4749  1.0458
 4883SOL    HW218148   1.512  10.991   5.756 -1.5856 -0.1718 -1.4303
 4884SOL     OW18149   7.775   0.262   0.719  0.5970 -0.4523 -0.0140
 4884SOL    HW118150   7.868   0.281   0.704  1.0676 -2.0725  0.6141
 4884SOL    HW218151   7.746   0.332   0.779  0.9052  1.0879 -1.5797
 4885SOL     OW18152  10.670   5.939   6.041 -0.8493 -0.0784  0.0925
 4885SOL    HW118153  10.711   6.023   6.062  1.9209 -1.5091  0.7607
 4885SOL    HW218154  10.716   5.909   5.963 -1.4698 -1.2024  0.1419
 4886SOL     OW18155   2.914  10.661   5.173  0.4294  0.7367 -0.0220
 4886SOL    HW118156   2.980  10.597   5.149 -0.7513 -0.4111 -0.3084
 4886SOL    HW218157   2.851  10.659   5.101 -0.9824  0.2947  1.1718
 4887SOL     OW18158   6.267   4.684   5.879  0.3800  0.4079 -0.1578
 4887SOL    HW118159   6.182   4.652   5.907  0.8825 -0.5560  0.2927
 4887SOL    HW218160   6.260   4.780   5.885 -0.9631  0.3856 -1.0181
 4888SOL     OW18161   3.576   9.378  10.637  0.1032 -0.6572  0.3012
 4888SOL    HW118162   3.555   9.470  10.649 -1.9623 -1.0192 -0.0917
 4888SOL    HW218163   3.612   9.373  10.548  1.7539 -0.0281  0.9146
 4889SOL     OW18164   8.958   1.230   3.390  0.0342 -0.0857 -0.0868
 4889SOL    HW118165   8.884   1.274   3.431  0.4026  1.6893 -1.1859
 4889SOL    HW218166   9.020   1.301   3.371  0.9377 -1.1780 -1.3941
 4890SOL     OW18167   6.246   1.143   3.184 -0.2383 -0.1315 -0.4309
 4890SOL    HW118168   6.207   1.151   3.271  1.1073 -0.2561  0.2104
 4890SOL    HW218169   6.339   1.125   3.201  0.4780  1.8954 -1.8928
 4891SOL     OW18170   6.602   0.769   7.031 -0.3875 -0.2854  0.8162
 4891SOL    HW118171   6.622   0.677   7.016 -0.9327 -0.1537 -0.9615
 4891SOL    HW218172   6.658   0.794   7.105 -0.1191 -1.9851  1.2224
 4892SOL     OW18173  10.841  10.482   5.781  0.1355  0.3174  0.6555
 4892SOL    HW118174  10.809  10.504   5.869  0.7651  3.1226  0.2994
 4892SOL    HW218175  10.922  10.531   5.773  0.8478 -1.0516 -1.0022
 4893SOL     OW18176   0.448   7.299   0.550  1.0585 -0.7269  0.4705
 4893SOL    HW118177   0.525   7.355   0.548  0.4725  0.0760 -0.0267
 4893SOL    HW218178   0.399   7.328   0.627  1.1113 -1.0511  0.6279
 4894SOL     OW18179   3.246   9.117  10.437 -0.2974  0.1005  0.5933
 4894SOL    HW118180   3.216   9.048  10.378 -1.2246 -0.8179  2.0647
 4894SOL    HW218181   3.340   9.101  10.447  0.3184  1.4415 -2.0485
 4895SOL     OW18182   3.869   6.441   1.677 -0.1775  0.4978  1.0501
 4895SOL    HW118183   3.773   6.449   1.670 -0.0271  1.9998  0.2757
 4895SOL    HW218184   3.889   6.478   1.764 -0.3512 -0.5360  1.5442
 4896SOL     OW18185   0.858   3.747   1.773 -0.0756  0.3186 -0.3366
 4896SOL    HW118186   0.792   3.692   1.815 -0.3327  0.9426  0.0940
 4896SOL    HW218187   0.866   3.711   1.684  0.8600 -1.3448  0.3736
 4897SOL     OW18188   5.656  10.352   6.545  0.1268  0.1556  0.7605
 4897SOL    HW118189   5.633  10.424   6.486 -0.5143 -0.6638 -0.0061
 4897SOL    HW218190   5.736  10.316   6.507  0.4676  0.4742  1.1647
 4898SOL     OW18191   3.373   4.203   0.285 -0.4653 -0.6189  0.0798
 4898SOL    HW118192   3.456   4.157   0.280  1.1159  2.0859 -3.5032
 4898SOL    HW218193   3.311   4.146   0.240  0.2279 -1.3199 -0.0108
 4899SOL     OW18194   8.060   5.615   2.199  0.4223  0.0339  0.1989
 4899SOL    HW118195   8.035   5.558   2.126  0.0811  1.6481 -0.9945
 4899SOL    HW218196   8.015   5.577   2.275 -0.6540 -0.6731 -0.7577
 4900SOL     OW18197  10.428   8.869   3.169 -0.0168 -0.5359 -0.3391
 4900SOL    HW118198  10.466   8.897   3.086  0.2765 -0.4981 -0.1956
 4900SOL    HW218199  10.503   8.862   3.228 -0.3874  1.1663  0.4225
 4901SOL     OW18200   5.732   5.441  10.032  0.8393  0.4453  0.3654
 4901SOL    HW118201   5.798   5.375  10.010 -0.0193  0.0390 -1.1341
 4901SOL    HW218202   5.671   5.395  10.090 -0.3462 -0.4979 -1.5049
 4902SOL     OW18203   6.437   2.385   7.518  0.3048 -0.4807 -0.0233
 4902SOL    HW118204   6.403   2.309   7.565 -0.6533  0.6355  1.1823
 4902SOL    HW218205   6.532   2.375   7.523  0.2369 -0.5762  1.9270
 4903SOL     OW18206   1.379   7.418   6.176 -0.7095 -0.5560 -0.0407
 4903SOL    HW118207   1.371   7.440   6.083  0.9205 -0.0938 -0.1025
 4903SOL    HW218208   1.456   7.363   6.181 -1.2032 -1.1831  0.9672
 4904SOL     OW18209   8.575  10.547  10.663 -0.2574  0.0613  0.2483
 4904SOL    HW118210   8.528  10.509  10.737 -0.5146  1.1876  0.6967
 4904SOL    HW218211   8.506  10.590  10.611  0.0344  0.0619 -0.1394
 4905SOL     OW18212  10.931   2.887   0.761  0.5040 -0.1258 -0.4123
 4905SOL    HW118213  10.887   2.909   0.678  0.0731 -0.6732 -0.3390
 4905SOL    HW218214  11.015   2.933   0.757  0.0235  0.7669 -0.6551
 4906SOL     OW18215   4.380   8.229   5.541 -0.4473 -0.2483  0.5586
 4906SOL    HW118216   4.308   8.169   5.521 -1.4805  0.5892  1.6333
 4906SOL    HW218217   4.374   8.297   5.473 -0.1892 -0.5670  0.2100
 4907SOL     OW18218   3.347   8.283   4.283  0.6938 -0.1641  0.3578
 4907SOL    HW118219   3.369   8.244   4.368 -0.3468 -0.3550  0.5594
 4907SOL    HW218220   3.412   8.247   4.223  1.0289 -0.5665  0.9485
 4908SOL     OW18221   2.802   9.539   3.254 -0.2590 -0.1406  0.2175
 4908SOL    HW118222   2.745   9.611   3.282  0.3362 -0.4225  2.3927
 4908SOL    HW218223   2.742   9.466   3.238 -0.7825  0.5503 -1.1325
 4909SOL     OW18224   7.378   8.816   3.101 -0.1593 -0.1774 -0.4868
 4909SOL    HW118225   7.364   8.731   3.141  2.3210 -0.5925 -0.3812
 4909SOL    HW218226   7.402   8.874   3.174  0.7383 -0.0378 -0.8830
 4910SOL     OW18227   2.962   6.591   3.631  0.0956 -0.4703 -0.1587
 4910SOL    HW118228   2.947   6.660   3.695 -0.2660 -1.5393  0.9549
 4910SOL    HW218229   2.886   6.533   3.641  0.1834 -0.8214 -1.3568
 4911SOL     OW18230   9.597  10.747   4.856 -0.6472  0.0090 -0.0698
 4911SOL    HW118231   9.643  10.763   4.938 -2.0848  0.0644  0.7575
 4911SOL    HW218232   9.568  10.834   4.827 -0.8300 -0.1004 -0.2211
 4912SOL     OW18233   8.191   3.829   1.775  0.1466 -0.6842  0.1378
 4912SOL    HW118234   8.126   3.869   1.833  0.0631  0.9115 -0.9733
 4912SOL    HW218235   8.267   3.812   1.831 -1.0460 -2.2078  1.3681
 4913SOL     OW18236   0.524   5.593   1.690 -0.3095  0.3736  0.0596
 4913SOL    HW118237   0.497   5.512   1.732 -0.0586 -0.1422 -0.7601
 4913SOL    HW218238   0.589   5.567   1.625 -2.5920  0.7678 -2.5704
 4914SOL     OW18239   9.146   6.120   0.455 -0.5644  0.4002  0.2439
 4914SOL    HW118240   9.061   6.141   0.493 -0.2157  0.9578  0.7191
 4914SOL    HW218241   9.193   6.072   0.524 -0.1925  0.8054  0.2773
 4915SOL     OW18242   5.543   2.882   2.874  0.6932 -0.3546  0.3038
 4915SOL    HW118243   5.580   2.971   2.867 -2.0938  0.8566 -0.5874
 4915SOL    HW218244   5.550   2.846   2.786  0.7551 -0.5404  0.3850
 4916SOL     OW18245  10.124   7.280   0.770  0.6362  0.2957  0.7216
 4916SOL    HW118246  10.113   7.323   0.854  0.9103 -0.6093  1.2365
 4916SOL    HW218247  10.076   7.197   0.779 -0.1788  0.6303 -0.3590
 4917SOL     OW18248   3.842   6.692   5.473  0.1124 -0.0407  0.0917
 4917SOL    HW118249   3.768   6.633   5.485  0.3928 -0.4367 -0.1001
 4917SOL    HW218250   3.896   6.679   5.550 -0.9743  1.6909  1.2214
 4918SOL     OW18251   0.014   1.293   5.257 -0.1525 -0.1874 -0.0709
 4918SOL    HW118252   0.048   1.363   5.313 -2.5934  1.2061 -0.2073
 4918SOL    HW218253   0.077   1.287   5.185  1.2118  0.3717  1.0206
 4919SOL     OW18254   2.304  10.562   7.976 -0.4361  0.3419 -0.2850
 4919SOL    HW118255   2.346  10.518   7.902 -0.2988 -1.1831  0.6407
 4919SOL    HW218256   2.371  10.619   8.012  0.4232 -0.9680  0.2828
 4920SOL     OW18257   9.883   1.238   0.534  0.3022  0.3737  0.2506
 4920SOL    HW118258   9.879   1.311   0.595 -1.1921 -0.3025  1.0005
 4920SOL    HW218259   9.828   1.264   0.461 -0.3113 -0.0349  0.5636
 4921SOL     OW18260  10.487   4.378   5.617 -0.3079 -0.3128  0.3008
 4921SOL    HW118261  10.556   4.439   5.646  0.6687 -0.9578 -0.5839
 4921SOL    HW218262  10.431   4.431   5.560 -0.2181  0.0750  0.5645
 4922SOL     OW18263   5.831   0.134   6.779  0.1802 -0.0794  0.0245
 4922SOL    HW118264   5.824   0.039   6.791  1.6655 -0.2794 -0.4864
 4922SOL    HW218265   5.822   0.147   6.685 -1.0848  0.4175  0.1953
 4923SOL     OW18266   8.660   4.695  10.287 -0.0492  0.2549 -0.4035
 4923SOL    HW118267   8.725   4.756  10.253  0.9489  0.4267  1.6916
 4923SOL    HW218268   8.678   4.613  10.242  2.6809 -0.1286  1.2146
 4924SOL     OW18269   0.083   6.596  10.206  0.0793 -0.1526  0.0410
 4924SOL    HW118270   0.155   6.658  10.198 -0.7670  0.8590  0.0393
 4924SOL    HW218271   0.125   6.510  10.215  1.2723  0.1993 -1.6995
 4925SOL     OW18272   7.812   3.745   6.438  0.3309  0.4082 -0.0391
 4925SOL    HW118273   7.907   3.759   6.445  0.3631 -0.2065  0.8878
 4925SOL    HW218274   7.802   3.651   6.429 -0.1811  0.5119 -0.6426
 4926SOL     OW18275   9.493   7.020   6.760 -0.3561 -0.2066 -0.2399
 4926SOL    HW118276   9.533   7.010   6.846  1.6771 -0.3778 -1.1479
 4926SOL    HW218277   9.454   6.935   6.741  0.1270 -0.5051  0.0757
 4927SOL     OW18278   0.963   1.806   4.316 -0.5502 -0.1374  0.3412
 4927SOL    HW118279   0.960   1.717   4.279 -0.5846 -0.7353  1.7194
 4927SOL    HW218280   0.879   1.817   4.360 -1.1588  1.1744 -1.0851
 4928SOL     OW18281   1.434   7.184   1.617  0.5856 -0.2258  0.3035
 4928SOL    HW118282   1.346   7.168   1.650  0.9914 -0.1723  1.4856
 4928SOL    HW218283   1.426   7.260   1.560  0.1434  0.8799  1.7893
 4929SOL     OW18284   5.120   6.353   9.058  0.9140  0.6323  0.0272
 4929SOL    HW118285   5.063   6.280   9.083  1.3956  0.4334  0.5547
 4929SOL    HW218286   5.139   6.398   9.140  0.2152  1.6640 -0.3550
 4930SOL     OW18287   3.834   9.437   5.435  0.0917 -0.5859 -0.1157
 4930SOL    HW118288   3.862   9.525   5.460  1.8617 -0.2663 -2.7708
 4930SOL    HW218289   3.783   9.406   5.510 -0.0997  2.4349  1.1585
 4931SOL     OW18290   6.440   9.365   5.133 -0.5560  0.0048  0.2947
 4931SOL    HW118291   6.405   9.449   5.103 -0.0390  0.3319  0.5879
 4931SOL    HW218292   6.442   9.373   5.229  1.2664  0.4047  0.2712
 4932SOL     OW18293   2.261   6.451   5.960 -0.3621 -0.0265 -0.1349
 4932SOL    HW118294   2.200   6.382   5.933  0.8067 -0.9927 -0.3888
 4932SOL    HW218295   2.251   6.519   5.894 -0.3219 -0.6826 -0.8303
 4933SOL     OW18296   8.873   8.083   9.095  0.5089  0.1975  0.1758
 4933SOL    HW118297   8.847   8.053   9.008  0.6513  0.5936 -0.0048
 4933SOL    HW218298   8.906   8.005   9.139  0.7307  0.0616 -0.2337
 4934SOL     OW18299   2.458   6.811   7.117  0.6405  0.5336 -0.3860
 4934SOL    HW118300   2.537   6.777   7.159 -0.1159 -0.9184 -0.0732
 4934SOL    HW218301   2.402   6.734   7.105 -0.2747  1.3430 -1.6182
 4935SOL     OW18302   0.528   8.943   8.289  0.9807  0.4977  0.0166
 4935SOL    HW118303   0.485   8.931   8.204  1.5758 -0.3089 -0.1690
 4935SOL    HW218304   0.468   8.903   8.352  0.0377  1.9947  0.1245
 4936SOL     OW18305   2.642   2.421   2.096  0.3386 -0.1536 -0.5554
 4936SOL    HW118306   2.550   2.405   2.077  0.0294  0.5768  0.2825
 4936SOL    HW218307   2.647   2.515   2.115  1.1732 -0.2707 -0.1527
 4937SOL     OW18308   9.355   3.847   6.828  0.1919  0.5171 -0.5482
 4937SOL    HW118309   9.427   3.906   6.851  0.1566  0.4594 -0.2806
 4937SOL    HW218310   9.333   3.803   6.911  0.6492 -0.3489 -0.8695
 4938SOL     OW18311   7.393   2.197   6.793  0.1493 -0.5279  0.1074
 4938SOL    HW118312   7.359   2.287   6.798  2.0728  0.2678 -0.3032
 4938SOL    HW218313   7.342   2.157   6.723  0.9981  1.1127 -1.5566
 4939SOL     OW18314   8.190   0.564   8.701  0.7918  0.0775  0.0969
 4939SOL    HW118315   8.126   0.531   8.765  1.2715 -0.2702  0.4004
 4939SOL    HW218316   8.209   0.488   8.645  1.9193 -0.1855  0.8149
 4940SOL     OW18317   9.640  10.595   3.162 -0.1143  0.2397  0.0040
 4940SOL    HW118318   9.681  10.509   3.154 -0.3058  0.2052 -0.6271
 4940SOL    HW218319   9.591  10.606   3.081 -1.7398  0.0779  0.9166
 4941SOL     OW18320   1.252   5.017   6.999  0.5339 -0.0137  0.1658
 4941SOL    HW118321   1.222   5.059   7.080  0.7197  0.0810  0.1846
 4941SOL    HW218322   1.333   5.063   6.976 -1.1983  2.2875 -1.9040
 4942SOL     OW18323   4.726   6.029   5.044 -0.5140  0.1850  0.1116
 4942SOL    HW118324   4.675   5.956   5.078  0.7668 -1.2150 -0.8435
 4942SOL    HW218325   4.664   6.079   4.991 -1.2539 -0.5816  0.2272
 4943SOL     OW18326   0.881   3.662  10.373  0.2272 -0.7104 -0.3605
 4943SOL    HW118327   0.891   3.755  10.395  1.3802 -1.3697  2.3681
 4943SOL    HW218328   0.970   3.634  10.352 -0.0920 -1.2273 -1.0170
 4944SOL     OW18329  10.031   6.830   1.568 -0.0262 -0.1245 -0.3293
 4944SOL    HW118330   9.966   6.873   1.512  0.8989  0.5557 -0.9129
 4944SOL    HW218331  10.076   6.769   1.509  0.6492  0.2682 -0.2298
 4945SOL     OW18332   3.999   9.546   8.000 -0.0397  0.7441  0.1333
 4945SOL    HW118333   3.968   9.510   8.083  1.2292 -2.5733 -0.6959
 4945SOL    HW218334   4.087   9.579   8.020  0.4867 -0.5561  0.0369
 4946SOL     OW18335   8.270   2.166   9.997  0.6565 -0.0501 -0.4270
 4946SOL    HW118336   8.263   2.136   9.907 -0.8066  0.1883 -0.4309
 4946SOL    HW218337   8.363   2.162  10.018  0.7361 -3.0069 -0.9510
 4947SOL     OW18338   0.602   3.769   6.309  0.1756  0.4335 -0.6172
 4947SOL    HW118339   0.645   3.741   6.228 -1.2490  0.6181 -1.4720
 4947SOL    HW218340   0.509   3.776   6.285 -0.3757 -0.1426  1.1994
 4948SOL     OW18341   3.631   3.146   6.797 -0.5554 -0.5058  0.8194
 4948SOL    HW118342   3.616   3.110   6.885 -0.0212 -3.0669 -0.0337
 4948SOL    HW218343   3.722   3.174   6.799 -0.3467 -1.1650  0.9133
 4949SOL     OW18344   2.021   4.325   3.614 -0.3093  0.2367  0.1117
 4949SOL    HW118345   2.071   4.284   3.685 -0.1488  0.6851  0.2605
 4949SOL    HW218346   1.962   4.386   3.658  1.2940  2.1662 -0.2132
 4950SOL     OW18347   4.145   3.622   0.513 -0.2290  0.1431 -0.4799
 4950SOL    HW118348   4.208   3.638   0.443  0.7022  1.6285  0.6202
 4950SOL    HW218349   4.188   3.557   0.570  0.6950  1.6718  0.6464
 4951SOL     OW18350   2.818   5.601   4.638  0.7186 -0.6933 -0.3194
 4951SOL    HW118351   2.773   5.575   4.719  1.8292  0.3062  0.6674
 4951SOL    HW218352   2.847   5.519   4.599  0.6439 -1.1797  0.6099
 4952SOL     OW18353   3.360   3.466  10.391 -0.0953  0.2471  0.0667
 4952SOL    HW118354   3.456   3.460  10.387 -0.1635 -1.0813 -0.0318
 4952SOL    HW218355   3.343   3.559  10.404  1.1759  0.6789 -1.0325
 4953SOL     OW18356  10.288   7.936   1.555  0.1619  0.2977 -0.1763
 4953SOL    HW118357  10.304   7.923   1.462 -1.6923  2.3831 -0.8887
 4953SOL    HW218358  10.320   8.025   1.572  1.0509 -0.2810  1.3698
 4954SOL     OW18359   3.856  10.882   5.155 -0.0426  0.3486 -0.1353
 4954SOL    HW118360   3.800  10.956   5.179 -0.0935 -0.3763  2.2951
 4954SOL    HW218361   3.797  10.820   5.112 -0.6286  0.5565  0.3539
 4955SOL     OW18362   9.097   3.865   8.465 -0.5871  0.1497 -0.5687
 4955SOL    HW118363   9.044   3.919   8.407 -0.2836  0.4985 -0.5280
 4955SOL    HW218364   9.085   3.905   8.552  1.1293  1.3555 -0.8275
 4956SOL     OW18365  10.693   0.098   9.280 -0.4333  0.3203  0.1377
 4956SOL    HW118366  10.734   0.057   9.204  0.4345  0.3220  0.5894
 4956SOL    HW218367  10.715   0.191   9.271 -1.3715  0.5157 -0.2467
 4957SOL     OW18368   6.660   3.406   8.758 -0.0598  0.1444 -0.4106
 4957SOL    HW118369   6.632   3.317   8.736 -2.2187  1.3176 -2.8922
 4957SOL    HW218370   6.584   3.443   8.804  0.9687  0.6619  0.9532
 4958SOL     OW18371   8.964  10.149   2.668 -0.0431 -0.0950  0.2812
 4958SOL    HW118372   8.964  10.158   2.763  0.5564 -1.8330  0.4852
 4958SOL    HW218373   8.978  10.056   2.653  3.2205  0.5369 -1.5318
 4959SOL     OW18374   1.810   9.088   6.475  0.0320 -0.0424  1.0485
 4959SOL    HW118375   1.835   9.089   6.383  0.6001  2.1141  1.1544
 4959SOL    HW218376   1.718   9.062   6.475 -0.0606  0.2301 -0.1691
 4960SOL     OW18377   6.106  10.336   1.519  0.1462 -0.3911  0.0293
 4960SOL    HW118378   6.125  10.334   1.425 -2.1627 -3.4987 -0.5276
 4960SOL    HW218379   6.167  10.401   1.554 -0.0104  2.1599 -3.8047
 4961SOL     OW18380   6.778  10.935   8.136 -0.2480 -0.0374  0.2675
 4961SOL    HW118381   6.775  11.002   8.204 -1.0844 -0.2859  0.4858
 4961SOL    HW218382   6.855  10.958   8.083 -1.5746  2.2396 -0.8189
 4962SOL     OW18383   6.589   4.248   4.323  0.4651 -0.5447  0.0979
 4962SOL    HW118384   6.667   4.304   4.320  1.1412 -1.4650 -0.1364
 4962SOL    HW218385   6.585   4.217   4.413 -0.6478  0.8512  0.5692
 4963SOL     OW18386   3.897   3.159   8.248  0.5282 -0.0646  0.2038
 4963SOL    HW118387   3.939   3.228   8.195 -1.6091  0.5263 -0.8510
 4963SOL    HW218388   3.945   3.079   8.226  2.1430  0.8199  0.3551
 4964SOL     OW18389   9.804   4.308   1.761  0.0394 -0.8094 -0.4077
 4964SOL    HW118390   9.788   4.238   1.825  0.6165 -0.2118  0.4197
 4964SOL    HW218391   9.898   4.304   1.745 -0.0600 -0.7646 -0.9955
 4965SOL     OW18392   4.406   6.222   6.729 -0.0880  0.1015  0.3757
 4965SOL    HW118393   4.446   6.136   6.715  1.0381  0.5253  0.9195
 4965SOL    HW218394   4.357   6.212   6.811 -1.4206 -0.5069 -0.4503
 4966SOL     OW18395   4.319   7.566   5.762  0.3462  0.3811 -0.2121
 4966SOL    HW118396   4.364   7.506   5.702 -1.2615  1.9873 -3.3268
 4966SOL    HW218397   4.226   7.543   5.753 -0.2292  2.7160 -0.9051
 4967SOL     OW18398   0.761   7.160   1.515  0.0931  0.2474 -0.2714
 4967SOL    HW118399   0.728   7.095   1.453 -0.1950 -1.0289  1.1526
 4967SOL    HW218400   0.852   7.174   1.488 -0.2735  0.4022 -1.5013
 4968SOL     OW18401   3.658   6.150   6.248  0.5595 -0.4728  0.1732
 4968SOL    HW118402   3.731   6.115   6.197  0.2646 -0.2208 -0.4293
 4968SOL    HW218403   3.605   6.198   6.185  1.7828  2.4280  1.1662
 4969SOL     OW18404   4.958  10.576   6.664  0.3403  0.0906 -0.8185
 4969SOL    HW118405   4.923  10.664   6.652  0.1491  0.1229 -0.0394
 4969SOL    HW218406   5.045  10.579   6.624  1.3323  1.3254  1.2555
 4970SOL     OW18407  10.780   5.376   8.924 -0.0350 -0.1553  0.2860
 4970SOL    HW118408  10.832   5.336   8.993  0.5964 -0.1598 -0.1829
 4970SOL    HW218409  10.816   5.465   8.915  1.3379 -0.8193 -1.4603
 4971SOL     OW18410   9.392   7.751   9.466 -0.1387  0.0829  0.8007
 4971SOL    HW118411   9.433   7.806   9.399 -0.2038  0.3309  0.9604
 4971SOL    HW218412   9.410   7.661   9.438  0.6175  0.1874  0.9327
 4972SOL     OW18413   0.253   4.585   4.924 -0.1369 -0.4481 -0.7041
 4972SOL    HW118414   0.331   4.641   4.919 -0.7319  0.7245  1.5178
 4972SOL    HW218415   0.190   4.625   4.864 -0.2468  0.8438  0.2137
 4973SOL     OW18416  10.602   1.913   7.018  0.0110  0.3284 -0.5383
 4973SOL    HW118417  10.604   1.919   6.923  0.7818  0.5378 -0.5130
 4973SOL    HW218418  10.533   1.974   7.044 -1.3287 -0.9222 -1.0431
 4974SOL     OW18419   9.045   2.178  10.901  0.3739 -0.0176  0.4749
 4974SOL    HW118420   8.994   2.228  10.965  1.2094  0.1778  1.0049
 4974SOL    HW218421   9.003   2.093  10.898  0.3710 -0.0533  1.3491
 4975SOL     OW18422   8.802   1.233   7.717 -0.3251  0.7692  0.3906
 4975SOL    HW118423   8.792   1.245   7.811  0.2646 -0.8458  0.6995
 4975SOL    HW218424   8.723   1.273   7.679 -2.5937 -1.9028  1.8776
 4976SOL     OW18425   3.410   8.510   5.369 -0.0136  0.1538 -0.2045
 4976SOL    HW118426   3.476   8.465   5.422 -0.3857 -0.4550 -0.2460
 4976SOL    HW218427   3.375   8.442   5.311  1.0359  0.9839 -1.8989
 4977SOL     OW18428   9.263   2.223   3.824  0.2132  0.0934  0.2644
 4977SOL    HW118429   9.281   2.198   3.914 -0.7870  0.0270  0.4599
 4977SOL    HW218430   9.269   2.141   3.774  0.3084  0.0512  0.3457
 4978SOL     OW18431   5.424   1.528  10.985 -0.2954  0.1690 -0.6006
 4978SOL    HW118432   5.487   1.542  10.914 -2.2979  1.3336 -2.2772
 4978SOL    HW218433   5.422   1.611  11.032  0.7559 -0.4846  0.6721
 4979SOL     OW18434   1.245   3.277   1.969 -0.5177  0.2195  0.1411
 4979SOL    HW118435   1.312   3.312   2.028 -0.3620  1.2833 -0.6395
 4979SOL    HW218436   1.272   3.186   1.954  0.2377  0.3602  0.5627
 4980SOL     OW18437   7.626   9.365   9.794 -0.8545  0.3136  0.2559
 4980SOL    HW118438   7.716   9.333   9.785 -0.9202  0.2618 -0.2646
 4980SOL    HW218439   7.623   9.403   9.882 -0.2599  0.5193  0.1952
 4981SOL     OW18440   4.542   6.752   7.673  0.2148 -0.1522  0.5777
 4981SOL    HW118441   4.486   6.824   7.644 -2.1363 -1.7931  0.6652
 4981SOL    HW218442   4.570   6.777   7.761  0.9426  1.3989 -0.0624
 4982SOL     OW18443   8.949  10.412  10.003  0.2004 -0.0767 -0.0215
 4982SOL    HW118444   8.940  10.505  10.024  0.8555  0.2798 -1.2580
 4982SOL    HW218445   9.044  10.398   9.997  0.1263 -0.9290  0.5378
 4983SOL     OW18446   4.522   8.260   0.847 -0.4485  0.3070 -0.6391
 4983SOL    HW118447   4.464   8.276   0.772 -1.3580  1.5981  0.2870
 4983SOL    HW218448   4.482   8.186   0.892  0.3338 -0.7419 -1.6313
 4984SOL     OW18449   8.295   9.179   9.790  0.0147 -0.1235  0.0168
 4984SOL    HW118450   8.312   9.092   9.755  2.4195  0.5183 -0.6311
 4984SOL    HW218451   8.283   9.234   9.713 -1.2100  0.2098  0.4153
 4985SOL     OW18452   9.090   6.890   3.306  0.2620 -0.0926 -0.3510
 4985SOL    HW118453   9.183   6.912   3.301  0.5539  0.2261  3.3838
 4985SOL    HW218454   9.088   6.802   3.345 -0.9857  0.0721  0.0163
 4986SOL     OW18455   9.743   7.430   4.632  0.4002 -0.2425 -0.8498
 4986SOL    HW118456   9.750   7.498   4.566 -0.3386  0.1076 -0.5788
 4986SOL    HW218457   9.784   7.353   4.592  1.7988  0.5178 -0.9229
 4987SOL     OW18458   3.368   6.244   5.834  0.4367 -0.1384  0.5363
 4987SOL    HW118459   3.280   6.262   5.801  0.0078  0.2784  1.8526
 4987SOL    HW218460   3.426   6.267   5.762 -0.4076  1.6724  0.3900
 4988SOL     OW18461   8.969   6.377   8.249  0.4436 -0.2028 -0.0175
 4988SOL    HW118462   8.912   6.300   8.259 -0.7668  0.4827 -1.3259
 4988SOL    HW218463   8.961   6.424   8.332 -0.5558 -0.3608 -0.0104
 4989SOL     OW18464   9.982   1.872   2.658  0.4040  0.9897 -0.6489
 4989SOL    HW118465  10.077   1.862   2.663  0.2782 -0.1124 -0.1735
 4989SOL    HW218466   9.959   1.921   2.738  0.4390  0.0716 -0.0624
 4990SOL     OW18467   9.080  10.804   5.846  0.3430 -0.4606  0.2765
 4990SOL    HW118468   9.003  10.750   5.865 -0.8981  1.5827  1.4365
 4990SOL    HW218469   9.050  10.894   5.860  2.6424  0.4875 -0.4157
 4991SOL     OW18470   5.633   6.959   3.379  0.0983  0.3107  0.5238
 4991SOL    HW118471   5.646   6.908   3.459 -0.2296  0.2251  0.5259
 4991SOL    HW218472   5.650   7.049   3.405  0.3320  0.2442  0.6069
 4992SOL     OW18473   9.102   4.903   7.022 -0.0876  0.3903  0.3749
 4992SOL    HW118474   9.059   4.933   7.103 -0.4882  2.3820 -0.5153
 4992SOL    HW218475   9.147   4.823   7.048  0.2782  1.2529  2.7437
 4993SOL     OW18476  10.233  10.461   5.635  0.5216  0.3839 -0.3335
 4993SOL    HW118477  10.197  10.546   5.607 -0.4879  0.0374 -0.1269
 4993SOL    HW218478  10.325  10.479   5.651 -0.1105  2.0504  2.0069
 4994SOL     OW18479   3.598   7.443  10.041  0.1559 -0.0413  0.4101
 4994SOL    HW118480   3.505   7.457  10.059  0.1541 -1.1705  1.3880
 4994SOL    HW218481   3.641   7.521  10.075 -0.2437 -0.4645  1.9626
 4995SOL     OW18482   1.213   7.149  10.000  0.3940  0.4452 -0.1731
 4995SOL    HW118483   1.208   7.222  10.061  0.4269  1.7667 -1.6743
 4995SOL    HW218484   1.209   7.190   9.913  1.3790 -1.2638 -1.0844
 4996SOL     OW18485   3.354   9.404   9.658 -0.5147  0.0675  0.3397
 4996SOL    HW118486   3.316   9.489   9.681 -1.2707 -0.2418  0.2632
 4996SOL    HW218487   3.434   9.399   9.710  0.4763  1.5646 -0.9408
 4997SOL     OW18488   5.488   8.501   4.459 -0.0435 -0.5688  0.5215
 4997SOL    HW118489   5.495   8.411   4.492 -1.1167 -0.6881  0.4283
 4997SOL    HW218490   5.579   8.531   4.456  0.3284 -1.6217  0.6202
 4998SOL     OW18491   8.962   8.474   8.813  0.1173  0.1637  0.1554
 4998SOL    HW118492   8.931   8.443   8.728  0.8977  0.1872 -0.1389
 4998SOL    HW218493   8.888   8.524   8.849 -0.4693 -0.4562 -0.1872
 4999SOL     OW18494   2.854   2.211   9.723 -0.0556 -0.0465 -0.6046
 4999SOL    HW118495   2.758   2.202   9.722 -0.0690 -0.0000  0.0995
 4999SOL    HW218496   2.886   2.122   9.714 -0.1725 -0.1487 -0.0616
 5000SOL     OW18497   2.770   2.427   1.135  0.0801 -0.1077 -0.6410
 5000SOL    HW118498   2.719   2.420   1.215 -0.4361 -0.4856 -0.9917
 5000SOL    HW218499   2.861   2.412   1.162 -0.1175 -0.4576 -0.1615
 5001SOL     OW18500   1.158   1.783   7.452 -0.2138  0.0653 -0.6378
 5001SOL    HW118501   1.138   1.807   7.542  0.5632  0.3728 -0.5331
 5001SOL    HW218502   1.169   1.688   7.454  0.6095  0.1566 -0.2230
 5002SOL     OW18503   8.119   3.504   8.068  0.5625 -0.5576  0.2198
 5002SOL    HW118504   8.091   3.596   8.063 -1.5893 -1.1846 -0.9755
 5002SOL    HW218505   8.140   3.481   7.977 -0.5342 -1.6399  0.2018
 5003SOL     OW18506   4.325   3.301   7.086  0.3976 -0.1472 -0.1818
 5003SOL    HW118507   4.334   3.280   6.993  1.5634 -0.0687 -0.1000
 5003SOL    HW218508   4.396   3.251   7.128  0.8163  0.9723  0.4767
 5004SOL     OW18509   0.436   2.931   5.239  0.2959  0.0627  0.2747
 5004SOL    HW118510   0.485   2.889   5.169  2.1745  0.9676  0.9744
 5004SOL    HW218511   0.501   2.944   5.309 -1.2568  0.1330  1.7732
 5005SOL     OW18512   4.684   1.839   5.861  0.4481 -0.4660 -0.1354
 5005SOL    HW118513   4.690   1.837   5.766 -1.1275  1.2454 -0.3078
 5005SOL    HW218514   4.748   1.905   5.888  2.1563 -2.1607  0.1862
 5006SOL     OW18515   2.157   9.540   7.544 -0.4091  0.5916 -0.3607
 5006SOL    HW118516   2.092   9.472   7.525 -0.9666  0.9505  0.2179
 5006SOL    HW218517   2.113   9.622   7.523 -0.7643  0.9506  1.6463
 5007SOL     OW18518   5.956   8.031   6.812  0.3986 -0.3880  0.6177
 5007SOL    HW118519   6.014   7.977   6.758  0.2009 -0.5288  0.5465
 5007SOL    HW218520   5.910   7.968   6.869  1.3867 -0.1628  1.7173
 5008SOL     OW18521   9.882   4.678   0.115 -0.0363 -0.2157 -0.1650
 5008SOL    HW118522   9.789   4.658   0.102 -0.1566 -0.6763  1.1751
 5008SOL    HW218523   9.920   4.675   0.027 -1.1798 -0.5784 -0.6727
 5009SOL     OW18524   6.119   0.925   9.178  0.1889  0.1974  0.3539
 5009SOL    HW118525   6.194   0.902   9.233  0.9629  0.5109 -0.5441
 5009SOL    HW218526   6.139   0.884   9.093  0.5093  2.2528 -0.6072
 5010SOL     OW18527   3.517   3.315   5.904 -0.1609  0.4437 -0.4046
 5010SOL    HW118528   3.491   3.387   5.847 -2.6614 -0.6962 -0.8475
 5010SOL    HW218529   3.545   3.246   5.843  1.4070  0.7065 -0.0199
 5011SOL     OW18530   7.599   8.467   5.297 -0.0429  0.6623  0.6468
 5011SOL    HW118531   7.661   8.537   5.278 -0.5164  0.9484  0.1112
 5011SOL    HW218532   7.585   8.423   5.213  1.4129 -1.0671  1.2470
 5012SOL     OW18533   2.405   8.738   0.805  0.2550 -0.3252 -0.0624
 5012SOL    HW118534   2.316   8.756   0.835  0.3493 -0.5036  0.3354
 5012SOL    HW218535   2.461   8.782   0.869  0.4649 -0.9167  0.1631
 5013SOL     OW18536   2.426   1.302   2.504 -0.2605 -0.2364  0.2612
 5013SOL    HW118537   2.506   1.260   2.474 -0.4405 -0.0558 -0.5210
 5013SOL    HW218538   2.369   1.230   2.530 -0.2288 -0.4355 -0.2011
 5014SOL     OW18539   8.328   2.650   7.324 -0.0469 -0.1823  0.1530
 5014SOL    HW118540   8.260   2.600   7.368  0.1151 -0.3517  0.2107
 5014SOL    HW218541   8.370   2.587   7.265  1.2444 -0.5579  1.4051
 5015SOL     OW18542   9.989   7.495   5.861 -0.2485 -0.1819 -0.2751
 5015SOL    HW118543  10.021   7.556   5.928  0.6251 -0.3917 -0.4825
 5015SOL    HW218544   9.914   7.539   5.822 -0.1925  0.3533  0.2047
 5016SOL     OW18545  10.044   0.199   0.755  0.1644  0.3143 -0.4198
 5016SOL    HW118546  10.133   0.230   0.768 -0.1323  1.2043 -0.4393
 5016SOL    HW218547   9.992   0.279   0.745 -1.0478 -0.0646  2.1315
 5017SOL     OW18548   6.710   5.739   7.158 -0.0638  0.2853 -0.0145
 5017SOL    HW118549   6.734   5.672   7.222 -1.3565  1.6547  2.0157
 5017SOL    HW218550   6.642   5.698   7.105 -0.0213 -0.3990  0.4421
 5018SOL     OW18551   0.379   0.436   2.509  0.0950 -0.6572  0.0273
 5018SOL    HW118552   0.332   0.418   2.591 -0.8845  0.1689 -0.3413
 5018SOL    HW218553   0.358   0.362   2.453 -0.0341 -0.7373  0.1799
 5019SOL     OW18554   3.748   2.856   9.689  0.0754  0.0816 -0.0240
 5019SOL    HW118555   3.738   2.832   9.597 -1.9649  0.4559  0.0519
 5019SOL    HW218556   3.658   2.870   9.720  0.6827 -0.4101  2.1315
 5020SOL     OW18557   0.048   4.292   9.416  0.0989 -0.4996  0.4324
 5020SOL    HW118558   0.121   4.267   9.473 -1.6844 -2.4703  1.9606
 5020SOL    HW218559   0.091   4.329   9.338  2.6826 -0.7165  1.6511
 5021SOL     OW18560   5.385   8.673   9.289 -0.4624 -0.3307 -0.1759
 5021SOL    HW118561   5.334   8.672   9.208 -1.3414 -1.9886  0.3445
 5021SOL    HW218562   5.325   8.711   9.354 -0.0931  0.1333 -0.1024
 5022SOL     OW18563   0.604   3.801   5.910 -0.5292 -0.0549  0.5495
 5022SOL    HW118564   0.699   3.811   5.902 -0.7134  1.1239 -0.7056
 5022SOL    HW218565   0.592   3.715   5.950  1.0701  0.0338  1.3184
 5023SOL     OW18566   3.634   2.239  10.494  0.2562  0.0125  0.3360
 5023SOL    HW118567   3.568   2.179  10.530  0.7212 -0.2112  0.8320
 5023SOL    HW218568   3.649   2.208  10.405 -1.1581  0.7710 -0.2014
 5024SOL     OW18569   5.084   6.794   2.520 -0.0888 -0.3703  0.1529
 5024SOL    HW118570   5.129   6.725   2.569 -0.3015 -0.1460  0.6776
 5024SOL    HW218571   5.019   6.827   2.582 -0.3651 -0.0833 -0.2920
 5025SOL     OW18572   6.132  10.641   0.878  0.2820  0.0384 -0.5573
 5025SOL    HW118573   6.146  10.719   0.933 -3.8271  0.3250  0.4440
 5025SOL    HW218574   6.159  10.668   0.791  1.7133  1.5371  0.2884
 5026SOL     OW18575   1.279   4.966   4.849 -0.2942 -0.4613 -0.6342
 5026SOL    HW118576   1.259   4.970   4.943 -1.1101 -0.5402 -0.8048
 5026SOL    HW218577   1.301   4.874   4.834 -1.6956 -0.7859 -0.8215
 5027SOL     OW18578  10.026   1.050   3.316  0.4379  0.1092  0.0164
 5027SOL    HW118579  10.083   1.126   3.306  0.4543  0.0452 -0.4080
 5027SOL    HW218580   9.993   1.056   3.405  2.3421 -0.7193  0.8231
 5028SOL     OW18581   3.010   5.897   2.095  0.1628  0.0551  0.3757
 5028SOL    HW118582   3.096   5.881   2.134  1.8414  0.0600 -3.0114
 5028SOL    HW218583   2.978   5.810   2.069  0.9504  0.3411 -1.7293
 5029SOL     OW18584  10.750   7.761   6.448 -0.1556 -0.5234 -0.6715
 5029SOL    HW118585  10.676   7.702   6.453 -1.3539  0.8906 -1.0098
 5029SOL    HW218586  10.729   7.832   6.508  0.4329  0.4001 -1.5182
 5030SOL     OW18587   1.851   1.438   3.941  0.5869  0.3820 -0.3200
 5030SOL    HW118588   1.804   1.425   4.024  2.4916  1.5518  1.0288
 5030SOL    HW218589   1.938   1.468   3.968  2.0015 -1.2552 -2.6916
 5031SOL     OW18590   9.418   6.252   6.610 -0.2022  0.3957  0.7797
 5031SOL    HW118591   9.408   6.242   6.705  0.2514 -1.6588  0.6408
 5031SOL    HW218592   9.510   6.275   6.598  1.0850 -4.0704  0.6336
 5032SOL     OW18593   9.826   0.414   0.702 -0.1445 -0.0420 -0.0535
 5032SOL    HW118594   9.741   0.435   0.741 -0.3760  0.1438 -0.6371
 5032SOL    HW218595   9.883   0.487   0.727 -0.3660  0.2137 -0.2807
 5033SOL     OW18596   5.580  10.952   4.958 -0.0799 -0.4925 -0.2930
 5033SOL    HW118597   5.662  10.912   4.986 -0.4058 -0.5051  0.6910
 5033SOL    HW218598   5.598  10.984   4.869  1.2552  0.2615  0.2170
 5034SOL     OW18599   2.536   0.960   1.181  0.0615 -0.1063 -0.0034
 5034SOL    HW118600   2.543   0.890   1.246 -1.9093  0.8287  1.3123
 5034SOL    HW218601   2.558   1.040   1.229  0.7611  0.3977 -1.0961
 5035SOL     OW18602   0.391   3.133   9.717 -0.4985  0.0816 -0.0143
 5035SOL    HW118603   0.444   3.212   9.709 -0.6577 -0.0027 -3.5716
 5035SOL    HW218604   0.318   3.147   9.657  0.1276 -3.1291 -1.7815
 5036SOL     OW18605   5.166   6.257   9.959  0.3190 -0.5362  0.7182
 5036SOL    HW118606   5.166   6.352   9.951 -0.0597 -0.5670  0.3143
 5036SOL    HW218607   5.227   6.227   9.892  0.9728 -0.5477  1.3075
 5037SOL     OW18608   3.266   0.514   5.181  0.2914  0.3963 -0.2509
 5037SOL    HW118609   3.351   0.484   5.212 -0.0796  0.1811  0.6064
 5037SOL    HW218610   3.266   0.608   5.200  0.0237  0.2452  0.5305
 5038SOL     OW18611   6.425   7.157   2.026 -0.6294  0.2966 -0.8107
 5038SOL    HW118612   6.351   7.215   2.010  0.1267  1.5806  0.0572
 5038SOL    HW218613   6.476   7.160   1.946  0.5163  2.6230 -0.0866
 5039SOL     OW18614   2.426   9.937   7.220  0.4685  0.0070  0.0829
 5039SOL    HW118615   2.421   9.940   7.316 -0.7539  0.7203  0.0098
 5039SOL    HW218616   2.337   9.918   7.191 -0.1533  3.7621 -1.0257
 5040SOL     OW18617   3.503   9.744   8.913 -0.2483 -0.0912 -0.4250
 5040SOL    HW118618   3.525   9.764   9.004 -1.2891 -3.4745  0.6978
 5040SOL    HW218619   3.588   9.731   8.870  0.2524 -1.4807  0.8846
 5041SOL     OW18620   6.883   7.869  10.470 -0.6367 -0.3764  0.5596
 5041SOL    HW118621   6.866   7.870  10.375 -2.4859 -1.2437  0.8407
 5041SOL    HW218622   6.942   7.795  10.482 -1.0072 -0.7457  0.1633
 5042SOL     OW18623   7.517  10.782   8.134 -0.3211  0.2501 -0.2181
 5042SOL    HW118624   7.475  10.697   8.120  0.2375 -0.0824  0.0910
 5042SOL    HW218625   7.447  10.845   8.122 -1.0229 -0.3197  0.7795
 5043SOL     OW18626   5.873   9.111   3.825  0.0488 -0.1031  0.3325
 5043SOL    HW118627   5.917   9.041   3.873 -1.5854 -0.1389  1.8734
 5043SOL    HW218628   5.784   9.079   3.814  0.0797  0.4156 -1.7805
 5044SOL     OW18629   2.333   5.866  10.978 -0.4845 -0.3552 -0.2266
 5044SOL    HW118630   2.386   5.787  10.967  1.0975  0.4913  0.9526
 5044SOL    HW218631   2.368   5.908  11.056 -1.2798  1.5311 -0.8262
 5045SOL     OW18632   7.879  10.861   4.835 -0.4074  0.0080 -0.2788
 5045SOL    HW118633   7.884  10.815   4.752 -0.2051 -0.5798  0.0501
 5045SOL    HW218634   7.833  10.942   4.815 -1.2545 -0.5810 -0.7664
 5046SOL     OW18635   8.282   1.340   0.031  0.3754  0.0548 -0.2559
 5046SOL    HW118636   8.352   1.392  -0.007  0.6356 -0.8405 -1.0384
 5046SOL    HW218637   8.308   1.327   0.123  1.0801 -0.0171 -0.4636
 5047SOL     OW18638   3.924   5.772   1.462  0.2104 -0.0823 -0.0652
 5047SOL    HW118639   3.974   5.727   1.530 -1.2696 -0.4714  0.8118
 5047SOL    HW218640   3.973   5.755   1.381  1.5232 -0.3591  0.7528
 5048SOL     OW18641   1.170   5.863   5.723  0.0850 -0.1038 -0.7432
 5048SOL    HW118642   1.220   5.867   5.641 -0.3589  1.5495 -0.9715
 5048SOL    HW218643   1.106   5.933   5.715  1.0022  1.1326  1.6443
 5049SOL     OW18644   8.224   1.357   4.251  0.4949 -0.0846 -0.9626
 5049SOL    HW118645   8.225   1.273   4.205  0.3741  0.1605 -1.4191
 5049SOL    HW218646   8.267   1.418   4.190  0.0911  0.3000 -0.8652
 5050SOL     OW18647   9.512   2.404   5.266  0.2183 -0.1308 -0.3189
 5050SOL    HW118648   9.498   2.349   5.189  0.4931  0.4522 -0.7953
 5050SOL    HW218649   9.603   2.432   5.259  0.6271 -1.0805  0.8912
 5051SOL     OW18650  10.815   6.211   6.754 -0.1122  0.0649 -0.1754
 5051SOL    HW118651  10.806   6.272   6.828  0.2993 -0.0783 -0.0013
 5051SOL    HW218652  10.746   6.236   6.694 -0.1056  0.5460  0.0095
 5052SOL     OW18653   4.190   9.013   9.292 -0.3185 -0.1873  0.0073
 5052SOL    HW118654   4.243   8.997   9.213 -1.5922 -2.0653 -0.5327
 5052SOL    HW218655   4.156   9.101   9.280 -0.1457 -0.2788 -1.3449
 5053SOL     OW18656   9.335   4.503   2.910 -0.2354  0.1145 -0.1863
 5053SOL    HW118657   9.349   4.579   2.853  0.1116  0.3792  0.2536
 5053SOL    HW218658   9.320   4.540   2.997 -0.2292 -0.3145 -0.0002
 5054SOL     OW18659   3.491   7.199   3.409 -0.3184 -0.5200 -0.0773
 5054SOL    HW118660   3.562   7.135   3.412 -0.4072 -0.6771 -1.1129
 5054SOL    HW218661   3.448   7.191   3.494 -2.2087 -4.0192 -1.1757
 5055SOL     OW18662   5.398   8.124   7.178  0.4250  0.1536 -0.3917
 5055SOL    HW118663   5.417   8.123   7.271 -0.3739 -1.5460 -0.2091
 5055SOL    HW218664   5.373   8.215   7.159  2.1208  0.8927  0.6806
 5056SOL     OW18665   8.356   3.703  10.112 -0.1590  0.4737 -0.0792
 5056SOL    HW118666   8.372   3.793  10.140  1.6407  0.5859 -1.2912
 5056SOL    HW218667   8.443   3.662  10.114 -0.2985 -0.1751 -2.9891
 5057SOL     OW18668   4.097   8.098   9.891 -0.1135  0.5132  0.2530
 5057SOL    HW118669   4.018   8.082   9.839  0.0611 -0.7111  0.3352
 5057SOL    HW218670   4.121   8.188   9.870  0.8518 -0.3598 -3.0545
 5058SOL     OW18671   4.064   6.054   7.369 -0.0678 -0.3162 -0.4591
 5058SOL    HW118672   4.001   5.983   7.357 -0.6409 -0.0242  0.6532
 5058SOL    HW218673   4.094   6.044   7.459  0.5613  0.2880 -0.5943
 5059SOL     OW18674   5.021   9.072   9.888  0.2903 -0.6043 -0.1138
 5059SOL    HW118675   5.014   9.069   9.984  1.8547 -1.4173  0.0218
 5059SOL    HW218676   4.934   9.097   9.858 -0.0946  0.2186  1.5483
 5060SOL     OW18677   2.445   1.046   2.952  0.6043  0.2343 -0.1351
 5060SOL    HW118678   2.376   1.020   2.891  0.9976  0.6426 -0.7774
 5060SOL    HW218679   2.457   0.970   3.009 -0.3910  0.1739  0.0107
 5061SOL     OW18680  10.869   5.029   7.273  0.0356  0.1693  0.6732
 5061SOL    HW118681  10.935   5.072   7.218 -0.4300 -0.2260 -0.2224
 5061SOL    HW218682  10.793   5.086   7.267 -1.1808 -1.5241 -1.9289
 5062SOL     OW18683   9.400   6.153   8.253  0.0793 -0.3941  0.0780
 5062SOL    HW118684   9.395   6.087   8.323 -0.2080 -0.9787 -0.4892
 5062SOL    HW218685   9.473   6.124   8.198 -0.3102 -0.4654 -0.4018
 5063SOL     OW18686   6.157  10.320   0.914  0.0231 -0.0139  0.0157
 5063SOL    HW118687   6.191  10.235   0.942  0.8529  0.3819  0.2456
 5063SOL    HW218688   6.065  10.304   0.895  0.6448 -1.4958 -2.1533
 5064SOL     OW18689   5.416   4.819   5.569  0.0535 -0.3819 -0.3699
 5064SOL    HW118690   5.420   4.840   5.662  0.5690 -0.6375 -0.3296
 5064SOL    HW218691   5.380   4.898   5.528  1.3440  0.3451 -0.1438
 5065SOL     OW18692  10.640   8.531   8.875  0.3225 -0.3157 -0.5147
 5065SOL    HW118693  10.634   8.521   8.780 -0.4134 -1.3245 -0.3844
 5065SOL    HW218694  10.567   8.479   8.909  1.0585 -0.6467  0.6349
 5066SOL     OW18695   3.310   5.865   9.089 -0.0254 -0.4430  0.1070
 5066SOL    HW118696   3.285   5.937   9.148  2.0922  1.2325 -0.9119
 5066SOL    HW218697   3.367   5.810   9.142 -0.0757 -0.2878  0.3269
 5067SOL     OW18698   1.924   4.447   1.696  0.2762 -0.0258  0.2803
 5067SOL    HW118699   1.895   4.537   1.680  1.3054  0.4064  0.7520
 5067SOL    HW218700   1.868   4.416   1.767 -0.5001  0.0135 -0.2987
 5068SOL     OW18701   4.606   2.973   1.225  0.0057  0.1506  0.1747
 5068SOL    HW118702   4.657   3.024   1.287  1.5041  0.3913 -1.2016
 5068SOL    HW218703   4.531   3.029   1.204  0.6270  0.9692  0.1174
 5069SOL     OW18704   5.742   6.858  10.609  0.0399  0.2397 -0.3491
 5069SOL    HW118705   5.672   6.896  10.557 -0.8037  0.5880  0.9930
 5069SOL    HW218706   5.735   6.901  10.694  0.6266 -1.1249  0.4275
 5070SOL     OW18707   4.095   8.405   0.041  0.6762 -0.0058 -0.8974
 5070SOL    HW118708   4.011   8.379   0.005  0.5849  0.2112 -0.8441
 5070SOL    HW218709   4.129   8.469  -0.021  1.0570 -0.5064 -1.2084
 5071SOL     OW18710   7.264   2.219   1.888 -0.0789  0.2523 -0.1919
 5071SOL    HW118711   7.206   2.263   1.949  0.4494  0.0334  0.4783
 5071SOL    HW218712   7.347   2.268   1.894  0.3961 -0.5944  0.2765
 5072SOL     OW18713   8.836   6.284   8.649  0.0555  0.6285  0.4866
 5072SOL    HW118714   8.824   6.224   8.723 -1.3537  1.0916  0.6641
 5072SOL    HW218715   8.909   6.339   8.675 -0.0395  0.3989  1.2769
 5073SOL     OW18716   6.902   9.746   5.738  0.1868 -0.1634  0.0731
 5073SOL    HW118717   6.929   9.832   5.770 -0.8077 -0.0633  0.7018
 5073SOL    HW218718   6.868   9.701   5.815 -0.5848 -0.5984 -0.4984
 5074SOL     OW18719   7.051   2.978   8.505 -0.1314 -0.5505  0.6477
 5074SOL    HW118720   7.105   2.900   8.496 -2.2843 -1.9672 -1.1068
 5074SOL    HW218721   7.084   3.039   8.439  2.3067  0.6457  2.7790
 5075SOL     OW18722   2.734   2.630   6.794  0.6998 -0.3444  0.4419
 5075SOL    HW118723   2.816   2.600   6.754  0.4278  0.6176 -0.9163
 5075SOL    HW218724   2.749   2.723   6.812 -0.7159  0.3779 -1.6973
 5076SOL     OW18725   1.889   0.658   5.714  0.0100  0.4481  0.3017
 5076SOL    HW118726   1.940   0.713   5.775 -1.4117  1.0051  1.0465
 5076SOL    HW218727   1.915   0.688   5.627  1.6478  0.0515  0.6292
 5077SOL     OW18728   6.421   4.976   4.712 -0.4569  0.8116  0.5780
 5077SOL    HW118729   6.336   5.011   4.742 -0.3155  1.3134  0.4143
 5077SOL    HW218730   6.485   5.042   4.741 -0.1460  0.5275  0.5348
 5078SOL     OW18731   4.773  10.559   1.481  0.4261  0.0535  0.1493
 5078SOL    HW118732   4.751  10.594   1.395 -0.7520 -1.2078 -0.0969
 5078SOL    HW218733   4.759  10.632   1.541 -2.1472  0.0251 -0.3230
 5079SOL     OW18734   5.718   9.944   5.052  0.5895 -0.6052  0.1873
 5079SOL    HW118735   5.720  10.003   5.127 -0.2241 -2.1476  1.4969
 5079SOL    HW218736   5.798   9.892   5.060  0.1864 -1.2076  0.3801
 5080SOL     OW18737   3.961  10.623   5.662  0.0971 -0.0619 -0.6692
 5080SOL    HW118738   3.933  10.647   5.750  2.0345  0.4223 -0.1377
 5080SOL    HW218739   3.979  10.529   5.667  3.3183  0.5069  0.4363
 5081SOL     OW18740   1.583   8.629   8.918  0.5528 -0.2902  0.1344
 5081SOL    HW118741   1.551   8.697   8.859  0.0385  0.4499  1.2441
 5081SOL    HW218742   1.512   8.565   8.922  0.5106 -0.2442  0.1116
 5082SOL     OW18743   3.238   6.053   3.485 -0.4019 -0.2717 -0.1134
 5082SOL    HW118744   3.314   6.016   3.439  0.0169 -0.4683  0.7204
 5082SOL    HW218745   3.165   5.996   3.460 -0.2882 -0.0775 -0.9269
 5083SOL     OW18746   8.935   8.155   5.381  0.1094 -0.4637 -0.3045
 5083SOL    HW118747   8.950   8.249   5.367  0.1488 -0.3747  0.3062
 5083SOL    HW218748   9.013   8.126   5.430 -0.3342 -0.6190  0.3163
 5084SOL     OW18749   7.332   8.518   0.504  0.0641 -0.4447  0.0965
 5084SOL    HW118750   7.413   8.469   0.516  0.4122  0.2333  0.5643
 5084SOL    HW218751   7.346   8.599   0.552 -0.5190  0.0954 -0.6230
 5085SOL     OW18752   7.234   9.880   7.920  0.0179 -0.0260  0.0340
 5085SOL    HW118753   7.329   9.880   7.934 -0.0543  0.0619  0.5351
 5085SOL    HW218754   7.217   9.799   7.871  0.3319 -0.1135  0.0659
 5086SOL     OW18755   6.256   6.816   3.022  0.0406  0.6574  0.9042
 5086SOL    HW118756   6.344   6.844   3.043  0.9449 -1.4479  0.2212
 5086SOL    HW218757   6.252   6.725   3.051 -1.4897  0.3335 -0.1893
 5087SOL     OW18758   8.835   8.169  10.933  0.0086 -0.5856 -0.4387
 5087SOL    HW118759   8.780   8.246  10.945 -1.5640 -1.6094 -0.8297
 5087SOL    HW218760   8.829   8.149  10.840  0.4446 -1.1647 -0.3526
 5088SOL     OW18761   7.370  10.111   7.730  0.3383  0.4894 -0.4595
 5088SOL    HW118762   7.304  10.044   7.713 -0.5264  1.5029 -1.2446
 5088SOL    HW218763   7.408  10.087   7.815 -0.8562 -0.2616 -0.1151
 5089SOL     OW18764   2.280   3.129   2.896 -1.1128 -0.7171 -0.2601
 5089SOL    HW118765   2.262   3.057   2.956  1.2394 -1.1410  0.0113
 5089SOL    HW218766   2.361   3.104   2.852 -0.9832  1.1519 -1.1609
 5090SOL     OW18767   8.692   9.439  10.080  0.0386  0.2272  0.4653
 5090SOL    HW118768   8.705   9.533  10.087 -1.9335  0.4932  1.0678
 5090SOL    HW218769   8.655   9.426   9.992 -1.0509  0.2118  0.9131
 5091SOL     OW18770   7.172   1.495   8.901 -0.1527 -0.1673 -0.0366
 5091SOL    HW118771   7.155   1.525   8.990  2.5495 -2.1870  1.3414
 5091SOL    HW218772   7.130   1.409   8.896 -2.2363  0.8647 -1.6041
 5092SOL     OW18773   2.944   8.582   9.520 -0.0237  0.3105 -0.2303
 5092SOL    HW118774   2.909   8.607   9.606  1.7202  0.6652  0.4275
 5092SOL    HW218775   3.003   8.509   9.539 -0.8318 -0.6511 -1.3713
 5093SOL     OW18776   8.507   1.481   1.141  0.5930  0.1326 -0.1521
 5093SOL    HW118777   8.431   1.508   1.194  0.2880  1.2094 -1.0851
 5093SOL    HW218778   8.582   1.498   1.197  0.3143  1.8431 -0.2404
 5094SOL     OW18779   9.825   8.038   0.701  0.0674 -0.7290  0.4888
 5094SOL    HW118780   9.742   8.039   0.748  1.2869  1.7439  2.8288
 5094SOL    HW218781   9.890   8.010   0.766  1.6292  1.4633 -0.0229
 5095SOL     OW18782   8.318   1.316  10.161 -0.2545  0.0433 -0.2294
 5095SOL    HW118783   8.336   1.343  10.071 -0.6650  1.6419  0.1334
 5095SOL    HW218784   8.268   1.235  10.152  2.0230 -1.3239 -1.3453
 5096SOL     OW18785  10.244   2.290   9.692 -0.1389 -0.6048 -0.1948
 5096SOL    HW118786  10.157   2.274   9.653 -0.5949  0.8468  0.1411
 5096SOL    HW218787  10.292   2.208   9.678 -0.8594 -0.7594 -2.2475
 5097SOL     OW18788   6.333   3.013   5.669  0.3012 -0.1378 -0.2708
 5097SOL    HW118789   6.407   3.074   5.675  1.2470 -1.3514  1.2457
 5097SOL    HW218790   6.374   2.928   5.655 -0.7108 -0.9620  1.4635
 5098SOL     OW18791   0.348   1.173   0.215  0.4856  0.4686  0.7042
 5098SOL    HW118792   0.349   1.220   0.299  0.7255  0.5876  0.6356
 5098SOL    HW218793   0.361   1.241   0.149 -0.4952  0.4867  0.5111
 5099SOL     OW18794   7.794   2.457   7.008 -0.7901  0.6511 -0.1324
 5099SOL    HW118795   7.818   2.533   6.956  1.1353  0.3198  0.1809
 5099SOL    HW218796   7.847   2.465   7.088 -1.9850 -0.0296  0.7628
 5100SOL     OW18797   4.394   5.656   4.294  1.2843  0.1288  0.0552
 5100SOL    HW118798   4.381   5.707   4.375  1.0874  0.3855 -0.1373
 5100SOL    HW218799   4.489   5.645   4.288  1.2049 -1.7344  1.4577
 5101SOL     OW18800   0.312   6.622   7.581  0.0786 -0.4417  0.1733
 5101SOL    HW118801   0.346   6.679   7.513 -0.9914 -1.9759 -1.7367
 5101SOL    HW218802   0.218   6.618   7.565 -0.0637 -1.6431  1.1308
 5102SOL     OW18803   7.589   8.198   3.572  0.1896 -0.5019 -0.1654
 5102SOL    HW118804   7.624   8.202   3.661 -1.8102  0.2258  0.6469
 5102SOL    HW218805   7.594   8.288   3.541  0.9828 -0.7710 -0.8763
 5103SOL     OW18806   4.185   3.886   6.754 -1.0561  0.9367 -0.1164
 5103SOL    HW118807   4.179   3.974   6.715  0.1840  2.2087  2.3398
 5103SOL    HW218808   4.157   3.898   6.845 -0.2785 -1.0874  0.4396
 5104SOL     OW18809  10.808   2.607   3.345 -0.1186 -0.2946  0.1288
 5104SOL    HW118810  10.856   2.631   3.424 -0.7097  3.0118 -0.3539
 5104SOL    HW218811  10.830   2.676   3.282 -4.0597  0.4836 -0.6692
 5105SOL     OW18812   8.876   1.836   5.060 -0.0111  0.8158 -0.2225
 5105SOL    HW118813   8.880   1.926   5.091 -0.2811  1.5287 -2.1107
 5105SOL    HW218814   8.818   1.792   5.121 -0.3017  2.0535  0.4275
 5106SOL     OW18815   0.560   3.431   1.503 -0.5331 -0.2054  0.3141
 5106SOL    HW118816   0.498   3.378   1.454 -1.0846  1.2401 -0.6394
 5106SOL    HW218817   0.520   3.443   1.589 -0.6998 -0.7833  0.3181
 5107SOL     OW18818   4.789   1.968   6.483  0.0053 -0.2763  0.0908
 5107SOL    HW118819   4.783   1.923   6.399  0.6235 -2.3777  1.1004
 5107SOL    HW218820   4.883   1.983   6.495 -0.2327  2.1043 -0.5770
 5108SOL     OW18821   3.240   3.250   5.112  0.9627 -0.3035 -0.2448
 5108SOL    HW118822   3.168   3.287   5.163  1.0165  2.0104 -1.7142
 5108SOL    HW218823   3.206   3.167   5.080 -0.6749  0.2519 -0.0391
 5109SOL     OW18824   4.855   7.084   5.620  0.0892 -0.2319  0.2139
 5109SOL    HW118825   4.770   7.088   5.665 -0.6192 -0.8569 -1.0307
 5109SOL    HW218826   4.861   6.994   5.589  1.0091 -0.0614 -0.1356
 5110SOL     OW18827  10.105   5.399   7.081  0.0581  0.2393  0.2518
 5110SOL    HW118828  10.068   5.431   7.163 -0.4269 -0.1392  0.1813
 5110SOL    HW218829  10.133   5.478   7.035 -0.8252  0.5445  0.2283
 5111SOL     OW18830   7.991   9.273   4.317 -0.1994  0.1349 -0.3699
 5111SOL    HW118831   8.040   9.301   4.240  0.0961  1.0216  0.1325
 5111SOL    HW218832   7.926   9.211   4.283 -0.2962  0.7761 -1.3768
 5112SOL     OW18833   9.650   2.189   9.762  0.5668 -0.5830 -0.2870
 5112SOL    HW118834   9.706   2.173   9.686 -1.1611  1.3502 -2.1021
 5112SOL    HW218835   9.572   2.135   9.746 -0.1026  0.3595 -0.2764
 5113SOL     OW18836   5.030   5.440   4.914 -0.4061 -0.6308 -0.2239
 5113SOL    HW118837   5.096   5.491   4.867 -0.9074  0.6701  0.4597
 5113SOL    HW218838   4.960   5.502   4.934 -2.4796 -2.2411 -2.0287
 5114SOL     OW18839   5.768   8.510   4.474  0.2810  0.9603 -0.2677
 5114SOL    HW118840   5.854   8.531   4.511  0.2216 -1.1714  1.2886
 5114SOL    HW218841   5.788   8.457   4.396  0.4370 -0.3712  0.6405
 5115SOL     OW18842   1.325   2.464   2.256 -0.1575 -0.2401 -0.4351
 5115SOL    HW118843   1.263   2.469   2.183 -1.3411  0.8596  0.5862
 5115SOL    HW218844   1.359   2.553   2.265 -0.4062 -0.2417  0.6385
 5116SOL     OW18845   4.019   1.582   4.748 -0.4891  0.4672  0.4186
 5116SOL    HW118846   4.092   1.536   4.790 -0.7075  0.4311  0.7582
 5116SOL    HW218847   3.978   1.631   4.819  0.0753  1.6340 -0.0288
 5117SOL     OW18848   6.962   8.250   7.536  0.3759  0.2547 -0.2307
 5117SOL    HW118849   6.936   8.175   7.591  0.0982  0.9189  0.5602
 5117SOL    HW218850   6.936   8.224   7.448 -1.0808  0.0204  0.2330
 5118SOL     OW18851   6.273   6.421   6.962 -0.5749  0.2490  0.5826
 5118SOL    HW118852   6.292   6.353   6.898  1.1932  1.4851 -0.3231
 5118SOL    HW218853   6.331   6.401   7.036 -2.1574 -0.8158  1.6057
 5119SOL     OW18854  10.875   8.917   0.975  0.0848  0.1629  1.0073
 5119SOL    HW118855  10.911   8.989   1.027  2.1068 -0.0458 -0.0128
 5119SOL    HW218856  10.819   8.959   0.910 -0.4004  0.6183  1.7092
 5120SOL     OW18857   6.812   0.792   4.299  0.2065 -0.4428  0.1935
 5120SOL    HW118858   6.845   0.852   4.366  1.0732 -0.0660 -0.5435
 5120SOL    HW218859   6.849   0.825   4.217 -1.3511 -0.4998 -0.5749
 5121SOL     OW18860   3.110   4.372   6.074  0.1123 -0.2411  0.6205
 5121SOL    HW118861   3.056   4.415   6.140 -2.2964 -1.4577 -0.4267
 5121SOL    HW218862   3.089   4.417   5.992 -0.2119 -1.4387  0.0135
 5122SOL     OW18863   3.189   3.402   8.388  0.1881  0.1766  0.3474
 5122SOL    HW118864   3.154   3.466   8.450 -0.0466 -0.0832  0.4871
 5122SOL    HW218865   3.129   3.403   8.314  0.2164  0.1618  0.3235
 5123SOL     OW18866   5.672   2.023   0.010 -0.0335 -0.7619 -0.1389
 5123SOL    HW118867   5.739   1.960  -0.016  0.9955 -0.0426  0.7103
 5123SOL    HW218868   5.660   2.007   0.104 -0.3089 -0.1925 -0.0779
 5124SOL     OW18869   0.349   1.726   5.789 -0.6949 -0.0575  0.2353
 5124SOL    HW118870   0.344   1.634   5.816  0.2655 -0.8818 -2.1213
 5124SOL    HW218871   0.345   1.723   5.694  2.3229  2.0530 -0.0958
 5125SOL     OW18872   2.227   8.790   2.683 -0.1689 -0.2386 -0.2222
 5125SOL    HW118873   2.153   8.851   2.684  1.0242  1.3720 -2.2468
 5125SOL    HW218874   2.200   8.720   2.623 -0.2946  0.0371 -0.4923
 5126SOL     OW18875   6.001   4.547   0.595  0.7162 -0.2337  0.0576
 5126SOL    HW118876   5.960   4.578   0.514  0.0864  2.1737  1.2069
 5126SOL    HW218877   5.941   4.481   0.629  0.1843 -0.1155 -0.6273
 5127SOL     OW18878   9.120   4.124   8.148 -0.7633  0.0920 -0.0190
 5127SOL    HW118879   9.031   4.090   8.138 -0.3535 -0.8518 -0.7530
 5127SOL    HW218880   9.116   4.181   8.224 -1.3719 -2.1499  1.7387
 5128SOL     OW18881   2.266   4.259   4.666  0.1808  0.1581  0.0586
 5128SOL    HW118882   2.219   4.337   4.697 -1.4520 -0.6252 -0.3406
 5128SOL    HW218883   2.243   4.253   4.573  2.0612  0.4105 -0.4560
 5129SOL     OW18884   2.199   1.204   6.090 -0.4051 -0.1550 -0.0123
 5129SOL    HW118885   2.161   1.121   6.118 -0.1696  0.2157  1.4642
 5129SOL    HW218886   2.165   1.217   6.001 -0.5413 -1.7546 -0.2189
 5130SOL     OW18887   6.054   2.610   5.534 -0.1857 -0.0460  0.0272
 5130SOL    HW118888   6.113   2.555   5.586  0.6160  0.0605 -0.7534
 5130SOL    HW218889   6.038   2.687   5.589  0.8517  0.1790  0.0323
 5131SOL     OW18890   5.520   0.910   0.453  0.6600 -0.7101 -0.2242
 5131SOL    HW118891   5.522   0.835   0.512 -1.2928  0.3036  1.2720
 5131SOL    HW218892   5.590   0.968   0.484  1.1119 -1.1920 -0.3467
 5132SOL     OW18893   7.077   5.412   9.189 -0.5582  0.0374 -0.1310
 5132SOL    HW118894   7.082   5.401   9.094  0.1208  0.3758 -0.1418
 5132SOL    HW218895   7.040   5.330   9.220 -0.3660 -0.2545 -0.6530
 5133SOL     OW18896   5.906   3.604   8.764  0.1765  0.1814 -0.7714
 5133SOL    HW118897   5.902   3.508   8.765 -2.0091  0.2161 -0.1799
 5133SOL    HW218898   5.981   3.624   8.709  1.3173 -1.8618 -0.0840
 5134SOL     OW18899   4.126   9.643   5.079  0.3387 -0.3395  0.0715
 5134SOL    HW118900   4.162   9.695   5.151 -0.7306  1.5857 -0.6841
 5134SOL    HW218901   4.052   9.596   5.119 -0.1127  0.5411  0.3021
 5135SOL     OW18902   1.667  10.588   6.402 -0.1654  0.4602 -0.2277
 5135SOL    HW118903   1.722  10.603   6.479  1.0516 -0.9800 -0.7525
 5135SOL    HW218904   1.719  10.621   6.329  0.2185 -1.2487 -0.7730
 5136SOL     OW18905   0.001   8.238   8.033 -0.0403 -0.0233 -0.0445
 5136SOL    HW118906   0.030   8.180   8.103  0.4322 -1.0635 -1.0712
 5136SOL    HW218907  -0.013   8.180   7.958 -0.8174  1.0195 -0.7377
 5137SOL     OW18908   8.559   7.136   9.701  0.1409 -0.0385 -0.4015
 5137SOL    HW118909   8.620   7.114   9.631 -1.4794 -3.0428 -1.0332
 5137SOL    HW218910   8.518   7.053   9.724 -1.7150  1.3955  1.9134
 5138SOL     OW18911   2.055   0.122   8.077 -0.2346  0.6926  0.1659
 5138SOL    HW118912   2.052   0.163   7.991 -1.8760 -0.0789 -0.1938
 5138SOL    HW218913   2.108   0.043   8.064 -2.3836 -0.7030 -0.8133
 5139SOL     OW18914   6.786   1.656  10.739  0.4765  0.0159 -0.2189
 5139SOL    HW118915   6.793   1.632  10.831  2.4139  1.6382  0.1097
 5139SOL    HW218916   6.759   1.748  10.740 -0.4575 -0.2270 -1.3035
 5140SOL     OW18917   0.139   1.287  10.934  0.5092  0.0144 -0.5079
 5140SOL    HW118918   0.208   1.351  10.951 -1.0374  1.4959  0.4897
 5140SOL    HW218919   0.181   1.202  10.950  2.1712  0.8293 -0.2751
 5141SOL     OW18920   7.613  10.025   9.147 -0.1216  0.0249  0.3466
 5141SOL    HW118921   7.528   9.983   9.142 -0.2739  0.2744  0.7788
 5141SOL    HW218922   7.651   9.994   9.230  0.0903  0.1320  0.2920
 5142SOL     OW18923   0.073   3.801   5.915  0.4559 -0.4559  0.0076
 5142SOL    HW118924   0.143   3.740   5.939  1.2081  0.9452  1.5909
 5142SOL    HW218925  -0.008   3.754   5.936  0.9996 -1.1644  0.5896
 5143SOL     OW18926   4.954   8.949   2.737  0.6891 -0.5992 -0.2607
 5143SOL    HW118927   4.905   8.867   2.728 -0.2388 -0.1147  0.2023
 5143SOL    HW218928   5.024   8.928   2.799 -2.4129  0.0819  3.9166
 5144SOL     OW18929   1.876   6.621   3.189  0.6216  0.2285  0.2546
 5144SOL    HW118930   1.933   6.663   3.125  1.1834 -1.2113 -0.2328
 5144SOL    HW218931   1.816   6.567   3.136  0.1897  0.0931  0.8692
 5145SOL     OW18932   4.347   6.612   3.963 -1.1376  0.3660 -0.0408
 5145SOL    HW118933   4.321   6.619   4.055 -0.4613  0.3609  0.1518
 5145SOL    HW218934   4.437   6.580   3.965 -1.5359 -0.8884 -0.7413
 5146SOL     OW18935   3.902   4.600  10.366  0.2627  0.0802 -0.3032
 5146SOL    HW118936   3.887   4.694  10.365 -0.7829 -0.0726 -1.7648
 5146SOL    HW218937   3.979   4.587  10.309 -0.3048 -0.0291 -1.0661
 5147SOL     OW18938   4.974   3.014   2.976 -0.4918  0.0563 -0.1528
 5147SOL    HW118939   5.056   3.045   2.936 -0.7723 -1.2058 -1.8151
 5147SOL    HW218940   4.910   3.082   2.956 -0.0669  0.6097  0.3431
 5148SOL     OW18941   8.918   6.310   7.491  0.1468 -0.3668 -0.8296
 5148SOL    HW118942   8.850   6.368   7.524 -0.5262 -0.1746 -2.4505
 5148SOL    HW218943   8.969   6.364   7.430  0.7379 -0.9490 -0.8665
 5149SOL     OW18944  10.295   4.251   5.276 -0.4044 -0.0709  0.2997
 5149SOL    HW118945  10.235   4.176   5.271 -3.3440  1.7292  3.6516
 5149SOL    HW218946  10.359   4.226   5.343 -1.9268  0.6003  2.0869
 5150SOL     OW18947  10.854   6.339   9.864  0.2171  0.5270  0.7449
 5150SOL    HW118948  10.948   6.320   9.856  0.2813  1.2164 -0.3702
 5150SOL    HW218949  10.822   6.276   9.929  0.8143 -2.0086 -1.2248
 5151SOL     OW18950   9.099   6.713   0.006 -0.2714  0.1519 -0.1413
 5151SOL    HW118951   9.138   6.700  -0.081 -0.3984  1.1180 -0.3525
 5151SOL    HW218952   9.102   6.627   0.047  1.7655  0.0862 -0.2930
 5152SOL     OW18953   8.210   2.533   6.161  0.3661  0.0564  0.8921
 5152SOL    HW118954   8.197   2.567   6.072  1.0243  1.8945  1.4621
 5152SOL    HW218955   8.206   2.438   6.150  0.0602  0.2425 -1.0449
 5153SOL     OW18956   7.646   0.017   4.555 -0.0131  0.0020  0.1110
 5153SOL    HW118957   7.579   0.084   4.562 -1.3009 -1.2901  0.5279
 5153SOL    HW218958   7.658   0.005   4.461  0.3481  0.8988  0.0282
 5154SOL     OW18959   6.537   8.739   4.489  0.9937  0.3626 -0.1753
 5154SOL    HW118960   6.549   8.652   4.452 -0.2694  0.1800 -0.1778
 5154SOL    HW218961   6.568   8.731   4.580 -1.1705 -0.7115  0.5245
 5155SOL     OW18962   9.565  10.475   2.098  0.1203 -0.4116 -0.2559
 5155SOL    HW118963   9.580  10.382   2.081  0.1046 -0.1344 -1.9250
 5155SOL    HW218964   9.590  10.519   2.017 -0.5132  0.9893  0.2690
 5156SOL     OW18965   9.273   5.025   1.111  0.0613 -0.0755 -0.3197
 5156SOL    HW118966   9.311   5.083   1.044 -1.5376  0.2153 -1.0208
 5156SOL    HW218967   9.179   5.044   1.108 -0.2210 -1.1653  0.9621
 5157SOL     OW18968   7.450   9.860   5.616  0.2709  0.4198  0.0161
 5157SOL    HW118969   7.450   9.870   5.521  1.6141 -1.2322 -0.1898
 5157SOL    HW218970   7.449   9.766   5.631  3.5102  0.4814  1.5512
 5158SOL     OW18971  10.551   5.762   3.489  0.3586  0.4975  0.1601
 5158SOL    HW118972  10.610   5.783   3.417  0.2076  0.7164  0.1007
 5158SOL    HW218973  10.589   5.683   3.528  0.9094  0.8540  0.3656
 5159SOL     OW18974   9.477   7.017   5.033 -0.4126 -0.0889  0.2548
 5159SOL    HW118975   9.439   7.036   5.118 -2.1582  0.7771 -0.6600
 5159SOL    HW218976   9.512   6.928   5.041  2.7803  1.1755  2.9263
 5160SOL     OW18977   1.489   1.298  10.441 -0.1204 -0.2653 -0.3663
 5160SOL    HW118978   1.487   1.311  10.535  2.8758  1.2776 -0.3775
 5160SOL    HW218979   1.531   1.213  10.429 -1.9924 -1.2222 -0.3477
 5161SOL     OW18980   9.251   3.498  10.598 -0.0642 -0.3240  0.3029
 5161SOL    HW118981   9.199   3.422  10.622 -0.1139 -0.7286 -0.9757
 5161SOL    HW218982   9.272   3.541  10.681 -1.3083 -0.8858  0.9242
 5162SOL     OW18983   7.580   1.459   5.806 -0.0532  0.4217  0.1874
 5162SOL    HW118984   7.638   1.415   5.868 -0.0701 -2.1436 -1.4865
 5162SOL    HW218985   7.639   1.495   5.739 -0.2422 -0.1618 -0.2992
 5163SOL     OW18986   2.726   0.020   6.614 -0.5615 -0.2672 -0.1020
 5163SOL    HW118987   2.805  -0.026   6.585 -0.1248  1.2913 -1.4781
 5163SOL    HW218988   2.742   0.112   6.593 -1.7792  0.4339  1.7667
 5164SOL     OW18989   1.787   7.306   6.411 -0.0270  0.1660 -0.2973
 5164SOL    HW118990   1.762   7.224   6.452  0.8626 -0.5143 -1.0660
 5164SOL    HW218991   1.880   7.315   6.431 -0.0762  0.9057 -0.3658
 5165SOL     OW18992   2.103   7.593   7.511  0.0436 -0.2471 -0.1558
 5165SOL    HW118993   2.178   7.653   7.511 -1.1096  1.2711 -0.4965
 5165SOL    HW218994   2.065   7.602   7.423  0.1023 -1.8710 -0.3822
 5166SOL     OW18995  10.595   0.479   0.731  0.2480 -0.1396  0.1449
 5166SOL    HW118996  10.592   0.508   0.640  1.1841 -1.5663 -0.3557
 5166SOL    HW218997  10.629   0.390   0.728  0.4359 -0.1685  1.9104
 5167SOL     OW18998   2.739   9.318  10.256  0.4509  0.1407  0.0893
 5167SOL    HW118999   2.670   9.339  10.194 -0.3615 -1.5398  0.3635
 5167SOL    HW219000   2.806   9.385  10.242  0.0503  0.1290 -2.1928
 5168SOL     OW19001  10.105   1.667   1.954  0.2344  0.2888  0.2086
 5168SOL    HW119002  10.127   1.719   1.877  0.5360  1.2653  0.9278
 5168SOL    HW219003  10.190   1.638   1.988  0.0767 -0.5388 -0.0882
 5169SOL     OW19004   4.765   8.470   0.231  0.6214 -0.3624 -0.1687
 5169SOL    HW119005   4.694   8.446   0.172 -1.1979  0.0753  1.7210
 5169SOL    HW219006   4.794   8.556   0.201 -0.6082  0.0699 -0.1663
 5170SOL     OW19007   6.488   3.780   8.236 -0.3793 -0.5608  0.0545
 5170SOL    HW119008   6.501   3.696   8.281  0.7134  0.8745  2.6452
 5170SOL    HW219009   6.500   3.846   8.305  2.6721  1.9170 -2.5520
 5171SOL     OW19010   9.700   4.059   2.379 -0.3799 -0.0222  0.0706
 5171SOL    HW119011   9.643   3.984   2.361 -1.6073  0.1039  2.9312
 5171SOL    HW219012   9.645   4.120   2.428  0.9790  2.1849 -1.0216
 5172SOL     OW19013   3.801   3.716   6.321 -0.2108 -0.2281 -0.2762
 5172SOL    HW119014   3.779   3.729   6.413 -3.1246 -1.1886 -0.7318
 5172SOL    HW219015   3.799   3.804   6.283 -1.1841 -0.0480  0.1723
 5173SOL     OW19016   8.322   1.001  10.105 -0.4108 -0.0738 -0.4166
 5173SOL    HW119017   8.261   0.936  10.069  0.9865 -1.9204  0.3649
 5173SOL    HW219018   8.386   0.949  10.155  0.8939  1.9076  0.1083
 5174SOL     OW19019   7.365   6.445  10.586  0.6217 -0.1920 -0.1323
 5174SOL    HW119020   7.293   6.391  10.618  1.0913  0.1950  1.6560
 5174SOL    HW219021   7.326   6.530  10.569  0.8910  0.5287  2.4418
 5175SOL     OW19022   4.223   4.686   5.406 -0.5148 -0.0548 -0.4869
 5175SOL    HW119023   4.158   4.618   5.386  1.9943 -2.4580 -1.0745
 5175SOL    HW219024   4.281   4.687   5.330  1.3360  0.4952  0.8688
 5176SOL     OW19025   1.234  10.783   1.317  0.5723  0.4234  0.5898
 5176SOL    HW119026   1.220  10.878   1.321 -0.5104  0.3980 -1.5017
 5176SOL    HW219027   1.322  10.774   1.281  0.5145  0.6305  0.3933
 5177SOL     OW19028   1.973   9.502   0.831  0.0275 -0.7147 -0.2739
 5177SOL    HW119029   2.063   9.480   0.852  0.5590 -1.9056 -3.3238
 5177SOL    HW219030   1.922   9.429   0.867  0.4045 -0.6526  0.3986
 5178SOL     OW19031   9.818   0.850   2.585 -0.0642  0.3779 -0.3177
 5178SOL    HW119032   9.736   0.900   2.591  1.0123  2.1614  0.1325
 5178SOL    HW219033   9.826   0.829   2.492  0.1870  2.3993 -0.7993
 5179SOL     OW19034   5.510   3.831   8.732  0.0001  0.0849  0.0980
 5179SOL    HW119035   5.462   3.836   8.649 -4.2766  2.9952  2.3815
 5179SOL    HW219036   5.521   3.737   8.748 -0.3780 -0.5987 -2.9794
 5180SOL     OW19037   3.282   4.311   9.164 -0.0770  0.0650  0.0729
 5180SOL    HW119038   3.225   4.235   9.174 -0.4781  0.3076 -0.3037
 5180SOL    HW219039   3.281   4.354   9.250 -2.9261  1.7506 -0.6487
 5181SOL     OW19040   8.417   9.775   8.217 -0.9691 -0.0357 -0.9563
 5181SOL    HW119041   8.471   9.698   8.202 -1.8360 -1.0702  0.9256
 5181SOL    HW219042   8.328   9.741   8.226 -1.6450  1.3930 -1.7877
 5182SOL     OW19043   5.867   6.574   7.459 -0.4251  0.2003  0.2774
 5182SOL    HW119044   5.951   6.603   7.422 -0.8059  1.3723  0.2814
 5182SOL    HW219045   5.817   6.544   7.383 -0.7877  1.5427 -0.0478
 5183SOL     OW19046   6.850   8.775  10.091  0.0186  0.8382 -0.1778
 5183SOL    HW119047   6.770   8.770  10.039 -0.5840  1.9828  0.6010
 5183SOL    HW219048   6.848   8.862  10.130  0.9379  0.3622  0.9911
 5184SOL     OW19049   5.244   3.104   6.188  0.0576  0.0522  0.2697
 5184SOL    HW119050   5.211   3.033   6.132  1.3683 -1.7733  1.6620
 5184SOL    HW219051   5.284   3.166   6.127 -1.0836 -0.4094 -1.0079
 5185SOL     OW19052   2.742   8.973   5.290  0.3859  0.3390 -0.1682
 5185SOL    HW119053   2.665   8.967   5.346  0.9039 -0.1522  0.5123
 5185SOL    HW219054   2.767   9.065   5.292 -0.2715  0.5277 -0.5201
 5186SOL     OW19055   4.447   5.912   3.725 -0.0494  0.1693 -0.3696
 5186SOL    HW119056   4.436   5.870   3.640 -0.7641 -1.3552  0.4360
 5186SOL    HW219057   4.373   5.972   3.732  0.5973  1.0999 -1.2445
 5187SOL     OW19058  10.849   8.660   7.194  0.0980 -0.1399 -0.4823
 5187SOL    HW119059  10.935   8.648   7.235  1.4684 -0.7759 -3.3387
 5187SOL    HW219060  10.824   8.573   7.164 -1.8772 -0.0760  0.7834
 5188SOL     OW19061   5.762   9.679   3.240  0.2494  0.3596  0.0524
 5188SOL    HW119062   5.710   9.750   3.278 -0.5682  0.0194 -0.4051
 5188SOL    HW219063   5.839   9.673   3.297  0.3022  1.5557  0.1418
 5189SOL     OW19064   5.021   7.791   3.967 -0.2567 -0.1214 -0.8402
 5189SOL    HW119065   5.078   7.728   3.924 -0.6654 -1.4737  0.5301
 5189SOL    HW219066   4.939   7.743   3.984 -1.3500  1.3771 -1.5824
 5190SOL     OW19067   9.679   5.169   9.486 -0.0329 -0.4450 -0.2617
 5190SOL    HW119068   9.772   5.161   9.508  0.0274  0.8355  0.0240
 5190SOL    HW219069   9.644   5.080   9.498  1.0012 -0.7949  0.3267
 5191SOL     OW19070   9.588   3.412   3.111 -0.0132 -0.2506  0.0590
 5191SOL    HW119071   9.581   3.434   3.204 -1.3105 -1.5108  0.2998
 5191SOL    HW219072   9.678   3.436   3.088 -0.2892  2.0458  1.0672
 5192SOL     OW19073   9.162   1.061   4.515 -0.2340  0.5085 -0.1457
 5192SOL    HW119074   9.072   1.050   4.485 -0.3934 -0.2735  0.5709
 5192SOL    HW219075   9.184   1.152   4.494 -1.0483  0.5867 -0.6936
 5193SOL     OW19076   9.018   2.926   6.366  0.1859 -0.5742 -0.2904
 5193SOL    HW119077   9.109   2.955   6.373  0.0406 -0.2177  0.1371
 5193SOL    HW219078   9.013   2.882   6.281 -0.3092  3.3063 -2.4780
 5194SOL     OW19079   9.230   7.533   3.672 -0.3679  0.4883  0.3406
 5194SOL    HW119080   9.205   7.470   3.604  0.5731  1.5614 -1.0496
 5194SOL    HW219081   9.258   7.480   3.746  0.2079 -0.7249 -0.7277
 5195SOL     OW19082   5.244  10.683   9.971  0.4039 -0.4402 -0.2010
 5195SOL    HW119083   5.154  10.677  10.005  0.4627 -1.2474 -0.1804
 5195SOL    HW219084   5.272  10.592   9.961  1.4528 -0.1943  0.4101
 5196SOL     OW19085  10.518  10.389   3.209 -0.3429 -0.1465 -0.2415
 5196SOL    HW119086  10.480  10.471   3.243  0.1864 -0.3711  0.9482
 5196SOL    HW219087  10.482  10.381   3.121 -0.6240  1.2303 -0.2769
 5197SOL     OW19088   6.665   7.588   6.935 -0.1637 -0.2719 -0.1510
 5197SOL    HW119089   6.733   7.521   6.935 -0.4333 -0.5815  1.3652
 5197SOL    HW219090   6.649   7.606   6.843  1.7108 -0.4528 -0.5562
 5198SOL     OW19091   1.716   7.012   3.241  0.2351 -0.2011 -0.5146
 5198SOL    HW119092   1.798   7.011   3.289 -0.7960  0.9829  1.4312
 5198SOL    HW219093   1.674   7.094   3.267 -1.3010 -0.4781 -1.9188
 5199SOL     OW19094   2.135   0.710   4.296  0.1369  0.2140  0.1927
 5199SOL    HW119095   2.079   0.743   4.226 -0.5035 -0.7304  0.2459
 5199SOL    HW219096   2.098   0.748   4.376  0.3478  0.6108  0.1014
 5200SOL     OW19097   6.169   2.223   5.978 -0.6795 -0.5636  0.4718
 5200SOL    HW119098   6.098   2.259   5.926 -1.3418 -0.4027  1.4534
 5200SOL    HW219099   6.181   2.286   6.050  1.4417  0.1700 -0.4320
 5201SOL     OW19100   0.478   8.913   6.957  0.6954  0.0460  0.0891
 5201SOL    HW119101   0.521   8.918   6.872 -0.4598  0.0051 -0.5169
 5201SOL    HW219102   0.415   8.841   6.949 -0.7111  1.1969  0.3458
 5202SOL     OW19103   9.925   9.714   4.760  0.1866 -0.5483  0.4164
 5202SOL    HW119104   9.860   9.746   4.697  0.0337  0.5031  1.0842
 5202SOL    HW219105   9.903   9.621   4.772  0.7578 -1.0173 -1.7210
 5203SOL     OW19106   9.436   5.640   9.487 -0.0119  0.7883  0.4918
 5203SOL    HW119107   9.351   5.602   9.507  0.2562 -0.7404 -1.0371
 5203SOL    HW219108   9.451   5.618   9.395  2.7895 -0.4660  1.1547
 5204SOL     OW19109   1.800  10.127   8.848  0.1021 -0.3791 -0.3005
 5204SOL    HW119110   1.861  10.170   8.908 -1.7553  1.2708  0.5067
 5204SOL    HW219111   1.856  10.070   8.794  2.0841 -0.3507  1.5930
 5205SOL     OW19112   1.722   2.538   6.866  0.3025  0.0157  0.7612
 5205SOL    HW119113   1.755   2.482   6.935 -1.0366 -0.6806  0.8817
 5205SOL    HW219114   1.639   2.497   6.840 -0.7252  1.9239  0.8484
 5206SOL     OW19115   7.359   6.269   8.711 -0.6917  0.9512 -0.5242
 5206SOL    HW119116   7.342   6.360   8.687 -0.6502  0.7930 -1.1741
 5206SOL    HW219117   7.391   6.274   8.801  0.5824  1.7134 -0.9857
 5207SOL     OW19118   9.206   8.725  10.069  0.0698 -0.8060  0.4517
 5207SOL    HW119119   9.243   8.685   9.991 -0.5783  0.6647 -0.6583
 5207SOL    HW219120   9.281   8.765  10.113  0.2793 -0.6996 -0.0013
 5208SOL     OW19121   6.142   3.649   1.208  0.3013  0.3034  0.2142
 5208SOL    HW119122   6.133   3.741   1.234  0.8863  0.0635  1.3493
 5208SOL    HW219123   6.057   3.626   1.170  0.2103  1.3559 -0.2638
 5209SOL     OW19124   6.181   2.123   2.398 -0.5214  0.3007  0.4698
 5209SOL    HW119125   6.257   2.151   2.346 -1.3880  1.2800 -0.3175
 5209SOL    HW219126   6.219   2.093   2.480  0.8648 -0.9641 -0.5720
 5210SOL     OW19127   9.137  10.398   9.339 -0.1264  0.0670 -0.3996
 5210SOL    HW119128   9.100  10.310   9.341 -0.8347  0.3316 -1.1587
 5210SOL    HW219129   9.163  10.416   9.430 -1.5530 -0.2758  0.1011
 5211SOL     OW19130   6.072   9.723   7.020 -1.0833 -0.1745  0.2950
 5211SOL    HW119131   6.097   9.795   6.961 -0.9225  1.9951  2.8381
 5211SOL    HW219132   6.122   9.738   7.100 -2.1080 -2.3457  1.4355
 5212SOL     OW19133   9.413   3.220   4.531  0.0294 -0.3171  0.4845
 5212SOL    HW119134   9.375   3.307   4.520 -0.3852 -0.7084 -1.5875
 5212SOL    HW219135   9.398   3.176   4.447  1.7731 -1.7883  0.8638
 5213SOL     OW19136   3.404   0.329   4.551  0.0105 -0.1514  1.1408
 5213SOL    HW119137   3.412   0.269   4.476  0.2795  0.3573  0.7543
 5213SOL    HW219138   3.448   0.283   4.623  0.6807 -0.1997  0.7135
 5214SOL     OW19139   7.420   4.740   4.739  0.5845 -0.2918 -0.9097
 5214SOL    HW119140   7.368   4.735   4.820  1.4948  0.9002 -0.2184
 5214SOL    HW219141   7.355   4.735   4.669 -0.2588 -1.0256 -0.1108
 5215SOL     OW19142   6.736   0.062   3.746 -0.3664  0.0003  0.1379
 5215SOL    HW119143   6.764   0.136   3.691  0.2837  0.2276  0.7597
 5215SOL    HW219144   6.806   0.053   3.811 -1.1004 -0.2870  0.9026
 5216SOL     OW19145   4.355   4.346   0.983 -0.3698  0.4185 -0.5390
 5216SOL    HW119146   4.319   4.413   0.925 -2.3835 -0.2643 -0.1518
 5216SOL    HW219147   4.288   4.333   1.050  0.8505 -0.5422  0.5533
 5217SOL     OW19148   5.522   7.846   1.959 -0.2992 -0.2681  0.4153
 5217SOL    HW119149   5.511   7.779   2.026 -0.1717  0.3393  1.0475
 5217SOL    HW219150   5.615   7.867   1.960  0.0182 -1.3920 -1.0734
 5218SOL     OW19151   1.391   0.382   1.151 -0.0587  0.4718 -0.1193
 5218SOL    HW119152   1.402   0.287   1.161  1.2320  0.3994 -1.8192
 5218SOL    HW219153   1.478   0.417   1.168 -0.7201  1.4995  1.4235
 5219SOL     OW19154   4.642  10.304   0.257 -0.0262  0.2868 -0.4640
 5219SOL    HW119155   4.702  10.328   0.186  0.3958 -0.4640 -0.3789
 5219SOL    HW219156   4.596  10.227   0.223  1.2271 -0.9944  0.6064
 5220SOL     OW19157   8.082   2.712   9.189 -0.2481 -0.4472 -0.2563
 5220SOL    HW119158   8.157   2.757   9.228 -0.2596 -1.5223  1.1085
 5220SOL    HW219159   8.110   2.691   9.100  0.8862 -0.3999  0.0721
 5221SOL     OW19160   1.656   9.779   6.326  0.0945 -0.0137 -0.4765
 5221SOL    HW119161   1.690   9.823   6.247  1.9012  0.0797  0.3134
 5221SOL    HW219162   1.576   9.828   6.347  0.1880  0.6713 -1.5891
 5222SOL     OW19163   0.010   0.692   6.436  0.2776 -0.6724  0.0531
 5222SOL    HW119164  -0.002   0.763   6.373 -2.3131 -0.7730  0.3372
 5222SOL    HW219165  -0.003   0.734   6.521 -0.0806 -1.2681  0.2923
 5223SOL     OW19166   3.752   1.847   5.212 -0.6316 -0.4197  0.0606
 5223SOL    HW119167   3.771   1.921   5.154  0.2053 -0.6785 -0.0054
 5223SOL    HW219168   3.827   1.843   5.271  0.0237 -2.0630 -0.8170
 5224SOL     OW19169   3.362   9.781   7.372  0.1053  0.8559 -0.2188
 5224SOL    HW119170   3.298   9.713   7.389  0.6023  0.5235  0.3674
 5224SOL    HW219171   3.313   9.863   7.377  0.0211  0.7228  1.9081
 5225SOL     OW19172   1.379   5.687   5.238 -0.2669 -0.1268 -0.2780
 5225SOL    HW119173   1.469   5.682   5.206 -0.5705  2.3392 -1.8012
 5225SOL    HW219174   1.375   5.770   5.285 -1.8890  0.1386 -0.8316
 5226SOL     OW19175   4.368   1.329   0.912 -0.0476  0.3515 -0.1815
 5226SOL    HW119176   4.315   1.307   0.989 -1.4259 -0.7647 -1.3845
 5226SOL    HW219177   4.450   1.282   0.925 -0.7467 -0.8537  0.0282
 5227SOL     OW19178   1.755   9.255   9.292 -0.2581 -0.2075  0.1629
 5227SOL    HW119179   1.821   9.298   9.346 -0.4047 -2.2311  2.1077
 5227SOL    HW219180   1.779   9.162   9.294 -1.4880 -0.6249 -1.5835
 5228SOL     OW19181   6.513   0.455   9.887  0.1856  0.1288 -0.3619
 5228SOL    HW119182   6.463   0.388   9.934 -1.4366  0.8496 -1.0094
 5228SOL    HW219183   6.580   0.483   9.950  0.9504 -2.1037 -0.0957
 5229SOL     OW19184   6.290   3.539   5.869  0.5129 -0.3473  0.0369
 5229SOL    HW119185   6.360   3.480   5.895  1.1787  0.4283  0.0592
 5229SOL    HW219186   6.316   3.570   5.782  1.3069  1.5520  0.8911
 5230SOL     OW19187   2.485   1.134   4.745 -0.0278 -0.3234 -0.9670
 5230SOL    HW119188   2.392   1.144   4.721  0.0594 -1.8543 -2.0666
 5230SOL    HW219189   2.527   1.211   4.707 -1.0176  1.1881  0.8049
 5231SOL     OW19190   7.785   9.413   6.228 -0.3376 -0.2268  0.2714
 5231SOL    HW119191   7.849   9.342   6.236  0.8179  0.5826 -1.1919
 5231SOL    HW219192   7.831   9.491   6.259 -0.2666  0.5162 -1.5627
 5232SOL     OW19193   5.913   6.722  10.222 -0.5492  0.2006 -0.2671
 5232SOL    HW119194   5.998   6.722  10.267 -0.4234 -0.9542 -0.4784
 5232SOL    HW219195   5.884   6.813  10.227  1.6513  1.1113 -1.9770
 5233SOL     OW19196   4.367   6.662  10.810 -0.3681 -0.2402  0.2995
 5233SOL    HW119197   4.342   6.573  10.786 -0.1697 -0.1027 -0.4311
 5233SOL    HW219198   4.458   6.670  10.782 -0.7442  0.5863 -0.7674
 5234SOL     OW19199   4.955   3.115   7.680 -0.5755  0.0921  0.8052
 5234SOL    HW119200   5.009   3.035   7.674  0.9072  1.1000  0.0258
 5234SOL    HW219201   4.912   3.120   7.595  0.4466  0.8416  0.3087
 5235SOL     OW19202   6.950  10.090   4.415 -0.1065  0.3276 -0.5760
 5235SOL    HW119203   6.867  10.092   4.368  1.1399  1.3764 -2.8855
 5235SOL    HW219204   6.934  10.031   4.489 -2.9562  0.7474 -0.7504
 5236SOL     OW19205   3.180   6.036   1.909  0.0436  1.1004  1.0095
 5236SOL    HW119206   3.196   6.079   1.825 -1.0710  1.3411  0.9035
 5236SOL    HW219207   3.265   6.034   1.952  0.8193  0.1525 -0.5019
 5237SOL     OW19208   5.605   0.706   7.030 -0.3063  0.5577 -0.2750
 5237SOL    HW119209   5.666   0.649   7.077  0.9736  1.9360 -0.1875
 5237SOL    HW219210   5.519   0.671   7.050  0.2538  0.4751  2.2873
 5238SOL     OW19211   7.066   4.278   2.315 -0.0492 -0.4162 -0.6958
 5238SOL    HW119212   7.093   4.243   2.230  0.2602 -1.1392 -0.3084
 5238SOL    HW219213   7.084   4.208   2.376 -2.2605 -0.7078 -0.3073
 5239SOL     OW19214   7.153   0.793   4.715  0.0017 -0.5556  0.1211
 5239SOL    HW119215   7.135   0.885   4.700  0.2041 -0.7557 -1.5034
 5239SOL    HW219216   7.177   0.788   4.808 -1.6057  0.7464  0.6599
 5240SOL     OW19217   9.009   4.689   4.020 -0.1816  0.5945  0.6378
 5240SOL    HW119218   9.077   4.743   4.061 -0.6612  1.8319 -0.1561
 5240SOL    HW219219   8.981   4.739   3.944 -0.2656 -1.0294 -0.4491
 5241SOL     OW19220   8.073   4.161   7.648  0.2176 -0.3528  0.0747
 5241SOL    HW119221   8.030   4.230   7.698 -0.0043 -0.6939  0.3584
 5241SOL    HW219222   8.129   4.208   7.586 -2.4468  0.2311 -2.0839
 5242SOL     OW19223   4.871   6.946   8.352  0.6885  0.4707  0.5012
 5242SOL    HW119224   4.854   6.894   8.430  1.2542 -0.1001  0.2455
 5242SOL    HW219225   4.940   6.899   8.305  2.4993  2.3267  1.1401
 5243SOL     OW19226  10.446   2.563   4.134  0.1756  0.3079  0.2557
 5243SOL    HW119227  10.357   2.580   4.103  0.3850  1.6039  0.2999
 5243SOL    HW219228  10.461   2.630   4.201  0.8470 -0.5096  0.9547
 5244SOL     OW19229   9.473   6.066   0.026 -0.4719  0.0256  0.2108
 5244SOL    HW119230   9.549   6.010   0.011 -0.0148  0.3064  1.3773
 5244SOL    HW219231   9.461   6.065   0.121 -1.4059  0.6766  0.1118
 5245SOL     OW19232   4.329   1.885  10.680 -0.0360  0.4254 -0.2248
 5245SOL    HW119233   4.290   1.920  10.760 -0.8212 -2.4930  0.7969
 5245SOL    HW219234   4.412   1.847  10.709 -0.1468 -0.3140 -0.8498
 5246SOL     OW19235   5.352   1.458   2.025  0.1554  0.0507 -0.1502
 5246SOL    HW119236   5.416   1.462   2.096  0.6968  4.0795 -0.6185
 5246SOL    HW219237   5.392   1.401   1.960  1.4106 -0.6825  1.1977
 5247SOL     OW19238   6.293  10.181   3.822 -0.1000 -0.4207  0.9414
 5247SOL    HW119239   6.303  10.149   3.911 -0.3101 -0.3821  0.9790
 5247SOL    HW219240   6.382  10.182   3.786  0.0022 -0.2994  1.1972
 5248SOL     OW19241   9.324   6.724   4.258  0.0485  0.1276  0.5440
 5248SOL    HW119242   9.294   6.754   4.344  0.2798 -0.3620  0.7981
 5248SOL    HW219243   9.244   6.711   4.208 -0.1120 -0.1310  0.8659
 5249SOL     OW19244  10.314   4.738   7.862 -0.2269 -0.1251  0.6570
 5249SOL    HW119245  10.343   4.663   7.915  0.2821  0.2452  0.9077
 5249SOL    HW219246  10.368   4.811   7.891 -0.7780  0.3697  0.4722
 5250SOL     OW19247   1.670   7.957   4.753  0.5265 -0.1876 -0.2346
 5250SOL    HW119248   1.618   8.021   4.802 -2.1145 -1.2065 -1.4865
 5250SOL    HW219249   1.660   7.876   4.802 -1.2188 -0.9568 -1.7291
 5251SOL     OW19250   1.043  10.892   2.642  0.4304  0.3638 -0.1947
 5251SOL    HW119251   1.084  10.888   2.555 -0.2392  1.8729 -0.6346
 5251SOL    HW219252   1.062  10.981   2.673 -0.7107  0.3902  0.4876
 5252SOL     OW19253   1.550   7.008   8.090  0.2591 -0.1771 -0.2623
 5252SOL    HW119254   1.500   6.952   8.150 -0.9423  1.0320 -0.0681
 5252SOL    HW219255   1.626   6.956   8.065  0.3696 -1.0288  1.6810
 5253SOL     OW19256  10.893   2.247   2.488  0.3355  0.3421  0.0346
 5253SOL    HW119257  10.936   2.250   2.574  1.0472 -1.6832 -0.1999
 5253SOL    HW219258  10.906   2.334   2.451 -2.3827  2.2799  3.0441
 5254SOL     OW19259   8.478   1.041   2.444  0.4365 -0.0872  0.3776
 5254SOL    HW119260   8.499   0.951   2.423  0.6307 -0.6341  2.6033
 5254SOL    HW219261   8.563   1.085   2.451  0.4080 -0.0417  0.4477
 5255SOL     OW19262   0.175   3.051   4.077 -0.5876  0.4457 -0.4338
 5255SOL    HW119263   0.100   3.009   4.119  0.5614 -1.4203 -0.1350
 5255SOL    HW219264   0.165   3.144   4.098 -2.8454  0.2836 -0.5014
 5256SOL     OW19265   0.625   4.039   2.596 -0.6507 -0.5107 -0.4213
 5256SOL    HW119266   0.624   3.945   2.611 -0.2066 -0.7630 -1.8402
 5256SOL    HW219267   0.537   4.068   2.621 -0.5669 -1.1580  0.7204
 5257SOL     OW19268   1.024  10.206   6.949  0.0378 -0.2186  0.0964
 5257SOL    HW119269   1.086  10.135   6.963  0.0819 -0.1194  0.4196
 5257SOL    HW219270   1.021  10.217   6.854 -0.2681 -0.9089  0.0194
 5258SOL     OW19271   6.448   1.327   5.010  0.1716  0.5247 -0.2310
 5258SOL    HW119272   6.484   1.349   4.924  1.9525  0.0989  0.3615
 5258SOL    HW219273   6.516   1.354   5.072 -0.9824  0.6157  1.0479
 5259SOL     OW19274   4.951   3.427   1.010 -0.8786  0.4457 -0.1481
 5259SOL    HW119275   4.934   3.378   0.930 -0.7306 -0.3455  0.2977
 5259SOL    HW219276   4.865   3.442   1.048 -0.8536 -0.5335  0.3282
 5260SOL     OW19277   9.606   8.599   7.008 -0.3632  0.6732 -0.3219
 5260SOL    HW119278   9.613   8.537   6.935 -1.2784 -0.7634  0.7618
 5260SOL    HW219279   9.527   8.649   6.988 -0.6759  0.2086 -0.2792
 5261SOL     OW19280   0.338   9.719   6.148  0.5550  0.6118  0.5543
 5261SOL    HW119281   0.295   9.689   6.228  0.4668  1.2418  0.7517
 5261SOL    HW219282   0.355   9.640   6.098 -1.9772  0.4098 -0.1285
 5262SOL     OW19283   5.605   6.450  10.181  0.6077 -0.0032  0.5616
 5262SOL    HW119284   5.539   6.515  10.157  0.7850  0.4022  1.1510
 5262SOL    HW219285   5.651   6.431  10.099  0.3818  0.4186  0.3354
 5263SOL     OW19286   0.714   4.984  10.096 -0.2536  0.3986 -0.2600
 5263SOL    HW119287   0.637   4.953  10.048  0.0848  1.2671 -1.4216
 5263SOL    HW219288   0.687   5.067  10.135 -0.1999  0.2268  0.1416
 5264SOL     OW19289   8.275  10.162   0.063  0.0310 -0.0236  0.0554
 5264SOL    HW119290   8.191  10.154   0.016  0.3993 -2.1645 -0.3821
 5264SOL    HW219291   8.336  10.192  -0.004 -0.0021 -0.4256 -0.1642
 5265SOL     OW19292   8.871   8.484   9.889  0.5247 -0.2391  0.1009
 5265SOL    HW119293   8.910   8.400   9.912  1.1842  0.0697  0.1291
 5265SOL    HW219294   8.911   8.507   9.805 -1.7208 -1.2667 -1.3194
 5266SOL     OW19295   4.722   0.780   5.438 -0.3706 -0.6302 -0.1044
 5266SOL    HW119296   4.812   0.748   5.426  0.1063  0.5664  0.1643
 5266SOL    HW219297   4.683   0.718   5.500  1.3210  0.6509  2.3979
 5267SOL     OW19298  10.885   3.453   7.634  0.2045 -0.2886  0.1465
 5267SOL    HW119299  10.789   3.457   7.637  0.1271 -1.8642  0.8363
 5267SOL    HW219300  10.913   3.539   7.666 -0.9729 -0.0088  0.5042
 5268SOL     OW19301   5.931   3.066   8.985 -0.2451  0.0272  0.1932
 5268SOL    HW119302   5.897   3.040   8.900  0.1227 -1.0970  0.3625
 5268SOL    HW219303   6.021   3.032   8.985 -0.1325  0.3188  0.8907
 5269SOL     OW19304  10.931   5.762   4.447 -0.2125  0.2331  0.0082
 5269SOL    HW119305  10.904   5.681   4.404 -0.2881  0.6756 -0.8047
 5269SOL    HW219306  11.006   5.737   4.501 -1.9148 -0.9367  1.9736
 5270SOL     OW19307   5.037  10.668  10.166 -0.2710 -0.1193  0.1911
 5270SOL    HW119308   5.038  10.665  10.261 -0.2184 -0.8283  0.1756
 5270SOL    HW219309   4.949  10.697  10.144 -0.1903  0.3363  0.4563
 5271SOL     OW19310   9.940   4.251   0.690  0.2333 -0.2617 -0.3961
 5271SOL    HW119311   9.982   4.290   0.614  0.2660 -0.0054 -0.2492
 5271SOL    HW219312   9.849   4.280   0.685  0.2051 -0.3490 -0.4061
 5272SOL     OW19313   0.551   5.215   5.982  0.7739 -0.0015  0.5366
 5272SOL    HW119314   0.599   5.136   6.006  2.5164  0.2763 -1.6439
 5272SOL    HW219315   0.480   5.184   5.925  1.1971 -0.0583  0.0296
 5273SOL     OW19316   5.446   1.030   7.803 -0.0409 -0.4399 -0.2173
 5273SOL    HW119317   5.470   1.119   7.781 -0.7049 -0.3049 -0.4246
 5273SOL    HW219318   5.351   1.032   7.813  0.1391 -0.6409  1.9971
 5274SOL     OW19319   8.664   8.113  10.018 -0.1503 -0.1909  0.4780
 5274SOL    HW119320   8.677   8.198  10.059 -1.0655  0.7311 -1.0390
 5274SOL    HW219321   8.672   8.050  10.090  1.4021  1.0878  1.4771
 5275SOL     OW19322   1.002   3.829   1.205  0.1660 -0.0725  0.2954
 5275SOL    HW119323   0.912   3.830   1.238  0.5333 -0.8833  1.4019
 5275SOL    HW219324   1.025   3.921   1.194 -0.6313  0.1589  0.5045
 5276SOL     OW19325   3.438   9.807   8.518 -0.0933 -0.6100  0.4425
 5276SOL    HW119326   3.454   9.713   8.520 -0.6173 -0.7809 -1.6164
 5276SOL    HW219327   3.467   9.838   8.605  1.7930 -2.3650  0.5193
 5277SOL     OW19328   9.310   0.696   1.347  0.3757  0.2828  0.3359
 5277SOL    HW119329   9.322   0.788   1.324 -0.8890  0.8893  1.9398
 5277SOL    HW219330   9.218   0.690   1.374  0.8147 -1.1524  1.5994
 5278SOL     OW19331   8.831   7.298   3.388  0.1261 -0.2496 -0.2924
 5278SOL    HW119332   8.810   7.209   3.417 -2.1228  0.3645  0.1426
 5278SOL    HW219333   8.902   7.325   3.446 -1.1129 -0.7553  1.5827
 5279SOL     OW19334   9.396   7.317   6.985 -0.0995  0.2697  0.6060
 5279SOL    HW119335   9.425   7.330   6.894 -0.1567  0.4777  0.6165
 5279SOL    HW219336   9.456   7.252   7.020 -0.2612 -0.0367  0.3265
 5280SOL     OW19337   3.578   6.330   5.577  0.5386 -0.0974  0.1566
 5280SOL    HW119338   3.529   6.290   5.506 -0.0388  1.0866 -0.1399
 5280SOL    HW219339   3.603   6.257   5.633  0.9264 -1.0380 -1.2009
 5281SOL     OW19340   0.595   8.572   9.452  0.0640 -0.0396  0.0864
 5281SOL    HW119341   0.633   8.585   9.538 -0.2011  0.7747  0.0864
 5281SOL    HW219342   0.623   8.484   9.426  1.1618  0.1801  0.4753
 5282SOL     OW19343   0.537   5.676  10.038 -0.3386  0.2271 -0.6058
 5282SOL    HW119344   0.573   5.705  10.122 -2.1088 -1.1320  0.7096
 5282SOL    HW219345   0.608   5.627   9.997  0.3282  0.2893  0.4329
 5283SOL     OW19346   1.200   6.373   2.828  0.3268 -0.3076  0.2310
 5283SOL    HW119347   1.123   6.428   2.811 -0.2041 -1.4619 -1.3357
 5283SOL    HW219348   1.164   6.287   2.848  1.2020 -0.7263  0.0595
 5284SOL     OW19349   5.029  10.679   5.472  0.0343  0.3076  0.6032
 5284SOL    HW119350   4.961  10.692   5.538  1.0579  0.8415  1.5947
 5284SOL    HW219351   5.111  10.676   5.522  1.0413  2.5965 -0.7657
 5285SOL     OW19352   1.717  10.117   4.528 -0.3320  0.4216 -0.4204
 5285SOL    HW119353   1.641  10.068   4.559  0.2753 -0.8954 -0.9154
 5285SOL    HW219354   1.696  10.208   4.547 -1.0191 -0.0994  1.5799
 5286SOL     OW19355   2.662  10.070   7.164  0.0131 -1.0894 -0.1594
 5286SOL    HW119356   2.721  10.014   7.215  0.4905  0.5572  1.1627
 5286SOL    HW219357   2.574  10.040   7.189  0.2628 -1.8799 -0.2042
 5287SOL     OW19358  10.459   3.385   5.841 -0.2803 -0.7160  0.4380
 5287SOL    HW119359  10.394   3.411   5.906  0.1227  1.8883 -0.0923
 5287SOL    HW219360  10.409   3.349   5.768 -1.0018 -0.2289  0.6874
 5288SOL     OW19361  10.708   8.036   0.568  0.2956  0.1922  0.0577
 5288SOL    HW119362  10.680   8.128   0.574  0.2881  0.2531 -0.7852
 5288SOL    HW219363  10.651   7.990   0.629 -2.6380  0.0923 -2.5363
 5289SOL     OW19364   4.865  10.779   3.528  0.2925  0.1410 -0.3701
 5289SOL    HW119365   4.881  10.778   3.622 -1.1322 -1.3652 -0.1087
 5289SOL    HW219366   4.793  10.841   3.516  0.2658  0.0968 -0.4369
 5290SOL     OW19367   2.994   6.988   9.645 -0.3016  0.1484  0.6792
 5290SOL    HW119368   3.043   6.912   9.612  1.2160  1.3463  0.0833
 5290SOL    HW219369   2.921   6.949   9.693  0.1205 -1.6930 -0.0577
 5291SOL     OW19370   2.803   2.278  10.417 -0.6639 -0.0031  0.1134
 5291SOL    HW119371   2.803   2.305  10.508  0.9582  2.1507 -0.4321
 5291SOL    HW219372   2.893   2.292  10.388 -1.5541  1.2666 -2.3030
 5292SOL     OW19373   5.700   5.589   1.521 -0.2204  0.0728 -0.5256
 5292SOL    HW119374   5.759   5.528   1.566 -1.2795 -0.6684 -0.1031
 5292SOL    HW219375   5.757   5.638   1.462  0.7276 -1.0750 -0.6000
 5293SOL     OW19376   8.977   9.059   0.262  0.1520 -0.3812  0.7345
 5293SOL    HW119377   8.886   9.090   0.256  0.3048 -0.0440  0.0322
 5293SOL    HW219378   9.016   9.113   0.330  0.1071  0.2115  0.3050
 5294SOL     OW19379   7.491   0.957   8.317  0.5247 -0.2819 -0.3689
 5294SOL    HW119380   7.421   0.917   8.369 -0.1161 -0.5919 -1.4393
 5294SOL    HW219381   7.526   0.885   8.264  3.5224 -0.8176  1.9980
 5295SOL     OW19382   0.935   4.085   4.375  0.0696 -0.2483 -0.1665
 5295SOL    HW119383   0.863   4.033   4.411 -0.4771  0.3265 -0.3909
 5295SOL    HW219384   0.925   4.077   4.280  0.2223 -0.0656 -0.1994
 5296SOL     OW19385   9.452  10.363   8.940 -0.0999  0.0122 -0.2970
 5296SOL    HW119386   9.518  10.401   8.998  0.8736 -0.5841 -0.9711
 5296SOL    HW219387   9.375  10.350   8.995  0.8009 -0.5578  0.8693
 5297SOL     OW19388   2.455   7.472   2.352 -0.1537 -0.3390  0.6410
 5297SOL    HW119389   2.367   7.489   2.317 -0.5074  0.1356  1.6958
 5297SOL    HW219390   2.487   7.398   2.301 -0.6405  0.2978 -0.6415
 5298SOL     OW19391   8.369   1.532   8.149 -0.3750  0.2971 -0.2320
 5298SOL    HW119392   8.387   1.573   8.233 -0.7769  0.6602 -0.3186
 5298SOL    HW219393   8.311   1.593   8.104 -0.6231 -0.1573 -0.5429
 5299SOL     OW19394   2.983   6.150   0.619 -0.2200 -0.0095 -0.2068
 5299SOL    HW119395   3.065   6.162   0.570  0.9830 -0.0229  1.6886
 5299SOL    HW219396   2.920   6.206   0.573  1.0184  0.5502 -1.3162
 5300SOL     OW19397   3.752   3.349   7.230  0.2183  0.2235 -0.4055
 5300SOL    HW119398   3.827   3.390   7.186  0.0589  0.2290 -0.6760
 5300SOL    HW219399   3.757   3.381   7.320  0.9564 -0.3397 -0.2304
 5301SOL     OW19400   2.595   0.571   7.582 -0.2225 -0.1489 -0.4084
 5301SOL    HW119401   2.579   0.562   7.676  0.1503  0.4135 -0.2843
 5301SOL    HW219402   2.690   0.563   7.573 -0.1643  0.7165 -0.6221
 5302SOL     OW19403   5.813   9.102   3.251  0.3825  0.3961  0.1174
 5302SOL    HW119404   5.871   9.119   3.325 -0.0982 -0.6019  0.7461
 5302SOL    HW219405   5.818   9.007   3.239 -0.0030  0.4768 -0.7565
 5303SOL     OW19406   4.862   0.126   8.625 -0.2694  0.6615 -0.2957
 5303SOL    HW119407   4.816   0.069   8.686  0.2119 -1.1475 -1.5526
 5303SOL    HW219408   4.825   0.105   8.540  0.8164  1.3150 -0.9508
 5304SOL     OW19409   1.483   6.772   1.007  0.0827  0.5998 -0.2932
 5304SOL    HW119410   1.564   6.731   1.037  0.0397  0.5670 -0.2209
 5304SOL    HW219411   1.471   6.740   0.918 -0.6876 -0.6673  0.2300
 5305SOL     OW19412   1.301  10.402   5.939 -0.5181  0.0018  0.3819
 5305SOL    HW119413   1.260  10.388   5.853 -2.4959 -2.6221  1.6394
 5305SOL    HW219414   1.333  10.493   5.935 -0.5251 -0.0101 -3.0885
 5306SOL     OW19415   2.616   8.185   7.738  0.3898 -0.7801 -0.5788
 5306SOL    HW119416   2.599   8.118   7.672  0.1328  0.8638 -2.2699
 5306SOL    HW219417   2.696   8.229   7.708  0.5713 -0.3240  0.5073
 5307SOL     OW19418   4.824   0.371   4.926 -0.6261  0.1618 -0.0842
 5307SOL    HW119419   4.799   0.320   5.003  1.2614 -0.8444 -0.0785
 5307SOL    HW219420   4.912   0.338   4.903 -0.5400  1.4575 -1.7836
 5308SOL     OW19421   6.243   0.832   6.857  0.3536 -0.1210  1.2284
 5308SOL    HW119422   6.269   0.910   6.905 -1.3556 -0.1029  2.1826
 5308SOL    HW219423   6.294   0.761   6.896  3.1011  0.6477 -0.6695
 5309SOL     OW19424   7.223   3.180   3.944 -0.4541  0.1834 -0.5727
 5309SOL    HW119425   7.172   3.107   3.978 -1.2019  1.2261  0.5879
 5309SOL    HW219426   7.186   3.196   3.857 -0.9789 -0.1372 -0.4133
 5310SOL     OW19427   8.883   6.078   1.550 -0.0587  0.2994 -0.0231
 5310SOL    HW119428   8.856   6.037   1.632  1.1692  0.1993  0.3543
 5310SOL    HW219429   8.833   6.032   1.482  0.1981 -0.8166  0.5212
 5311SOL     OW19430   1.823  10.833   4.209  0.3891  0.3837 -0.7082
 5311SOL    HW119431   1.729  10.829   4.229  0.6920  0.7915  0.8915
 5311SOL    HW219432   1.865  10.844   4.294  1.8331  1.1020 -1.4892
 5312SOL     OW19433  10.108   4.780   2.373 -0.6895 -0.4763  0.4448
 5312SOL    HW119434  10.052   4.739   2.438  0.9839 -1.1348  1.5422
 5312SOL    HW219435  10.132   4.710   2.313 -1.2644 -0.1337 -0.1949
 5313SOL     OW19436   2.773   5.322   7.135 -0.0051 -0.3107  0.4117
 5313SOL    HW119437   2.833   5.356   7.068 -0.4910 -1.4289 -0.6339
 5313SOL    HW219438   2.830   5.295   7.207  0.6157  0.0223  0.0527
 5314SOL     OW19439   2.656  10.744   7.377  0.3678 -0.4609 -0.0332
 5314SOL    HW119440   2.714  10.762   7.303 -0.3539 -1.6994 -0.9282
 5314SOL    HW219441   2.686  10.660   7.412 -0.5410 -0.8693 -0.1929
 5315SOL     OW19442   2.687   8.328  10.227 -0.1087 -0.0945 -0.0041
 5315SOL    HW119443   2.686   8.233  10.214 -0.3176 -0.3006  1.3420
 5315SOL    HW219444   2.740   8.341  10.306  0.1454  0.9332 -0.3244
 5316SOL     OW19445   7.951   9.531   3.618 -0.1812 -1.0278 -0.2070
 5316SOL    HW119446   7.993   9.445   3.617  0.9629 -0.5494 -3.1621
 5316SOL    HW219447   7.883   9.526   3.551  1.2967  0.9114 -1.9810
 5317SOL     OW19448  10.467   2.619   9.226  0.2542  0.4610  0.1046
 5317SOL    HW119449  10.554   2.611   9.187  0.5533  0.6963  0.7065
 5317SOL    HW219450  10.472   2.699   9.279 -0.3587  0.5283  0.0655
 5318SOL     OW19451   1.746   7.767   0.982  0.0558  0.2544 -0.4295
 5318SOL    HW119452   1.790   7.709   1.044 -1.2623 -2.1766 -1.6290
 5318SOL    HW219453   1.652   7.752   0.999 -0.3147  0.8292 -1.8493
 5319SOL     OW19454  10.456   0.421   3.341  0.4400  0.4909 -0.5679
 5319SOL    HW119455  10.404   0.450   3.416  0.5604 -1.1579  0.1781
 5319SOL    HW219456  10.526   0.368   3.378  0.2342 -0.7524 -1.8657
 5320SOL     OW19457   1.964   6.912   6.697 -0.1743  0.7090 -0.5895
 5320SOL    HW119458   1.976   6.820   6.721 -0.8995  1.2291  2.1018
 5320SOL    HW219459   1.923   6.909   6.610  0.3121 -1.4655 -0.8062
 5321SOL     OW19460   8.619  10.158   5.260 -0.5673  0.5176 -0.0399
 5321SOL    HW119461   8.531  10.187   5.239 -0.9476 -0.5691 -0.0176
 5321SOL    HW219462   8.607  10.072   5.301  0.4032  0.9310  1.1880
 5322SOL     OW19463   2.990   1.810   2.115 -0.2939  0.3325 -0.0710
 5322SOL    HW119464   2.943   1.784   2.036  0.7705  1.5991 -1.1766
 5322SOL    HW219465   2.963   1.901   2.130 -0.8660 -0.0393  1.3499
 5323SOL     OW19466  11.003   4.102   6.514 -0.6291  0.0920 -0.3482
 5323SOL    HW119467  11.052   4.085   6.594 -0.8543 -1.6148 -0.5332
 5323SOL    HW219468  11.036   4.186   6.483  1.6475 -0.6212 -0.0535
 5324SOL     OW19469   7.720   9.878   4.225  0.2987  0.0202 -0.0313
 5324SOL    HW119470   7.711   9.787   4.252 -0.8642 -0.5421 -2.0829
 5324SOL    HW219471   7.662   9.926   4.284 -0.5813 -0.8575 -0.1598
 5325SOL     OW19472   6.723  10.827   2.245 -0.7008  0.5196  0.5000
 5325SOL    HW119473   6.782  10.850   2.317 -0.4454  0.4255  0.3223
 5325SOL    HW219474   6.751  10.740   2.217  0.4641  1.3193 -0.9693
 5326SOL     OW19475   7.880   8.296   5.629 -0.2014  0.3383 -0.0467
 5326SOL    HW119476   7.868   8.391   5.621 -0.3765  0.2937 -0.3296
 5326SOL    HW219477   7.796   8.265   5.664  0.5323  0.5241  1.9932
 5327SOL     OW19478   3.990   0.592  10.611  0.3964  0.2172 -0.0878
 5327SOL    HW119479   4.041   0.590  10.692  0.5951  2.1373 -0.1116
 5327SOL    HW219480   3.981   0.501  10.586 -0.1109 -0.4871  2.3796
 5328SOL     OW19481   5.267   4.916   6.868  0.0860 -0.0407 -0.3608
 5328SOL    HW119482   5.210   4.936   6.793 -0.5632 -1.2511 -0.2121
 5328SOL    HW219483   5.341   4.869   6.830  0.9068  1.3269 -0.5213
 5329SOL     OW19484   5.131   8.557   2.273 -0.1743  0.0175  0.9188
 5329SOL    HW119485   5.221   8.578   2.298 -0.7022  0.0936  2.9258
 5329SOL    HW219486   5.107   8.484   2.329 -1.3934  0.0537  0.4649
 5330SOL     OW19487  10.419   8.888   8.544  0.1295  0.5142  0.0837
 5330SOL    HW119488  10.409   8.930   8.629 -1.7898 -0.2145  0.2777
 5330SOL    HW219489  10.473   8.949   8.493  0.8765  1.2019  1.6320
 5331SOL     OW19490   7.508   3.231   4.723 -0.3465 -0.1191  0.2389
 5331SOL    HW119491   7.466   3.264   4.803 -0.6867 -0.2611  0.1180
 5331SOL    HW219492   7.438   3.189   4.674 -0.1925  0.1990 -0.2647
 5332SOL     OW19493   6.919   2.137   5.581 -0.0207  0.1792  0.0140
 5332SOL    HW119494   6.915   2.077   5.507  2.0310 -0.9817  0.7702
 5332SOL    HW219495   6.893   2.222   5.545  0.2227 -0.4932 -1.8399
 5333SOL     OW19496   4.080   1.061   4.478  0.6212  0.3075  0.1613
 5333SOL    HW119497   4.150   0.997   4.469 -1.1730 -1.7084 -0.3635
 5333SOL    HW219498   4.045   1.047   4.566  0.1966  0.5513  0.0357
 5334SOL     OW19499   3.019   1.339   8.030  0.5086 -0.1198 -0.2659
 5334SOL    HW119500   2.986   1.313   8.116  1.2565  2.4854  0.9299
 5334SOL    HW219501   3.078   1.268   8.004  0.4436 -0.8714  1.4835
 5335SOL     OW19502   3.775   0.429   1.307  0.1409 -0.4283 -0.0608
 5335SOL    HW119503   3.803   0.519   1.292  0.5269 -0.2106  1.6885
 5335SOL    HW219504   3.804   0.410   1.396  1.4550 -2.8278 -0.9046
 5336SOL     OW19505   9.692   6.959  10.211  0.1361 -0.2688  0.0171
 5336SOL    HW119506   9.751   7.035  10.213  0.1291 -0.2410 -0.5372
 5336SOL    HW219507   9.711   6.917  10.127 -2.1404  0.9658 -1.2042
 5337SOL     OW19508   9.451   4.412   7.253  0.2751 -0.5461  0.0598
 5337SOL    HW119509   9.498   4.466   7.189  0.1760 -2.9384 -2.1730
 5337SOL    HW219510   9.359   4.437   7.241  0.2725 -0.8648 -0.6784
 5338SOL     OW19511   9.416   5.167   0.896  0.0626  0.1587 -0.5728
 5338SOL    HW119512   9.380   5.103   0.834  0.2137 -1.8686  1.3255
 5338SOL    HW219513   9.503   5.133   0.917 -0.0404  0.7065  0.8407
 5339SOL     OW19514   2.351   0.810   3.141 -0.1010  0.3796 -0.0862
 5339SOL    HW119515   2.264   0.846   3.128 -0.6314 -0.9837 -0.5612
 5339SOL    HW219516   2.365   0.814   3.236  0.7864  3.7295 -0.2362
 5340SOL     OW19517   7.616   6.016   1.296 -0.1356 -0.4835  0.2083
 5340SOL    HW119518   7.621   5.969   1.379 -0.4608 -0.0550  0.4684
 5340SOL    HW219519   7.657   6.101   1.313 -1.5077  0.1760  0.3345
 5341SOL     OW19520  10.888  10.518   4.316 -0.1503  0.4772 -0.3622
 5341SOL    HW119521  10.853  10.505   4.404  0.2562  2.1249  0.0850
 5341SOL    HW219522  10.972  10.563   4.330  0.8660 -0.9482 -1.5295
 5342SOL     OW19523   0.792   3.097   3.429 -0.9943 -0.2583  0.2917
 5342SOL    HW119524   0.757   3.040   3.361  0.3039  1.2651 -1.7645
 5342SOL    HW219525   0.856   3.042   3.475 -0.5934 -0.8216 -0.8964
 5343SOL     OW19526   4.683   4.668   1.510  0.0171 -0.5386  0.4313
 5343SOL    HW119527   4.603   4.720   1.510  0.6592  0.5227  1.4784
 5343SOL    HW219528   4.753   4.732   1.503  0.8327 -1.2575  1.4985
 5344SOL     OW19529   2.326   4.617   5.114  0.0722 -0.0311 -0.5228
 5344SOL    HW119530   2.286   4.673   5.181  0.2495 -0.4548 -0.0637
 5344SOL    HW219531   2.299   4.528   5.138 -1.2706 -0.0612 -1.9588
 5345SOL     OW19532   1.164  10.537   7.652  0.1495 -0.0493 -0.4931
 5345SOL    HW119533   1.191  10.519   7.742 -1.6599  2.2046  0.6132
 5345SOL    HW219534   1.167  10.632   7.645 -0.8445 -0.1202 -2.4413
 5346SOL     OW19535   6.579   4.651   5.369 -0.8748  0.3040 -0.1601
 5346SOL    HW119536   6.635   4.610   5.434 -1.2498  0.3300  0.1845
 5346SOL    HW219537   6.594   4.745   5.379  0.0821  0.2644 -1.0371
 5347SOL     OW19538   0.220   3.617   9.407 -0.1190 -0.2682 -0.2868
 5347SOL    HW119539   0.153   3.675   9.442 -0.1945 -0.1149 -0.6810
 5347SOL    HW219540   0.289   3.676   9.375 -0.6092 -0.3457 -1.5374
 5348SOL     OW19541   9.751   1.557   9.422  0.1498 -0.2146 -0.7246
 5348SOL    HW119542   9.658   1.535   9.417  0.1442 -0.2084 -0.6550
 5348SOL    HW219543   9.794   1.472   9.436  0.1520 -0.2150 -0.7353
 5349SOL     OW19544   3.973   2.379   3.999  0.8032 -0.3844 -0.7566
 5349SOL    HW119545   3.878   2.377   3.990  0.6164 -0.7558  0.9115
 5349SOL    HW219546   4.006   2.384   3.910 -0.8204  2.1002 -1.3128
 5350SOL     OW19547   5.355   8.857   7.075 -0.1753  0.1821 -0.1495
 5350SOL    HW119548   5.428   8.920   7.069 -0.8636  0.8532 -2.2623
 5350SOL    HW219549   5.280   8.904   7.041 -0.7826 -1.6766 -1.5562
 5351SOL     OW19550   1.476  10.047   0.495 -0.6886 -0.1061  0.0736
 5351SOL    HW119551   1.544   9.988   0.464 -1.1779  0.0339 -1.3218
 5351SOL    HW219552   1.488  10.049   0.590  1.3860  0.0895 -0.1368
 5352SOL     OW19553   0.034   0.068   9.331 -0.0035 -0.1899  0.3497
 5352SOL    HW119554  -0.007   0.114   9.258  1.2223  1.6603  0.7565
 5352SOL    HW219555   0.111   0.025   9.292 -0.6047 -1.1092  0.1539
 5353SOL     OW19556  10.476   6.001   1.327 -0.1272 -0.5229  0.1568
 5353SOL    HW119557  10.396   5.956   1.354 -1.2678  0.4943 -1.3605
 5353SOL    HW219558  10.454   6.094   1.328 -0.1204 -0.3362 -3.4154
 5354SOL     OW19559   2.147   2.295  10.703  0.4827 -0.1612 -0.1218
 5354SOL    HW119560   2.227   2.284  10.753  0.5653 -2.5406 -0.6277
 5354SOL    HW219561   2.129   2.389  10.705  1.2066  0.0257  3.1617
 5355SOL     OW19562  10.726   1.038   4.871  0.0437 -0.0677 -0.1097
 5355SOL    HW119563  10.782   0.968   4.838 -0.4279  0.0054 -1.1092
 5355SOL    HW219564  10.784   1.094   4.921  0.4954 -0.9959  0.4337
 5356SOL     OW19565   9.486   2.294   9.020  0.4246  0.3070  0.2881
 5356SOL    HW119566   9.416   2.229   9.015  0.4538  0.2793  0.2369
 5356SOL    HW219567   9.563   2.244   9.047  0.8446  0.0062 -1.3649
 5357SOL     OW19568   6.583   2.772   1.482  0.1036 -0.0508  0.2430
 5357SOL    HW119569   6.607   2.742   1.570  0.2739 -0.2391  0.1316
 5357SOL    HW219570   6.585   2.694   1.428 -1.2319 -0.1641  0.3222
 5358SOL     OW19571   8.671   0.070   5.971  0.2174 -0.1201 -0.4573
 5358SOL    HW119572   8.639   0.160   5.972 -0.0746 -0.2191  0.5562
 5358SOL    HW219573   8.728   0.066   5.895 -0.7834  0.5527 -1.2677
 5359SOL     OW19574   1.131   6.036   7.438  0.0117  0.3039 -0.2262
 5359SOL    HW119575   1.054   5.980   7.449  0.2015  0.3509  1.5888
 5359SOL    HW219576   1.193   5.981   7.390 -0.5348 -0.3448 -0.2177
 5360SOL     OW19577   1.743   7.643   8.654  0.2964  0.6562 -0.0180
 5360SOL    HW119578   1.768   7.693   8.732  3.0132  0.4523 -0.6576
 5360SOL    HW219579   1.719   7.556   8.688 -0.5490  1.1585  0.7241
 5361SOL     OW19580   5.071   4.360   0.256  0.2712 -0.3575 -0.3325
 5361SOL    HW119581   5.116   4.334   0.176  1.1879  0.3055 -0.0531
 5361SOL    HW219582   5.121   4.435   0.289 -1.4474  0.8645 -0.3644
 5362SOL     OW19583   3.278   3.352   2.006  0.1581  0.6674  0.4307
 5362SOL    HW119584   3.280   3.305   1.923 -1.0018  0.7475  0.3465
 5362SOL    HW219585   3.370   3.357   2.033  0.3358 -1.8626  0.5601
 5363SOL     OW19586   8.270   7.973  10.011  0.0302 -0.1546  0.6973
 5363SOL    HW119587   8.267   8.068  10.026  0.9200 -0.1787  1.1120
 5363SOL    HW219588   8.325   7.939  10.081  1.9139 -0.6354 -0.9179
 5364SOL     OW19589   7.937   9.533   0.839  0.2861 -0.0814 -0.6886
 5364SOL    HW119590   8.020   9.556   0.798  0.4815  0.8047  0.1713
 5364SOL    HW219591   7.898   9.617   0.864  0.1046 -0.5650  0.7651
 5365SOL     OW19592   3.612   9.060   0.290 -0.0821 -0.1745 -0.3023
 5365SOL    HW119593   3.593   9.022   0.204  0.5062 -0.3811 -0.3455
 5365SOL    HW219594   3.527   9.091   0.321 -0.0167  1.6839 -1.8013
 5366SOL     OW19595   6.986   7.938   6.610 -0.5802 -0.7042  0.4055
 5366SOL    HW119596   7.022   7.863   6.564 -1.0172 -0.3831 -0.4856
 5366SOL    HW219597   7.036   7.943   6.692  0.6749 -0.8930 -0.3275
 5367SOL     OW19598   2.604   7.901   5.306  0.1570 -0.1803 -0.4709
 5367SOL    HW119599   2.638   7.841   5.239  1.6316  1.7563 -1.5483
 5367SOL    HW219600   2.509   7.900   5.293  0.4430  0.6790 -3.1412
 5368SOL     OW19601   9.114   8.386   0.633 -0.4222 -0.2386  0.5904
 5368SOL    HW119602   9.025   8.353   0.624 -0.3048 -0.3767 -0.1343
 5368SOL    HW219603   9.114   8.471   0.589 -0.9695  1.2745  3.2820
 5369SOL     OW19604   2.904   9.648   9.766  0.2524  0.3430  0.3441
 5369SOL    HW119605   2.956   9.570   9.748 -1.8370 -0.8291 -0.8721
 5369SOL    HW219606   2.816   9.627   9.735 -0.6341  2.8013  0.9587
 5370SOL     OW19607   4.485   3.554   7.087  0.6529  0.8979  0.3223
 5370SOL    HW119608   4.561   3.542   7.030  0.2507 -0.7119  0.1007
 5370SOL    HW219609   4.446   3.467   7.095 -1.7418  1.8395 -0.3406
 5371SOL     OW19610   3.780   1.942  10.018  0.0425  0.5843 -0.2578
 5371SOL    HW119611   3.832   2.022  10.011  0.1580  0.6589  1.1485
 5371SOL    HW219612   3.705   1.968  10.072 -1.0529  0.2753 -1.5789
 5372SOL     OW19613   6.870   5.498   1.443  0.2001 -0.6772  0.6843
 5372SOL    HW119614   6.778   5.523   1.451  0.1652  0.6334 -2.5268
 5372SOL    HW219615   6.919   5.575   1.471  0.2557 -0.4961  0.1061
 5373SOL     OW19616   9.038   7.568   7.837 -0.0567  0.2969  0.2333
 5373SOL    HW119617   8.951   7.575   7.876  0.4165  0.4857  1.2938
 5373SOL    HW219618   9.029   7.499   7.771 -1.7269  2.3232 -1.7745
 5374SOL     OW19619   2.859   1.847   8.396 -0.4635 -0.0952  0.0211
 5374SOL    HW119620   2.876   1.922   8.339  0.8777  0.0219  0.5451
 5374SOL    HW219621   2.940   1.836   8.445 -1.4731 -0.3992  1.6715
 5375SOL     OW19622   6.154   2.291   7.049 -0.3809  0.0912 -0.3825
 5375SOL    HW119623   6.220   2.256   7.109 -0.3811 -0.6685 -0.8051
 5375SOL    HW219624   6.200   2.360   7.001 -1.2471  2.9999  2.6462
 5376SOL     OW19625   3.687   3.128   7.985  0.3732  0.3425  0.7258
 5376SOL    HW119626   3.715   3.102   8.073  0.2205  1.2716  1.0646
 5376SOL    HW219627   3.742   3.204   7.964  0.3430  0.1840  0.0511
 5377SOL     OW19628   2.243   4.645   3.361 -0.2917 -0.1629  0.2840
 5377SOL    HW119629   2.259   4.650   3.267 -0.5821 -0.6220  0.2075
 5377SOL    HW219630   2.205   4.558   3.375 -0.2275 -0.1101  0.8290
 5378SOL     OW19631  10.778   1.858   1.973  0.2076  0.1997  0.0534
 5378SOL    HW119632  10.787   1.940   2.021 -2.3723  1.3215 -1.1510
 5378SOL    HW219633  10.804   1.879   1.884 -2.5314  0.4589 -0.7925
 5379SOL     OW19634   4.948   0.629   3.516 -0.2310 -0.5426  0.0689
 5379SOL    HW119635   5.018   0.693   3.525  1.6400 -2.0683 -2.6038
 5379SOL    HW219636   4.976   0.555   3.570 -1.3719 -0.0392  1.4455
 5380SOL     OW19637   2.921   8.187   1.623 -0.0137 -0.2067 -0.0386
 5380SOL    HW119638   2.935   8.116   1.685  0.2785  0.7853  1.0683
 5380SOL    HW219639   2.882   8.258   1.675 -1.8802 -0.1227 -1.4459
 5381SOL     OW19640   4.557   2.661   1.885  0.2562  0.3863  0.2423
 5381SOL    HW119641   4.592   2.733   1.832  0.1985 -0.4053 -0.9176
 5381SOL    HW219642   4.471   2.643   1.847  0.3942 -0.4802  0.3179
 5382SOL     OW19643   9.260  10.485   1.495  0.1109  0.4062  0.5344
 5382SOL    HW119644   9.196  10.417   1.474  0.1802  0.6695 -0.5661
 5382SOL    HW219645   9.319  10.487   1.420  0.8076  0.8782  1.0800
 5383SOL     OW19646   7.191   4.412   0.958  0.1093  0.3319  0.6161
 5383SOL    HW119647   7.097   4.395   0.962 -0.4782  2.8074 -0.6909
 5383SOL    HW219648   7.220   4.361   0.882 -0.6537  1.2320 -0.3179
 5384SOL     OW19649   8.083   7.196   3.339  0.6310  0.3512 -0.7281
 5384SOL    HW119650   8.123   7.234   3.416 -0.0967 -2.0413  0.9333
 5384SOL    HW219651   7.992   7.226   3.342  0.1575 -1.0848  0.3666
 5385SOL     OW19652   1.599   0.990   9.890 -0.4734  0.1832 -0.3299
 5385SOL    HW119653   1.620   1.083   9.886 -0.5748  0.2042 -0.4024
 5385SOL    HW219654   1.678   0.946   9.859 -0.9901  0.3165 -1.9273
 5386SOL     OW19655   8.471   8.021   3.132  0.0167 -0.0432 -0.5672
 5386SOL    HW119656   8.550   8.075   3.136 -0.5036  0.6615  0.6436
 5386SOL    HW219657   8.500   7.939   3.091  1.3431  0.2507 -0.2519
 5387SOL     OW19658   2.355   8.517   6.885  0.1121 -0.0761  0.3001
 5387SOL    HW119659   2.323   8.565   6.808  1.1572 -0.2753 -0.2716
 5387SOL    HW219660   2.449   8.531   6.885  0.4472 -2.0062  0.1841
 5388SOL     OW19661   2.001   2.982   2.754  0.1327 -0.4608 -0.2838
 5388SOL    HW119662   2.071   3.034   2.714  0.2486 -0.0115  0.4868
 5388SOL    HW219663   1.921   3.031   2.734 -0.0422 -1.2497 -1.6242
 5389SOL     OW19664   9.855   1.297   9.849  0.3666 -0.1134  0.3760
 5389SOL    HW119665   9.861   1.250   9.932  1.1714 -1.9067 -0.6481
 5389SOL    HW219666   9.839   1.388   9.874 -1.4871 -0.9269  2.4266
 5390SOL     OW19667   5.670   0.171   1.112 -0.0610  0.2702 -0.6736
 5390SOL    HW119668   5.605   0.205   1.173  0.5375  0.9859 -0.4319
 5390SOL    HW219669   5.658   0.222   1.032 -0.0351  0.1515 -0.7550
 5391SOL     OW19670   2.616   2.565   0.395 -0.7405 -0.4418 -0.0563
 5391SOL    HW119671   2.611   2.539   0.303 -2.9172 -0.6335  0.0741
 5391SOL    HW219672   2.626   2.660   0.393  0.4802 -0.5607 -0.4727
 5392SOL     OW19673   2.202   0.894   1.421 -0.0980  0.0706  0.1565
 5392SOL    HW119674   2.180   0.973   1.371  2.3065  0.8775  0.2182
 5392SOL    HW219675   2.161   0.908   1.507  0.3142  1.2983  0.1786
 5393SOL     OW19676   6.587   2.633   2.605 -0.8485  0.2810 -0.1749
 5393SOL    HW119677   6.509   2.675   2.640  0.3970  1.7867  0.9143
 5393SOL    HW219678   6.646   2.705   2.584  0.5817 -0.8363 -0.1395
 5394SOL     OW19679   7.437   0.635   4.469 -0.2525 -0.3489 -0.5067
 5394SOL    HW119680   7.443   0.711   4.526  0.0860 -1.1768  0.5882
 5394SOL    HW219681   7.365   0.656   4.409  0.1265  1.0086 -0.5248
 5395SOL     OW19682   1.772   1.255   5.713  0.1505  0.1557 -0.2805
 5395SOL    HW119683   1.713   1.189   5.677 -0.8631  1.7769 -1.7479
 5395SOL    HW219684   1.836   1.271   5.644 -0.8109  2.1067 -0.7813
 5396SOL     OW19685   3.613  10.059   1.240  0.0200 -0.1948  0.5141
 5396SOL    HW119686   3.625   9.974   1.283  1.1030 -0.3116  0.0203
 5396SOL    HW219687   3.664  10.052   1.160 -1.9270  0.0133 -0.8264
 5397SOL     OW19688   2.600   4.333   0.612  0.0027 -0.5220 -0.8591
 5397SOL    HW119689   2.583   4.425   0.590  0.6585 -0.5049 -1.3423
 5397SOL    HW219690   2.676   4.310   0.559 -0.8910 -1.7121 -1.6891
 5398SOL     OW19691   7.305   9.171   2.017  0.1838 -0.2854 -0.2658
 5398SOL    HW119692   7.266   9.255   1.994  0.4577 -0.2252 -0.5132
 5398SOL    HW219693   7.347   9.187   2.102 -1.0698 -0.5856  0.4350
 5399SOL     OW19694   8.223   6.268   4.129  0.2940 -0.3420 -0.0415
 5399SOL    HW119695   8.208   6.356   4.094  0.5590 -0.1079  0.4318
 5399SOL    HW219696   8.269   6.223   4.058  2.0752  0.5501  0.4811
 5400SOL     OW19697   7.347   8.714  10.901 -0.1219  0.3219 -0.7816
 5400SOL    HW119698   7.429   8.687  10.859 -0.1788  0.4168 -0.9552
 5400SOL    HW219699   7.280   8.657  10.861 -0.0423 -0.2479 -0.1260
 5401SOL     OW19700   1.942   2.321   8.613 -0.0954  0.0508 -0.2275
 5401SOL    HW119701   1.924   2.404   8.657  2.4201 -1.3276  3.9877
 5401SOL    HW219702   2.022   2.337   8.564 -1.1890  0.7589 -1.8740
 5402SOL     OW19703   8.966   3.466   4.824 -0.1892 -0.1591  0.0372
 5402SOL    HW119704   9.035   3.440   4.885  1.8350 -1.3074 -2.5518
 5402SOL    HW219705   8.894   3.407   4.843  0.7968 -1.2224  0.6349
 5403SOL     OW19706   3.585   1.184   9.490 -0.1562 -0.4185 -0.8326
 5403SOL    HW119707   3.597   1.097   9.450  0.2624  0.9351 -3.9312
 5403SOL    HW219708   3.651   1.239   9.447 -0.8947  1.6104  0.4963
 5404SOL     OW19709   9.091   0.010   0.557 -0.1522  0.2698 -0.6031
 5404SOL    HW119710   9.160  -0.036   0.606 -0.4710  1.5520  1.1600
 5404SOL    HW219711   9.137   0.083   0.515 -0.0838 -0.1368 -1.2448
 5405SOL     OW19712   4.688   5.079   0.056 -0.0011  0.2852 -0.2023
 5405SOL    HW119713   4.621   5.114   0.115 -0.3218  1.0675 -1.0061
 5405SOL    HW219714   4.685   4.984   0.070 -1.0938  0.3313 -0.0359
 5406SOL     OW19715   3.947   0.121   0.655 -0.2455  0.1156  0.9754
 5406SOL    HW119716   4.007   0.079   0.717 -0.4010  0.4368  1.3504
 5406SOL    HW219717   3.891   0.050   0.623  0.0829 -0.1186  0.9153
 5407SOL     OW19718   6.216   3.889   8.544  0.3019  0.1210  0.5311
 5407SOL    HW119719   6.289   3.860   8.598  1.1223  1.2808  0.0881
 5407SOL    HW219720   6.200   3.979   8.571 -1.4574 -0.3291  1.1079
 5408SOL     OW19721   7.582   6.051   8.091 -0.2351 -0.8919  0.0678
 5408SOL    HW119722   7.503   6.104   8.083  0.1407 -0.3038  0.2180
 5408SOL    HW219723   7.620   6.076   8.175  1.2360  0.3989 -0.9382
 5409SOL     OW19724   7.730   9.451   5.060 -0.1302 -0.4240  0.6449
 5409SOL    HW119725   7.757   9.361   5.080  0.7514  0.0652  1.7476
 5409SOL    HW219726   7.786   9.477   4.987 -0.9069 -1.0064 -0.1851
 5410SOL     OW19727   0.777   5.250   3.337  0.0463  0.0498  0.1240
 5410SOL    HW119728   0.723   5.177   3.369  0.9680 -0.1762  1.2183
 5410SOL    HW219729   0.836   5.210   3.273  0.0909 -0.0359  0.2183
 5411SOL     OW19730   7.808   5.094  10.077  0.7137  0.1320 -0.0392
 5411SOL    HW119731   7.743   5.054  10.135 -0.6270  1.9097 -0.2457
 5411SOL    HW219732   7.890   5.051  10.100 -0.3754 -1.6102  0.7896
 5412SOL     OW19733   2.541   1.925   9.595 -0.1943 -0.3989 -0.4106
 5412SOL    HW119734   2.579   1.998   9.546  0.1801  0.2841  0.8546
 5412SOL    HW219735   2.612   1.892   9.649 -0.5150 -1.3413 -0.5501
 5413SOL     OW19736   8.676  10.016   7.209  0.1884 -0.2692 -0.3279
 5413SOL    HW119737   8.617  10.081   7.170 -0.0638 -0.7968 -0.8485
 5413SOL    HW219738   8.734  10.067   7.265 -0.6642  0.2874  0.0758
 5414SOL     OW19739   8.804   1.365   8.303 -0.2965  0.5016  0.1125
 5414SOL    HW119740   8.822   1.456   8.328 -1.7233  1.1718 -1.0727
 5414SOL    HW219741   8.737   1.336   8.365 -0.5563  0.6141 -0.1107
 5415SOL     OW19742   9.611   1.623   9.674  0.3044 -0.5894 -0.8815
 5415SOL    HW119743   9.658   1.706   9.669 -0.8882  0.1076 -0.8267
 5415SOL    HW219744   9.634   1.578   9.592  1.1297 -0.3205 -0.8115
 5416SOL     OW19745   1.272   8.131   1.601  0.1432  0.8450  0.4057
 5416SOL    HW119746   1.247   8.192   1.670 -0.2323  1.5122 -0.3084
 5416SOL    HW219747   1.321   8.183   1.539 -0.9001  0.6236 -0.6311
 5417SOL     OW19748   9.790  10.341  10.323 -0.5675  0.3902 -0.2081
 5417SOL    HW119749   9.754  10.309  10.241 -0.2737  0.3563 -0.3235
 5417SOL    HW219750   9.762  10.432  10.327 -2.0039 -0.0396  0.4529
 5418SOL     OW19751   1.608   5.363   6.733 -0.1963 -0.0002 -0.7552
 5418SOL    HW119752   1.526   5.387   6.691 -0.0065 -0.2201 -1.2672
 5418SOL    HW219753   1.636   5.442   6.779 -2.6395 -0.9509  2.7863
 5419SOL     OW19754   7.716   0.946   4.498 -0.0717 -0.0889  0.0093
 5419SOL    HW119755   7.805   0.942   4.534 -0.8295 -2.6199  1.8197
 5419SOL    HW219756   7.666   0.993   4.565 -0.6384 -1.0979  0.3011
 5420SOL     OW19757   3.041   7.446   1.627  0.1292  0.6359  0.2490
 5420SOL    HW119758   3.034   7.528   1.579  0.8654  0.0307 -0.9528
 5420SOL    HW219759   3.113   7.399   1.585 -0.3583 -0.6894  0.8099
 5421SOL     OW19760   5.973   2.970   0.255  0.3853  0.1322  0.0900
 5421SOL    HW119761   5.970   3.001   0.345  0.4872 -0.5803  0.3493
 5421SOL    HW219762   5.954   2.876   0.261  1.2106 -0.0922 -0.5387
 5422SOL     OW19763   6.129   6.161   5.644 -0.2502 -0.8792 -0.4863
 5422SOL    HW119764   6.175   6.191   5.723 -1.2472  1.3973 -0.6819
 5422SOL    HW219765   6.048   6.122   5.677 -0.7212  0.1766 -0.3413
 5423SOL     OW19766   0.440   0.815   2.178  0.1955  0.1600  0.2562
 5423SOL    HW119767   0.355   0.834   2.138  0.3431  0.0751 -0.1030
 5423SOL    HW219768   0.463   0.895   2.225  0.8316  0.9195 -1.2840
 5424SOL     OW19769   3.349   2.681   8.515  0.1731 -0.2185  0.6488
 5424SOL    HW119770   3.357   2.615   8.446 -1.2807 -2.2636  2.2952
 5424SOL    HW219771   3.433   2.727   8.515  0.4105 -0.4994 -2.0544
 5425SOL     OW19772   7.645   2.375   0.284 -0.6361 -0.2453 -0.4083
 5425SOL    HW119773   7.552   2.396   0.275 -0.7263 -0.9360 -1.3219
 5425SOL    HW219774   7.656   2.295   0.232  0.1553 -1.0611  0.9790
 5426SOL     OW19775   8.926   7.120   0.721  0.3642 -0.4728  0.0682
 5426SOL    HW119776   8.942   7.054   0.653  2.9918 -1.2265  1.2945
 5426SOL    HW219777   8.970   7.085   0.799 -0.9694  1.2339  1.6776
 5427SOL     OW19778   6.576   4.149   2.586  0.3419  0.1579  0.4282
 5427SOL    HW119779   6.513   4.209   2.546 -1.1864  0.3787  2.8941
 5427SOL    HW219780   6.627   4.113   2.513 -2.3612  0.3069 -1.6653
 5428SOL     OW19781   0.330   5.202   7.157 -0.6560  0.2596 -0.1379
 5428SOL    HW119782   0.320   5.217   7.063  1.4208 -0.5605 -0.5652
 5428SOL    HW219783   0.404   5.141   7.163 -2.8652 -2.4446  1.8781
 5429SOL     OW19784  10.682   9.622   5.835 -0.6006  0.2548  0.1849
 5429SOL    HW119785  10.763   9.601   5.789 -0.7045 -0.3981  0.2885
 5429SOL    HW219786  10.665   9.545   5.889  0.2730  1.5471  2.4207
 5430SOL     OW19787   1.300   3.474   3.638 -0.1260 -0.2230  0.8680
 5430SOL    HW119788   1.344   3.550   3.677  1.2560 -0.1004 -0.7837
 5430SOL    HW219789   1.337   3.399   3.685 -0.4484  0.0534  1.5647
 5431SOL     OW19790   9.164   3.179  10.946 -0.2428  0.1891 -0.4405
 5431SOL    HW119791   9.236   3.221  10.993 -0.2511  1.4487 -1.4933
 5431SOL    HW219792   9.162   3.089  10.980  1.2760  0.3730  0.2096
 5432SOL     OW19793   5.421   3.721   7.636 -0.4549 -0.2786 -0.6220
 5432SOL    HW119794   5.347   3.673   7.599  0.1379 -1.7900  0.0820
 5432SOL    HW219795   5.486   3.724   7.566 -0.7834  0.2017 -0.9173
 5433SOL     OW19796   9.901   4.063   8.540 -0.0031 -0.5470 -0.0378
 5433SOL    HW119797   9.924   4.151   8.512  1.9015 -0.8495  0.4377
 5433SOL    HW219798   9.840   4.031   8.473 -0.6761  1.0738 -0.2456
 5434SOL     OW19799   3.995   9.123   4.533  0.1023 -0.0228  0.4703
 5434SOL    HW119800   4.080   9.082   4.516  0.0459 -0.3806  1.0133
 5434SOL    HW219801   4.016   9.215   4.550  0.1037  0.4930 -1.9839
 5435SOL     OW19802   7.696   1.879   5.423  0.7451  0.5474 -0.2787
 5435SOL    HW119803   7.769   1.925   5.381  1.1053 -0.9600 -1.3673
 5435SOL    HW219804   7.661   1.821   5.355 -0.2293 -0.1841  0.8001
 5436SOL     OW19805   4.218   5.399   1.950  0.1925 -0.2901  0.5954
 5436SOL    HW119806   4.132   5.368   1.922  0.2613 -2.0502  2.0982
 5436SOL    HW219807   4.207   5.420   2.043  1.2101  0.1259  0.6324
 5437SOL     OW19808   3.421   8.425   9.648  0.3168  0.5976 -0.2572
 5437SOL    HW119809   3.460   8.355   9.700 -2.0371 -0.0270  0.8374
 5437SOL    HW219810   3.469   8.504   9.673  0.8681 -0.1166  0.9981
 5438SOL     OW19811  10.679   3.434   5.388 -0.3659  0.0700 -0.3872
 5438SOL    HW119812  10.610   3.500   5.384  0.8590  1.4806  0.4197
 5438SOL    HW219813  10.760   3.484   5.378  0.6507 -1.2072  0.9898
 5439SOL     OW19814   0.447   5.822   3.629  0.3804 -0.1541  0.1153
 5439SOL    HW119815   0.476   5.882   3.561  0.6090 -0.1126  0.2447
 5439SOL    HW219816   0.465   5.735   3.594  0.8260 -0.1259  0.2590
 5440SOL     OW19817   9.441   3.649   9.901 -0.4381  0.4996 -0.1651
 5440SOL    HW119818   9.424   3.731   9.854 -0.6061  0.2898 -0.4791
 5440SOL    HW219819   9.416   3.668   9.991 -0.0361  0.9336 -0.1424
 5441SOL     OW19820   6.791   6.692   5.669 -0.2769 -0.3066 -0.6585
 5441SOL    HW119821   6.716   6.643   5.703  1.0389 -1.2063  1.1696
 5441SOL    HW219822   6.854   6.625   5.643  1.1417  0.3455  0.8881
 5442SOL     OW19823  10.013   8.581   8.351  0.2580 -0.5381 -0.5405
 5442SOL    HW119824   9.993   8.538   8.267  2.2833 -1.2044 -0.7474
 5442SOL    HW219825  10.084   8.528   8.388 -0.0689  0.2147  1.2378
 5443SOL     OW19826   1.432   4.491   7.408  0.0671  0.0160 -0.2444
 5443SOL    HW119827   1.364   4.444   7.359 -1.2925  2.8115 -1.2362
 5443SOL    HW219828   1.383   4.545   7.470  1.6137 -0.4200  1.4429
 5444SOL     OW19829   2.812   4.153   6.700 -0.1344 -0.1477 -0.0292
 5444SOL    HW119830   2.853   4.191   6.777  0.8783 -0.2560 -0.4949
 5444SOL    HW219831   2.719   4.172   6.710 -0.0307 -0.2366  1.2550
 5445SOL     OW19832  10.869   3.222   8.520 -0.0571 -0.6707 -0.4385
 5445SOL    HW119833  10.889   3.215   8.426  0.1048 -1.9229 -0.3181
 5445SOL    HW219834  10.954   3.216   8.563  0.0318  1.3211 -0.2488
 5446SOL     OW19835   1.028   2.107   2.409  0.6294  0.2307 -0.0179
 5446SOL    HW119836   1.014   2.037   2.472  0.2914 -1.0949 -1.5010
 5446SOL    HW219837   1.111   2.146   2.434 -0.2572  0.8329  2.1960
 5447SOL     OW19838   9.380  10.960  10.988  0.5266 -0.8066 -0.4373
 5447SOL    HW119839   9.346  11.025  10.927  1.1100 -0.1621 -0.0946
 5447SOL    HW219840   9.323  10.968  11.065 -1.3824 -2.8974 -1.5254
 5448SOL     OW19841   9.969   6.579   6.477 -0.5045  0.2455  0.1705
 5448SOL    HW119842   9.986   6.659   6.426 -0.7924  0.2373  0.0624
 5448SOL    HW219843  10.013   6.510   6.428 -0.7307  0.2472 -0.0324
 5449SOL     OW19844   5.668  10.521  10.567  0.5316 -0.0401  0.9606
 5449SOL    HW119845   5.721  10.479  10.499 -0.4453  0.2858 -0.0454
 5449SOL    HW219846   5.594  10.462  10.579 -1.8013  2.0291 -1.7324
 5450SOL     OW19847   7.631   2.174   2.983 -0.2666  0.3778 -0.3441
 5450SOL    HW119848   7.596   2.181   3.071  0.9256  0.5223  0.1312
 5450SOL    HW219849   7.683   2.254   2.971 -2.3564  1.5985 -2.0833
 5451SOL     OW19850   0.645  10.802   0.715  0.4278  0.3067 -0.2211
 5451SOL    HW119851   0.699  10.864   0.667  0.3404 -0.2907 -1.1110
 5451SOL    HW219852   0.562  10.800   0.668  0.3614 -0.3346 -0.0845
 5452SOL     OW19853   8.621   5.365   8.292 -0.0294  0.3992 -0.0339
 5452SOL    HW119854   8.544   5.406   8.254 -0.4093  0.3554  0.6802
 5452SOL    HW219855   8.628   5.401   8.380 -1.2350 -2.0796  1.1725
 5453SOL     OW19856   6.746   7.318   4.864 -0.5598  0.2437  0.2719
 5453SOL    HW119857   6.727   7.235   4.906  0.1082 -0.1820 -0.2378
 5453SOL    HW219858   6.787   7.294   4.781 -1.5542  1.0665 -0.4784
 5454SOL     OW19859   7.305   5.000   1.368  0.7254  0.3216  0.2784
 5454SOL    HW119860   7.370   5.069   1.355 -1.3459  2.4558  0.5917
 5454SOL    HW219861   7.242   5.012   1.297 -0.9149  0.2949  1.6449
 5455SOL     OW19862   9.090   4.824   9.726 -0.3211 -0.5060  0.5426
 5455SOL    HW119863   9.093   4.905   9.676 -0.5370 -0.8311 -0.0011
 5455SOL    HW219864   9.045   4.762   9.669  1.0287 -1.3974  0.4026
 5456SOL     OW19865   6.035   0.416   4.755  0.2644  0.2804  0.1692
 5456SOL    HW119866   6.039   0.457   4.841 -1.1309  1.3801 -0.2424
 5456SOL    HW219867   6.122   0.432   4.717  0.6457  0.4275  1.0743
 5457SOL     OW19868   4.168   2.260   3.191 -0.0625  0.0253  0.3118
 5457SOL    HW119869   4.111   2.333   3.164  2.1192  1.9528  0.5935
 5457SOL    HW219870   4.148   2.248   3.284 -1.3967 -0.7357 -0.0350
 5458SOL     OW19871   4.502   7.603  10.897 -0.1495  0.4709  0.6807
 5458SOL    HW119872   4.484   7.636  10.809 -0.5842 -1.3969  0.0081
 5458SOL    HW219873   4.463   7.668  10.956 -2.1775  0.5018 -0.5726
 5459SOL     OW19874  10.527   2.235   9.106  0.7787 -0.2426  0.2560
 5459SOL    HW119875  10.496   2.243   9.196 -0.6486 -3.0652  0.1186
 5459SOL    HW219876  10.472   2.297   9.057  2.4927  2.3400  1.3950
 5460SOL     OW19877   0.288   5.945   2.726 -0.4662  0.3517  0.0787
 5460SOL    HW119878   0.374   5.979   2.748  0.0470 -1.6824  1.4961
 5460SOL    HW219879   0.302   5.851   2.713 -2.2355  0.1880 -1.0558
 5461SOL     OW19880   2.088   5.618   6.898  0.3894 -0.2471  0.0809
 5461SOL    HW119881   2.166   5.612   6.843 -1.2763  1.1074 -2.6972
 5461SOL    HW219882   2.048   5.531   6.893  1.1300 -0.6239  0.6024
 5462SOL     OW19883   8.537   8.951   4.355 -0.1641  0.5427  0.1501
 5462SOL    HW119884   8.541   8.861   4.390 -0.4576  1.6862  3.5482
 5462SOL    HW219885   8.620   8.990   4.382 -0.2708  1.4561 -0.7993
 5463SOL     OW19886   6.972   8.755   0.452 -0.2893 -0.2102 -0.4215
 5463SOL    HW119887   6.926   8.793   0.377 -1.9834 -0.4569  0.4531
 5463SOL    HW219888   7.009   8.673   0.419 -2.3032 -1.0815 -0.6447
 5464SOL     OW19889   5.607   2.039   2.935  0.0495  0.1370 -0.1404
 5464SOL    HW119890   5.559   2.052   3.017 -0.6001 -1.7196 -0.1941
 5464SOL    HW219891   5.581   1.952   2.905  3.4532 -1.0265 -0.1712
 5465SOL     OW19892   7.488   4.982  10.015 -0.1664  0.1671 -0.4283
 5465SOL    HW119893   7.474   4.901  10.064 -1.4332 -0.1145 -1.1894
 5465SOL    HW219894   7.439   5.048  10.064  0.4565  0.3750 -0.0793
 5466SOL     OW19895   2.587   1.437   2.103 -0.2581  0.0303 -0.8195
 5466SOL    HW119896   2.556   1.407   2.018 -1.3949 -2.1728  0.3050
 5466SOL    HW219897   2.509   1.470   2.147  0.1734  0.4096 -0.3158
 5467SOL     OW19898   7.634   8.383   0.878 -0.4312  0.0062 -0.1430
 5467SOL    HW119899   7.538   8.386   0.884 -0.4632 -0.9964 -0.0724
 5467SOL    HW219900   7.663   8.357   0.965 -0.1547 -0.6845 -0.4338
 5468SOL     OW19901   6.559   3.411   0.276  0.2217  0.0283  0.3021
 5468SOL    HW119902   6.626   3.442   0.337  0.7619 -1.1635  0.3356
 5468SOL    HW219903   6.608   3.388   0.197 -0.2402 -0.2319  0.0909
 5469SOL     OW19904   7.212   9.896  10.873  0.3325 -0.3231 -0.4655
 5469SOL    HW119905   7.220   9.826  10.938  1.3501  1.2315  1.1841
 5469SOL    HW219906   7.189   9.974  10.924  1.7223  1.0837 -1.8604
 5470SOL     OW19907   6.926   6.989  10.935  0.2759 -0.7823 -0.3471
 5470SOL    HW119908   6.842   7.008  10.977 -0.3714 -0.7797 -1.5687
 5470SOL    HW219909   6.984   7.059  10.964 -0.6491  0.2268 -0.8307
 5471SOL     OW19910   4.668   9.571   2.531  0.2328 -0.0328  0.3966
 5471SOL    HW119911   4.749   9.567   2.481  1.1684  0.0552  1.8423
 5471SOL    HW219912   4.695   9.560   2.622 -1.4467 -0.5831  0.8740
 5472SOL     OW19913   8.944   0.682   5.012 -0.2936 -0.0135  0.1313
 5472SOL    HW119914   8.964   0.622   4.940 -1.2906  0.1898 -0.3393
 5472SOL    HW219915   9.029   0.711   5.044  0.1861 -1.0324 -0.1813
 5473SOL     OW19916  10.117   0.253   1.668 -0.1815 -0.2070 -0.0557
 5473SOL    HW119917  10.096   0.324   1.608  0.7386  0.1132 -0.0145
 5473SOL    HW219918  10.033   0.229   1.707 -0.2234  2.7586  2.0535
 5474SOL     OW19919  10.571   4.256   8.656  0.5801 -0.0609  0.0260
 5474SOL    HW119920  10.595   4.224   8.744 -0.6001  0.7305  0.6638
 5474SOL    HW219921  10.651   4.246   8.605  1.6701  0.5799  1.5158
 5475SOL     OW19922   1.850   8.290   4.995  0.0939  0.3278  0.4239
 5475SOL    HW119923   1.913   8.238   5.044 -0.4254 -0.6628  0.0702
 5475SOL    HW219924   1.775   8.232   4.983 -0.0320  0.7388 -1.0212
 5476SOL     OW19925   5.056   7.118   7.152  0.0400  0.2192  0.0920
 5476SOL    HW119926   5.098   7.075   7.077  2.2039 -0.0147  1.3468
 5476SOL    HW219927   5.024   7.045   7.206  0.3706  0.2841  0.3858
 5477SOL     OW19928   6.523   4.996   1.800 -0.2040  0.9401 -0.0297
 5477SOL    HW119929   6.538   5.004   1.706 -0.6099 -0.9890 -0.2863
 5477SOL    HW219930   6.557   4.910   1.823 -1.5043  0.7468  1.3072
 5478SOL     OW19931   7.247   3.580   2.563  0.2648  0.1582  0.0551
 5478SOL    HW119932   7.248   3.493   2.524 -0.8554 -0.1031  0.5756
 5478SOL    HW219933   7.167   3.583   2.615 -0.2056  1.8044 -0.6585
 5479SOL     OW19934   5.773   3.670   3.874  0.2317 -0.3082 -0.3226
 5479SOL    HW119935   5.821   3.590   3.850  0.9171  0.2102 -0.7151
 5479SOL    HW219936   5.802   3.691   3.962  0.4045 -0.2338 -0.3973
 5480SOL     OW19937   4.653   7.361   2.811 -0.1243  0.2377  0.6533
 5480SOL    HW119938   4.654   7.337   2.719  2.3125  3.1438 -0.2458
 5480SOL    HW219939   4.682   7.281   2.857  0.6075 -0.6879 -1.3097
 5481SOL     OW19940   1.405   8.472   8.292  0.2025  0.1045  0.2420
 5481SOL    HW119941   1.373   8.550   8.338  1.4835  0.3589  0.7454
 5481SOL    HW219942   1.500   8.485   8.286  0.5347 -1.7085  0.9324
 5482SOL     OW19943   0.987   1.153   9.110  0.1862 -0.4669  0.1765
 5482SOL    HW119944   0.901   1.171   9.148 -0.9303 -1.3577 -1.7614
 5482SOL    HW219945   1.046   1.214   9.154 -1.9954  2.4709 -0.6620
 5483SOL     OW19946   9.007   2.593   4.102 -0.5090 -0.0242  0.3954
 5483SOL    HW119947   9.089   2.637   4.125 -0.2131 -0.9829  1.2830
 5483SOL    HW219948   9.035   2.511   4.062 -1.0508  0.6349 -1.4072
 5484SOL     OW19949   9.575   7.683   3.803  0.1476  0.0564  0.0574
 5484SOL    HW119950   9.535   7.769   3.814  1.5620  0.5415  1.7084
 5484SOL    HW219951   9.545   7.633   3.879  0.4712 -0.4617 -0.1534
 5485SOL     OW19952   2.235   8.843   5.732  0.4536 -0.4853  0.1090
 5485SOL    HW119953   2.255   8.807   5.645 -0.2344  0.5999 -0.5222
 5485SOL    HW219954   2.309   8.900   5.752  1.4285 -1.9977  1.0047
 5486SOL     OW19955   1.117   5.309   2.995 -0.0503 -0.0115  0.0210
 5486SOL    HW119956   1.155   5.348   2.916 -0.7383  0.3931 -0.1236
 5486SOL    HW219957   1.092   5.384   3.049 -0.0881 -0.2754  0.3760
 5487SOL     OW19958   1.582   4.384   8.352 -0.0588  0.1969 -0.4327
 5487SOL    HW119959   1.665   4.400   8.307  0.3080 -0.7257 -0.0962
 5487SOL    HW219960   1.560   4.468   8.392  1.7221 -0.0101  1.1227
 5488SOL     OW19961   2.263  10.067   5.450  0.5115 -0.1343  0.0638
 5488SOL    HW119962   2.189  10.102   5.400  0.2553 -0.3164  0.3111
 5488SOL    HW219963   2.339  10.114   5.417  0.4935 -0.9738 -1.2208
 5489SOL     OW19964   8.953   2.993   5.593  0.2101 -0.2978  0.4289
 5489SOL    HW119965   8.914   2.954   5.514 -0.1640  0.9172 -0.0165
 5489SOL    HW219966   9.030   2.940   5.611  0.2691 -0.6326 -0.7299
 5490SOL     OW19967   3.340   8.306   1.361  0.2352 -0.8685  0.3446
 5490SOL    HW119968   3.427   8.265   1.367  2.2702  3.1481  2.0217
 5490SOL    HW219969   3.292   8.269   1.435  0.9861 -2.1411  0.2290
 5491SOL     OW19970   4.075   6.373  10.513  0.3302 -0.1051  0.2068
 5491SOL    HW119971   4.019   6.441  10.550 -0.1600  0.0959 -0.8700
 5491SOL    HW219972   4.083   6.308  10.583 -1.2661 -0.1480  0.4015
 5492SOL     OW19973  11.007   5.960   2.614 -0.3204 -0.0630 -0.2520
 5492SOL    HW119974  10.957   6.035   2.647  0.7132  0.8148 -0.6145
 5492SOL    HW219975  11.078   5.950   2.677 -0.8130 -1.1883  0.1582
 5493SOL     OW19976   4.746   1.849   0.798  0.2573 -0.1247  0.0409
 5493SOL    HW119977   4.787   1.877   0.716 -0.0700  0.7421  0.1677
 5493SOL    HW219978   4.781   1.761   0.813  1.1317  0.1215 -0.4807
 5494SOL     OW19979   9.407  10.107   4.160  0.1074 -0.2149  0.5241
 5494SOL    HW119980   9.374  10.153   4.236  4.0219 -0.0300  2.3844
 5494SOL    HW219981   9.387  10.165   4.086 -0.5827  1.4250  1.9286
 5495SOL     OW19982   1.932   5.726   1.403  0.0732  0.2799 -0.2435
 5495SOL    HW119983   1.920   5.719   1.309  0.5591  0.1261 -0.2951
 5495SOL    HW219984   1.998   5.660   1.424 -0.8870 -0.5169  0.3741
 5496SOL     OW19985   3.124   7.048   7.344  0.0068 -0.3277 -1.1646
 5496SOL    HW119986   3.142   6.956   7.364  2.0870  0.3262  0.2478
 5496SOL    HW219987   3.030   7.056   7.356 -0.0132 -1.9358  0.2308
 5497SOL     OW19988   1.900   1.297   6.068  0.1762 -0.1173 -0.3211
 5497SOL    HW119989   1.882   1.329   5.979 -1.6273  0.4690  0.1975
 5497SOL    HW219990   1.918   1.204   6.057 -2.2379 -0.5686 -1.1378
 5498SOL     OW19991   1.306   3.832   5.736  0.0036 -0.4266 -0.5746
 5498SOL    HW119992   1.393   3.800   5.760  0.4031  1.0494  0.0690
 5498SOL    HW219993   1.321   3.921   5.704 -1.3687  0.2602  0.5788
 5499SOL     OW19994   3.205   6.811   7.458  0.0546  0.8214  0.1217
 5499SOL    HW119995   3.201   6.766   7.542  0.5905 -0.0368 -0.2977
 5499SOL    HW219996   3.236   6.744   7.396  0.1343  1.5639 -0.6640
 5500SOL     OW19997   4.877   5.022   9.363  0.1935  0.7232 -0.2224
 5500SOL    HW119998   4.885   5.102   9.312 -1.9537 -0.8451 -3.3147
 5500SOL    HW219999   4.909   4.953   9.306 -0.5298 -0.9374  1.2764
 5501SOL     OW20000  10.595   6.488   2.989 -0.5908 -0.3651 -0.3269
 5501SOL    HW120001  10.601   6.526   2.902  0.5453  0.0526 -0.0772
 5501SOL    HW220002  10.677   6.440   3.000 -0.8958 -0.7436  0.3605
 5502SOL     OW20003   9.439   3.103   5.690  0.5100  0.0289 -0.3595
 5502SOL    HW120004   9.433   3.009   5.671  0.7658  0.3624 -2.2604
 5502SOL    HW220005   9.530   3.116   5.718 -0.1350 -0.6397  2.4125
 5503SOL     OW20006   1.373   2.517   0.023  0.8274 -0.4847  0.4577
 5503SOL    HW120007   1.358   2.604  -0.015 -0.6808 -0.4711  1.0271
 5503SOL    HW220008   1.359   2.530   0.117 -1.1068 -1.6523  0.3894
 5504SOL     OW20009   5.221   8.411   5.644 -0.0760 -0.0619 -0.0959
 5504SOL    HW120010   5.155   8.458   5.594 -0.4610 -0.7006 -0.1914
 5504SOL    HW220011   5.273   8.480   5.686 -0.4291  0.4494 -0.4979
 5505SOL     OW20012   0.013   6.367   3.578  0.3249 -0.3596  0.1595
 5505SOL    HW120013   0.083   6.423   3.611  0.5910 -1.6429  1.8656
 5505SOL    HW220014   0.042   6.342   3.490  1.8894 -0.6104  0.7071
 5506SOL     OW20015   9.020   7.961   6.362  0.5550  0.1092  0.3989
 5506SOL    HW120016   8.991   8.034   6.307 -0.5418  0.6741  1.6768
 5506SOL    HW220017   9.116   7.965   6.357  0.4963  0.3160 -1.2112
 5507SOL     OW20018   2.486   8.779   6.230  0.0059 -0.4047  0.5329
 5507SOL    HW120019   2.426   8.820   6.168 -2.1124  0.0311  2.7394
 5507SOL    HW220020   2.549   8.847   6.252 -0.3694  0.0317  0.2654
 5508SOL     OW20021   9.436   4.846  10.383 -0.7808 -0.0834 -0.1926
 5508SOL    HW120022   9.516   4.793  10.381 -2.4600 -2.9020  0.9732
 5508SOL    HW220023   9.462   4.925  10.430  1.3635 -0.8269  0.0159
 5509SOL     OW20024   7.699   0.424   7.767 -0.5491  0.4662  0.3684
 5509SOL    HW120025   7.776   0.455   7.814  0.2972  1.5383 -1.5833
 5509SOL    HW220026   7.701   0.472   7.684 -2.1828 -1.0019 -0.5881
 5510SOL     OW20027   4.363   7.994   0.692  0.4963  0.7092 -0.2848
 5510SOL    HW120028   4.357   7.988   0.788 -0.9242  1.0262 -0.3332
 5510SOL    HW220029   4.370   8.088   0.675 -1.7154  0.8743 -0.5663
 5511SOL     OW20030   8.053   3.628   8.799  0.0722 -0.2888 -0.0428
 5511SOL    HW120031   8.033   3.713   8.837  0.0247 -0.4310  0.2497
 5511SOL    HW220032   7.997   3.566   8.846 -1.1835 -0.2637 -1.4173
 5512SOL     OW20033   6.102  10.344   2.383  0.0024 -0.1147  0.1897
 5512SOL    HW120034   6.187  10.351   2.428 -0.1821 -2.3206  0.9719
 5512SOL    HW220035   6.051  10.284   2.437 -2.0023  0.9443 -0.4242
 5513SOL     OW20036   0.437   1.969   2.617  0.0503  0.5747 -0.0220
 5513SOL    HW120037   0.392   1.947   2.698  0.3956 -0.4384 -0.0922
 5513SOL    HW220038   0.516   1.915   2.618  0.2507  0.8456 -0.8378
 5514SOL     OW20039   6.013   4.188   3.353 -0.0622 -0.6627  0.3269
 5514SOL    HW120040   6.063   4.106   3.353 -0.9054 -1.2163 -1.2693
 5514SOL    HW220041   6.077   4.254   3.381  1.6844 -1.3036 -1.8351
 5515SOL     OW20042   3.438   2.346   8.874 -0.4833  0.0043  0.1486
 5515SOL    HW120043   3.513   2.295   8.905 -2.1812 -2.4495  0.4300
 5515SOL    HW220044   3.402   2.386   8.954 -1.6753 -1.9509  0.6535
 5516SOL     OW20045   0.232   9.780   6.925  0.5726  0.3990 -0.3961
 5516SOL    HW120046   0.195   9.692   6.928 -0.9970  1.0558  0.0909
 5516SOL    HW220047   0.187   9.823   6.852  0.2789  1.2451  0.2623
 5517SOL     OW20048   1.348  10.424   8.421  0.4713 -0.0229 -0.0853
 5517SOL    HW120049   1.271  10.446   8.474 -0.6620 -1.2194 -1.1699
 5517SOL    HW220050   1.351  10.491   8.353  2.3482  1.9450  1.7837
 5518SOL     OW20051   1.385   5.234   3.711  0.2890  0.1629 -0.2106
 5518SOL    HW120052   1.317   5.172   3.737  0.8426 -0.3099  0.1509
 5518SOL    HW220053   1.403   5.284   3.790  0.7605 -0.1075 -0.1410
 5519SOL     OW20054   0.459   9.757   7.082 -0.3996  0.0486 -0.0957
 5519SOL    HW120055   0.542   9.801   7.060  0.1154 -1.4224 -1.2507
 5519SOL    HW220056   0.395   9.794   7.022 -0.5078  0.8751  0.5079
 5520SOL     OW20057   5.271   0.723  10.133  0.1799 -0.4219 -0.1848
 5520SOL    HW120058   5.296   0.648  10.079 -1.2850  0.0639 -1.5961
 5520SOL    HW220059   5.200   0.691  10.188  1.1898 -0.7137  0.9886
 5521SOL     OW20060   9.913   3.378   9.232 -0.2119  0.4058 -0.0380
 5521SOL    HW120061   9.818   3.364   9.232 -0.2404  0.5589 -0.6216
 5521SOL    HW220062   9.929   3.438   9.159  0.2839  0.7799  0.3672
 5522SOL     OW20063   6.626   6.761   8.206 -0.3988 -0.3152  0.3624
 5522SOL    HW120064   6.565   6.691   8.184  0.7504 -1.1286 -0.3757
 5522SOL    HW220065   6.572   6.840   8.209 -1.0619 -0.4638 -3.2671
 5523SOL     OW20066   5.266   0.452   5.792 -0.0282 -0.1600 -0.0798
 5523SOL    HW120067   5.186   0.425   5.747  0.2465  0.5885 -1.0326
 5523SOL    HW220068   5.265   0.548   5.787 -0.0774 -0.0232  1.6712
 5524SOL     OW20069   2.255   8.139   9.945  0.1103  0.3327  0.5996
 5524SOL    HW120070   2.259   8.168  10.036  0.1581 -0.2036  0.7725
 5524SOL    HW220071   2.270   8.045   9.949 -0.9587  0.1279  0.1410
 5525SOL     OW20072   2.489   6.010   1.059 -0.7585 -0.1485  0.4798
 5525SOL    HW120073   2.479   5.995   0.966 -1.1408 -0.1614  0.5234
 5525SOL    HW220074   2.559   5.950   1.086 -1.1777 -0.6931  0.3525
 5526SOL     OW20075   0.626  10.176   9.647  0.5927  0.8041 -0.3600
 5526SOL    HW120076   0.559  10.143   9.587 -0.2214  0.5062  0.6836
 5526SOL    HW220077   0.704  10.122   9.629  0.1789  0.3263 -0.7397
 5527SOL     OW20078  10.279   0.706   3.080 -0.0840  0.1914  0.6448
 5527SOL    HW120079  10.207   0.701   3.143 -0.4652  2.3633  0.4429
 5527SOL    HW220080  10.298   0.615   3.059 -3.7697 -0.4938 -0.4534
 5528SOL     OW20081   4.727   7.576   7.922  0.6784  0.3203 -0.2450
 5528SOL    HW120082   4.646   7.525   7.925  0.3925  0.7842  0.4050
 5528SOL    HW220083   4.752   7.578   7.830 -0.3247  0.5876 -0.5181
 5529SOL     OW20084   7.320   5.855   5.040  0.3117  0.6340 -0.1640
 5529SOL    HW120085   7.245   5.859   5.100  0.6462 -1.0493  0.4457
 5529SOL    HW220086   7.288   5.804   4.965  1.4276 -2.3315  1.2020
 5530SOL     OW20087   5.249   4.016   2.385 -0.0772  0.3066  0.4591
 5530SOL    HW120088   5.300   4.092   2.356 -0.8427  1.1576  1.2632
 5530SOL    HW220089   5.189   4.051   2.451 -0.8878 -0.8824  0.3934
 5531SOL     OW20090   5.664   9.241   3.067  0.1141 -0.6579  0.1108
 5531SOL    HW120091   5.631   9.318   3.114 -0.2844  0.0981 -1.3222
 5531SOL    HW220092   5.712   9.191   3.132  1.7613  1.6145  0.7540
 5532SOL     OW20093   5.553   9.308  10.440 -0.3313  0.5962  0.3702
 5532SOL    HW120094   5.558   9.219  10.407  0.4425  0.2584  1.3337
 5532SOL    HW220095   5.464   9.317  10.474 -0.7918  0.6041 -0.7996
 5533SOL     OW20096   2.700   8.980  10.657 -0.0081  0.0878 -0.1422
 5533SOL    HW120097   2.668   9.064  10.692  0.5134  0.7730 -1.2499
 5533SOL    HW220098   2.786   8.969  10.698  0.0383  0.2364 -0.1964
 5534SOL     OW20099   7.740   6.859  10.812 -0.1357  0.3918 -0.0183
 5534SOL    HW120100   7.792   6.931  10.846  0.1518 -0.5074  1.5581
 5534SOL    HW220101   7.713   6.810  10.890 -1.5193 -0.3999 -0.9446
 5535SOL     OW20102   5.076   8.397   2.988 -0.4018  0.2472  0.4234
 5535SOL    HW120103   5.164   8.434   3.002  0.0033 -0.1530 -0.9385
 5535SOL    HW220104   5.051   8.363   3.074  1.2548 -0.6235  0.6037
 5536SOL     OW20105   8.028   2.363   0.617 -0.5810 -0.4291 -0.0658
 5536SOL    HW120106   8.087   2.302   0.574  1.5156  1.5508 -0.2115
 5536SOL    HW220107   8.019   2.436   0.555  0.1370  1.1332  1.5613
 5537SOL     OW20108   0.146   7.419   0.445  0.1610 -0.0103 -0.1187
 5537SOL    HW120109   0.063   7.442   0.486  0.7368  1.8788  0.0841
 5537SOL    HW220110   0.164   7.330   0.476 -1.3625 -0.1450  0.4774
 5538SOL     OW20111   5.224   5.872   1.369 -0.5883  0.5434  0.0452
 5538SOL    HW120112   5.259   5.790   1.335 -1.1975 -0.0657  0.8503
 5538SOL    HW220113   5.130   5.867   1.354 -0.5991  1.2161 -0.1448
 5539SOL     OW20114   3.565   2.131   1.218 -0.2681  0.7186  0.1086
 5539SOL    HW120115   3.619   2.186   1.275 -1.1738  1.5163  0.2143
 5539SOL    HW220116   3.499   2.094   1.277  1.1108 -1.6514  0.3439
 5540SOL     OW20117   6.827   9.872   7.746 -0.2418 -0.2970  0.0507
 5540SOL    HW120118   6.895   9.880   7.679 -0.5747 -1.2831 -0.4224
 5540SOL    HW220119   6.767   9.806   7.711 -1.2153  0.2529  0.6503
 5541SOL     OW20120   6.956   2.653   5.395 -0.0906  0.0976  0.9807
 5541SOL    HW120121   6.864   2.671   5.375  0.3369  0.7057 -0.5942
 5541SOL    HW220122   6.959   2.559   5.414 -0.8899 -0.1158  0.1118
 5542SOL     OW20123  10.402   1.053   1.635 -0.1867  0.1856 -0.2535
 5542SOL    HW120124  10.476   1.029   1.691 -0.3386 -3.3456 -1.2703
 5542SOL    HW220125  10.441   1.096   1.560  0.2715  2.5944  1.2715
 5543SOL     OW20126   8.286   1.617   0.280  0.4896 -0.4892  0.0162
 5543SOL    HW120127   8.318   1.635   0.368 -0.7421  2.2016  0.0127
 5543SOL    HW220128   8.207   1.563   0.293  0.3132 -0.1011  0.5733
 5544SOL     OW20129  10.777   8.761   2.566 -0.2530 -0.4229 -0.3855
 5544SOL    HW120130  10.869   8.776   2.586 -0.6678  2.0405  0.0552
 5544SOL    HW220131  10.768   8.787   2.474 -0.6699  0.4589 -0.1151
 5545SOL     OW20132   0.152  10.871   1.960  0.8577 -0.2320  0.8765
 5545SOL    HW120133   0.123  10.785   1.929  2.6239 -0.1203 -1.4408
 5545SOL    HW220134   0.183  10.856   2.049 -0.5278 -1.5826  1.1689
 5546SOL     OW20135   6.514   5.111   5.694  0.2609 -0.0139 -0.4990
 5546SOL    HW120136   6.579   5.136   5.628 -1.2182  0.6245 -1.7634
 5546SOL    HW220137   6.552   5.141   5.777  1.1543  1.2126 -1.3144
 5547SOL     OW20138   3.067   2.850   6.868  0.3764  0.2162 -0.2219
 5547SOL    HW120139   3.016   2.931   6.866  0.1859  0.1797  1.4617
 5547SOL    HW220140   3.158   2.879   6.857  0.2092  0.5087 -0.9220
 5548SOL     OW20141   1.935   5.947   7.917  0.4322 -0.0032  0.5672
 5548SOL    HW120142   1.861   5.905   7.959  0.7447 -2.1898 -0.8814
 5548SOL    HW220143   2.010   5.891   7.938  1.0776  0.4010 -0.5407
 5549SOL     OW20144   0.146   5.911   9.480 -0.2664 -0.3846  0.1449
 5549SOL    HW120145   0.141   5.815   9.484 -1.2231 -0.3154  1.0778
 5549SOL    HW220146   0.158   5.930   9.387  0.4224 -1.4234 -0.0003
 5550SOL     OW20147   6.536   1.176   8.024  0.8036 -0.3479 -0.0591
 5550SOL    HW120148   6.615   1.135   7.989  0.4043 -0.5799 -0.6953
 5550SOL    HW220149   6.548   1.270   8.006  2.1758 -0.0111  2.2884
 5551SOL     OW20150   3.129   0.491   1.567  0.0669  0.0867 -0.3061
 5551SOL    HW120151   3.047   0.441   1.562 -0.6439  1.1280  0.5122
 5551SOL    HW220152   3.120   0.545   1.645  0.8516  1.4234 -1.0901
 5552SOL     OW20153   9.284   7.632   9.695 -0.4651 -0.0996  0.0015
 5552SOL    HW120154   9.309   7.667   9.609 -2.9691  0.5288 -0.5408
 5552SOL    HW220155   9.340   7.679   9.757  1.9851 -1.1683 -1.2667
 5553SOL     OW20156   5.713   7.086   2.767 -0.3140 -0.0807 -0.3728
 5553SOL    HW120157   5.797   7.129   2.783 -0.8674  1.0880 -0.4627
 5553SOL    HW220158   5.734   6.994   2.755  0.6024 -0.4560  3.0643
 5554SOL     OW20159   4.273   0.162   4.193  0.3301  0.3257 -0.5195
 5554SOL    HW120160   4.194   0.116   4.166 -1.6280  1.9867  1.8850
 5554SOL    HW220161   4.241   0.238   4.242  3.4266  1.9307 -0.7366
 5555SOL     OW20162   0.104   8.241   8.673 -0.5590  0.1236 -0.0081
 5555SOL    HW120163   0.161   8.242   8.750  0.1802 -0.5254 -0.5330
 5555SOL    HW220164   0.148   8.183   8.611 -0.3039  1.8643 -1.5517
 5556SOL     OW20165   6.946   5.595   9.342 -0.1311  0.9304 -0.5046
 5556SOL    HW120166   6.962   5.670   9.285 -0.2033  1.0744 -0.3343
 5556SOL    HW220167   6.973   5.519   9.290  0.7580  1.1318 -0.3693
 5557SOL     OW20168   4.626   2.614   2.156  0.0466  0.3386 -0.0286
 5557SOL    HW120169   4.543   2.606   2.203 -0.0150  2.5149  0.2990
 5557SOL    HW220170   4.600   2.627   2.065  0.1655 -3.7814 -0.8739
 5558SOL     OW20171   9.861   5.498   8.365  0.1107  0.1070 -0.6743
 5558SOL    HW120172   9.767   5.482   8.354 -0.1512  0.1390  1.1667
 5558SOL    HW220173   9.868   5.593   8.377  0.1499 -0.0581  0.8102
 5559SOL     OW20174   0.232   5.257   1.930 -1.0787  0.0347 -0.2064
 5559SOL    HW120175   0.230   5.351   1.914  1.9147  0.7937  2.6966
 5559SOL    HW220176   0.170   5.243   2.002 -1.0292 -0.0805 -0.1843
 5560SOL     OW20177   0.690   0.035   9.740  0.0849  0.0177 -0.7985
 5560SOL    HW120178   0.716   0.060   9.652 -0.0833 -0.5672 -1.0164
 5560SOL    HW220179   0.639  -0.045   9.729  2.0240 -1.4147 -0.0018
 5561SOL     OW20180   2.340   3.025   6.178 -0.5611  0.1112 -0.8392
 5561SOL    HW120181   2.266   2.971   6.206 -0.6041  1.5614  2.2435
 5561SOL    HW220182   2.412   2.998   6.235  0.6213  0.4557 -2.1107
 5562SOL     OW20183   7.038   6.948   4.589 -0.4818  0.2504  0.0059
 5562SOL    HW120184   7.115   7.005   4.589 -0.4997  0.2775  0.5244
 5562SOL    HW220185   6.973   6.994   4.536  0.4946 -0.6514 -2.1304
 5563SOL     OW20186   7.572   9.769   4.462  0.3463  0.0235 -0.0783
 5563SOL    HW120187   7.566   9.674   4.452 -0.4782  0.0998 -0.3093
 5563SOL    HW220188   7.504   9.804   4.405 -0.3964  0.6845  1.1697
 5564SOL     OW20189   8.718  10.614  10.260  0.0119 -0.0312 -0.4857
 5564SOL    HW120190   8.750  10.616  10.169 -0.9305 -1.1599 -0.8722
 5564SOL    HW220191   8.624  10.599  10.252 -0.2577  0.9255  0.6747
 5565SOL     OW20192   9.900   0.545   5.935 -0.4193 -0.0191  0.0778
 5565SOL    HW120193   9.988   0.576   5.958  0.3961 -2.1059 -0.0072
 5565SOL    HW220194   9.896   0.554   5.840 -0.0884 -0.3828  0.0248
 5566SOL     OW20195   0.307   4.747   5.267 -0.1579  0.6178  0.2693
 5566SOL    HW120196   0.246   4.798   5.213 -0.7882  1.8317  2.0527
 5566SOL    HW220197   0.286   4.656   5.246 -1.3707  1.0372 -0.4545
 5567SOL     OW20198   6.894   5.222   9.241  0.0087 -0.2225 -0.4855
 5567SOL    HW120199   6.824   5.191   9.299  0.9589  0.0724  0.8573
 5567SOL    HW220200   6.848   5.248   9.161 -1.2283 -1.5862 -0.2712
 5568SOL     OW20201   9.963   9.792   6.940  0.1880  0.8673 -0.1127
 5568SOL    HW120202   9.869   9.779   6.951 -0.0724  1.7545 -1.0488
 5568SOL    HW220203   9.976   9.884   6.962  0.5102  1.2408 -1.7280
 5569SOL     OW20204   1.623   6.714  10.900 -0.3223 -0.1242  0.1902
 5569SOL    HW120205   1.696   6.682  10.953 -0.9509 -2.5761 -0.2763
 5569SOL    HW220206   1.551   6.724  10.962  0.2308  1.8559  0.5727
 5570SOL     OW20207   4.926   7.131   4.147  1.0978  0.4853  0.7778
 5570SOL    HW120208   4.918   7.188   4.223  0.6591  0.6493  0.6097
 5570SOL    HW220209   4.898   7.045   4.178 -0.9204  0.9392  0.3297
 5571SOL     OW20210   2.036   8.214   9.398 -0.0632 -0.0991 -0.3103
 5571SOL    HW120211   2.062   8.122   9.404  0.8378  0.1973  0.6112
 5571SOL    HW220212   2.115   8.260   9.368  0.0650  0.6105  1.0339
 5572SOL     OW20213   4.011   4.496  10.606 -0.3929 -0.4399  0.2028
 5572SOL    HW120214   3.947   4.504  10.535  0.6837 -1.1610 -0.8814
 5572SOL    HW220215   4.044   4.407  10.599  1.1500  0.0881  0.3661
 5573SOL     OW20216   6.369   0.838   4.972 -0.7336  0.0989 -0.4668
 5573SOL    HW120217   6.365   0.783   4.893  0.7112  0.7826 -1.0370
 5573SOL    HW220218   6.387   0.926   4.939 -0.9629  0.5488  0.5808
 5574SOL     OW20219   8.157   4.738   1.595  0.1681  0.8551  0.6623
 5574SOL    HW120220   8.155   4.798   1.669 -0.8557  1.8473 -0.1354
 5574SOL    HW220221   8.176   4.794   1.519  1.7705 -0.2181  0.2155
 5575SOL     OW20222   1.930   5.995   6.678  0.1907  0.0864  0.1478
 5575SOL    HW120223   1.982   6.075   6.675 -0.0092  0.1936 -2.8591
 5575SOL    HW220224   1.844   6.021   6.644 -0.2731 -1.1439  0.3353
 5576SOL     OW20225   8.041   7.073   9.065 -0.6872 -0.3959 -0.0023
 5576SOL    HW120226   8.065   7.056   8.974  0.9698  0.9215  0.1399
 5576SOL    HW220227   8.004   7.162   9.064 -1.3412 -0.6532  0.5135
 5577SOL     OW20228   4.721   6.554   5.696  0.1865 -0.0833  0.5330
 5577SOL    HW120229   4.768   6.503   5.631  0.2454  0.9432 -0.2512
 5577SOL    HW220230   4.707   6.493   5.769  0.9203 -0.9802 -0.0568
 5578SOL     OW20231  10.348   9.216   3.477 -0.1694 -0.6153  0.3678
 5578SOL    HW120232  10.260   9.233   3.446 -0.6250 -0.5438  1.6300
 5578SOL    HW220233  10.351   9.121   3.492  0.2244 -0.7311 -0.4026
 5579SOL     OW20234   4.408   7.181   3.204  0.4005 -0.7247  0.5403
 5579SOL    HW120235   4.313   7.177   3.210  0.3556  1.1406  2.8944
 5579SOL    HW220236   4.438   7.100   3.245 -0.2265 -0.2408  2.0234
 5580SOL     OW20237   8.940   8.313   9.559 -0.1525 -0.2384  0.4681
 5580SOL    HW120238   8.861   8.286   9.606  1.5687 -1.5002  2.8734
 5580SOL    HW220239   8.975   8.386   9.611 -0.0208  0.7216 -0.9135
 5581SOL     OW20240   5.264   4.564   0.335  0.1125 -0.0386 -0.1506
 5581SOL    HW120241   5.307   4.647   0.354 -1.1051  0.9315 -1.4868
 5581SOL    HW220242   5.335   4.499   0.339  1.5735  1.4023 -1.5711
 5582SOL     OW20243   0.127   2.849   6.255 -0.1014 -0.0009  0.5198
 5582SOL    HW120244   0.156   2.882   6.340 -0.5890  0.5938  0.4657
 5582SOL    HW220245   0.036   2.823   6.270  0.4761 -2.0876  0.7585
 5583SOL     OW20246   8.040   8.555   8.702  0.4808 -0.0317 -0.4773
 5583SOL    HW120247   8.100   8.503   8.756  1.9152 -0.0346 -1.9997
 5583SOL    HW220248   7.982   8.598   8.766  1.4240 -0.8400  0.9917
 5584SOL     OW20249   9.482   4.599  10.634 -0.2643  0.0441 -0.1056
 5584SOL    HW120250   9.540   4.665  10.673  2.0938 -1.3226 -1.0670
 5584SOL    HW220251   9.394   4.626  10.660  0.7352  2.5084  1.0620
 5585SOL     OW20252  10.614   1.575   8.214 -0.0177 -0.2463 -0.0954
 5585SOL    HW120253  10.583   1.642   8.274 -4.5254 -1.8949 -0.1844
 5585SOL    HW220254  10.560   1.585   8.136  1.3152 -2.0649 -1.3596
 5586SOL     OW20255   4.732   1.737   5.229 -0.5919  0.1427 -0.2389
 5586SOL    HW120256   4.754   1.817   5.276 -1.7555  0.7739 -0.7478
 5586SOL    HW220257   4.807   1.722   5.171 -0.2046  0.6616  0.1226
 5587SOL     OW20258   4.281   0.306  10.111  0.0327 -0.6527 -0.2918
 5587SOL    HW120259   4.338   0.231  10.097 -0.8231 -1.8559  2.0256
 5587SOL    HW220260   4.206   0.270  10.158 -0.4871  1.6235  0.7707
 5588SOL     OW20261   2.741   0.100   5.747 -0.4363 -0.2378 -0.1765
 5588SOL    HW120262   2.695   0.115   5.829 -1.1455  0.4726 -0.6822
 5588SOL    HW220263   2.700   0.161   5.685 -0.1661 -1.0172 -1.1505
 5589SOL     OW20264   3.994   9.728   8.492 -0.0016  0.5384 -0.8683
 5589SOL    HW120265   4.072   9.682   8.459  0.4132  0.3706  0.2906
 5589SOL    HW220266   4.016   9.821   8.485  0.9530  0.4805  0.8767
 5590SOL     OW20267   8.536   4.289   2.780 -0.4160 -0.4495 -0.0327
 5590SOL    HW120268   8.566   4.299   2.871 -3.7254  0.6163  1.1209
 5590SOL    HW220269   8.484   4.209   2.781 -2.3686  0.7513 -0.3177
 5591SOL     OW20270   5.947   7.836   4.397 -0.3645  0.3964 -0.5648
 5591SOL    HW120271   6.011   7.834   4.468  0.7569  1.6404 -1.4989
 5591SOL    HW220272   5.957   7.923   4.358 -1.4966  0.0194 -1.7653
 5592SOL     OW20273   5.391   3.448   8.680 -0.1746  0.2823 -0.3521
 5592SOL    HW120274   5.434   3.470   8.763 -1.0392  1.7969 -0.2493
 5592SOL    HW220275   5.297   3.451   8.701 -0.3814 -1.5565 -0.8810
 5593SOL     OW20276   5.297   0.826   6.696 -0.6853  0.0674  0.2799
 5593SOL    HW120277   5.350   0.855   6.770 -0.9902 -0.8796  0.8813
 5593SOL    HW220278   5.360   0.787   6.636 -0.3782  1.2116 -0.1835
 5594SOL     OW20279   0.227   7.494   7.296  0.1890 -0.1921  0.3177
 5594SOL    HW120280   0.226   7.522   7.204 -2.3160 -1.2245 -0.0372
 5594SOL    HW220281   0.199   7.572   7.345  0.9998  0.1993  0.1795
 5595SOL     OW20282   2.975   0.399   3.768 -0.0140 -0.5466 -1.0786
 5595SOL    HW120283   3.035   0.434   3.834 -0.4859 -0.0288 -0.9256
 5595SOL    HW220284   3.033   0.356   3.704  0.6207  0.9059 -1.5255
 5596SOL     OW20285   6.950   4.000   3.856 -0.3918 -0.1934  0.4410
 5596SOL    HW120286   6.980   4.005   3.765  1.2434  1.7875  1.0287
 5596SOL    HW220287   6.874   4.058   3.859 -1.6799 -1.7765 -0.0429
 5597SOL     OW20288   1.329  10.641   6.811  0.2554 -0.1678  0.6875
 5597SOL    HW120289   1.364  10.591   6.737 -0.0225  1.9554 -1.0033
 5597SOL    HW220290   1.339  10.583   6.886  1.4865 -2.0620 -0.8216
 5598SOL     OW20291  10.329   3.276  10.739  0.2012 -0.1854  0.6774
 5598SOL    HW120292  10.316   3.331  10.816 -1.8060  0.0897  0.2025
 5598SOL    HW220293  10.242   3.242  10.719  1.2321 -2.9804  0.5029
 5599SOL     OW20294   0.817   5.128   0.131  0.0722 -0.2074 -0.0117
 5599SOL    HW120295   0.906   5.143   0.102 -0.1008 -0.1459 -0.5092
 5599SOL    HW220296   0.763   5.180   0.073 -0.2368  0.3817  0.7810
 5600SOL     OW20297   7.074   7.603   8.146  0.9909  0.6059  1.0059
 5600SOL    HW120298   7.002   7.630   8.203  0.9769  0.1163  1.2316
 5600SOL    HW220299   7.077   7.668   8.077 -0.9263 -0.4186 -0.1081
 5601SOL     OW20300   5.620   9.647   6.385  0.1680 -0.7079  0.4842
 5601SOL    HW120301   5.536   9.689   6.365  0.2463 -0.7396  0.0755
 5601SOL    HW220302   5.605   9.603   6.469  0.1962  0.4194  1.1044
 5602SOL     OW20303   2.901   0.098   6.898  0.1307  0.0544  0.3490
 5602SOL    HW120304   2.841   0.170   6.920  0.6932  0.8564 -0.6513
 5602SOL    HW220305   2.973   0.107   6.961  0.4662  0.7176 -0.1223
 5603SOL     OW20306   0.530   7.630   6.321 -0.3785 -0.1638 -0.1410
 5603SOL    HW120307   0.580   7.711   6.309  1.1140 -1.1752 -1.1241
 5603SOL    HW220308   0.443   7.651   6.287  0.4033  0.6326 -1.7811
 5604SOL     OW20309   9.796   7.538   8.178 -0.0920  0.3865 -0.2887
 5604SOL    HW120310   9.709   7.529   8.140  0.1754 -0.0819 -0.8044
 5604SOL    HW220311   9.838   7.608   8.128 -0.1338  0.5424 -0.1081
 5605SOL     OW20312   6.970   9.270   9.966 -0.6248  0.5232  0.1546
 5605SOL    HW120313   6.920   9.329  10.024  1.6096  0.3003  2.5055
 5605SOL    HW220314   7.024   9.329   9.913 -1.1992  0.6765 -0.2658
 5606SOL     OW20315   0.447   5.658   0.872  0.5648 -0.0862  0.5828
 5606SOL    HW120316   0.415   5.679   0.785 -0.4663 -2.6500  0.2605
 5606SOL    HW220317   0.531   5.705   0.879  0.9447 -0.2540 -1.9917
 5607SOL     OW20318   6.871   0.740  10.839 -0.1276 -0.5497 -0.3432
 5607SOL    HW120319   6.904   0.704  10.756  0.5724  1.0403 -0.7929
 5607SOL    HW220320   6.823   0.668  10.879 -1.8329 -0.9365 -2.8649
 5608SOL     OW20321   0.493   1.684   1.737  0.7871  0.2762 -0.0612
 5608SOL    HW120322   0.535   1.612   1.784  1.1003  0.8482  0.5505
 5608SOL    HW220323   0.550   1.700   1.662 -0.1228 -1.1554 -1.1156
 5609SOL     OW20324  10.166  10.221   2.756  0.2715 -0.5366  0.4122
 5609SOL    HW120325  10.179  10.195   2.847  2.7872 -1.4829 -0.1343
 5609SOL    HW220326  10.226  10.165   2.706 -0.9882 -0.0176 -1.8388
 5610SOL     OW20327   9.879   2.687   7.503 -0.2404  0.2813 -0.3942
 5610SOL    HW120328   9.800   2.699   7.450  0.2153  0.7141 -0.9839
 5610SOL    HW220329   9.880   2.593   7.523 -1.4808  0.4375  0.5549
 5611SOL     OW20330  10.857   4.294   0.307  0.1055  0.1406 -0.5561
 5611SOL    HW120331  10.838   4.377   0.263 -2.8691 -0.3402 -0.3366
 5611SOL    HW220332  10.812   4.228   0.255  0.8628 -1.1118  0.3273
 5612SOL     OW20333  10.530   6.701   4.358  0.0567  0.4471 -0.1720
 5612SOL    HW120334  10.568   6.774   4.309  1.0787  0.4930  0.6666
 5612SOL    HW220335  10.489   6.742   4.434  0.0526  0.2071 -0.0443
 5613SOL     OW20336   2.056   3.481   2.168 -0.6454 -0.5269 -0.0874
 5613SOL    HW120337   1.988   3.549   2.159  0.4799  0.5480 -0.9238
 5613SOL    HW220338   2.071   3.452   2.078 -1.2154 -2.0380  0.2807
 5614SOL     OW20339   8.852   5.313  10.346 -1.0592 -0.3288  0.2914
 5614SOL    HW120340   8.872   5.343  10.435 -1.0988 -1.1521  0.5890
 5614SOL    HW220341   8.770   5.357  10.324 -0.0261  1.4776 -0.1474
 5615SOL     OW20342   8.489   5.900   3.749  0.2939  0.2099  1.0806
 5615SOL    HW120343   8.498   5.826   3.688  0.7916  0.9906  0.1724
 5615SOL    HW220344   8.533   5.973   3.705  1.3113  0.6298  2.7097
 5616SOL     OW20345   9.832   9.834   4.019 -0.1216  0.2458  0.4244
 5616SOL    HW120346   9.826   9.815   4.113  2.1077  1.5629  0.9113
 5616SOL    HW220347   9.773   9.909   4.006  0.3997  0.7840  1.0470
 5617SOL     OW20348   8.062   5.798   7.781 -0.4140  0.1301 -0.3436
 5617SOL    HW120349   8.055   5.733   7.850  1.6453 -0.4544 -0.6100
 5617SOL    HW220350   7.973   5.808   7.748 -1.4711  0.4733  2.3701
 5618SOL     OW20351   8.041   9.993  10.339 -0.0271  0.0012 -0.4109
 5618SOL    HW120352   8.029   9.965  10.430 -0.3022 -0.5403 -0.6102
 5618SOL    HW220353   8.003   9.922  10.287  1.1622 -0.2305 -0.9829
 5619SOL     OW20354   0.788   6.198   3.605  0.6734 -0.3299  0.6046
 5619SOL    HW120355   0.777   6.137   3.678  0.1013 -0.0559  0.7521
 5619SOL    HW220356   0.878   6.185   3.576  0.2448 -1.9805 -0.0485
 5620SOL     OW20357   6.116   7.008   1.649  0.1108 -0.0440 -0.3790
 5620SOL    HW120358   6.175   7.077   1.618 -0.2691  0.1686 -0.6295
 5620SOL    HW220359   6.036   7.019   1.598  0.1379 -0.8388 -0.6015
 5621SOL     OW20360   1.445   3.832   1.278  0.7224 -0.3601 -0.0168
 5621SOL    HW120361   1.379   3.831   1.348 -0.1853  0.2315 -0.8360
 5621SOL    HW220362   1.527   3.853   1.323 -0.1802  2.1731  0.6348
 5622SOL     OW20363   2.904   0.799   0.851  0.0108  0.4067 -0.3899
 5622SOL    HW120364   2.922   0.880   0.803  3.1234  1.1190  1.6757
 5622SOL    HW220365   2.917   0.822   0.943  0.9985 -2.4109  0.2851
 5623SOL     OW20366   8.972   7.299   3.091 -0.6205 -0.2043 -0.3353
 5623SOL    HW120367   8.911   7.232   3.123 -0.1473 -1.4296 -1.8739
 5623SOL    HW220368   8.932   7.382   3.117 -3.4267 -0.9011 -1.9901
 5624SOL     OW20369   9.058   4.347   5.787 -0.4085 -0.3690  0.1161
 5624SOL    HW120370   9.105   4.303   5.716  1.0977 -0.2303  0.9855
 5624SOL    HW220371   9.034   4.432   5.751  2.3429  0.6295  0.4074
 5625SOL     OW20372   1.475   7.315   2.712 -0.3136  0.1852  0.4270
 5625SOL    HW120373   1.476   7.408   2.690 -0.3793  0.1521  0.2883
 5625SOL    HW220374   1.542   7.276   2.656  0.0486  0.2247  0.8209
 5626SOL     OW20375   5.152   4.498   8.851  0.0643 -0.1487  0.3756
 5626SOL    HW120376   5.109   4.449   8.921  0.1188  0.0777  0.5679
 5626SOL    HW220377   5.246   4.489   8.870  0.1130 -0.6877 -0.0707
 5627SOL     OW20378   4.838   2.936  10.663 -0.4947  0.0594 -0.0570
 5627SOL    HW120379   4.813   2.852  10.624 -0.1675 -0.6191  1.1431
 5627SOL    HW220380   4.757   2.988  10.660 -1.2764 -1.0331  1.0388
 5628SOL     OW20381   1.824   7.376  10.553 -0.5314 -0.0790  0.4738
 5628SOL    HW120382   1.882   7.450  10.539  2.3888 -2.4278 -0.9594
 5628SOL    HW220383   1.845   7.345  10.641  0.8262 -1.1641 -0.1879
 5629SOL     OW20384   4.975   3.469   7.900  0.5663 -0.2352 -0.4480
 5629SOL    HW120385   5.054   3.424   7.869  1.4029  0.8109  0.1041
 5629SOL    HW220386   4.995   3.562   7.891 -0.6782  0.0509 -0.4421
 5630SOL     OW20387   3.430   5.329   5.181  0.3615 -0.4645  0.0945
 5630SOL    HW120388   3.509   5.374   5.213  0.2939 -1.2501  1.4354
 5630SOL    HW220389   3.406   5.269   5.252 -0.6043 -1.2967 -0.9051
 5631SOL     OW20390   1.644   9.644   2.282 -0.3509 -0.2234  0.0946
 5631SOL    HW120391   1.613   9.554   2.293  3.0225 -1.6707 -0.6840
 5631SOL    HW220392   1.663   9.674   2.371 -0.7744 -0.5685  0.3035
 5632SOL     OW20393   2.532   0.285   3.956 -0.2189  0.5554 -0.0089
 5632SOL    HW120394   2.441   0.271   3.927  0.5459 -1.7411 -1.6551
 5632SOL    HW220395   2.555   0.204   4.000  1.6392  0.2311 -1.4615
 5633SOL     OW20396   2.751   5.933   9.009  0.9527  0.1674  0.0869
 5633SOL    HW120397   2.837   5.974   9.006  1.5324 -1.0001  0.1551
 5633SOL    HW220398   2.747   5.882   8.928 -0.1029  1.0043 -0.4161
 5634SOL     OW20399   3.589   9.733   3.182  0.3671  0.6513  0.0762
 5634SOL    HW120400   3.659   9.671   3.162  0.7633  1.4419 -1.1352
 5634SOL    HW220401   3.559   9.708   3.269  0.0794 -1.6033 -0.6218
 5635SOL     OW20402   2.187   4.324   7.412  0.0406 -0.4220  0.8594
 5635SOL    HW120403   2.095   4.337   7.391 -0.0181  0.3804  1.5535
 5635SOL    HW220404   2.189   4.322   7.508  0.9821  1.5888  0.9296
 5636SOL     OW20405   0.720   1.230   9.141  0.1917  0.4593 -0.3701
 5636SOL    HW120406   0.635   1.192   9.119  0.2603  1.5359 -2.7454
 5636SOL    HW220407   0.699   1.295   9.209 -1.0037  1.0406 -1.2425
 5637SOL     OW20408  10.474   1.056  10.504  0.3211 -0.2778  0.0955
 5637SOL    HW120409  10.406   0.990  10.498 -0.5135  0.6839 -4.1224
 5637SOL    HW220410  10.430   1.134  10.537  0.6956 -0.9680  2.4064
 5638SOL     OW20411  10.059   7.759   2.522 -0.3095 -0.4208 -0.7412
 5638SOL    HW120412  10.020   7.674   2.543  0.3987 -0.3651  0.9798
 5638SOL    HW220413  10.154   7.742   2.520 -0.1767  0.2784 -0.6041
 5639SOL     OW20414   7.788   1.814   7.766 -0.1322 -0.0391  0.0639
 5639SOL    HW120415   7.763   1.819   7.673 -1.2261 -1.1019  0.2681
 5639SOL    HW220416   7.710   1.779   7.809  0.2817  0.6874  1.4308
 5640SOL     OW20417   8.429   2.079   7.469  0.2495  0.5241 -0.0011
 5640SOL    HW120418   8.387   1.993   7.469  2.6630 -0.7684  1.5813
 5640SOL    HW220419   8.508   2.067   7.417  0.6177  1.8102  0.2304
 5641SOL     OW20420   9.245   4.428   4.597 -0.0621  0.0278  0.0136
 5641SOL    HW120421   9.314   4.495   4.602  0.6856 -0.7347  0.0978
 5641SOL    HW220422   9.237   4.409   4.503 -1.3188  1.2716 -0.1690
 5642SOL     OW20423   4.347  10.698   9.191  0.1671  0.3594 -0.3396
 5642SOL    HW120424   4.396  10.756   9.133  0.5586  0.1376 -0.2348
 5642SOL    HW220425   4.396  10.700   9.274 -0.5108  0.8534  0.0561
 5643SOL     OW20426  10.963   2.527   2.450 -0.4409  0.1085  0.3742
 5643SOL    HW120427  11.056   2.546   2.439 -0.7748  1.2163 -0.7155
 5643SOL    HW220428  10.938   2.576   2.528 -0.0444 -0.5347  0.9259
 5644SOL     OW20429   4.967   7.213   7.653 -0.9045 -0.5361  0.1358
 5644SOL    HW120430   4.881   7.173   7.653 -0.6886 -1.0308  1.2118
 5644SOL    HW220431   4.961   7.283   7.588 -2.4355  0.1084  0.9143
 5645SOL     OW20432   1.532   4.075   9.759 -0.1986 -0.6178  0.2121
 5645SOL    HW120433   1.521   4.164   9.727  1.2019 -0.5403 -0.1360
 5645SOL    HW220434   1.504   4.020   9.685  2.2286 -0.4391 -0.9370
 5646SOL     OW20435   7.206  10.745   9.495  0.5126  0.0656 -0.4261
 5646SOL    HW120436   7.235  10.810   9.559 -0.6503 -0.8059  1.0488
 5646SOL    HW220437   7.111  10.754   9.494  0.5493  0.8786 -2.9897
 5647SOL     OW20438   6.037   7.273   3.093 -0.3961 -0.6736 -0.3782
 5647SOL    HW120439   6.127   7.298   3.113 -0.2865 -0.8578 -0.6323
 5647SOL    HW220440   6.044   7.183   3.062 -0.3921 -0.0137 -2.4546
 5648SOL     OW20441   2.343   7.405   8.807  0.2023  0.8616 -0.2015
 5648SOL    HW120442   2.263   7.427   8.855  0.9952  0.9242  1.1617
 5648SOL    HW220443   2.318   7.333   8.750 -0.9363  1.1907 -0.1432
 5649SOL     OW20444   5.319   5.575   1.389 -0.1569  0.4080 -0.0297
 5649SOL    HW120445   5.281   5.522   1.319  0.6980 -0.6003  0.2270
 5649SOL    HW220446   5.251   5.579   1.456 -0.3463 -0.1205 -0.1831
 5650SOL     OW20447   4.024   9.145   8.896 -0.4916  0.2036 -0.0822
 5650SOL    HW120448   4.049   9.097   8.818  0.0545 -0.8005  0.6846
 5650SOL    HW220449   3.965   9.086   8.943 -1.1022  0.9340  0.0958
 5651SOL     OW20450  10.757   4.742   5.532 -0.0192 -0.0747  0.0752
 5651SOL    HW120451  10.851   4.746   5.548  0.2812 -1.1418 -1.2590
 5651SOL    HW220452  10.743   4.656   5.493 -1.8708 -0.8615  2.2293
 5652SOL     OW20453   8.113   7.507   8.784 -0.1500  0.2640 -0.1981
 5652SOL    HW120454   8.048   7.540   8.722 -1.2091 -0.0811  0.6876
 5652SOL    HW220455   8.073   7.524   8.870  0.3017 -1.2424  0.3266
 5653SOL     OW20456   1.226   6.786   2.259 -1.1936  0.1124  0.2047
 5653SOL    HW120457   1.287   6.860   2.260 -1.0225 -0.0321  0.6892
 5653SOL    HW220458   1.139   6.827   2.256 -1.1235  0.3548  1.1948
 5654SOL     OW20459   5.399   2.947   8.995 -0.1946  0.5487  0.2592
 5654SOL    HW120460   5.374   2.865   8.952 -0.8376  1.7565 -1.8251
 5654SOL    HW220461   5.344   3.014   8.954  0.7159  2.1249  1.4703
 5655SOL     OW20462   2.014   7.409   7.671 -0.0960 -0.0633  0.2527
 5655SOL    HW120463   2.011   7.470   7.597  0.0861 -0.1797  0.1471
 5655SOL    HW220464   1.946   7.345   7.652 -0.5080  0.2916  0.5267
 5656SOL     OW20465   3.280   0.589   7.517  0.2506 -0.2797 -0.1672
 5656SOL    HW120466   3.295   0.499   7.488  0.4138 -0.5292  0.6514
 5656SOL    HW220467   3.186   0.593   7.536  0.4038 -0.5859  0.7406
 5657SOL     OW20468   5.580  10.028   0.606  0.2392  0.1171 -0.3765
 5657SOL    HW120469   5.629   9.948   0.624 -0.2871 -0.1748 -0.2304
 5657SOL    HW220470   5.635  10.076   0.544 -0.4782 -1.3905 -2.2819
 5658SOL     OW20471   8.145  10.261   0.659  0.1472  0.1560  0.0688
 5658SOL    HW120472   8.118  10.186   0.713 -0.7012  0.7345  0.4657
 5658SOL    HW220473   8.072  10.275   0.599  0.6082  0.2317 -0.4768
 5659SOL     OW20474   4.200   6.714   3.774 -0.2315 -0.1868  0.5585
 5659SOL    HW120475   4.254   6.673   3.842  1.7093  2.4831  0.7925
 5659SOL    HW220476   4.138   6.769   3.822  1.1989  1.7715  0.2884
 5660SOL     OW20477   5.826   5.507   2.150 -0.3573 -0.0302  0.3867
 5660SOL    HW120478   5.830   5.411   2.145 -2.0178 -0.0971 -0.1839
 5660SOL    HW220479   5.907   5.537   2.110  0.5091 -1.1951  1.1947
 5661SOL     OW20480  10.767   7.139   6.750 -0.2224 -0.1167 -0.1954
 5661SOL    HW120481  10.743   7.067   6.809  1.0177  0.4276  1.0248
 5661SOL    HW220482  10.760   7.101   6.663 -2.8977 -0.7168  0.1869
 5662SOL     OW20483   0.627   0.167   1.710 -0.1443 -0.0421  0.3013
 5662SOL    HW120484   0.707   0.123   1.681 -0.3400 -0.8084  0.9175
 5662SOL    HW220485   0.569   0.164   1.633  0.1121 -0.2046  0.1125
 5663SOL     OW20486   5.039   3.346   3.032 -0.1963 -0.0360  0.6633
 5663SOL    HW120487   4.961   3.402   3.035 -0.8865 -0.9877  1.6546
 5663SOL    HW220488   5.041   3.305   3.119  0.2575 -1.5488 -0.0326
 5664SOL     OW20489   5.455   2.190  10.427 -0.2965 -0.4297  0.2054
 5664SOL    HW120490   5.368   2.197  10.466  0.0694 -2.2536  1.4497
 5664SOL    HW220491   5.505   2.136  10.488  2.2512  1.8944  0.3843
 5665SOL     OW20492   2.533   1.830   8.644 -0.3865  0.1754  0.1769
 5665SOL    HW120493   2.526   1.832   8.740  0.0098  0.4655  0.2026
 5665SOL    HW220494   2.510   1.741   8.620 -1.8495  0.4579  0.4303
 5666SOL     OW20495   7.561   7.925   3.536 -0.0189  0.2223 -0.3985
 5666SOL    HW120496   7.543   8.019   3.541  2.5049  0.8723 -1.8003
 5666SOL    HW220497   7.631   7.911   3.600  0.3551 -0.4506 -0.9406
 5667SOL     OW20498   9.657   3.634   0.915  0.0473 -0.0027  0.2528
 5667SOL    HW120499   9.613   3.669   0.992  1.5624  0.5979  0.8940
 5667SOL    HW220500   9.599   3.655   0.842 -0.2355  1.6987  0.9257
 5668SOL     OW20501   1.237   1.003   3.965 -0.2517  0.1761 -0.1053
 5668SOL    HW120502   1.148   1.030   3.984  0.2792  1.6698  0.3570
 5668SOL    HW220503   1.270   1.068   3.904  1.4096  1.3058  1.8597
 5669SOL     OW20504   9.849  10.507   5.922 -1.0337 -0.4631  0.2222
 5669SOL    HW120505   9.880  10.596   5.907  2.3503 -1.3886  1.0340
 5669SOL    HW220506   9.806  10.511   6.008  0.6356  0.0725  1.0645
 5670SOL     OW20507   1.117   5.524   6.257 -1.0667 -0.2106  0.5000
 5670SOL    HW120508   1.146   5.489   6.173 -1.6468  0.6191 -0.0596
 5670SOL    HW220509   1.022   5.514   6.255 -1.1363  0.3575  0.8061
 5671SOL     OW20510   4.370   0.666   3.006  0.1699  0.3152  0.3785
 5671SOL    HW120511   4.413   0.608   3.069 -0.8810 -0.9013  0.0065
 5671SOL    HW220512   4.419   0.748   3.013  0.2217  0.1712  2.6443
 5672SOL     OW20513   6.177   5.780   7.531 -0.6563  0.5618 -0.1837
 5672SOL    HW120514   6.083   5.772   7.549 -0.8432  0.2023 -1.2112
 5672SOL    HW220515   6.203   5.693   7.501  0.6207 -0.1054  2.5510
 5673SOL     OW20516   5.510   9.149   8.692 -0.1430  0.1787  0.2177
 5673SOL    HW120517   5.453   9.083   8.731  1.7873  0.5076  4.0750
 5673SOL    HW220518   5.586   9.100   8.661 -0.9705  0.1182 -1.8906
 5674SOL     OW20519   7.862   2.016   8.551 -0.4433  0.1979  0.2193
 5674SOL    HW120520   7.902   1.937   8.588  1.9843  0.1677 -2.1528
 5674SOL    HW220521   7.774   1.988   8.526  0.5014 -1.9670 -0.9723
 5675SOL     OW20522   0.923   0.034   9.990  0.6561  0.1227  0.4111
 5675SOL    HW120523   0.925  -0.060   9.970  0.6956 -0.2867  2.1983
 5675SOL    HW220524   0.831   0.059   9.977  0.8427  0.0968 -1.0911
 5676SOL     OW20525   8.385   6.018   0.406  0.0124 -0.4926  0.4112
 5676SOL    HW120526   8.421   5.931   0.424 -0.0187 -0.6048 -0.0552
 5676SOL    HW220527   8.290   6.004   0.404  0.0621 -0.7516 -1.1719
 5677SOL     OW20528   0.474   5.536  10.880 -0.4201 -0.2562  0.3237
 5677SOL    HW120529   0.496   5.614  10.829 -2.4093  0.3846  0.3593
 5677SOL    HW220530   0.534   5.540  10.955  1.1127 -0.0827 -0.8501
 5678SOL     OW20531   6.749   7.579   1.675 -0.6731  0.0578  0.4031
 5678SOL    HW120532   6.727   7.652   1.618 -0.3770 -0.7880 -0.8265
 5678SOL    HW220533   6.680   7.578   1.742 -1.7730  0.2628 -0.7087
 5679SOL     OW20534  10.535  10.443   0.030 -0.1898  0.7540 -0.5468
 5679SOL    HW120535  10.563  10.442  -0.061 -0.1864  0.4631 -0.5417
 5679SOL    HW220536  10.615  10.464   0.079 -0.2969  1.4173 -0.6459
 5680SOL     OW20537   3.471   5.748   0.419 -0.3057 -0.6666 -0.0279
 5680SOL    HW120538   3.448   5.665   0.377  0.1460 -1.0698  0.5079
 5680SOL    HW220539   3.518   5.723   0.498 -0.5456  0.0981  0.3689
 5681SOL     OW20540   2.905   0.584   2.936  0.7083 -0.0635  0.6870
 5681SOL    HW120541   2.886   0.493   2.957  1.5468 -0.1063  1.3333
 5681SOL    HW220542   2.884   0.631   3.017 -0.1991  0.3987  0.2004
 5682SOL     OW20543   6.383   4.109   6.617 -0.9765 -0.2734 -0.0545
 5682SOL    HW120544   6.378   4.018   6.646 -1.1092 -0.1796  0.2144
 5682SOL    HW220545   6.318   4.116   6.547 -1.0650 -0.3475  0.0213
 5683SOL     OW20546   1.725   4.571   4.338 -0.2581  0.0120  0.6691
 5683SOL    HW120547   1.694   4.481   4.322 -0.4168  0.3166 -0.8506
 5683SOL    HW220548   1.810   4.560   4.379 -0.2074 -0.8372  0.3593
 5684SOL     OW20549   8.833   5.716   9.124  1.1007  0.3841  0.2419
 5684SOL    HW120550   8.756   5.771   9.139  0.0938 -1.3931  2.1774
 5684SOL    HW220551   8.879   5.718   9.208  0.9390 -1.7628  0.4319
 5685SOL     OW20552   3.272   2.511   2.437  0.4559 -0.2330 -0.4908
 5685SOL    HW120553   3.179   2.501   2.458  0.6182  0.1058  0.4595
 5685SOL    HW220554   3.309   2.424   2.449  0.6645  0.0679  1.3693
 5686SOL     OW20555   5.006   7.769   8.188 -0.1356  0.3768 -0.0788
 5686SOL    HW120556   5.052   7.725   8.116  1.3028  1.5633  0.0678
 5686SOL    HW220557   4.945   7.829   8.144  0.4902  0.8438 -0.3275
 5687SOL     OW20558   7.774   6.570   7.470  0.2494  0.3073 -0.0136
 5687SOL    HW120559   7.736   6.649   7.509 -2.0050 -1.3095  1.2958
 5687SOL    HW220560   7.721   6.555   7.391  1.3461  0.6192 -0.8354
 5688SOL     OW20561   7.098   0.952   1.048 -0.2500 -0.7046 -0.1340
 5688SOL    HW120562   7.128   1.029   0.998 -0.1778 -0.6567 -0.0174
 5688SOL    HW220563   7.156   0.950   1.125 -2.2760  1.0568  1.5877
 5689SOL     OW20564   4.842   5.528   1.106 -0.1582  0.1708  0.3287
 5689SOL    HW120565   4.856   5.622   1.094 -1.7654  0.2645 -1.0432
 5689SOL    HW220566   4.796   5.521   1.190  0.4637  0.5402  0.7086
 5690SOL     OW20567   0.025   1.367   0.168  0.3501 -0.2361 -0.3542
 5690SOL    HW120568  -0.030   1.438   0.135  2.5496  1.1978 -1.1637
 5690SOL    HW220569   0.073   1.336   0.091  1.4282 -0.7244  0.4844
 5691SOL     OW20570   1.947   2.894   8.277 -0.8292 -0.0810 -0.3783
 5691SOL    HW120571   2.015   2.936   8.225 -0.0804 -0.5051  0.2185
 5691SOL    HW220572   1.867   2.905   8.226 -0.1510 -0.3822 -1.5630
 5692SOL     OW20573   5.760   6.712   0.749  0.0030 -0.4721  0.2181
 5692SOL    HW120574   5.724   6.625   0.766  0.4250 -0.6830  0.0505
 5692SOL    HW220575   5.823   6.726   0.820 -0.5650 -0.0125  0.6373
 5693SOL     OW20576   4.650   4.977   7.866  0.0381 -0.4958 -0.4161
 5693SOL    HW120577   4.608   5.051   7.910 -1.2269 -1.6129  0.3541
 5693SOL    HW220578   4.644   4.998   7.773 -0.5901  0.2307 -0.2265
 5694SOL     OW20579   9.456   6.108  10.405  0.0568  0.1367 -0.2932
 5694SOL    HW120580   9.462   6.084  10.312  0.3191 -1.5074  0.1065
 5694SOL    HW220581   9.383   6.170  10.409 -0.0264  0.1532 -1.5858
 5695SOL     OW20582   5.773   9.209   7.090 -0.7870 -0.7608  0.3468
 5695SOL    HW120583   5.700   9.155   7.120 -0.5519 -1.6208 -0.5973
 5695SOL    HW220584   5.772   9.285   7.149 -1.8932 -1.1808  0.8968
 5696SOL     OW20585   0.086   7.492   6.820 -0.2202  0.9285 -0.1848
 5696SOL    HW120586   0.077   7.406   6.779 -1.2398  0.2293  1.4503
 5696SOL    HW220587   0.096   7.552   6.746 -1.1126 -0.3931 -1.4212
 5697SOL     OW20588   3.226   8.133   3.788  0.6595  0.1806  0.0035
 5697SOL    HW120589   3.276   8.208   3.818  0.2110  0.1648  0.8038
 5697SOL    HW220590   3.159   8.169   3.730 -0.1130  0.5156  1.0717
 5698SOL     OW20591   5.993   5.759   8.246 -0.4953 -0.0856  0.0647
 5698SOL    HW120592   5.979   5.835   8.188  0.2683 -0.6501 -0.8885
 5698SOL    HW220593   6.010   5.686   8.186  0.2111 -0.7135  1.0028
 5699SOL     OW20594  10.382   5.454   8.356 -0.4446  0.1812 -0.1228
 5699SOL    HW120595  10.356   5.395   8.285  2.0613 -1.2797  0.0367
 5699SOL    HW220596  10.454   5.505   8.319 -0.6766  1.1021  0.6658
 5700SOL     OW20597   9.295   1.295  10.643  0.5036  0.3211  0.2292
 5700SOL    HW120598   9.258   1.357  10.706 -1.2283 -0.8321  0.4249
 5700SOL    HW220599   9.244   1.309  10.563 -0.4337 -1.3000  0.4987
 5701SOL     OW20600  10.444   1.734   7.390  0.2105 -0.0023 -0.2796
 5701SOL    HW120601  10.463   1.720   7.483  1.1994 -0.0151 -0.4733
 5701SOL    HW220602  10.527   1.718   7.346 -0.2974 -0.1749 -1.1928
 5702SOL     OW20603   8.567   7.783   6.772  0.1909  0.5714 -0.0135
 5702SOL    HW120604   8.644   7.839   6.786 -0.2582  0.9662  0.9972
 5702SOL    HW220605   8.509   7.804   6.845 -2.0658  2.2642 -2.1464
 5703SOL     OW20606   8.622   0.087  10.845 -0.2808 -0.3538  0.2766
 5703SOL    HW120607   8.535   0.122  10.824 -0.6026 -0.6047  1.1433
 5703SOL    HW220608   8.674   0.165  10.866 -0.1227 -0.1532 -0.7911
 5704SOL     OW20609   6.321   0.837   9.324  0.2842 -0.2241  0.1271
 5704SOL    HW120610   6.304   0.750   9.362 -1.6745  0.0638  0.0148
 5704SOL    HW220611   6.413   0.834   9.298  0.2074 -2.3549 -0.0942
 5705SOL     OW20612   1.368   5.635   1.156 -0.3969 -0.1738 -0.0588
 5705SOL    HW120613   1.339   5.587   1.078  1.9046 -0.2930 -0.9097
 5705SOL    HW220614   1.437   5.693   1.125 -0.6292  1.0725  1.6070
 5706SOL     OW20615   2.980   7.710   7.813 -0.3379  0.0191  0.8867
 5706SOL    HW120616   2.941   7.635   7.858 -2.3262 -1.6988 -3.2506
 5706SOL    HW220617   2.916   7.781   7.825 -0.4947 -0.1868  1.2986
 5707SOL     OW20618   3.489   9.290   3.254  0.1969 -0.1117 -0.7086
 5707SOL    HW120619   3.396   9.290   3.278  0.3248 -0.3447 -0.2062
 5707SOL    HW220620   3.535   9.283   3.338  0.6648 -0.2175 -0.9754
 5708SOL     OW20621   5.581   0.628   3.262  0.2273  0.3891 -0.3862
 5708SOL    HW120622   5.527   0.680   3.202  1.1768 -1.1201 -2.7318
 5708SOL    HW220623   5.624   0.693   3.318 -1.6008  1.8016 -0.5363
 5709SOL     OW20624   8.352   4.059   1.737  0.3760  0.1021 -0.5505
 5709SOL    HW120625   8.377   3.983   1.790  0.3509  0.8268  0.5333
 5709SOL    HW220626   8.256   4.064   1.746  0.3092 -0.0688 -1.0997
 5710SOL     OW20627   4.435   6.292   8.520 -0.4609 -0.3570  0.1591
 5710SOL    HW120628   4.530   6.281   8.524 -0.2394 -0.0157 -2.3033
 5710SOL    HW220629   4.417   6.374   8.565  0.4103 -0.4426  0.6684
 5711SOL     OW20630   2.695   2.168   0.564  0.3684  0.1441 -0.0767
 5711SOL    HW120631   2.777   2.192   0.607 -0.1264  0.0385  0.9542
 5711SOL    HW220632   2.712   2.182   0.471  0.8189  2.3970  0.2856
 5712SOL     OW20633   3.084   0.316   7.449  0.5878 -0.1231 -0.4353
 5712SOL    HW120634   3.115   0.232   7.482 -0.1960 -1.7481 -3.4149
 5712SOL    HW220635   2.991   0.319   7.474  0.6445 -0.1111 -0.2307
 5713SOL     OW20636  10.308   2.401   3.786  0.2262 -0.0927  0.5727
 5713SOL    HW120637  10.275   2.454   3.858  0.0967  2.3554 -1.1841
 5713SOL    HW220638  10.268   2.438   3.708  0.1714 -2.7989 -0.8188
 5714SOL     OW20639   8.553   8.445   5.445  0.6156  0.2497  0.6946
 5714SOL    HW120640   8.464   8.466   5.474 -0.1608 -0.7604 -0.8400
 5714SOL    HW220641   8.592   8.529   5.423 -0.4390  0.5868  0.0813
 5715SOL     OW20642   7.921   9.727   2.118 -0.1684  0.1442 -0.1976
 5715SOL    HW120643   7.886   9.793   2.058 -1.5776 -0.8258 -0.5027
 5715SOL    HW220644   7.882   9.644   2.088  0.9176 -0.7133  0.6548
 5716SOL     OW20645   5.992   0.144   6.335 -0.3843 -0.1533 -0.0530
 5716SOL    HW120646   6.027   0.163   6.248  0.5796  1.8629  0.7059
 5716SOL    HW220647   6.040   0.066   6.364  1.0050  0.5161 -0.4391
 5717SOL     OW20648  10.090   4.095   5.471  0.2271 -0.1732  0.0945
 5717SOL    HW120649  10.143   4.158   5.520  0.3251 -0.8022  0.8080
 5717SOL    HW220650  10.003   4.136   5.467 -0.5786 -1.2642  3.2303
 5718SOL     OW20651   5.490   7.188   4.896  0.2088 -0.0203  0.0869
 5718SOL    HW120652   5.523   7.106   4.934  1.7162  0.3786 -0.3226
 5718SOL    HW220653   5.469   7.165   4.805  0.3543 -0.0166  0.0529
 5719SOL     OW20654   9.761  10.591  10.325  0.9246  0.3720  0.1326
 5719SOL    HW120655   9.731  10.641  10.401 -1.0373 -0.1772 -0.2151
 5719SOL    HW220656   9.768  10.655  10.254  0.3591  0.4900  0.1792
 5720SOL     OW20657   6.937   9.027   4.316  0.6012  0.4518 -0.0678
 5720SOL    HW120658   6.868   8.961   4.316 -0.0246  1.0978 -0.3140
 5720SOL    HW220659   6.984   9.013   4.234 -0.7589  1.5496 -1.0975
 5721SOL     OW20660   2.712   6.535   4.022  0.0809 -0.1069 -0.0991
 5721SOL    HW120661   2.674   6.611   4.066 -0.0445  0.7132 -1.5485
 5721SOL    HW220662   2.655   6.462   4.046 -0.6437  0.5351  0.1684
 5722SOL     OW20663   6.677   0.064   2.953 -0.2333 -0.2936 -0.2251
 5722SOL    HW120664   6.584   0.088   2.956 -0.4134 -1.0204  0.4638
 5722SOL    HW220665   6.678  -0.020   2.907 -0.0797 -0.9329  0.8959
 5723SOL     OW20666   1.764   4.559   8.645 -0.2122 -0.0510 -0.4203
 5723SOL    HW120667   1.836   4.524   8.593  0.5671 -0.0196  0.6105
 5723SOL    HW220668   1.801   4.572   8.733 -1.0980  1.2478 -0.2081
 5724SOL     OW20669   6.678   5.109   7.084  0.2417  0.1740  0.2934
 5724SOL    HW120670   6.743   5.166   7.125  0.8260 -0.0681 -0.2822
 5724SOL    HW220671   6.725   5.065   7.014 -0.5436 -0.0139 -0.1303
 5725SOL     OW20672   9.904   2.071   2.431 -0.4282  0.0818 -0.1680
 5725SOL    HW120673   9.994   2.064   2.400 -0.6798  1.0127 -1.1773
 5725SOL    HW220674   9.891   1.993   2.485  0.6785 -0.5584 -0.7886
 5726SOL     OW20675   9.432   2.328   4.191 -0.0211 -0.1717 -0.1855
 5726SOL    HW120676   9.388   2.333   4.276 -1.2570 -2.1708 -0.6221
 5726SOL    HW220677   9.524   2.312   4.212 -0.4060 -1.2015  0.8146
 5727SOL     OW20678  10.818   3.939   0.584 -0.0956 -0.0261  0.1245
 5727SOL    HW120679  10.785   3.895   0.663  1.9538  0.4149  1.2881
 5727SOL    HW220680  10.857   3.869   0.532  0.1890 -0.0621  0.3847
 5728SOL     OW20681   8.443   7.100   8.646 -0.0199 -0.4427  0.4012
 5728SOL    HW120682   8.359   7.100   8.599 -0.2563  0.3491  0.8106
 5728SOL    HW220683   8.419   7.079   8.736  0.3362 -1.1123  0.3435
 5729SOL     OW20684   9.845   7.680   3.467  0.3607 -0.2895 -0.1203
 5729SOL    HW120685   9.757   7.654   3.495  1.0197 -1.4873  0.9841
 5729SOL    HW220686   9.878   7.735   3.538  0.4457  0.3039 -0.6106
 5730SOL     OW20687  10.360  10.715   2.350  0.1325  0.1564  0.3733
 5730SOL    HW120688  10.409  10.633   2.356  0.9634  0.6975  1.1085
 5730SOL    HW220689  10.300  10.701   2.276  0.8538 -0.7934 -0.0582
 5731SOL     OW20690   3.947  10.668   6.846  0.2429  0.2527 -0.4432
 5731SOL    HW120691   3.978  10.579   6.830  0.4418  0.2882 -0.2552
 5731SOL    HW220692   3.967  10.685   6.938 -0.1574  0.3456 -0.3702
 5732SOL     OW20693   8.887  10.478   5.033 -0.2966 -0.2411 -0.2875
 5732SOL    HW120694   8.885  10.384   5.016 -3.1850 -0.5965  1.2641
 5732SOL    HW220695   8.822  10.515   4.973 -2.0465  0.1013  1.6763
 5733SOL     OW20696   6.958   6.645   7.359 -0.3932 -0.5270  0.1359
 5733SOL    HW120697   6.983   6.732   7.327 -1.9701  0.4612  1.3906
 5733SOL    HW220698   6.924   6.600   7.282  0.7219 -0.1601 -0.5957
 5734SOL     OW20699   7.230   9.875   8.529 -0.2058 -0.2257 -0.1176
 5734SOL    HW120700   7.245   9.961   8.568  0.6473 -1.0048  1.3416
 5734SOL    HW220701   7.282   9.876   8.448  0.7784  0.2015  0.5085
 5735SOL     OW20702   3.390   1.726   0.177 -0.5489  0.3268  0.1907
 5735SOL    HW120703   3.452   1.745   0.247  1.1225  1.5927 -1.5299
 5735SOL    HW220704   3.430   1.655   0.127 -1.4972 -0.2539  0.2331
 5736SOL     OW20705   6.885   4.199   6.377 -0.2102 -0.0467 -0.2049
 5736SOL    HW120706   6.918   4.284   6.405 -0.1624 -0.5326  1.2884
 5736SOL    HW220707   6.813   4.180   6.438 -1.0107 -0.5574 -1.2660
 5737SOL     OW20708   6.111   0.178   7.191  0.1499  0.1755  0.5463
 5737SOL    HW120709   6.030   0.169   7.140  0.9751 -0.1959 -0.7606
 5737SOL    HW220710   6.102   0.115   7.262 -1.0511  0.7192  0.9021
 5738SOL     OW20711   5.677   2.352   8.878 -0.2198  0.2413  0.0373
 5738SOL    HW120712   5.642   2.429   8.832  0.4505  0.9407  0.6562
 5738SOL    HW220713   5.771   2.355   8.860  0.0650  0.5626  1.4618
 5739SOL     OW20714   4.515  10.113   8.665  0.1671 -0.2548  0.9764
 5739SOL    HW120715   4.591  10.131   8.721 -0.7089  0.4255  1.9900
 5739SOL    HW220716   4.507  10.191   8.610  0.0962 -0.2522  0.9915
 5740SOL     OW20717  10.792   3.787  10.178  0.0108  0.1921 -0.1509
 5740SOL    HW120718  10.885   3.802  10.162 -0.0807  1.2845  0.2471
 5740SOL    HW220719  10.779   3.811  10.270 -0.5522 -0.5566 -0.0187
 5741SOL     OW20720   8.063   6.264   6.922 -0.3219  0.5127 -0.4261
 5741SOL    HW120721   8.070   6.300   7.011  0.1659 -0.5137 -0.0301
 5741SOL    HW220722   7.980   6.297   6.889 -1.2002 -0.2362  0.9499
 5742SOL     OW20723   3.640  10.584   5.916  0.0669 -0.1933 -0.0669
 5742SOL    HW120724   3.570  10.577   5.981 -0.0067 -0.2826 -0.1549
 5742SOL    HW220725   3.679  10.670   5.931  1.7246 -1.1771  1.7925
 5743SOL     OW20726   3.029   4.223   1.224  0.2538  0.0632 -0.1243
 5743SOL    HW120727   3.071   4.181   1.299 -0.9207  0.0183  0.5314
 5743SOL    HW220728   3.095   4.285   1.192  1.8747 -1.9116 -0.8666
 5744SOL     OW20729   1.165   3.045   2.358 -0.0843 -0.4334  0.2264
 5744SOL    HW120730   1.103   2.994   2.306 -0.9294  0.4868  0.3015
 5744SOL    HW220731   1.133   3.037   2.448 -0.2924  0.2973  0.2250
 5745SOL     OW20732   3.617   7.698   6.590 -0.4890  0.1927 -0.0773
 5745SOL    HW120733   3.672   7.716   6.666 -0.4529  0.1170 -0.0851
 5745SOL    HW220734   3.660   7.745   6.518 -0.3663  0.0370 -0.1080
 5746SOL     OW20735   3.234   7.295   8.424 -0.2835 -0.0991 -0.0085
 5746SOL    HW120736   3.246   7.373   8.478 -0.9451  0.0931 -0.1282
 5746SOL    HW220737   3.267   7.320   8.338 -0.3746  0.0041 -0.0136
 5747SOL     OW20738   4.596   7.473   7.149 -0.0854  0.0583  0.1998
 5747SOL    HW120739   4.551   7.452   7.231 -0.0964 -1.5014 -0.1651
 5747SOL    HW220740   4.689   7.470   7.171 -0.0727 -0.9074  0.0548
 5748SOL     OW20741  10.975   5.041   0.840  0.2140 -0.5826  0.5276
 5748SOL    HW120742  10.932   5.023   0.923 -0.2052 -1.8801  0.0516
 5748SOL    HW220743  11.065   5.063   0.864  0.0429 -0.7226  1.3283
 5749SOL     OW20744   6.397   5.512   6.844  1.0121 -0.0529 -0.1453
 5749SOL    HW120745   6.366   5.555   6.924 -1.6653 -2.6890  0.4172
 5749SOL    HW220746   6.393   5.581   6.777  0.5466  1.4975  1.4073
 5750SOL     OW20747   3.952   7.417   4.337  0.4724  0.6075  0.6782
 5750SOL    HW120748   4.002   7.491   4.371 -1.9807  1.6946  2.2489
 5750SOL    HW220749   3.967   7.347   4.401  1.9816  0.0286 -0.2618
 5751SOL     OW20750  10.382   6.804   8.638  0.0259  0.0739  0.2213
 5751SOL    HW120751  10.298   6.850   8.635 -0.1475 -0.1937  0.8525
 5751SOL    HW220752  10.441   6.864   8.684  0.2446  0.3440 -0.3902
 5752SOL     OW20753   5.870   8.181   5.380  0.0150  0.0398 -0.4085
 5752SOL    HW120754   5.797   8.180   5.318  0.0888 -1.5872 -0.5081
 5752SOL    HW220755   5.832   8.149   5.462  0.2062  0.9732  0.0536
 5753SOL     OW20756   7.813   1.991   8.213 -0.6772 -0.1494 -0.0258
 5753SOL    HW120757   7.822   2.072   8.263  0.6896  0.4729 -1.1982
 5753SOL    HW220758   7.788   2.020   8.125  1.8374 -0.7738 -1.0295
 5754SOL     OW20759   9.747   0.390   1.429  0.2506 -0.1794 -0.2511
 5754SOL    HW120760   9.700   0.310   1.403 -1.2835  1.2631 -2.1630
 5754SOL    HW220761   9.782   0.425   1.347 -1.7514  2.7062  0.0149
 5755SOL     OW20762   6.499  10.050   9.300 -0.7520 -0.2147  0.0327
 5755SOL    HW120763   6.431   9.998   9.342 -0.6002  1.3306  2.3613
 5755SOL    HW220764   6.573   9.989   9.290 -1.6740 -1.2956 -0.4660
 5756SOL     OW20765   1.446  10.755   7.414 -0.6323  0.6039 -0.1048
 5756SOL    HW120766   1.537  10.740   7.386  0.2327  2.5515  1.4036
 5756SOL    HW220767   1.411  10.817   7.351 -1.2786 -0.8544 -1.2335
 5757SOL     OW20768   8.357   1.259   4.999 -0.0859  0.2319  0.5286
 5757SOL    HW120769   8.306   1.339   5.008  0.1504  0.4440  0.0240
 5757SOL    HW220770   8.292   1.189   4.995 -0.4430  0.6061 -1.4870
 5758SOL     OW20771   0.142   0.339   5.052 -0.1403  0.5090  0.2078
 5758SOL    HW120772   0.104   0.369   4.969  0.0931 -0.0365 -0.1036
 5758SOL    HW220773   0.092   0.260   5.074 -0.7971  1.1450  1.0551
 5759SOL     OW20774  10.037   9.304   3.924  0.3080 -0.0310  0.0319
 5759SOL    HW120775  10.042   9.384   3.871  0.2706 -0.4642 -0.6368
 5759SOL    HW220776  10.040   9.335   4.015  1.5587  0.6490 -0.2189
 5760SOL     OW20777   5.624   5.516   8.086  0.4363 -0.3067 -0.1873
 5760SOL    HW120778   5.581   5.452   8.143  2.3391 -0.9898  0.5420
 5760SOL    HW220779   5.551   5.561   8.043 -0.9899 -2.1782  0.1165
 5761SOL     OW20780   6.135   7.218   6.099  0.6182  0.1179  0.6658
 5761SOL    HW120781   6.150   7.149   6.034  1.3085  0.1919  0.7367
 5761SOL    HW220782   6.109   7.295   6.048 -0.6198 -0.3046  0.6178
 5762SOL     OW20783   0.528   9.851   6.460 -0.7590  0.0599  0.4582
 5762SOL    HW120784   0.561   9.887   6.542 -0.1848 -0.2987  0.3905
 5762SOL    HW220785   0.496   9.764   6.483 -0.1690 -0.2253  0.2181
 5763SOL     OW20786   2.161   7.698   8.325  0.3398 -0.7260  0.3816
 5763SOL    HW120787   2.220   7.647   8.380 -1.3512 -1.2389  1.7789
 5763SOL    HW220788   2.076   7.692   8.368 -0.6689  0.3330 -1.3499
 5764SOL     OW20789   8.160   3.574   4.411 -0.0363  0.0331 -0.5560
 5764SOL    HW120790   8.125   3.554   4.497  1.5249  1.2923  0.4362
 5764SOL    HW220791   8.110   3.651   4.382 -1.3246 -1.0425 -1.3243
 5765SOL     OW20792   9.069  10.724   4.079 -0.2078 -0.2935 -0.3328
 5765SOL    HW120793   8.979  10.729   4.047 -0.3882  0.7885  0.3214
 5765SOL    HW220794   9.061  10.683   4.165 -0.0447 -0.3837 -0.3599
 5766SOL     OW20795   5.726   8.808  10.447  0.2847  0.3785 -0.3691
 5766SOL    HW120796   5.768   8.771  10.525 -0.2028  1.2112  0.2976
 5766SOL    HW220797   5.673   8.736  10.413  0.9487 -0.1692 -0.2733
 5767SOL     OW20798  10.631   6.445   5.904  0.1644  0.3848  0.1019
 5767SOL    HW120799  10.621   6.389   5.981  1.5299  1.3213  0.9910
 5767SOL    HW220800  10.638   6.383   5.831 -1.8788 -0.5145  0.5777
 5768SOL     OW20801   8.895   5.578   4.738  0.1987 -0.3912 -0.4386
 5768SOL    HW120802   8.812   5.595   4.783  0.0970 -0.7413 -0.4947
 5768SOL    HW220803   8.878   5.500   4.685  0.7146 -0.7794 -0.0471
 5769SOL     OW20804   0.419   8.712   7.774 -0.3187 -0.0314  0.0537
 5769SOL    HW120805   0.341   8.662   7.751  0.1199 -0.8198  0.2338
 5769SOL    HW220806   0.492   8.655   7.749  0.2161  0.9563 -0.7110
 5770SOL     OW20807   7.686   5.119   0.487  0.2481  0.2677 -0.2722
 5770SOL    HW120808   7.778   5.119   0.516  0.2322 -0.2661 -0.2150
 5770SOL    HW220809   7.651   5.037   0.521 -0.3647  0.6617  0.0598
 5771SOL     OW20810   4.032   0.195   9.663  0.1339 -0.2632  0.4677
 5771SOL    HW120811   4.021   0.287   9.639 -0.7998 -0.7909 -1.2543
 5771SOL    HW220812   4.039   0.196   9.759  1.7002  1.7205  0.3887
 5772SOL     OW20813   9.085   8.009   7.773 -0.2793 -0.0097  0.6046
 5772SOL    HW120814   9.101   7.924   7.732  0.1198  0.4638 -0.2480
 5772SOL    HW220815   9.160   8.062   7.747 -0.0533  0.3395  1.8965
 5773SOL     OW20816   3.401   4.757   3.368  0.9939 -0.4252 -0.7447
 5773SOL    HW120817   3.391   4.740   3.275 -0.4705  0.1797 -0.7227
 5773SOL    HW220818   3.312   4.760   3.402  1.4776  0.0232  0.5557
 5774SOL     OW20819   4.878   5.576   8.519 -0.1627 -0.0205 -0.5496
 5774SOL    HW120820   4.874   5.624   8.602  2.2393  0.3433 -0.5779
 5774SOL    HW220821   4.789   5.581   8.484 -1.4140 -0.6319  2.2130
 5775SOL     OW20822   5.460   3.161   2.573 -0.0803  0.6720  0.1012
 5775SOL    HW120823   5.451   3.116   2.490  0.1623 -0.8717  0.8817
 5775SOL    HW220824   5.384   3.135   2.624  0.5232  0.3956  0.8930
 5776SOL     OW20825   5.085   6.822   8.950  0.0738 -0.3293 -0.3942
 5776SOL    HW120826   5.119   6.908   8.973  1.5033 -0.8884 -0.2815
 5776SOL    HW220827   4.995   6.821   8.984  0.7638  0.3139  1.6008
 5777SOL     OW20828   5.695  10.266   4.294 -0.2691  0.4444 -0.2658
 5777SOL    HW120829   5.601  10.272   4.313 -0.2837 -0.5950  0.0495
 5777SOL    HW220830   5.731  10.219   4.369 -0.1405 -2.7214 -2.1626
 5778SOL     OW20831   7.524   6.001  10.061  0.5762 -0.3358  0.3272
 5778SOL    HW120832   7.559   5.917  10.031  2.1308 -0.1990  1.6237
 5778SOL    HW220833   7.432   5.983  10.080 -0.2844 -0.6906 -3.2883
 5779SOL     OW20834  10.178   8.969   6.960 -0.1963 -0.3880 -0.1482
 5779SOL    HW120835  10.119   8.922   7.019 -0.1148  1.0592  1.1490
 5779SOL    HW220836  10.257   8.984   7.012 -0.0993  0.8898 -0.6320
 5780SOL     OW20837  10.509   6.164   8.171  0.9030 -0.0246  0.1060
 5780SOL    HW120838  10.419   6.194   8.159  0.8372 -0.8422 -1.7200
 5780SOL    HW220839  10.531   6.191   8.260 -0.5933  1.5800  0.0446
 5781SOL     OW20840   4.421   8.399   1.572 -0.9182  0.5956 -0.5125
 5781SOL    HW120841   4.404   8.314   1.532  2.2760  0.3870 -1.6953
 5781SOL    HW220842   4.474   8.446   1.508 -1.2215  2.8931  0.7910
 5782SOL     OW20843   1.888   7.383   9.160  0.8880 -0.3605  0.5550
 5782SOL    HW120844   1.886   7.476   9.181  0.7543 -0.3965  0.6998
 5782SOL    HW220845   1.798   7.362   9.136  0.8009 -0.5765  1.0587
 5783SOL     OW20846   0.699   2.897   0.867 -0.1635 -0.0567 -0.3617
 5783SOL    HW120847   0.736   2.923   0.783  1.4179 -0.6937  0.1042
 5783SOL    HW220848   0.724   2.804   0.877 -0.6627 -0.1010  0.6168
 5784SOL     OW20849   4.163   1.023   7.401  0.1392 -0.1421  0.9365
 5784SOL    HW120850   4.240   0.976   7.433  0.7100 -0.2505 -0.5162
 5784SOL    HW220851   4.163   1.105   7.451  1.7050  0.2343  0.4066
 5785SOL     OW20852  10.370   4.427   1.680  0.2687 -0.2637  0.3367
 5785SOL    HW120853  10.389   4.497   1.617 -1.6211  0.6906  0.7576
 5785SOL    HW220854  10.389   4.466   1.765  2.3512 -1.3922  0.4668
 5786SOL     OW20855   3.831   4.436   2.532  0.1019 -0.1544  0.5462
 5786SOL    HW120856   3.840   4.362   2.593 -0.2109  0.0243  0.8146
 5786SOL    HW220857   3.841   4.397   2.446 -0.5391 -0.6019  0.6605
 5787SOL     OW20858   2.578   1.723  10.919 -0.0559  0.1356  0.3384
 5787SOL    HW120859   2.671   1.717  10.896 -0.7957 -2.0807 -2.8037
 5787SOL    HW220860   2.559   1.642  10.966 -0.5338  0.2094  0.2808
 5788SOL     OW20861   0.273  10.625   2.401  0.1577  0.0254  0.4728
 5788SOL    HW120862   0.212  10.652   2.470 -0.9507 -1.1604 -0.0106
 5788SOL    HW220863   0.265  10.694   2.335 -1.8624 -0.8333 -0.2785
 5789SOL     OW20864   0.224   0.593   9.485 -0.1645 -0.1736 -0.0716
 5789SOL    HW120865   0.211   0.514   9.432  0.0880 -0.1336 -0.1967
 5789SOL    HW220866   0.139   0.610   9.524  0.1178 -1.3975  1.2037
 5790SOL     OW20867   1.829   1.395   3.205  0.1646 -0.0562  0.0278
 5790SOL    HW120868   1.915   1.414   3.243 -0.0276 -2.0989  1.7023
 5790SOL    HW220869   1.819   1.300   3.217 -2.2672  0.1145 -0.2424
 5791SOL     OW20870   0.169   4.219   9.905 -0.3879 -0.2439 -0.1294
 5791SOL    HW120871   0.222   4.180   9.975  1.9362 -1.6706 -2.4969
 5791SOL    HW220872   0.087   4.170   9.906 -0.2485 -0.4748  1.3299
 5792SOL     OW20873   1.653   9.605   4.630  0.0991  0.2561 -0.5492
 5792SOL    HW120874   1.652   9.681   4.689 -0.7344  0.6160 -1.0045
 5792SOL    HW220875   1.632   9.641   4.544 -0.9319 -0.5575 -0.6639
 5793SOL     OW20876   2.455   1.231   9.051 -0.1367 -0.2408 -0.0734
 5793SOL    HW120877   2.470   1.273   8.966 -0.0986  2.0811  1.0131
 5793SOL    HW220878   2.539   1.235   9.096 -0.6205  0.4459  0.8243
 5794SOL     OW20879   1.678   6.711   4.936  0.1409 -0.1497 -0.1254
 5794SOL    HW120880   1.760   6.711   4.887 -0.6868 -0.3738 -1.5972
 5794SOL    HW220881   1.703   6.696   5.027  1.9079  2.0416 -0.1792
 5795SOL     OW20882   0.030   5.819   0.911  0.5843 -0.3439 -0.1372
 5795SOL    HW120883  -0.029   5.838   0.838  0.1921 -0.3090  0.1862
 5795SOL    HW220884   0.111   5.866   0.889  0.4625 -0.3229 -0.5416
 5796SOL     OW20885   6.097   5.861   8.502 -0.3970  0.1449  0.9062
 5796SOL    HW120886   6.160   5.930   8.481  0.9736 -0.8565  1.5729
 5796SOL    HW220887   6.064   5.832   8.416  0.4846  0.3124  0.4911
 5797SOL     OW20888   8.219   1.146   6.223  0.2858  0.3409 -0.0472
 5797SOL    HW120889   8.130   1.178   6.236  0.7212  1.0203  1.6289
 5797SOL    HW220890   8.248   1.189   6.142 -1.3375 -0.9992 -1.4151
 5798SOL     OW20891   1.589   6.933   2.247  0.3971 -0.3110 -0.4070
 5798SOL    HW120892   1.508   6.954   2.294  0.7351 -1.2234  0.6127
 5798SOL    HW220893   1.560   6.898   2.163 -0.2904 -1.2107  0.1913
 5799SOL     OW20894   0.605   5.960   6.791  0.7371  0.1598 -0.6889
 5799SOL    HW120895   0.681   5.974   6.734  0.6583 -0.9719 -1.0992
 5799SOL    HW220896   0.623   5.876   6.833  0.3759  0.5720  0.3000
 5800SOL     OW20897   1.851   9.454   4.781 -0.2073 -0.4856 -0.6919
 5800SOL    HW120898   1.782   9.512   4.748  0.0602  0.6035  0.5761
 5800SOL    HW220899   1.805   9.374   4.808 -0.9386  0.0825 -0.1999
 5801SOL     OW20900   0.283   0.095   4.605  0.4229 -0.1323 -0.1794
 5801SOL    HW120901   0.336   0.016   4.594 -1.0352 -1.0468 -1.1880
 5801SOL    HW220902   0.228   0.097   4.526 -1.5376  0.3153  1.1192
 5802SOL     OW20903   9.051   0.009   9.972 -0.1239 -0.2745 -0.0058
 5802SOL    HW120904   9.099  -0.038   9.904 -0.0605  0.4169 -0.4453
 5802SOL    HW220905   9.111   0.077  10.002 -0.3710 -0.1961  0.3269
 5803SOL     OW20906   4.991   7.207   1.412  0.3527  0.6853  0.5025
 5803SOL    HW120907   4.985   7.290   1.459  2.3866  0.4558  1.2985
 5803SOL    HW220908   4.972   7.229   1.321 -0.5091  1.7413  0.9176
 5804SOL     OW20909   6.337   0.729   7.085  0.4153 -0.1060 -0.2518
 5804SOL    HW120910   6.423   0.768   7.074  0.5133 -0.1179  0.4506
 5804SOL    HW220911   6.324   0.724   7.179 -1.1732  1.6955 -0.3166
 5805SOL     OW20912   4.713   5.760   8.317 -0.1082 -0.0220  0.6440
 5805SOL    HW120913   4.679   5.696   8.255 -0.0556  0.3882  0.1801
 5805SOL    HW220914   4.808   5.760   8.302 -0.1376  0.3591  0.4454
 5806SOL     OW20915   9.297   7.167  10.432 -0.2266  0.1807  0.7559
 5806SOL    HW120916   9.293   7.125  10.518 -0.0441 -1.5071  0.0028
 5806SOL    HW220917   9.384   7.142  10.398 -0.0388  1.3657  0.3419
 5807SOL     OW20918   8.864   0.340   6.942  0.1934 -0.1156 -0.3265
 5807SOL    HW120919   8.820   0.276   6.998 -0.4733  1.0564  0.5360
 5807SOL    HW220920   8.798   0.363   6.876 -0.1467  0.8351  0.3189
 5808SOL     OW20921   8.179   6.457   5.035 -0.1565  0.0700 -0.0052
 5808SOL    HW120922   8.127   6.399   5.090  0.4883  1.1869  1.9042
 5808SOL    HW220923   8.253   6.403   5.006  0.2194 -0.2108  1.3977
 5809SOL     OW20924   5.386   6.051   6.671  0.3563 -0.1242 -0.3022
 5809SOL    HW120925   5.299   6.073   6.639  0.9914  0.4269 -1.7258
 5809SOL    HW220926   5.384   5.956   6.684  0.5282 -0.7043 -3.6595
 5810SOL     OW20927   8.019   1.825   5.901  0.0031 -0.0193 -0.0620
 5810SOL    HW120928   7.971   1.772   5.964 -0.2903 -1.3366 -1.3353
 5810SOL    HW220929   7.952   1.856   5.840  0.6128 -1.2990 -1.4541
 5811SOL     OW20930   8.954   3.453   5.362 -0.0767 -0.1090 -0.0105
 5811SOL    HW120931   9.013   3.406   5.302  0.6652  0.1066  0.5316
 5811SOL    HW220932   8.945   3.394   5.436 -0.1250  0.0815  0.1349
 5812SOL     OW20933   7.241   7.132  10.600 -0.5349 -0.0419  0.0097
 5812SOL    HW120934   7.295   7.183  10.539  2.4624  0.7494  3.0495
 5812SOL    HW220935   7.198   7.197  10.655 -0.5523 -0.7577  0.8630
 5813SOL     OW20936   8.598   7.173   1.156  0.1856  0.2111 -0.3714
 5813SOL    HW120937   8.533   7.156   1.224  2.5298 -2.0525  1.5271
 5813SOL    HW220938   8.579   7.109   1.088 -0.4101  0.5185 -0.4982
 5814SOL     OW20939   3.995   5.404   8.962  0.0039  0.0781  0.2605
 5814SOL    HW120940   3.958   5.440   8.881  0.6154  1.0065  0.3725
 5814SOL    HW220941   3.999   5.310   8.946 -1.7460  0.0161 -0.0070
 5815SOL     OW20942  10.926   8.071   5.033  0.0209  0.4447 -0.4406
 5815SOL    HW120943  10.928   8.000   4.969 -1.7360  1.2486 -1.4592
 5815SOL    HW220944  10.834   8.097   5.037  0.3852  1.6161  1.0929
 5816SOL     OW20945  10.041   1.385  10.096 -0.2697  0.2298 -0.4003
 5816SOL    HW120946   9.995   1.450  10.044  0.0775  0.9126  0.1369
 5816SOL    HW220947  10.006   1.396  10.185  0.4107  0.2752 -0.1333
 5817SOL     OW20948   0.964   4.700   2.071 -0.1719 -0.8698 -0.4428
 5817SOL    HW120949   1.053   4.716   2.038 -0.4819 -1.7934 -1.8014
 5817SOL    HW220950   0.936   4.620   2.027 -1.7558 -0.4924 -0.1739
 5818SOL     OW20951   5.505  10.504   9.221  0.1118  0.1585  0.2253
 5818SOL    HW120952   5.519  10.461   9.305  3.0987  0.0454 -0.2306
 5818SOL    HW220953   5.518  10.597   9.238  0.3670  0.1732 -0.0358
 5819SOL     OW20954   1.712  10.669   5.595  0.1602  0.2119 -0.2966
 5819SOL    HW120955   1.693  10.669   5.689  0.2273  1.9889 -0.2443
 5819SOL    HW220956   1.794  10.620   5.587  0.1074 -0.0387  0.5666
 5820SOL     OW20957  10.765   2.899  10.567 -0.7280 -0.3989  0.3589
 5820SOL    HW120958  10.816   2.842  10.509  0.2329  0.2399  0.5489
 5820SOL    HW220959  10.675   2.871  10.555 -0.7349  0.5197 -2.4288
 5821SOL     OW20960   1.082   4.146   4.045 -0.3709  0.3209  0.7330
 5821SOL    HW120961   1.114   4.207   4.111 -2.6602  2.2319  0.1832
 5821SOL    HW220962   1.064   4.200   3.968 -2.5657 -0.9829  0.2423
 5822SOL     OW20963   7.758   4.502   0.077 -0.0964 -0.1969 -0.2936
 5822SOL    HW120964   7.686   4.479   0.137  1.3367 -1.3630  1.0843
 5822SOL    HW220965   7.714   4.527  -0.004 -2.1397  1.4595  1.1953
 5823SOL     OW20966   3.015   2.117   5.030 -0.1949  0.2708  0.1540
 5823SOL    HW120967   3.071   2.087   4.958 -1.7393 -0.1451 -0.9325
 5823SOL    HW220968   2.968   2.038   5.058 -0.8885  0.7652  0.4219
 5824SOL     OW20969   6.978   5.456   2.133 -0.4688 -0.0869 -0.4023
 5824SOL    HW120970   6.887   5.449   2.104 -1.1092  0.4340  1.3326
 5824SOL    HW220971   6.977   5.418   2.221  1.5038 -2.2335 -1.1925
 5825SOL     OW20972   4.672   4.881   5.845  0.2582 -0.1547 -0.2126
 5825SOL    HW120973   4.695   4.849   5.932 -0.4912  0.0556  0.0707
 5825SOL    HW220974   4.740   4.846   5.788  0.7367 -0.3249  0.4510
 5826SOL     OW20975  10.345   4.170   0.111 -0.0591  0.0732  0.1974
 5826SOL    HW120976  10.361   4.137   0.022 -0.7887 -0.4732  0.2582
 5826SOL    HW220977  10.412   4.128   0.165 -0.2279 -0.3519  0.0718
 5827SOL     OW20978   7.677  10.445   6.004 -0.3865  0.3885  0.1154
 5827SOL    HW120979   7.726  10.496   6.069 -0.3330  0.0734  0.3210
 5827SOL    HW220980   7.703  10.483   5.920 -0.1460  0.5271  0.2513
 5828SOL     OW20981   8.104   6.119   6.227 -0.2363  0.2429 -0.7940
 5828SOL    HW120982   8.144   6.119   6.314  1.5609 -1.5706 -1.5463
 5828SOL    HW220983   8.044   6.194   6.228  0.9350  1.2323  1.4513
 5829SOL     OW20984   6.422  10.024   1.994  0.3543  0.2690  0.1073
 5829SOL    HW120985   6.436   9.947   1.939 -0.2806  0.3915 -0.2296
 5829SOL    HW220986   6.329  10.022   2.015  0.3175  1.0095  0.0097
 5830SOL     OW20987   8.555   2.937   5.338  0.1293 -0.0883 -0.0689
 5830SOL    HW120988   8.592   2.924   5.425 -0.3051 -2.3677 -0.1454
 5830SOL    HW220989   8.613   2.888   5.280  0.0967  0.9319 -0.9843
 5831SOL     OW20990   2.564   4.791   5.131  0.0508 -0.0922  0.2909
 5831SOL    HW120991   2.518   4.777   5.214 -0.1510 -1.6416 -0.0485
 5831SOL    HW220992   2.503   4.758   5.064  0.8280 -0.2772 -0.3408
 5832SOL     OW20993   7.919   5.619   9.712  0.4310  0.5828  0.5809
 5832SOL    HW120994   7.909   5.529   9.681  1.0268  0.4134  0.8726
 5832SOL    HW220995   7.836   5.661   9.689  0.6293  0.3199 -0.7469
 5833SOL     OW20996   7.593   0.181   7.677  0.7112  0.4207  0.3175
 5833SOL    HW120997   7.618   0.268   7.707  0.0402  0.1311  1.8002
 5833SOL    HW220998   7.525   0.197   7.612  1.4533  1.0327 -0.3204
 5834SOL     OW20999   3.088   4.723   7.588  0.1520 -0.5970 -0.5749
 5834SOL    HW121000   3.068   4.704   7.496  0.3155 -0.5028 -0.6308
 5834SOL    HW221001   3.148   4.797   7.584 -0.9788  0.3598 -0.3366
 5835SOL     OW21002   2.412   4.093   7.059 -0.1094  0.3424  0.5034
 5835SOL    HW121003   2.493   4.055   7.093  0.2781 -0.5501 -1.3005
 5835SOL    HW221004   2.417   4.185   7.082  0.3972 -0.0902  2.2661
 5836SOL     OW21005   0.511   1.308   7.947  0.0988  0.1030  0.0283
 5836SOL    HW121006   0.417   1.294   7.931 -0.1615 -0.8868  2.0428
 5836SOL    HW221007   0.514   1.391   7.995 -0.0404 -0.8540  1.8095
 5837SOL     OW21008   8.845   1.183   2.007  0.1185  0.2900  0.1238
 5837SOL    HW121009   8.762   1.229   1.998 -0.0403  0.1266  0.7745
 5837SOL    HW221010   8.835   1.127   2.083  0.3929 -0.6576 -0.5134
 5838SOL     OW21011   0.971  10.745   8.220  0.3406 -0.3870 -0.3499
 5838SOL    HW121012   0.961  10.783   8.307 -2.5253 -0.2750 -0.6511
 5838SOL    HW221013   1.065  10.725   8.214  0.8458  0.7583  2.2387
 5839SOL     OW21014   8.708   7.732   5.389  0.0639 -0.0523 -0.0573
 5839SOL    HW121015   8.704   7.820   5.426 -2.2997 -0.2467  0.2524
 5839SOL    HW221016   8.802   7.711   5.389  0.4826  1.4759  2.1794
 5840SOL     OW21017   4.804  10.718   3.214 -0.2584 -0.0957 -0.4661
 5840SOL    HW121018   4.710  10.716   3.232 -1.2384  0.5155 -4.4441
 5840SOL    HW221019   4.834  10.801   3.251 -1.7674  0.6779 -0.9186
 5841SOL     OW21020   6.479  10.492  10.192 -0.0167  0.1518 -0.3833
 5841SOL    HW121021   6.441  10.507  10.278  1.8698  0.9417  0.3746
 5841SOL    HW221022   6.559  10.545  10.192 -0.5200  1.0855 -3.0447
 5842SOL     OW21023   1.616   2.295  10.705 -0.4552  0.0956 -0.1531
 5842SOL    HW121024   1.688   2.249  10.748  1.4936  2.7281 -0.3635
 5842SOL    HW221025   1.658   2.362  10.651 -3.0020  2.9686  1.0921
 5843SOL     OW21026   7.339   3.788   6.039 -0.3196  0.3365  0.2708
 5843SOL    HW121027   7.322   3.806   6.131  1.7371  0.6144  0.6510
 5843SOL    HW221028   7.386   3.865   6.007  0.0277 -0.2424 -0.6777
 5844SOL     OW21029  10.836   4.665   6.302 -0.5479 -0.3068  0.0584
 5844SOL    HW121030  10.802   4.700   6.384  1.0147 -0.2765  0.7209
 5844SOL    HW221031  10.906   4.725   6.277 -1.3977  0.0624 -1.6700
 5845SOL     OW21032   5.260   6.513   2.458 -0.1873 -0.0717  0.0132
 5845SOL    HW121033   5.186   6.521   2.398 -0.8374  0.5249  0.8620
 5845SOL    HW221034   5.220   6.511   2.545  0.5619 -3.0838  0.3999
 5846SOL     OW21035   9.372   3.420   3.672  0.8500 -0.0093  0.0516
 5846SOL    HW121036   9.462   3.425   3.641  0.9978 -1.9621  0.0169
 5846SOL    HW221037   9.373   3.464   3.757  1.3460  1.7902 -0.8385
 5847SOL     OW21038   0.130   9.774   2.482 -0.1755  0.5901  0.1147
 5847SOL    HW121039   0.063   9.812   2.538 -0.3751  0.7628 -0.2396
 5847SOL    HW221040   0.085   9.753   2.400 -0.8023 -3.1918  1.2535
 5848SOL     OW21041   2.638   4.798   3.298  0.1060 -0.1434  0.6137
 5848SOL    HW121042   2.650   4.819   3.206 -0.5441  0.2957  0.6184
 5848SOL    HW221043   2.608   4.880   3.338 -1.5117 -0.7982  0.8296
 5849SOL     OW21044   3.138   5.470   0.843 -0.6944 -0.4833  0.1729
 5849SOL    HW121045   3.183   5.390   0.871 -1.1994 -1.6442 -2.1102
 5849SOL    HW221046   3.045   5.447   0.843 -0.7479 -0.4112 -1.8898
 5850SOL     OW21047   9.605  10.977   4.470  0.2639 -0.0289  0.0705
 5850SOL    HW121048   9.681  10.958   4.414 -0.6369 -1.1659 -0.7950
 5850SOL    HW221049   9.553  10.897   4.467 -0.8965  0.6913  0.7806
 5851SOL     OW21050   8.179   9.683   2.203  0.2307  0.6292 -0.6018
 5851SOL    HW121051   8.223   9.666   2.120 -1.2990 -2.7691 -0.8772
 5851SOL    HW221052   8.099   9.729   2.178 -0.3872 -0.6726 -1.1079
 5852SOL     OW21053   9.516   4.605   9.838 -0.3481 -0.0011 -0.3862
 5852SOL    HW121054   9.570   4.533   9.806 -0.1463 -0.3224  0.6418
 5852SOL    HW221055   9.432   4.565   9.858 -0.5129  0.2181 -0.6319
 5853SOL     OW21056   4.272  10.315   5.793 -0.2257 -0.6767  0.8349
 5853SOL    HW121057   4.291  10.384   5.729 -2.0911 -0.3698  0.5668
 5853SOL    HW221058   4.356  10.271   5.806  0.6502  0.5937 -0.2256
 5854SOL     OW21059  10.940   4.423   6.198 -0.0204  0.0774 -0.2516
 5854SOL    HW121060  10.870   4.486   6.211 -0.8413 -0.4064 -2.0332
 5854SOL    HW221061  11.010   4.452   6.256 -1.7703  0.3985  1.8167
 5855SOL     OW21062   5.596   4.538   4.307  0.0232 -0.0147 -0.1258
 5855SOL    HW121063   5.677   4.588   4.310 -0.1107  0.2703 -0.9524
 5855SOL    HW221064   5.622   4.452   4.273 -0.1663  0.4321 -1.4750
 5856SOL     OW21065   1.000   6.649   7.432  0.4096 -0.2537  0.0644
 5856SOL    HW121066   0.909   6.618   7.436  0.7069 -1.0851  0.7190
 5856SOL    HW221067   1.021   6.647   7.339 -0.3839  0.3813 -0.1420
 5857SOL     OW21068   4.142   9.975   7.921  0.4187 -0.0596  0.1773
 5857SOL    HW121069   4.086  10.029   7.866 -0.5502  0.1171  1.3008
 5857SOL    HW221070   4.082   9.928   7.979  1.3877 -0.3899  0.9531
 5858SOL     OW21071   5.771   1.752   1.189  0.4061  0.3214 -0.8408
 5858SOL    HW121072   5.795   1.731   1.279 -2.8603  2.0093  0.6256
 5858SOL    HW221073   5.754   1.667   1.149 -0.5479 -0.4246  0.9935
 5859SOL     OW21074   4.799   5.147   5.577 -0.1708  0.1961  0.3979
 5859SOL    HW121075   4.883   5.133   5.621 -0.2716  0.7607  0.7801
 5859SOL    HW221076   4.735   5.151   5.648 -0.3742  0.8284  0.1849
 5860SOL     OW21077   1.297   7.814   1.061 -0.1347  0.3785  0.1888
 5860SOL    HW121078   1.350   7.866   1.122 -0.8764  2.2914 -0.7195
 5860SOL    HW221079   1.353   7.739   1.039  0.7626  0.4743  1.9554
 5861SOL     OW21080   3.710  10.757   1.970 -0.0504  0.4810  0.4339
 5861SOL    HW121081   3.778  10.822   1.955 -0.2172  0.5633  0.0232
 5861SOL    HW221082   3.692  10.762   2.063  1.1026 -0.1300  0.7133
 5862SOL     OW21083   0.843   8.755   1.184  0.6180 -0.0831 -0.2559
 5862SOL    HW121084   0.794   8.831   1.152 -0.6612 -1.1107 -0.8022
 5862SOL    HW221085   0.883   8.717   1.106  1.9245  0.4425  0.1172
 5863SOL     OW21086   0.610   1.515   0.154 -0.4626 -0.6588 -0.1435
 5863SOL    HW121087   0.637   1.447   0.092  0.7259 -0.5725  0.2669
 5863SOL    HW221088   0.651   1.490   0.237  0.5256  0.8900 -0.1325
 5864SOL     OW21089   3.418   7.401   3.212  0.0445  0.0047  0.2389
 5864SOL    HW121090   3.341   7.367   3.167  1.9691 -1.5413 -2.1210
 5864SOL    HW221091   3.442   7.333   3.274  0.4806 -0.3147 -0.2697
 5865SOL     OW21092   2.382   2.341   1.166 -0.1459  0.0093 -0.2190
 5865SOL    HW121093   2.453   2.373   1.222 -0.9852  1.1061  0.2550
 5865SOL    HW221094   2.423   2.273   1.112  1.2365  0.5631  0.0922
 5866SOL     OW21095   6.371   5.571  10.211 -0.3343 -0.5410  0.3586
 5866SOL    HW121096   6.416   5.606  10.288 -0.5149  0.1511  0.1617
 5866SOL    HW221097   6.323   5.495  10.243  1.8748 -2.0321  0.3602
 5867SOL     OW21098   6.784   0.576   3.613  0.9062 -0.1806 -0.2607
 5867SOL    HW121099   6.753   0.639   3.678  2.6333  0.4491  0.0318
 5867SOL    HW221100   6.705   0.542   3.571 -0.1799  0.3953  1.2435
 5868SOL     OW21101   4.670   7.037   0.794 -0.2843  0.5437  0.3474
 5868SOL    HW121102   4.633   7.046   0.706 -1.4992 -1.5692  0.5625
 5868SOL    HW221103   4.764   7.050   0.782 -0.6772  2.9288 -0.7690
 5869SOL     OW21104   8.303   6.955  10.872 -0.1628 -0.2700  0.2127
 5869SOL    HW121105   8.253   6.984  10.796  0.1673  3.4624  1.2086
 5869SOL    HW221106   8.394   6.978  10.850  0.5908 -2.9181  0.1988
 5870SOL     OW21107  10.179   6.719   3.723  0.3593  0.2763 -0.2293
 5870SOL    HW121108  10.243   6.786   3.700  0.3736  0.5189  0.4815
 5870SOL    HW221109  10.130   6.757   3.796  0.6664 -0.6467  0.4780
 5871SOL     OW21110  10.142   7.896   4.095 -0.2094  0.4326 -0.2585
 5871SOL    HW121111  10.223   7.855   4.127 -0.2443  0.9502  0.5354
 5871SOL    HW221112  10.081   7.889   4.168 -0.5590  0.9395 -0.4940
 5872SOL     OW21113   7.452   7.319   5.853 -0.1769 -0.2216  0.4394
 5872SOL    HW121114   7.370   7.270   5.857  0.1320 -0.7109  0.9245
 5872SOL    HW221115   7.442   7.376   5.777 -0.5804 -0.9635 -0.0763
 5873SOL     OW21116  10.934   3.656   3.517  0.2471  0.6019 -0.7122
 5873SOL    HW121117  10.988   3.587   3.555 -1.6300 -0.2287  0.6128
 5873SOL    HW221118  10.934   3.637   3.423 -0.3479 -1.3573 -0.3713
 5874SOL     OW21119   0.347   4.705  10.150 -0.1451 -0.2221  0.1395
 5874SOL    HW121120   0.420   4.693  10.090  1.8150  0.2369  2.2960
 5874SOL    HW221121   0.317   4.616  10.170  0.4318 -0.4613 -0.0528
 5875SOL     OW21122   2.280   4.271   9.985 -0.4925 -0.2117  0.1680
 5875SOL    HW121123   2.372   4.289  10.004  0.0670 -0.4925 -2.0357
 5875SOL    HW221124   2.239   4.260  10.071  1.5427 -0.1856  1.1847
 5876SOL     OW21125   2.597   7.954   8.612  0.0103 -0.2323  0.8244
 5876SOL    HW121126   2.689   7.946   8.590  0.0288  1.2595  0.2049
 5876SOL    HW221127   2.570   8.036   8.570 -0.8197  0.9793  3.5224
 5877SOL     OW21128   8.206   2.550   4.049  0.0963 -0.5916  0.0071
 5877SOL    HW121129   8.181   2.638   4.019 -0.3161 -1.1108 -1.2278
 5877SOL    HW221130   8.202   2.496   3.970 -3.1218 -2.5169  1.3091
 5878SOL     OW21131   2.945   4.167   3.120 -0.5942 -0.0489  0.3656
 5878SOL    HW121132   2.986   4.106   3.059  0.0187 -0.5916  1.2977
 5878SOL    HW221133   2.944   4.250   3.073  0.7985 -0.2180 -0.0051
 5879SOL     OW21134   2.935   2.415   3.577 -0.4804  0.4400 -0.3660
 5879SOL    HW121135   2.848   2.415   3.537 -0.0222  1.3726 -1.4143
 5879SOL    HW221136   2.958   2.507   3.585  0.8202  0.1965 -1.0416
 5880SOL     OW21137   1.180   7.812   9.447  0.1975 -1.0220 -0.2629
 5880SOL    HW121138   1.187   7.792   9.354  2.3493 -1.4447 -0.0597
 5880SOL    HW221139   1.086   7.821   9.463 -0.1835  0.4053 -2.7420
 5881SOL     OW21140   3.501   0.154   4.749 -0.0482  0.2988 -0.1734
 5881SOL    HW121141   3.586   0.198   4.750  0.3024 -0.3533 -0.0884
 5881SOL    HW221142   3.498   0.105   4.832 -0.0550 -0.4977 -0.6278
 5882SOL     OW21143   8.943   4.934   4.904  0.0430 -0.5378  0.1621
 5882SOL    HW121144   8.942   5.019   4.949 -0.7072 -0.4186 -0.0646
 5882SOL    HW221145   9.012   4.884   4.949  0.0030 -0.0621  0.7741
 5883SOL     OW21146   0.448   4.459   8.900  0.6336  0.2255  0.0383
 5883SOL    HW121147   0.453   4.460   8.805  0.5146  0.2183  0.0316
 5883SOL    HW221148   0.451   4.366   8.923 -2.8254 -0.0605 -0.1457
 5884SOL     OW21149   0.252   4.888   1.798 -0.0706 -0.0251 -0.6249
 5884SOL    HW121150   0.287   4.844   1.875 -0.5150 -1.0370 -0.9937
 5884SOL    HW221151   0.164   4.915   1.824 -0.3493 -0.6718 -0.8859
 5885SOL     OW21152   9.363   1.164   4.875  0.1945  0.0989 -0.1905
 5885SOL    HW121153   9.285   1.218   4.889  0.5204  0.4028  0.4512
 5885SOL    HW221154   9.434   1.227   4.862  0.4162 -0.1793 -0.3414
 5886SOL     OW21155   3.815   7.531   0.976 -0.1179 -0.4590 -0.2927
 5886SOL    HW121156   3.819   7.517   0.882 -0.1076 -0.8235 -0.2397
 5886SOL    HW221157   3.896   7.577   0.998 -0.1548 -0.3096 -0.4706
 5887SOL     OW21158  10.649  10.096   9.551 -0.0254  0.0337 -0.3507
 5887SOL    HW121159  10.687  10.145   9.625 -0.3070 -2.2826  1.4400
 5887SOL    HW221160  10.726  10.064   9.503  0.2859 -0.9453  0.7275
 5888SOL     OW21161   0.745   4.069   7.800 -0.0389  0.1716  0.0653
 5888SOL    HW121162   0.697   4.079   7.882  1.4899 -0.1939  1.0548
 5888SOL    HW221163   0.837   4.071   7.826  0.5182  1.1734 -1.7866
 5889SOL     OW21164   4.373   4.022   2.412 -0.3223 -0.1165 -0.0884
 5889SOL    HW121165   4.278   4.025   2.404 -0.3761  1.0095  0.7150
 5889SOL    HW221166   4.394   4.090   2.476  1.1158  0.4021 -1.0556
 5890SOL     OW21167   9.830   4.442   2.540 -0.6603 -0.1555  0.1500
 5890SOL    HW121168   9.860   4.457   2.630  2.6945  0.7731 -1.0012
 5890SOL    HW221169   9.736   4.428   2.549 -0.3987 -0.6158  3.8497
 5891SOL     OW21170   9.308   7.518   6.545 -0.1337 -0.1992 -0.2368
 5891SOL    HW121171   9.217   7.490   6.544  0.0264 -0.7180 -1.1847
 5891SOL    HW221172   9.342   7.495   6.459  0.6184  0.9158 -0.2671
 5892SOL     OW21173   0.927   9.395   1.944 -0.0364 -1.0420  0.2605
 5892SOL    HW121174   0.839   9.402   1.907  1.0249  2.3789 -2.1060
 5892SOL    HW221175   0.916   9.419   2.036 -1.5794 -0.6150 -0.0057
 5893SOL     OW21176   3.633   4.720   2.701  0.0527  0.0603 -0.6726
 5893SOL    HW121177   3.707   4.688   2.752 -1.6264  1.5002  2.9690
 5893SOL    HW221178   3.653   4.812   2.685  0.5807 -0.3619 -2.9458
 5894SOL     OW21179   4.937  10.427  10.834 -0.2477 -0.3287 -0.2176
 5894SOL    HW121180   5.028  10.396  10.830 -0.7684 -1.8054 -2.5568
 5894SOL    HW221181   4.885  10.352  10.806 -2.0358  1.0460 -0.7807
 5895SOL     OW21182   8.193   3.041  10.413 -0.2349 -0.2321 -0.2790
 5895SOL    HW121183   8.254   2.975  10.446  0.6674  0.3875 -0.6716
 5895SOL    HW221184   8.230   3.125  10.439 -1.9377  0.1381  1.1818
 5896SOL     OW21185   8.489   5.050   1.386  0.1028 -0.1464  0.0378
 5896SOL    HW121186   8.410   5.094   1.353  0.2539 -0.6615 -1.0206
 5896SOL    HW221187   8.554   5.062   1.317  0.6062 -0.7380  0.4026
 5897SOL     OW21188   6.380   1.230   9.050  0.3796 -0.6157  0.0646
 5897SOL    HW121189   6.353   1.191   9.133 -0.5700 -0.1408 -0.0059
 5897SOL    HW221190   6.318   1.195   8.986  1.2213 -1.1312 -0.4954
 5898SOL     OW21191   3.059   1.335   5.503 -0.2431  0.2119 -0.4230
 5898SOL    HW121192   2.975   1.311   5.543 -0.1451  0.8272  0.1581
 5898SOL    HW221193   3.041   1.335   5.409 -0.1756 -2.4025 -0.5174
 5899SOL     OW21194   0.623   8.655   1.837  0.4164 -0.0994  0.2804
 5899SOL    HW121195   0.652   8.622   1.922  0.9330 -0.2693  0.0424
 5899SOL    HW221196   0.555   8.720   1.858  0.0277 -0.6581  0.7900
 5900SOL     OW21197   8.466   7.109   1.449  0.0126  0.3919  0.2505
 5900SOL    HW121198   8.488   7.202   1.460 -0.0266  0.5428 -0.7712
 5900SOL    HW221199   8.549   7.063   1.463 -0.2305  0.4368  2.0932
 5901SOL     OW21200   5.025   6.414   1.671 -0.3782 -0.3733 -0.4784
 5901SOL    HW121201   5.113   6.378   1.659 -0.0399  0.7444 -1.5355
 5901SOL    HW221202   5.040   6.505   1.697 -1.2251 -0.1697 -0.6811
 5902SOL     OW21203   1.965   0.124   1.615  0.8367  0.1056  0.5001
 5902SOL    HW121204   2.056   0.151   1.605  0.6404  0.1651 -1.5472
 5902SOL    HW221205   1.969   0.043   1.665  2.2266 -0.9895 -1.2330
 5903SOL     OW21206   8.634   4.108   9.238  0.7548 -0.2739 -0.2122
 5903SOL    HW121207   8.677   4.194   9.245  0.7866 -0.2236 -0.9426
 5903SOL    HW221208   8.620   4.097   9.144 -0.5009 -0.4561 -0.0064
 5904SOL     OW21209   6.103   4.330   9.100 -0.7144  0.7023  0.5608
 5904SOL    HW121210   6.105   4.234   9.101 -0.9798  0.6956  0.4846
 5904SOL    HW221211   6.105   4.353   9.007  0.2788  0.7953  0.5963
 5905SOL     OW21212   2.236   8.130   5.712 -0.4894 -0.4151 -0.2242
 5905SOL    HW121213   2.323   8.118   5.749  0.5964  3.4635 -1.0263
 5905SOL    HW221214   2.250   8.135   5.618 -1.4280  0.8567 -0.3333
 5906SOL     OW21215   3.000  10.552   7.845  0.2316 -0.3187  0.6289
 5906SOL    HW121216   2.980  10.487   7.777 -1.6686  0.1107  0.7444
 5906SOL    HW221217   2.915  10.586   7.873  0.9990  0.0788  2.6938
 5907SOL     OW21218   8.669  10.268  10.462  0.0047  0.1556  0.6627
 5907SOL    HW121219   8.603  10.267  10.532  0.7824  2.2273  1.5186
 5907SOL    HW221220   8.618  10.280  10.382 -0.7674  0.3415  1.1638
 5908SOL     OW21221   8.688   2.513   1.724 -0.0631 -0.0046  0.3704
 5908SOL    HW121222   8.623   2.444   1.718 -0.8889  0.8607 -1.5563
 5908SOL    HW221223   8.639   2.590   1.752 -0.1401  0.8790 -1.9675
 5909SOL     OW21224   8.806  10.057   0.770  0.0752  0.2100 -0.4978
 5909SOL    HW121225   8.731  10.059   0.830  0.6575 -2.8378  0.5145
 5909SOL    HW221226   8.788   9.983   0.712  0.4367  1.9265 -2.9709
 5910SOL     OW21227   7.870   1.766   8.680 -0.5079  0.1073 -0.0171
 5910SOL    HW121228   7.878   1.792   8.772 -0.3118 -0.0286  0.0062
 5910SOL    HW221229   7.806   1.694   8.682  0.5150 -0.8211  0.2017
 5911SOL     OW21230   9.310   3.210   0.181  0.3028 -0.3242 -0.1844
 5911SOL    HW121231   9.258   3.180   0.256  0.1437 -1.4585 -0.7249
 5911SOL    HW221232   9.375   3.268   0.219 -1.6440  1.5686  0.4745
 5912SOL     OW21233   6.915  10.534   9.492  0.1388 -0.5927 -0.0331
 5912SOL    HW121234   6.897  10.447   9.528 -0.3312 -0.5116 -0.0644
 5912SOL    HW221235   6.958  10.580   9.563  0.2341 -0.7978  0.0438
 5913SOL     OW21236  10.603   3.669   3.103  0.4020  0.0499 -0.6222
 5913SOL    HW121237  10.511   3.694   3.110  0.5515  0.1681  1.5961
 5913SOL    HW221238  10.641   3.733   3.043 -0.7337  0.6315 -0.7460
 5914SOL     OW21239   0.781   4.204   0.944 -0.5627  0.2847 -0.0952
 5914SOL    HW121240   0.770   4.155   1.026  1.4882 -0.3172 -0.1401
 5914SOL    HW221241   0.814   4.289   0.972 -0.9354  0.4746 -0.2324
 5915SOL     OW21242   1.650   6.564   3.834 -0.1966 -0.4345 -0.3784
 5915SOL    HW121243   1.647   6.646   3.785 -0.1460 -0.4697 -0.4398
 5915SOL    HW221244   1.676   6.499   3.770  3.3206  0.0401  0.3453
 5916SOL     OW21245   6.159   9.122   7.727 -0.0678  0.5931  0.8553
 5916SOL    HW121246   6.243   9.166   7.712 -0.0482  0.5010  0.6851
 5916SOL    HW221247   6.162   9.045   7.670  0.2709 -0.1284  1.8195
 5917SOL     OW21248   3.913   2.545   6.434 -0.4788  0.7772  0.7760
 5917SOL    HW121249   3.997   2.503   6.417 -1.8192 -1.3041 -1.5090
 5917SOL    HW221250   3.928   2.638   6.415  1.0971  0.3131 -0.4561
 5918SOL     OW21251   5.293   3.852   3.764  0.1921  0.6916 -0.0611
 5918SOL    HW121252   5.218   3.807   3.804  0.9031 -1.3101 -0.8533
 5918SOL    HW221253   5.326   3.909   3.834 -0.8235  0.0716  0.9736
 5919SOL     OW21254   4.519   1.941   7.178  0.8753 -0.1800  0.1628
 5919SOL    HW121255   4.512   1.867   7.239  0.0616  0.7069  1.1897
 5919SOL    HW221256   4.506   1.902   7.092  0.2843 -1.2249  0.6952
 5920SOL     OW21257   8.431   9.910   8.494  0.2577  0.4609 -0.3087
 5920SOL    HW121258   8.357   9.953   8.451  0.2833  0.3857 -0.4302
 5920SOL    HW221259   8.463   9.847   8.429 -1.0855 -1.2688  0.6460
 5921SOL     OW21260   8.787   2.891   0.080 -0.2922  0.5780  0.1568
 5921SOL    HW121261   8.829   2.955   0.137  0.4379 -0.7765  1.1899
 5921SOL    HW221262   8.771   2.816   0.136  1.8199 -1.4128 -1.7148
 5922SOL     OW21263   6.448   6.790   6.535 -0.3773 -0.2450  0.7728
 5922SOL    HW121264   6.513   6.726   6.566 -1.2789 -0.2185  2.9003
 5922SOL    HW221265   6.492   6.875   6.543  0.3836 -0.4298 -0.8738
 5923SOL     OW21266  10.957   4.345   0.902 -0.0327 -0.1788 -0.2469
 5923SOL    HW121267  10.887   4.316   0.961 -0.9402  1.0982 -0.6645
 5923SOL    HW221268  10.914   4.407   0.842  1.1604 -0.4141 -1.3934
 5924SOL     OW21269  10.772   0.497  10.602 -0.0540  0.1183  0.1472
 5924SOL    HW121270  10.708   0.500  10.674  0.0007 -0.5122  0.2303
 5924SOL    HW221271  10.827   0.422  10.623 -1.1738 -1.2409 -1.5110
 5925SOL     OW21272   6.420   6.766   6.200 -0.2664 -0.4001 -0.7368
 5925SOL    HW121273   6.373   6.800   6.123 -0.4217 -1.1467 -0.9836
 5925SOL    HW221274   6.435   6.674   6.179 -1.1053 -0.8514  0.5161
 5926SOL     OW21275  10.859   0.628   8.695 -0.7380 -0.8479  0.6343
 5926SOL    HW121276  10.773   0.665   8.713 -0.0039  0.4828  1.6840
 5926SOL    HW221277  10.919   0.703   8.700  0.3387 -1.4855 -1.4452
 5927SOL     OW21278   3.582   3.973   3.886 -0.3074  0.1228 -0.1623
 5927SOL    HW121279   3.533   3.936   3.813 -0.9194  0.9058 -0.1609
 5927SOL    HW221280   3.567   3.912   3.958 -0.9561  0.1407 -0.2732
 5928SOL     OW21281   0.111   1.866   8.962  0.0592 -0.4816  0.0512
 5928SOL    HW121282   0.115   1.771   8.956  0.7618 -0.4371 -0.1885
 5928SOL    HW221283   0.171   1.889   9.032  2.3104 -0.0129 -1.9052
 5929SOL     OW21284   6.359   6.170   9.911  0.5969  0.1162  0.0310
 5929SOL    HW121285   6.349   6.076   9.921 -1.4441  0.3528  0.8300
 5929SOL    HW221286   6.371   6.183   9.817  1.8221 -0.9711  0.0093
 5930SOL     OW21287   2.549  10.977   5.388  0.0764 -0.4428  0.1176
 5930SOL    HW121288   2.623  10.968   5.448 -1.8583  0.9104  2.9348
 5930SOL    HW221289   2.515  10.888   5.377  0.7775 -0.7714  0.5720
 5931SOL     OW21290   9.810   6.810   3.858  0.0839 -0.1056  0.4642
 5931SOL    HW121291   9.769   6.767   3.933 -0.2902 -0.2886  0.1560
 5931SOL    HW221292   9.901   6.826   3.886 -0.4325  1.1714  1.5235
 5932SOL     OW21293   7.253  11.004   8.874 -0.5917  0.0537  0.3238
 5932SOL    HW121294   7.320  11.039   8.933  0.4440  1.6362 -1.6397
 5932SOL    HW221295   7.192  11.076   8.861  0.4965  0.6581 -2.2573
 5933SOL     OW21296   0.657   6.172   2.132  0.1855  0.2247  0.0300
 5933SOL    HW121297   0.593   6.198   2.066  0.9657 -2.8137 -2.1729
 5933SOL    HW221298   0.610   6.110   2.188  0.2676  0.7045  0.6417
 5934SOL     OW21299   1.077   7.340   0.675  0.4903  0.0910  0.0055
 5934SOL    HW121300   1.051   7.419   0.722 -0.6411 -0.0502 -0.3672
 5934SOL    HW221301   0.996   7.293   0.659  1.0974 -0.9247 -0.2001
 5935SOL     OW21302   6.880   3.084   8.685 -0.4427 -0.5629 -0.1461
 5935SOL    HW121303   6.932   3.046   8.614  1.4854  1.3408  0.1161
 5935SOL    HW221304   6.815   3.138   8.640 -0.4136 -0.8148 -0.4934
 5936SOL     OW21305   9.809   9.657   1.062  0.5825  0.1149  0.2070
 5936SOL    HW121306   9.734   9.650   1.003  1.0249 -0.5239 -0.2919
 5936SOL    HW221307   9.886   9.653   1.005  1.0479 -1.5443  0.8919
 5937SOL     OW21308   2.744   9.440  10.867  0.5254 -0.6372  0.4675
 5937SOL    HW121309   2.747   9.405  10.956  0.3967 -0.0563  0.7080
 5937SOL    HW221310   2.803   9.515  10.869 -0.3191  0.0487  0.3698
 5938SOL     OW21311   8.244   4.464   1.544  0.0703  0.4765  0.1699
 5938SOL    HW121312   8.222   4.555   1.530 -1.0816 -0.1572 -2.7528
 5938SOL    HW221313   8.161   4.422   1.567  0.2683 -0.1235 -0.1896
 5939SOL     OW21314   4.502   5.023   1.148  0.1644 -0.2731 -0.0053
 5939SOL    HW121315   4.555   5.083   1.201 -1.3634 -0.3303  1.6717
 5939SOL    HW221316   4.439   5.080   1.104 -0.7307 -0.5051  0.9192
 5940SOL     OW21317   5.074   4.814   6.631  0.4899  0.0301  0.2864
 5940SOL    HW121318   4.990   4.797   6.674  1.4553 -0.7994  1.9434
 5940SOL    HW221319   5.051   4.864   6.552 -1.5774 -0.5250  0.4804
 5941SOL     OW21320   4.438   3.535   8.366  0.5035 -0.0888  0.6175
 5941SOL    HW121321   4.464   3.601   8.302 -1.0195 -0.2185 -0.1625
 5941SOL    HW221322   4.355   3.567   8.401 -0.4209 -1.7085  0.0155
 5942SOL     OW21323   4.529   0.608  10.035  0.0199 -0.6076  0.2308
 5942SOL    HW121324   4.492   0.645   9.955 -0.1503 -0.8309  0.2048
 5942SOL    HW221325   4.467   0.632  10.104 -0.8419 -2.0424 -0.0058
 5943SOL     OW21326   5.775   0.066   8.541 -0.3196  0.3722  0.2987
 5943SOL    HW121327   5.762   0.013   8.462  1.8262 -0.0823  0.1900
 5943SOL    HW221328   5.818   0.146   8.510  0.0544  0.4302  0.9468
 5944SOL     OW21329   6.075   7.800   2.324 -0.6245  0.5458  0.5197
 5944SOL    HW121330   6.010   7.798   2.394  1.4805  0.0969  2.6022
 5944SOL    HW221331   6.082   7.709   2.295 -0.8737  0.5880  0.3237
 5945SOL     OW21332   0.747   9.157   5.148  0.3059  0.0123 -0.0799
 5945SOL    HW121333   0.748   9.244   5.109  1.5507 -0.8199 -2.0599
 5945SOL    HW221334   0.779   9.170   5.238  0.2853  1.5991 -0.2798
 5946SOL     OW21335   3.976   0.260   5.480  0.3071 -0.1974 -0.3150
 5946SOL    HW121336   3.978   0.272   5.386 -0.8919  1.3703 -0.1861
 5946SOL    HW221337   4.016   0.174   5.495  0.6352 -0.4064 -2.2141
 5947SOL     OW21338   6.426   8.356   1.809  0.5057  0.2211 -0.0728
 5947SOL    HW121339   6.350   8.353   1.750  1.9884 -2.8448 -2.0711
 5947SOL    HW221340   6.474   8.434   1.782 -1.2016  1.4999  0.3659
 5948SOL     OW21341   4.859   8.870   6.161 -0.0073 -0.3184  0.9873
 5948SOL    HW121342   4.778   8.896   6.118  0.5024  0.3854  0.4332
 5948SOL    HW221343   4.860   8.775   6.154  0.1000 -0.2213 -0.6430
 5949SOL     OW21344   1.289   5.555   8.029 -0.0914 -0.4371 -0.2161
 5949SOL    HW121345   1.241   5.523   8.105 -1.5381 -1.1155 -1.3735
 5949SOL    HW221346   1.302   5.478   7.974  1.3770 -0.0533 -0.4676
 5950SOL     OW21347   3.758   7.977   1.444 -0.1945 -0.1016  0.2347
 5950SOL    HW121348   3.823   7.927   1.395  0.1859  0.3816  0.2366
 5950SOL    HW221349   3.701   7.910   1.483  0.2345 -0.5269  0.1441
 5951SOL     OW21350   6.938   4.596   4.859  0.9774  0.3258  0.5349
 5951SOL    HW121351   6.855   4.550   4.848  0.7951  0.5913  0.8023
 5951SOL    HW221352   6.938   4.660   4.788  0.4542  1.0645  1.1907
 5952SOL     OW21353   3.586   3.745   8.005  0.1742  0.9334  0.0007
 5952SOL    HW121354   3.624   3.823   8.046 -0.6182  0.3954  1.8995
 5952SOL    HW221355   3.538   3.702   8.076 -0.7892 -0.4110 -1.3967
 5953SOL     OW21356   3.442   1.888   4.958 -0.4651 -0.3924 -0.3591
 5953SOL    HW121357   3.442   1.915   5.050  1.1816 -1.5135  0.0044
 5953SOL    HW221358   3.487   1.958   4.912 -0.8528 -0.0659 -0.2513
 5954SOL     OW21359   2.811   9.720   5.401  0.7157  0.9379 -0.1296
 5954SOL    HW121360   2.779   9.717   5.491 -1.0328  2.2450 -0.6567
 5954SOL    HW221361   2.875   9.791   5.400  0.5933  1.0508  0.0413
 5955SOL     OW21362   3.973   2.798   8.931 -0.2102  0.2709  0.3394
 5955SOL    HW121363   4.027   2.799   8.853  0.9355  0.6129  1.1121
 5955SOL    HW221364   3.895   2.849   8.908  0.0161  0.1992 -0.6230
 5956SOL     OW21365  10.822   1.072   7.879  0.3963  0.5433  0.1969
 5956SOL    HW121366  10.755   1.133   7.847  0.4991  1.2291  1.2218
 5956SOL    HW221367  10.819   1.082   7.974  1.7252  0.3327  0.2827
 5957SOL     OW21368   0.292   1.836   7.082  0.2037 -0.0673  0.0346
 5957SOL    HW121369   0.331   1.811   6.998 -1.0646  0.8956 -0.8840
 5957SOL    HW221370   0.237   1.912   7.061  0.4599  0.6833  1.8897
 5958SOL     OW21371   0.041   2.419   4.435 -0.6766  0.2704 -0.1514
 5958SOL    HW121372  -0.005   2.502   4.446 -0.6252  0.0701  2.1733
 5958SOL    HW221373   0.083   2.425   4.349  1.6887  3.8279  1.0590
 5959SOL     OW21374   8.461   4.955   8.364  0.2751  0.0477  0.2079
 5959SOL    HW121375   8.456   4.969   8.458  1.0426  0.1616  0.2409
 5959SOL    HW221376   8.413   5.029   8.326  1.3201  0.8870  0.4764
 5960SOL     OW21377   1.126   6.227   9.196  0.2008 -0.1773 -0.5873
 5960SOL    HW121378   1.147   6.138   9.223  0.7575  0.2689  0.5629
 5960SOL    HW221379   1.146   6.280   9.274  0.7997  1.0534 -1.5452
 5961SOL     OW21380   6.848   2.877   9.853 -0.5247 -0.8140  0.5925
 5961SOL    HW121381   6.759   2.882   9.888 -0.8624  2.0180 -0.4408
 5961SOL    HW221382   6.901   2.851   9.929 -1.8808  0.1489  1.9455
 5962SOL     OW21383   3.549   8.712   6.089  0.4342  0.2369 -0.0245
 5962SOL    HW121384   3.510   8.629   6.062  1.9860 -1.2196  1.7930
 5962SOL    HW221385   3.589   8.747   6.010 -0.9334 -0.3493 -1.0020
 5963SOL     OW21386   3.352   4.705   2.339  0.1317 -0.1562  0.0625
 5963SOL    HW121387   3.391   4.783   2.298 -0.6430  0.4148  0.3807
 5963SOL    HW221388   3.345   4.729   2.432 -0.6515 -0.3711  0.0652
 5964SOL     OW21389   8.536   0.445   6.909 -0.1771  0.0869 -0.0512
 5964SOL    HW121390   8.574   0.417   6.992 -0.2109  0.1804 -0.0031
 5964SOL    HW221391   8.460   0.498   6.934 -0.1061  0.2328 -0.1391
 5965SOL     OW21392   0.682   5.513   4.811 -0.0490  0.2273  0.0521
 5965SOL    HW121393   0.668   5.585   4.872  1.6192 -0.9869  1.9983
 5965SOL    HW221394   0.778   5.502   4.809 -0.1529 -0.7476 -1.6432
 5966SOL     OW21395   2.855   6.428   1.022  0.0597  0.2986  0.7340
 5966SOL    HW121396   2.879   6.341   1.054  0.8019 -0.0720 -0.7263
 5966SOL    HW221397   2.939   6.472   1.008 -0.3154  1.4865  1.9898
 5967SOL     OW21398   3.430   4.854   7.746 -0.5619  0.4106  0.1716
 5967SOL    HW121399   3.435   4.898   7.661 -1.8615  0.0871 -0.0891
 5967SOL    HW221400   3.337   4.832   7.757 -0.2731 -0.3675  1.2605
 5968SOL     OW21401   9.608   9.607   5.481  0.5412 -0.1840 -0.3690
 5968SOL    HW121402   9.543   9.537   5.476  0.1794  0.1767 -1.0145
 5968SOL    HW221403   9.681   9.570   5.529  1.0908 -1.6060 -2.1732
 5969SOL     OW21404   7.131   8.207   2.372  0.1861  0.4128  0.3005
 5969SOL    HW121405   7.135   8.118   2.336 -0.2142  0.4391  0.1911
 5969SOL    HW221406   7.188   8.258   2.315 -0.0548  0.3500  0.0021
 5970SOL     OW21407   3.679   7.375  10.399 -0.1535  0.3257  0.1934
 5970SOL    HW121408   3.597   7.330  10.380  0.3904 -1.3657  1.5799
 5970SOL    HW221409   3.743   7.335  10.340 -0.2295  1.4630 -0.7081
 5971SOL     OW21410   8.755   2.389   4.612 -0.2337  0.1777  0.5266
 5971SOL    HW121411   8.762   2.421   4.522  1.5173 -0.9978  0.1981
 5971SOL    HW221412   8.717   2.302   4.604  3.0723 -1.3737  0.5196
 5972SOL     OW21413   6.860   4.451   4.556  0.1922 -0.0556 -0.2318
 5972SOL    HW121414   6.924   4.380   4.569 -0.6414 -1.2896 -2.4024
 5972SOL    HW221415   6.858   4.464   4.461 -0.8483  1.8224  0.0113
 5973SOL     OW21416   2.539   9.812   4.529  0.0689  0.1970 -0.0510
 5973SOL    HW121417   2.512   9.896   4.492  1.4622  0.2053 -1.1402
 5973SOL    HW221418   2.598   9.836   4.600  0.7718  0.1581 -0.6094
 5974SOL     OW21419   9.744   8.760   9.382  0.1196  0.0760 -0.5284
 5974SOL    HW121420   9.735   8.697   9.310  1.0960  0.5123 -1.0610
 5974SOL    HW221421   9.747   8.706   9.461  0.8213 -0.5548 -0.9661
 5975SOL     OW21422   6.769   7.667   7.942 -0.3827  0.2144 -0.3445
 5975SOL    HW121423   6.850   7.719   7.936 -0.7057  0.7839  0.1315
 5975SOL    HW221424   6.790   7.585   7.898 -0.0766  1.0165 -1.7684
 5976SOL     OW21425   0.502  10.366   2.742 -0.0422  0.2761  0.5259
 5976SOL    HW121426   0.484  10.402   2.655 -1.0353 -0.2648  0.4977
 5976SOL    HW221427   0.589  10.328   2.735 -0.2206  0.0174 -0.3047
 5977SOL     OW21428   4.182   3.237   8.893  0.0501  0.1432 -0.0718
 5977SOL    HW121429   4.188   3.244   8.798  2.2268 -3.4164 -0.3634
 5977SOL    HW221430   4.222   3.318   8.925  0.6555  0.7495 -2.1829
 5978SOL     OW21431   9.876   2.682   8.775  0.4579  0.0137 -0.4298
 5978SOL    HW121432   9.791   2.719   8.801 -0.3395 -1.0054 -1.4478
 5978SOL    HW221433   9.877   2.688   8.680  0.5017 -2.0156 -0.6084
 5979SOL     OW21434   1.814   4.334   2.018  0.2219 -0.2389 -0.1301
 5979SOL    HW121435   1.732   4.364   2.057 -0.7246 -0.4946 -1.8373
 5979SOL    HW221436   1.813   4.239   2.029  0.5921 -0.1876  0.3849
 5980SOL     OW21437   3.878   7.953   9.748  0.0756 -0.1127  0.4429
 5980SOL    HW121438   3.804   7.968   9.689  1.1713  0.1571 -0.9330
 5980SOL    HW221439   3.867   7.863   9.777 -1.1525  0.1333  0.8216
 5981SOL     OW21440   0.430   9.840   9.298 -0.7632  0.0501  0.0342
 5981SOL    HW121441   0.496   9.857   9.231 -1.6238 -0.7663 -1.0726
 5981SOL    HW221442   0.395   9.926   9.320 -0.1378  0.3729 -0.2301
 5982SOL     OW21443   3.620  10.131   0.265  0.2555 -0.8474  0.3248
 5982SOL    HW121444   3.715  10.139   0.277  0.2130  1.9182 -0.5028
 5982SOL    HW221445   3.586  10.121   0.354  1.2021 -0.0644  0.7982
 5983SOL     OW21446   5.813   3.823   3.219 -0.6825 -0.6044 -0.4046
 5983SOL    HW121447   5.731   3.830   3.267  0.2021  0.1075  1.0711
 5983SOL    HW221448   5.808   3.892   3.152 -0.2733  1.2279  1.3409
 5984SOL     OW21449   8.708   2.384  10.279 -0.2497  0.4970  0.5101
 5984SOL    HW121450   8.674   2.473  10.281  0.1379  0.6402  0.7263
 5984SOL    HW221451   8.635   2.332  10.245 -1.0432  0.6400  1.9357
 5985SOL     OW21452   8.864   1.325   9.224 -0.3028 -0.8419 -0.0721
 5985SOL    HW121453   8.899   1.241   9.254 -0.7618 -1.2348 -0.6047
 5985SOL    HW221454   8.808   1.354   9.296  1.2894 -0.0730  0.9023
 5986SOL     OW21455   1.457   8.671  10.442  0.0739  0.5131  0.6462
 5986SOL    HW121456   1.506   8.652  10.522 -0.0115 -1.3018  0.3112
 5986SOL    HW221457   1.520   8.658  10.371 -0.5029 -0.5118  0.2928
 5987SOL     OW21458   2.966   7.898   8.806 -0.0961 -0.5327  0.2406
 5987SOL    HW121459   2.876   7.864   8.816 -0.6933  1.0018  0.2850
 5987SOL    HW221460   3.009   7.873   8.887 -0.8943 -0.1102  0.8124
 5988SOL     OW21461   5.796   3.834   8.823  1.0259 -0.1680 -0.1076
 5988SOL    HW121462   5.712   3.844   8.777 -0.2144 -0.3077  2.0066
 5988SOL    HW221463   5.821   3.743   8.807  0.7206 -0.1672 -0.6448
 5989SOL     OW21464   7.473   5.241   1.159 -0.3878 -0.2741 -0.0054
 5989SOL    HW121465   7.491   5.150   1.136  0.2916 -0.4283  1.0465
 5989SOL    HW221466   7.531   5.292   1.103 -0.7535 -0.4862 -0.5819
 5990SOL     OW21467   7.412   5.099   4.937 -0.6012 -0.7311  0.1387
 5990SOL    HW121468   7.331   5.080   4.984 -0.7922  1.4496  0.8188
 5990SOL    HW221469   7.388   5.094   4.845 -1.3006 -0.9342  0.3244
 5991SOL     OW21470   5.338   9.249   7.463  0.5983 -0.4671 -0.2752
 5991SOL    HW121471   5.420   9.290   7.436  0.8399  1.2450  2.5545
 5991SOL    HW221472   5.274   9.321   7.462 -0.4894 -1.4098 -0.8552
 5992SOL     OW21473   1.766   1.489   5.470  0.3518  0.1472 -0.0205
 5992SOL    HW121474   1.811   1.546   5.407 -1.7813  0.8101 -1.0626
 5992SOL    HW221475   1.685   1.465   5.425 -0.2015 -1.2268  1.6341
 5993SOL     OW21476   9.028   4.920   7.695 -0.1050 -0.0729  0.0221
 5993SOL    HW121477   8.959   4.984   7.711 -0.9411 -1.0847  0.5857
 5993SOL    HW221478   9.094   4.967   7.644 -0.5214  1.3321  0.7459
 5994SOL     OW21479   3.486  10.759   5.603 -0.1582 -0.0510 -0.0662
 5994SOL    HW121480   3.434  10.680   5.614 -0.2834  0.0898  0.3921
 5994SOL    HW221481   3.425  10.831   5.618  0.5837  0.1090  2.7226
 5995SOL     OW21482   1.778  10.538   3.021  0.3255  0.2312  0.0108
 5995SOL    HW121483   1.704  10.592   3.050  0.7041  0.5288  0.4356
 5995SOL    HW221484   1.793  10.478   3.094  0.8255  0.5060  0.1359
 5996SOL     OW21485   9.421   0.996   2.736 -0.0283 -0.2968 -0.1312
 5996SOL    HW121486   9.333   1.029   2.725 -0.1686 -0.8318 -0.6638
 5996SOL    HW221487   9.440   1.009   2.829 -0.6666 -0.1904 -0.0125
 5997SOL     OW21488   4.605  10.363   9.097 -0.2404 -0.1875  0.4008
 5997SOL    HW121489   4.637  10.452   9.085  1.0224 -0.7655 -0.7467
 5997SOL    HW221490   4.603  10.350   9.191  0.1820  0.8347  0.5559
 5998SOL     OW21491   9.518   1.595   5.289 -0.2307 -0.0822 -0.5836
 5998SOL    HW121492   9.472   1.539   5.226 -0.7793 -0.4534  0.1260
 5998SOL    HW221493   9.526   1.540   5.367  1.0757  0.1234 -0.5638
 5999SOL     OW21494   5.100   0.650  10.326  0.7272 -0.5603 -0.2746
 5999SOL    HW121495   5.021   0.600  10.305  0.8074 -0.3024 -1.2615
 5999SOL    HW221496   5.093   0.670  10.419 -1.3866  1.2314 -0.7428
 6000SOL     OW21497   8.923   9.170   7.698  0.0240  0.4537 -0.2467
 6000SOL    HW121498   8.927   9.174   7.794 -2.0764 -1.2119  0.0001
 6000SOL    HW221499   8.964   9.251   7.669  1.3561  0.6803  2.0293
 6001SOL     OW21500   8.931   6.814   0.676  0.9190  0.0284  0.6681
 6001SOL    HW121501   8.857   6.832   0.734  0.4593  1.5819 -0.3437
 6001SOL    HW221502   8.907   6.732   0.632 -0.1292  0.4246  0.4749
 6002SOL     OW21503   1.768  10.714   1.179 -0.1847  0.0027 -0.5287
 6002SOL    HW121504   1.797  10.804   1.198 -0.2507 -0.4793  2.1857
 6002SOL    HW221505   1.802  10.697   1.091 -0.0630  2.6196 -1.0978
 6003SOL     OW21506   4.954   1.318   1.509  0.3124  0.0396 -0.2086
 6003SOL    HW121507   4.905   1.400   1.514 -1.2830 -0.9183  0.4899
 6003SOL    HW221508   5.008   1.316   1.588 -1.0204 -0.4059  0.7112
 6004SOL     OW21509   4.210   1.239   3.951  0.7049 -0.2787  0.2376
 6004SOL    HW121510   4.195   1.298   3.877  0.1344 -0.2562  0.3629
 6004SOL    HW221511   4.279   1.280   4.002  0.2097  0.3661  0.4034
 6005SOL     OW21512   9.483   0.989   5.046 -0.2138 -0.4804 -0.1676
 6005SOL    HW121513   9.449   1.067   5.003 -0.0135 -0.3992 -0.1831
 6005SOL    HW221514   9.463   1.003   5.139  2.2834  0.9472  0.2655
 6006SOL     OW21515  10.051   6.646   6.918  0.1189 -0.2464  0.8087
 6006SOL    HW121516   9.989   6.663   6.847  0.2458  1.8973  1.1419
 6006SOL    HW221517  10.100   6.569   6.890 -0.7251 -0.2288 -0.8046
 6007SOL     OW21518   6.098   2.612   3.211  0.5646  0.6010  0.4012
 6007SOL    HW121519   6.082   2.687   3.154  0.4688  0.6363  0.4749
 6007SOL    HW221520   6.101   2.649   3.299 -1.5981  0.2664  0.6895
 6008SOL     OW21521  10.737   7.068   1.405 -0.0321 -0.0735 -0.3853
 6008SOL    HW121522  10.669   7.030   1.349  0.0598 -1.6558  0.5082
 6008SOL    HW221523  10.695   7.079   1.490 -0.2752  2.6695 -0.7944
 6009SOL     OW21524   8.296   4.570   4.829  0.0112 -0.1446  0.0933
 6009SOL    HW121525   8.329   4.652   4.792  0.9026 -0.3901  0.3116
 6009SOL    HW221526   8.333   4.502   4.773 -0.8283 -0.4044 -0.1647
 6010SOL     OW21527   5.472   0.262   0.803  0.3787  0.0349 -0.3072
 6010SOL    HW121528   5.506   0.281   0.715 -1.5442  0.4173 -1.0160
 6010SOL    HW221529   5.524   0.317   0.861  0.3572  1.3146 -1.4359
 6011SOL     OW21530   3.798   4.088   0.821  0.1380 -0.0391  0.2433
 6011SOL    HW121531   3.782   4.182   0.824  0.1709 -0.0459  0.6507
 6011SOL    HW221532   3.888   4.078   0.852  0.2295 -0.1817 -0.0668
 6012SOL     OW21533   1.801  10.377   3.328  0.0373  0.2325  0.1743
 6012SOL    HW121534   1.804  10.344   3.418  1.5505 -0.3456 -0.0706
 6012SOL    HW221535   1.796  10.299   3.273 -0.9348  0.5831 -0.2629
 6013SOL     OW21536   3.249   1.754   9.864 -0.2860 -0.4657 -0.5742
 6013SOL    HW121537   3.213   1.826   9.812  0.8037 -0.6359 -1.6424
 6013SOL    HW221538   3.300   1.796   9.933 -0.5460 -0.2207 -0.5338
 6014SOL     OW21539   6.985   0.306  10.359 -0.3079  0.6421  0.6479
 6014SOL    HW121540   7.070   0.281  10.323 -0.9289  0.0240 -0.4729
 6014SOL    HW221541   6.951   0.371  10.298 -0.7923  0.6143  0.8812
 6015SOL     OW21542   8.227   1.295   5.774 -0.2979 -0.2666 -0.1031
 6015SOL    HW121543   8.153   1.273   5.830  0.0747  1.4098  1.1305
 6015SOL    HW221544   8.226   1.391   5.769  1.8871 -0.1742  0.1156
 6016SOL     OW21545   0.108   3.224   3.490 -0.2543 -0.4078 -0.0102
 6016SOL    HW121546   0.107   3.215   3.585  2.3838 -0.1116  0.1241
 6016SOL    HW221547   0.101   3.318   3.475  0.7113 -0.3360 -0.0322
 6017SOL     OW21548   9.157   6.684  10.004  0.1391 -0.2012 -0.0935
 6017SOL    HW121549   9.102   6.605   9.998 -0.8250  0.4115  0.4367
 6017SOL    HW221550   9.136   6.721  10.089  0.7680  0.5050 -0.2438
 6018SOL     OW21551  10.579   5.410   4.058  0.1128 -0.3581  0.7687
 6018SOL    HW121552  10.655   5.373   4.013 -2.0076 -2.2192 -1.5161
 6018SOL    HW221553  10.607   5.417   4.150  3.3441  0.0506 -0.1033
 6019SOL     OW21554   8.475   9.882   6.577 -0.2918  0.4346 -0.4229
 6019SOL    HW121555   8.560   9.887   6.533 -0.1310 -1.0007 -0.3099
 6019SOL    HW221556   8.434   9.967   6.559  1.3454  1.3381 -0.0855
 6020SOL     OW21557   8.324   4.429   7.049  0.4119 -0.0157 -0.2106
 6020SOL    HW121558   8.414   4.429   7.017  0.1059 -0.4528 -1.1164
 6020SOL    HW221559   8.305   4.337   7.065  0.3403  0.1418  0.6190
 6021SOL     OW21560   7.966   0.820   3.351 -0.2368  0.5554  0.3766
 6021SOL    HW121561   7.940   0.820   3.259  2.1162  1.0689 -0.3751
 6021SOL    HW221562   7.884   0.822   3.400 -1.6358  4.0851 -1.7254
 6022SOL     OW21563   9.700   3.935  10.452 -0.0562 -0.0631 -0.3133
 6022SOL    HW121564   9.673   4.020  10.487  1.2376 -0.7519  2.6603
 6022SOL    HW221565   9.793   3.946  10.433 -0.4290 -0.1350 -2.4422
 6023SOL     OW21566   0.700   8.435   8.499 -0.0454 -0.7413  0.0742
 6023SOL    HW121567   0.672   8.448   8.409 -0.9089  0.2118  0.4672
 6023SOL    HW221568   0.622   8.404   8.544 -0.0214  0.2364  0.8100
 6024SOL     OW21569   4.220   9.672   1.180  0.5871 -0.5303 -0.0723
 6024SOL    HW121570   4.185   9.627   1.103 -0.2254  0.8443 -0.5324
 6024SOL    HW221571   4.146   9.721   1.215  1.3811  0.2185  0.5845
 6025SOL     OW21572  10.497   3.558  10.297 -0.6865 -0.3158  0.3097
 6025SOL    HW121573  10.543   3.598  10.223 -1.4490 -0.2517 -0.1471
 6025SOL    HW221574  10.491   3.629  10.362 -0.9439 -0.0547  0.0035
 6026SOL     OW21575   2.819   6.483   7.483  0.9505  0.3497  0.0437
 6026SOL    HW121576   2.876   6.441   7.549  1.0764  1.5509  0.7292
 6026SOL    HW221577   2.744   6.515   7.533  0.9575  1.1216 -0.4264
 6027SOL     OW21578   7.885   8.450   8.365 -0.3594 -0.2388  0.0014
 6027SOL    HW121579   7.796   8.458   8.333 -1.0163  1.7689  2.0028
 6027SOL    HW221580   7.876   8.408   8.451  0.2951  1.7583  1.1260
 6028SOL     OW21581   7.513   6.648   0.616 -0.1516 -0.3582 -0.1541
 6028SOL    HW121582   7.459   6.728   0.616 -0.3562 -0.4929 -0.5223
 6028SOL    HW221583   7.595   6.675   0.576 -0.6643 -0.6096 -1.4457
 6029SOL     OW21584   3.208   0.399   6.625  0.1830  0.2847  0.0708
 6029SOL    HW121585   3.188   0.306   6.636  0.6014  0.3026  1.1915
 6029SOL    HW221586   3.287   0.400   6.571  1.3674 -0.1525  1.6899
 6030SOL     OW21587   4.780   4.112   3.674 -0.5618  0.3638 -0.5083
 6030SOL    HW121588   4.823   4.197   3.670  0.1472  0.1211  1.2706
 6030SOL    HW221589   4.836   4.059   3.730 -1.9057 -0.7288 -0.1351
 6031SOL     OW21590   6.119   6.080   0.951 -0.1868 -0.1975 -0.0984
 6031SOL    HW121591   6.122   5.993   0.911 -1.4989  0.4398 -1.6544
 6031SOL    HW221592   6.048   6.075   1.015  0.1517 -0.4170  0.2748
 6032SOL     OW21593   7.651   2.808   9.113 -0.0139 -0.2198 -0.0778
 6032SOL    HW121594   7.712   2.873   9.147 -2.1641  0.7883  2.1088
 6032SOL    HW221595   7.615   2.848   9.034  0.9133 -0.1444 -0.4842
 6033SOL     OW21596   2.472   2.835   4.019 -0.1510 -0.2866 -0.3624
 6033SOL    HW121597   2.434   2.911   3.975 -0.5146  1.5582  2.8424
 6033SOL    HW221598   2.537   2.871   4.079  0.3866 -2.5933  0.5629
 6034SOL     OW21599   5.854   8.967  10.876  0.4890 -0.3477 -0.0628
 6034SOL    HW121600   5.907   9.038  10.913  2.7283 -0.4322 -2.8187
 6034SOL    HW221601   5.823   8.919  10.953  2.3423  1.1996  1.7732
 6035SOL     OW21602   1.861   5.938   4.299  0.3674 -0.1634  0.0108
 6035SOL    HW121603   1.835   6.018   4.254  0.1453 -0.0405  0.3545
 6035SOL    HW221604   1.788   5.918   4.358  0.2627 -0.8175 -0.3276
 6036SOL     OW21605   5.492   3.209   1.637 -0.1899 -0.1898  0.7395
 6036SOL    HW121606   5.423   3.179   1.696 -0.6938  0.5082  0.5275
 6036SOL    HW221607   5.527   3.288   1.678 -0.6190  0.3637  0.0649
 6037SOL     OW21608   5.282   6.735  10.706  0.5764 -0.2281 -0.2194
 6037SOL    HW121609   5.299   6.747  10.613  0.7605  1.2787 -0.0237
 6037SOL    HW221610   5.367   6.711  10.743  1.0097  1.2541 -0.1604
 6038SOL     OW21611   5.500   3.237   5.111  0.3589 -0.0430  0.5251
 6038SOL    HW121612   5.406   3.248   5.123  0.4446 -0.5046  1.6896
 6038SOL    HW221613   5.517   3.270   5.022 -0.7528  0.8711  0.6356
 6039SOL     OW21614   7.379  10.868   3.998 -0.6338 -0.4376 -0.1552
 6039SOL    HW121615   7.447  10.805   3.976  0.5169  0.6895  0.0911
 6039SOL    HW221616   7.371  10.863   4.093 -0.1708  0.1494 -0.0820
 6040SOL     OW21617   1.622   9.554   7.627  0.3656 -1.2534  0.4524
 6040SOL    HW121618   1.700   9.501   7.647  1.2461  0.4262  1.8320
 6040SOL    HW221619   1.643   9.598   7.545  1.5713  0.2457  1.4787
 6041SOL     OW21620   7.389   8.309   9.732 -0.0079 -0.2130 -0.4247
 6041SOL    HW121621   7.349   8.326   9.818 -0.3872 -0.5612 -0.5300
 6041SOL    HW221622   7.443   8.387   9.715 -1.0105  0.4951 -0.4880
 6042SOL     OW21623  10.595   8.735  10.997 -0.2122 -0.1032  0.2368
 6042SOL    HW121624  10.559   8.819  10.968  1.2317  0.7242  0.7697
 6042SOL    HW221625  10.676   8.757  11.042  0.5337 -1.8444 -0.1620
 6043SOL     OW21626   3.781   8.270   6.358 -0.0900  0.4682  0.0160
 6043SOL    HW121627   3.701   8.220   6.373 -0.2096  0.4727 -0.5788
 6043SOL    HW221628   3.753   8.361   6.360  0.2328  0.5711  1.7429
 6044SOL     OW21629   8.276   8.626   3.624  0.0840  0.2708 -0.3946
 6044SOL    HW121630   8.366   8.648   3.598  0.1513  0.5047  0.0127
 6044SOL    HW221631   8.250   8.699   3.680  0.6511 -1.0938  1.8003
 6045SOL     OW21632   2.623   9.758   3.374  0.1573  0.0295 -0.4043
 6045SOL    HW121633   2.623   9.787   3.465  1.0688  0.0294 -0.3934
 6045SOL    HW221634   2.530   9.743   3.353 -0.0836  0.3343  0.4187
 6046SOL     OW21635   1.733   6.331   8.185  0.4804  0.1225 -0.4062
 6046SOL    HW121636   1.681   6.264   8.140  1.3993 -0.2118 -0.9940
 6046SOL    HW221637   1.738   6.300   8.276  3.2473 -2.1496 -1.2063
 6047SOL     OW21638   0.490   0.797   5.970  0.4339 -0.2699 -0.7845
 6047SOL    HW121639   0.506   0.803   6.064 -1.2409 -0.0817 -0.4805
 6047SOL    HW221640   0.450   0.881   5.947  0.0535 -0.6321 -1.4874
 6048SOL     OW21641   6.313   5.443   0.481 -0.5485 -0.0561  0.6457
 6048SOL    HW121642   6.245   5.431   0.548  1.0887  2.9695  3.0635
 6048SOL    HW221643   6.336   5.535   0.485  1.0615 -0.1210 -2.8529
 6049SOL     OW21644   6.162  10.580   1.155  0.0311 -0.1271 -0.3017
 6049SOL    HW121645   6.175  10.491   1.187  0.0470  0.0158  0.0884
 6049SOL    HW221646   6.179  10.574   1.061 -0.2003 -0.5829 -0.3186
 6050SOL     OW21647   5.231   4.495   0.684 -0.7389 -0.3189 -0.3156
 6050SOL    HW121648   5.208   4.546   0.606 -0.7011  1.4471  0.7766
 6050SOL    HW221649   5.155   4.438   0.698 -0.0966 -1.8417 -2.5065
 6051SOL     OW21650   4.034   9.803   8.940  0.6690 -0.2914  0.0690
 6051SOL    HW121651   4.100   9.864   8.908  1.2870 -1.3678 -0.7647
 6051SOL    HW221652   4.076   9.718   8.936  0.3005 -0.6725  2.4918
 6052SOL     OW21653   1.477   8.797   8.112 -0.2834 -0.2635  0.2107
 6052SOL    HW121654   1.449   8.741   8.039 -0.7028  1.7255 -1.2250
 6052SOL    HW221655   1.401   8.800   8.169 -0.2504 -1.1479  0.3227
 6053SOL     OW21656   0.907   2.205   0.632 -0.1882 -0.0621 -0.2103
 6053SOL    HW121657   0.870   2.125   0.597  0.4466 -0.6754  0.4691
 6053SOL    HW221658   0.929   2.183   0.723 -0.0587  0.8984  0.0011
 6054SOL     OW21659   1.152   6.773   8.593 -0.0041  0.4036 -0.9890
 6054SOL    HW121660   1.069   6.795   8.550 -0.1414  0.6925 -0.5751
 6054SOL    HW221661   1.199   6.719   8.528 -0.5168  0.2296 -1.2169
 6055SOL     OW21662   6.490   6.376   4.341 -0.2328 -0.0368  0.3914
 6055SOL    HW121663   6.534   6.461   4.350 -0.7154  0.0845  2.1622
 6055SOL    HW221664   6.453   6.377   4.253  0.0682  1.4637  0.2530
 6056SOL     OW21665   6.108   3.612   9.226  0.2750 -0.2965  0.1960
 6056SOL    HW121666   6.065   3.676   9.170  0.0112 -0.1311  0.5819
 6056SOL    HW221667   6.088   3.527   9.186 -1.1969 -0.2994  0.8597
 6057SOL     OW21668   3.226  10.827   6.282 -0.0643 -0.1149 -0.0132
 6057SOL    HW121669   3.161  10.857   6.345  0.5687 -0.7372  0.9718
 6057SOL    HW221670   3.180  10.826   6.198 -1.1789 -0.0790  0.5787
 6058SOL     OW21671   6.123   8.053   9.183 -0.3326  0.0739  0.0962
 6058SOL    HW121672   6.091   8.140   9.162  1.1492  0.2056 -1.9667
 6058SOL    HW221673   6.089   7.997   9.113  0.7479 -0.4883 -0.0019
 6059SOL     OW21674   7.007   4.370   7.751 -0.0277  0.1863  0.4371
 6059SOL    HW121675   6.930   4.317   7.730 -0.9736  1.2561  1.0215
 6059SOL    HW221676   7.062   4.365   7.673  0.1610 -2.0000  0.6437
 6060SOL     OW21677   1.019   4.266   9.144 -0.2172 -0.4781  0.0828
 6060SOL    HW121678   1.073   4.345   9.137  1.6668 -1.4586  2.3625
 6060SOL    HW221679   1.065   4.200   9.092 -0.2680 -0.8062  0.4465
 6061SOL     OW21680  10.027   5.494   1.313  0.1742 -0.0717 -0.9539
 6061SOL    HW121681   9.950   5.460   1.360  1.6278 -1.1110  0.7709
 6061SOL    HW221682  10.053   5.571   1.363  1.8118 -1.2620  0.1347
 6062SOL     OW21683   3.170   0.853   8.086 -0.2517  0.2989  0.9405
 6062SOL    HW121684   3.213   0.776   8.050 -1.1068  0.1073  0.3076
 6062SOL    HW221685   3.093   0.819   8.131 -1.2253  0.8492 -0.2496
 6063SOL     OW21686   0.713   2.020   2.050  0.4320 -0.1767 -0.7238
 6063SOL    HW121687   0.747   2.069   2.125  0.7243 -1.1704 -0.1866
 6063SOL    HW221688   0.709   2.084   1.979  1.6792  0.4020 -0.2918
 6064SOL     OW21689   7.417  10.351   2.025 -0.0425  0.1515 -0.4167
 6064SOL    HW121690   7.415  10.330   1.932 -0.0904  0.3223 -0.4559
 6064SOL    HW221691   7.388  10.442   2.029  0.2586  0.2425 -0.2642
 6065SOL     OW21692   9.698  10.224   0.840  0.4429 -0.2063 -0.7321
 6065SOL    HW121693   9.740  10.215   0.925  0.0779  1.6903 -0.3151
 6065SOL    HW221694   9.622  10.166   0.844 -0.9175  1.5597  1.1628
 6066SOL     OW21695   2.555   1.533   0.138 -0.0513 -0.0221 -0.6375
 6066SOL    HW121696   2.613   1.604   0.166  1.7255 -1.3037 -0.9207
 6066SOL    HW221697   2.479   1.539   0.196  0.4603  1.5503 -0.0830
 6067SOL     OW21698   2.034   4.259  10.443  0.0345 -0.6248  0.5693
 6067SOL    HW121699   2.079   4.225  10.520  0.9397 -0.8313 -0.0389
 6067SOL    HW221700   2.095   4.244  10.371  0.2674  1.8439  0.1889
 6068SOL     OW21701   7.382   6.677   5.699  0.6184  0.0479  0.5526
 6068SOL    HW121702   7.333   6.676   5.616  1.4313  0.2181  0.0642
 6068SOL    HW221703   7.358   6.760   5.739 -1.6313 -1.0398  1.6392
 6069SOL     OW21704   4.604   1.887   4.974  0.0194  0.0847  0.4890
 6069SOL    HW121705   4.596   1.839   4.892 -0.0241 -0.3809  0.7622
 6069SOL    HW221706   4.697   1.906   4.982 -0.1776  1.6801 -0.5309
 6070SOL     OW21707   0.110   5.761   4.665  0.1974  0.2608 -0.3374
 6070SOL    HW121708   0.126   5.855   4.657  2.1524 -0.0819 -1.0124
 6070SOL    HW221709   0.111   5.745   4.759  1.9354  0.6303 -0.2582
 6071SOL     OW21710   4.547   2.228   5.773 -0.1954  0.4285  0.3211
 6071SOL    HW121711   4.593   2.276   5.842  0.6019  0.8185 -0.4587
 6071SOL    HW221712   4.456   2.255   5.781  0.1333  1.5805  0.3142
 6072SOL     OW21713   7.315   7.127   3.153 -0.1276  0.3224 -0.6425
 6072SOL    HW121714   7.238   7.178   3.129 -0.6299  0.4753  1.0996
 6072SOL    HW221715   7.323   7.061   3.084 -0.6183  1.5486 -1.9079
 6073SOL     OW21716   2.151   8.688  10.858 -0.6488  0.8813  0.1880
 6073SOL    HW121717   2.162   8.708  10.765 -0.8639 -0.8217 -0.2267
 6073SOL    HW221718   2.065   8.646  10.863 -0.6818  1.0472  1.1895
 6074SOL     OW21719   4.695   4.551   5.445 -0.3191  0.1566 -0.8716
 6074SOL    HW121720   4.718   4.458   5.435 -3.6333 -0.7770 -0.8899
 6074SOL    HW221721   4.693   4.585   5.355  0.2864  0.0909 -0.9138
 6075SOL     OW21722   7.177   0.460  10.690  0.1858  0.4434  0.1056
 6075SOL    HW121723   7.207   0.410  10.614 -0.2992  2.2302 -1.3175
 6075SOL    HW221724   7.180   0.397  10.762 -1.2960 -1.9328 -1.7432
 6076SOL     OW21725   4.219   2.272   4.129 -0.4095 -0.1553 -0.5086
 6076SOL    HW121726   4.235   2.200   4.068 -3.0977 -0.5186 -0.9258
 6076SOL    HW221727   4.227   2.233   4.216  0.9772 -0.2206 -0.6393
 6077SOL     OW21728   1.046   6.963   9.887  0.5005 -0.3076 -0.4078
 6077SOL    HW121729   1.119   7.017   9.918  0.7221 -0.7559 -0.1391
 6077SOL    HW221730   1.006   6.929   9.968 -0.5200  0.5999 -0.5076
 6078SOL     OW21731   0.840   5.220   2.873  0.1948 -0.2919  0.3520
 6078SOL    HW121732   0.927   5.190   2.846  0.9201  2.1691 -0.2735
 6078SOL    HW221733   0.853   5.256   2.960 -0.6150 -1.4863  1.0039
 6079SOL     OW21734   3.821   3.210   1.152 -0.5704  0.0504 -0.0147
 6079SOL    HW121735   3.767   3.143   1.110 -0.7715 -0.9996  1.8041
 6079SOL    HW221736   3.767   3.243   1.224  0.5554  0.2020  0.7901
 6080SOL     OW21737   9.611   4.121   4.284  0.1756 -0.0078  0.1146
 6080SOL    HW121738   9.546   4.187   4.259  1.6514  1.9385  1.0232
 6080SOL    HW221739   9.623   4.068   4.206  0.8708  2.5420 -1.6555
 6081SOL     OW21740  10.191   0.528   5.733 -0.0598 -0.1747 -0.1147
 6081SOL    HW121741  10.145   0.444   5.728  2.1817 -1.8788  3.6693
 6081SOL    HW221742  10.278   0.510   5.698 -0.7201  1.9423 -3.3737
 6082SOL     OW21743   5.306   6.200   4.279 -0.6174 -0.3948  0.4169
 6082SOL    HW121744   5.287   6.166   4.366 -0.8785 -1.4559 -0.0391
 6082SOL    HW221745   5.242   6.157   4.222 -0.1200 -0.1030 -0.3757
 6083SOL     OW21746   6.820   2.516   1.426 -0.5444  0.7216  0.5486
 6083SOL    HW121747   6.764   2.444   1.396  1.2333 -0.1451 -0.8862
 6083SOL    HW221748   6.808   2.584   1.360 -0.3708  0.7715  0.5680
 6084SOL     OW21749   9.659   0.633   4.164 -0.2442  0.0485  0.5809
 6084SOL    HW121750   9.726   0.595   4.221  0.8963 -1.1485 -1.4800
 6084SOL    HW221751   9.577   0.593   4.195  0.5427 -1.7394  0.4721
 6085SOL     OW21752   1.620   4.718   7.025  0.1975  0.5303 -0.2878
 6085SOL    HW121753   1.673   4.638   7.038  1.6573  1.1088 -2.1007
 6085SOL    HW221754   1.566   4.697   6.949 -0.1011  0.9527 -0.1898
 6086SOL     OW21755   3.556   2.200   2.284  0.2683 -0.0271  0.1916
 6086SOL    HW121756   3.462   2.181   2.287  0.7181 -2.5894  1.3456
 6086SOL    HW221757   3.596   2.117   2.257  2.3193  0.2785  1.9904
 6087SOL     OW21758   3.882   7.441   9.657 -0.2351  0.4373 -0.2319
 6087SOL    HW121759   3.956   7.472   9.604  0.5551 -0.0409  0.5584
 6087SOL    HW221760   3.830   7.387   9.597 -1.0601  2.3550 -1.3481
 6088SOL     OW21761   8.429   0.420   3.327 -0.3120  0.0285  0.2045
 6088SOL    HW121762   8.414   0.499   3.379 -0.2389 -0.3969  0.8820
 6088SOL    HW221763   8.512   0.437   3.282 -0.5786  0.5647 -0.0968
 6089SOL     OW21764   5.036   8.092   7.753 -0.3544  0.3813 -0.7728
 6089SOL    HW121765   4.999   8.172   7.715 -1.8563 -0.2141 -0.6033
 6089SOL    HW221766   5.012   8.096   7.845 -0.5427 -0.3276 -0.7873
 6090SOL     OW21767   2.666   5.254   0.104 -0.0920  0.0951  0.4210
 6090SOL    HW121768   2.608   5.289   0.172 -1.0695  2.8510 -1.6446
 6090SOL    HW221769   2.622   5.175   0.075 -0.5813 -0.1645  1.7691
 6091SOL     OW21770  10.090   6.282   1.832  0.1130  0.0249 -0.0879
 6091SOL    HW121771  10.012   6.260   1.883  0.3127  1.5195  0.9257
 6091SOL    HW221772  10.057   6.341   1.764  0.6378  2.9295  1.9777
 6092SOL     OW21773   0.051   0.986   1.467  0.3169 -0.3049  0.4100
 6092SOL    HW121774   0.040   0.911   1.526  2.7489 -0.6019  0.5986
 6092SOL    HW221775   0.043   1.063   1.523 -1.5204 -0.4033  0.3350
 6093SOL     OW21776   8.746   0.395   3.658 -0.5286 -0.2547  0.4557
 6093SOL    HW121777   8.699   0.464   3.613  1.2691 -0.2593 -1.6046
 6093SOL    HW221778   8.725   0.407   3.751 -1.7542  1.8231 -0.0424
 6094SOL     OW21779   4.299  10.448   6.602  0.0652  0.6373 -0.2785
 6094SOL    HW121780   4.375  10.391   6.617 -0.7041 -0.3778 -0.1112
 6094SOL    HW221781   4.336  10.528   6.564  1.1578 -0.0334 -0.6774
 6095SOL     OW21782   7.405   1.360   3.812 -0.5426  0.1090  0.0267
 6095SOL    HW121783   7.311   1.347   3.827 -0.3889  0.7717  1.7984
 6095SOL    HW221784   7.410   1.412   3.732 -1.7040  0.4772  0.1781
 6096SOL     OW21785   1.560   6.764   8.373  0.0251  0.1785 -0.1145
 6096SOL    HW121786   1.573   6.715   8.454  1.6291 -0.0774 -0.4864
 6096SOL    HW221787   1.553   6.855   8.401 -0.0143  0.0332  0.3564
 6097SOL     OW21788  10.845   8.682  10.700  0.3296 -0.5441 -0.1091
 6097SOL    HW121789  10.751   8.667  10.704  0.4287 -0.9484  1.3360
 6097SOL    HW221790  10.880   8.601  10.663  0.1030 -0.3302 -0.8012
 6098SOL     OW21791   3.801   6.587   8.650 -0.0825  0.3727 -0.0874
 6098SOL    HW121792   3.792   6.493   8.635  1.8849  0.1623 -0.2145
 6098SOL    HW221793   3.828   6.594   8.741 -0.8753  0.8921  0.1242
 6099SOL     OW21794   7.828   4.169   8.226  0.0127 -0.1266 -0.5969
 6099SOL    HW121795   7.918   4.141   8.215 -0.2400 -1.3069  0.1714
 6099SOL    HW221796   7.825   4.256   8.186  1.6254  0.1959 -0.0943
 6100SOL     OW21797   0.673   1.838  10.631  0.0958  0.6901  0.0256
 6100SOL    HW121798   0.741   1.900  10.658 -1.2934  1.9241  0.8219
 6100SOL    HW221799   0.597   1.862  10.683 -1.9929  1.5410 -3.1313
 6101SOL     OW21800   5.203   5.481   2.080 -0.2957 -0.6600  0.7819
 6101SOL    HW121801   5.216   5.528   2.162  0.5070  0.1232  0.2128
 6101SOL    HW221802   5.291   5.470   2.043 -0.6874 -0.5176 -0.2395
 6102SOL     OW21803   8.610  10.457   5.968 -0.2755 -0.5537  0.0764
 6102SOL    HW121804   8.520  10.455   5.935 -0.4244  0.4843  0.4019
 6102SOL    HW221805   8.611  10.390   6.036 -1.0242 -0.0621  0.5951
 6103SOL     OW21806   9.532   9.750   6.343  0.7632 -0.6902  0.7627
 6103SOL    HW121807   9.495   9.671   6.305  0.1988 -0.4841  0.8760
 6103SOL    HW221808   9.481   9.764   6.423  0.0139  0.4803  0.1091
 6104SOL     OW21809   4.726   7.130   8.763 -0.1588 -0.4944  0.1027
 6104SOL    HW121810   4.792   7.132   8.694 -0.3583  0.4692 -0.0761
 6104SOL    HW221811   4.651   7.087   8.724 -0.0600 -0.4906 -0.0919
 6105SOL     OW21812   9.562   1.961   4.249  0.1153 -0.5467 -0.1541
 6105SOL    HW121813   9.588   2.041   4.296  0.2208  0.1969 -1.4134
 6105SOL    HW221814   9.616   1.892   4.286 -0.3094 -0.1250  1.2918
 6106SOL     OW21815   1.420  10.783   2.344 -0.5000 -0.1865  0.2176
 6106SOL    HW121816   1.434  10.715   2.278 -2.0501  0.1516 -0.4859
 6106SOL    HW221817   1.507  10.798   2.381  0.3173 -0.7097 -1.4138
 6107SOL     OW21818  10.242   4.409   7.646  0.2871  0.0970 -0.1924
 6107SOL    HW121819  10.222   4.344   7.579  0.2609  0.4182 -0.4970
 6107SOL    HW221820  10.299   4.362   7.708  0.8661 -0.0037 -0.7931
 6108SOL     OW21821   2.475   6.728   3.468 -0.2418  0.0786 -0.6636
 6108SOL    HW121822   2.518   6.752   3.386  1.0214 -2.1490 -0.7259
 6108SOL    HW221823   2.396   6.782   3.471  1.4910  2.8283 -1.5567
 6109SOL     OW21824   4.167   8.532   3.688 -0.7186  0.1090  0.3006
 6109SOL    HW121825   4.243   8.573   3.648 -0.1233 -0.3706  0.9029
 6109SOL    HW221826   4.091   8.575   3.648 -0.1269  1.0230  0.1457
 6110SOL     OW21827   1.439  10.470   0.917  0.6360  0.0181 -0.5508
 6110SOL    HW121828   1.510  10.443   0.975  1.8677  0.0269 -1.9911
 6110SOL    HW221829   1.360  10.436   0.958  1.2794  1.2656  1.8540
 6111SOL     OW21830   2.155   8.235   6.171 -0.1872 -0.3704 -0.3193
 6111SOL    HW121831   2.110   8.289   6.236 -1.0447 -2.6076  1.0655
 6111SOL    HW221832   2.218   8.184   6.221  1.0934 -0.2239 -1.6830
 6112SOL     OW21833   8.967   7.482   6.709  0.1292  0.4566  0.0354
 6112SOL    HW121834   9.028   7.555   6.726  0.3852 -0.0140  1.2095
 6112SOL    HW221835   8.883   7.513   6.741  0.1275  0.4450  0.0438
 6113SOL     OW21836   3.333   5.951  10.837  0.1711 -0.3589  0.2505
 6113SOL    HW121837   3.326   6.002  10.918 -1.4090  0.4474 -0.3747
 6113SOL    HW221838   3.402   5.887  10.856 -0.9985 -1.0021  2.6830
 6114SOL     OW21839   7.989   8.687   9.184 -0.1256 -0.1407  0.4503
 6114SOL    HW121840   7.996   8.605   9.233 -0.1661 -0.4192 -0.0092
 6114SOL    HW221841   8.079   8.706   9.156 -0.1336 -0.0792  0.4632
 6115SOL     OW21842   5.342  10.695   0.645 -0.3416  0.0653 -0.9636
 6115SOL    HW121843   5.372  10.609   0.617  0.4637  0.3429 -0.9865
 6115SOL    HW221844   5.275  10.677   0.711 -0.0453 -0.5762 -0.8276
 6116SOL     OW21845   4.952   1.585   5.085  0.4206  0.2183  0.6712
 6116SOL    HW121846   4.941   1.522   5.013 -0.0778  1.1044 -0.0571
 6116SOL    HW221847   5.024   1.641   5.056  0.5084  0.3112  1.0701
 6117SOL     OW21848   7.611   5.771   1.975 -0.0346 -0.2423 -0.6993
 6117SOL    HW121849   7.695   5.729   1.955  0.4028  0.4269 -0.3173
 6117SOL    HW221850   7.555   5.699   2.004  0.0423 -0.8750 -2.0375
 6118SOL     OW21851   1.709   9.166   6.078  0.0428  0.3622 -0.2674
 6118SOL    HW121852   1.791   9.138   6.119  0.1448  0.5853 -0.3205
 6118SOL    HW221853   1.672   9.229   6.140 -0.0791  0.2788 -0.2543
 6119SOL     OW21854   7.699   9.703   7.141  0.5937  0.2862 -0.4643
 6119SOL    HW121855   7.617   9.669   7.105  0.1720 -0.1489  0.8453
 6119SOL    HW221856   7.755   9.716   7.065 -0.8411  1.0422 -1.4484
 6120SOL     OW21857   4.316  10.552   4.686 -0.3573 -0.3690 -0.0515
 6120SOL    HW121858   4.243  10.571   4.745  1.6048  0.9197  2.1094
 6120SOL    HW221859   4.361  10.636   4.675  1.5199 -1.3659 -0.3206
 6121SOL     OW21860   6.839   4.875   8.086  0.1692 -0.0909 -0.1132
 6121SOL    HW121861   6.854   4.799   8.142  0.4411 -0.0995 -0.1944
 6121SOL    HW221862   6.926   4.898   8.054 -0.0381 -0.3450 -0.8784
 6122SOL     OW21863   0.672   0.091   6.029 -0.3349 -0.0422 -0.2674
 6122SOL    HW121864   0.585   0.078   5.990 -0.9420  0.5495  0.8356
 6122SOL    HW221865   0.731   0.103   5.955 -1.5438  1.6060 -1.0185
 6123SOL     OW21866   5.712   1.208   8.338  0.5854  0.6351  0.2795
 6123SOL    HW121867   5.641   1.236   8.280  0.8209  2.1984  0.7020
 6123SOL    HW221868   5.785   1.187   8.280  0.4500  1.0664 -0.0503
 6124SOL     OW21869   5.810   3.536   3.161  0.0124  0.2950 -0.2280
 6124SOL    HW121870   5.812   3.629   3.186  2.2518  0.2264  0.0158
 6124SOL    HW221871   5.896   3.519   3.124 -0.8428 -1.3794 -1.5811
 6125SOL     OW21872  10.122   0.068   8.901  0.5186 -0.1619 -0.3358
 6125SOL    HW121873  10.194   0.110   8.949 -1.1747  0.8028  1.5054
 6125SOL    HW221874  10.072   0.022   8.969  0.4360 -2.4634 -1.8397
 6126SOL     OW21875   1.135  10.268   7.616  0.5905 -0.2456 -0.0607
 6126SOL    HW121876   1.042  10.254   7.596  1.0399 -0.8042 -1.9776
 6126SOL    HW221877   1.141  10.363   7.630 -0.1912 -0.1214 -0.4510
 6127SOL     OW21878   3.102   0.256   8.460  0.3606 -0.0314  0.5845
 6127SOL    HW121879   3.163   0.301   8.402  0.2331  0.9416  1.1803
 6127SOL    HW221880   3.017   0.295   8.442  0.1822 -0.2768  0.8768
 6128SOL     OW21881   3.792   4.504   1.984  0.2771 -0.0606 -0.4662
 6128SOL    HW121882   3.877   4.527   2.024  0.3136  0.1398 -0.6609
 6128SOL    HW221883   3.741   4.585   1.988 -0.0699 -0.2963  0.0601
 6129SOL     OW21884   7.795   8.964   1.267 -0.4357 -0.2600 -0.4008
 6129SOL    HW121885   7.779   9.052   1.233  1.1670  0.2065 -0.0666
 6129SOL    HW221886   7.871   8.933   1.217  1.0969 -0.1165  1.7101
 6130SOL     OW21887   6.880   6.857   8.239 -0.0918  0.0331 -0.2039
 6130SOL    HW121888   6.789   6.826   8.237 -0.3630  0.4160  2.7610
 6130SOL    HW221889   6.874   6.949   8.265  1.1298  0.2453 -0.6016
 6131SOL     OW21890  10.059   3.201   9.010 -0.0655 -0.2385  0.8784
 6131SOL    HW121891  10.003   3.271   8.975 -0.6827 -1.0819  0.1312
 6131SOL    HW221892  10.140   3.208   8.959 -0.4625 -0.6203  0.1799
 6132SOL     OW21893   5.577   1.782   2.276 -0.3616 -0.1422  0.3512
 6132SOL    HW121894   5.656   1.739   2.309 -0.3309 -0.0766  0.3652
 6132SOL    HW221895   5.505   1.736   2.318 -0.3292 -0.1738  0.3731
 6133SOL     OW21896   1.785   4.399   0.094  0.2562 -0.3663 -0.1013
 6133SOL    HW121897   1.741   4.319   0.123  1.5594 -0.4316  1.7951
 6133SOL    HW221898   1.878   4.379   0.099  0.5827  0.6688 -1.4547
 6134SOL     OW21899   5.879   8.638  10.644  0.0334 -0.2896  0.2497
 6134SOL    HW121900   5.809   8.637  10.710 -1.7453 -0.6420 -1.5218
 6134SOL    HW221901   5.891   8.546  10.620  1.8497 -0.3338  1.2229
 6135SOL     OW21902   6.125   7.897   8.105  0.1253 -0.0806  0.2490
 6135SOL    HW121903   6.162   7.873   8.020 -1.5808 -1.3194 -0.1828
 6135SOL    HW221904   6.117   7.814   8.152  0.4704  0.5189  1.4084
 6136SOL     OW21905   8.847   3.036   4.371  0.2589 -0.3066 -0.3941
 6136SOL    HW121906   8.764   3.037   4.420  0.3883  3.5182  0.0507
 6136SOL    HW221907   8.914   3.031   4.438  0.3961  0.7202 -0.4434
 6137SOL     OW21908   7.871   1.420   0.510 -0.1038 -0.0441  0.0233
 6137SOL    HW121909   7.932   1.358   0.550 -0.9649  0.1178  1.6609
 6137SOL    HW221910   7.833   1.468   0.584 -2.3848 -0.2969 -0.9097
 6138SOL     OW21911   2.632   9.211  10.751  0.2757  0.2208 -0.0256
 6138SOL    HW121912   2.678   9.290  10.780 -0.7174  0.1793  1.8630
 6138SOL    HW221913   2.589   9.178  10.831 -0.3242 -1.5491 -1.0220
 6139SOL     OW21914   1.700   5.823   8.105 -0.4514  0.1090 -0.0373
 6139SOL    HW121915   1.662   5.748   8.060 -1.2490  0.1097  0.6063
 6139SOL    HW221916   1.687   5.803   8.198 -1.1818  1.3012  0.1261
 6140SOL     OW21917   4.924   9.886   5.413 -0.9062 -0.3675 -0.5620
 6140SOL    HW121918   4.884   9.802   5.435 -0.2557 -1.0029 -1.6745
 6140SOL    HW221919   5.011   9.882   5.454 -1.9792  1.1284  2.1069
 6141SOL     OW21920   9.091   7.334  10.210 -0.0856 -0.0479  0.0613
 6141SOL    HW121921   9.136   7.419  10.209 -0.6382  0.3092 -2.5289
 6141SOL    HW221922   9.147   7.277  10.158 -1.1741 -0.3912 -0.7756
 6142SOL     OW21923   2.103   2.664   4.555  0.4511  0.3195  0.2383
 6142SOL    HW121924   2.178   2.724   4.547  1.0994 -0.4444  0.4651
 6142SOL    HW221925   2.042   2.692   4.487  0.1841  2.0218  1.1177
 6143SOL     OW21926   4.498   9.953   1.930  0.2252  0.0414 -0.5706
 6143SOL    HW121927   4.543   9.982   1.851 -0.1079 -1.6026 -1.4068
 6143SOL    HW221928   4.560   9.894   1.972  0.5179  1.1276  0.5910
 6144SOL     OW21929   1.746   7.615   2.728  0.2161  0.2326 -0.3681
 6144SOL    HW121930   1.800   7.537   2.739  0.0134  0.2426  0.7816
 6144SOL    HW221931   1.805   7.680   2.689  1.3926  0.6101  1.8902
 6145SOL     OW21932   1.308   7.036   4.080 -0.1988 -0.4207 -0.1207
 6145SOL    HW121933   1.370   7.021   4.009  0.5025 -1.2712  0.6518
 6145SOL    HW221934   1.223   7.015   4.043  0.1846 -1.0472 -0.6609
 6146SOL     OW21935   3.754   1.277   8.160  0.7150 -0.1386  0.0462
 6146SOL    HW121936   3.664   1.274   8.126  1.0383  1.6452 -1.0667
 6146SOL    HW221937   3.760   1.200   8.217 -1.8246  0.2174  0.9195
 6147SOL     OW21938   5.703   6.795   8.233 -0.0507  0.1682 -0.7118
 6147SOL    HW121939   5.767   6.758   8.171  0.5156  1.0269 -0.6560
 6147SOL    HW221940   5.755   6.853   8.289 -1.0125  1.5762 -1.2209
 6148SOL     OW21941  10.883   8.094   4.148 -0.0531 -0.6988  0.1516
 6148SOL    HW121942  10.810   8.131   4.097 -0.1861 -2.0869 -0.7289
 6148SOL    HW221943  10.961   8.115   4.097 -0.2863 -3.1039 -1.3604
 6149SOL     OW21944   6.593   7.926   4.735  0.3967  0.6565 -0.5295
 6149SOL    HW121945   6.664   7.903   4.795 -1.7432 -1.2753  1.4387
 6149SOL    HW221946   6.581   7.848   4.681 -0.3830  0.8781 -0.6888
 6150SOL     OW21947   4.446   8.605   4.758  0.0788 -0.2403  0.3978
 6150SOL    HW121948   4.507   8.553   4.812  0.1045 -1.0617 -0.3965
 6150SOL    HW221949   4.363   8.599   4.804  0.0657 -1.0596  0.2832
 6151SOL     OW21950   6.523   5.259   1.038 -0.6363 -0.0233  0.6845
 6151SOL    HW121951   6.441   5.306   1.026 -1.2968 -0.8619  1.8173
 6151SOL    HW221952   6.576   5.285   0.962 -1.2746  1.8801  0.8183
 6152SOL     OW21953   2.537   5.719   5.302  0.9317 -0.0791  0.0971
 6152SOL    HW121954   2.581   5.700   5.220 -0.3053  2.8505 -1.4080
 6152SOL    HW221955   2.599   5.772   5.352  0.4729  1.0972 -0.5274
 6153SOL     OW21956   7.470   8.255   2.126  0.2036 -0.3646  0.6676
 6153SOL    HW121957   7.456   8.177   2.071  0.7487  0.2590 -0.4002
 6153SOL    HW221958   7.523   8.313   2.071  0.8506  0.2557  1.9136
 6154SOL     OW21959   7.452   0.756   1.512  0.5315  0.0593  0.7534
 6154SOL    HW121960   7.530   0.807   1.492  1.3589 -1.0536  1.0610
 6154SOL    HW221961   7.389   0.821   1.545  0.4653  1.3387 -1.6752
 6155SOL     OW21962   0.434   0.087   3.985  0.7406 -0.5119 -0.6431
 6155SOL    HW121963   0.455   0.007   4.033  0.2204 -0.0436  0.4110
 6155SOL    HW221964   0.485   0.156   4.029 -0.8629  0.1795  0.2616
 6156SOL     OW21965   8.388   8.330   1.983 -0.2954 -0.1044 -0.0998
 6156SOL    HW121966   8.373   8.275   1.906  0.8839  0.1438 -0.5299
 6156SOL    HW221967   8.463   8.289   2.027  0.3762  0.9489 -0.2394
 6157SOL     OW21968   7.705   8.347   2.634  0.7411 -0.1620  0.3840
 6157SOL    HW121969   7.766   8.313   2.699  1.0335 -0.2209  0.0851
 6157SOL    HW221970   7.705   8.281   2.564 -0.3124 -0.5775  0.7587
 6158SOL     OW21971   4.195   8.400   3.367  0.0903 -0.2196  0.1988
 6158SOL    HW121972   4.246   8.364   3.439 -0.1547 -1.3412 -0.1655
 6158SOL    HW221973   4.261   8.429   3.303  0.3111  0.9234  0.9076
 6159SOL     OW21974   5.434  10.340   8.324 -0.0196 -0.0350 -0.5843
 6159SOL    HW121975   5.403  10.255   8.357 -0.6020  1.0910  1.9917
 6159SOL    HW221976   5.468  10.320   8.237 -0.7068 -2.7975 -0.3300
 6160SOL     OW21977   7.742   3.058   4.433 -0.5367  0.5224  0.2842
 6160SOL    HW121978   7.829   3.091   4.410  0.2678 -3.1158 -3.0263
 6160SOL    HW221979   7.749   3.034   4.525  0.7117  3.4770  1.0810
 6161SOL     OW21980   6.403   3.221   9.314 -0.1081  0.1095 -0.2043
 6161SOL    HW121981   6.473   3.283   9.334  0.2110 -0.1704 -0.4393
 6161SOL    HW221982   6.386   3.234   9.220 -0.7780  0.5861 -0.0289
 6162SOL     OW21983   5.340   5.631   0.821 -0.2697 -0.0017  0.1508
 6162SOL    HW121984   5.264   5.662   0.870  0.2007  3.3747 -1.0324
 6162SOL    HW221985   5.307   5.618   0.732  0.3121  0.4484 -0.1333
 6163SOL     OW21986   7.035   9.415   6.249  0.0398  0.1346 -0.1600
 6163SOL    HW121987   7.096   9.441   6.319  2.1546  0.0377 -1.8665
 6163SOL    HW221988   7.049   9.479   6.180 -0.6594 -0.8323 -1.2331
 6164SOL     OW21989   8.911   1.691  10.561  0.1470 -0.1328  0.1470
 6164SOL    HW121990   8.860   1.678  10.640 -1.2754 -1.8976 -0.9665
 6164SOL    HW221991   8.880   1.773  10.524 -1.3024 -0.7565 -0.0660
 6165SOL     OW21992   1.513   7.007   8.472 -0.0794  0.0163 -0.2747
 6165SOL    HW121993   1.542   7.003   8.563 -2.2485  0.2932  0.4871
 6165SOL    HW221994   1.536   7.096   8.443  1.2618 -0.3017 -0.2773
 6166SOL     OW21995   5.070  10.409   7.148 -0.3798 -0.2972  0.8403
 6166SOL    HW121996   5.152  10.410   7.196 -1.2013  0.9195  2.3038
 6166SOL    HW221997   5.090  10.451   7.064  0.4335  0.2017  1.2725
 6167SOL     OW21998   2.653   3.182   1.459  0.4815  0.3114 -0.2378
 6167SOL    HW121999   2.712   3.109   1.473  2.0023  1.6202  0.4591
 6167SOL    HW222000   2.678   3.217   1.373  1.6179  1.6196  0.5883
 6168SOL     OW22001   8.836   0.916   0.821  0.4468 -0.1029 -0.6315
 6168SOL    HW122002   8.826   0.897   0.728 -0.4098 -2.4301 -0.1324
 6168SOL    HW222003   8.799   0.839   0.865  1.8876  0.4003  1.6121
 6169SOL     OW22004   8.766   3.809   2.442 -0.2852 -0.3179  0.3232
 6169SOL    HW122005   8.683   3.762   2.453 -1.2534  1.7288  2.5146
 6169SOL    HW222006   8.740   3.898   2.418  1.4496 -0.4149 -2.3194
 6170SOL     OW22007  10.890   6.266   0.449  0.0347  0.9313 -0.7054
 6170SOL    HW122008  10.949   6.259   0.525  1.3384 -1.5586 -1.8119
 6170SOL    HW222009  10.948   6.287   0.376 -0.7330  0.3370 -1.5031
 6171SOL     OW22010   9.953   8.611   3.575  0.0526 -0.7607  0.1532
 6171SOL    HW122011  10.044   8.630   3.551  0.4148  0.0606  2.0389
 6171SOL    HW222012   9.950   8.622   3.670 -1.7976 -1.7814  0.2608
 6172SOL     OW22013   4.282   3.015   2.851  1.0282  0.0008 -0.1731
 6172SOL    HW122014   4.214   2.954   2.879  1.1793 -0.2583 -0.3592
 6172SOL    HW222015   4.274   3.018   2.756  0.7619  0.5846 -0.1327
 6173SOL     OW22016   1.677   6.597   5.213  0.0583  0.0320 -0.6968
 6173SOL    HW122017   1.623   6.662   5.258  1.1888 -0.0248  0.8288
 6173SOL    HW222018   1.662   6.515   5.260  0.4247 -0.2959 -1.1342
 6174SOL     OW22019   9.664   5.592  10.638 -0.4568  0.1995  0.5978
 6174SOL    HW122020   9.579   5.557  10.663 -0.5152  0.8603  1.3624
 6174SOL    HW222021   9.727   5.539  10.687 -0.4119 -0.4147 -0.1156
 6175SOL     OW22022  10.270   5.819   9.003 -0.2738 -0.2373  0.1308
 6175SOL    HW122023  10.283   5.903   9.047 -2.7772 -0.9555  2.6097
 6175SOL    HW222024  10.297   5.754   9.068  0.0040 -1.3596 -1.0818
 6176SOL     OW22025   0.934  10.358   8.728  0.2994 -0.7590 -0.7927
 6176SOL    HW122026   0.892  10.296   8.668 -0.0457 -1.9718  0.6426
 6176SOL    HW222027   0.978  10.303   8.792  1.6697  0.5121 -0.5978
 6177SOL     OW22028   2.853   0.575   8.611 -0.4017  0.1084 -0.1823
 6177SOL    HW122029   2.875   0.523   8.534 -1.5077 -0.1166 -0.3722
 6177SOL    HW222030   2.854   0.665   8.579  1.6980  0.2450  0.1930
 6178SOL     OW22031   0.688   9.930   2.827 -0.1818 -0.0129  0.2129
 6178SOL    HW122032   0.593   9.927   2.833 -0.4669  0.3083 -2.6817
 6178SOL    HW222033   0.717   9.851   2.873 -1.6304  0.8313  2.7988
 6179SOL     OW22034   6.276   8.520   0.964 -0.1556 -0.4671 -0.4133
 6179SOL    HW122035   6.257   8.589   0.901  0.6893  0.7520  0.6035
 6179SOL    HW222036   6.315   8.450   0.912  1.7229  1.0118 -1.1221
 6180SOL     OW22037   3.591   1.971   0.957 -0.3349  0.0339 -0.4924
 6180SOL    HW122038   3.526   1.949   1.024 -0.3894 -0.5797 -0.7395
 6180SOL    HW222039   3.674   1.976   1.004 -0.7345  2.1959  0.0812
 6181SOL     OW22040   0.723   0.867   4.719 -0.2166 -0.5253  0.0260
 6181SOL    HW122041   0.726   0.774   4.741 -0.4489 -0.5003  0.1619
 6181SOL    HW222042   0.780   0.909   4.783  1.4915 -0.8006 -1.2266
 6182SOL     OW22043   4.072   3.705   5.711 -0.3134  0.0726 -0.3787
 6182SOL    HW122044   4.029   3.782   5.748  0.9142  1.1315 -1.0526
 6182SOL    HW222045   4.037   3.698   5.622  0.6696  0.7851 -0.8400
 6183SOL     OW22046  10.032   2.213   1.490 -0.0072 -0.1856  0.1799
 6183SOL    HW122047  10.075   2.133   1.519  0.3652  0.7215  2.3296
 6183SOL    HW222048  10.059   2.279   1.554  0.0675  1.7873 -1.7723
 6184SOL     OW22049   0.977   3.316   4.751  0.1391  0.6920 -0.2094
 6184SOL    HW122050   0.976   3.222   4.733 -3.2579  0.3227  1.1793
 6184SOL    HW222051   1.002   3.322   4.843 -1.2284  0.9759  0.1619
 6185SOL     OW22052   3.284   2.789   8.860 -0.5073  0.4308 -0.4182
 6185SOL    HW122053   3.311   2.724   8.925  1.9850  1.6962 -0.0527
 6185SOL    HW222054   3.291   2.744   8.776  2.0081  0.3849 -0.2469
 6186SOL     OW22055   7.220   2.006   8.225  0.3112  0.0092 -0.1739
 6186SOL    HW122056   7.181   2.081   8.269 -0.8065  1.2797 -3.0817
 6186SOL    HW222057   7.314   2.014   8.241  0.0261  0.8302  1.2456
 6187SOL     OW22058   5.462  10.376  10.614  0.0192 -0.1942  0.1563
 6187SOL    HW122059   5.436  10.313  10.548 -0.3985  1.1495 -1.0097
 6187SOL    HW222060   5.472  10.325  10.694  1.1232 -1.9692 -1.0490
 6188SOL     OW22061   7.489   3.120   7.194  0.5410  0.1991 -0.5909
 6188SOL    HW122062   7.545   3.085   7.263  0.1046  0.6145 -0.0137
 6188SOL    HW222063   7.431   3.181   7.239 -0.9950 -0.8823 -0.9919
 6189SOL     OW22064   5.184   2.740  10.398 -0.5998 -0.3283 -0.7710
 6189SOL    HW122065   5.218   2.687  10.469 -3.1502 -1.0667  0.0168
 6189SOL    HW222066   5.092   2.714  10.391 -1.8733  3.5553 -0.7109
 6190SOL     OW22067   3.010   5.132   7.600 -0.3405 -0.7326  0.0253
 6190SOL    HW122068   3.071   5.058   7.601 -0.5214 -0.9729 -2.2119
 6190SOL    HW222069   2.924   5.092   7.590 -0.5573 -0.2625  0.0121
 6191SOL     OW22070   7.542   2.198   0.985  0.2548 -0.1032 -0.2704
 6191SOL    HW122071   7.452   2.179   0.960  0.7523 -1.0820 -1.4906
 6191SOL    HW222072   7.591   2.188   0.903  1.1578  2.8227 -0.1924
 6192SOL     OW22073   7.029   3.788   4.821 -0.2354  0.2553  0.4335
 6192SOL    HW122074   6.959   3.782   4.885 -0.7821  0.0482 -0.1725
 6192SOL    HW222075   7.055   3.880   4.822 -1.6225  0.6876 -0.4807
 6193SOL     OW22076   5.940   3.267  10.276  0.5664  0.7355  0.2660
 6193SOL    HW122077   5.857   3.221  10.289  1.2206  0.0728  2.5573
 6193SOL    HW222078   5.915   3.359  10.272 -0.2751  0.5867  1.3677
 6194SOL     OW22079   6.378   6.576   2.043  0.4657  0.1531 -0.3452
 6194SOL    HW122080   6.386   6.577   2.138 -2.1259  1.2130 -0.0478
 6194SOL    HW222081   6.387   6.484   2.018  0.5080 -0.2199  1.0164
 6195SOL     OW22082   6.290   1.175   2.576 -0.3768  0.2649  0.4385
 6195SOL    HW122083   6.363   1.145   2.630 -0.4724 -1.0664 -0.1396
 6195SOL    HW222084   6.331   1.200   2.493 -0.3977  1.0040  0.6456
 6196SOL     OW22085   7.174   1.977   1.751 -0.3586  0.6528  0.4470
 6196SOL    HW122086   7.177   2.066   1.784 -2.4599  1.0156 -0.2062
 6196SOL    HW222087   7.118   1.982   1.673  2.5483 -0.5533 -1.9355
 6197SOL     OW22088   5.589   5.898   6.021 -0.5418 -1.1805 -1.0369
 6197SOL    HW122089   5.667   5.869   5.973 -0.1400  0.0106 -1.1541
 6197SOL    HW222090   5.614   5.895   6.113 -0.2913 -0.6731 -1.0809
 6198SOL     OW22091   8.670   0.095   3.097 -0.0519 -0.2711 -0.0960
 6198SOL    HW122092   8.747   0.144   3.126  0.1840  0.1865 -1.4242
 6198SOL    HW222093   8.692   0.066   3.009 -0.8716 -1.3165  0.0276
 6199SOL     OW22094   6.261   8.465   2.674 -0.5462 -0.3805 -0.5517
 6199SOL    HW122095   6.331   8.422   2.624 -0.1773 -1.8217  1.1118
 6199SOL    HW222096   6.184   8.461   2.617 -0.4871 -3.1907 -0.5538
 6200SOL     OW22097   6.889   8.040   3.002 -0.5264  1.0164 -0.4148
 6200SOL    HW122098   6.820   7.974   3.008 -0.5602  1.1585  1.2447
 6200SOL    HW222099   6.874   8.083   2.918  0.1824 -1.8047 -2.1230
 6201SOL     OW22100   2.823   1.049   1.744 -0.5470 -1.1659  0.1425
 6201SOL    HW122101   2.845   1.084   1.830  1.0656 -2.8752  0.4715
 6201SOL    HW222102   2.828   0.954   1.754  0.6078 -1.4072 -2.0469
 6202SOL     OW22103   6.090   6.536   9.634 -0.1873 -0.1450  0.1394
 6202SOL    HW122104   6.083   6.535   9.539 -1.5166 -0.7596  0.2142
 6202SOL    HW222105   6.107   6.627   9.656  0.0232  0.0216 -0.6837
 6203SOL     OW22106   4.382   1.467   3.460  1.0109  0.1613  0.2822
 6203SOL    HW122107   4.465   1.426   3.434  0.0978 -1.3976 -0.3182
 6203SOL    HW222108   4.354   1.415   3.535  0.3277  0.3579  0.1626
 6204SOL     OW22109   7.901   8.080   3.281  0.4599  0.6019  0.1344
 6204SOL    HW122110   7.938   8.168   3.290  0.8513  0.4336  0.1847
 6204SOL    HW222111   7.897   8.047   3.371  0.6999  0.4144  0.0785
 6205SOL     OW22112   0.466   3.439   3.653 -0.7063 -0.2058  0.2142
 6205SOL    HW122113   0.552   3.400   3.668 -0.6776 -0.1433  0.2102
 6205SOL    HW222114   0.454   3.499   3.726 -0.5915  0.0558  0.0159
 6206SOL     OW22115   7.388   4.212   2.711 -0.1500 -0.2425 -0.5070
 6206SOL    HW122116   7.325   4.271   2.669  0.3069  0.9128  0.3867
 6206SOL    HW222117   7.435   4.267   2.773 -1.2901 -1.9823  2.0996
 6207SOL     OW22118   7.492   1.071   1.295 -0.0312  0.1095 -0.0886
 6207SOL    HW122119   7.577   1.033   1.276  0.2435  1.0432 -0.8021
 6207SOL    HW222120   7.511   1.146   1.351 -0.1905  1.2934 -1.5523
 6208SOL     OW22121   7.271   7.377   4.838  0.0779 -0.0568 -0.4587
 6208SOL    HW122122   7.253   7.462   4.879  0.4243  0.5953 -1.6312
 6208SOL    HW222123   7.366   7.373   4.830  0.1245 -0.9252  0.3244
 6209SOL     OW22124  10.419   5.093  10.505  0.0313 -0.6321  0.2573
 6209SOL    HW122125  10.346   5.151  10.527  1.3297  1.2916 -0.2878
 6209SOL    HW222126  10.470   5.141  10.439  1.4783 -2.1647  0.1731
 6210SOL     OW22127   1.981   2.308   7.851 -0.1538  0.0522 -0.0813
 6210SOL    HW122128   1.964   2.393   7.892 -0.4621  0.5756 -1.2566
 6210SOL    HW222129   1.954   2.244   7.917  1.6559  0.8265  1.4924
 6211SOL     OW22130   7.898   0.446   5.476 -0.8397  0.2398 -0.4818
 6211SOL    HW122131   7.844   0.524   5.465 -1.1162  0.1895  0.4032
 6211SOL    HW222132   7.913   0.414   5.387 -0.8946  1.1796 -0.8367
 6212SOL     OW22133   7.995  10.740   7.723  0.4654  0.3752 -0.3853
 6212SOL    HW122134   8.033  10.697   7.800 -1.0798  1.2535  0.9316
 6212SOL    HW222135   7.903  10.753   7.746  0.1508  1.4251 -2.0704
 6213SOL     OW22136   4.992   3.660   2.718 -0.1655 -0.1496  0.3236
 6213SOL    HW122137   4.908   3.660   2.764  0.8075  0.0900  2.1831
 6213SOL    HW222138   5.003   3.569   2.689 -1.4689  0.0121 -0.7904
 6214SOL     OW22139   1.786   3.308   1.227 -0.2084  0.6656 -0.3018
 6214SOL    HW122140   1.709   3.340   1.180  0.3209  0.9427 -0.9994
 6214SOL    HW222141   1.755   3.232   1.276 -0.3763 -0.8586 -2.6324
 6215SOL     OW22142   9.475   9.814   2.620 -0.0498  0.2614  0.0099
 6215SOL    HW122143   9.558   9.843   2.582  0.4757  0.1088  1.0084
 6215SOL    HW222144   9.479   9.718   2.616  0.2173  0.2266  0.8400
 6216SOL     OW22145   9.694   9.560  10.653 -0.3502 -0.5407 -0.1160
 6216SOL    HW122146   9.723   9.541  10.564 -0.8528  0.1137 -0.4285
 6216SOL    HW222147   9.756   9.513  10.709 -0.9626 -2.2867 -0.8239
 6217SOL     OW22148   5.621   3.665   7.032  0.1440  0.2307 -0.0419
 6217SOL    HW122149   5.581   3.627   6.954  0.0374 -0.0610  0.1499
 6217SOL    HW222150   5.603   3.601   7.101 -1.1322  1.1955  0.5743
 6218SOL     OW22151   1.784  10.030  10.843 -0.2074 -0.2378  0.6877
 6218SOL    HW122152   1.872  10.011  10.873  0.1838  0.5974  0.1062
 6218SOL    HW222153   1.793  10.047  10.749 -0.9305  0.2255  0.6918
 6219SOL     OW22154   8.575   1.395  10.977 -0.6671  0.5261 -0.6502
 6219SOL    HW122155   8.641   1.355  11.034  0.0630  1.5134 -0.7798
 6219SOL    HW222156   8.542   1.469  11.028 -1.1646  0.4594 -0.8746
 6220SOL     OW22157   2.124   3.953   5.491  0.1823  0.4998  0.5200
 6220SOL    HW122158   2.033   3.925   5.496  0.2100  0.4857  0.9801
 6220SOL    HW222159   2.175   3.872   5.491  0.3189  0.5108  2.9786
 6221SOL     OW22160   4.803   0.075   7.077  0.3125  0.1017  0.0749
 6221SOL    HW122161   4.718   0.110   7.102 -0.2519 -1.5781  0.6250
 6221SOL    HW222162   4.866   0.144   7.099 -0.7207  0.6884  1.2460
 6222SOL     OW22163   6.611   8.058   8.726  0.0973 -0.2046 -0.4005
 6222SOL    HW122164   6.524   8.020   8.741 -0.7558  0.9923 -2.0062
 6222SOL    HW222165   6.666   8.018   8.794 -2.0184  0.1578  1.6993
 6223SOL     OW22166   2.235   0.509   1.111  0.5291  0.2876 -0.0278
 6223SOL    HW122167   2.178   0.578   1.144 -0.6000 -0.1783 -0.9285
 6223SOL    HW222168   2.223   0.437   1.172  0.0624  0.1608 -0.2615
 6224SOL     OW22169   1.787   4.288   3.847 -0.4364 -0.2395  0.2990
 6224SOL    HW122170   1.823   4.374   3.825  0.0172 -0.6711 -0.7568
 6224SOL    HW222171   1.859   4.242   3.889 -0.1515 -0.6485 -0.6121
 6225SOL     OW22172   6.993   5.681   0.986 -0.2787 -0.3889 -0.4288
 6225SOL    HW122173   7.076   5.650   0.949  0.2254 -0.0548  0.3929
 6225SOL    HW222174   6.936   5.694   0.911  1.1496  1.5815 -1.2325
 6226SOL     OW22175   9.608   4.864   0.743  0.3326 -0.0039 -0.2115
 6226SOL    HW122176   9.621   4.809   0.821  0.5037  0.9798  0.4778
 6226SOL    HW222177   9.696   4.891   0.718  0.1446  1.4329  0.5775
 6227SOL     OW22178   1.629   3.412  10.951 -0.0126  0.0965 -0.4224
 6227SOL    HW122179   1.688   3.482  10.980 -0.4909  0.5058 -0.4242
 6227SOL    HW222180   1.674   3.372  10.876  0.5109  0.0466 -0.0853
 6228SOL     OW22181   3.108   6.994   8.642 -0.2335 -0.1828 -0.3738
 6228SOL    HW122182   3.151   6.909   8.649 -0.5947 -0.4520 -1.2582
 6228SOL    HW222183   3.014   6.973   8.643 -0.3380  0.0327 -2.1396
 6229SOL     OW22184   9.935  10.549   6.263 -0.3787 -0.0499 -0.6068
 6229SOL    HW122185   9.923  10.458   6.240  0.7551 -0.9092  1.7904
 6229SOL    HW222186  10.029  10.565   6.250  0.3345 -0.5800  2.8274
 6230SOL     OW22187   6.398   4.995  10.414  0.0637  0.0602 -0.2729
 6230SOL    HW122188   6.418   4.969  10.503  1.2474 -2.9854 -1.2964
 6230SOL    HW222189   6.314   5.040  10.420  0.7632  1.1859  2.4824
 6231SOL     OW22190   1.115   8.230   3.657 -0.2385  0.0897 -0.4755
 6231SOL    HW122191   1.086   8.320   3.671 -0.0532  0.0221  0.3447
 6231SOL    HW222192   1.099   8.215   3.563 -0.3087  0.9540 -0.6134
 6232SOL     OW22193   9.752   8.224   5.482 -0.1690 -0.4913 -0.1412
 6232SOL    HW122194   9.841   8.228   5.515 -0.2743  0.0221  0.0947
 6232SOL    HW222195   9.739   8.132   5.457  0.4315 -0.5586 -0.2093
 6233SOL     OW22196   4.005   8.522   4.156 -0.6356  0.0056 -0.0688
 6233SOL    HW122197   4.059   8.572   4.094 -1.8844 -0.2744 -1.4492
 6233SOL    HW222198   4.035   8.550   4.242  1.6014 -0.0307 -0.7533
 6234SOL     OW22199   6.079   4.838   9.304 -0.3863 -0.2670  0.5496
 6234SOL    HW122200   6.117   4.893   9.237 -0.4703 -0.5491  0.2690
 6234SOL    HW222201   6.071   4.752   9.263 -1.1398 -0.2580  0.6663
 6235SOL     OW22202   8.614   7.745   3.759 -0.2134  0.0830 -0.1907
 6235SOL    HW122203   8.687   7.682   3.758  0.4712  0.8372  0.5616
 6235SOL    HW222204   8.562   7.721   3.835  1.2450  1.6896  1.4127
 6236SOL     OW22205   0.944   8.962   5.701  0.0020 -0.1346 -0.1613
 6236SOL    HW122206   0.941   8.933   5.792  1.5605  0.2183  0.0254
 6236SOL    HW222207   0.873   9.026   5.694  0.3554  0.4157  1.0239
 6237SOL     OW22208  10.114   1.396  10.849 -0.1213  0.2465 -0.0620
 6237SOL    HW122209  10.092   1.455  10.921  1.2519 -0.2613  0.8193
 6237SOL    HW222210  10.196   1.431  10.814  0.6929 -1.0933  0.4465
 6238SOL     OW22211   7.611   6.250   4.775  0.0103 -0.2667 -0.4198
 6238SOL    HW122212   7.701   6.240   4.806 -0.1213 -0.2551 -0.0388
 6238SOL    HW222213   7.561   6.187   4.827 -0.3377  0.3007 -0.0691
 6239SOL     OW22214   4.304   9.987   5.644 -0.1389  0.2227 -0.4123
 6239SOL    HW122215   4.309   9.930   5.567 -0.5749 -0.2890 -0.0673
 6239SOL    HW222216   4.384  10.040   5.639  0.0124 -0.0477 -1.0271
 6240SOL     OW22217   1.297   1.171   8.768 -0.1795  0.7957  0.0548
 6240SOL    HW122218   1.315   1.154   8.676  1.7976  1.0551  0.3394
 6240SOL    HW222219   1.379   1.206   8.802 -0.6331  0.0269  2.0943
 6241SOL     OW22220   5.321   7.412   7.536  0.2087 -0.4405 -0.1178
 6241SOL    HW122221   5.282   7.468   7.468 -1.5466 -0.6600  0.6497
 6241SOL    HW222222   5.388   7.467   7.576 -1.2379  1.0466  0.3855
 6242SOL     OW22223  10.191   5.574   9.488  0.6055 -0.4720 -0.5558
 6242SOL    HW122224  10.102   5.603   9.467  0.0646 -0.9127  0.9557
 6242SOL    HW222225  10.201   5.594   9.581  1.7001 -1.4149 -0.4494
 6243SOL     OW22226   3.314  10.256   1.144 -0.1534  0.5013 -0.3226
 6243SOL    HW122227   3.277  10.343   1.132  1.3916  1.2158 -0.1921
 6243SOL    HW222228   3.388  10.269   1.204 -0.2631 -1.0054  0.1875
 6244SOL     OW22229   0.113   8.629   7.317 -0.2287 -0.1396  0.1122
 6244SOL    HW122230   0.139   8.559   7.377 -0.3341 -1.4339 -1.2854
 6244SOL    HW222231   0.194   8.678   7.301 -0.3167  0.6020  1.7262
 6245SOL     OW22232  10.132   5.040   8.164 -0.0631  0.3204  0.4087
 6245SOL    HW122233  10.118   5.074   8.076  0.5463  0.1859  0.2488
 6245SOL    HW222234  10.050   4.998   8.188 -0.1527  0.1458 -0.1997
 6246SOL     OW22235   2.403   9.185   9.038 -0.3072  0.6165  0.4137
 6246SOL    HW122236   2.327   9.127   9.032 -0.9747  1.4954 -4.8834
 6246SOL    HW222237   2.365   9.272   9.049  0.2846  0.7036  1.9247
 6247SOL     OW22238   2.796   6.641   5.503 -0.2743 -0.5743  0.2256
 6247SOL    HW122239   2.757   6.624   5.589 -1.3800 -0.2950 -0.1996
 6247SOL    HW222240   2.746   6.715   5.468 -0.3352 -1.1362 -0.9533
 6248SOL     OW22241   8.250   7.559   9.972  0.5359 -0.0464  0.2323
 6248SOL    HW122242   8.312   7.491   9.999 -1.1759 -1.8101 -0.0381
 6248SOL    HW222243   8.306   7.632   9.944  2.4531 -1.1411  0.9760
 6249SOL     OW22244   2.317   5.988   6.906  0.5351 -0.8130  0.2431
 6249SOL    HW122245   2.234   5.986   6.858 -0.6302  0.0453  2.0729
 6249SOL    HW222246   2.378   6.030   6.846 -1.1624  1.3293 -0.1493
 6250SOL     OW22247   4.720   5.234   4.992 -0.2341  0.2283  0.1021
 6250SOL    HW122248   4.691   5.290   4.920  2.2048 -0.3749 -1.4709
 6250SOL    HW222249   4.734   5.148   4.953 -0.1137 -0.4676  1.5919
 6251SOL     OW22250   7.501   8.154   3.858  0.3853 -0.4057  0.0586
 6251SOL    HW122251   7.564   8.141   3.929 -1.3413 -0.2395  1.7065
 6251SOL    HW222252   7.464   8.240   3.875  0.7886  0.1762 -1.8050
 6252SOL     OW22253   7.206   2.551   9.959  0.3495  0.2629  0.6594
 6252SOL    HW122254   7.267   2.552  10.032  2.4096  0.8789 -0.9749
 6252SOL    HW222255   7.244   2.610   9.894 -0.0393 -2.0837 -1.9275
 6253SOL     OW22256   8.015   3.422   5.243 -0.1585  0.8363  0.0641
 6253SOL    HW122257   7.972   3.492   5.191 -1.8025  0.6539  1.0991
 6253SOL    HW222258   7.973   3.342   5.212 -0.1705  0.5927  0.7099
 6254SOL     OW22259   2.460   1.732   2.572 -0.3187 -0.2323  0.2942
 6254SOL    HW122260   2.523   1.724   2.501 -1.1491  0.6146 -0.5739
 6254SOL    HW222261   2.505   1.782   2.639 -0.7406  2.3781 -1.2370
 6255SOL     OW22262   3.535   9.381   7.164 -0.3567 -0.0523 -0.1178
 6255SOL    HW122263   3.450   9.412   7.132 -1.1750 -1.6856  0.3466
 6255SOL    HW222264   3.579   9.459   7.198 -2.7103  0.4862  1.9583
 6256SOL     OW22265   3.004   5.976   8.356 -0.0396 -0.2935  0.5304
 6256SOL    HW122266   3.087   5.938   8.386 -0.0603  0.4223  1.5421
 6256SOL    HW222267   3.028   6.061   8.320 -0.4332  0.3380  1.7109
 6257SOL     OW22268   7.681   4.163   7.672 -0.5591  0.0833 -0.2370
 6257SOL    HW122269   7.751   4.219   7.637 -0.9248  0.8598  0.2619
 6257SOL    HW222270   7.600   4.202   7.640 -0.8681  0.4363  0.9224
 6258SOL     OW22271   3.140   0.566   1.031 -0.0955 -0.0023  0.2369
 6258SOL    HW122272   3.164   0.589   1.121 -1.6573 -0.3267  0.7771
 6258SOL    HW222273   3.066   0.506   1.041  0.7474 -1.3796 -1.2355
 6259SOL     OW22274   2.717   2.191   0.298 -0.1871 -0.0096 -0.0702
 6259SOL    HW122275   2.687   2.110   0.256  0.8905 -1.0444  1.0821
 6259SOL    HW222276   2.737   2.250   0.226 -0.4939 -0.9545 -0.9482
 6260SOL     OW22277  10.300   7.982   2.884  0.6519  0.0553  0.7341
 6260SOL    HW122278  10.264   7.906   2.838 -0.7444  1.6027 -0.8943
 6260SOL    HW222279  10.296   7.958   2.977  0.3252 -1.8600  0.2680
 6261SOL     OW22280   3.017   4.249  10.160  0.0880  0.3124 -1.0422
 6261SOL    HW122281   3.062   4.323  10.118 -2.8249  1.7034 -1.9212
 6261SOL    HW222282   2.991   4.282  10.246  1.9305 -1.0118  0.1216
 6262SOL     OW22283   1.273   7.310   1.949 -0.1015  0.1498  0.3107
 6262SOL    HW122284   1.257   7.404   1.952 -0.6503  0.1029 -0.7273
 6262SOL    HW222285   1.227   7.275   2.026  0.1186  0.7211  0.7091
 6263SOL     OW22286  10.359   0.309   3.880  0.3880  0.5336 -0.4295
 6263SOL    HW122287  10.309   0.346   3.807 -0.3777  0.1208 -0.1210
 6263SOL    HW222288  10.425   0.375   3.900  0.7053  0.5878 -1.6000
 6264SOL     OW22289   8.140   3.744   6.757  0.5477 -0.2605  1.0966
 6264SOL    HW122290   8.057   3.785   6.731  0.1837 -2.2731 -1.2386
 6264SOL    HW222291   8.192   3.816   6.793 -0.1809  2.3007 -2.4067
 6265SOL     OW22292   9.521   1.501   7.238  0.0617  0.6928 -0.3871
 6265SOL    HW122293   9.476   1.575   7.197  0.1804  0.8551 -0.2194
 6265SOL    HW222294   9.472   1.424   7.206 -3.3887  0.9849  3.4006
 6266SOL     OW22295   5.104  10.327   3.428  0.3923  0.2030 -0.0041
 6266SOL    HW122296   5.113  10.418   3.399 -1.5273  0.1719 -0.8674
 6266SOL    HW222297   5.058  10.333   3.511  1.2701  0.0485  0.5047
 6267SOL     OW22298   3.470  10.976   4.944  0.0429  0.7477  0.3410
 6267SOL    HW122299   3.548  10.920   4.951  0.4198  1.0301 -1.1548
 6267SOL    HW222300   3.403  10.919   4.906  0.3783  1.2276 -1.0309
 6268SOL     OW22301   2.135   7.316   1.321  0.0925 -0.3144 -0.0494
 6268SOL    HW122302   2.109   7.350   1.235 -0.8057  1.0837  0.7309
 6268SOL    HW222303   2.054   7.283   1.359  0.1209  0.6830  0.9347
 6269SOL     OW22304  10.598   4.367   9.118  0.3391 -0.2393  0.3839
 6269SOL    HW122305  10.532   4.357   9.050  0.0613 -0.6319  0.7094
 6269SOL    HW222306  10.649   4.444   9.091 -1.7998  1.6651  1.4044
 6270SOL     OW22307  10.827   5.123   0.471 -0.2649 -0.0906 -0.4623
 6270SOL    HW122308  10.799   5.033   0.486 -2.2796  0.3751 -1.1701
 6270SOL    HW222309  10.893   5.117   0.401 -0.9900 -0.9328 -1.0905
 6271SOL     OW22310  10.227   6.281   3.122  0.1631 -0.5548  0.0325
 6271SOL    HW122311  10.166   6.233   3.178 -1.0132  0.7455 -0.0762
 6271SOL    HW222312  10.256   6.218   3.057  0.1858 -1.6245  1.0521
 6272SOL     OW22313   5.803  10.003   1.382  0.1234  0.3601 -0.2977
 6272SOL    HW122314   5.879  10.015   1.439 -0.7696  4.3721  0.3980
 6272SOL    HW222315   5.739   9.958   1.437  0.0958  2.0900  1.1952
 6273SOL     OW22316   3.185   4.623   0.715  0.0067 -0.4424  0.0525
 6273SOL    HW122317   3.272   4.613   0.674  0.9713  0.7488  1.6756
 6273SOL    HW222318   3.159   4.712   0.693 -0.4935 -0.5613  0.1567
 6274SOL     OW22319   4.917  10.236   2.650 -0.0111 -0.2970 -0.3627
 6274SOL    HW122320   4.853  10.284   2.598  1.6437  0.0975 -2.1279
 6274SOL    HW222321   4.921  10.283   2.733 -0.9827  0.4858 -0.7450
 6275SOL     OW22322   0.655   6.222   4.538 -0.0181  0.3427 -0.7068
 6275SOL    HW122323   0.733   6.171   4.557  1.6396  3.1450  0.6796
 6275SOL    HW222324   0.674   6.264   4.454  0.1151  1.2091 -0.2573
 6276SOL     OW22325  10.427   3.968   5.700  0.9806  0.1892 -0.2697
 6276SOL    HW122326  10.337   3.953   5.672  0.7046  0.2601  0.5556
 6276SOL    HW222327  10.478   3.962   5.620  0.1184  1.2304 -0.9273
 6277SOL     OW22328   9.606  10.087   8.885 -0.2689  0.6628  0.1311
 6277SOL    HW122329   9.538  10.152   8.894 -1.0614 -0.2240  0.7209
 6277SOL    HW222330   9.563  10.004   8.904  1.2030  0.1772  1.6013
 6278SOL     OW22331   2.321   2.635   2.797  0.0342 -0.4583 -0.8577
 6278SOL    HW122332   2.406   2.674   2.819 -0.7918  1.0917 -0.2605
 6278SOL    HW222333   2.330   2.607   2.706  0.5677  1.4863 -1.4425
 6279SOL     OW22334   9.550   4.359   7.510 -0.3144 -0.3439 -0.4066
 6279SOL    HW122335   9.517   4.382   7.423 -2.0448  0.3276  0.3964
 6279SOL    HW222336   9.483   4.301   7.546  1.6039 -2.7416 -0.4595
 6280SOL     OW22337   3.401   2.500   7.359 -0.2345  0.1983 -0.0038
 6280SOL    HW122338   3.456   2.425   7.378 -0.8716 -0.4116 -0.5151
 6280SOL    HW222339   3.451   2.551   7.296  0.4712  0.5463  0.8113
 6281SOL     OW22340   6.393   1.121   7.731 -0.7932  0.0305 -0.5965
 6281SOL    HW122341   6.318   1.179   7.744 -0.2518  0.4276  0.9765
 6281SOL    HW222342   6.463   1.179   7.701 -0.6668 -0.0646 -0.4866
 6282SOL     OW22343   0.465   3.966   8.355 -0.2093  0.2993  0.2609
 6282SOL    HW122344   0.464   3.912   8.434 -1.7560  0.3196  0.2889
 6282SOL    HW222345   0.541   4.022   8.365  1.3566 -1.7180  0.3237
 6283SOL     OW22346   1.622   7.299   2.193 -0.3110 -0.2151  0.0030
 6283SOL    HW122347   1.592   7.210   2.212 -1.4247 -0.0894 -1.0435
 6283SOL    HW222348   1.546   7.354   2.212 -0.3574  0.2673 -1.4901
 6284SOL     OW22349   8.981   0.040   5.945  0.1636 -0.2822  0.0458
 6284SOL    HW122350   8.971   0.056   6.039 -1.7709 -0.6735 -0.0556
 6284SOL    HW222351   9.035   0.113   5.914 -2.5618  2.2524  0.7787
 6285SOL     OW22352   1.494   6.728   8.132 -0.4069 -0.1251 -0.3965
 6285SOL    HW122353   1.525   6.734   8.222  0.5196  0.9806 -0.7624
 6285SOL    HW222354   1.539   6.652   8.096  1.2458  0.9242 -0.6496
 6286SOL     OW22355   2.710   7.612   1.759  0.2455  0.0552  0.0979
 6286SOL    HW122356   2.684   7.591   1.669 -0.9852  0.3927  0.3544
 6286SOL    HW222357   2.686   7.534   1.809  0.0650  0.2292  0.2836
 6287SOL     OW22358   6.648   1.628   2.200 -0.4280  0.0022  0.3502
 6287SOL    HW122359   6.607   1.707   2.164  0.3743 -0.2804 -1.2997
 6287SOL    HW222360   6.702   1.660   2.272 -0.6831  0.8648  0.1690
 6288SOL     OW22361   1.074   5.606   5.500 -0.1679  0.1508  0.0097
 6288SOL    HW122362   1.157   5.585   5.457 -1.0086 -0.5797 -1.3299
 6288SOL    HW222363   1.099   5.644   5.584  1.5154 -0.2898 -0.2621
 6289SOL     OW22364   8.832   7.546  10.582  0.1843 -0.0213 -0.0424
 6289SOL    HW122365   8.890   7.476  10.612  2.0142  1.6672  0.6011
 6289SOL    HW222366   8.848   7.551  10.488  1.4850  0.7002  0.1846
 6290SOL     OW22367   6.799   1.421   3.847  0.1431 -0.5202  0.0824
 6290SOL    HW122368   6.856   1.358   3.891 -0.3585 -0.5981  0.6286
 6290SOL    HW222369   6.711   1.386   3.860 -0.1920  0.6003  0.9010
 6291SOL     OW22370   6.302   9.217   3.664 -0.1790  0.6426  0.1308
 6291SOL    HW122371   6.368   9.189   3.601  0.1388 -0.1662  0.8038
 6291SOL    HW222372   6.227   9.159   3.649 -0.0604  0.3732  0.5631
 6292SOL     OW22373   2.554   5.688   7.001 -0.0220 -0.0193 -0.3324
 6292SOL    HW122374   2.465   5.680   7.037  0.6801  1.3230  1.9640
 6292SOL    HW222375   2.543   5.741   6.922 -1.3470 -0.6223 -0.5794
 6293SOL     OW22376   0.667   8.519   1.193 -0.2251 -0.2532 -0.2665
 6293SOL    HW122377   0.676   8.480   1.106 -1.2801  0.2250 -0.5986
 6293SOL    HW222378   0.709   8.605   1.185 -2.3156  0.7756 -1.0043
 6294SOL     OW22379   3.093  10.477  10.661 -0.0033 -0.0517 -0.1522
 6294SOL    HW122380   3.177  10.467  10.706  0.0324 -2.8111 -0.6688
 6294SOL    HW222381   3.114  10.464  10.568 -0.7293  1.4027 -0.5600
 6295SOL     OW22382   1.245   7.911   4.843 -0.1616  0.5505 -0.4581
 6295SOL    HW122383   1.222   7.844   4.779  2.2177 -0.9683  0.1428
 6295SOL    HW222384   1.250   7.863   4.926 -2.7772  2.3872  0.8953
 6296SOL     OW22385   7.857   3.936   4.199 -0.2616  0.0397 -0.4811
 6296SOL    HW122386   7.870   4.021   4.241  0.5511 -0.9943  1.4914
 6296SOL    HW222387   7.779   3.948   4.145 -0.5409  1.8490  0.2502
 6297SOL     OW22388   1.948   9.001   1.619 -0.0157  0.8924  0.2869
 6297SOL    HW122389   1.856   9.012   1.594 -0.4599 -0.5521  1.1325
 6297SOL    HW222390   1.944   8.961   1.706  1.3556 -0.9647 -0.4401
 6298SOL     OW22391   7.783   2.698   5.068  0.1515 -0.3982  0.5144
 6298SOL    HW122392   7.763   2.634   4.999  0.3652 -1.4569  1.4006
 6298SOL    HW222393   7.875   2.719   5.056 -0.1252  0.4149 -0.3014
 6299SOL     OW22394   4.587   4.458   0.678  0.7376  0.1591 -0.5477
 6299SOL    HW122395   4.611   4.376   0.721 -0.4793  0.8561  1.6003
 6299SOL    HW222396   4.659   4.476   0.617  2.6731 -0.8023  1.3460
 6300SOL     OW22397   7.650   7.830   4.056 -0.1632 -0.4251 -0.5255
 6300SOL    HW122398   7.713   7.809   4.125 -0.3575 -0.1813 -0.2688
 6300SOL    HW222399   7.630   7.746   4.014 -2.0656 -1.0605  1.4433
 6301SOL     OW22400   6.047   4.871   4.128  0.3989  0.1608  0.1261
 6301SOL    HW122401   5.999   4.817   4.065  1.3268  0.8638 -1.2372
 6301SOL    HW222402   6.137   4.838   4.125  0.0139 -1.3838  2.9200
 6302SOL     OW22403   4.742   9.468   3.195  0.4804 -0.8628  0.2080
 6302SOL    HW122404   4.689   9.546   3.205 -0.9014 -1.7198 -0.1981
 6302SOL    HW222405   4.832   9.497   3.213 -0.0377  0.7350  0.3160
 6303SOL     OW22406   2.338   6.229   0.380  0.4748  0.5605  0.1914
 6303SOL    HW122407   2.242   6.228   0.380  0.3545 -1.8417 -2.9857
 6303SOL    HW222408   2.363   6.171   0.451 -0.5032 -0.2521 -0.1113
 6304SOL     OW22409  10.403   2.473  10.190 -0.1832 -0.0551 -0.4480
 6304SOL    HW122410  10.388   2.406  10.257 -1.4567  0.4916 -0.1630
 6304SOL    HW222411  10.466   2.433  10.130 -2.0521 -2.1244 -1.1586
 6305SOL     OW22412   2.407   2.965   0.231  0.8216  0.2854 -0.3774
 6305SOL    HW122413   2.320   2.932   0.207  0.9511 -0.0034 -0.4568
 6305SOL    HW222414   2.467   2.896   0.202  1.0834  0.5206 -0.3933
 6306SOL     OW22415  10.156   9.560   6.129 -0.4567 -0.3649 -0.5963
 6306SOL    HW122416  10.132   9.634   6.184 -0.4183 -1.1194  0.4785
 6306SOL    HW222417  10.206   9.598   6.057 -1.1679  0.7325 -0.5232
 6307SOL     OW22418   3.766   5.211   8.321  0.2792 -0.2035 -0.3398
 6307SOL    HW122419   3.731   5.290   8.362  0.8778  0.4401 -1.0537
 6307SOL    HW222420   3.791   5.155   8.394 -1.7127 -0.4688  0.2080
 6308SOL     OW22421  10.866   3.986   9.408 -0.1062  0.7574 -0.5846
 6308SOL    HW122422  10.799   3.933   9.365  0.3946 -1.7619  1.4906
 6308SOL    HW222423  10.817   4.050   9.460 -1.1856 -1.9234  2.0184
 6309SOL     OW22424   5.083   6.474   4.410 -0.7708  0.4284 -0.0692
 6309SOL    HW122425   4.989   6.488   4.408 -0.7561  0.5884  0.1937
 6309SOL    HW222426   5.104   6.433   4.326 -1.0151  0.7746 -0.3011
 6310SOL     OW22427   3.082   9.129   3.067  0.6591  0.1007 -0.5428
 6310SOL    HW122428   3.122   9.197   3.013 -1.3429  1.9825  0.1759
 6310SOL    HW222429   3.090   9.161   3.157 -0.7101 -0.3545 -0.2278
 6311SOL     OW22430   9.929   3.077   1.900  0.6780  0.0348 -0.0365
 6311SOL    HW122431   9.879   3.157   1.913  0.6615 -0.1060  0.8494
 6311SOL    HW222432   9.994   3.078   1.971  1.5021 -0.1071 -0.7734
 6312SOL     OW22433   3.490   3.022   9.654  0.5394  0.4081  0.2595
 6312SOL    HW122434   3.402   3.056   9.639  0.4986  1.1872  1.9797
 6312SOL    HW222435   3.538   3.096   9.691  1.4613 -0.4515  0.8377
 6313SOL     OW22436   1.396   2.965   4.702  0.3828 -0.8145  0.5632
 6313SOL    HW122437   1.309   2.994   4.673 -0.0590 -1.1419  1.5260
 6313SOL    HW222438   1.455   2.999   4.635 -0.2589  1.0900  0.8890
 6314SOL     OW22439   3.845  10.998   0.287 -0.0828  0.0133 -0.5329
 6314SOL    HW122440   3.865  10.909   0.316  1.0644  1.1289  2.5109
 6314SOL    HW222441   3.897  11.054   0.345  0.3115  2.6869 -3.2035
 6315SOL     OW22442   8.497   2.984   1.228  0.0672 -0.3837 -0.2296
 6315SOL    HW122443   8.422   2.945   1.273 -0.8709  1.7532  0.1889
 6315SOL    HW222444   8.459   3.051   1.172  1.6898  1.5360  0.8235
 6316SOL     OW22445   8.092   5.908   4.086  0.1447  0.0554  0.6112
 6316SOL    HW122446   8.150   5.918   4.010  0.1140 -0.1617  0.5584
 6316SOL    HW222447   8.019   5.967   4.069 -0.2713 -0.5963  0.0744
 6317SOL     OW22448   3.358   8.566   8.758  0.0785  0.0305  0.4551
 6317SOL    HW122449   3.420   8.625   8.715  3.1408 -2.7693  0.5880
 6317SOL    HW222450   3.338   8.609   8.841  1.9290  1.0363  0.4353
 6318SOL     OW22451   6.304   6.877   9.421  0.1763  0.1637 -0.2302
 6318SOL    HW122452   6.274   6.911   9.505  0.5848 -0.1632  0.0553
 6318SOL    HW222453   6.226   6.873   9.367 -0.1804 -0.1076  0.3018
 6319SOL     OW22454   1.197   2.887   1.279 -0.7185 -0.1926  0.1226
 6319SOL    HW122455   1.202   2.983   1.281  1.0287 -0.2167 -0.9334
 6319SOL    HW222456   1.273   2.858   1.330  0.2615 -0.9613 -1.6680
 6320SOL     OW22457   9.117   7.930   0.358 -0.1637  0.4881  0.1376
 6320SOL    HW122458   9.153   8.012   0.393  1.6387 -0.1918 -0.0239
 6320SOL    HW222459   9.106   7.875   0.435  1.4119 -0.1185 -0.0370
 6321SOL     OW22460   8.202   6.928   6.160  0.4903 -0.1130 -0.0503
 6321SOL    HW122461   8.187   6.964   6.072 -0.7388 -1.0154 -0.2425
 6321SOL    HW222462   8.164   6.840   6.156  0.9485 -0.3849  1.2185
 6322SOL     OW22463   7.771  10.846   5.810  0.4461  0.3694 -0.1753
 6322SOL    HW122464   7.686  10.889   5.824  0.3729  0.3321 -0.4973
 6322SOL    HW222465   7.834  10.917   5.815  0.4148  0.3753  0.2221
 6323SOL     OW22466   6.100  10.330   4.622 -0.1867 -0.0190  0.6508
 6323SOL    HW122467   6.091  10.426   4.619 -0.2207 -0.0270 -1.9981
 6323SOL    HW222468   6.065  10.306   4.707  2.5492  2.5548  2.6887
 6324SOL     OW22469   8.313   4.963   0.333 -0.1050  0.2945  0.3825
 6324SOL    HW122470   8.350   5.028   0.393 -0.5697  1.5953 -0.6951
 6324SOL    HW222471   8.221   4.955   0.359  0.3046 -1.2234  1.5720
 6325SOL     OW22472   7.325   2.675   3.244  0.0125 -0.2168  0.9396
 6325SOL    HW122473   7.298   2.584   3.259  0.0328 -0.1549  1.3506
 6325SOL    HW222474   7.261   2.709   3.181  0.4539 -0.7447  0.1876
 6326SOL     OW22475   5.380   9.094   0.978 -0.2865 -0.8771  0.5785
 6326SOL    HW122476   5.454   9.151   0.957 -0.3932 -1.8121 -2.9523
 6326SOL    HW222477   5.303   9.145   0.954 -0.5149 -1.4924 -0.0251
 6327SOL     OW22478  10.311   4.602  10.080 -0.5019 -0.0314 -0.1012
 6327SOL    HW122479  10.297   4.676  10.139 -1.5820 -0.4433  0.1782
 6327SOL    HW222480  10.249   4.535  10.109  0.1900 -0.9151 -0.5873
 6328SOL     OW22481   1.858   3.454   5.927 -0.0843  0.0031 -0.1625
 6328SOL    HW122482   1.930   3.480   5.985 -1.5705  0.1757  1.6793
 6328SOL    HW222483   1.878   3.364   5.903  0.2790 -0.2687  1.0854
 6329SOL     OW22484   4.986   4.389   7.909  0.1538  0.5737 -0.1363
 6329SOL    HW122485   5.010   4.472   7.868  1.7243 -0.4379 -1.3607
 6329SOL    HW222486   4.905   4.363   7.865  0.5414  0.6635 -0.9159
 6330SOL     OW22487   1.822   1.406  10.506  0.3043 -0.2315  0.4613
 6330SOL    HW122488   1.734   1.373  10.489  0.8617 -0.5468 -2.4059
 6330SOL    HW222489   1.811   1.501  10.515 -0.4623 -0.4079  1.4264
 6331SOL     OW22490   8.453  10.278   8.625  0.3659 -1.1379 -0.1230
 6331SOL    HW122491   8.480  10.242   8.541 -2.2942 -1.3250 -1.0119
 6331SOL    HW222492   8.398  10.354   8.602 -1.1750 -1.7312  1.3625
 6332SOL     OW22493  10.452   3.881   9.856  0.6164 -0.1636 -0.1720
 6332SOL    HW122494  10.476   3.916   9.770  1.4754 -0.8738 -0.2412
 6332SOL    HW222495  10.462   3.954   9.916  0.8981  0.1036 -0.5434
 6333SOL     OW22496   5.721   8.571   9.167  0.2875  0.5657 -0.0724
 6333SOL    HW122497   5.805   8.602   9.202  0.4269  1.3527 -1.0820
 6333SOL    HW222498   5.662   8.645   9.179  0.1840  0.6291 -0.9415
 6334SOL     OW22499   4.910   8.609   2.931  0.2169  0.1051 -0.1819
 6334SOL    HW122500   4.956   8.692   2.941 -0.0336  0.2356 -0.1338
 6334SOL    HW222501   4.964   8.546   2.981  0.3932  0.2398 -0.2015
 6335SOL     OW22502   5.413   7.630   7.372 -0.4930  0.5286  0.1361
 6335SOL    HW122503   5.439   7.544   7.340 -0.8284  0.3378  0.3607
 6335SOL    HW222504   5.467   7.692   7.323 -1.6890  0.3186 -1.5730
 6336SOL     OW22505   7.942   2.022   1.746  0.1863 -0.5869 -0.7349
 6336SOL    HW122506   7.910   2.009   1.835  0.3768  1.1558 -0.3744
 6336SOL    HW222507   7.870   2.065   1.700  1.0791  1.2002 -0.5721
 6337SOL     OW22508   6.667   9.823   9.392  0.1390 -0.1503 -0.6159
 6337SOL    HW122509   6.603   9.812   9.463 -0.1781 -1.0672 -1.0240
 6337SOL    HW222510   6.750   9.834   9.437 -0.2425  0.6395 -0.0804
 6338SOL     OW22511   6.755   9.467  10.422 -0.3608 -0.3536  0.0931
 6338SOL    HW122512   6.825   9.478  10.357 -0.9521  2.0233 -0.2371
 6338SOL    HW222513   6.802   9.455  10.505  0.5497  2.1722  0.0363
 6339SOL     OW22514   8.232   7.410   7.997 -0.2788 -0.1419  0.0109
 6339SOL    HW122515   8.294   7.481   7.984 -1.0327  0.3983 -0.6745
 6339SOL    HW222516   8.238   7.390   8.091 -0.8260  1.5388  0.4385
 6340SOL     OW22517   9.260   8.496   9.562 -0.4542  0.0974 -0.1868
 6340SOL    HW122518   9.242   8.505   9.468  1.8137 -1.1853 -0.8226
 6340SOL    HW222519   9.354   8.513   9.570 -0.6086  0.2407  1.8937
 6341SOL     OW22520   4.375   2.218   3.627  0.0305 -0.0057 -0.4780
 6341SOL    HW122521   4.461   2.212   3.587 -0.5456  1.4770 -2.0659
 6341SOL    HW222522   4.386   2.181   3.715  2.0429 -0.6500 -0.9628
 6342SOL     OW22523   2.131   0.576   6.431  0.1395 -0.2951 -0.0789
 6342SOL    HW122524   2.224   0.561   6.446  0.6458  1.6799 -0.9695
 6342SOL    HW222525   2.108   0.517   6.359  0.2632 -2.0058  1.2354
 6343SOL     OW22526   2.670   1.239   2.381  0.1300  0.7266  0.2802
 6343SOL    HW122527   2.728   1.262   2.308  1.1690 -1.4009  0.3660
 6343SOL    HW222528   2.697   1.299   2.452 -0.5573  2.4788 -0.8618
 6344SOL     OW22529   0.487   0.471   4.419  0.0752  0.0922  0.2964
 6344SOL    HW122530   0.511   0.461   4.511  0.1578  1.0530  0.3870
 6344SOL    HW222531   0.566   0.504   4.376  0.3281 -1.2299 -0.3177
 6345SOL     OW22532   1.178   3.838   3.736 -0.3014  0.1328  0.2225
 6345SOL    HW122533   1.185   3.823   3.642 -2.2868  2.4991 -0.4215
 6345SOL    HW222534   1.255   3.890   3.758 -1.3178  2.1930 -0.8175
 6346SOL     OW22535   0.683  10.720   5.724 -0.8595 -0.1258 -0.3710
 6346SOL    HW122536   0.676  10.814   5.704  0.1119  0.4940  1.8551
 6346SOL    HW222537   0.773  10.698   5.703 -0.8803 -0.3771 -0.1940
 6347SOL     OW22538   7.840   8.735   2.624  0.1388 -0.2598 -0.6031
 6347SOL    HW122539   7.915   8.717   2.567  0.1676  0.8309 -0.9271
 6347SOL    HW222540   7.770   8.682   2.588  0.4586 -0.4395 -0.9728
 6348SOL     OW22541   1.242   4.486   8.797  0.2101 -0.3758  0.3319
 6348SOL    HW122542   1.149   4.464   8.803 -0.4576  1.5313 -1.7018
 6348SOL    HW222543   1.280   4.453   8.879 -2.4375 -0.3051  1.6878
 6349SOL     OW22544   3.315  10.992   2.619 -0.3607 -0.1980 -0.0540
 6349SOL    HW122545   3.391  10.991   2.560 -1.4896  0.5407 -1.5880
 6349SOL    HW222546   3.245  10.949   2.570 -1.2404  0.1064  0.8903
 6350SOL     OW22547  10.032   7.575   1.785  0.3012 -0.5505  0.0935
 6350SOL    HW122548  10.113   7.528   1.768  0.4488 -0.5162  0.6723
 6350SOL    HW222549  10.054   7.667   1.770  0.6211 -0.4494  1.1130
 6351SOL     OW22550   5.119   2.292   2.264 -0.0284  0.0262  0.3557
 6351SOL    HW122551   5.033   2.316   2.230 -0.9540 -0.2005  2.3670
 6351SOL    HW222552   5.102   2.259   2.352  2.0379 -0.8767  0.4866
 6352SOL     OW22553   2.940   2.063   2.166 -0.0474  0.3420 -0.3178
 6352SOL    HW122554   2.975   2.143   2.126 -0.0004  0.1223 -0.7202
 6352SOL    HW222555   2.864   2.093   2.216 -0.9719  0.4239 -1.7331
 6353SOL     OW22556   5.590   0.363  10.169  0.0642  0.0186 -0.4822
 6353SOL    HW122557   5.604   0.352  10.263 -2.3304  1.5220  0.1445
 6353SOL    HW222558   5.541   0.445  10.161 -0.7756 -0.6205 -2.9362
 6354SOL     OW22559   4.751   3.352   2.619 -0.3288 -0.7604 -0.4338
 6354SOL    HW122560   4.830   3.393   2.653 -0.7151 -0.6088  0.3061
 6354SOL    HW222561   4.700   3.424   2.582 -1.0378 -0.5296  0.9254
 6355SOL     OW22562   2.833  10.361   5.578 -0.1599  0.2769  0.2658
 6355SOL    HW122563   2.851  10.452   5.554  0.7269  0.2498  0.7570
 6355SOL    HW222564   2.739  10.359   5.598 -0.4028  0.8342 -0.7771
 6356SOL     OW22565  10.265   0.782  10.819 -0.2035 -0.1049  0.2059
 6356SOL    HW122566  10.274   0.730  10.739  1.1778  0.8015 -0.2596
 6356SOL    HW222567  10.264   0.718  10.890 -0.8501 -0.8830 -0.4824
 6357SOL     OW22568   1.825   1.062   4.085  0.5265 -0.3204 -0.0651
 6357SOL    HW122569   1.882   1.138   4.100 -0.5954  0.2186  1.8785
 6357SOL    HW222570   1.739   1.091   4.116  0.0503 -2.3536  0.6449
 6358SOL     OW22571   6.310   9.003   1.015 -1.1435 -0.1548 -0.5260
 6358SOL    HW122572   6.227   9.010   0.967 -1.8129 -0.2584  0.5853
 6358SOL    HW222573   6.346   8.918   0.989 -2.4373 -1.0781  0.5723
 6359SOL     OW22574   5.952   2.761   2.899 -0.1295 -0.2484  0.0298
 6359SOL    HW122575   5.911   2.778   2.984  0.8826  0.6499  0.3568
 6359SOL    HW222576   5.934   2.669   2.882 -0.8214 -0.3015  0.9560
 6360SOL     OW22577   7.054   4.678   5.123  0.3688 -0.2893 -1.0174
 6360SOL    HW122578   6.992   4.660   5.052  0.7364 -1.1121 -1.1290
 6360SOL    HW222579   7.034   4.613   5.189  1.4550 -0.8892 -1.2691
 6361SOL     OW22580   6.473   3.299   7.173  0.0773 -0.3564 -0.1843
 6361SOL    HW122581   6.497   3.391   7.180 -1.3375 -0.0384  1.1024
 6361SOL    HW222582   6.441   3.290   7.083  0.0852  0.4514 -0.2782
 6362SOL     OW22583   9.663   1.327   6.631 -0.1845 -0.0825  0.1748
 6362SOL    HW122584   9.629   1.357   6.547 -1.4701 -0.5743  0.4855
 6362SOL    HW222585   9.726   1.393   6.658 -0.5991  0.6601 -0.6500
 6363SOL     OW22586   8.170   7.936   6.700  0.2662  0.0233 -0.6484
 6363SOL    HW122587   8.099   7.946   6.636  0.6709  1.1272 -0.9617
 6363SOL    HW222588   8.234   8.002   6.673  0.4996  0.4204  0.8358
 6364SOL     OW22589   8.777   9.094   4.426  0.1559  0.3597 -0.3826
 6364SOL    HW122590   8.763   9.176   4.474  2.9182  1.2445 -0.8725
 6364SOL    HW222591   8.855   9.056   4.466 -1.1220 -2.1571 -0.0980
 6365SOL     OW22592   5.676   2.854   2.183  0.3328  0.0260  0.1599
 6365SOL    HW122593   5.620   2.867   2.260 -0.4346  0.4883 -0.4594
 6365SOL    HW222594   5.745   2.796   2.214  0.1715  0.3856  1.2638
 6366SOL     OW22595   6.806   0.500   2.448  0.1099 -0.0620 -0.5699
 6366SOL    HW122596   6.793   0.418   2.496 -2.6249  0.4508 -0.2656
 6366SOL    HW222597   6.834   0.472   2.360  0.2969 -1.2464 -0.1551
 6367SOL     OW22598   8.519   8.444   3.067  0.0164  0.2326  0.6490
 6367SOL    HW122599   8.487   8.463   2.979  0.2684 -0.2122  0.4624
 6367SOL    HW222600   8.454   8.383   3.103  0.7016 -0.7517  0.2332
 6368SOL     OW22601   6.510   8.643   7.081 -0.1526 -0.3435 -0.4803
 6368SOL    HW122602   6.426   8.607   7.110  0.1006  0.3966  1.3125
 6368SOL    HW222603   6.535   8.704   7.151  1.5656 -0.0723 -1.2912
 6369SOL     OW22604   6.820   3.266   5.604 -0.6443  0.4944  0.4433
 6369SOL    HW122605   6.902   3.220   5.586 -0.5916  0.7633 -0.0228
 6369SOL    HW222606   6.844   3.359   5.604 -0.4171  0.5265  2.9886
 6370SOL     OW22607   8.157  10.185   8.101 -0.7448  0.5387  0.1487
 6370SOL    HW122608   8.087  10.124   8.077 -1.0144  0.3626  1.3208
 6370SOL    HW222609   8.207  10.197   8.020 -0.0718 -2.0347  0.0957
 6371SOL     OW22610   4.885   8.812   9.894  0.1597 -0.1071  0.0151
 6371SOL    HW122611   4.797   8.840   9.919  0.5244 -0.4395  1.8167
 6371SOL    HW222612   4.927   8.891   9.859 -1.0558 -0.1144 -1.5597
 6372SOL     OW22613   6.451   2.838   7.180 -0.3169  0.3883  0.3476
 6372SOL    HW122614   6.365   2.822   7.219 -0.7135  2.4409  0.3908
 6372SOL    HW222615   6.434   2.843   7.086 -0.0147 -0.4650  0.2359
 6373SOL     OW22616   4.007   7.028   2.232 -0.4298  0.0212 -0.1325
 6373SOL    HW122617   4.039   6.974   2.304  2.4128  1.6020 -0.0444
 6373SOL    HW222618   4.068   7.012   2.160 -1.1700  1.0250 -1.0241
 6374SOL     OW22619   2.017   5.446   0.002  0.0436  0.3165  0.3910
 6374SOL    HW122620   2.003   5.531   0.043 -2.0388  0.0680  0.2954
 6374SOL    HW222621   2.030   5.465  -0.091  0.0573  0.5519  0.4423
 6375SOL     OW22622   2.455   0.418   3.433  0.2273  0.0096 -0.2899
 6375SOL    HW122623   2.514   0.493   3.427  1.4856 -1.0101 -1.2419
 6375SOL    HW222624   2.496   0.360   3.499 -1.3144  0.6083  1.2789
 6376SOL     OW22625   3.351   3.434   3.606 -0.7926  0.0830  0.4025
 6376SOL    HW122626   3.423   3.430   3.670 -2.1793 -0.4323  2.0144
 6376SOL    HW222627   3.395   3.445   3.522  1.1963 -0.6099  1.2701
 6377SOL     OW22628   3.539   7.091   8.184  0.0309  0.0021 -0.1642
 6377SOL    HW122629   3.451   7.119   8.162  0.1661 -0.8787 -1.9969
 6377SOL    HW222630   3.597   7.152   8.138  0.3241 -1.1615 -1.4281
 6378SOL     OW22631  10.644  10.829   1.070  0.0801 -0.1334 -0.2703
 6378SOL    HW122632  10.687  10.824   0.984  0.4371 -0.6019 -0.0713
 6378SOL    HW222633  10.553  10.806   1.053  0.2880 -0.8482 -0.4253
 6379SOL     OW22634   9.243   0.028   9.350 -0.0449 -0.1104  0.3192
 6379SOL    HW122635   9.258  -0.040   9.286 -1.3934 -2.4392  2.3087
 6379SOL    HW222636   9.152   0.016   9.378 -0.2076  2.2576  1.0649
 6380SOL     OW22637   2.786   7.652   4.754 -0.0191 -0.2127 -0.0424
 6380SOL    HW122638   2.713   7.600   4.719 -0.0148  0.3995 -0.9989
 6380SOL    HW222639   2.744   7.727   4.795 -0.0194 -0.8992  1.2595
 6381SOL     OW22640   3.118   1.245  10.932 -0.2924 -0.0114  0.1039
 6381SOL    HW122641   3.125   1.334  10.968 -0.4833  1.1779 -2.5380
 6381SOL    HW222642   3.092   1.191  11.006 -0.6453  2.2097  1.7090
 6382SOL     OW22643  10.523  10.247   1.785 -0.1057  0.0546  0.6374
 6382SOL    HW122644  10.439  10.233   1.741 -0.0625  0.9613  0.2324
 6382SOL    HW222645  10.524  10.341   1.804  1.3138  0.2806 -0.4038
 6383SOL     OW22646   3.618   6.488  10.979  0.2485 -0.2418  0.7380
 6383SOL    HW122647   3.593   6.404  10.940 -1.6164  0.9067 -0.6980
 6383SOL    HW222648   3.561   6.497  11.055  1.0414 -0.6308  1.3931
 6384SOL     OW22649  10.665   5.100   1.523 -0.3922 -0.1188 -0.2423
 6384SOL    HW122650  10.704   5.069   1.441 -0.4180 -0.2774 -0.1939
 6384SOL    HW222651  10.739   5.135   1.573 -0.1023 -1.5711  0.3909
 6385SOL     OW22652   9.376   9.169   8.153  0.0560 -0.2395 -0.0458
 6385SOL    HW122653   9.321   9.175   8.075  1.6295 -1.6226 -1.3314
 6385SOL    HW222654   9.374   9.077   8.177  0.5744 -0.0396  0.8050
 6386SOL     OW22655   0.656   0.268   5.446 -0.0300 -0.6292 -0.0390
 6386SOL    HW122656   0.619   0.299   5.529 -2.2746 -0.6666 -0.9626
 6386SOL    HW222657   0.585   0.278   5.383  1.5053 -0.9538 -1.9064
 6387SOL     OW22658   7.242   5.043   5.337 -0.0712  0.6493  0.3770
 6387SOL    HW122659   7.241   5.138   5.350  0.4640  0.8433 -0.8062
 6387SOL    HW222660   7.152   5.015   5.356 -0.0002  1.2334  1.6894
 6388SOL     OW22661   8.994   8.258   9.923  0.1580  0.1767 -0.6083
 6388SOL    HW122662   9.010   8.187   9.985 -0.5522 -0.0745 -0.7099
 6388SOL    HW222663   9.082   8.289   9.900  0.4368  0.1639  0.3854
 6389SOL     OW22664   7.664   1.924   9.440  0.2658 -0.8132 -0.1946
 6389SOL    HW122665   7.631   1.919   9.529 -0.1335  1.1737 -0.1919
 6389SOL    HW222666   7.702   1.837   9.423 -1.1108 -1.7442  1.3008
 6390SOL     OW22667   9.494   7.160   7.241  0.1336  0.0477 -0.1144
 6390SOL    HW122668   9.403   7.133   7.256 -0.2125  0.6484 -1.0507
 6390SOL    HW222669   9.492   7.255   7.244  0.8560  0.0512  0.4809
 6391SOL     OW22670   4.927   1.622   0.033  0.2408  0.2503  0.2494
 6391SOL    HW122671   4.993   1.552   0.033  0.6072  0.5248  2.2908
 6391SOL    HW222672   4.978   1.702   0.015  0.0140  0.1650 -0.8444
 6392SOL     OW22673   3.435   7.056   0.468  0.2723  0.5580 -0.7548
 6392SOL    HW122674   3.423   7.029   0.559  2.1074  3.1206  0.3900
 6392SOL    HW222675   3.355   7.105   0.447 -1.2482 -2.0177 -1.4793
 6393SOL     OW22676   3.113   4.042   2.972  0.0700  0.3911  0.1735
 6393SOL    HW122677   3.202   4.072   2.952 -0.6960  3.5023  0.9265
 6393SOL    HW222678   3.083   4.001   2.891  1.6485  0.6768 -0.5985
 6394SOL     OW22679   4.644   6.611   6.689  0.0845  0.0224 -0.3999
 6394SOL    HW122680   4.638   6.521   6.720  1.8575 -0.2033 -0.6115
 6394SOL    HW222681   4.669   6.662   6.766  1.1291 -0.0112 -0.6983
 6395SOL     OW22682   0.780   2.899   3.951 -0.0128  0.6281  0.1274
 6395SOL    HW122683   0.814   2.885   4.039 -1.0033 -0.0067  0.4249
 6395SOL    HW222684   0.708   2.836   3.943  1.1422 -0.5560 -1.7475
 6396SOL     OW22685   4.159   0.033   3.570  0.9303  0.2025  0.3415
 6396SOL    HW122686   4.137   0.067   3.483 -0.9052 -0.3600  0.5523
 6396SOL    HW222687   4.179  -0.059   3.556 -1.9770 -0.6079  0.7698
 6397SOL     OW22688   1.626   5.042   8.209 -0.0039  0.1861  0.0780
 6397SOL    HW122689   1.561   5.021   8.142 -2.7755  0.6857  2.3762
 6397SOL    HW222690   1.603   4.985   8.283  2.3428  0.2740  0.9561
 6398SOL     OW22691   8.170   0.837   1.099  0.6216 -0.8752  0.1715
 6398SOL    HW122692   8.157   0.747   1.129 -0.8704 -1.0059 -0.7616
 6398SOL    HW222693   8.265   0.850   1.102  0.8612 -2.4925  0.2550
 6399SOL     OW22694   0.590   0.810   1.805  0.0321 -0.2200  0.1255
 6399SOL    HW122695   0.530   0.741   1.832 -0.4901 -0.5260 -1.6564
 6399SOL    HW222696   0.540   0.892   1.816 -0.0604 -0.3139  0.3882
 6400SOL     OW22697   8.370   8.792   2.915  1.0487 -0.1554  0.0160
 6400SOL    HW122698   8.393   8.882   2.936  1.4427 -0.7844  2.6515
 6400SOL    HW222699   8.343   8.754   2.999  0.8485 -2.4768 -1.0164
 6401SOL     OW22700   3.769   9.701   4.417 -0.0817  0.1501 -0.0314
 6401SOL    HW122701   3.760   9.611   4.447 -1.2307  0.8692  1.9905
 6401SOL    HW222702   3.854   9.704   4.374  0.2254 -1.7605  0.3654
 6402SOL     OW22703   2.340   6.518   9.202 -0.0433  0.0259  0.5058
 6402SOL    HW122704   2.405   6.526   9.272 -0.1353 -1.8103  0.8721
 6402SOL    HW222705   2.259   6.496   9.248 -0.4016  0.0699 -0.0933
 6403SOL     OW22706  10.905   4.034   4.454  0.1290  0.5115 -0.5703
 6403SOL    HW122707  10.850   3.972   4.502  0.7394  0.1187 -0.3538
 6403SOL    HW222708  10.845   4.080   4.396 -0.2883 -0.5477 -1.0134
 6404SOL     OW22709   1.006   7.884   6.259 -0.2521 -0.7800  0.9498
 6404SOL    HW122710   0.955   7.820   6.209  0.1150 -0.6199  0.3470
 6404SOL    HW222711   1.022   7.842   6.343 -0.3594 -1.3165  0.7075
 6405SOL     OW22712   9.018   6.431   8.812  0.4149  0.1145 -0.0350
 6405SOL    HW122713   9.024   6.518   8.774  0.3187  0.9503  1.7463
 6405SOL    HW222714   9.102   6.390   8.795 -0.4415 -0.5486 -3.2797
 6406SOL     OW22715   3.666   8.562   0.451 -0.0513  0.2372  0.1907
 6406SOL    HW122716   3.740   8.622   0.448  0.8045 -0.8183 -0.5054
 6406SOL    HW222717   3.652   8.546   0.545  2.1599 -1.3745  0.3079
 6407SOL     OW22718   4.956   3.025   5.063  0.1877  0.0949 -0.4447
 6407SOL    HW122719   4.985   3.033   4.972 -1.9960  0.3570 -1.1881
 6407SOL    HW222720   4.863   3.047   5.060  0.3047  1.2826  2.0577
 6408SOL     OW22721   8.550   9.877   7.903 -0.1370 -0.1607  0.0850
 6408SOL    HW122722   8.505   9.795   7.884  2.0040 -1.1009 -1.3534
 6408SOL    HW222723   8.553   9.882   7.998 -0.9518 -1.3607  0.1954
 6409SOL     OW22724   0.580   6.674   0.084 -0.2093  0.3418  0.1787
 6409SOL    HW122725   0.538   6.753   0.119  0.9605  1.4930 -0.8705
 6409SOL    HW222726   0.640   6.647   0.154  1.2033  1.8988 -0.3378
 6410SOL     OW22727   6.556   4.216   5.444 -0.2200 -0.1933 -0.8143
 6410SOL    HW122728   6.469   4.177   5.444 -1.3865  2.1402  0.3235
 6410SOL    HW222729   6.573   4.239   5.353 -0.8776 -0.5456 -1.0287
 6411SOL     OW22730   2.639   3.681   0.439 -0.0431 -0.0847 -0.5573
 6411SOL    HW122731   2.644   3.618   0.511 -1.5908  0.1898 -0.1819
 6411SOL    HW222732   2.607   3.629   0.365 -0.9560  0.1560 -0.3456
 6412SOL     OW22733   6.307  10.147   4.101 -0.8192  0.4072 -0.6982
 6412SOL    HW122734   6.265  10.168   4.184  0.6405 -0.2400  0.2381
 6412SOL    HW222735   6.358  10.068   4.119 -0.0795  0.5449 -2.0644
 6413SOL     OW22736   7.181   4.785  10.139 -0.1703  0.1642 -0.4201
 6413SOL    HW122737   7.121   4.734  10.193 -0.0373 -0.2697 -0.6786
 6413SOL    HW222738   7.160   4.877  10.159 -1.1944  0.0207 -0.8293
 6414SOL     OW22739   3.791   2.290   6.639  0.1902 -0.2236  0.1923
 6414SOL    HW122740   3.782   2.383   6.659  3.0769 -0.0724  1.2303
 6414SOL    HW222741   3.805   2.287   6.544 -0.5535  0.3248  0.0608
 6415SOL     OW22742   2.337   1.027   9.763  0.0627  0.6101  0.3040
 6415SOL    HW122743   2.275   1.048   9.833 -1.9145 -0.7373 -0.9286
 6415SOL    HW222744   2.330   0.932   9.752  1.0187  0.6593 -1.0741
 6416SOL     OW22745   1.096   1.720  10.550 -0.0259  0.3046 -0.2127
 6416SOL    HW122746   1.127   1.723  10.641  2.2577 -1.4262 -0.8326
 6416SOL    HW222747   1.007   1.687  10.557 -0.7654  2.4489  1.5056
 6417SOL     OW22748   0.967   7.500   9.060 -0.1350 -0.6974 -0.0128
 6417SOL    HW122749   0.941   7.528   8.972  0.9324  0.3357 -0.0254
 6417SOL    HW222750   1.037   7.436   9.045 -0.0440 -0.6194  0.0733
 6418SOL     OW22751   5.001   1.391   9.673  0.4869  0.3644 -0.2652
 6418SOL    HW122752   4.958   1.310   9.644  1.5572  0.5259 -2.5039
 6418SOL    HW222753   5.084   1.392   9.626  2.0411  1.1263  2.3009
 6419SOL     OW22754   0.938  10.237   5.995  0.5931  0.0359 -0.5591
 6419SOL    HW122755   0.948  10.327   5.962 -0.4613  0.6894  0.7686
 6419SOL    HW222756   0.844  10.228   6.011  0.8871 -0.6257  1.0690
 6420SOL     OW22757   0.436   4.846   6.311 -0.6413 -0.2257  0.0491
 6420SOL    HW122758   0.410   4.802   6.230  2.9737 -0.9010 -0.9297
 6420SOL    HW222759   0.478   4.927   6.283  0.7031 -0.4812  1.1622
 6421SOL     OW22760   6.321   6.161   1.100 -1.3799 -0.3214 -0.2230
 6421SOL    HW122761   6.247   6.138   1.044 -1.8443 -2.1375  1.0636
 6421SOL    HW222762   6.284   6.168   1.188 -0.2756  0.1527  0.2190
 6422SOL     OW22763   5.882   1.917   4.537 -0.2856  0.0237 -0.1391
 6422SOL    HW122764   5.894   1.932   4.630  1.3223 -1.5793 -0.0304
 6422SOL    HW222765   5.789   1.935   4.521 -0.3548  1.4016  1.5197
 6423SOL     OW22766   9.860   2.453   8.503  0.0051  0.1726 -0.0208
 6423SOL    HW122767   9.878   2.510   8.428 -2.0692  0.9115 -0.0214
 6423SOL    HW222768   9.787   2.398   8.474 -0.0456 -0.3430  1.0516
 6424SOL     OW22769   9.532   5.085  10.812  0.1385 -0.1372 -0.5949
 6424SOL    HW122770   9.515   4.993  10.834 -0.2082  0.3379  1.2997
 6424SOL    HW222771   9.540   5.129  10.896 -1.8256  1.9643 -1.4061
 6425SOL     OW22772   4.995   5.179   1.246  0.2488 -0.3129  0.6570
 6425SOL    HW122773   4.996   5.131   1.163  0.5177 -0.5517  0.7981
 6425SOL    HW222774   4.903   5.201   1.259  0.3975  1.2185 -0.5485
 6426SOL     OW22775   8.959   5.716   7.282  0.0896  0.0776  0.1582
 6426SOL    HW122776   8.941   5.804   7.247  1.7487 -0.6751 -3.0225
 6426SOL    HW222777   8.879   5.691   7.327 -1.7201  1.9169 -1.7907
 6427SOL     OW22778   9.431   2.447   8.144 -0.0409  0.2220  0.4313
 6427SOL    HW122779   9.344   2.483   8.163 -0.8594 -1.2852 -0.2618
 6427SOL    HW222780   9.459   2.494   8.065 -0.4072  0.4378  0.4236
 6428SOL     OW22781   3.416   3.560   4.287 -0.1918 -0.3443 -0.2674
 6428SOL    HW122782   3.366   3.511   4.353  1.7077 -1.2979  0.5268
 6428SOL    HW222783   3.454   3.633   4.336  0.0809 -0.2516 -0.6182
 6429SOL     OW22784   5.297   5.358   9.375  0.1617  0.4945 -0.5594
 6429SOL    HW122785   5.243   5.406   9.438  1.1504  0.1418  0.5922
 6429SOL    HW222786   5.272   5.267   9.386 -0.6248  0.5555 -1.6662
 6430SOL     OW22787  10.871   3.678   0.012 -0.4368  0.3152 -0.3168
 6430SOL    HW122788  10.917   3.645  -0.065 -1.5612 -0.2212 -0.7731
 6430SOL    HW222789  10.889   3.614   0.081  0.5386  0.7769 -0.1087
 6431SOL     OW22790   4.740   3.174  10.939 -0.1927 -0.1941 -0.0246
 6431SOL    HW122791   4.802   3.129  10.996 -0.4142 -1.4058 -0.7173
 6431SOL    HW222792   4.795   3.214  10.871 -0.1260 -1.0737 -0.5080
 6432SOL     OW22793   5.297   3.429   2.630  0.2958  0.6713 -0.1443
 6432SOL    HW122794   5.381   3.473   2.640  0.7487 -0.3140  0.4593
 6432SOL    HW222795   5.260   3.428   2.718  1.9187 -3.3167  0.6906
 6433SOL     OW22796   4.396   6.176   0.896 -0.9194 -0.2688  0.0851
 6433SOL    HW122797   4.377   6.128   0.815 -1.9004  0.6515 -0.2511
 6433SOL    HW222798   4.310   6.193   0.935 -0.5316  0.3960  0.6740
 6434SOL     OW22799   0.760   1.980   0.609 -0.4675  0.0214 -0.7022
 6434SOL    HW122800   0.709   1.940   0.679 -0.2127 -2.0051 -1.6177
 6434SOL    HW222801   0.779   1.909   0.548  3.1601  0.7129 -0.6097
 6435SOL     OW22802   5.634   9.689   8.054 -0.0607  0.0266 -0.6651
 6435SOL    HW122803   5.656   9.612   8.002 -0.3237 -1.0076  0.7046
 6435SOL    HW222804   5.634   9.658   8.144 -0.4299  1.5819 -0.0987
 6436SOL     OW22805   5.386   0.804   2.053 -0.3533 -0.3188 -0.2896
 6436SOL    HW122806   5.325   0.826   2.123 -1.0785 -2.1544 -0.2801
 6436SOL    HW222807   5.345   0.838   1.973 -0.5762 -0.1079 -0.0865
 6437SOL     OW22808   1.796   9.402   4.286 -0.2254  0.6277 -0.1435
 6437SOL    HW122809   1.754   9.327   4.328 -1.6567  0.4426 -1.8221
 6437SOL    HW222810   1.725   9.464   4.270  0.5099  1.2743 -1.0528
 6438SOL     OW22811   8.025   3.294   9.717  0.2100 -0.5316 -0.1423
 6438SOL    HW122812   7.943   3.285   9.765  0.5622 -0.0512  0.5720
 6438SOL    HW222813   7.999   3.296   9.625 -0.6896  0.6562  0.1059
 6439SOL     OW22814   3.509   7.797   9.068  0.1880  0.0501 -0.0644
 6439SOL    HW122815   3.602   7.775   9.074  0.7477  2.2011  0.1915
 6439SOL    HW222816   3.481   7.809   9.159 -0.3762 -0.6681 -0.1359
 6440SOL     OW22817   9.598   1.925   2.689 -0.6237  0.2617  0.6111
 6440SOL    HW122818   9.587   1.995   2.624 -1.2593 -0.9481 -0.6490
 6440SOL    HW222819   9.655   1.862   2.646  0.0630  0.0596  1.7934
 6441SOL     OW22820   3.907   5.124   0.580 -0.3304  0.3053 -0.3396
 6441SOL    HW122821   3.813   5.141   0.577 -0.1303  2.0346  1.4104
 6441SOL    HW222822   3.946   5.209   0.597  1.4543 -0.6143  0.4111
 6442SOL     OW22823  10.216   4.898   4.932  0.0151 -0.5591 -0.8768
 6442SOL    HW122824  10.303   4.916   4.895  0.3685 -1.6946 -0.6394
 6442SOL    HW222825  10.177   4.985   4.944  1.8840  0.1325  0.8418
 6443SOL     OW22826   1.904   7.831   1.784 -0.0854 -0.7554  0.1654
 6443SOL    HW122827   1.935   7.804   1.871  0.3860  1.3177  0.6927
 6443SOL    HW222828   1.845   7.905   1.802 -1.2331 -1.2971 -1.1984
 6444SOL     OW22829   5.995   7.242   0.941  0.1752  0.2939  0.5583
 6444SOL    HW122830   6.049   7.188   0.999 -0.0259 -0.4335  0.0690
 6444SOL    HW222831   6.035   7.329   0.946  1.3976 -0.2288  0.2012
 6445SOL     OW22832  10.555   3.765   0.474 -0.3736  0.1033  0.3458
 6445SOL    HW122833  10.598   3.795   0.554 -1.9359 -1.3383  1.8024
 6445SOL    HW222834  10.476   3.720   0.504 -2.1329  1.2881 -2.0994
 6446SOL     OW22835   1.749   7.201  10.767  0.4079  0.1738  0.0071
 6446SOL    HW122836   1.785   7.195  10.856 -1.6633  1.7962  1.0439
 6446SOL    HW222837   1.750   7.111  10.735  0.7879 -0.5448  1.8674
 6447SOL     OW22838   8.366   1.839   5.444  0.7820 -0.2991  0.1195
 6447SOL    HW122839   8.356   1.921   5.491  1.0238  1.0591 -2.0509
 6447SOL    HW222840   8.460   1.829   5.431  0.7351 -0.7881  0.1311
 6448SOL     OW22841  10.107   4.475   7.886  0.0152 -0.4703 -0.7032
 6448SOL    HW122842  10.023   4.449   7.924 -0.1350 -0.6373 -1.1415
 6448SOL    HW222843  10.121   4.413   7.814  0.6218 -0.5830 -0.4903
 6449SOL     OW22844   4.777   3.439   8.737  0.2723  0.4724  0.3585
 6449SOL    HW122845   4.713   3.409   8.673 -0.0450  0.7327  0.5470
 6449SOL    HW222846   4.856   3.458   8.686  0.3128 -0.1838  0.1739
 6450SOL     OW22847   9.890  10.869   5.353 -0.0614 -0.1894  0.2526
 6450SOL    HW122848   9.832  10.849   5.279 -0.4506  1.9596 -0.0743
 6450SOL    HW222849   9.954  10.930   5.317 -0.0643  0.6451  1.6000
 6451SOL     OW22850   7.001   8.541   4.299  0.4942 -0.2742  0.2082
 6451SOL    HW122851   6.947   8.522   4.223  0.2917  0.7502  0.0861
 6451SOL    HW222852   6.941   8.540   4.373  0.2805  0.8294  0.0765
 6452SOL     OW22853   5.866  10.531   9.881  0.0287  0.1175 -0.5258
 6452SOL    HW122854   5.935  10.514   9.817 -0.2737 -1.5669 -0.4436
 6452SOL    HW222855   5.901  10.601   9.936  1.1983  0.0632 -1.1628
 6453SOL     OW22856   6.175   9.259   2.888  0.2480 -0.0156  0.2474
 6453SOL    HW122857   6.244   9.322   2.870  1.9226 -1.7130  0.4049
 6453SOL    HW222858   6.147   9.279   2.977  1.9041 -0.4616  0.9051
 6454SOL     OW22859   8.643  10.869  10.610  0.2228  0.0490 -0.1226
 6454SOL    HW122860   8.575  10.807  10.634  1.1628 -0.4593  1.3481
 6454SOL    HW222861   8.614  10.952  10.648  0.5750 -0.2380  0.7828
 6455SOL     OW22862   3.113   2.806   1.046  0.0412  0.0589 -0.4910
 6455SOL    HW122863   3.083   2.801   0.955  0.2210  2.0319 -0.6906
 6455SOL    HW222864   3.131   2.715   1.070 -0.9979 -0.6074 -2.0860
 6456SOL     OW22865   1.778   6.708  10.662  0.3321 -0.7779 -0.4250
 6456SOL    HW122866   1.708   6.772  10.646 -0.2837 -1.9847 -2.9695
 6456SOL    HW222867   1.766   6.682  10.753  2.1163  4.3913  1.7039
 6457SOL     OW22868  10.063   5.657   1.806  0.5337  0.6623 -0.7510
 6457SOL    HW122869  10.122   5.586   1.780 -0.3744  0.5427 -2.6354
 6457SOL    HW222870   9.983   5.640   1.758 -2.1431 -0.6366  3.5742
 6458SOL     OW22871   6.319   4.383   4.606 -0.0204  0.0826 -0.4078
 6458SOL    HW122872   6.410   4.408   4.591  0.8863 -3.0893 -0.9663
 6458SOL    HW222873   6.274   4.406   4.524  0.8052 -0.3526 -1.0008
 6459SOL     OW22874   3.535   5.336   9.673  0.2803 -0.1976  0.3970
 6459SOL    HW122875   3.488   5.419   9.662  1.1530  0.1952 -0.6930
 6459SOL    HW222876   3.545   5.326   9.767 -1.8020 -0.2161  0.6585
 6460SOL     OW22877   7.208   3.598   0.881  0.3847 -0.9296  0.3751
 6460SOL    HW122878   7.259   3.528   0.842  0.2420 -0.2506 -1.1108
 6460SOL    HW222879   7.126   3.599   0.830  0.7369  0.8475 -0.2277
 6461SOL     OW22880   2.064   0.409   1.316 -0.3645 -0.2034 -0.1709
 6461SOL    HW122881   2.125   0.336   1.318  0.2549  0.0289 -3.8153
 6461SOL    HW222882   1.978   0.369   1.329  0.2018 -1.1335  0.7882
 6462SOL     OW22883   3.996   7.084   2.581  0.5004 -0.4190  0.5230
 6462SOL    HW122884   3.919   7.089   2.638 -1.1808  0.6097 -1.6760
 6462SOL    HW222885   4.005   7.173   2.545  1.6526 -0.9464 -0.5876
 6463SOL     OW22886   8.411   7.444   9.453  0.1554  0.0313 -0.4695
 6463SOL    HW122887   8.334   7.465   9.399  0.9824 -1.0141 -2.1489
 6463SOL    HW222888   8.433   7.526   9.496 -0.1295  1.1343 -2.3142
 6464SOL     OW22889   3.786   7.265   7.411  0.2425 -0.2350 -0.0023
 6464SOL    HW122890   3.764   7.308   7.328 -1.5962 -1.0113  0.0326
 6464SOL    HW222891   3.815   7.178   7.387 -3.4522 -1.7109  0.1699
 6465SOL     OW22892   3.723   2.322   0.309  0.0330 -0.5630 -0.5155
 6465SOL    HW122893   3.816   2.321   0.286  1.0072  0.6172  2.8544
 6465SOL    HW222894   3.691   2.404   0.273  1.0867  0.4442  0.7367
 6466SOL     OW22895   2.328  10.177   0.988 -0.4040 -0.5460  0.6055
 6466SOL    HW122896   2.280  10.096   1.002  0.1540 -1.1011 -0.5281
 6466SOL    HW222897   2.420  10.151   0.988 -0.2216  0.0650  0.1832
 6467SOL     OW22898   3.747   0.932   2.196  0.4488 -0.1234 -0.1689
 6467SOL    HW122899   3.675   0.915   2.135  0.6688  0.4751 -0.6062
 6467SOL    HW222900   3.792   1.009   2.160  0.8976 -0.0755  0.4673
 6468SOL     OW22901   2.577  10.354   6.814  0.6872  0.0020 -0.2986
 6468SOL    HW122902   2.649  10.407   6.779  2.1956 -1.3047  0.6926
 6468SOL    HW222903   2.576  10.276   6.758  0.6946 -0.4283  0.2953
 6469SOL     OW22904   9.069   2.988   2.410  0.0907 -0.8177 -0.0542
 6469SOL    HW122905   9.002   3.025   2.468 -0.7413 -1.2921 -0.6857
 6469SOL    HW222906   9.145   3.045   2.423 -1.1578  1.2351 -1.0348
 6470SOL     OW22907   1.924  10.124   3.948 -0.0890 -0.4264  0.0108
 6470SOL    HW122908   1.990  10.076   3.998 -0.8216 -0.3617  1.0862
 6470SOL    HW222909   1.944  10.106   3.856 -1.0583 -3.8064  0.3334
 6471SOL     OW22910   4.475  10.240   8.411  0.0270 -0.3979 -0.2704
 6471SOL    HW122911   4.550  10.180   8.412  0.5426  0.2284  0.1669
 6471SOL    HW222912   4.482  10.285   8.327 -1.5677 -2.3760 -1.5496
 6472SOL     OW22913   7.142   2.802   9.217 -0.0784 -0.4003 -0.0150
 6472SOL    HW122914   7.237   2.798   9.227  0.0700 -2.3599 -1.6304
 6472SOL    HW222915   7.108   2.744   9.285  0.1084 -2.1512 -1.3501
 6473SOL     OW22916   8.954   3.006   0.785 -0.0247  0.2131 -0.1090
 6473SOL    HW122917   9.044   3.007   0.819  0.3286 -0.8311 -0.9796
 6473SOL    HW222918   8.909   2.940   0.839  0.9508 -2.6645 -2.5257
 6474SOL     OW22919   8.628   4.676   3.166 -1.0635  0.1598  0.3625
 6474SOL    HW122920   8.685   4.674   3.089 -0.9292  0.4629  0.4537
 6474SOL    HW222921   8.636   4.588   3.204  2.4736  1.2724  2.6454
 6475SOL     OW22922   3.518   4.984   9.329  0.0982 -0.5639 -0.0311
 6475SOL    HW122923   3.511   4.902   9.279  0.6103  0.9523 -2.7661
 6475SOL    HW222924   3.429   5.020   9.328  0.4307  0.2690 -1.3669
 6476SOL     OW22925   1.747   5.294   7.606  0.2752 -0.6239  0.7213
 6476SOL    HW122926   1.749   5.384   7.572 -0.1557 -0.8611  0.0495
 6476SOL    HW222927   1.665   5.258   7.574  0.8105 -1.5200  0.3208
 6477SOL     OW22928   0.389   3.898   2.137  0.2258  0.5435  0.3690
 6477SOL    HW122929   0.334   3.890   2.215  0.9161  1.5472  0.9640
 6477SOL    HW222930   0.335   3.947   2.075 -1.1721 -2.0511 -0.6354
 6478SOL     OW22931   7.924   5.576   7.545  0.2249  0.1036 -0.2762
 6478SOL    HW122932   7.882   5.504   7.593  0.0068  0.6584  0.3909
 6478SOL    HW222933   7.946   5.640   7.613 -0.9532  1.3369 -1.0083
 6479SOL     OW22934   0.822   6.217   8.873 -0.0109 -0.2640 -0.5868
 6479SOL    HW122935   0.846   6.308   8.889 -2.2088  0.5253 -1.3826
 6479SOL    HW222936   0.734   6.209   8.910  0.1525 -2.1103 -0.4787
 6480SOL     OW22937   6.858   6.516   6.561  0.0002  0.5752  0.2018
 6480SOL    HW122938   6.896   6.533   6.475 -1.5286  1.2637 -0.3880
 6480SOL    HW222939   6.893   6.431   6.587 -1.1919 -0.7242 -2.1232
 6481SOL     OW22940  10.597   7.219   9.977  0.3900  0.2123 -0.1372
 6481SOL    HW122941  10.632   7.130   9.977  0.0260  0.0512  1.1360
 6481SOL    HW222942  10.592   7.243   9.885  2.4397 -0.3127 -0.4375
 6482SOL     OW22943   9.043   8.821  10.810  0.4908 -0.0627  0.0656
 6482SOL    HW122944   8.995   8.889  10.764 -0.1173  0.7218  1.7596
 6482SOL    HW222945   9.066   8.861  10.895  1.2101 -1.5437  0.6085
 6483SOL     OW22946   0.963   0.283   3.460  0.3872 -0.0074  0.4303
 6483SOL    HW122947   0.869   0.297   3.458  0.5243  0.9325 -1.1443
 6483SOL    HW222948   0.990   0.310   3.548 -0.7746 -0.2110  0.8632
 6484SOL     OW22949  10.041   5.156   6.784 -0.5654 -1.1323  0.2111
 6484SOL    HW122950   9.988   5.184   6.858 -1.0116  0.2795 -0.6007
 6484SOL    HW222951  10.094   5.084   6.818 -1.1229 -0.8548  1.7425
 6485SOL     OW22952   5.887   4.017   0.324  0.1045 -0.4101  0.4709
 6485SOL    HW122953   5.901   4.062   0.240 -0.8124 -0.2907  0.3716
 6485SOL    HW222954   5.896   3.924   0.302  1.6344 -0.3299  0.6051
 6486SOL     OW22955   6.455   1.547   6.190 -0.4670  0.1952  0.5745
 6486SOL    HW122956   6.405   1.527   6.111  0.0387  1.8839 -0.2301
 6486SOL    HW222957   6.432   1.478   6.251 -0.9761 -1.0948 -1.0001
 6487SOL     OW22958   7.014   2.457   2.265 -0.2358 -0.1126  0.4139
 6487SOL    HW122959   7.055   2.417   2.342  1.1342  0.1681 -0.1381
 6487SOL    HW222960   6.920   2.450   2.281  0.0242 -0.4640  1.8957
 6488SOL     OW22961   2.877   5.433  10.932  0.2410 -0.1318  0.0789
 6488SOL    HW122962   2.866   5.467  11.021  0.3023 -1.0339  0.4426
 6488SOL    HW222963   2.831   5.496  10.876  1.1618  1.0590  0.6169
 6489SOL     OW22964   0.042   3.806   9.481  0.0904 -0.0568 -0.3651
 6489SOL    HW122965  -0.011   3.874   9.438 -0.9220 -0.0888  0.7818
 6489SOL    HW222966   0.103   3.855   9.536 -0.0917 -0.0692 -0.1551
 6490SOL     OW22967   4.797   9.768   5.686  0.2592  0.2397  0.0569
 6490SOL    HW122968   4.797   9.793   5.778 -0.2255 -0.5687  0.2872
 6490SOL    HW222969   4.718   9.808   5.650  0.1720  0.1262  0.1199
 6491SOL     OW22970   2.752   4.048   7.637 -0.0402  0.0002 -0.0990
 6491SOL    HW122971   2.666   4.031   7.675 -0.0826 -1.8421 -0.8862
 6491SOL    HW222972   2.780   3.963   7.604  2.6845  0.2568  1.3078
 6492SOL     OW22973   4.528   8.403   6.403  0.6776  0.2604  0.3068
 6492SOL    HW122974   4.495   8.492   6.416 -0.4709 -0.0729 -0.2389
 6492SOL    HW222975   4.450   8.349   6.397  1.3130 -0.5819 -0.8016
 6493SOL     OW22976  10.837   9.215   9.598 -0.2371 -0.1409 -0.0010
 6493SOL    HW122977  10.891   9.146   9.636 -0.2566 -0.4494 -0.5243
 6493SOL    HW222978  10.783   9.246   9.671  0.5145  0.0525  0.4823
 6494SOL     OW22979   5.290   9.005   1.276 -0.2526 -0.0926 -0.0524
 6494SOL    HW122980   5.377   8.969   1.261  0.4726  1.6797 -0.4033
 6494SOL    HW222981   5.230   8.943   1.235  1.0549 -0.0553 -2.1423
 6495SOL     OW22982   6.742   9.803   0.896 -0.1941 -0.1572 -0.5313
 6495SOL    HW122983   6.823   9.765   0.931  0.3947  0.1196 -1.5595
 6495SOL    HW222984   6.675   9.776   0.958  0.8360  0.4781  0.9204
 6496SOL     OW22985   9.145   0.784   4.354  0.1879  0.1211 -0.1607
 6496SOL    HW122986   9.210   0.715   4.339 -0.2336 -0.2067 -0.4892
 6496SOL    HW222987   9.137   0.828   4.269 -0.8402 -0.5502 -0.4150
 6497SOL     OW22988   0.360   4.542   7.128  0.5327  0.2638 -0.5247
 6497SOL    HW122989   0.295   4.584   7.184  1.0425 -0.2870  0.5264
 6497SOL    HW222990   0.369   4.600   7.053 -0.6806  0.6764 -0.3704
 6498SOL     OW22991   3.142   2.565   2.047 -0.1384  0.4808 -0.3496
 6498SOL    HW122992   3.086   2.637   2.019  0.5782  0.5895 -1.5472
 6498SOL    HW222993   3.231   2.594   2.026  0.4252  0.4276  1.7485
 6499SOL     OW22994  10.907   8.206   5.898  0.0640  0.1240 -0.4661
 6499SOL    HW122995  10.817   8.177   5.911  0.0375  0.7157  0.8373
 6499SOL    HW222996  10.960   8.128   5.914 -0.1755 -0.0415 -0.4706
 6500SOL     OW22997   6.653   5.117   9.673 -0.0955  0.1225  0.3558
 6500SOL    HW122998   6.588   5.083   9.735 -1.2317 -0.3202 -1.0207
 6500SOL    HW222999   6.644   5.212   9.678 -1.3534  0.0614 -0.2848
 6501SOL     OW23000   6.291   2.213   0.373 -0.4004  0.4512 -0.1816
 6501SOL    HW123001   6.370   2.171   0.408  0.2917  0.6640 -1.4349
 6501SOL    HW223002   6.246   2.144   0.325  0.6952  1.0335 -2.1727
 6502SOL     OW23003   2.835   3.782   7.542  0.5075  0.1403 -0.5262
 6502SOL    HW123004   2.844   3.719   7.614  0.9946  0.8842  0.0788
 6502SOL    HW223005   2.870   3.737   7.465  2.5629  0.2864  0.2625
 6503SOL     OW23006   9.654   6.881   0.489  0.1111 -0.5941 -0.2264
 6503SOL    HW123007   9.663   6.812   0.424 -2.4996 -1.7430  0.5023
 6503SOL    HW223008   9.620   6.956   0.441 -2.0248 -1.5086 -0.2214
 6504SOL     OW23009   6.128   8.835   9.003  0.8499  0.4182  0.2399
 6504SOL    HW123010   6.140   8.770   8.934 -2.1406  0.4804 -0.4872
 6504SOL    HW223011   6.191   8.904   8.982  1.9882 -0.8584 -0.7287
 6505SOL     OW23012   6.392   1.947   7.791  0.3228  0.1798 -0.2899
 6505SOL    HW123013   6.322   1.892   7.756  0.4921 -0.5518  0.4952
 6505SOL    HW223014   6.462   1.885   7.812  0.5324  0.7060  0.5759
 6506SOL     OW23015   2.923   5.004   3.898  0.1629  0.2636  0.0247
 6506SOL    HW123016   2.897   4.928   3.846 -0.5032 -0.4202  1.3130
 6506SOL    HW223017   3.012   5.023   3.870 -0.1275 -0.1721 -1.2542
 6507SOL     OW23018   8.577   6.623  10.306  0.2231  0.1238  0.0873
 6507SOL    HW123019   8.494   6.608  10.261  0.5468  1.6698 -1.1174
 6507SOL    HW223020   8.552   6.656  10.392 -0.4109 -0.1907  0.0326
 6508SOL     OW23021   5.497   6.248   2.966 -0.1055  0.0066  0.2066
 6508SOL    HW123022   5.459   6.324   2.922 -0.0363 -1.0412 -1.7769
 6508SOL    HW223023   5.589   6.248   2.940 -0.6328 -2.1725 -2.1056
 6509SOL     OW23024   5.413   7.339   2.063  0.0532 -0.0122  0.2041
 6509SOL    HW123025   5.477   7.289   2.113  1.4766  0.8120 -0.7227
 6509SOL    HW223026   5.359   7.273   2.020 -0.8770 -0.7407  2.3524
 6510SOL     OW23027   2.768   0.232   5.510  0.3161  0.3066 -0.2758
 6510SOL    HW123028   2.827   0.279   5.451  0.6291  1.2813  0.7711
 6510SOL    HW223029   2.801   0.142   5.511  1.1702  0.6093 -0.4912
 6511SOL     OW23030   8.598   3.326   1.138  0.1353  0.5012 -0.2906
 6511SOL    HW123031   8.577   3.249   1.086 -1.8911 -0.8357  2.2434
 6511SOL    HW223032   8.516   3.375   1.143  0.7217  1.4689  0.2451
 6512SOL     OW23033   0.254   2.250   9.964  0.0095 -0.4315 -0.3533
 6512SOL    HW123034   0.172   2.225  10.007 -0.3154  0.5153 -0.3842
 6512SOL    HW223035   0.247   2.345   9.955  0.4361 -0.5165 -1.7574
 6513SOL     OW23036   6.908   4.146   1.071 -0.2988 -0.3390 -0.1549
 6513SOL    HW123037   6.824   4.102   1.064 -0.4017  0.0432 -1.4946
 6513SOL    HW223038   6.895   4.211   1.141 -0.7753 -0.9999  0.3803
 6514SOL     OW23039   5.715   2.145   1.733  0.0046 -0.3168  0.1823
 6514SOL    HW123040   5.808   2.159   1.753  0.6154 -1.8083 -1.3840
 6514SOL    HW223041   5.715   2.072   1.671 -2.1003  0.8088 -1.2483
 6515SOL     OW23042   1.669   6.513   4.105  0.0914  0.1441  0.1303
 6515SOL    HW123043   1.658   6.513   4.010  1.3201 -1.1815 -0.0498
 6515SOL    HW223044   1.678   6.605   4.129 -1.4838  0.5867 -0.8498
 6516SOL     OW23045   4.544   5.842   5.114 -0.1241 -0.0988  0.2826
 6516SOL    HW123046   4.463   5.870   5.156 -0.0086  1.4672 -0.4997
 6516SOL    HW223047   4.516   5.786   5.042 -0.6148  1.5308 -0.8338
 6517SOL     OW23048   4.144   6.811   0.556  0.0375 -0.5213 -0.3132
 6517SOL    HW123049   4.178   6.723   0.572  0.0314 -0.6574 -0.9815
 6517SOL    HW223050   4.201   6.846   0.487  0.9118  0.5386  0.9022
 6518SOL     OW23051   5.318   0.104   3.421  0.2979 -0.5866 -0.3557
 6518SOL    HW123052   5.227   0.126   3.400  0.9245  1.3384 -1.2632
 6518SOL    HW223053   5.313   0.055   3.503 -1.4976  0.0678 -0.0362
 6519SOL     OW23054   4.553   3.333   0.954 -0.3491 -0.6101 -0.3518
 6519SOL    HW123055   4.546   3.425   0.979  3.2973 -0.0606 -0.7773
 6519SOL    HW223056   4.552   3.285   1.037 -2.1234 -0.2427 -0.1198
 6520SOL     OW23057   3.640   4.194   9.925 -0.7110 -0.9270  0.0937
 6520SOL    HW123058   3.545   4.179   9.928 -1.1981  1.8163  1.2678
 6520SOL    HW223059   3.671   4.164  10.010 -0.8566 -0.1315  0.4372
 6521SOL     OW23060   6.053   6.738   3.673 -0.1080 -0.4021 -0.3385
 6521SOL    HW123061   6.144   6.766   3.659  0.0899 -1.1571 -0.6132
 6521SOL    HW223062   6.026   6.704   3.588 -0.2611 -1.2567  0.0513
 6522SOL     OW23063   7.623   7.558   8.989  0.0974  0.0282  0.4326
 6522SOL    HW123064   7.599   7.603   8.908 -3.1264  0.2297  1.3736
 6522SOL    HW223065   7.714   7.583   9.005  0.3615  1.1172 -2.3332
 6523SOL     OW23066   1.229   3.323  10.232  0.3281 -0.6814 -0.0701
 6523SOL    HW123067   1.294   3.354  10.170  0.4716  1.3490  1.0158
 6523SOL    HW223068   1.275   3.258  10.286  1.5197  0.7929  0.7471
 6524SOL     OW23069   6.334   8.010  10.119  0.5913  0.2912 -0.1635
 6524SOL    HW123070   6.270   7.991  10.051  2.2666 -0.6015 -1.5750
 6524SOL    HW223071   6.362   7.924  10.150  0.6637  0.6786  0.9074
 6525SOL     OW23072   7.593   1.824   3.183  0.7291 -0.1555  0.8464
 6525SOL    HW123073   7.578   1.783   3.098  1.0303  0.1819  0.6265
 6525SOL    HW223074   7.576   1.917   3.167 -0.1622 -0.2196  1.3870
 6526SOL     OW23075   4.654  10.998   2.006  0.2861  0.0164  0.4756
 6526SOL    HW123076   4.582  10.969   1.949  1.0570 -0.2174 -0.4049
 6526SOL    HW223077   4.611  11.051   2.074 -0.7128 -0.1233 -0.0264
 6527SOL     OW23078   6.802   3.712   3.109 -0.4411 -0.1435 -0.2396
 6527SOL    HW123079   6.786   3.716   3.204 -0.3795 -0.7568 -0.1969
 6527SOL    HW223080   6.891   3.744   3.099 -0.5413  0.1733 -0.1152
 6528SOL     OW23081   4.352   6.909   1.752 -0.0346  0.3471  0.2157
 6528SOL    HW123082   4.308   6.981   1.706 -0.3508 -0.2171 -0.3926
 6528SOL    HW223083   4.364   6.842   1.685 -0.5498 -0.5257  0.9708
 6529SOL     OW23084   7.316  10.498   1.639 -0.0844  0.2609 -0.6160
 6529SOL    HW123085   7.352  10.423   1.686 -0.0794  0.4387 -0.3378
 6529SOL    HW223086   7.392  10.542   1.602 -0.0455  0.4257 -0.3406
 6530SOL     OW23087   4.229  10.907   7.543 -0.1599 -0.0041 -0.1900
 6530SOL    HW123088   4.211  10.816   7.521 -0.4709  0.0590 -0.2006
 6530SOL    HW223089   4.185  10.957   7.474 -1.4879  0.2136  0.7676
 6531SOL     OW23090  10.056   1.244   5.665 -0.3961  0.4922  0.2381
 6531SOL    HW123091   9.990   1.272   5.729  0.3630  1.4122  0.6454
 6531SOL    HW223092  10.135   1.228   5.717 -0.0621  0.2192 -0.3430
 6532SOL     OW23093   7.456   4.643   8.584 -0.3122  0.6754 -0.4580
 6532SOL    HW123094   7.382   4.688   8.624 -1.2291 -0.5205 -0.7642
 6532SOL    HW223095   7.420   4.600   8.506  0.8009  0.4370 -0.8752
 6533SOL     OW23096   2.285  10.273   3.938 -0.5317  0.7182  0.2743
 6533SOL    HW123097   2.312  10.181   3.950  1.5744  1.3219  0.6025
 6533SOL    HW223098   2.284  10.310   4.026 -2.4232  0.7952  0.2608
 6534SOL     OW23099  10.718   4.075   2.358 -0.1290 -0.2916  0.3306
 6534SOL    HW123100  10.670   4.089   2.439 -2.9691 -0.0431 -1.2437
 6534SOL    HW223101  10.808   4.057   2.385 -0.8059  0.5042  3.4388
 6535SOL     OW23102   2.908   6.195   6.302  0.0684  0.1324 -0.5626
 6535SOL    HW123103   2.917   6.290   6.291  1.2873  0.1650  0.4794
 6535SOL    HW223104   2.998   6.162   6.296 -0.4414 -1.1148 -2.0696
 6536SOL     OW23105   9.109   0.550   7.829  0.7616 -0.0449  0.1662
 6536SOL    HW123106   9.169   0.533   7.902  2.3489  0.4844 -0.9637
 6536SOL    HW223107   9.138   0.490   7.760 -1.9789 -2.0069  0.5360
 6537SOL     OW23108   7.749   2.340   8.249 -0.8310  0.2638 -0.2154
 6537SOL    HW123109   7.705   2.329   8.333 -3.6193  1.9459 -1.3037
 6537SOL    HW223110   7.693   2.294   8.186  1.5808 -1.6067 -1.1429
 6538SOL     OW23111   1.652   5.751   8.387  0.1372 -0.1433  0.8416
 6538SOL    HW123112   1.587   5.685   8.368  1.0236 -1.8346  3.1498
 6538SOL    HW223113   1.621   5.793   8.468  1.1339  0.0602  1.1387
 6539SOL     OW23114  10.676  10.931   1.355 -0.0374 -0.6598  0.7033
 6539SOL    HW123115  10.771  10.917   1.361  0.0116 -0.5836  0.1708
 6539SOL    HW223116  10.653  10.904   1.266 -0.0783  1.6788 -0.0869
 6540SOL     OW23117   9.327   7.739   0.190 -0.3590  0.3819 -0.6360
 6540SOL    HW123118   9.357   7.728   0.281 -1.4384  2.0774 -0.0400
 6540SOL    HW223119   9.232   7.749   0.197 -0.5079  0.1049 -2.0119
 6541SOL     OW23120   1.500   3.063   9.946  0.1182 -0.1740  0.1427
 6541SOL    HW123121   1.483   3.154   9.920  0.5902 -0.0261  0.3485
 6541SOL    HW223122   1.450   3.052  10.026 -1.8931 -0.8334 -1.1212
 6542SOL     OW23123   3.017   6.468   6.933  0.0429  0.1953  0.2433
 6542SOL    HW123124   3.007   6.558   6.964 -0.8230 -0.1854  1.1344
 6542SOL    HW223125   3.001   6.474   6.839 -1.5175  0.7745  0.5063
 6543SOL     OW23126   6.932   4.980   4.996  0.3231 -0.1689  0.1539
 6543SOL    HW123127   6.898   4.935   5.074 -0.7842  0.1886 -0.0959
 6543SOL    HW223128   6.956   5.067   5.028 -0.8017  0.2263 -0.0088
 6544SOL     OW23129   7.545   2.407   4.087 -0.5267  0.0996  0.9772
 6544SOL    HW123130   7.540   2.317   4.120  1.5380 -0.6954 -0.6679
 6544SOL    HW223131   7.488   2.408   4.011  1.5522 -0.7246 -0.6993
 6545SOL     OW23132   7.175   4.692   7.591 -0.0179 -0.2451  0.0941
 6545SOL    HW123133   7.254   4.675   7.642 -0.2037  0.6622  0.6968
 6545SOL    HW223134   7.208   4.721   7.505  0.2940 -0.7528  0.0410
 6546SOL     OW23135   6.756   0.737   7.687  0.4331  0.5425  0.2925
 6546SOL    HW123136   6.665   0.715   7.669  1.1139 -2.0014 -0.5416
 6546SOL    HW223137   6.784   0.673   7.752  1.5859  1.3844  0.6546
 6547SOL     OW23138   3.973  10.928  10.518 -0.7966 -0.0044  0.6513
 6547SOL    HW123139   3.910  10.950  10.449 -0.0471  1.7331  0.4880
 6547SOL    HW223140   3.971  11.003  10.577  1.7190  0.5149  0.1832
 6548SOL     OW23141   1.110   8.750   6.118  0.2182 -0.0338 -0.1358
 6548SOL    HW123142   1.102   8.730   6.211 -1.2137  0.1335 -0.1935
 6548SOL    HW223143   1.185   8.699   6.088  2.2196  1.7200  1.5674
 6549SOL     OW23144   4.428   8.903   0.416  0.1318 -0.2088  0.1184
 6549SOL    HW123145   4.462   8.916   0.327  0.2364  1.5649  0.3904
 6549SOL    HW223146   4.339   8.938   0.412 -0.2201 -1.0431  0.4745
 6550SOL     OW23147  10.252   7.343   0.433 -0.8346  0.2904 -0.0949
 6550SOL    HW123148  10.305   7.366   0.510 -0.6905 -0.6571  0.0997
 6550SOL    HW223149  10.243   7.248   0.438 -0.9830  0.2452 -1.1593
 6551SOL     OW23150   4.125   0.700   6.628  0.2579 -0.2278 -0.0841
 6551SOL    HW123151   4.176   0.696   6.709  0.1216  1.6165  0.1386
 6551SOL    HW223152   4.074   0.619   6.627 -0.4661  0.1525  2.1764
 6552SOL     OW23153   8.317   0.053   6.405  0.2774 -0.2120  0.5160
 6552SOL    HW123154   8.247   0.097   6.454 -0.3992  0.3866 -0.9278
 6552SOL    HW223155   8.285   0.049   6.315  0.9835 -2.3084  0.2878
 6553SOL     OW23156   1.869   1.010   5.632 -0.0045  0.3688  0.2030
 6553SOL    HW123157   1.808   0.974   5.568  1.3462 -0.9326 -0.4128
 6553SOL    HW223158   1.953   1.015   5.585  0.9774 -0.4303  1.7768
 6554SOL     OW23159   2.371   9.099   6.936 -0.1896  0.0680  0.1982
 6554SOL    HW123160   2.425   9.020   6.949  0.1005 -0.1256 -1.8278
 6554SOL    HW223161   2.298   9.069   6.880 -1.3847  0.7464  1.3403
 6555SOL     OW23162   5.939  10.061   3.260  0.2827 -0.6910 -0.1705
 6555SOL    HW123163   5.884  10.002   3.313  0.9587 -1.3263 -0.1543
 6555SOL    HW223164   6.013  10.082   3.316  0.5518 -0.6399 -0.5385
 6556SOL     OW23165  11.007   4.840  10.438 -0.0406 -0.1773  0.3092
 6556SOL    HW123166  11.001   4.902  10.365  0.5317  2.7379  2.5247
 6556SOL    HW223167  10.916   4.824  10.464 -0.1870 -0.1502 -0.1750
 6557SOL     OW23168   6.432   8.128   1.224  0.0063 -0.3226 -0.0204
 6557SOL    HW123169   6.424   8.171   1.309 -2.5128  1.8539 -1.2268
 6557SOL    HW223170   6.505   8.173   1.181 -1.4510  1.6214 -0.5700
 6558SOL     OW23171   2.032   4.064   9.075  0.4647 -0.1946 -0.0171
 6558SOL    HW123172   2.034   3.970   9.088  0.3302 -0.0690  1.0210
 6558SOL    HW223173   2.040   4.076   8.981 -2.0282 -1.3270 -0.4516
 6559SOL     OW23174  10.948   0.792   3.822  0.1280  0.0804  0.7017
 6559SOL    HW123175  11.037   0.801   3.790  1.0457 -0.5489  2.9245
 6559SOL    HW223176  10.893   0.807   3.745  2.1258  0.6045 -0.6828
 6560SOL     OW23177  10.067   5.905   6.475  0.1144 -0.5913 -0.0670
 6560SOL    HW123178  10.049   5.872   6.387  1.6434  0.6490 -0.9024
 6560SOL    HW223179  10.074   6.000   6.464  1.9869 -0.5494  1.0615
 6561SOL     OW23180   1.300   7.578   9.878  0.1091  1.0009 -0.5404
 6561SOL    HW123181   1.377   7.568   9.934 -0.2826  1.9222  0.1869
 6561SOL    HW223182   1.235   7.519   9.916 -0.0983  1.4946 -0.1171
 6562SOL     OW23183   5.803   6.172   0.606 -0.7151  0.0229 -0.2939
 6562SOL    HW123184   5.727   6.178   0.664  0.5638 -0.3073  1.4782
 6562SOL    HW223185   5.848   6.256   0.616 -0.3798 -0.1087 -0.6640
 6563SOL     OW23186   7.667   2.751   7.408  0.1263  0.3217 -0.1335
 6563SOL    HW123187   7.708   2.722   7.327 -0.1032  1.9113 -0.8622
 6563SOL    HW223188   7.579   2.715   7.406  0.3601 -0.2486 -0.2282
 6564SOL     OW23189   8.343   8.760   1.876 -0.8879 -0.4491 -0.2187
 6564SOL    HW123190   8.305   8.845   1.900 -2.0393 -1.0445  0.0872
 6564SOL    HW223191   8.277   8.696   1.901  0.4325 -1.5392  0.6014
 6565SOL     OW23192   4.373   4.316   8.556  0.0561  0.9838 -0.3145
 6565SOL    HW123193   4.399   4.305   8.648 -1.0261  0.1009 -0.0917
 6565SOL    HW223194   4.283   4.349   8.561 -0.0711  0.7562 -1.0617
 6566SOL     OW23195   5.875   4.175   1.553  0.0413 -0.0870 -0.0695
 6566SOL    HW123196   5.803   4.230   1.520 -2.1546 -1.8925  1.4058
 6566SOL    HW223197   5.893   4.209   1.641 -0.3795 -0.7943  0.3073
 6567SOL     OW23198   6.821   6.018   9.367 -0.1785  0.1319  0.1783
 6567SOL    HW123199   6.768   5.949   9.328  2.2082 -1.4083 -0.5689
 6567SOL    HW223200   6.814   6.091   9.306 -1.8331  0.1856  0.3955
 6568SOL     OW23201   0.613   9.202   3.747 -0.1180 -0.6535  0.1808
 6568SOL    HW123202   0.521   9.225   3.734  0.0580 -0.4774 -0.8513
 6568SOL    HW223203   0.655   9.283   3.778  0.1314 -0.0650 -1.6103
 6569SOL     OW23204   5.000   5.096   5.754 -0.1576  0.3938 -0.3818
 6569SOL    HW123205   5.093   5.114   5.741  1.0094 -3.3975  1.1474
 6569SOL    HW223206   4.973   5.154   5.824  0.9242  1.7759 -1.0706
 6570SOL     OW23207  10.457   2.161   0.062 -0.2935 -0.5372  0.0496
 6570SOL    HW123208  10.391   2.230   0.055 -0.7409 -1.0172 -0.6960
 6570SOL    HW223209  10.540   2.207   0.071 -0.6832  0.0831  0.5550
 6571SOL     OW23210   0.375   3.451   9.579 -0.3288 -0.7033 -0.9505
 6571SOL    HW123211   0.316   3.448   9.503 -0.1899 -1.0796 -1.0501
 6571SOL    HW223212   0.317   3.459   9.654 -0.5325 -1.4747 -1.0187
 6572SOL     OW23213   0.386   7.682   8.687  0.3954 -0.4018  0.3909
 6572SOL    HW123214   0.334   7.672   8.766 -0.8974  0.0348 -0.3618
 6572SOL    HW223215   0.355   7.612   8.629 -0.1156  0.4869 -0.4431
 6573SOL     OW23216   3.253   8.833   9.449  0.2617  0.5074  1.0699
 6573SOL    HW123217   3.305   8.913   9.461 -0.7120  1.1754  0.9111
 6573SOL    HW223218   3.198   8.852   9.373  1.0560 -0.8720  0.0925
 6574SOL     OW23219   2.635   5.757   1.043  0.0061 -0.2330  0.3999
 6574SOL    HW123220   2.681   5.811   1.107 -1.5609  1.7280 -0.0280
 6574SOL    HW223221   2.633   5.670   1.082 -0.4697  0.7731  2.8234
 6575SOL     OW23222   4.037   8.476   8.137 -0.0576  0.4070  0.1632
 6575SOL    HW123223   3.972   8.408   8.155  0.8227 -0.8667 -1.2883
 6575SOL    HW223224   4.121   8.437   8.163  0.6389  0.3210 -1.9877
 6576SOL     OW23225   3.644   3.835   2.548  0.0393  0.2673  0.0332
 6576SOL    HW123226   3.665   3.929   2.545  0.4764  0.3538  2.8916
 6576SOL    HW223227   3.548   3.832   2.541  0.0742  0.8413 -0.8680
 6577SOL     OW23228   2.306   2.108   0.465 -0.0486  0.3402 -0.2277
 6577SOL    HW123229   2.356   2.183   0.498 -0.2633  0.6949 -0.6815
 6577SOL    HW223230   2.229   2.148   0.424 -1.2035 -0.2192  1.2695
 6578SOL     OW23231   4.124   0.891   8.483 -0.0027  0.0995 -0.1545
 6578SOL    HW123232   4.194   0.955   8.474 -0.8994  0.9470 -1.2997
 6578SOL    HW223233   4.103   0.865   8.394 -0.4625 -0.9182  0.2341
 6579SOL     OW23234   6.358   9.340   4.659 -0.6284  0.2582  0.4737
 6579SOL    HW123235   6.369   9.325   4.565 -0.7382  0.5771  0.4093
 6579SOL    HW223236   6.442   9.376   4.687 -0.3363 -0.5583  0.6455
 6580SOL     OW23237   1.749   0.423   0.541  0.6885 -0.0318 -0.2961
 6580SOL    HW123238   1.662   0.387   0.559  0.0725  1.1768 -0.7519
 6580SOL    HW223239   1.801   0.402   0.619  0.7942 -3.1055 -1.0788
 6581SOL     OW23240   0.480   2.081  10.668  0.2564  0.1758 -0.7103
 6581SOL    HW123241   0.548   2.147  10.684  1.3582 -1.0254 -0.3043
 6581SOL    HW223242   0.489   2.060  10.575 -0.5786  1.0796 -1.0202
 6582SOL     OW23243   7.662   0.760   6.237 -0.0734  0.0234  0.0369
 6582SOL    HW123244   7.573   0.796   6.239 -0.1115 -0.0532  1.9997
 6582SOL    HW223245   7.689   0.766   6.146 -1.4364  1.6871 -0.3041
 6583SOL     OW23246   9.168  10.482   8.633 -0.0699  0.3649  0.6524
 6583SOL    HW123247   9.119  10.407   8.667  0.8882  0.0701  1.4178
 6583SOL    HW223248   9.101  10.536   8.590 -0.8153 -0.7917  0.2997
 6584SOL     OW23249  10.060   3.892   6.238 -0.3188 -0.2116  0.4842
 6584SOL    HW123250  10.067   3.946   6.317 -0.9738  0.2246  0.2503
 6584SOL    HW223251   9.970   3.904   6.209 -0.1651 -0.6047 -0.1703
 6585SOL     OW23252   2.493   5.769   2.689  0.3198  0.5343  0.6658
 6585SOL    HW123253   2.438   5.698   2.723  0.0185  0.3754 -0.1228
 6585SOL    HW223254   2.577   5.756   2.732  0.5089 -0.8015 -0.0484
 6586SOL     OW23255   5.563   0.257   7.771 -0.0267 -0.0321  0.2634
 6586SOL    HW123256   5.484   0.204   7.760  1.4474 -2.5615  0.9420
 6586SOL    HW223257   5.560   0.319   7.699  0.0587 -3.6907 -3.2830
 6587SOL     OW23258   9.780   5.153  10.655  0.2422  0.0745  0.6794
 6587SOL    HW123259   9.722   5.128  10.728  2.7196 -0.6263  2.5580
 6587SOL    HW223260   9.818   5.070  10.626  0.6935  0.5683 -0.1540
 6588SOL     OW23261  10.047   4.957  10.460 -0.4487  0.6272 -0.3870
 6588SOL    HW123262  10.083   4.944  10.548 -1.8892  3.3762  0.7492
 6588SOL    HW223263  10.008   4.873  10.437  2.6268 -1.1009  0.1910
 6589SOL     OW23264   5.726   0.193   5.768 -0.0633  0.0172 -0.6818
 6589SOL    HW123265   5.649   0.248   5.761  0.4608  0.8962  0.1923
 6589SOL    HW223266   5.763   0.214   5.854  1.5298  0.1327 -1.3577
 6590SOL     OW23267   9.072   7.352   3.544  0.4905  0.5628 -0.3167
 6590SOL    HW123268   9.009   7.343   3.616  0.3638  1.0205 -0.3689
 6590SOL    HW223269   9.144   7.293   3.567  0.0745  0.0961 -0.2215
 6591SOL     OW23270   7.704   9.626   8.561  0.2084  0.2773  0.2768
 6591SOL    HW123271   7.612   9.606   8.579 -0.4753  1.8260 -1.1644
 6591SOL    HW223272   7.732   9.557   8.500 -0.0698 -0.0484  0.5108
 6592SOL     OW23273   4.505   7.552   8.355  0.0982  0.2311  0.6769
 6592SOL    HW123274   4.446   7.481   8.330 -1.0582  1.5064 -0.3906
 6592SOL    HW223275   4.494   7.560   8.450 -0.6277 -0.2805  0.6467
 6593SOL     OW23276   5.677   3.993   3.619  0.2001 -0.0419  0.0038
 6593SOL    HW123277   5.635   4.067   3.575  1.3953 -0.2737 -1.6132
 6593SOL    HW223278   5.757   4.029   3.658  0.3457 -0.3071 -0.0409
 6594SOL     OW23279   3.024   7.777   5.637 -0.5343  0.3993  0.8800
 6594SOL    HW123280   2.969   7.703   5.663 -1.0916  0.7007  0.5745
 6594SOL    HW223281   3.073   7.745   5.561  0.1157 -0.0422  1.4654
 6595SOL     OW23282   2.727   7.183   4.535 -0.0744  0.8583 -0.2427
 6595SOL    HW123283   2.774   7.224   4.607 -0.1866  0.2978  0.1552
 6595SOL    HW223284   2.655   7.244   4.515 -2.8655 -0.9306  3.1309
 6596SOL     OW23285   3.823   0.241   8.270  0.2293  0.6417  0.3896
 6596SOL    HW123286   3.781   0.199   8.195 -0.4546  1.0680  0.5260
 6596SOL    HW223287   3.798   0.333   8.264 -1.1486  0.4224  1.9902
 6597SOL     OW23288   2.027   2.258   7.594  0.2893 -0.7562  0.1912
 6597SOL    HW123289   2.040   2.273   7.688  0.6679  1.0220 -0.1200
 6597SOL    HW223290   1.941   2.216   7.589 -1.4360  2.3318  1.1619
 6598SOL     OW23291   5.267   8.390   9.688  0.1886  0.0442  0.0816
 6598SOL    HW123292   5.246   8.305   9.649  0.8974  0.0413 -0.3128
 6598SOL    HW223293   5.190   8.444   9.674 -0.4840 -0.6930  0.8098
 6599SOL     OW23294   2.638   1.961   0.738 -0.2741  0.2196  0.0403
 6599SOL    HW123295   2.594   2.006   0.810 -0.8169 -0.1673 -0.0453
 6599SOL    HW223296   2.641   2.026   0.668 -1.6046 -0.0542 -0.2934
 6600SOL     OW23297   7.190   1.183   0.919 -0.1510 -0.0053 -0.0229
 6600SOL    HW123298   7.169   1.197   0.826 -1.7179  0.1863  0.3333
 6600SOL    HW223299   7.176   1.269   0.960 -1.0831 -0.4669  0.6593
 6601SOL     OW23300   7.059   5.707   1.505 -0.7087  0.2742  0.4491
 6601SOL    HW123301   7.097   5.744   1.585 -0.4424 -1.1569  1.0051
 6601SOL    HW223302   7.133   5.664   1.461 -1.2415 -0.6328  0.4233
 6602SOL     OW23303   2.928   7.712  10.275  0.4225  0.0147 -0.2664
 6602SOL    HW123304   2.890   7.651  10.338  1.3602 -1.7334 -1.3194
 6602SOL    HW223305   3.007   7.744  10.318  0.2503  0.0114  0.0554
 6603SOL     OW23306   9.831   2.818   4.747 -0.5216 -0.0660  0.3727
 6603SOL    HW123307   9.754   2.841   4.800  0.1210  0.6979  1.0036
 6603SOL    HW223308   9.836   2.888   4.681 -1.6265 -1.2929 -1.0799
 6604SOL     OW23309   2.883   9.626   1.338 -0.7860 -0.4574 -0.3993
 6604SOL    HW123310   2.937   9.570   1.394  0.5328  1.3227  0.1994
 6604SOL    HW223311   2.905   9.715   1.365 -3.4673  0.3728 -0.7007
 6605SOL     OW23312   5.800   3.958   0.859  0.2162  0.1389 -0.2222
 6605SOL    HW123313   5.865   3.912   0.912 -0.8389  0.0430  1.0385
 6605SOL    HW223314   5.844   3.974   0.776  1.2572 -1.4461 -0.0178
 6606SOL     OW23315   3.088   9.105   9.534  0.2482  0.1686 -0.0078
 6606SOL    HW123316   3.167   9.101   9.588  1.5605 -1.7114 -1.8853
 6606SOL    HW223317   3.089   9.194   9.498  2.3836 -0.2377 -1.1148
 6607SOL     OW23318   4.377   3.801   2.209 -0.0913 -0.1311 -0.1877
 6607SOL    HW123319   4.390   3.885   2.253  2.0256 -0.1329 -0.6919
 6607SOL    HW223320   4.318   3.822   2.136  0.8991  1.0975 -0.6918
 6608SOL     OW23321   1.218   4.091   6.525 -0.0406  0.4055  0.5393
 6608SOL    HW123322   1.167   4.013   6.505  0.7727 -0.0025 -0.0175
 6608SOL    HW223323   1.269   4.067   6.603  1.4872 -0.2763 -0.5968
 6609SOL     OW23324   0.240   0.460  10.769 -0.3793  0.4428  0.0558
 6609SOL    HW123325   0.241   0.371  10.733  0.3662  1.0396 -1.4853
 6609SOL    HW223326   0.252   0.448  10.863 -0.0680 -1.0848 -0.1536
 6610SOL     OW23327  10.932  10.650   3.183 -0.1247 -0.8801  0.4997
 6610SOL    HW123328  10.846  10.646   3.140 -0.9314  1.3204  1.7292
 6610SOL    HW223329  10.914  10.692   3.267  2.4489  1.7418 -0.1142
 6611SOL     OW23330   7.048   8.894   5.894 -0.0976 -0.4032  0.7399
 6611SOL    HW123331   7.078   8.941   5.816 -1.1029 -1.4821 -0.3408
 6611SOL    HW223332   6.975   8.841   5.863 -0.2052 -1.2376  2.3259
 6612SOL     OW23333   6.430   9.385   8.696 -0.5654  0.5887  0.3886
 6612SOL    HW123334   6.363   9.343   8.643 -1.1767  0.4686  1.2371
 6612SOL    HW223335   6.462   9.457   8.642  1.3793 -1.6045 -1.6216
 6613SOL     OW23336   8.573   4.975   2.561 -0.4511 -0.2978  0.1263
 6613SOL    HW123337   8.597   4.956   2.652 -1.1629 -0.6695  0.2436
 6613SOL    HW223338   8.626   5.051   2.538  1.2421 -1.4042  0.1758
 6614SOL     OW23339   9.603   9.125   1.247 -0.1094  0.0137 -0.1773
 6614SOL    HW123340   9.669   9.110   1.316  1.5767 -0.4154 -1.7979
 6614SOL    HW223341   9.651   9.113   1.165 -2.1557  0.0593 -1.4548
 6615SOL     OW23342   4.280   2.823  10.934 -0.5199 -0.1473  0.8198
 6615SOL    HW123343   4.199   2.772  10.936  0.2602 -1.4170  1.5083
 6615SOL    HW223344   4.273   2.876  10.855 -1.8669 -0.4750  0.6873
 6616SOL     OW23345   9.908   6.608   1.449  0.3225 -0.2691  0.2763
 6616SOL    HW123346   9.825   6.581   1.411 -0.3640 -0.2599  1.7052
 6616SOL    HW223347   9.956   6.648   1.376 -0.3735 -1.4495 -0.8705
 6617SOL     OW23348   8.874   4.604   2.250  0.4257 -0.2340  0.5020
 6617SOL    HW123349   8.934   4.678   2.257  0.5905 -0.4583  1.7452
 6617SOL    HW223350   8.832   4.614   2.164  3.0203 -0.6754 -0.9132
 6618SOL     OW23351   7.748   7.048   0.939  0.3249  0.7212 -0.3205
 6618SOL    HW123352   7.740   7.091   1.024 -0.1403  0.3435 -0.1759
 6618SOL    HW223353   7.840   7.059   0.916  1.2347 -1.9094  1.6764
 6619SOL     OW23354   9.133   9.150   4.249 -0.1536  0.4478  0.3997
 6619SOL    HW123355   9.047   9.154   4.208 -0.2016  0.6829  0.5231
 6619SOL    HW223356   9.169   9.238   4.240  0.2620  0.2336 -0.0522
 6620SOL     OW23357   9.266   4.755   7.457  0.3961 -0.4765 -0.6643
 6620SOL    HW123358   9.174   4.782   7.447  0.6737  1.5668  1.4720
 6620SOL    HW223359   9.261   4.663   7.480 -1.4395  0.2917  2.6747
 6621SOL     OW23360   0.377   0.540   3.164  0.0757  0.2637 -0.4305
 6621SOL    HW123361   0.452   0.587   3.199  0.0514  0.4020 -0.5634
 6621SOL    HW223362   0.394   0.448   3.184  0.6837  0.1987 -1.1934
 6622SOL     OW23363   3.226   2.189   1.632  0.1262  0.7797 -0.0646
 6622SOL    HW123364   3.172   2.231   1.699  0.8729  1.7096 -0.0317
 6622SOL    HW223365   3.176   2.111   1.607 -1.7533  2.1641 -0.7981
 6623SOL     OW23366   4.365   4.517   7.884  0.0563 -0.0235 -0.4515
 6623SOL    HW123367   4.460   4.526   7.887  0.0659  0.1272 -1.0914
 6623SOL    HW223368   4.332   4.596   7.927  0.2047  0.8199 -1.8486
 6624SOL     OW23369   1.011   4.664   8.378  0.6621  0.1124 -0.2842
 6624SOL    HW123370   0.980   4.583   8.337  1.3116  1.2796 -3.3307
 6624SOL    HW223371   1.106   4.661   8.369  0.7193  1.0090 -0.0917
 6625SOL     OW23372   5.904   6.916   7.508 -0.2358 -0.3730 -0.2208
 6625SOL    HW123373   5.830   6.974   7.522  0.7894  0.5581  1.9140
 6625SOL    HW223374   5.925   6.925   7.415 -1.3258  1.1531 -0.3533
 6626SOL     OW23375   7.082   0.609   5.339 -0.1177 -0.4355 -0.1744
 6626SOL    HW123376   7.003   0.559   5.319 -0.6802  0.9063 -1.4628
 6626SOL    HW223377   7.149   0.542   5.357 -0.8725 -1.6468 -1.6863
 6627SOL     OW23378  10.358   2.816   0.850  0.7272 -0.5313  0.2378
 6627SOL    HW123379  10.334   2.884   0.912 -0.5474 -1.2378  0.5482
 6627SOL    HW223380  10.348   2.857   0.764  0.5230 -0.1587  0.4383
 6628SOL     OW23381   2.647  10.430   2.777  0.1386 -0.5771  1.0648
 6628SOL    HW123382   2.708  10.417   2.705 -2.2505  0.1579 -1.2529
 6628SOL    HW223383   2.591  10.353   2.776 -0.5077 -0.1273  1.5393
 6629SOL     OW23384   6.403  10.687   3.090 -0.0407 -0.0810 -0.1379
 6629SOL    HW123385   6.420  10.746   3.017 -0.3550  0.3644  0.1392
 6629SOL    HW223386   6.308  10.672   3.088  0.2204 -1.8788 -1.1721
 6630SOL     OW23387   8.273   0.348   0.327 -0.0017  0.2475  0.3048
 6630SOL    HW123388   8.291   0.258   0.355  0.6411  0.3194  0.1321
 6630SOL    HW223389   8.357   0.393   0.334  0.0809  0.3961 -1.2832
 6631SOL     OW23390   3.725  10.344   2.851  0.3731 -0.8741  0.0981
 6631SOL    HW123391   3.754  10.412   2.912  0.7879 -1.9955  1.1876
 6631SOL    HW223392   3.743  10.262   2.897 -2.1312 -1.6953 -0.2528
 6632SOL     OW23393   1.653  10.989   3.876  0.6445 -0.3066 -0.3523
 6632SOL    HW123394   1.582  11.047   3.847  0.2765 -0.2602  0.6307
 6632SOL    HW223395   1.613  10.932   3.942  1.0486 -1.5634 -1.1508
 6633SOL     OW23396   7.544   4.547   1.209 -0.3946 -0.3546 -0.1993
 6633SOL    HW123397   7.451   4.570   1.212 -1.1216 -3.0703  0.5477
 6633SOL    HW223398   7.589   4.627   1.240 -2.4576  0.9153 -0.2938
 6634SOL     OW23399   7.886   3.163  10.507 -0.3666  0.4841  0.1781
 6634SOL    HW123400   7.808   3.174  10.561  0.4754  0.2575  1.4703
 6634SOL    HW223401   7.924   3.251  10.502  0.1103  0.3199  0.8275
 6635SOL     OW23402  10.565   4.738   6.223  0.1958  0.1792 -0.4701
 6635SOL    HW123403  10.649   4.714   6.260 -0.8285  1.0856  2.7287
 6635SOL    HW223404  10.582   4.818   6.173  1.2279  0.3066  0.0679
 6636SOL     OW23405   4.658  10.805   9.641 -0.7008  0.1500  0.1684
 6636SOL    HW123406   4.696  10.872   9.584  1.1497 -1.0155 -0.0375
 6636SOL    HW223407   4.621  10.854   9.715 -0.5689  1.4736 -0.6216
 6637SOL     OW23408   5.084   7.750  10.204 -0.5097  0.3084 -0.5872
 6637SOL    HW123409   5.155   7.779  10.261 -0.6315 -0.0500 -0.2482
 6637SOL    HW223410   5.101   7.794  10.120 -0.3388  0.8536 -0.2751
 6638SOL     OW23411   3.800   7.720  10.619 -0.3025  0.2386 -0.5749
 6638SOL    HW123412   3.870   7.663  10.587  0.1887  0.7089 -0.3535
 6638SOL    HW223413   3.777   7.775  10.544 -0.4338  0.0891 -0.6460
 6639SOL     OW23414   5.486   8.450   6.129  0.1482  0.3575  0.2563
 6639SOL    HW123415   5.400   8.471   6.092 -0.5926 -0.6318  1.3372
 6639SOL    HW223416   5.497   8.357   6.113  1.2196  0.5631 -0.2366
 6640SOL     OW23417   2.776   6.376   5.043  0.5603  0.5513  0.1764
 6640SOL    HW123418   2.803   6.384   5.134 -3.9120 -0.6651  1.8661
 6640SOL    HW223419   2.795   6.284   5.021 -0.0910  0.3165  0.5712
 6641SOL     OW23420   0.043   0.771   9.877  0.2142  0.2089  0.4506
 6641SOL    HW123421  -0.029   0.710   9.892  1.3682 -0.8648  2.0216
 6641SOL    HW223422   0.014   0.853   9.918 -0.3862 -0.0069  0.4707
 6642SOL     OW23423   5.147   6.491  10.898  0.0818 -0.1618  0.2136
 6642SOL    HW123424   5.144   6.438  10.818 -0.6337  0.1130  0.0569
 6642SOL    HW223425   5.241   6.497  10.919  0.2792 -0.2024 -0.6238
 6643SOL     OW23426   0.368   6.401   6.589  0.2786 -0.1212  0.0433
 6643SOL    HW123427   0.286   6.399   6.541  1.2953  1.2176 -1.9030
 6643SOL    HW223428   0.377   6.313   6.626 -1.9304 -0.3193  0.2118
 6644SOL     OW23429   6.676   2.624   7.368  0.3123 -0.8971  0.2219
 6644SOL    HW123430   6.600   2.601   7.313 -0.5738  2.1900 -0.0423
 6644SOL    HW223431   6.694   2.545   7.419 -2.2285 -2.1652 -0.6805
 6645SOL     OW23432   4.787   9.583   1.373  0.1771 -0.3000  0.0991
 6645SOL    HW123433   4.785   9.487   1.369 -1.0905 -0.3155  0.7682
 6645SOL    HW223434   4.734   9.605   1.450 -2.3219  1.0391 -1.8600
 6646SOL     OW23435   9.623   3.450   3.567 -0.0612 -0.6201 -0.7089
 6646SOL    HW123436   9.668   3.387   3.512 -0.2686  0.0895 -1.7160
 6646SOL    HW223437   9.645   3.424   3.657  2.2191 -0.3901 -1.1514
 6647SOL     OW23438   6.855   4.637   1.456  0.2443  0.3049  0.0947
 6647SOL    HW123439   6.915   4.702   1.420 -1.1263  1.3506 -0.4197
 6647SOL    HW223440   6.823   4.677   1.537 -0.3174  0.1024 -0.0245
 6648SOL     OW23441   7.872   6.707   4.527 -0.1857 -0.8577  0.6561
 6648SOL    HW123442   7.911   6.658   4.454  0.2741  0.9616 -0.3795
 6648SOL    HW223443   7.886   6.652   4.603  0.7192 -2.1197 -0.3818
 6649SOL     OW23444   7.583   4.498   1.664  0.1000 -0.2600  0.3382
 6649SOL    HW123445   7.619   4.583   1.639  0.4555 -0.9204 -1.4964
 6649SOL    HW223446   7.630   4.476   1.745 -0.2560  1.4249  1.0371
 6650SOL     OW23447   7.521  10.617   7.216 -0.4120 -0.2067 -0.4382
 6650SOL    HW123448   7.476  10.692   7.255  0.9648  0.1098  0.6011
 6650SOL    HW223449   7.536  10.557   7.289  1.7068  0.1391 -0.5252
 6651SOL     OW23450   9.088   5.834   4.684 -0.4517 -0.4888 -0.2010
 6651SOL    HW123451   9.045   5.749   4.684 -0.1800 -0.6294  0.2082
 6651SOL    HW223452   9.020   5.895   4.712 -1.0323 -0.3586 -1.8321
 6652SOL     OW23453   5.571   9.504   2.614 -0.4382  0.4320  0.4393
 6652SOL    HW123454   5.598   9.452   2.689 -0.5085 -1.7655 -0.9596
 6652SOL    HW223455   5.530   9.441   2.554 -2.1014  2.3998 -0.6489
 6653SOL     OW23456  10.322   7.294   1.448 -0.0990  0.0267 -0.6239
 6653SOL    HW123457  10.389   7.248   1.500  0.0557  1.0048  0.0758
 6653SOL    HW223458  10.295   7.230   1.382  1.3370 -0.4827 -0.7594
 6654SOL     OW23459   5.233   3.624   8.467 -0.3291  0.1216 -0.7500
 6654SOL    HW123460   5.301   3.561   8.493 -0.5465  0.0177 -0.4367
 6654SOL    HW223461   5.249   3.639   8.374 -0.8805 -1.1440 -1.0671
 6655SOL     OW23462   4.883   9.703   7.442  0.4380  0.0555 -0.7894
 6655SOL    HW123463   4.878   9.631   7.505 -2.9515  2.3022  1.8117
 6655SOL    HW223464   4.819   9.680   7.375  0.3166  0.0408 -0.6683
 6656SOL     OW23465   4.872  10.854   1.958 -0.1511 -0.0008  0.0869
 6656SOL    HW123466   4.786  10.894   1.965 -0.2912 -0.3521  0.4250
 6656SOL    HW223467   4.933  10.921   1.988  0.0025  1.2893 -2.7410
 6657SOL     OW23468   5.647   9.814   1.496  0.5784  0.3133  0.5005
 6657SOL    HW123469   5.667   9.812   1.589  2.1781 -2.2757  0.2020
 6657SOL    HW223470   5.646   9.722   1.469 -1.3322  0.8832 -1.7728
 6658SOL     OW23471   3.271   3.429   7.925 -0.0351 -0.0523  0.2007
 6658SOL    HW123472   3.293   3.377   8.003 -0.0596  1.0812  0.9814
 6658SOL    HW223473   3.317   3.384   7.854 -0.7569 -1.6483  0.6865
 6659SOL     OW23474   8.413   3.915   9.322  0.2304 -0.0499  0.1962
 6659SOL    HW123475   8.474   3.989   9.326 -0.3467  0.5199 -0.9425
 6659SOL    HW223476   8.461   3.842   9.360  0.7115  0.9655  1.6320
 6660SOL     OW23477   9.242   6.020   5.562 -0.2290 -0.0988  0.5185
 6660SOL    HW123478   9.187   5.996   5.637  0.3703 -1.1159  0.6592
 6660SOL    HW223479   9.191   5.996   5.485 -1.0909  1.4852  0.5519
 6661SOL     OW23480   4.168   8.449  10.463 -0.0989  0.7489 -0.2200
 6661SOL    HW123481   4.207   8.439  10.376 -0.1392 -1.7346 -0.0049
 6661SOL    HW223482   4.075   8.465  10.446 -0.4081 -1.3142 -0.6619
 6662SOL     OW23483   6.154   7.096   5.830  0.0387  0.0204 -0.0375
 6662SOL    HW123484   6.172   7.037   5.757  0.2767  0.5314 -0.4048
 6662SOL    HW223485   6.060   7.091   5.843  0.3567 -2.8467  2.0253
 6663SOL     OW23486   2.872   6.294   5.609  0.6136  0.0356 -0.7394
 6663SOL    HW123487   2.832   6.381   5.604 -1.9472 -1.0983 -1.9364
 6663SOL    HW223488   2.866   6.270   5.701  0.2552  0.6502 -0.5970
 6664SOL     OW23489  10.355   5.893   5.784  0.0186  0.3062  0.5119
 6664SOL    HW123490  10.264   5.864   5.774 -0.0933  1.0189 -0.8612
 6664SOL    HW223491  10.371   5.891   5.878 -1.5484  0.5092  0.8080
 6665SOL     OW23492   4.587   2.179   1.195 -0.1867 -0.0142  0.0656
 6665SOL    HW123493   4.609   2.118   1.124 -2.1179 -0.5862 -0.1102
 6665SOL    HW223494   4.650   2.161   1.263 -0.5458 -2.0788 -0.0943
 6666SOL     OW23495   4.313   5.145  10.530 -0.3660  0.5208  0.5434
 6666SOL    HW123496   4.391   5.184  10.491  0.2212 -0.2819  0.8995
 6666SOL    HW223497   4.254   5.220  10.545  0.9325  1.3616  1.7040
 6667SOL     OW23498   5.446   2.174   6.979 -0.1954  0.1914  0.5525
 6667SOL    HW123499   5.410   2.086   6.972 -2.3500  1.0492  0.0216
 6667SOL    HW223500   5.535   2.167   6.944 -1.3989 -1.1779 -2.5312
 6668SOL     OW23501   5.945   9.867   8.006  0.2061  0.3100  0.4465
 6668SOL    HW123502   5.874   9.891   7.945  0.5261  0.4123  0.1099
 6668SOL    HW223503   6.016   9.837   7.949  0.4280  0.1946  0.7852
 6669SOL     OW23504   8.850  10.552   3.281  0.4078 -0.2255  0.3386
 6669SOL    HW123505   8.781  10.526   3.220 -0.3402  0.1445  0.9962
 6669SOL    HW223506   8.834  10.645   3.296  2.0224  0.2627 -0.6956
 6670SOL     OW23507   3.505   5.083   3.214  0.3816  0.1551  0.1763
 6670SOL    HW123508   3.445   5.011   3.196  0.8516 -0.5524  1.2892
 6670SOL    HW223509   3.592   5.047   3.195  0.7048  0.0733  1.6430
 6671SOL     OW23510   8.850   1.942  10.484 -0.0920 -0.8023  0.0229
 6671SOL    HW123511   8.901   2.007  10.436 -0.6500 -0.5194 -0.1954
 6671SOL    HW223512   8.833   1.983  10.569 -0.0212 -0.8639  0.0660
 6672SOL     OW23513  10.588   6.906   8.420 -0.4549 -0.0029  0.2967
 6672SOL    HW123514  10.505   6.865   8.444 -0.3418 -0.0639  0.6017
 6672SOL    HW223515  10.623   6.938   8.503 -1.1354  1.8664 -0.0913
 6673SOL     OW23516   6.277   5.542   8.646  0.2417 -0.2303 -0.4078
 6673SOL    HW123517   6.326   5.492   8.581  0.1977  0.1418 -0.7284
 6673SOL    HW223518   6.305   5.633   8.633 -2.0862  0.3258 -2.0408
 6674SOL     OW23519   4.314  10.083   9.176  0.5034  0.5296  0.3159
 6674SOL    HW123520   4.357  10.124   9.101 -0.8577  0.2268 -0.6643
 6674SOL    HW223521   4.363  10.114   9.252  1.6641  1.1627 -0.6646
 6675SOL     OW23522   3.020   2.911   1.680 -0.7280  0.6139  0.0886
 6675SOL    HW123523   3.031   3.006   1.687 -0.2740  0.4765  1.3654
 6675SOL    HW223524   3.108   2.875   1.697 -1.5196 -0.1666  3.1273
 6676SOL     OW23525   9.708   7.060   5.995  0.2490  0.3936  0.5371
 6676SOL    HW123526   9.694   6.996   5.925 -2.9887 -1.5275  2.7019
 6676SOL    HW223527   9.659   7.138   5.967  0.9093  0.5247 -0.3088
 6677SOL     OW23528   1.838   3.918   4.363 -0.0383 -0.9389  0.0358
 6677SOL    HW123529   1.757   3.951   4.324 -0.5173 -1.2084  0.7818
 6677SOL    HW223530   1.901   3.917   4.290 -0.1535  1.0308 -0.1410
 6678SOL     OW23531   3.378   7.742   7.979  0.3894 -0.1693 -0.4787
 6678SOL    HW123532   3.461   7.780   7.952  3.2388 -5.1206  0.1076
 6678SOL    HW223533   3.370   7.765   8.072  1.2091  0.2139 -0.4963
 6679SOL     OW23534   2.396   7.159   1.763 -0.0887 -0.2151  0.6341
 6679SOL    HW123535   2.336   7.113   1.822 -0.8046  0.9300  0.8340
 6679SOL    HW223536   2.339   7.213   1.708  0.7690  1.2556  1.1453
 6680SOL     OW23537   7.891   9.157   0.493  0.3570  0.3879  0.4202
 6680SOL    HW123538   7.835   9.193   0.424  2.5999 -0.6259 -2.0838
 6680SOL    HW223539   7.926   9.234   0.537  1.1846  1.2169 -1.5678
 6681SOL     OW23540   9.390   9.143   0.792 -0.2611 -0.0552  0.2594
 6681SOL    HW123541   9.363   9.230   0.821  0.6080 -0.4265  2.3007
 6681SOL    HW223542   9.435   9.159   0.708  3.3733  2.1137  2.3381
 6682SOL     OW23543   0.644   1.627   7.144  0.5525  0.1579 -0.0365
 6682SOL    HW123544   0.684   1.540   7.134 -0.1274 -0.0511 -1.0977
 6682SOL    HW223545   0.635   1.660   7.055  1.4260  1.6288  0.3925
 6683SOL     OW23546   9.176   0.463   4.330 -0.1612 -0.7318 -0.5191
 6683SOL    HW123547   9.132   0.442   4.248 -0.1622 -1.1882 -0.4053
 6683SOL    HW223548   9.189   0.379   4.373  2.1231 -0.7526 -1.1824
 6684SOL     OW23549   3.376   2.381   5.041  0.0952  0.5249 -0.8035
 6684SOL    HW123550   3.421   2.464   5.059  0.1797  0.4416 -0.6330
 6684SOL    HW223551   3.418   2.318   5.099 -1.6037  0.8574  0.8942
 6685SOL     OW23552   9.689  10.914  10.361  0.1502 -0.2443  0.1043
 6685SOL    HW123553   9.759  10.930  10.425  0.7786  2.6909 -1.1364
 6685SOL    HW223554   9.609  10.914  10.414  0.8570 -0.8180  1.2165
 6686SOL     OW23555   3.496   1.278   8.415  0.5082 -0.1019 -0.1938
 6686SOL    HW123556   3.490   1.360   8.464 -0.1095 -0.6409  0.6594
 6686SOL    HW223557   3.565   1.229   8.459 -0.5301 -0.8818  0.6099
 6687SOL     OW23558   8.580   2.871   9.970 -0.5505  1.2039 -0.4074
 6687SOL    HW123559   8.614   2.862  10.059  0.1744 -0.6667 -0.8168
 6687SOL    HW223560   8.508   2.933   9.977 -2.3315 -0.9556  2.0261
 6688SOL     OW23561   5.697   5.170   0.645 -0.2461 -0.2176  0.1475
 6688SOL    HW123562   5.730   5.144   0.731 -1.2255 -0.2409  0.5378
 6688SOL    HW223563   5.724   5.261   0.634  0.9032 -0.5714 -0.0483
 6689SOL     OW23564   9.090   8.619   0.495  0.0464 -0.3404  0.4108
 6689SOL    HW123565   9.044   8.658   0.420 -0.5867 -0.3861  0.7657
 6689SOL    HW223566   9.138   8.692   0.534  1.1336 -0.4990 -0.5702
 6690SOL     OW23567   3.207   2.469  10.087 -0.0304  0.1611  0.7074
 6690SOL    HW123568   3.166   2.555  10.098 -0.9724 -0.4162  1.8731
 6690SOL    HW223569   3.155   2.427  10.017 -0.3236  0.1008  0.9577
 6691SOL     OW23570   5.304   7.696   9.855  0.2763 -0.1717 -0.1058
 6691SOL    HW123571   5.284   7.628   9.919  0.0167 -0.5508 -0.5818
 6691SOL    HW223572   5.391   7.728   9.880 -0.5227  0.8700  1.4519
 6692SOL     OW23573  10.536   6.652   0.367  0.1885 -0.3026 -0.2428
 6692SOL    HW123574  10.555   6.586   0.434  0.5963 -0.2917 -0.3484
 6692SOL    HW223575  10.581   6.621   0.288  1.6702  0.8720  0.1009
 6693SOL     OW23576   5.932   0.503  10.496 -0.0894 -0.3883 -0.5832
 6693SOL    HW123577   5.944   0.538  10.584 -0.4636  0.8657 -1.0089
 6693SOL    HW223578   5.849   0.541  10.466  0.5872  0.1305 -1.8997
 6694SOL     OW23579   3.542   3.558   5.228  0.1303 -0.4246  0.4293
 6694SOL    HW123580   3.557   3.498   5.301  2.3383 -0.6687 -0.1651
 6694SOL    HW223581   3.477   3.513   5.173  2.8762 -3.1886 -0.8596
 6695SOL     OW23582   9.731   1.090   5.970  0.2853 -0.0218 -0.2909
 6695SOL    HW123583   9.756   1.081   6.062 -3.3650 -0.2611  0.8719
 6695SOL    HW223584   9.729   1.000   5.937 -1.1670 -0.2584  0.3472
 6696SOL     OW23585   8.867   4.028   8.060 -0.1098 -0.5606  0.1437
 6696SOL    HW123586   8.779   4.047   8.091  0.1617  0.7484  0.1398
 6696SOL    HW223587   8.878   4.083   7.982  0.4117 -1.3474 -0.3579
 6697SOL     OW23588  10.140   5.305   9.447  0.2602  0.3904 -0.3703
 6697SOL    HW123589  10.166   5.397   9.441 -0.4045  0.5252 -1.4922
 6697SOL    HW223590  10.169   5.266   9.365 -0.0852 -0.2428 -0.2053
 6698SOL     OW23591   4.493   4.492   2.783  0.1710 -0.2094  0.1359
 6698SOL    HW123592   4.540   4.575   2.783  1.1412 -0.7266  1.4238
 6698SOL    HW223593   4.443   4.492   2.865  0.3690 -0.9840  0.2643
 6699SOL     OW23594   5.226   1.288   3.095 -0.0959 -0.5211 -0.2343
 6699SOL    HW123595   5.321   1.292   3.107  0.0568 -3.3987  0.2692
 6699SOL    HW223596   5.210   1.200   3.061 -2.4841  0.3883 -1.7593
 6700SOL     OW23597   2.284   0.718   6.801  0.6664  0.4756  0.2368
 6700SOL    HW123598   2.337   0.664   6.860  1.9439  1.6750  0.2398
 6700SOL    HW223599   2.348   0.766   6.748 -0.4398  1.0556 -0.6166
 6701SOL     OW23600   4.933   3.475   8.990  0.0006  0.6527  0.0264
 6701SOL    HW123601   4.888   3.497   8.908 -0.1440  3.5180  0.7486
 6701SOL    HW223602   4.862   3.468   9.054  0.1587 -1.0459  0.0502
 6702SOL     OW23603   9.344   2.962   4.298 -0.0814 -0.2068  0.0683
 6702SOL    HW123604   9.312   2.901   4.232 -0.3032 -0.2707  0.2342
 6702SOL    HW223605   9.291   3.041   4.286  0.3316  0.0210 -0.2676
 6703SOL     OW23606   2.313  10.951   1.890 -0.2690  0.1527  0.2872
 6703SOL    HW123607   2.285  10.863   1.865 -0.1766  0.0419  0.5810
 6703SOL    HW223608   2.242  10.984   1.946  0.8355 -0.6769  2.2474
 6704SOL     OW23609   6.832   3.271  10.145 -0.6167  0.0822 -0.0822
 6704SOL    HW123610   6.871   3.221  10.217 -1.2597 -0.8019 -0.3353
 6704SOL    HW223611   6.884   3.248  10.068 -0.7372  0.0177 -0.1453
 6705SOL     OW23612   5.105   8.247   5.838  0.9696 -0.2607 -0.0231
 6705SOL    HW123613   5.130   8.157   5.817 -1.4733 -0.9045 -0.5534
 6705SOL    HW223614   5.138   8.300   5.766 -1.9254 -1.5531 -2.5484
 6706SOL     OW23615   7.808   2.487   0.733 -1.0026 -0.1747 -0.1748
 6706SOL    HW123616   7.820   2.573   0.775 -0.8330 -0.8919  1.2973
 6706SOL    HW223617   7.897   2.457   0.713 -0.9604 -0.6971  0.7666
 6707SOL     OW23618   3.399   2.696   1.988 -0.3796  0.1648 -0.2294
 6707SOL    HW123619   3.431   2.609   1.966  0.1882  0.0049  1.1026
 6707SOL    HW223620   3.395   2.696   2.084  1.9851  2.4073 -0.0306
 6708SOL     OW23621   4.785   5.299   8.654 -0.1252 -0.1991 -0.1673
 6708SOL    HW123622   4.720   5.369   8.648 -0.8601 -0.9494 -1.2552
 6708SOL    HW223623   4.869   5.344   8.662 -0.7188  0.7855  0.6965
 6709SOL     OW23624   3.040   6.409   7.627 -0.5726  0.4519  0.1539
 6709SOL    HW123625   3.053   6.320   7.661  0.4805 -0.2225 -1.8502
 6709SOL    HW223626   3.015   6.460   7.704  1.6399 -0.9485  1.9521
 6710SOL     OW23627   2.756   7.053   3.687 -0.2951  0.0614 -0.1489
 6710SOL    HW123628   2.770   6.978   3.630  0.1636 -0.4510  0.6327
 6710SOL    HW223629   2.661   7.061   3.693 -0.3815  0.6558 -1.6619
 6711SOL     OW23630   6.161   9.820   6.012  0.1910 -0.0181 -0.2576
 6711SOL    HW123631   6.133   9.908   5.986  1.2552  0.5409  0.4170
 6711SOL    HW223632   6.081   9.768   6.008 -0.9851  1.4815  1.4843
 6712SOL     OW23633   8.394   0.927   9.738 -0.4487 -0.3287 -0.4038
 6712SOL    HW123634   8.386   0.995   9.672 -0.4139  0.7778  0.6847
 6712SOL    HW223635   8.465   0.958   9.795 -0.3951 -1.3088  0.0874
 6713SOL     OW23636   9.795   3.095   9.000 -0.0975 -0.8053 -0.7216
 6713SOL    HW123637   9.878   3.143   9.010 -0.2080 -0.9467  1.2152
 6713SOL    HW223638   9.731   3.163   8.978 -0.3081  0.1207  2.2682
 6714SOL     OW23639   1.456   7.454   1.407  0.1974  0.0958  0.2911
 6714SOL    HW123640   1.552   7.453   1.396  0.2535  0.7549  0.6732
 6714SOL    HW223641   1.428   7.536   1.366 -0.1924 -0.0140  0.3342
 6715SOL     OW23642   2.945   6.833   2.185  0.4677  0.5385 -0.2163
 6715SOL    HW123643   3.026   6.836   2.235  0.6249  0.3173 -0.4531
 6715SOL    HW223644   2.964   6.883   2.105  0.4825  0.1994 -0.4268
 6716SOL     OW23645   9.767   8.340  10.308  0.2605 -0.4517  0.2687
 6716SOL    HW123646   9.743   8.249  10.296 -1.6176 -0.1054  1.0526
 6716SOL    HW223647   9.686   8.389  10.293  1.3800  1.1748 -0.9051
 6717SOL     OW23648   5.558   3.560   8.861 -0.2386 -0.2959 -0.0551
 6717SOL    HW123649   5.595   3.529   8.943  0.0310 -1.1666 -0.4988
 6717SOL    HW223650   5.613   3.522   8.793 -0.6253  0.1845 -0.6588
 6718SOL     OW23651   3.207   5.629   4.615  0.0057 -0.0794  0.4632
 6718SOL    HW123652   3.224   5.539   4.585  1.5069  0.3741 -0.1181
 6718SOL    HW223653   3.158   5.617   4.697 -1.2505 -1.3881 -0.4285
 6719SOL     OW23654   6.922   1.739   3.444  0.7555 -1.4289 -0.6688
 6719SOL    HW123655   6.972   1.708   3.368 -1.7973 -1.8981 -2.2754
 6719SOL    HW223656   6.831   1.736   3.415 -0.2589 -0.8589  2.1932
 6720SOL     OW23657   9.973   3.168   1.340  0.0069  0.1699 -0.3457
 6720SOL    HW123658   9.948   3.163   1.248 -1.1447 -0.1072 -0.0364
 6720SOL    HW223659   9.958   3.259   1.365 -1.6609 -0.1954  0.0799
 6721SOL     OW23660   0.650   1.568   0.462  0.4296  0.2659  0.3290
 6721SOL    HW123661   0.560   1.594   0.443  0.5832 -0.4318 -1.6318
 6721SOL    HW223662   0.646   1.473   0.473  0.6431  0.4464  2.3254
 6722SOL     OW23663   0.021   5.401   0.169  0.3263 -0.0400 -0.6676
 6722SOL    HW123664   0.048   5.312   0.194 -0.7832  0.1517  1.3936
 6722SOL    HW223665   0.101   5.440   0.131  1.6087 -1.0396  0.8773
 6723SOL     OW23666   2.278   0.031   6.639  0.0576  0.8169  0.3337
 6723SOL    HW123667   2.282  -0.019   6.557 -0.1792  1.0182  0.1970
 6723SOL    HW223668   2.365   0.070   6.648 -0.0808  1.2330 -0.1030
 6724SOL     OW23669  10.643   5.889  10.002 -0.0153 -0.3929  0.0877
 6724SOL    HW123670  10.676   5.897   9.912 -0.0032 -0.1463  0.1133
 6724SOL    HW223671  10.548   5.879   9.991  0.1366 -1.8392 -0.0180
 6725SOL     OW23672  10.933   6.768  10.070 -0.6461  0.1187  0.6645
 6725SOL    HW123673  10.876   6.723  10.008  0.7419  1.8907 -2.0999
 6725SOL    HW223674  10.988   6.699  10.106 -0.4923 -0.8281 -1.2714
 6726SOL     OW23675   4.906  10.995  10.342 -0.1414 -0.0232  0.3289
 6726SOL    HW123676   4.911  10.927  10.275  1.0713  1.0553 -0.7322
 6726SOL    HW223677   4.850  11.063  10.303  0.3162  0.4710  0.5163
 6727SOL     OW23678   9.014   3.384   3.314 -0.0409 -0.6979 -0.2337
 6727SOL    HW123679   8.943   3.437   3.351  0.3372 -0.6792  0.4796
 6727SOL    HW223680   8.971   3.303   3.287 -0.1506 -1.1816  1.3001
 6728SOL     OW23681   8.357   0.741   1.742 -0.2486 -0.3706  0.5354
 6728SOL    HW123682   8.373   0.662   1.794  1.7372  0.1084  0.7330
 6728SOL    HW223683   8.303   0.796   1.798 -0.3550 -0.9546  1.0181
 6729SOL     OW23684   0.159   1.607  10.989 -0.2580  0.2586  0.1263
 6729SOL    HW123685   0.238   1.643  11.030  0.7654  1.6092 -2.7740
 6729SOL    HW223686   0.190   1.567  10.908 -2.3413 -0.8403 -0.1837
 6730SOL     OW23687   6.510   0.046  10.559  0.4016 -0.3563  0.1826
 6730SOL    HW123688   6.569   0.085  10.495 -0.4553 -0.2343 -0.5513
 6730SOL    HW223689   6.558  -0.030  10.592  1.2079  0.0808  0.0474
 6731SOL     OW23690   0.662   6.022   1.839 -0.0716  0.1738 -0.3376
 6731SOL    HW123691   0.676   5.984   1.752 -2.0929 -2.4303  0.3479
 6731SOL    HW223692   0.675   6.116   1.826  0.3179 -0.1831 -3.2984
 6732SOL     OW23693   9.468   0.499   4.273 -1.3974 -0.2779  0.1501
 6732SOL    HW123694   9.421   0.482   4.355  0.8604  0.1164  1.6198
 6732SOL    HW223695   9.524   0.422   4.261  0.6477  1.0142  0.7970
 6733SOL     OW23696   9.998   6.866   5.102  0.1714  0.2377 -0.2018
 6733SOL    HW123697   9.912   6.908   5.101 -0.6165 -1.2444 -2.2686
 6733SOL    HW223698   9.992   6.800   5.171  0.1594  1.0346  0.5794
 6734SOL     OW23699   2.493   8.978   5.453  0.6231  0.1894 -0.0448
 6734SOL    HW123700   2.408   8.976   5.409  0.9251 -2.2134 -0.6521
 6734SOL    HW223701   2.496   9.065   5.495 -1.5679  0.8188 -1.0308
 6735SOL     OW23702   4.548   8.816  10.972 -0.0092 -0.1943 -0.2543
 6735SOL    HW123703   4.586   8.890  10.925  0.2061 -1.1429 -1.6330
 6735SOL    HW223704   4.586   8.739  10.930  0.2109 -1.0980  1.5222
 6736SOL     OW23705   5.153   2.004   9.382 -0.1892 -0.2013 -0.0319
 6736SOL    HW123706   5.167   2.051   9.300  1.4054 -0.2350  0.1930
 6736SOL    HW223707   5.073   1.954   9.368  0.1261 -0.2992 -1.6073
 6737SOL     OW23708   4.205   0.128   1.120  0.1949 -0.8225  0.1722
 6737SOL    HW123709   4.250   0.204   1.083 -0.8144 -0.0259  0.5198
 6737SOL    HW223710   4.266   0.092   1.183 -0.2986  1.3643  2.0261
 6738SOL     OW23711  10.745   0.823   7.360 -0.1264 -0.2795 -0.5053
 6738SOL    HW123712  10.649   0.832   7.363 -0.0732 -0.0109  1.2315
 6738SOL    HW223713  10.777   0.912   7.352 -0.0026 -0.2465  0.2702
 6739SOL     OW23714   3.255   6.187   1.704 -0.3240 -0.0307 -0.2269
 6739SOL    HW123715   3.244   6.261   1.645  0.7950  0.3583  0.0208
 6739SOL    HW223716   3.348   6.164   1.697 -0.2334 -0.1812  1.1119
 6740SOL     OW23717   7.850  10.618   2.220 -0.3781 -0.1148 -0.3346
 6740SOL    HW123718   7.908  10.543   2.212 -0.8387 -0.4717 -0.3361
 6740SOL    HW223719   7.814  10.612   2.309 -0.8683 -0.2270 -0.5371
 6741SOL     OW23720   6.914  10.266   8.605  0.6531  0.8498 -0.5386
 6741SOL    HW123721   6.891  10.185   8.559 -0.1490  0.0568  1.1543
 6741SOL    HW223722   6.919  10.333   8.536 -0.1874 -0.3242 -1.7886
 6742SOL     OW23723   9.713   7.689   0.264  0.5728 -0.1171  0.3823
 6742SOL    HW123724   9.625   7.709   0.233  0.4966  0.9931  1.2260
 6742SOL    HW223725   9.745   7.772   0.300  1.4758 -0.8131  1.2450
 6743SOL     OW23726  10.216   2.607   0.645 -0.5226  0.1789 -0.4839
 6743SOL    HW123727  10.227   2.699   0.668  1.2054 -0.0036 -0.4420
 6743SOL    HW223728  10.302   2.567   0.663 -0.9285 -1.2239 -1.4530
 6744SOL     OW23729   1.165   5.583   6.857  0.6080  0.3535  0.8452
 6744SOL    HW123730   1.191   5.501   6.899  0.9038  0.0215  0.0516
 6744SOL    HW223731   1.122   5.555   6.776  0.6201  0.9754  0.6199
 6745SOL     OW23732   8.387   3.581   0.305 -0.2240 -0.1901  0.3271
 6745SOL    HW123733   8.404   3.647   0.238 -2.4461  0.1415  0.0210
 6745SOL    HW223734   8.403   3.625   0.388  0.6515 -0.0199  0.0761
 6746SOL     OW23735   4.256   0.124   5.368  0.2748  0.0745 -0.6320
 6746SOL    HW123736   4.246   0.219   5.356 -0.5908 -0.0839 -1.2800
 6746SOL    HW223737   4.187   0.100   5.430 -1.0957 -0.4729 -2.2962
 6747SOL     OW23738   1.672   1.252  10.851  0.7554 -0.2055  0.0305
 6747SOL    HW123739   1.674   1.344  10.877 -0.1670 -0.2889  0.4647
 6747SOL    HW223740   1.711   1.206  10.926 -1.2357 -0.3801  1.0367
 6748SOL     OW23741   4.747   5.785   1.737 -0.2325 -0.1728 -0.7267
 6748SOL    HW123742   4.830   5.805   1.780 -0.7635  1.8181 -0.5310
 6748SOL    HW223743   4.704   5.723   1.796  1.3068 -1.6373 -1.0883
 6749SOL     OW23744   5.957   2.710   6.862  0.1317  0.4434 -0.6494
 6749SOL    HW123745   5.903   2.767   6.808 -0.1708  0.4841 -0.3044
 6749SOL    HW223746   5.944   2.622   6.825 -2.0712  0.0528  0.8908
 6750SOL     OW23747   2.343   8.518   2.904  0.2395  0.4638  0.3570
 6750SOL    HW123748   2.418   8.492   2.850  0.2470  0.7528  0.2261
 6750SOL    HW223749   2.355   8.613   2.917  0.6961  0.2583  1.5662
 6751SOL     OW23750   7.687   4.401   1.906  0.0143 -0.2881  0.0996
 6751SOL    HW123751   7.759   4.458   1.879 -0.4068 -0.3100 -1.1479
 6751SOL    HW223752   7.725   4.345   1.974  0.7032  0.7857  0.6342
 6752SOL     OW23753   1.405   0.158   4.569 -0.6302 -0.7369  0.5484
 6752SOL    HW123754   1.461   0.105   4.512 -0.0280  1.1643 -0.7244
 6752SOL    HW223755   1.319   0.154   4.529 -0.7012 -1.1433  0.7383
 6753SOL     OW23756   4.432   0.302   7.710 -0.4539 -0.0541  0.0223
 6753SOL    HW123757   4.505   0.266   7.760 -0.5670  1.3192  1.2252
 6753SOL    HW223758   4.354   0.261   7.749 -0.4184 -0.5902 -0.4545
 6754SOL     OW23759   2.720   6.622   8.126  0.3172 -0.2925  0.5772
 6754SOL    HW123760   2.638   6.575   8.113  0.6889 -0.6612 -0.5941
 6754SOL    HW223761   2.787   6.562   8.095  0.9594  0.3153  0.7627
 6755SOL     OW23762   7.152   9.948  10.165  0.0149 -0.1673 -0.1380
 6755SOL    HW123763   7.161   9.954  10.261 -1.6120  1.7196 -0.0529
 6755SOL    HW223764   7.233   9.986  10.131 -1.2524  3.5463  0.5682
 6756SOL     OW23765   4.237  10.690   4.136 -0.0511  0.1421  0.3125
 6756SOL    HW123766   4.327  10.678   4.107 -0.5751 -0.4903 -1.1995
 6756SOL    HW223767   4.207  10.769   4.090 -0.5331 -0.1831  0.0476
 6757SOL     OW23768   5.965   9.036  10.623  0.0829 -1.0432  0.0695
 6757SOL    HW123769   5.969   8.995  10.709  1.2072  1.0736  1.0726
 6757SOL    HW223770   5.934   9.125  10.639 -1.4142 -1.1310 -1.9413
 6758SOL     OW23771   4.401   5.852  10.804  0.2745  1.4171 -0.4390
 6758SOL    HW123772   4.351   5.886  10.730  1.8594 -0.2585 -2.4176
 6758SOL    HW223773   4.390   5.917  10.873 -3.7294  1.6314 -1.0499
 6759SOL     OW23774  10.585   1.490   9.305 -0.1143 -0.3001  0.3333
 6759SOL    HW123775  10.546   1.423   9.361 -1.3937 -0.5623 -0.8139
 6759SOL    HW223776  10.633   1.440   9.238 -1.8302 -0.1688 -1.0718
 6760SOL     OW23777   1.284   9.195   7.372 -0.4601 -0.4161  0.1287
 6760SOL    HW123778   1.291   9.244   7.290 -0.2549 -0.8374 -0.1155
 6760SOL    HW223779   1.368   9.148   7.378  1.3062  2.6772  2.6288
 6761SOL     OW23780   3.614   8.799   8.314 -0.1431 -0.4209 -0.8736
 6761SOL    HW123781   3.575   8.804   8.226 -2.4056  1.1153  0.1072
 6761SOL    HW223782   3.585   8.715   8.348 -0.4365 -0.4182 -1.1096
 6762SOL     OW23783   0.711   6.616   7.438 -0.1349  0.1554 -0.2547
 6762SOL    HW123784   0.657   6.626   7.360 -0.0349  1.3309 -0.1891
 6762SOL    HW223785   0.694   6.526   7.467 -1.1623  0.1201 -0.8939
 6763SOL     OW23786   7.302  10.130   2.173  0.1923  0.4226 -0.2067
 6763SOL    HW123787   7.346  10.206   2.136  0.2644  0.3706 -0.2297
 6763SOL    HW223788   7.287  10.152   2.265  1.2749  0.0013  0.0870
 6764SOL     OW23789   3.990   6.512   9.722 -0.4062  0.0201  0.7438
 6764SOL    HW123790   3.942   6.571   9.780  1.5616  1.9485  0.5802
 6764SOL    HW223791   4.082   6.522   9.749  0.2373 -1.2698 -0.8100
 6765SOL     OW23792   7.190   9.677   8.214 -0.0105 -0.2684 -0.1912
 6765SOL    HW123793   7.116   9.687   8.155 -0.4143 -0.2394  0.3073
 6765SOL    HW223794   7.150   9.667   8.301  0.5504 -0.7605  0.0205
 6766SOL     OW23795  10.339   6.735   4.775 -0.0606 -0.7093  0.1353
 6766SOL    HW123796  10.265   6.675   4.768 -0.4756 -0.0576 -1.7731
 6766SOL    HW223797  10.309   6.803   4.836 -0.1669 -1.5854  1.0878
 6767SOL     OW23798   0.799   7.390   5.900 -0.3789 -0.2620 -1.1645
 6767SOL    HW123799   0.840   7.313   5.939  1.3436  0.9766 -0.4153
 6767SOL    HW223800   0.723   7.408   5.954  0.3338 -0.2910 -0.1330
 6768SOL     OW23801   4.996   7.864   1.801 -0.6996 -0.4417  0.4179
 6768SOL    HW123802   4.949   7.788   1.835  1.1557 -2.2054 -0.7849
 6768SOL    HW223803   5.081   7.861   1.844  0.8979 -1.4610 -2.5382
 6769SOL     OW23804   7.590   0.453   4.148 -0.6333  0.0289 -0.0107
 6769SOL    HW123805   7.579   0.428   4.240  0.3151 -0.1891  0.0546
 6769SOL    HW223806   7.580   0.548   4.148 -0.7464  0.0205  0.2970
 6770SOL     OW23807   4.584   4.025   1.957 -0.1180 -0.0158  0.5847
 6770SOL    HW123808   4.673   4.060   1.970  0.0181  0.5856 -1.5671
 6770SOL    HW223809   4.530   4.073   2.020  0.4336  2.6953 -0.8198
 6771SOL     OW23810   0.491   6.940   4.884  0.0178  0.2560 -0.1692
 6771SOL    HW123811   0.490   6.850   4.852  0.4477  0.8089 -1.8471
 6771SOL    HW223812   0.545   6.938   4.963  1.7153 -0.6129 -1.3088
 6772SOL     OW23813   0.802   0.431   0.952  0.1246  0.2436  0.1733
 6772SOL    HW123814   0.788   0.361   1.016  0.5435  0.8221  0.9101
 6772SOL    HW223815   0.732   0.494   0.970  0.6806  0.7567  0.5504
 6773SOL     OW23816   9.688   0.645   3.877 -0.5064 -0.4889  0.1649
 6773SOL    HW123817   9.619   0.613   3.819 -1.1121  0.3962  0.3781
 6773SOL    HW223818   9.647   0.650   3.963 -0.1018 -0.2085  0.3450
 6774SOL     OW23819   5.903   8.546   5.276  0.4226 -0.1688 -0.0838
 6774SOL    HW123820   5.835   8.507   5.332  1.1092  0.9325  1.5970
 6774SOL    HW223821   5.930   8.475   5.218 -2.6192 -0.4790 -1.3234
 6775SOL     OW23822   8.006   3.601   0.624 -0.1333 -0.2971  0.2049
 6775SOL    HW123823   7.925   3.609   0.674 -0.5636 -0.5586 -0.4441
 6775SOL    HW223824   7.982   3.550   0.547  0.3701  0.6504 -0.6076
 6776SOL     OW23825  10.906  10.585   6.192 -0.1401 -0.3987  0.2300
 6776SOL    HW123826  10.835  10.548   6.139 -1.0546 -0.2798  1.3097
 6776SOL    HW223827  10.878  10.568   6.282  1.9531 -1.7192  0.6972
 6777SOL     OW23828   0.411   7.191   5.872  0.5363  0.2536  0.0696
 6777SOL    HW123829   0.392   7.270   5.923 -1.0646 -0.3020  0.4170
 6777SOL    HW223830   0.327   7.169   5.832  1.3647 -0.3168 -1.4260
 6778SOL     OW23831   1.072   4.901   3.412 -0.5468  0.1177 -0.4760
 6778SOL    HW123832   1.164   4.890   3.387 -0.3918  0.6899 -0.1827
 6778SOL    HW223833   1.064   4.995   3.431 -0.6368 -0.2817  1.6508
 6779SOL     OW23834   0.500   4.134   0.962  0.6273 -0.1638  0.1176
 6779SOL    HW123835   0.579   4.104   0.917  1.4480  0.5438  1.0544
 6779SOL    HW223836   0.531   4.198   1.025 -0.8033  0.8092 -0.1185
 6780SOL     OW23837   1.069   2.570   4.285 -0.0745  0.0342 -0.4915
 6780SOL    HW123838   1.095   2.657   4.253 -2.9330  1.2216  0.1177
 6780SOL    HW223839   0.975   2.566   4.267 -0.0839 -2.8186 -0.1217
 6781SOL     OW23840   2.596   5.149   7.017  0.0479  0.0064  0.3222
 6781SOL    HW123841   2.533   5.220   7.005 -1.8169 -1.3382  1.6535
 6781SOL    HW223842   2.672   5.190   7.059 -0.3738  1.4392 -0.2553
 6782SOL     OW23843   5.820   2.567   4.503 -0.2678 -0.1572  0.6184
 6782SOL    HW123844   5.736   2.610   4.518  0.1033  1.1588 -0.7542
 6782SOL    HW223845   5.885   2.631   4.533  0.2988  0.2807 -1.3824
 6783SOL     OW23846  10.348   0.041   9.475 -0.0817 -0.8657  0.0814
 6783SOL    HW123847  10.420   0.071   9.530 -0.4340 -0.4010  0.2954
 6783SOL    HW223848  10.390   0.012   9.394  0.2376  0.8127 -0.3885
 6784SOL     OW23849   5.127   3.634   1.940  0.0582 -0.5639  0.3989
 6784SOL    HW123850   5.077   3.559   1.907 -0.7061 -0.6381  1.6661
 6784SOL    HW223851   5.090   3.651   2.027  0.4261  1.0979  0.2528
 6785SOL     OW23852  10.155   9.355   2.935 -0.0056 -0.0780 -0.4157
 6785SOL    HW123853  10.104   9.276   2.919 -0.9751  0.0578  1.6928
 6785SOL    HW223854  10.125   9.386   3.020  1.4975  1.6836 -0.4702
 6786SOL     OW23855   1.095   4.159  10.507  0.0034  0.5907 -0.2624
 6786SOL    HW123856   1.146   4.128  10.582 -0.5669 -0.7554 -0.4077
 6786SOL    HW223857   1.121   4.251  10.496  2.8375 -0.1651 -0.6686
 6787SOL     OW23858   6.126   5.329   0.137  0.6242  0.4047  0.0403
 6787SOL    HW123859   6.111   5.285   0.221  1.6217 -2.6175 -1.2211
 6787SOL    HW223860   6.136   5.258   0.074 -0.7793  2.5467 -2.8416
 6788SOL     OW23861   5.701   2.796   5.695  0.0053 -0.6274 -0.0544
 6788SOL    HW123862   5.680   2.705   5.676  0.5265 -0.8263  0.2972
 6788SOL    HW223863   5.639   2.847   5.643  0.3401 -1.1695 -0.9929
 6789SOL     OW23864   4.798   7.643   1.746  0.4826 -0.0740 -0.3040
 6789SOL    HW123865   4.774   7.661   1.655  0.2254  0.4577 -0.1303
 6789SOL    HW223866   4.735   7.691   1.798  1.2126  0.3959  0.1594
 6790SOL     OW23867   5.528   1.113   2.425 -0.2882  0.6890  0.5374
 6790SOL    HW123868   5.552   1.130   2.334  0.9483 -1.5323  0.3923
 6790SOL    HW223869   5.502   1.021   2.427 -1.2291  0.9395  2.2771
 6791SOL     OW23870   0.507   3.812   8.984 -0.0957 -0.2511  0.1844
 6791SOL    HW123871   0.589   3.836   8.940 -0.6900  0.4398 -0.5872
 6791SOL    HW223872   0.502   3.871   9.059 -0.9061  1.2499 -0.9736
 6792SOL     OW23873   9.465   6.052   5.892 -0.0088  0.7069 -0.4233
 6792SOL    HW123874   9.460   6.030   5.985 -0.2472 -1.0017 -0.8032
 6792SOL    HW223875   9.410   6.130   5.883 -2.6187 -0.9203  0.3837
 6793SOL     OW23876   8.466   3.548   4.345 -0.1576  0.4025 -0.6287
 6793SOL    HW123877   8.374   3.523   4.350  0.3335 -1.2591  0.9491
 6793SOL    HW223878   8.464   3.640   4.316 -2.2141 -0.0432 -2.0983
 6794SOL     OW23879   8.323   4.523   4.192  0.2723  0.5625 -0.0515
 6794SOL    HW123880   8.256   4.589   4.210  1.7200  1.8211  0.9732
 6794SOL    HW223881   8.369   4.512   4.275 -0.2151 -2.1621 -0.0324
 6795SOL     OW23882   3.308   6.708   3.247  0.2153 -0.3460  0.1349
 6795SOL    HW123883   3.264   6.649   3.186  0.9588 -0.6985 -0.0802
 6795SOL    HW223884   3.250   6.711   3.323  0.1953 -1.4396  0.1883
 6796SOL     OW23885   7.300   3.470   6.925 -0.0935  0.0076 -0.5909
 6796SOL    HW123886   7.390   3.439   6.923 -0.5904 -1.4951 -0.9845
 6796SOL    HW223887   7.247   3.391   6.911 -1.5078  0.6807  0.6832
 6797SOL     OW23888   7.394   8.407   1.243  0.6091  0.0930  0.0828
 6797SOL    HW123889   7.377   8.328   1.295 -0.6936  0.4925  0.3212
 6797SOL    HW223890   7.348   8.476   1.291 -2.1920  0.1924 -2.4675
 6798SOL     OW23891   0.283   5.413   1.394 -0.1490 -0.0499  0.2952
 6798SOL    HW123892   0.288   5.371   1.480  0.6728 -1.2161 -0.2991
 6798SOL    HW223893   0.192   5.404   1.368 -0.3385  0.0340  0.9050
 6799SOL     OW23894   1.114   7.282   5.320 -0.3346  0.0141  0.4847
 6799SOL    HW123895   1.175   7.337   5.369  0.5322  0.1489 -0.6853
 6799SOL    HW223896   1.141   7.193   5.339 -1.1610 -0.0104  1.6594
 6800SOL     OW23897   3.688   9.495   0.453  0.0321  0.2799 -0.2415
 6800SOL    HW123898   3.744   9.550   0.508 -1.0817  0.5448  0.6621
 6800SOL    HW223899   3.724   9.407   0.463 -0.1008  0.3368  0.8740
 6801SOL     OW23900   8.917   6.506  10.894 -0.0879  0.7455  0.4099
 6801SOL    HW123901   8.948   6.555  10.818  0.8340 -0.6783 -0.1909
 6801SOL    HW223902   8.992   6.452  10.920  0.1701  2.3251  3.3661
 6802SOL     OW23903   5.550   6.203   3.730  0.3587 -0.9032 -0.3738
 6802SOL    HW123904   5.490   6.205   3.655 -1.0561 -1.0412  0.7170
 6802SOL    HW223905   5.528   6.123   3.777  0.2157 -0.1079  0.9688
 6803SOL     OW23906   9.989   6.375   9.922 -0.2261  0.4123 -0.2425
 6803SOL    HW123907  10.085   6.370   9.918 -0.2322 -2.2281  1.0915
 6803SOL    HW223908   9.961   6.288   9.952 -3.0835  0.9858 -0.9233
 6804SOL     OW23909   7.729   4.558   3.567  0.1128  0.1173 -0.0562
 6804SOL    HW123910   7.638   4.582   3.549  0.1496 -0.6093 -1.3232
 6804SOL    HW223911   7.745   4.482   3.511  1.5787  0.3949 -0.0438
 6805SOL     OW23912   6.652   6.424   8.776  0.4135 -0.4339 -0.2628
 6805SOL    HW123913   6.689   6.508   8.750 -0.0122 -0.5292 -1.2518
 6805SOL    HW223914   6.608   6.392   8.697 -1.1062 -0.6803  0.6355
 6806SOL     OW23915   0.813   1.064   3.594 -0.1744 -0.1090  0.1575
 6806SOL    HW123916   0.890   1.118   3.574  0.7052 -1.6799 -0.8188
 6806SOL    HW223917   0.742   1.106   3.546  0.5057  0.1323 -0.6596
 6807SOL     OW23918   7.066  10.235   8.830 -0.1658  0.5179 -0.4356
 6807SOL    HW123919   7.143  10.287   8.808 -0.6691  0.7202 -1.8083
 6807SOL    HW223920   7.013  10.235   8.750 -1.6724  0.5421  0.5156
 6808SOL     OW23921   2.515   7.293   7.646  0.1913 -0.1684  0.1663
 6808SOL    HW123922   2.506   7.341   7.728 -1.1179 -0.7331  0.3789
 6808SOL    HW223923   2.427   7.292   7.609  0.0460 -2.7444  0.4009
 6809SOL     OW23924   1.651   3.816   6.017 -0.2606 -0.7678 -0.3965
 6809SOL    HW123925   1.694   3.738   6.052  0.1329  0.2522  1.4769
 6809SOL    HW223926   1.709   3.888   6.039 -1.2609  0.2284 -0.9306
 6810SOL     OW23927   1.936   1.161   2.597  0.1811 -0.2524 -0.7279
 6810SOL    HW123928   1.924   1.066   2.600 -0.8715 -0.1132  0.6551
 6810SOL    HW223929   1.960   1.179   2.506 -0.4763 -1.7472 -1.2362
 6811SOL     OW23930  10.527   5.504  10.287  0.0636  0.6786 -0.2257
 6811SOL    HW123931  10.533   5.553  10.205  1.2068  1.0848  0.0822
 6811SOL    HW223932  10.516   5.571  10.354  2.3514  0.6097  0.2769
 6812SOL     OW23933   6.776   3.979   6.626 -0.1775  0.0871 -0.1659
 6812SOL    HW123934   6.860   4.015   6.654 -0.0379  1.0135 -1.7041
 6812SOL    HW223935   6.730   4.053   6.586  0.0994 -1.3241 -3.3877
 6813SOL     OW23936   9.662   5.310   8.178  0.1228  0.2351 -0.5007
 6813SOL    HW123937   9.683   5.387   8.125  1.0101  0.3300 -0.0444
 6813SOL    HW223938   9.748   5.270   8.197 -0.1658  0.2012  0.8358
 6814SOL     OW23939  10.112   7.902   5.725 -0.1469  0.7393 -0.1145
 6814SOL    HW123940  10.195   7.873   5.763  0.1379  1.0743 -0.4813
 6814SOL    HW223941  10.075   7.961   5.790 -0.5887 -0.1827  0.5056
 6815SOL     OW23942   9.304   4.658   8.269  0.0485  0.8002  0.3297
 6815SOL    HW123943   9.323   4.750   8.254  2.7547  0.0231 -1.7932
 6815SOL    HW223944   9.288   4.622   8.182  3.0553 -1.4355  0.5585
 6816SOL     OW23945   6.245   6.324   2.627 -0.1183  0.5559 -0.4485
 6816SOL    HW123946   6.281   6.380   2.695  0.1772  0.7688 -0.7800
 6816SOL    HW223947   6.297   6.243   2.633  0.0116  0.6337 -0.5266
 6817SOL     OW23948   7.191   9.170  10.444 -0.3180  0.4731  0.1346
 6817SOL    HW123949   7.141   9.208  10.516 -1.2927  1.2530 -0.9058
 6817SOL    HW223950   7.221   9.246  10.394 -1.4652 -0.0518 -1.4472
 6818SOL     OW23951   4.600   9.773   2.267  0.2047 -0.4291  0.8190
 6818SOL    HW123952   4.615   9.720   2.346  1.5227  0.6354  1.3103
 6818SOL    HW223953   4.532   9.835   2.293  0.5260 -0.1807  1.0651
 6819SOL     OW23954   4.905   7.408   7.190  0.1093 -0.3092  0.6170
 6819SOL    HW123955   4.917   7.480   7.128 -1.3590  0.2220  0.9039
 6819SOL    HW223956   4.943   7.331   7.146  0.9640  0.4673 -0.0337
 6820SOL     OW23957  10.315   7.114   7.767 -0.3978 -0.0868 -0.2354
 6820SOL    HW123958  10.356   7.197   7.791  1.9080 -1.0912 -0.4428
 6820SOL    HW223959  10.302   7.069   7.850  1.7509 -0.9685 -0.3176
 6821SOL     OW23960   7.059   3.025   6.775  0.0360  0.1201 -0.2875
 6821SOL    HW123961   7.131   2.972   6.809  0.1524  0.3749 -0.1342
 6821SOL    HW223962   7.086   3.048   6.686  1.1753  2.0579  0.4993
 6822SOL     OW23963   5.188   4.012   8.801 -0.0552 -0.3047 -0.6899
 6822SOL    HW123964   5.257   4.071   8.830  0.8477 -0.7345 -1.9030
 6822SOL    HW223965   5.232   3.928   8.790 -0.8125 -0.6281 -1.3112
 6823SOL     OW23966   9.844   6.844  10.765  0.2369 -0.3858 -0.1169
 6823SOL    HW123967   9.900   6.906  10.811  2.3393 -0.4087 -2.4404
 6823SOL    HW223968   9.876   6.758  10.792 -0.6145 -0.4605  0.7130
 6824SOL     OW23969  10.502   8.553   7.055 -0.5830  0.2438  0.3531
 6824SOL    HW123970  10.568   8.494   7.091  0.4419  1.1180 -0.0788
 6824SOL    HW223971  10.518   8.637   7.099 -0.6415  0.7756 -0.6310
 6825SOL     OW23972   5.303   4.623   2.587  0.0268  0.0652 -0.0302
 6825SOL    HW123973   5.340   4.578   2.663 -1.5446 -1.4798 -0.1148
 6825SOL    HW223974   5.291   4.554   2.522  0.8811  1.2760 -1.5414
 6826SOL     OW23975   2.528   3.291   8.909 -0.2493  0.2938  0.2848
 6826SOL    HW123976   2.563   3.310   8.996 -0.4376  0.7602  0.2588
 6826SOL    HW223977   2.517   3.376   8.868 -2.0019  0.2144  0.5167
 6827SOL     OW23978   8.444   9.872   4.963 -0.3749 -0.6077 -0.1512
 6827SOL    HW123979   8.470   9.924   4.886  0.0580  0.9133  0.9751
 6827SOL    HW223980   8.525   9.864   5.014 -1.0816  0.2091  1.1458
 6828SOL     OW23981   0.349   7.151   6.202 -0.2176 -0.5638  0.1032
 6828SOL    HW123982   0.323   7.195   6.121 -0.7396 -2.2753 -0.7130
 6828SOL    HW223983   0.267   7.125   6.243  0.0711 -0.7509  0.5747
 6829SOL     OW23984   7.682   6.474   8.777 -0.4968 -0.0743  0.2587
 6829SOL    HW123985   7.616   6.521   8.728 -0.7696 -1.2101 -0.5003
 6829SOL    HW223986   7.645   6.387   8.791  0.8160 -0.7439 -0.1977
 6830SOL     OW23987   3.620   6.609   3.202 -0.5454 -0.4169 -0.0600
 6830SOL    HW123988   3.602   6.550   3.129  0.2521 -0.2288 -0.4153
 6830SOL    HW223989   3.622   6.696   3.162 -2.3165 -0.0406  0.5508
 6831SOL     OW23990   9.841   7.439   0.355  0.7696  0.1636  0.5042
 6831SOL    HW123991   9.836   7.531   0.329 -0.9423 -0.0052  0.1532
 6831SOL    HW223992   9.872   7.442   0.446  2.8618  0.9481 -0.1863
 6832SOL     OW23993  10.946   5.628   5.419  0.3921 -0.4434 -0.9225
 6832SOL    HW123994  10.858   5.646   5.386  0.2155  1.0666  0.2599
 6832SOL    HW223995  10.931   5.569   5.494  0.1355  1.3481  0.5168
 6833SOL     OW23996   2.752   7.406   9.705  0.6435 -0.1099 -0.4754
 6833SOL    HW123997   2.786   7.379   9.791  0.1397 -1.7563 -0.7458
 6833SOL    HW223998   2.790   7.343   9.644 -1.3789 -0.8624 -1.0240
 6834SOL     OW23999   8.439   0.083   4.552  0.2015 -0.3034 -1.0183
 6834SOL    HW124000   8.398   0.003   4.518  0.2289 -0.7495 -0.0255
 6834SOL    HW224001   8.443   0.070   4.646  2.2975 -0.1437 -1.0219
 6835SOL     OW24002   7.801   1.214   1.797  0.0356 -0.0487 -0.2267
 6835SOL    HW124003   7.758   1.295   1.770 -0.6559 -0.0212  0.9374
 6835SOL    HW224004   7.738   1.169   1.853  0.6641 -1.0831 -0.3095
 6836SOL     OW24005   4.045   6.780   5.980 -0.0079  0.3447 -0.1076
 6836SOL    HW124006   4.048   6.861   6.032 -0.0061 -0.7787  1.7345
 6836SOL    HW224007   4.137   6.762   5.958  0.1365  0.1414  0.6399
 6837SOL     OW24008   5.850   0.210   4.770  0.1634 -0.1755 -0.0963
 6837SOL    HW124009   5.831   0.216   4.863 -2.4391  0.5647 -0.5991
 6837SOL    HW224010   5.919   0.275   4.755  1.1111 -0.8058  1.4056
 6838SOL     OW24011   2.394   5.468   8.431 -0.5959 -0.1888  0.0864
 6838SOL    HW124012   2.390   5.415   8.510 -1.6998 -0.3537 -0.0578
 6838SOL    HW224013   2.395   5.404   8.359 -1.8986 -0.0538 -0.0856
 6839SOL     OW24014   0.719   1.737   3.496 -0.1155 -0.0828 -0.4362
 6839SOL    HW124015   0.706   1.683   3.418 -0.4179  0.2148 -0.5963
 6839SOL    HW224016   0.632   1.744   3.535  0.0518 -0.3199 -0.0079
 6840SOL     OW24017   1.215   6.662   6.880 -0.2860 -0.2458 -0.4622
 6840SOL    HW124018   1.199   6.598   6.811 -0.3634 -1.1464  0.3788
 6840SOL    HW224019   1.303   6.696   6.861 -0.2810 -0.5317 -0.9650
 6841SOL     OW24020   8.157   1.357   7.167 -0.8457 -0.1722  0.0120
 6841SOL    HW124021   8.186   1.423   7.230  0.2274  0.5968 -1.2252
 6841SOL    HW224022   8.092   1.403   7.113  2.5199  1.2985 -3.2758
 6842SOL     OW24023   2.768   4.678  10.231  1.5014 -0.6344  0.3127
 6842SOL    HW124024   2.746   4.731  10.308  0.3755  0.3903 -0.6544
 6842SOL    HW224025   2.693   4.690  10.172  1.0726 -3.5059  0.1081
 6843SOL     OW24026   5.166   7.685   7.978 -0.2477  0.7252  0.0201
 6843SOL    HW124027   5.121   7.643   7.904 -0.6026  2.0570 -0.5471
 6843SOL    HW224028   5.198   7.768   7.942 -0.5615  1.4741  1.4182
 6844SOL     OW24029   6.413   9.847   2.747 -0.5873 -0.0221 -0.6498
 6844SOL    HW124030   6.371   9.914   2.800  0.1682 -0.0295 -0.0162
 6844SOL    HW224031   6.445   9.782   2.811  1.1464  0.4276 -0.9952
 6845SOL     OW24032   1.736   4.285   7.132  0.1210 -0.1872 -0.0621
 6845SOL    HW124033   1.743   4.223   7.204 -1.0423  2.1198  2.2043
 6845SOL    HW224034   1.822   4.327   7.128 -0.0480  0.2176  0.5166
 6846SOL     OW24035  10.271   6.992   3.660  0.0147 -0.2785 -0.0255
 6846SOL    HW124036  10.338   6.984   3.592 -0.3611  2.1141 -0.7855
 6846SOL    HW224037  10.320   7.005   3.741  0.4809  0.0783 -0.3622
 6847SOL     OW24038   2.577   8.968   0.976 -0.1773  0.1203  0.3555
 6847SOL    HW124039   2.558   9.049   1.022 -0.2017  0.3227 -0.0148
 6847SOL    HW224040   2.608   8.995   0.890 -0.5824 -0.2725  0.0801
 6848SOL     OW24041   0.104   5.236   3.893 -0.2842 -0.4261 -0.4262
 6848SOL    HW124042   0.141   5.226   3.981 -0.3848 -0.8559 -0.4321
 6848SOL    HW224043   0.175   5.275   3.841  0.8503 -2.9873 -0.9098
 6849SOL     OW24044   9.923   7.049   1.981  0.0745  0.5026  0.3687
 6849SOL    HW124045   9.890   7.039   1.892 -1.1099  1.3016  0.6997
 6849SOL    HW224046   9.883   7.130   2.013  1.7642  1.0962  1.0764
 6850SOL     OW24047   9.048   6.437   9.194  0.4046 -0.0294  0.8807
 6850SOL    HW124048   8.988   6.387   9.139  0.6527  0.0574  0.5275
 6850SOL    HW224049   9.034   6.529   9.169 -1.0702  0.2538  2.5119
 6851SOL     OW24050  10.273  10.962   5.378  0.1908 -0.1589 -0.2471
 6851SOL    HW124051  10.199  11.023   5.377  0.2681 -0.0553  0.0411
 6851SOL    HW224052  10.344  11.011   5.337  0.5188  0.3081  0.8202
 6852SOL     OW24053  10.671   3.923  10.609 -0.2072  0.3197  0.1788
 6852SOL    HW124054  10.674   3.931  10.704 -0.2898  1.7022  0.0767
 6852SOL    HW224055  10.624   4.001  10.580 -0.3438 -0.1814 -0.9899
 6853SOL     OW24056   3.811   3.539   3.938  0.4187 -0.7646 -0.0607
 6853SOL    HW124057   3.834   3.624   3.899 -0.2101 -0.1324  0.9086
 6853SOL    HW224058   3.716   3.538   3.938  0.4106 -1.8286 -0.7838
 6854SOL     OW24059   6.591   0.445   8.722  0.5621  0.1615 -0.1434
 6854SOL    HW124060   6.510   0.414   8.680  0.7131 -1.3382  0.6101
 6854SOL    HW224061   6.632   0.366   8.757  1.9526  1.0042  0.2114
 6855SOL     OW24062   4.156   5.183  10.928 -0.3667  0.0888  0.1442
 6855SOL    HW124063   4.206   5.173  10.847 -1.4944 -1.6233 -0.3774
 6855SOL    HW224064   4.074   5.223  10.901 -1.6843 -2.5189  0.0118
 6856SOL     OW24065   8.024  10.586   5.660 -0.1795 -0.2388  0.3153
 6856SOL    HW124066   8.024  10.641   5.582  0.2575  2.0290  1.8193
 6856SOL    HW224067   8.099  10.527   5.649  1.2434  1.5646 -0.0070
 6857SOL     OW24068   2.900   7.428   8.299  0.1083 -0.2093  0.4501
 6857SOL    HW124069   2.873   7.517   8.321 -2.6855 -0.8370 -0.0659
 6857SOL    HW224070   2.987   7.438   8.260 -1.0060  2.5785 -1.6539
 6858SOL     OW24071   7.746   6.759   6.656 -0.2258  0.0711  0.4850
 6858SOL    HW124072   7.689   6.833   6.639 -2.0199 -0.7613  2.4022
 6858SOL    HW224073   7.765   6.722   6.570  0.4304  2.4637 -0.4910
 6859SOL     OW24074   5.994   8.369   0.143  0.4192 -0.0557  0.0720
 6859SOL    HW124075   6.053   8.430   0.189 -0.8617  0.7726  0.6803
 6859SOL    HW224076   5.974   8.413   0.061  0.1503 -0.0384  0.1464
 6860SOL     OW24077   2.223   4.960   4.957  0.3157  0.0073  0.3013
 6860SOL    HW124078   2.317   4.977   4.959  0.1965  0.6792  0.5035
 6860SOL    HW224079   2.184   5.038   4.997 -0.1936 -1.2264  2.3719
 6861SOL     OW24080   4.073   7.655   9.340  0.3214  0.1252  0.3661
 6861SOL    HW124081   4.034   7.720   9.399  0.7341 -0.5292  1.3883
 6861SOL    HW224082   4.118   7.707   9.274 -1.2316  0.8933 -0.1458
 6862SOL     OW24083   1.811   2.263   5.129 -0.1030  0.5849  0.7072
 6862SOL    HW124084   1.861   2.201   5.076 -1.3366  0.9539 -0.9889
 6862SOL    HW224085   1.833   2.241   5.219  0.9979 -1.0180  0.0939
 6863SOL     OW24086   7.617   9.165   3.391  0.4027 -0.0841  0.3844
 6863SOL    HW124087   7.534   9.162   3.438  0.4047  0.4206  0.4265
 6863SOL    HW224088   7.593   9.185   3.300  0.5517  1.4196  0.6493
 6864SOL     OW24089   7.393   1.490   5.287  0.0513 -0.0109  0.0367
 6864SOL    HW124090   7.353   1.576   5.299 -1.0026 -0.6232  1.1702
 6864SOL    HW224091   7.404   1.456   5.376  0.8797 -0.8660 -0.3696
 6865SOL     OW24092   5.458   6.808   4.326 -0.1914 -0.8797 -0.0331
 6865SOL    HW124093   5.508   6.729   4.306 -0.3249 -0.6561 -1.2950
 6865SOL    HW224094   5.372   6.775   4.353  0.2700 -1.2177  1.0659
 6866SOL     OW24095   2.125   5.154   9.745 -0.1394 -0.0252 -1.3067
 6866SOL    HW124096   2.217   5.127   9.734 -0.2582 -1.0275  0.0010
 6866SOL    HW224097   2.075   5.089   9.696 -0.3104 -1.2342  0.3955
 6867SOL     OW24098   6.823   1.172   1.111 -0.2102 -0.0668 -0.2204
 6867SOL    HW124099   6.883   1.233   1.155  0.3081  1.4183 -2.7617
 6867SOL    HW224100   6.755   1.229   1.074 -2.3874 -1.5746  1.2944
 6868SOL     OW24101   5.019   8.313  10.805  0.1139  0.8292 -0.4054
 6868SOL    HW124102   5.022   8.304  10.710 -0.0364  1.2403 -0.4514
 6868SOL    HW224103   5.083   8.249  10.837 -2.3169 -1.9565 -0.5945
 6869SOL     OW24104   4.236   2.974   6.527 -0.6125 -0.0894 -0.2942
 6869SOL    HW124105   4.191   3.057   6.517  1.2595  0.7946 -2.2532
 6869SOL    HW224106   4.222   2.928   6.444  0.2848 -0.7007 -0.1352
 6870SOL     OW24107   9.720   8.996  10.923 -0.6064 -0.1176  0.4064
 6870SOL    HW124108   9.681   8.920  10.966  0.0365 -0.1524  0.9477
 6870SOL    HW224109   9.653   9.064  10.928 -1.4050 -0.8012 -0.5833
 6871SOL     OW24110  10.163   9.329   4.181 -0.9221  0.2415  0.0519
 6871SOL    HW124111  10.129   9.347   4.269  0.4932  1.8505  0.3310
 6871SOL    HW224112  10.243   9.280   4.196  0.7615  2.7432 -0.0849
 6872SOL     OW24113   7.746   7.370   8.758  0.2983 -0.6087  0.4969
 6872SOL    HW124114   7.665   7.320   8.748 -0.7326 -0.2720  4.9903
 6872SOL    HW224115   7.716   7.461   8.768  1.5576 -0.0485 -0.4855
 6873SOL     OW24116   3.382   1.600   5.453  0.4172  0.2483  0.3619
 6873SOL    HW124117   3.409   1.645   5.374 -0.9343  1.2755  0.4465
 6873SOL    HW224118   3.370   1.509   5.426 -1.6249  0.8674 -1.0805
 6874SOL     OW24119   4.397  10.511  10.249  0.5387 -0.2574  0.0949
 6874SOL    HW124120   4.459  10.509  10.176  0.6982  2.3187  0.0698
 6874SOL    HW224121   4.444  10.472  10.322  1.1609 -0.8699 -0.6143
 6875SOL     OW24122   1.542   4.363   5.942 -0.5930  0.1174 -0.0155
 6875SOL    HW124123   1.571   4.437   5.888  1.5949  0.1587  1.0998
 6875SOL    HW224124   1.527   4.402   6.029 -1.0222 -0.4718  0.1805
 6876SOL     OW24125   3.478   1.553   1.232 -0.4687 -0.1665 -0.2335
 6876SOL    HW124126   3.547   1.603   1.187  0.5836  0.1151  1.5700
 6876SOL    HW224127   3.425   1.619   1.276 -0.9945 -0.4661 -0.4148
 6877SOL     OW24128   0.602   6.708   8.988 -0.5415 -0.3625 -0.5085
 6877SOL    HW124129   0.558   6.786   9.022  0.2871  0.5406 -1.4648
 6877SOL    HW224130   0.650   6.738   8.911 -1.5434 -2.1588 -1.9007
 6878SOL     OW24131   9.408   8.481   8.769 -0.2290 -0.3632  0.1988
 6878SOL    HW124132   9.403   8.538   8.846 -0.2010 -0.9150  0.6163
 6878SOL    HW224133   9.332   8.423   8.778  0.4676 -1.2444  0.4664
 6879SOL     OW24134   8.780   0.267  10.976  0.2325 -0.0712 -0.6187
 6879SOL    HW124135   8.746   0.354  10.996  0.4433 -0.0224 -0.4648
 6879SOL    HW224136   8.873   0.282  10.958  0.1004 -0.1484 -1.4032
 6880SOL     OW24137   6.744   8.083  10.295  0.5548 -0.0050  0.1422
 6880SOL    HW124138   6.654   8.107  10.318 -0.2865 -3.9366  1.8465
 6880SOL    HW224139   6.798   8.133  10.357 -0.4018  2.0102 -0.5526
 6881SOL     OW24140   2.690   7.946   2.437 -0.2579  0.7855 -0.3273
 6881SOL    HW124141   2.684   7.850   2.430 -2.7767  0.9668 -1.5303
 6881SOL    HW224142   2.784   7.963   2.435  0.2998 -1.6801  0.4824
 6882SOL     OW24143   4.283   8.900   9.002  0.3702 -0.2084 -0.2039
 6882SOL    HW124144   4.228   8.926   8.928  0.6594  2.4464  0.4170
 6882SOL    HW224145   4.372   8.921   8.975  0.4832  0.7699  0.8236
 6883SOL     OW24146   2.972   5.802  10.234 -0.0018 -0.0599  0.2840
 6883SOL    HW124147   2.938   5.870  10.176  1.2389 -0.1635 -0.6284
 6883SOL    HW224148   2.898   5.775  10.287 -2.0667 -1.9957 -3.1957
 6884SOL     OW24149   0.983   3.742   5.199  0.1343 -0.2970  0.1223
 6884SOL    HW124150   1.024   3.828   5.205  0.8814 -0.7139  1.2986
 6884SOL    HW224151   1.029   3.698   5.128  0.9751 -0.3449  0.6805
 6885SOL     OW24152   6.932   3.334   7.057  0.4968  0.5704  0.7412
 6885SOL    HW124153   6.999   3.312   6.992 -0.3039  2.2695 -0.7243
 6885SOL    HW224154   6.852   3.347   7.007 -0.7205 -0.3698  2.3518
 6886SOL     OW24155   9.304   3.568   2.266  0.0569  0.0888 -1.0466
 6886SOL    HW124156   9.234   3.508   2.292 -0.1476  0.6444 -0.3059
 6886SOL    HW224157   9.326   3.541   2.177  0.5155 -1.6085 -0.4488
 6887SOL     OW24158   7.312   7.635   0.838 -0.0353  0.7902  0.2957
 6887SOL    HW124159   7.260   7.608   0.913 -0.2564 -0.4200 -0.2784
 6887SOL    HW224160   7.400   7.603   0.857 -0.1072  0.4171  0.0131
 6888SOL     OW24161   1.619   4.971   2.340 -0.1260 -0.3523  0.4123
 6888SOL    HW124162   1.606   5.009   2.254 -2.2768 -1.8631 -0.0134
 6888SOL    HW224163   1.545   5.002   2.392  0.9186  0.2123  1.6147
 6889SOL     OW24164   0.983   9.718   1.299 -0.0624 -0.0537 -0.0581
 6889SOL    HW124165   1.054   9.654   1.287 -0.5834 -0.4224 -1.3829
 6889SOL    HW224166   0.907   9.665   1.323 -0.0541  0.2712  0.6964
 6890SOL     OW24167   3.230   8.636   2.633  0.0578 -0.0696 -0.2007
 6890SOL    HW124168   3.238   8.563   2.572  0.4127 -0.5314  0.3979
 6890SOL    HW224169   3.207   8.596   2.717 -1.2269  0.6201 -0.1921
 6891SOL     OW24170   9.022  10.983   1.059  0.5188  0.1589 -0.0834
 6891SOL    HW124171   9.100  10.977   1.115 -0.3049  1.3635  1.2380
 6891SOL    HW224172   9.034  10.913   0.994  1.3123 -1.5733  1.8318
 6892SOL     OW24173   1.195  10.698   2.951  0.0688  0.2240  0.1300
 6892SOL    HW124174   1.245  10.633   2.902  0.6940  0.5135  0.3689
 6892SOL    HW224175   1.114  10.709   2.901  0.7625  0.6287 -0.9326
 6893SOL     OW24176   7.596   4.016   1.512 -0.2534 -0.3365  0.1450
 6893SOL    HW124177   7.602   3.984   1.602  0.8515 -1.9438 -0.4444
 6893SOL    HW224178   7.581   4.110   1.521  0.8738 -0.2768  2.0289
 6894SOL     OW24179   9.143   9.120   5.963 -0.2058 -0.2516  0.4680
 6894SOL    HW124180   9.064   9.172   5.949 -1.1736 -1.1694  2.1857
 6894SOL    HW224181   9.208   9.158   5.904 -2.0826  0.1416 -1.4918
 6895SOL     OW24182   7.842   4.165   6.480 -0.2326 -0.3764 -0.0178
 6895SOL    HW124183   7.790   4.236   6.518 -0.0071  0.5181 -1.3193
 6895SOL    HW224184   7.912   4.210   6.433  0.8940 -1.5302  0.5124
 6896SOL     OW24185  10.533   6.324   5.612  0.3440  0.0504  0.0943
 6896SOL    HW124186  10.558   6.232   5.619 -0.9181 -0.3618 -0.4866
 6896SOL    HW224187  10.559   6.350   5.523  0.9695  0.3460  0.3601
 6897SOL     OW24188   1.530   9.384  10.492  0.6086 -0.1061 -0.0667
 6897SOL    HW124189   1.553   9.374  10.585 -1.0944 -1.1352  0.2809
 6897SOL    HW224190   1.566   9.469  10.468  1.0143  0.2169  1.5686
 6898SOL     OW24191   6.946   8.382   1.897  0.6613  0.0473 -0.5939
 6898SOL    HW124192   6.861   8.338   1.906  0.4132  0.5223 -0.5728
 6898SOL    HW224193   6.966   8.412   1.986  1.1130 -0.5379 -0.4955
 6899SOL     OW24194   8.564   5.106   2.293 -0.0379  0.2165  0.4556
 6899SOL    HW124195   8.535   5.167   2.225  1.5211  1.0149  0.4639
 6899SOL    HW224196   8.499   5.115   2.363 -2.4689 -1.6228 -1.3696
 6900SOL     OW24197   3.668   2.087   0.433 -0.2213  0.1912  0.1095
 6900SOL    HW124198   3.697   2.107   0.522 -1.1724  0.5938  0.3388
 6900SOL    HW224199   3.655   2.172   0.392 -3.4601  0.1781  0.8254
 6901SOL     OW24200   0.260   4.440  10.244 -0.2304 -0.3265  0.1144
 6901SOL    HW124201   0.273   4.390  10.324 -0.5125  1.4876  1.3692
 6901SOL    HW224202   0.170   4.419  10.217 -0.0020 -1.2395  0.0271
 6902SOL     OW24203   9.382   9.260   1.387  0.4226 -0.3122 -0.4375
 6902SOL    HW124204   9.445   9.189   1.369  0.5569 -0.8341  1.8082
 6902SOL    HW224205   9.434   9.328   1.429  0.0784  0.7303 -1.6299
 6903SOL     OW24206   6.526  10.017   0.966 -0.5969  0.2290  0.1533
 6903SOL    HW124207   6.539  10.087   1.031 -0.2603  0.3734 -0.0703
 6903SOL    HW224208   6.610   9.970   0.964 -0.5350  0.3564 -0.3346
 6904SOL     OW24209   1.828   9.262   2.841  0.5144  0.1753 -0.0970
 6904SOL    HW124210   1.923   9.260   2.831  0.7233  1.2315  1.3731
 6904SOL    HW224211   1.809   9.198   2.909  0.1922  0.1410 -0.2135
 6905SOL     OW24212   1.332   2.291   5.807  0.0071 -0.4129  0.1989
 6905SOL    HW124213   1.272   2.275   5.734  1.4546 -1.2584 -0.8603
 6905SOL    HW224214   1.411   2.325   5.766  0.6360 -0.2961  1.4510
 6906SOL     OW24215   5.765   8.829   7.663  0.6775 -1.0035  0.0874
 6906SOL    HW124216   5.699   8.813   7.731 -2.1167  0.1986 -2.1250
 6906SOL    HW224217   5.761   8.751   7.607  0.1837 -0.3876 -0.7525
 6907SOL     OW24218   9.485   1.467   8.893  0.1856 -0.1985  0.1891
 6907SOL    HW124219   9.391   1.480   8.890  0.2435  0.5445  1.2556
 6907SOL    HW224220   9.521   1.551   8.920  1.1265 -0.5923  0.2239
 6908SOL     OW24221   7.230   1.566   3.973  0.1745  0.1685 -0.4044
 6908SOL    HW124222   7.140   1.593   3.957  0.3516  0.4758 -0.9161
 6908SOL    HW224223   7.224   1.500   4.042 -0.5685 -0.7045 -1.2776
 6909SOL     OW24224   0.048   7.185   8.596  0.5941 -0.3212  0.3900
 6909SOL    HW124225  -0.029   7.204   8.542 -0.1244 -1.2523  1.0694
 6909SOL    HW224226   0.090   7.271   8.607 -1.0848  0.4621  1.1253
 6910SOL     OW24227   4.195   5.453  10.669  0.3633  0.3105 -0.6437
 6910SOL    HW124228   4.142   5.510  10.724  0.5250 -0.2035  0.0649
 6910SOL    HW224229   4.282   5.492  10.670  0.8127 -0.6656  0.9606
 6911SOL     OW24230   0.099   5.954  10.273 -0.1975  0.0035 -0.2013
 6911SOL    HW124231   0.011   5.980  10.300  0.4764  2.7470 -0.3855
 6911SOL    HW224232   0.102   5.972  10.179  0.1893 -1.3628 -0.4858
 6912SOL     OW24233  10.844   0.014   4.836 -0.1643 -0.7268  0.0236
 6912SOL    HW124234  10.813  -0.024   4.918  0.8122  0.8416  1.1501
 6912SOL    HW224235  10.781  -0.017   4.771 -0.7848 -2.2553  1.2839
 6913SOL     OW24236   5.549   1.683   3.938  0.1918 -0.3044  0.2508
 6913SOL    HW124237   5.579   1.669   4.028 -0.6574 -2.3187  0.2772
 6913SOL    HW224238   5.628   1.675   3.884  0.9442  2.2690  0.8686
 6914SOL     OW24239   8.507   4.485   0.664  0.6671  0.4076 -0.2354
 6914SOL    HW124240   8.535   4.526   0.746 -1.7741  0.9295  0.4162
 6914SOL    HW224241   8.412   4.487   0.668  0.4614 -2.1674 -1.8068
 6915SOL     OW24242   9.889   2.905   6.125 -0.1952  0.0365 -0.1015
 6915SOL    HW124243   9.929   2.827   6.086  0.7106  0.1294  0.6016
 6915SOL    HW224244   9.855   2.955   6.051 -0.2166 -0.7156 -0.6083
 6916SOL     OW24245   5.911   2.189   5.046  0.6267 -0.2091 -0.3876
 6916SOL    HW124246   5.891   2.223   4.959  0.7885  2.9295  0.6630
 6916SOL    HW224247   6.005   2.176   5.046  0.3276 -2.9522 -1.4672
 6917SOL     OW24248   7.745   1.823  10.122  0.0095  0.2024 -0.0575
 6917SOL    HW124249   7.818   1.776  10.081  0.1967  1.2129 -0.9062
 6917SOL    HW224250   7.771   1.832  10.214  0.2847 -0.7242 -0.0300
 6918SOL     OW24251   3.165  10.123   3.383 -0.6472  0.3673  0.5647
 6918SOL    HW124252   3.202  10.114   3.471  1.2460  1.2038 -0.1065
 6918SOL    HW224253   3.185  10.040   3.340 -2.4736 -0.4495  1.1895
 6919SOL     OW24254   4.830   2.038   4.229 -0.5318 -0.2698 -0.2007
 6919SOL    HW124255   4.847   2.085   4.311  2.0820 -0.5799 -0.4853
 6919SOL    HW224256   4.785   2.101   4.173 -0.8154  0.4937  0.8573
 6920SOL     OW24257   0.307   5.134   6.250  0.5068 -0.5965  0.2697
 6920SOL    HW124258   0.256   5.155   6.171 -0.2520 -1.2380  0.5709
 6920SOL    HW224259   0.242   5.099   6.311  0.5095  2.5411  2.2743
 6921SOL     OW24260   5.386   1.097   0.193  0.2831 -0.7223 -0.2098
 6921SOL    HW124261   5.464   1.052   0.160 -0.0486 -0.1530 -1.8273
 6921SOL    HW224262   5.401   1.190   0.174 -0.4248 -0.5081  0.2256
 6922SOL     OW24263   5.186   6.549   8.866 -0.0596 -0.2210 -0.2383
 6922SOL    HW124264   5.135   6.626   8.890 -2.2219 -1.2952 -1.0347
 6922SOL    HW224265   5.158   6.482   8.928 -0.4221 -1.1166 -1.3290
 6923SOL     OW24266   0.099   5.080   1.167  0.2157 -0.1085 -0.1868
 6923SOL    HW124267   0.100   4.988   1.194 -1.4922  0.1195  0.7534
 6923SOL    HW224268   0.096   5.129   1.249 -0.1404  0.7558 -0.7083
 6924SOL     OW24269   1.830   8.175   1.535  0.3621  0.3144  0.1744
 6924SOL    HW124270   1.924   8.193   1.528  0.5433 -0.1526  1.1789
 6924SOL    HW224271   1.817   8.095   1.483  0.1952  1.2955 -1.3535
 6925SOL     OW24272   2.614  10.371   5.237  0.5550 -0.4166 -0.4486
 6925SOL    HW124273   2.707  10.356   5.254  0.9312  0.6579 -1.3790
 6925SOL    HW224274   2.613  10.417   5.153 -0.8272 -0.4239 -0.4543
 6926SOL     OW24275   3.113   7.177   9.957  0.3976  0.1489 -0.2735
 6926SOL    HW124276   3.093   7.203  10.047 -0.0230  1.1682 -0.6432
 6926SOL    HW224277   3.165   7.250   9.922 -0.1588  0.1524 -1.1117
 6927SOL     OW24278   9.185   7.362   8.956  0.1156 -0.1982 -0.2061
 6927SOL    HW124279   9.111   7.395   9.006 -0.9224 -0.5923 -1.4139
 6927SOL    HW224280   9.155   7.277   8.922 -0.6340  1.4272 -4.2390
 6928SOL     OW24281  10.286   8.684   1.895 -0.6978  0.1803 -0.3253
 6928SOL    HW124282  10.323   8.603   1.929  0.2899  0.3531 -0.9288
 6928SOL    HW224283  10.253   8.661   1.808  0.5407  0.6311 -0.9415
 6929SOL     OW24284   4.901  10.455   5.406  0.1540 -0.9040 -0.2885
 6929SOL    HW124285   4.918  10.547   5.390 -2.6565 -0.3677 -0.7451
 6929SOL    HW224286   4.987  10.413   5.402  1.7454  1.8846  1.7309
 6930SOL     OW24287   3.980   6.824   7.206  0.1394  0.5225  0.0628
 6930SOL    HW124288   3.913   6.758   7.188 -0.6023  0.6052  2.2220
 6930SOL    HW224289   4.047   6.777   7.257  0.5810  0.9693 -0.0981
 6931SOL     OW24290   2.725   7.625   0.986 -0.1040 -0.3905 -0.6767
 6931SOL    HW124291   2.771   7.546   1.013 -2.5909 -1.9421 -0.6190
 6931SOL    HW224292   2.773   7.657   0.910  3.1398  0.2571  1.4635
 6932SOL     OW24293   9.386   6.233   5.006  0.3085  0.2298 -0.2471
 6932SOL    HW124294   9.330   6.296   5.052 -0.7141 -2.0375  1.8783
 6932SOL    HW224295   9.332   6.201   4.934 -0.8252 -1.0954  1.1047
 6933SOL     OW24296   3.707  10.359   5.248  0.2758 -0.7234 -0.1314
 6933SOL    HW124297   3.717  10.448   5.282  1.4807 -0.3737 -1.3343
 6933SOL    HW224298   3.773  10.308   5.295  1.0977 -0.4977 -1.0121
 6934SOL     OW24299   3.751   7.997   4.633 -0.0214  0.4124  0.2513
 6934SOL    HW124300   3.824   7.962   4.581 -1.3125 -1.4752 -0.4152
 6934SOL    HW224301   3.745   7.939   4.708 -0.3000  1.0929  0.7646
 6935SOL     OW24302   3.444   6.352   6.383 -0.3569  0.0126 -0.5458
 6935SOL    HW124303   3.515   6.417   6.384 -0.8117  0.5134 -0.3700
 6935SOL    HW224304   3.425   6.341   6.290  1.4137 -1.7720 -0.7713
 6936SOL     OW24305   4.883   8.104   1.873  0.1840 -0.3190  0.0054
 6936SOL    HW124306   4.915   8.020   1.839  0.3604  0.4555 -1.8981
 6936SOL    HW224307   4.948   8.168   1.844 -0.6095  0.6395  0.2712
 6937SOL     OW24308  10.056   1.557   3.784 -0.0254 -0.5233 -0.2361
 6937SOL    HW124309  10.131   1.499   3.770 -0.4133 -1.3877  1.0731
 6937SOL    HW224310  10.082   1.612   3.858 -0.3492 -0.2354 -0.3326
 6938SOL     OW24311   4.128   8.207   4.275  0.4050  0.0022  0.1748
 6938SOL    HW124312   4.101   8.280   4.330 -0.8139  0.6185 -1.1810
 6938SOL    HW224313   4.049   8.155   4.263  1.1067 -1.2092  0.5862
 6939SOL     OW24314   8.671   7.510  10.115  0.2153 -0.2869  0.6266
 6939SOL    HW124315   8.709   7.533  10.030 -0.9910 -0.4759  0.0130
 6939SOL    HW224316   8.602   7.448  10.094  0.7603 -1.3790  1.8858
 6940SOL     OW24317  10.311   8.353   3.408  0.1338  0.3217  0.7443
 6940SOL    HW124318  10.225   8.344   3.449 -0.1783  0.3246  0.1126
 6940SOL    HW224319  10.342   8.263   3.399 -0.9249  0.0997 -1.3017
 6941SOL     OW24320   2.088   3.502   6.078  0.4353  0.1599  0.2210
 6941SOL    HW124321   2.107   3.590   6.111  0.1887  0.0653  0.6113
 6941SOL    HW224322   2.170   3.474   6.037 -0.1299  1.4917 -1.9851
 6942SOL     OW24323   2.491   3.238   1.165 -0.4897  0.0277  0.1604
 6942SOL    HW124324   2.410   3.188   1.179 -1.2973  1.2633  0.0906
 6942SOL    HW224325   2.490   3.259   1.072  0.1326 -0.2909  0.0788
 6943SOL     OW24326   6.382  10.454   9.813  0.0909  0.1945 -0.0455
 6943SOL    HW124327   6.396  10.402   9.733  0.5810 -1.7227  1.1999
 6943SOL    HW224328   6.455  10.515   9.815 -0.0785  0.4536 -1.1969
 6944SOL     OW24329   3.703   6.997   6.405  0.1308 -0.8341  0.4676
 6944SOL    HW124330   3.652   6.930   6.450 -1.7106  0.4092  0.3552
 6944SOL    HW224331   3.688   6.979   6.312  0.0936 -0.6096  0.4302
 6945SOL     OW24332   5.735   9.214   6.792 -0.6995 -0.7514  0.1272
 6945SOL    HW124333   5.741   9.213   6.887 -0.3108 -3.5960  0.1656
 6945SOL    HW224334   5.651   9.173   6.773 -1.9922  2.0985 -0.8163
 6946SOL     OW24335   1.228   8.217   1.178  0.6376  0.1661  0.2389
 6946SOL    HW124336   1.207   8.161   1.103 -1.9481  1.7220 -0.3218
 6946SOL    HW224337   1.170   8.186   1.247  1.0245  0.5277  0.7325
 6947SOL     OW24338   6.200   1.130   4.442 -0.3842 -0.0026  0.4738
 6947SOL    HW124339   6.111   1.144   4.410 -0.6948 -0.7065  1.0006
 6947SOL    HW224340   6.252   1.197   4.398 -0.9963 -0.2122 -0.6251
 6948SOL     OW24341   1.438   2.155   8.901  0.0061  0.4407  0.0552
 6948SOL    HW124342   1.424   2.246   8.927  0.0818  1.1367 -2.1032
 6948SOL    HW224343   1.454   2.159   8.807 -0.9054 -1.9045 -0.2799
 6949SOL     OW24344   6.262   9.860   3.619  0.0621  0.0576  0.0608
 6949SOL    HW124345   6.284   9.859   3.713  2.0406  0.4796 -0.3421
 6949SOL    HW224346   6.338   9.820   3.577 -0.7756 -0.0647 -1.3729
 6950SOL     OW24347   1.299  10.199   7.386  0.4085  0.8609  0.2664
 6950SOL    HW124348   1.232  10.254   7.427  1.5752  3.2150 -0.8144
 6950SOL    HW224349   1.373  10.203   7.447 -0.2772 -1.6054  1.3810
 6951SOL     OW24350   4.391   4.308   1.878 -0.1369  0.6105 -0.7387
 6951SOL    HW124351   4.410   4.280   1.788  0.6706  0.8912 -0.6651
 6951SOL    HW224352   4.476   4.311   1.921 -0.4974  0.6592 -0.0076
 6952SOL     OW24353   3.052   9.585   8.126  0.1458  0.5978 -0.1085
 6952SOL    HW124354   2.967   9.559   8.161  0.6592  0.6803  1.3049
 6952SOL    HW224355   3.072   9.519   8.060 -0.8122  0.3156 -0.1310
 6953SOL     OW24356   0.545   5.728   7.059  0.5880 -0.0396 -0.7137
 6953SOL    HW124357   0.540   5.651   7.116  2.6073  0.5072  0.2835
 6953SOL    HW224358   0.550   5.692   6.971  1.5216 -1.0768 -0.2594
 6954SOL     OW24359   7.484   2.176   3.394  0.1815 -0.0826 -0.0638
 6954SOL    HW124360   7.400   2.169   3.348 -0.5020 -2.1523  1.3459
 6954SOL    HW224361   7.488   2.097   3.449  2.7535  0.2984  0.4249
 6955SOL     OW24362   9.494   0.721   5.369 -0.4100 -0.3998 -0.4183
 6955SOL    HW124363   9.523   0.643   5.322 -2.7626 -1.2621 -0.5816
 6955SOL    HW224364   9.453   0.687   5.449  2.0918  0.9513  1.5772
 6956SOL     OW24365   5.616   2.616   2.404 -0.0589  0.1439 -0.5418
 6956SOL    HW124366   5.565   2.544   2.439 -0.2273  0.6626  0.3214
 6956SOL    HW224367   5.640   2.589   2.316 -1.9061 -0.0838 -1.0191
 6957SOL     OW24368   4.565   7.058   6.837  0.0866  0.2194 -0.5121
 6957SOL    HW124369   4.529   7.029   6.753 -2.2771 -0.4662  0.6325
 6957SOL    HW224370   4.592   6.977   6.880  2.5548  0.6756 -1.0732
 6958SOL     OW24371   1.941   0.166   7.821  0.3322  0.2416  0.2133
 6958SOL    HW124372   1.887   0.118   7.758  1.1137 -0.0548 -0.2504
 6958SOL    HW224373   1.972   0.242   7.771  1.1566 -0.1240  0.1456
 6959SOL     OW24374   4.895   5.975   5.260 -0.5102 -0.6674 -0.1953
 6959SOL    HW124375   4.848   6.008   5.184 -2.0081 -2.6371 -0.2126
 6959SOL    HW224376   4.965   6.039   5.275 -1.9402  1.3025 -1.4244
 6960SOL     OW24377   3.523  10.863   1.301  0.1892 -0.3698  0.3995
 6960SOL    HW124378   3.591  10.905   1.354  0.2296 -1.6723  1.4333
 6960SOL    HW224379   3.545  10.770   1.304 -0.1731 -0.5500 -1.4109
 6961SOL     OW24380   6.307   3.493  10.761  0.2580 -0.2810  0.2277
 6961SOL    HW124381   6.348   3.454  10.684 -0.5369 -2.2253  0.7405
 6961SOL    HW224382   6.356   3.457  10.835 -0.9737 -0.9491  0.7470
 6962SOL     OW24383  10.907   6.250   2.139 -0.1725 -0.5837 -0.1517
 6962SOL    HW124384  10.870   6.259   2.227  0.6450 -0.0858  0.1517
 6962SOL    HW224385  10.981   6.311   2.138  3.0908 -4.1402  0.5720
 6963SOL     OW24386   2.035   4.791   3.735 -0.2572  0.8875  0.1923
 6963SOL    HW124387   1.979   4.837   3.799 -1.0274 -0.1375  0.2742
 6963SOL    HW224388   2.095   4.739   3.789 -1.6066 -0.8161  0.1238
 6964SOL     OW24389   4.588   7.475   1.497  0.1793  0.2070 -0.5077
 6964SOL    HW124390   4.641   7.550   1.523 -0.6541  1.0454 -1.1747
 6964SOL    HW224391   4.541   7.504   1.419 -0.5002 -0.8616 -0.5251
 6965SOL     OW24392   0.156   8.214   3.347  0.2219  0.7686  0.1763
 6965SOL    HW124393   0.207   8.249   3.274  0.7587 -0.3941 -0.0318
 6965SOL    HW224394   0.185   8.123   3.354 -2.4895 -0.2429 -0.5673
 6966SOL     OW24395   5.348   9.421   5.398  0.3987  0.8129  0.7375
 6966SOL    HW124396   5.354   9.516   5.391 -0.6391  0.9081  0.8697
 6966SOL    HW224397   5.347   9.390   5.307  1.2617  0.8779  0.6990
 6967SOL     OW24398   1.810   6.481   2.495 -0.0681 -0.0588 -0.0259
 6967SOL    HW124399   1.724   6.522   2.510  0.2083  0.0988  1.2749
 6967SOL    HW224400   1.812   6.408   2.557  0.8682  0.1411  0.1804
 6968SOL     OW24401   5.964   3.580   2.569 -0.3444  0.3444 -0.7933
 6968SOL    HW124402   5.956   3.632   2.648  1.4000  0.1851 -0.4645
 6968SOL    HW224403   5.931   3.637   2.499 -1.8742  0.4889  0.0190
 6969SOL     OW24404   2.075   6.422   9.233 -0.0342  0.6489 -0.1695
 6969SOL    HW124405   2.062   6.513   9.259 -1.4774  0.4145  0.0059
 6969SOL    HW224406   2.000   6.375   9.269  0.2906 -0.4875 -0.9002
 6970SOL     OW24407   4.750  10.117   3.026 -0.0222  0.6853  0.2912
 6970SOL    HW124408   4.661  10.098   2.998  0.3196  0.3065 -0.5831
 6970SOL    HW224409   4.782  10.181   2.962  1.3453 -1.4424 -1.2954
 6971SOL     OW24410   8.389   2.610   2.195  0.3192  0.5604  0.1020
 6971SOL    HW124411   8.410   2.591   2.104  1.8677 -1.4741  0.8016
 6971SOL    HW224412   8.334   2.536   2.222 -0.5772  1.4233  0.6906
 6972SOL     OW24413   2.375   9.950   5.887  0.0642 -0.0815 -0.0381
 6972SOL    HW124414   2.283   9.935   5.910  0.5566  0.1481  2.3516
 6972SOL    HW224415   2.390  10.042   5.908  1.0479 -0.3416  0.4592
 6973SOL     OW24416   3.165   7.132   9.457  0.4079 -0.3264 -0.1055
 6973SOL    HW124417   3.197   7.219   9.483 -0.7805  0.1920 -0.3368
 6973SOL    HW224418   3.109   7.105   9.530  0.2304 -0.6077 -0.3480
 6974SOL     OW24419   4.018   2.149   5.872 -0.2191 -0.2343  0.3548
 6974SOL    HW124420   4.053   2.060   5.870  0.9562  0.1433  2.2542
 6974SOL    HW224421   4.094   2.205   5.860 -0.8059  0.5435  0.1740
 6975SOL     OW24422   6.151   2.306   9.537 -0.0803 -0.0287 -0.1535
 6975SOL    HW124423   6.056   2.302   9.525  0.1484 -0.3728 -2.2321
 6975SOL    HW224424   6.167   2.390   9.580 -1.3542 -0.2384  0.7770
 6976SOL     OW24425   8.484   0.477   5.232 -0.2346  0.0037 -0.3346
 6976SOL    HW124426   8.488   0.442   5.321 -1.0881  0.6477 -0.0282
 6976SOL    HW224427   8.567   0.450   5.192  0.9843  1.2066  1.2242
 6977SOL     OW24428   6.924   5.964   7.828 -0.6494 -0.3795  0.2402
 6977SOL    HW124429   6.840   5.920   7.843 -0.2421 -1.9174 -1.7334
 6977SOL    HW224430   6.927   5.979   7.734  1.2999 -0.3271  0.2753
 6978SOL     OW24431   8.753  10.010   3.399 -0.4423 -0.5115 -0.0059
 6978SOL    HW124432   8.801   9.929   3.413  0.8555  0.2705  0.2920
 6978SOL    HW224433   8.808  10.077   3.439 -1.4690  0.5189 -0.2689
 6979SOL     OW24434   7.951  10.000   3.884 -0.0411  0.4795  0.4096
 6979SOL    HW124435   8.024  10.051   3.848  0.3633  0.3947  1.0787
 6979SOL    HW224436   7.951   9.919   3.833 -0.2069  0.8295 -0.1558
 6980SOL     OW24437   0.937   6.021   6.945  0.2717 -0.2000 -0.1289
 6980SOL    HW124438   1.008   5.968   6.909  0.0703 -0.3436 -0.3171
 6980SOL    HW224439   0.905   5.971   7.020  0.9489  0.2831  0.4999
 6981SOL     OW24440   1.180   5.203   1.048  0.1464 -0.3726  0.2860
 6981SOL    HW124441   1.253   5.177   0.992 -0.6738  1.3388 -1.7100
 6981SOL    HW224442   1.176   5.298   1.040 -2.8114 -0.4680 -0.4142
 6982SOL     OW24443   0.520  10.801   2.496  0.7806 -0.6762 -0.1587
 6982SOL    HW124444   0.615  10.797   2.492  0.8859  1.6668 -1.3709
 6982SOL    HW224445   0.491  10.763   2.412  0.6062 -1.6379  0.3228
 6983SOL     OW24446   1.563   9.298   4.036 -0.3097  0.1357  0.3761
 6983SOL    HW124447   1.621   9.262   4.103 -1.5298 -1.3859  0.6888
 6983SOL    HW224448   1.476   9.261   4.057 -0.4282 -2.0298 -3.0553
 6984SOL     OW24449   1.159   5.657  10.299  0.4191 -0.7190 -0.1857
 6984SOL    HW124450   1.103   5.668  10.222  0.4310 -0.4092 -0.1490
 6984SOL    HW224451   1.098   5.636  10.370  0.3374 -0.2688 -0.1217
 6985SOL     OW24452   3.196   8.512   4.917  0.4165  0.4798  0.2770
 6985SOL    HW124453   3.211   8.419   4.903 -0.6844  0.2345  0.5878
 6985SOL    HW224454   3.188   8.522   5.012 -0.9015  0.6162  0.1814
 6986SOL     OW24455   3.846   8.406   0.991  0.2080  0.5620  0.3923
 6986SOL    HW124456   3.775   8.372   1.045 -0.1598  0.3728 -0.2005
 6986SOL    HW224457   3.916   8.341   0.999  0.0140  0.3483  0.3388
 6987SOL     OW24458   9.498   3.895   2.206 -0.5913  0.0789  0.2383
 6987SOL    HW124459   9.434   3.849   2.260 -0.6534  0.8560  0.8423
 6987SOL    HW224460   9.522   3.832   2.138 -1.2687 -0.5564  0.5782
 6988SOL     OW24461   6.743   4.612   7.211  0.2077  0.2493 -0.6835
 6988SOL    HW124462   6.686   4.688   7.220  0.1633  0.0183  1.3295
 6988SOL    HW224463   6.700   4.557   7.145 -1.1869  0.7092 -0.1902
 6989SOL     OW24464   7.757  10.878   7.499  0.0865  0.0744  0.1953
 6989SOL    HW124465   7.710  10.797   7.520  0.4740 -0.0828  0.4640
 6989SOL    HW224466   7.789  10.910   7.584 -0.2521  0.6288  0.1235
 6990SOL     OW24467   6.043   2.611   4.747  0.1977  0.2678 -0.0081
 6990SOL    HW124468   6.065   2.580   4.659  2.4340 -1.4365  1.0512
 6990SOL    HW224469   6.001   2.535   4.789 -1.1262  1.1606  0.3419
 6991SOL     OW24470   7.601   9.725   9.704  0.7329 -0.0678 -0.0762
 6991SOL    HW124471   7.661   9.768   9.764  1.2026 -0.3925 -0.3112
 6991SOL    HW224472   7.516   9.731   9.747  1.2761 -1.4724  1.2471
 6992SOL     OW24473   6.810   8.245   2.157  0.1935 -0.2494 -0.2419
 6992SOL    HW124474   6.810   8.154   2.188 -0.4042 -0.1648  0.0222
 6992SOL    HW224475   6.785   8.296   2.234  1.4791  0.2375 -0.1251
 6993SOL     OW24476   9.615   8.649   5.988 -0.6784  0.1169  0.1686
 6993SOL    HW124477   9.696   8.699   5.997  0.9306 -1.8804 -1.8677
 6993SOL    HW224478   9.546   8.715   5.984  0.8469  1.9203  1.4631
 6994SOL     OW24479   2.114   0.874   0.290  0.4104 -0.4184 -0.1503
 6994SOL    HW124480   2.126   0.789   0.247 -0.4693  0.5338 -2.3940
 6994SOL    HW224481   2.199   0.892   0.332  1.2236 -1.5179 -1.2713
 6995SOL     OW24482   1.165   7.051   4.334 -0.0331  0.3218  0.0906
 6995SOL    HW124483   1.249   7.058   4.288 -0.1655  1.0165 -0.0682
 6995SOL    HW224484   1.127   6.969   4.304 -0.3598  1.0046 -1.4668
 6996SOL     OW24485   7.742   4.866   3.194 -0.0190 -0.3946 -0.4562
 6996SOL    HW124486   7.790   4.789   3.165 -1.8021 -1.5855 -0.3997
 6996SOL    HW224487   7.740   4.857   3.290  0.3975  0.1352 -0.3927
 6997SOL     OW24488   8.987   3.446   9.712 -0.4766 -0.5187  0.5210
 6997SOL    HW124489   8.936   3.525   9.728  0.2392 -0.3198  1.9010
 6997SOL    HW224490   8.946   3.407   9.635 -0.3547  1.5929 -0.6876
 6998SOL     OW24491   4.312   3.745   1.056 -0.2096  0.7463  0.1401
 6998SOL    HW124492   4.228   3.702   1.041  0.1608  0.2407 -0.5742
 6998SOL    HW224493   4.327   3.796   0.976  1.3368 -1.1721 -0.8615
 6999SOL     OW24494   8.538   7.403   1.556  0.0956 -0.1323  0.1001
 6999SOL    HW124495   8.572   7.487   1.588 -1.9019  0.4061  0.9969
 6999SOL    HW224496   8.506   7.422   1.468  1.0483 -0.3752 -0.3163
 7000SOL     OW24497   1.984   1.528   6.180  0.3314  0.2081 -0.1744
 7000SOL    HW124498   1.953   1.440   6.160  0.0340  0.0417  0.9652
 7000SOL    HW224499   1.921   1.586   6.137  0.2788 -0.1274 -0.5587
 7001SOL     OW24500   4.207   5.167  10.070 -0.5181 -0.5028 -0.2266
 7001SOL    HW124501   4.138   5.189  10.132  0.1916  0.8090  0.1398
 7001SOL    HW224502   4.216   5.072  10.076 -1.5837 -0.5720  0.4609
 7002SOL     OW24503   8.519   0.210   0.801 -1.0193 -0.7365  0.3043
 7002SOL    HW124504   8.439   0.262   0.787 -1.5390 -1.7700 -0.7650
 7002SOL    HW224505   8.511   0.137   0.739  0.7565 -0.8755  0.2004
 7003SOL     OW24506   2.285   1.497   1.644  0.0311 -0.6937  0.3771
 7003SOL    HW124507   2.241   1.415   1.621  1.1489 -0.7610 -1.7095
 7003SOL    HW224508   2.216   1.563   1.640 -0.5877 -1.3058  0.6758
 7004SOL     OW24509   1.341   6.341   7.979 -0.2136 -0.1782  0.5118
 7004SOL    HW124510   1.308   6.252   7.967  0.2552 -0.3077  0.1331
 7004SOL    HW224511   1.356   6.373   7.889  1.4971 -0.4393  0.6643
 7005SOL     OW24512   0.916   8.622   5.674  0.1107 -0.3167  0.1100
 7005SOL    HW124513   1.012   8.623   5.676  0.1100  1.3654  1.3473
 7005SOL    HW224514   0.893   8.532   5.693  1.4686 -0.3107  2.1201
 7006SOL     OW24515   2.581   2.967   2.495 -0.0719 -0.8990 -0.0396
 7006SOL    HW124516   2.668   3.008   2.491 -0.4335 -0.1698 -3.3919
 7006SOL    HW224517   2.590   2.887   2.444 -1.2553 -1.0787  0.0066
 7007SOL     OW24518   2.995   1.086   1.558 -0.6377 -0.3176 -0.4630
 7007SOL    HW124519   3.049   1.158   1.591 -0.7688 -0.7864  0.7997
 7007SOL    HW224520   2.926   1.075   1.623 -1.6162 -0.4741 -1.5013
 7008SOL     OW24521  10.485   2.962   5.070 -0.0815 -0.1986 -0.0539
 7008SOL    HW124522  10.551   2.895   5.051  0.7503  0.0779  1.6492
 7008SOL    HW224523  10.534   3.044   5.076 -0.7176  0.1741  0.2414
 7009SOL     OW24524   1.922   0.244   5.973 -0.1564 -0.3065 -0.1867
 7009SOL    HW124525   1.899   0.284   5.889 -3.8222  1.8863  1.6112
 7009SOL    HW224526   1.933   0.318   6.032  0.7127 -1.8227  1.6609
 7010SOL     OW24527   0.249   3.232   0.455  0.1252 -0.5905  0.6650
 7010SOL    HW124528   0.332   3.203   0.492 -0.1893 -0.4999  1.4637
 7010SOL    HW224529   0.238   3.322   0.487 -0.5554 -0.8024  1.0420
 7011SOL     OW24530   9.150   7.627   6.228  0.0397  0.2258  0.4708
 7011SOL    HW124531   9.115   7.643   6.316  0.5512  0.8642  0.5640
 7011SOL    HW224532   9.103   7.688   6.172  3.1855  3.5628  1.0816
 7012SOL     OW24533   1.074   8.164   6.932  0.2696  0.1702  0.1132
 7012SOL    HW124534   1.123   8.217   6.995 -1.5750  0.4922  1.3555
 7012SOL    HW224535   1.085   8.211   6.849  0.5989  1.2122  0.7199
 7013SOL     OW24536   5.142   4.887   6.177  0.0178  0.3388  0.3488
 7013SOL    HW124537   5.092   4.968   6.173 -1.3020 -0.4870 -0.6793
 7013SOL    HW224538   5.080   4.819   6.152  1.4306 -0.8415 -0.1216
 7014SOL     OW24539   9.213   3.139   0.417 -0.2259  0.1096  0.1151
 7014SOL    HW124540   9.243   3.057   0.455 -0.6668  0.1327  0.5274
 7014SOL    HW224541   9.131   3.157   0.463 -0.7411  0.1652 -0.8022
 7015SOL     OW24542   2.310   8.757   3.283 -0.9825 -0.5405  0.1633
 7015SOL    HW124543   2.345   8.763   3.372 -1.6770  2.0472  0.3443
 7015SOL    HW224544   2.324   8.666   3.257  1.6740 -0.7297  1.9059
 7016SOL     OW24545   0.997  10.465   5.257  0.0169  0.4508 -0.0017
 7016SOL    HW124546   1.066  10.501   5.201 -0.0972  2.0938  0.8615
 7016SOL    HW224547   1.040  10.398   5.309  0.1237 -1.1211 -2.0147
 7017SOL     OW24548   9.939   4.843   4.294  0.5742 -0.0394 -0.0187
 7017SOL    HW124549   9.884   4.866   4.220 -1.6717 -0.2148  1.5136
 7017SOL    HW224550   9.897   4.766   4.333  2.6106 -0.9662  0.5242
 7018SOL     OW24551   8.769  10.029   5.584 -0.1421  0.0097 -0.0863
 7018SOL    HW124552   8.750  10.122   5.573 -0.7546  0.0723  1.2686
 7018SOL    HW224553   8.683   9.987   5.582  0.0762 -0.4457  0.0208
 7019SOL     OW24554   0.713   3.514   2.552  0.4519 -0.0745 -0.1145
 7019SOL    HW124555   0.644   3.451   2.575  0.9875 -1.6578 -2.4680
 7019SOL    HW224556   0.791   3.481   2.595  0.6045 -0.7491 -0.8742
 7020SOL     OW24557   4.724   2.628   1.549  0.2972  0.1500  0.0674
 7020SOL    HW124558   4.762   2.549   1.587 -2.2535 -1.8258 -1.1352
 7020SOL    HW224559   4.752   2.626   1.457 -0.4533  0.1497 -0.1697
 7021SOL     OW24560   1.489   1.886   5.883  0.5785 -0.2528  0.4156
 7021SOL    HW124561   1.515   1.946   5.812  0.8221 -1.7094 -0.7975
 7021SOL    HW224562   1.406   1.921   5.915  1.1545  1.2315  0.3693
 7022SOL     OW24563   8.848   3.192   7.427 -0.1007 -0.2095  0.0578
 7022SOL    HW124564   8.932   3.148   7.438 -0.9017 -1.8623 -0.1610
 7022SOL    HW224565   8.821   3.171   7.338 -1.3933 -0.8876  0.5898
 7023SOL     OW24566   1.182   9.017   6.473  0.3922  0.6704 -0.2375
 7023SOL    HW124567   1.219   9.098   6.509  1.0954  0.2243  0.0605
 7023SOL    HW224568   1.237   8.948   6.509 -1.0661 -0.0623  0.6749
 7024SOL     OW24569   1.003   0.783   1.476  0.0407 -0.2860  0.0764
 7024SOL    HW124570   0.966   0.829   1.552  0.6439  1.1858 -0.4716
 7024SOL    HW224571   1.071   0.726   1.512 -0.4914 -0.5051  0.7499
 7025SOL     OW24572  10.260   7.064   0.526  0.3985  0.0757  0.2204
 7025SOL    HW124573  10.190   7.000   0.531  0.4765  0.0795  1.8236
 7025SOL    HW224574  10.288   7.077   0.617  1.4864  1.1602 -0.2341
 7026SOL     OW24575   1.293   4.324   6.822 -0.2143  0.5617  0.1785
 7026SOL    HW124576   1.344   4.322   6.741 -1.7625  0.4265 -0.8248
 7026SOL    HW224577   1.264   4.234   6.835 -0.2623  0.6498  0.7091
 7027SOL     OW24578   7.933   6.228   3.726 -0.5665  0.3213 -0.2416
 7027SOL    HW124579   8.007   6.204   3.671  0.5662  1.0899  0.8871
 7027SOL    HW224580   7.926   6.323   3.716 -1.2155  0.2887 -0.1161
 7028SOL     OW24581   7.023  10.322   3.627 -0.2264  0.0657  0.0216
 7028SOL    HW124582   6.999  10.263   3.556  1.9312 -0.5493 -0.2718
 7028SOL    HW224583   7.043  10.405   3.584  0.1878 -0.0382  0.0107
 7029SOL     OW24584   8.707   4.424   6.729  0.0379  0.4309 -0.4033
 7029SOL    HW124585   8.774   4.362   6.699 -1.0086 -1.0904  0.2411
 7029SOL    HW224586   8.651   4.438   6.652 -1.4846 -1.9046  0.1476
 7030SOL     OW24587   2.174   8.802   7.667  0.3149  0.1771 -0.1084
 7030SOL    HW124588   2.191   8.829   7.757 -0.6180 -1.2737  0.5384
 7030SOL    HW224589   2.222   8.720   7.656  1.1031  0.7563 -1.2292
 7031SOL     OW24590   7.254   3.259   9.288 -0.1462  0.5716 -0.1727
 7031SOL    HW124591   7.180   3.286   9.344  0.4031 -2.3492  2.1705
 7031SOL    HW224592   7.306   3.339   9.279 -1.2074  1.6247  2.0219
 7032SOL     OW24593   6.307   1.862   9.425 -0.5118 -0.5762 -0.0219
 7032SOL    HW124594   6.283   1.790   9.484 -1.4947 -1.0898 -0.9985
 7032SOL    HW224595   6.230   1.873   9.369 -0.2524  1.0355 -0.1120
 7033SOL     OW24596   4.754   8.725   9.613  0.6761  0.2289 -0.2632
 7033SOL    HW124597   4.831   8.782   9.612  1.2257 -0.4908  0.1511
 7033SOL    HW224598   4.717   8.735   9.701 -0.1079  1.0888 -0.6779
 7034SOL     OW24599   5.582   0.414   9.558  0.4536  0.0116  0.1861
 7034SOL    HW124600   5.622   0.337   9.519 -1.3492 -0.3622 -1.0393
 7034SOL    HW224601   5.653   0.478   9.563  1.7954 -1.4387  0.5200
 7035SOL     OW24602   2.366  10.096   2.015  0.9301  0.1875 -0.1616
 7035SOL    HW124603   2.371  10.025   2.079 -1.0802  0.6654  0.6214
 7035SOL    HW224604   2.361  10.176   2.068  2.2691  0.8762 -1.0088
 7036SOL     OW24605   7.921   3.406   4.398  0.2315 -0.0631 -0.1874
 7036SOL    HW124606   7.894   3.411   4.490  0.1305 -0.2495 -0.2083
 7036SOL    HW224607   7.958   3.493   4.380 -1.3936  0.5932 -0.4883
 7037SOL     OW24608   8.296   1.926   3.171 -0.1062 -0.7420  0.3200
 7037SOL    HW124609   8.292   1.893   3.081  0.1178  0.7842 -0.2732
 7037SOL    HW224610   8.222   1.987   3.177  0.3781 -0.2020  0.9036
 7038SOL     OW24611   5.630   3.192   2.087 -0.1266  0.3076 -0.2830
 7038SOL    HW124612   5.549   3.205   2.036 -0.2318 -0.2125 -0.2545
 7038SOL    HW224613   5.601   3.149   2.167  0.3145 -0.9856 -0.7916
 7039SOL     OW24614   0.431   2.246   3.726  0.2771 -0.5606 -0.2267
 7039SOL    HW124615   0.519   2.224   3.695 -0.7186 -1.2977 -2.7633
 7039SOL    HW224616   0.380   2.167   3.712 -0.4168 -0.8452  3.1597
 7040SOL     OW24617   1.502   0.971   4.016 -0.3548  0.5077  0.2097
 7040SOL    HW124618   1.521   0.928   3.933  2.4600  1.6348  0.1570
 7040SOL    HW224619   1.414   1.006   4.006 -1.1130 -1.6489 -1.2529
 7041SOL     OW24620   9.283   1.598   8.350  0.8846  0.1444  0.0413
 7041SOL    HW124621   9.260   1.615   8.258  0.9842  0.6605  0.1067
 7041SOL    HW224622   9.219   1.648   8.400  1.1816  0.3290  0.2437
 7042SOL     OW24623   4.544   0.967   0.655 -0.7474 -0.6667  0.0784
 7042SOL    HW124624   4.495   0.885   0.647 -1.6496 -0.4261  2.4828
 7042SOL    HW224625   4.635   0.942   0.640 -1.0111 -2.1136  0.7562
 7043SOL     OW24626  10.773   3.582   9.169 -0.1243  0.4749  0.1416
 7043SOL    HW124627  10.852   3.597   9.117 -1.9106  0.8282 -2.6822
 7043SOL    HW224628  10.780   3.491   9.199  0.6762  0.0246 -1.3444
 7044SOL     OW24629   1.715   2.677   8.122 -0.0206 -0.0388  0.1295
 7044SOL    HW124630   1.642   2.676   8.184  1.4609  0.0408  1.9463
 7044SOL    HW224631   1.730   2.770   8.104  1.4074  0.1434  2.0074
 7045SOL     OW24632   6.828   9.480   8.573  0.6929  0.4272  0.2200
 7045SOL    HW124633   6.870   9.561   8.603 -1.3153  1.8237 -0.5319
 7045SOL    HW224634   6.745   9.509   8.535  0.2581 -1.9284 -0.7774
 7046SOL     OW24635   4.683  10.964   0.050 -0.0309  0.6286  0.7392
 7046SOL    HW124636   4.684  10.904   0.124  0.1945 -2.0846 -1.3402
 7046SOL    HW224637   4.770  10.957   0.011 -0.8086  0.3026 -1.0266
 7047SOL     OW24638   1.913   4.759   1.750  0.1171  0.0225  0.4334
 7047SOL    HW124639   1.970   4.830   1.720  0.8411 -0.2513  1.1207
 7047SOL    HW224640   1.826   4.797   1.751  0.2964  0.4837 -0.5483
 7048SOL     OW24641   3.586   4.547   6.369  0.2533  0.5130 -0.2466
 7048SOL    HW124642   3.667   4.584   6.405  0.8531  0.6879 -1.7225
 7048SOL    HW224643   3.537   4.623   6.337 -0.2598  0.3592  0.1597
 7049SOL     OW24644   9.773   4.132   9.810 -0.4608  0.1486 -0.8295
 7049SOL    HW124645   9.838   4.122   9.740  0.4413 -0.7939  0.1100
 7049SOL    HW224646   9.739   4.043   9.823 -0.5300  0.2902 -0.0002
 7050SOL     OW24647   7.447   8.608   5.857 -0.5052  0.3953  0.0458
 7050SOL    HW124648   7.438   8.596   5.763  0.0886 -3.5120  0.2827
 7050SOL    HW224649   7.361   8.585   5.892 -0.2516  0.1129  0.4998
 7051SOL     OW24650   2.414   1.740   5.257  0.1729 -0.4293  0.1811
 7051SOL    HW124651   2.322   1.713   5.262  0.6275 -1.8456  1.9741
 7051SOL    HW224652   2.421   1.811   5.321  0.0361  0.7919 -1.0963
 7052SOL     OW24653   0.328   6.215   7.920  0.2232  0.1185  0.0313
 7052SOL    HW124654   0.372   6.150   7.866  0.3701  0.3465 -0.1252
 7052SOL    HW224655   0.395   6.245   7.981  0.8888  1.9308 -1.5028
 7053SOL     OW24656   1.876   8.381   5.708  0.1530  0.2435 -0.4304
 7053SOL    HW124657   1.970   8.370   5.696 -0.2461 -0.6354 -3.4013
 7053SOL    HW224658   1.855   8.324   5.783  1.9110  0.3597  0.2139
 7054SOL     OW24659   3.218  10.734   0.931  0.9002  0.1150 -0.3127
 7054SOL    HW124660   3.133  10.738   0.887 -0.1383 -0.3985  1.5250
 7054SOL    HW224661   3.197  10.747   1.024  2.8000 -0.3541  0.2236
 7055SOL     OW24662   9.011   5.731  10.006 -0.0865  0.2172 -0.2292
 7055SOL    HW124663   9.030   5.687   9.923  1.0608 -0.2960  0.2768
 7055SOL    HW224664   9.044   5.671  10.073  1.9980  2.0235  0.4719
 7056SOL     OW24665  10.626   9.945   3.331  0.1114  0.6231 -0.5676
 7056SOL    HW124666  10.624  10.022   3.275  2.0813 -0.3076 -2.0256
 7056SOL    HW224667  10.717   9.939   3.361 -0.4790  0.0435  1.2850
 7057SOL     OW24668   6.858   0.229   0.937  0.1005  0.1908 -0.7786
 7057SOL    HW124669   6.899   0.262   0.857  1.7704 -0.1061 -0.0778
 7057SOL    HW224670   6.870   0.300   1.001 -0.0292 -0.0963 -0.4308
 7058SOL     OW24671   2.130   1.838   2.404 -0.4312  0.2208  0.2113
 7058SOL    HW124672   2.131   1.929   2.374 -1.3868  0.4132  0.7295
 7058SOL    HW224673   2.214   1.802   2.375 -1.0072  0.5896 -2.0621
 7059SOL     OW24674   2.508   2.963   6.377 -0.0630  0.0580 -0.9604
 7059SOL    HW124675   2.494   2.952   6.471 -0.8662  1.2591 -0.9129
 7059SOL    HW224676   2.597   2.997   6.369 -0.1390  0.3442 -0.5960
 7060SOL     OW24677   5.706   2.722  10.236 -0.3124  0.3405 -1.2841
 7060SOL    HW124678   5.704   2.749  10.144 -0.3980  0.9599 -1.1075
 7060SOL    HW224679   5.619   2.744  10.269  0.4877  2.4915 -0.4168
 7061SOL     OW24680   5.231  10.543   9.246 -0.0410 -0.1604 -0.1768
 7061SOL    HW124681   5.216  10.629   9.205 -1.9212 -0.0460  0.6163
 7061SOL    HW224682   5.325  10.529   9.240  0.4209  2.2760  0.2672
 7062SOL     OW24683   3.424   7.854   1.505  0.1635 -0.1509 -0.1236
 7062SOL    HW124684   3.452   7.787   1.443 -1.1490 -1.1419  0.3057
 7062SOL    HW224685   3.367   7.912   1.454 -1.6582 -1.4829  0.2843
 7063SOL     OW24686   4.570   5.970   8.569 -0.1855 -0.0659 -0.1414
 7063SOL    HW124687   4.525   5.906   8.514  0.1573 -1.7225  1.4377
 7063SOL    HW224688   4.511   5.983   8.644 -0.1998  1.4329 -0.3697
 7064SOL     OW24689   0.169   9.625  10.718 -0.0008 -0.7634  0.0478
 7064SOL    HW124690   0.209   9.640  10.632 -2.1577 -0.3396 -0.9587
 7064SOL    HW224691   0.208   9.691  10.775  0.8419 -0.4949 -0.8138
 7065SOL     OW24692   2.608   6.162  10.860  0.4714 -0.6661  0.3314
 7065SOL    HW124693   2.686   6.215  10.876 -0.3570  0.2370  1.6166
 7065SOL    HW224694   2.537   6.226  10.856 -0.3118 -1.5404 -0.0082
 7066SOL     OW24695   1.994   8.673  10.290  0.1577  0.1040 -0.1008
 7066SOL    HW124696   1.990   8.587  10.332  1.9694 -0.4361 -0.9279
 7066SOL    HW224697   2.072   8.669  10.234 -0.5601  1.7854 -1.3034
 7067SOL     OW24698   4.370   3.869   0.802 -0.4054 -0.0004 -0.2634
 7067SOL    HW124699   4.360   3.959   0.835  2.1977  0.5873 -0.8318
 7067SOL    HW224700   4.396   3.880   0.711 -0.4200 -1.3794 -0.4521
 7068SOL     OW24701   4.904   8.569   1.333 -0.1592 -0.4885 -0.0568
 7068SOL    HW124702   4.857   8.651   1.316  2.3342  1.2786  1.0175
 7068SOL    HW224703   4.868   8.537   1.415 -2.1279 -1.2802 -1.1778
 7069SOL     OW24704   6.616   6.021  10.726  0.6554  0.1574 -0.1322
 7069SOL    HW124705   6.532   6.052  10.695  1.5531  1.6938 -1.1469
 7069SOL    HW224706   6.595   5.942  10.777 -1.3163  0.2207 -0.7578
 7070SOL     OW24707  10.699   3.822   8.574  0.3358  0.1873  0.4940
 7070SOL    HW124708  10.611   3.833   8.538  0.9237  0.0371 -1.0568
 7070SOL    HW224709  10.684   3.791   8.663 -1.1840  0.6412  0.4337
 7071SOL     OW24710   9.213   4.268   0.019 -0.2524 -0.2244  0.5246
 7071SOL    HW124711   9.286   4.243   0.076  0.9058  1.3044 -0.2155
 7071SOL    HW224712   9.167   4.336   0.067  1.3684  1.8574 -0.7037
 7072SOL     OW24713   5.412   6.450   4.405 -0.3890  0.8293  0.2318
 7072SOL    HW124714   5.353   6.396   4.353  2.2854 -1.9879 -0.1443
 7072SOL    HW224715   5.386   6.434   4.495 -1.2426  0.9680  0.0197
 7073SOL     OW24716   0.526   5.067   9.316 -0.4739 -0.7257 -0.1787
 7073SOL    HW124717   0.585   5.003   9.277  0.2210 -0.1787 -0.0425
 7073SOL    HW224718   0.539   5.057   9.410  0.5327  0.4316 -0.1817
 7074SOL     OW24719   1.178   5.214   6.413 -0.1905 -0.0646  0.2683
 7074SOL    HW124720   1.090   5.253   6.405 -1.0890 -2.2548 -1.2614
 7074SOL    HW224721   1.210   5.247   6.497 -2.5117  0.7413  0.9280
 7075SOL     OW24722   8.432   0.024   6.793 -0.2872  0.4308 -0.2612
 7075SOL    HW124723   8.467   0.109   6.766 -1.3627  0.4071 -1.8632
 7075SOL    HW224724   8.350   0.045   6.838 -0.6745  0.2597 -0.8657
 7076SOL     OW24725   7.991   6.483   3.708  0.1326 -0.5665  0.4819
 7076SOL    HW124726   7.997   6.577   3.726 -0.3446 -0.7587  1.7108
 7076SOL    HW224727   8.019   6.475   3.617 -1.0011  0.9252 -0.0468
 7077SOL     OW24728   2.398   2.207   9.606  0.7926 -0.0462 -0.2356
 7077SOL    HW124729   2.463   2.173   9.544  2.3857  1.9823  0.2118
 7077SOL    HW224730   2.450   2.240   9.679 -0.9682 -1.2257  1.6705
 7078SOL     OW24731   5.185   0.751   8.766  0.2694 -0.5893  0.1130
 7078SOL    HW124732   5.217   0.675   8.720 -0.6172 -1.4211  0.8242
 7078SOL    HW224733   5.093   0.732   8.784 -0.2813  1.1244 -0.6729
 7079SOL     OW24734   3.728   2.728   5.907  0.1382 -0.1371 -0.3159
 7079SOL    HW124735   3.783   2.689   5.975  0.5278  0.7320 -0.1204
 7079SOL    HW224736   3.655   2.667   5.898  1.5536 -1.8062 -1.2151
 7080SOL     OW24737   2.959   8.702  10.306  0.5855  0.2525 -0.8176
 7080SOL    HW124738   2.883   8.727  10.358  0.3161 -0.7725 -0.6944
 7080SOL    HW224739   2.970   8.774  10.244 -1.4260 -0.2599 -1.8499
 7081SOL     OW24740   1.298   3.913   7.687 -0.2095 -0.4550  0.5215
 7081SOL    HW124741   1.305   4.000   7.726  0.7371 -0.3810  0.2125
 7081SOL    HW224742   1.388   3.889   7.665 -0.7058 -0.3378 -1.9386
 7082SOL     OW24743   6.697   1.965   2.072  0.1907 -0.2837 -0.0052
 7082SOL    HW124744   6.690   1.926   1.985  0.8617  0.2406 -0.3106
 7082SOL    HW224745   6.791   1.967   2.090  0.0926  0.1117  0.5036
 7083SOL     OW24746  10.256   8.890   2.432  0.1551  0.1299 -0.0557
 7083SOL    HW124747  10.176   8.849   2.400  0.8725 -2.0652  0.7486
 7083SOL    HW224748  10.282   8.838   2.508  2.3827  0.6882 -0.3425
 7084SOL     OW24749   5.619   1.919   0.729  0.7043  0.0175 -0.0274
 7084SOL    HW124750   5.686   1.977   0.693 -0.6419  0.3581 -2.1929
 7084SOL    HW224751   5.667   1.839   0.752  1.7811 -0.0654 -2.2658
 7085SOL     OW24752  10.913   7.290   6.944  0.1837  0.4594 -0.3309
 7085SOL    HW124753  10.860   7.260   6.870 -0.3218 -0.4043  0.3530
 7085SOL    HW224754  10.989   7.233   6.943 -1.0511 -1.3368  1.3136
 7086SOL     OW24755   1.806   9.716   5.310 -0.3384 -0.5040 -0.6433
 7086SOL    HW124756   1.883   9.772   5.315 -1.2774  0.7840 -0.1338
 7086SOL    HW224757   1.732   9.775   5.323 -1.3645 -1.8901  0.0670
 7087SOL     OW24758   2.165   6.665   4.460  0.5389  0.0606  0.4584
 7087SOL    HW124759   2.148   6.580   4.502 -1.2954  0.3531  0.3735
 7087SOL    HW224760   2.104   6.668   4.387  1.6387  0.8358 -0.4603
 7088SOL     OW24761   8.502   2.737   3.430 -0.2722  0.0761  0.1399
 7088SOL    HW124762   8.563   2.710   3.362  0.5654  0.8348  0.5681
 7088SOL    HW224763   8.444   2.662   3.442 -0.1296 -0.2376 -1.0603
 7089SOL     OW24764   2.551   9.371   1.501  0.7433  0.0395  0.1999
 7089SOL    HW124765   2.629   9.333   1.541 -0.7376 -2.8778  0.6309
 7089SOL    HW224766   2.541   9.456   1.544  2.3585 -0.5299  1.8560
 7090SOL     OW24767   9.309   9.732   4.504  0.1958 -0.7695  0.8162
 7090SOL    HW124768   9.352   9.788   4.439  0.1913 -0.6249  0.9356
 7090SOL    HW224769   9.305   9.787   4.583  2.3577 -1.7197  1.6927
 7091SOL     OW24770   9.041   9.701   5.288 -0.5233  0.1058  0.1501
 7091SOL    HW124771   9.099   9.757   5.237 -1.2852  0.7594 -0.0325
 7091SOL    HW224772   8.998   9.761   5.349  0.3163 -0.6397  1.5364
 7092SOL     OW24773   5.296   2.865   6.018  0.4524 -0.3806  0.5269
 7092SOL    HW124774   5.389   2.875   6.000  0.4874 -1.2384  0.2021
 7092SOL    HW224775   5.255   2.857   5.931  0.0973 -0.1778  0.6709
 7093SOL     OW24776   6.439   2.167   8.601  0.0817  0.4104  0.1931
 7093SOL    HW124777   6.395   2.087   8.628  0.6143 -0.3588 -1.1086
 7093SOL    HW224778   6.528   2.139   8.580  0.4724  1.4766  0.3707
 7094SOL     OW24779   0.610   6.630   2.670 -0.0483  0.5259 -0.0219
 7094SOL    HW124780   0.697   6.669   2.661 -0.8460  2.8378  1.4116
 7094SOL    HW224781   0.557   6.699   2.710 -2.2681 -1.2151  0.2241
 7095SOL     OW24782  10.493   7.528   4.406  0.7257 -0.3766 -0.1524
 7095SOL    HW124783  10.459   7.467   4.471  0.6079  0.6185  0.7568
 7095SOL    HW224784  10.552   7.585   4.456  0.1658  0.7879 -0.7959
 7096SOL     OW24785   8.048   2.541   3.355  0.6378 -0.2523 -0.1063
 7096SOL    HW124786   8.040   2.446   3.346 -1.3819 -0.5406  3.1442
 7096SOL    HW224787   7.958   2.573   3.352  1.3153  1.7201 -1.7267
 7097SOL     OW24788   2.831   6.818   9.234 -0.0598  0.4936  0.0246
 7097SOL    HW124789   2.923   6.844   9.246  0.0985  0.6721 -1.3886
 7097SOL    HW224790   2.782   6.899   9.244  0.1125  0.7290 -0.9727
 7098SOL     OW24791   7.784   9.387   3.185 -0.0687 -0.3712 -0.3469
 7098SOL    HW124792   7.843   9.455   3.217 -2.3423  2.4049 -1.5774
 7098SOL    HW224793   7.833   9.343   3.116  1.0646  0.9687 -0.4438
 7099SOL     OW24794   4.846   9.033   8.763  0.2276  0.0076 -0.2682
 7099SOL    HW124795   4.773   9.089   8.737 -0.9591 -1.5300 -0.3484
 7099SOL    HW224796   4.917   9.094   8.783 -1.6470  1.7058  1.7187
 7100SOL     OW24797   2.265   0.381   0.227  0.0282  0.5279 -0.3570
 7100SOL    HW124798   2.180   0.425   0.233 -0.8212 -0.6418 -2.6846
 7100SOL    HW224799   2.269   0.326   0.305 -0.2341  2.3447  1.0215
 7101SOL     OW24800  10.890   3.084   9.387  1.0747  0.8824  0.5783
 7101SOL    HW124801  10.887   3.131   9.303 -0.4568  1.7116  1.0537
 7101SOL    HW224802  10.799   3.083   9.416  0.7176 -3.6142 -0.0419
 7102SOL     OW24803   0.309   9.864   2.079 -0.1892 -0.4042  0.2260
 7102SOL    HW124804   0.221   9.872   2.040  0.5483  2.6302 -1.1371
 7102SOL    HW224805   0.300   9.901   2.167 -0.3581 -0.4959  0.2478
 7103SOL     OW24806   6.515   2.946   2.570 -0.5288 -0.0132 -0.2842
 7103SOL    HW124807   6.455   3.004   2.523 -0.0843  0.8123  0.1256
 7103SOL    HW224808   6.459   2.879   2.609 -0.9822 -0.2485 -1.3200
 7104SOL     OW24809   5.543   3.542   6.779 -1.1873  0.1543 -0.2339
 7104SOL    HW124810   5.544   3.477   6.850 -0.6661 -0.3490 -0.6906
 7104SOL    HW224811   5.452   3.544   6.751 -0.7999 -2.5348 -2.1092
 7105SOL     OW24812   8.954  10.268   5.908  0.4109  0.6368  0.1863
 7105SOL    HW124813   8.989  10.348   5.948  0.3617 -0.0562  1.6717
 7105SOL    HW224814   8.879  10.244   5.962  1.2515 -1.1670  0.6470
 7106SOL     OW24815   4.029   0.755   7.042  0.2148  0.1908 -0.1808
 7106SOL    HW124816   4.053   0.840   7.077  2.5009 -1.7835  3.7349
 7106SOL    HW224817   4.112   0.716   7.014 -0.3713 -1.6161  0.4369
 7107SOL     OW24818  10.368   5.729   5.149 -0.3579 -0.0637 -0.5984
 7107SOL    HW124819  10.323   5.784   5.085 -0.0269  1.2693  0.2842
 7107SOL    HW224820  10.456   5.717   5.113 -0.2740  0.4174 -0.5613
 7108SOL     OW24821   4.280   9.926   6.704  0.2930 -0.5425 -0.5744
 7108SOL    HW124822   4.342   9.956   6.637  0.6755 -0.6428 -0.2686
 7108SOL    HW224823   4.269   9.832   6.687 -1.0878 -0.2193 -1.6810
 7109SOL     OW24824   7.989   5.021   9.646  0.5233  0.2404 -0.3171
 7109SOL    HW124825   7.907   5.065   9.623  1.4700  2.5042  0.4160
 7109SOL    HW224826   8.046   5.034   9.570  1.0091  0.8511  0.1368
 7110SOL     OW24827   3.412   0.187   1.389  0.2678 -0.2028  0.1274
 7110SOL    HW124828   3.329   0.176   1.436  0.5445 -2.0015  0.2528
 7110SOL    HW224829   3.479   0.171   1.455  0.6687 -3.4789 -0.9199
 7111SOL     OW24830   6.753   0.025   6.537 -0.4045 -0.0840 -0.3996
 7111SOL    HW124831   6.726  -0.067   6.545 -0.3521 -0.0571  0.1630
 7111SOL    HW224832   6.735   0.062   6.624 -0.1039  0.3497 -0.5213
 7112SOL     OW24833   7.144   4.422   7.215 -0.1909  0.0157 -0.3818
 7112SOL    HW124834   7.070   4.362   7.208 -0.3751 -0.4721  3.6038
 7112SOL    HW224835   7.118   4.486   7.281  2.2240  0.9900 -0.2582
 7113SOL     OW24836   9.266   1.112   0.643  0.1440  0.5018  0.1245
 7113SOL    HW124837   9.248   1.033   0.592 -2.2320  1.2590 -0.3022
 7113SOL    HW224838   9.185   1.131   0.690  1.1589  1.8204  1.4744
 7114SOL     OW24839   0.430  10.703   5.613 -0.4322  0.0380 -0.2359
 7114SOL    HW124840   0.513  10.708   5.660  0.1656 -1.0936 -1.1316
 7114SOL    HW224841   0.450  10.657   5.532 -1.7881  0.4177 -0.8180
 7115SOL     OW24842   7.858   9.537  10.656  0.1635 -0.0868  0.1446
 7115SOL    HW124843   7.783   9.479  10.666  0.6139 -0.6680  0.2019
 7115SOL    HW224844   7.904   9.504  10.579 -1.1203  1.9408 -1.5831
 7116SOL     OW24845   8.390   8.705   4.113 -0.3782  0.1758  0.1927
 7116SOL    HW124846   8.383   8.612   4.132 -1.1975  0.2661  0.3733
 7116SOL    HW224847   8.434   8.742   4.189  0.0647 -0.0764  0.0638
 7117SOL     OW24848   9.111   2.778   1.660  0.6799 -0.7143 -0.4629
 7117SOL    HW124849   9.147   2.796   1.573  0.1216 -1.5971 -0.8914
 7117SOL    HW224850   9.186   2.745   1.710  0.4949 -2.7491 -1.4107
 7118SOL     OW24851   7.257   2.462   6.841  0.1116  0.0206 -0.6569
 7118SOL    HW124852   7.211   2.395   6.891  1.2482 -2.0132 -2.1723
 7118SOL    HW224853   7.188   2.513   6.799 -0.8257  1.0077  1.9022
 7119SOL     OW24854   1.864   5.140   8.363  0.3013  0.1944  0.1025
 7119SOL    HW124855   1.800   5.119   8.295  0.8911 -0.3552 -0.2858
 7119SOL    HW224856   1.836   5.225   8.396  0.2956  0.7084 -1.1675
 7120SOL     OW24857   3.522   5.442   7.083  0.4353 -0.3946  0.2941
 7120SOL    HW124858   3.522   5.367   7.142 -2.2549 -1.3306 -0.7315
 7120SOL    HW224859   3.437   5.485   7.098  0.7627  0.8157 -1.0632
 7121SOL     OW24860   0.586   2.574   4.862  0.1191  0.2084  0.2551
 7121SOL    HW124861   0.518   2.552   4.798  0.4136  0.6367 -0.2150
 7121SOL    HW224862   0.547   2.554   4.947 -0.6886  0.6826  0.0032
 7122SOL     OW24863   9.135   7.036   1.409  0.2260  0.0601  0.3289
 7122SOL    HW124864   9.096   6.949   1.421  0.0284 -0.0506 -0.9647
 7122SOL    HW224865   9.060   7.096   1.411  0.2471  0.0921  0.1532
 7123SOL     OW24866   5.910   4.304   1.837  0.4911 -0.3708  0.5863
 7123SOL    HW124867   5.821   4.269   1.834  0.7647 -1.0820  0.5921
 7123SOL    HW224868   5.928   4.314   1.931  1.2246 -2.3817  0.7048
 7124SOL     OW24869   5.428  10.695   3.580  0.3551 -0.1624  0.4353
 7124SOL    HW124870   5.518  10.722   3.565  0.2486  0.0170  0.1026
 7124SOL    HW224871   5.406  10.640   3.506 -0.5789  1.7530 -0.7990
 7125SOL     OW24872   2.163   0.211   3.779  0.7543 -0.0177 -0.3364
 7125SOL    HW124873   2.247   0.174   3.805  1.6698  2.0378 -0.1993
 7125SOL    HW224874   2.114   0.218   3.861  0.7548 -0.4404 -0.2960
 7126SOL     OW24875   1.552  10.127   1.860 -0.0570 -0.3213  0.5643
 7126SOL    HW124876   1.473  10.126   1.805 -0.6199  0.7234  1.3030
 7126SOL    HW224877   1.623  10.101   1.802 -0.7433  0.0963 -0.4847
 7127SOL     OW24878   7.086   4.518   8.397 -0.1014  0.0574 -0.3121
 7127SOL    HW124879   7.082   4.547   8.488  2.6095 -0.7172  0.1352
 7127SOL    HW224880   7.064   4.425   8.400  0.8140 -0.1639 -0.3120
 7128SOL     OW24881   5.232   9.551   8.822 -0.8036 -0.1120 -0.5276
 7128SOL    HW124882   5.277   9.627   8.784  0.1005 -1.4318 -2.2575
 7128SOL    HW224883   5.165   9.528   8.757  0.2472 -1.9468 -1.0301
 7129SOL     OW24884   7.087   4.327   8.722  0.4245  0.3995 -0.0038
 7129SOL    HW124885   7.073   4.340   8.816 -1.8684  2.0754 -0.5041
 7129SOL    HW224886   7.083   4.414   8.685  0.5109 -0.3200 -1.7837
 7130SOL     OW24887   8.168   6.880   7.855 -0.7032  0.1397  0.0565
 7130SOL    HW124888   8.164   6.965   7.898  0.2933  0.2589 -0.0424
 7130SOL    HW224889   8.077   6.855   7.840 -0.9965  1.4353 -0.4052
 7131SOL     OW24890  10.039   4.363   5.827 -0.0711  0.3974  0.4528
 7131SOL    HW124891  10.015   4.453   5.805  0.4821  0.4466  0.0311
 7131SOL    HW224892   9.975   4.309   5.781 -0.4646  0.5713  0.7832
 7132SOL     OW24893   5.771  10.001   3.761  0.3950  0.0607  0.2821
 7132SOL    HW124894   5.846  10.056   3.781  0.8556 -0.2905 -0.4301
 7132SOL    HW224895   5.809   9.919   3.729 -0.2759 -0.5850  1.0849
 7133SOL     OW24896   3.078   9.934   2.549  0.1283  0.5600 -0.0530
 7133SOL    HW124897   3.077   9.861   2.610 -0.1335  1.5595  1.1728
 7133SOL    HW224898   3.163   9.929   2.506  0.9706  0.7331  1.5297
 7134SOL     OW24899   2.621   8.774   8.432 -0.1160  0.1354  0.3198
 7134SOL    HW124900   2.573   8.749   8.511  1.2731  0.0801  1.1654
 7134SOL    HW224901   2.712   8.776   8.459  0.2342  1.7335 -0.8699
 7135SOL     OW24902   2.244   3.705   5.495 -0.4076  0.2630  0.2455
 7135SOL    HW124903   2.336   3.719   5.519 -0.3087 -1.0036  0.7096
 7135SOL    HW224904   2.209   3.654   5.568 -1.1036 -0.4965 -0.6114
 7136SOL     OW24905   6.576   5.700   8.799 -0.4074 -0.4385  0.2896
 7136SOL    HW124906   6.522   5.743   8.733 -1.1685 -0.6705  0.7473
 7136SOL    HW224907   6.580   5.762   8.872 -0.3362 -0.5659  0.3956
 7137SOL     OW24908   5.443   9.631  10.017 -0.7336 -0.4696  0.4532
 7137SOL    HW124909   5.382   9.699   9.989 -0.0768  0.4294  1.0964
 7137SOL    HW224910   5.461   9.652  10.109  0.0480 -1.0818  0.4501
 7138SOL     OW24911   6.554   3.256   4.911  0.0102  0.2373 -0.0663
 7138SOL    HW124912   6.634   3.231   4.865  0.6052  1.5859  0.2046
 7138SOL    HW224913   6.543   3.188   4.978  1.8398  0.9067  0.9701
 7139SOL     OW24914   9.832   8.531  10.065  0.5169 -0.1057 -0.1159
 7139SOL    HW124915   9.876   8.615  10.081 -1.2600  0.7318  0.6759
 7139SOL    HW224916   9.812   8.498  10.153  1.0028 -1.2671 -0.4305
 7140SOL     OW24917   6.698   7.511   2.124 -0.4017 -1.0802 -0.6663
 7140SOL    HW124918   6.687   7.487   2.216  0.9693  0.3707 -0.0812
 7140SOL    HW224919   6.792   7.521   2.113 -0.6416  0.1505 -1.8556
 7141SOL     OW24920   9.412   4.707   2.771 -0.5029  0.0265 -0.4634
 7141SOL    HW124921   9.444   4.778   2.826 -0.0355 -0.5999  0.0798
 7141SOL    HW224922   9.407   4.745   2.683 -0.1036  0.6851 -0.2047
 7142SOL     OW24923   0.261   0.308   9.947  0.3116  0.3291  0.3704
 7142SOL    HW124924   0.174   0.271   9.965  0.2980  0.5982  0.8908
 7142SOL    HW224925   0.244   0.384   9.891 -0.0995  2.0630  2.6837
 7143SOL     OW24926   0.890   8.769   5.941  0.1910  0.0408 -0.0033
 7143SOL    HW124927   0.961   8.751   6.003 -1.1815  0.9157  1.9587
 7143SOL    HW224928   0.903   8.706   5.870  1.7506 -1.1522  1.2481
 7144SOL     OW24929   7.999   2.618   2.411 -0.0755  0.0659 -0.0153
 7144SOL    HW124930   7.922   2.675   2.399 -0.7904 -1.0095 -0.7228
 7144SOL    HW224931   8.072   2.670   2.378 -0.9841 -0.1090 -2.5111
 7145SOL     OW24932   6.731   8.794   7.515  0.2344  0.2377  0.2719
 7145SOL    HW124933   6.817   8.814   7.477  0.6468 -0.5480  0.7698
 7145SOL    HW224934   6.734   8.700   7.533 -0.9765  0.0688 -0.3183
 7146SOL     OW24935   0.427   0.579   1.864  0.0487 -0.5377  0.3554
 7146SOL    HW124936   0.389   0.540   1.943  1.3642 -0.8946  0.8401
 7146SOL    HW224937   0.481   0.509   1.827  0.4022  0.0185 -0.1900
 7147SOL     OW24938   8.784   1.538   0.766  0.4708 -0.0272 -0.0214
 7147SOL    HW124939   8.878   1.555   0.768  0.5318 -0.4403  1.5818
 7147SOL    HW224940   8.748   1.601   0.828 -0.3301  0.1049 -0.6042
 7148SOL     OW24941   5.719   7.390  10.260  0.8166  0.7714 -0.2853
 7148SOL    HW124942   5.637   7.344  10.239  0.2029  2.2819 -1.3986
 7148SOL    HW224943   5.732   7.374  10.353 -0.3160 -0.1715 -0.2576
 7149SOL     OW24944   9.051   8.316   2.414 -0.5815  0.3366  0.2752
 7149SOL    HW124945   9.008   8.346   2.334  2.6583  0.0734 -1.6989
 7149SOL    HW224946   9.130   8.272   2.384 -0.2194 -1.5832  3.5668
 7150SOL     OW24947  10.313   3.234   1.174  0.1619 -0.1121  0.1782
 7150SOL    HW124948  10.238   3.291   1.154 -0.4692 -1.1143 -0.3949
 7150SOL    HW224949  10.340   3.261   1.262 -1.7227 -0.5971  0.9620
 7151SOL     OW24950   1.048  10.911   3.449  0.3733 -0.2684  0.1629
 7151SOL    HW124951   0.983  10.841   3.449 -0.0577  0.1237  0.3052
 7151SOL    HW224952   1.062  10.931   3.356  1.9621 -1.8566  0.0060
 7152SOL     OW24953  10.315   3.896   0.357 -0.4625  0.6269  0.3805
 7152SOL    HW124954  10.293   3.868   0.269  1.2532 -0.2938  0.1930
 7152SOL    HW224955  10.233   3.890   0.406 -1.3351  0.7039 -1.0253
 7153SOL     OW24956  10.933   9.875   7.840 -0.0290 -0.1855 -0.2409
 7153SOL    HW124957  10.866   9.870   7.772  0.3454 -0.0114 -0.6251
 7153SOL    HW224958  10.884   9.897   7.920 -0.2135  2.0771 -0.9065
 7154SOL     OW24959   5.064   6.944  10.524 -0.2169 -0.0340  0.1957
 7154SOL    HW124960   5.046   6.997  10.447  2.2814  0.1051 -0.3727
 7154SOL    HW224961   5.105   6.865  10.490 -1.9630 -1.4520  1.2042
 7155SOL     OW24962  10.498   9.609   6.718 -0.5951 -0.2974 -0.2487
 7155SOL    HW124963  10.443   9.569   6.785 -1.1184  0.8922  0.0567
 7155SOL    HW224964  10.555   9.669   6.766 -0.7292  0.3061 -0.8321
 7156SOL     OW24965   0.686   3.957  10.073 -0.1254 -0.2074 -0.2709
 7156SOL    HW124966   0.612   3.927  10.020  0.8761 -1.4446 -1.0376
 7156SOL    HW224967   0.748   3.885  10.070  1.7039  1.3176 -0.7788
 7157SOL     OW24968   5.397   8.591   7.951 -0.9733  0.2872  0.1735
 7157SOL    HW124969   5.314   8.568   7.910  0.5110 -1.1414 -2.2803
 7157SOL    HW224970   5.426   8.510   7.992  0.2987  0.0576 -1.1033
 7158SOL     OW24971   3.052   7.581   0.380 -0.5506 -0.1841 -0.1225
 7158SOL    HW124972   3.144   7.562   0.399 -0.5539  0.2690  0.3809
 7158SOL    HW224973   3.048   7.588   0.284 -0.3202 -1.4622 -0.2339
 7159SOL     OW24974   6.090   2.875   7.984  0.2026 -0.4162 -0.2447
 7159SOL    HW124975   6.132   2.955   8.014 -0.8743 -0.4294  1.3754
 7159SOL    HW224976   6.016   2.905   7.930  0.3437 -0.3469 -0.4009
 7160SOL     OW24977   9.790   2.144   3.189 -0.3944  0.2687  0.3078
 7160SOL    HW124978   9.862   2.203   3.164 -0.6251 -0.5920 -2.7559
 7160SOL    HW224979   9.832   2.059   3.198 -0.6147  0.2598  1.3588
 7161SOL     OW24980  10.926   4.143   8.315  0.1479 -0.3506  0.2904
 7161SOL    HW124981  10.948   4.075   8.379 -2.0172 -0.9415  0.4953
 7161SOL    HW224982  11.009   4.187   8.298  1.3559 -2.1061  1.2443
 7162SOL     OW24983   9.716   1.766   8.297 -0.0772 -0.5137 -0.8414
 7162SOL    HW124984   9.732   1.676   8.325  0.0296 -0.4276 -0.6235
 7162SOL    HW224985   9.726   1.818   8.377 -0.0239 -0.2946 -0.9906
 7163SOL     OW24986   8.407   3.990   2.466  0.2005  0.4371  0.3945
 7163SOL    HW124987   8.502   3.988   2.462  0.1445 -1.6375 -1.9996
 7163SOL    HW224988   8.384   3.917   2.523  0.0989 -2.5275 -3.0818
 7164SOL     OW24989   7.612  10.728   6.741  0.1923  0.4025  0.0894
 7164SOL    HW124990   7.696  10.711   6.698 -0.9189 -1.0742 -1.5988
 7164SOL    HW224991   7.618  10.680   6.824  0.1282 -1.8213 -1.1146
 7165SOL     OW24992  10.473   7.290   6.311  0.2371  0.5715 -0.1686
 7165SOL    HW124993  10.567   7.284   6.326  0.0270  0.0718  1.0389
 7165SOL    HW224994  10.434   7.232   6.376 -0.8752  0.1818 -1.1321
 7166SOL     OW24995   5.388  10.476   6.222 -0.0879  0.2290 -0.3356
 7166SOL    HW124996   5.400  10.435   6.307  0.5357  1.2360  0.0773
 7166SOL    HW224997   5.298  10.510   6.225 -0.4391 -0.6608 -0.4998
 7167SOL     OW24998   0.388   5.234  10.264  0.3861  0.0899  0.4749
 7167SOL    HW124999   0.358   5.144  10.248  1.0798 -0.0816  0.0653
 7167SOL    HW225000   0.470   5.240  10.215  1.1503  0.4560  1.7647
 7168SOL     OW25001   1.086   2.540   6.965  0.7774  0.0065  0.8090
 7168SOL    HW125002   1.029   2.512   6.893 -0.4523  0.4327  1.6057
 7168SOL    HW225003   1.059   2.487   7.039  1.7768 -0.1479  1.0778
 7169SOL     OW25004   7.831   5.879   3.193 -0.5518  0.3223 -0.4348
 7169SOL    HW125005   7.883   5.816   3.143 -0.5222 -0.4637  0.5654
 7169SOL    HW225006   7.889   5.954   3.205 -0.1247  0.0073 -0.5078
 7170SOL     OW25007  10.080   0.458   3.467 -0.2691 -0.1043  0.0927
 7170SOL    HW125008  10.112   0.369   3.476  0.9485  0.2873 -0.1501
 7170SOL    HW225009  10.016   0.454   3.396 -1.5136 -1.0836  1.2234
 7171SOL     OW25010   6.672   9.147   6.128 -0.8371  0.3661  0.4232
 7171SOL    HW125011   6.651   9.090   6.202 -1.4446  1.5427  1.1794
 7171SOL    HW225012   6.758   9.117   6.098 -1.1974 -1.0280  0.7075
 7172SOL     OW25013  10.313  10.057   7.042 -0.1768 -0.2725 -0.0772
 7172SOL    HW125014  10.333   9.985   7.102  0.2844 -0.5646 -0.5766
 7172SOL    HW225015  10.361  10.036   6.962  0.2485  0.7798 -0.1095
 7173SOL     OW25016   5.091   6.739   6.013  0.3181 -0.0295  0.2635
 7173SOL    HW125017   5.174   6.787   6.017  0.1407  0.3046 -0.0579
 7173SOL    HW225018   5.105   6.663   6.070  1.2026 -0.5067 -0.5488
 7174SOL     OW25019   2.196   0.901   5.758 -0.3310 -0.4893 -0.4738
 7174SOL    HW125020   2.276   0.864   5.719 -0.0709 -0.2120 -0.2073
 7174SOL    HW225021   2.159   0.955   5.688  0.6877  0.8449 -0.0349
 7175SOL     OW25022   3.900   7.590   7.345 -0.3381 -0.0410 -1.0106
 7175SOL    HW125023   3.942   7.516   7.301  2.5815  0.3436  0.8697
 7175SOL    HW225024   3.893   7.563   7.436  0.3185  1.7530 -0.3816
 7176SOL     OW25025   6.156   6.128   6.096 -0.2667  0.2828 -0.7163
 7176SOL    HW125026   6.080   6.075   6.121 -0.4212  1.3067  1.0981
 7176SOL    HW225027   6.222   6.063   6.069 -0.8327 -0.7798  0.3633
 7177SOL     OW25028   0.967   5.477  10.841 -0.4669  0.4844  0.1257
 7177SOL    HW125029   0.906   5.499  10.771 -1.3100  0.5247  0.8615
 7177SOL    HW225030   0.968   5.554  10.898  0.3391  0.5189  0.0763
 7178SOL     OW25031   9.119   9.335   5.025  0.4599  0.0924  0.0842
 7178SOL    HW125032   9.203   9.327   4.980 -0.0533  0.8622 -1.0730
 7178SOL    HW225033   9.138   9.318   5.117  1.9577  0.6952 -0.0962
 7179SOL     OW25034   3.208   4.441   9.800 -0.3197 -0.3960  0.3164
 7179SOL    HW125035   3.178   4.355   9.771 -0.5190 -0.2913  0.2098
 7179SOL    HW225036   3.176   4.502   9.734 -0.4217 -0.2062  0.5359
 7180SOL     OW25037   8.936  10.798   6.852 -0.2878 -0.1586 -0.6714
 7180SOL    HW125038   8.888  10.719   6.874 -0.0144  0.1886  1.3568
 7180SOL    HW225039   8.871  10.857   6.815 -0.7047 -0.9361 -1.1906
 7181SOL     OW25040   2.991   8.161   2.112  0.2967  0.2205  0.1665
 7181SOL    HW125041   3.021   8.131   2.026  0.2658  0.9921 -0.1231
 7181SOL    HW225042   3.069   8.193   2.156  0.4218 -0.7461  0.6880
 7182SOL     OW25043   9.371   5.669   6.624 -0.2046  0.3764  0.1106
 7182SOL    HW125044   9.282   5.646   6.650 -0.0019  1.1964  1.5960
 7182SOL    HW225045   9.397   5.599   6.563 -1.4267 -0.5115  0.5814
 7183SOL     OW25046   6.205   3.537   2.209 -0.0976 -0.1780 -0.0935
 7183SOL    HW125047   6.134   3.586   2.167 -0.6790 -1.1091 -0.2503
 7183SOL    HW225048   6.164   3.498   2.287  0.6684  0.5730  0.7137
 7184SOL     OW25049  10.133   8.059   6.301  0.7276  0.4144  0.1318
 7184SOL    HW125050  10.049   8.023   6.329  1.1565  0.0857  1.0579
 7184SOL    HW225051  10.150   8.130   6.363  0.8888  0.8345 -0.3822
 7185SOL     OW25052   1.596   7.800   8.174 -0.2728  0.2668  0.3423
 7185SOL    HW125053   1.513   7.770   8.210  0.2420 -0.3982  1.0243
 7185SOL    HW225054   1.575   7.830   8.086 -1.0743 -0.8409  0.1333
 7186SOL     OW25055   9.206   3.347   2.564 -0.0214 -0.4298 -0.1107
 7186SOL    HW125056   9.145   3.352   2.638 -0.6940  1.2439 -0.7424
 7186SOL    HW225057   9.154   3.371   2.488  1.5363  1.7530 -0.5794
 7187SOL     OW25058   7.926   0.119   0.381  0.3201  0.1982  0.2245
 7187SOL    HW125059   7.865   0.103   0.452  0.8865 -2.0618  0.2714
 7187SOL    HW225060   8.011   0.133   0.424  0.0238  2.8425  0.1360
 7188SOL     OW25061   9.891   7.721   1.510 -0.3289 -0.6696 -0.1085
 7188SOL    HW125062   9.974   7.691   1.474  0.7750  1.9445  0.0807
 7188SOL    HW225063   9.915   7.787   1.575 -2.5722  1.5878 -1.4211
 7189SOL     OW25064   2.575   7.214   0.366  0.6746  0.0513  0.3146
 7189SOL    HW125065   2.492   7.212   0.413 -1.0781  0.7890 -2.5483
 7189SOL    HW225066   2.626   7.283   0.410 -0.2448 -0.2784  1.9830
 7190SOL     OW25067   8.086   1.163   0.866  0.0602 -0.0625 -0.2973
 7190SOL    HW125068   8.056   1.086   0.818 -0.2547 -0.7886  1.0197
 7190SOL    HW225069   8.175   1.141   0.894 -0.2217 -0.1848  0.5342
 7191SOL     OW25070   1.542   7.783   9.147 -0.2006 -0.3387  0.5066
 7191SOL    HW125071   1.501   7.822   9.069  1.3359  0.7090  0.1866
 7191SOL    HW225072   1.577   7.858   9.195 -0.5675 -1.0386  1.9049
 7192SOL     OW25073   9.751   6.031   3.729  0.1949 -0.3932  0.1211
 7192SOL    HW125074   9.838   6.037   3.691  0.4224 -0.4941  0.6194
 7192SOL    HW225075   9.694   6.075   3.665  0.7019  0.2676  0.1125
 7193SOL     OW25076   4.676   3.615   4.802 -0.0027  0.0466 -0.2353
 7193SOL    HW125077   4.589   3.593   4.769  0.1988 -0.1211 -0.6761
 7193SOL    HW225078   4.667   3.701   4.841 -0.4036 -0.0407 -0.1369
 7194SOL     OW25079  10.659   3.894   2.940  0.2454 -0.0918  0.1542
 7194SOL    HW125080  10.717   3.930   3.008 -0.9263 -2.0632  2.3343
 7194SOL    HW225081  10.602   3.967   2.917  1.2938  0.8942  0.5782
 7195SOL     OW25082   7.579   7.085   0.741  0.2181  0.2977  0.3248
 7195SOL    HW125083   7.636   7.054   0.811 -0.1719  0.8024  0.8718
 7195SOL    HW225084   7.524   7.152   0.782 -1.1029 -0.5134 -0.0654
 7196SOL     OW25085   4.614   5.619   3.165 -0.0823  0.5830 -0.0254
 7196SOL    HW125086   4.588   5.543   3.218  1.1421 -0.1920 -0.4932
 7196SOL    HW225087   4.703   5.639   3.195  0.6073  0.1761 -1.6999
 7197SOL     OW25088   9.477   0.738   9.264  0.3256  0.2089 -0.4135
 7197SOL    HW125089   9.473   0.824   9.222 -3.0220  0.3968  0.0688
 7197SOL    HW225090   9.433   0.679   9.204 -1.0216 -0.3113  1.0226
 7198SOL     OW25091   3.946   6.931   0.963 -0.1646  0.2287  0.1526
 7198SOL    HW125092   3.929   6.898   0.875  0.0018 -0.7894  0.4941
 7198SOL    HW225093   3.913   7.021   0.961 -1.8209 -0.3433 -0.4357
 7199SOL     OW25094   1.707   6.982   0.163 -0.2514 -0.4559 -0.2841
 7199SOL    HW125095   1.685   7.066   0.122 -3.2375 -1.1664 -0.3955
 7199SOL    HW225096   1.790   6.957   0.124  0.0773  1.8220 -1.2216
 7200SOL     OW25097   5.751   7.423   5.843 -0.2525 -0.1225 -0.2839
 7200SOL    HW125098   5.677   7.363   5.848 -1.3991  1.3415  1.1315
 7200SOL    HW225099   5.761   7.441   5.750 -1.7053 -0.3212 -0.5030
 7201SOL     OW25100   2.682   3.698   2.321 -0.0508 -0.1188 -0.0565
 7201SOL    HW125101   2.654   3.758   2.251  0.9006 -1.3637 -1.5819
 7201SOL    HW225102   2.622   3.624   2.315  0.2020 -0.3519  0.2813
 7202SOL     OW25103  10.769   1.887   0.323  0.5764  0.7501  0.1442
 7202SOL    HW125104  10.723   1.808   0.294 -0.1789  0.1276  2.7839
 7202SOL    HW225105  10.704   1.956   0.318  0.2419  0.5023  0.9707
 7203SOL     OW25106   2.736   0.640   2.445 -0.3548 -0.2734  0.8545
 7203SOL    HW125107   2.717   0.717   2.391  0.1789 -1.1408 -0.6432
 7203SOL    HW225108   2.798   0.670   2.511 -0.3162  0.6265  0.4163
 7204SOL     OW25109   5.897   3.671   2.812 -0.3109 -0.2753  0.2942
 7204SOL    HW125110   5.986   3.702   2.827 -0.2760  0.3486 -1.0744
 7204SOL    HW225111   5.844   3.722   2.873  0.0822  0.4947  0.0090
 7205SOL     OW25112   2.317   6.861   8.492 -0.1058 -0.3806 -0.1071
 7205SOL    HW125113   2.302   6.800   8.564  2.0728  0.4045  1.1121
 7205SOL    HW225114   2.244   6.846   8.432 -1.1905 -2.1154  1.5326
 7206SOL     OW25115   8.609   5.402   0.111 -0.6142 -0.5021 -0.1445
 7206SOL    HW125116   8.624   5.495   0.097  1.1316 -0.7270 -0.0428
 7206SOL    HW225117   8.576   5.370   0.027  1.3716 -0.2590 -1.0721
 7207SOL     OW25118   9.134   4.877   6.689  0.1828 -0.8297 -0.2513
 7207SOL    HW125119   9.142   4.958   6.740  1.1615  0.0940 -1.8068
 7207SOL    HW225120   9.194   4.816   6.731 -0.9355 -0.9609  1.2500
 7208SOL     OW25121   5.501  10.612   5.406 -0.0448 -0.1703  0.3215
 7208SOL    HW125122   5.553  10.543   5.365 -0.6652 -0.6458  0.3089
 7208SOL    HW225123   5.488  10.677   5.338  0.1608 -0.2619  0.1955
 7209SOL     OW25124   9.548   1.408   5.510 -0.1081 -0.0481  0.1829
 7209SOL    HW125125   9.609   1.361   5.453  0.8207 -0.1963  1.2577
 7209SOL    HW225126   9.477   1.346   5.526  0.3062 -0.5018  0.2788
 7210SOL     OW25127   3.080  10.626   1.956 -0.1495 -0.3577 -0.6183
 7210SOL    HW125128   3.071  10.540   1.914  0.2476 -0.0912 -1.2684
 7210SOL    HW225129   2.990  10.650   1.979 -0.0197 -2.2188  2.2466
 7211SOL     OW25130   7.183  10.154   5.631 -0.2180 -0.1868  0.3920
 7211SOL    HW125131   7.145  10.205   5.702 -3.3198 -0.4028 -0.9948
 7211SOL    HW225132   7.242  10.215   5.587 -1.8763  1.4536  0.3248
 7212SOL     OW25133   6.499   0.514   3.535  0.1070 -0.5892 -0.3070
 7212SOL    HW125134   6.511   0.438   3.479 -0.9589 -1.1896  0.2401
 7212SOL    HW225135   6.418   0.554   3.504 -0.0231 -0.4245  0.2388
 7213SOL     OW25136   1.602   7.252   7.718  0.6599 -0.7505 -0.0918
 7213SOL    HW125137   1.600   7.238   7.812 -1.6908  1.9868  0.4264
 7213SOL    HW225138   1.643   7.338   7.707 -1.6140  0.2844 -1.2206
 7214SOL     OW25139   0.968   8.878   9.122  0.6349  0.1919 -0.0230
 7214SOL    HW125140   0.975   8.834   9.037  1.0412 -0.5603  0.3881
 7214SOL    HW225141   0.893   8.837   9.164 -0.6774  1.8091 -0.7171
 7215SOL     OW25142   9.113   6.946   4.995 -0.0199  0.5916 -0.1260
 7215SOL    HW125143   9.049   7.009   5.028  0.8847  1.5197 -0.0802
 7215SOL    HW225144   9.137   6.894   5.072 -1.4823 -0.4847 -0.3593
 7216SOL     OW25145  10.700  10.684   9.900  0.0224  0.0236 -0.4209
 7216SOL    HW125146  10.640  10.756   9.921 -0.9994 -0.9605  0.1955
 7216SOL    HW225147  10.761  10.721   9.836 -2.1462  0.6989 -2.2389
 7217SOL     OW25148   3.643   5.882   3.823 -0.3540 -0.0366 -0.4899
 7217SOL    HW125149   3.719   5.888   3.765 -2.3099  1.0045 -3.1612
 7217SOL    HW225150   3.588   5.814   3.783 -1.7061  0.5972  0.2306
 7218SOL     OW25151   5.704   8.184   4.381  0.1014  0.4894 -0.3263
 7218SOL    HW125152   5.616   8.148   4.371 -0.6754  2.7062 -2.6617
 7218SOL    HW225153   5.708   8.215   4.471 -0.6696 -1.5815  0.4687
 7219SOL     OW25154   7.467   3.123   7.555  0.1897  0.0997  0.4558
 7219SOL    HW125155   7.543   3.109   7.499  1.2200 -1.2103  2.0931
 7219SOL    HW225156   7.460   3.218   7.562  2.4917  0.2682  1.2827
 7220SOL     OW25157   9.521   6.124   4.610 -0.2653 -0.3618  0.0155
 7220SOL    HW125158   9.493   6.035   4.630 -1.6201  0.0596  0.1109
 7220SOL    HW225159   9.521   6.129   4.514 -1.1466 -0.1981  0.0138
 7221SOL     OW25160   3.318   9.232   8.100  0.3319  0.1351  0.5809
 7221SOL    HW125161   3.391   9.193   8.053  1.2080 -0.6586  2.4878
 7221SOL    HW225162   3.243   9.220   8.042  1.7052  1.1489 -1.5133
 7222SOL     OW25163   7.635   1.420   7.213 -0.3831  0.0430 -0.4585
 7222SOL    HW125164   7.606   1.501   7.256  1.0454 -0.0782  0.8444
 7222SOL    HW225165   7.572   1.405   7.143 -2.8079  0.3022  1.5531
 7223SOL     OW25166   6.314   2.742   9.818 -0.3432 -0.2808  0.4347
 7223SOL    HW125167   6.239   2.798   9.799 -0.5673 -0.3511  1.0976
 7223SOL    HW225168   6.333   2.758   9.910 -0.2761 -1.1251  0.5750
 7224SOL     OW25169   8.720   3.121   1.303 -0.4625  0.1061 -0.2631
 7224SOL    HW125170   8.643   3.073   1.275  0.2083  0.1566 -2.3858
 7224SOL    HW225171   8.697   3.213   1.292 -1.2195  0.3227  2.3679
 7225SOL     OW25172   2.567   7.747   7.713 -0.0710 -0.5946  0.4148
 7225SOL    HW125173   2.569   7.682   7.782 -0.2383 -2.7042 -1.4682
 7225SOL    HW225174   2.628   7.715   7.646 -2.0541 -0.2402 -1.7192
 7226SOL     OW25175   7.378  10.610   6.672 -0.5173  0.1621 -0.1530
 7226SOL    HW125176   7.456  10.656   6.702 -0.6262 -0.1114  0.5757
 7226SOL    HW225177   7.408  10.559   6.597  0.5265 -1.5832  1.3684
 7227SOL     OW25178   1.883   5.653   7.814 -0.8024 -0.7537  0.3184
 7227SOL    HW125179   1.931   5.679   7.893  2.0484  1.6682 -1.9483
 7227SOL    HW225180   1.935   5.582   7.777 -0.2130  0.2697 -0.9186
 7228SOL     OW25181   6.023   7.574   7.214 -0.0323  0.5000 -0.3129
 7228SOL    HW125182   6.045   7.582   7.122 -1.3269 -1.1279 -0.8257
 7228SOL    HW225183   5.927   7.567   7.216  0.0156 -0.3533  1.0421
 7229SOL     OW25184   2.661   7.634   7.444  0.0663 -0.0197 -0.1979
 7229SOL    HW125185   2.755   7.616   7.438 -0.1855 -1.1638 -1.2394
 7229SOL    HW225186   2.619   7.551   7.421 -1.1955  0.6305 -0.3543
 7230SOL     OW25187   4.300   0.725   0.733 -0.5721 -0.1949 -0.4417
 7230SOL    HW125188   4.260   0.653   0.685 -0.5473 -0.2141 -0.4338
 7230SOL    HW225189   4.263   0.804   0.694 -0.5867 -0.2117 -0.4615
 7231SOL     OW25190   5.208   6.858   6.659 -0.3079  0.7057 -0.5781
 7231SOL    HW125191   5.115   6.861   6.635 -0.4101 -0.2322 -0.3412
 7231SOL    HW225192   5.251   6.821   6.582 -0.2523  0.3240 -0.3658
 7232SOL     OW25193   0.130   6.247   5.388 -0.2012 -0.4485  0.0103
 7232SOL    HW125194   0.081   6.234   5.469 -0.2817  1.6172  0.3536
 7232SOL    HW225195   0.084   6.195   5.323 -0.9227 -1.0919  1.0085
 7233SOL     OW25196   5.396   5.939   0.887  0.4732 -0.2859  0.4936
 7233SOL    HW125197   5.313   5.982   0.869  0.3219  0.2096  2.2517
 7233SOL    HW225198   5.380   5.847   0.866  0.3054  0.1780 -1.6788
 7234SOL     OW25199   6.549   3.268  10.318 -0.1947  0.4594 -0.0972
 7234SOL    HW125200   6.616   3.213  10.278 -0.4894 -0.4977  0.6875
 7234SOL    HW225201   6.576   3.274  10.410 -0.9354  0.4562  0.1191
 7235SOL     OW25202   0.426   6.160   6.722 -0.6718 -0.3233  0.0218
 7235SOL    HW125203   0.499   6.110   6.756  1.2551  1.4373 -1.2897
 7235SOL    HW225204   0.383   6.101   6.660 -0.1593 -1.2698  0.5516
 7236SOL     OW25205   9.309  10.616   0.673  0.1877 -0.1536 -0.5517
 7236SOL    HW125206   9.214  10.611   0.668  0.2800 -1.3651 -1.4720
 7236SOL    HW225207   9.339  10.613   0.582  1.0883  0.9492 -0.3152
 7237SOL     OW25208   2.785   2.302   0.061 -0.3042 -0.0750  0.0472
 7237SOL    HW125209   2.751   2.219   0.028  1.0363 -1.5109  2.0301
 7237SOL    HW225210   2.874   2.306   0.027 -0.8152  1.3418 -1.2420
 7238SOL     OW25211   3.127   1.079   3.569 -0.1781  0.4800  0.3796
 7238SOL    HW125212   3.166   1.091   3.656  1.0581  0.1358 -0.1160
 7238SOL    HW225213   3.177   1.008   3.530 -1.5164 -0.1870 -0.1678
 7239SOL     OW25214   6.932   9.660   9.278  0.6129  0.0927  0.2086
 7239SOL    HW125215   6.997   9.728   9.257  0.4660 -0.0090 -0.6449
 7239SOL    HW225216   6.887   9.692   9.356  1.2202  0.4991  0.3947
 7240SOL     OW25217   4.589   6.384   4.830 -0.3371 -0.3862  0.9933
 7240SOL    HW125218   4.656   6.366   4.764 -2.8086 -0.3813 -1.7074
 7240SOL    HW225219   4.581   6.479   4.831 -1.9922 -0.4604 -0.6297
 7241SOL     OW25220   6.606   3.914   0.695  0.1538  0.4430 -0.2434
 7241SOL    HW125221   6.511   3.929   0.691 -0.2648 -1.9870 -0.6004
 7241SOL    HW225222   6.618   3.859   0.772  1.1951  0.1658 -0.5941
 7242SOL     OW25223  10.991   3.644   6.835 -0.9746  0.0019 -0.1114
 7242SOL    HW125224  10.956   3.665   6.922 -0.7076 -1.8191  0.4713
 7242SOL    HW225225  11.071   3.595   6.853  1.0839  2.6196 -1.4154
 7243SOL     OW25226   0.919   3.425  10.014 -0.3894  0.3303 -0.0985
 7243SOL    HW125227   0.979   3.369   9.964  2.5653  0.6096  2.8199
 7243SOL    HW225228   0.912   3.505   9.962 -0.8599 -0.8753 -2.0097
 7244SOL     OW25229   2.658   6.540   1.275 -0.0040  0.5538 -0.0903
 7244SOL    HW125230   2.672   6.449   1.249  1.5996  0.7136  0.1000
 7244SOL    HW225231   2.694   6.545   1.363  0.7387  1.5633 -0.4387
 7245SOL     OW25232   4.689  10.490   0.027 -0.0140  0.1728  0.1922
 7245SOL    HW125233   4.754  10.454  -0.033 -0.0005  0.5291 -0.0093
 7245SOL    HW225234   4.634  10.546  -0.028 -0.2907  0.1268  0.4219
 7246SOL     OW25235   7.308   7.955   7.483  0.1176  0.7376 -0.2531
 7246SOL    HW125236   7.402   7.963   7.501 -0.1623 -0.8733  2.4802
 7246SOL    HW225237   7.296   7.864   7.456 -0.7159  0.8230 -0.2002
 7247SOL     OW25238  10.286   4.210   7.886 -0.7096 -0.0536  0.2782
 7247SOL    HW125239  10.210   4.178   7.934 -0.6319 -1.3916 -0.4297
 7247SOL    HW225240  10.318   4.134   7.838  1.1672  0.4394  0.6462
 7248SOL     OW25241   5.721   5.549   3.792  0.1446  0.8066  0.0976
 7248SOL    HW125242   5.650   5.505   3.839 -1.2449  3.7248  1.0359
 7248SOL    HW225243   5.699   5.539   3.700  0.2904 -0.9929  0.2315
 7249SOL     OW25244   1.103   4.368   4.235 -0.1615  0.2132 -0.3930
 7249SOL    HW125245   1.034   4.431   4.217 -0.0174  1.1740  2.0511
 7249SOL    HW225246   1.141   4.396   4.318  2.3961 -0.9792 -1.0467
 7250SOL     OW25247   5.129   2.744   7.660  0.5235  0.7088  0.2533
 7250SOL    HW125248   5.041   2.732   7.623  1.0582  1.0710 -1.2235
 7250SOL    HW225249   5.159   2.827   7.623  1.2797  0.8789  1.2047
 7251SOL     OW25250   9.057   4.357   1.529  0.4405  0.2790 -0.1623
 7251SOL    HW125251   9.064   4.431   1.590  1.3982  0.1492 -0.1036
 7251SOL    HW225252   9.032   4.283   1.584 -2.4899  0.8929 -0.4768
 7252SOL     OW25253   8.516  10.786   3.814  0.6261  0.4850 -0.1516
 7252SOL    HW125254   8.584  10.828   3.761  0.1504 -1.6214 -2.6472
 7252SOL    HW225255   8.536  10.692   3.808 -1.0845 -0.0119  1.1360
 7253SOL     OW25256   9.828   1.562   2.431  0.2996 -0.3203 -0.0739
 7253SOL    HW125257   9.808   1.526   2.344  1.2344 -0.3420 -0.2869
 7253SOL    HW225258   9.888   1.498   2.470  1.6771  0.7776 -0.3100
 7254SOL     OW25259   0.271   4.812   4.213  0.0403 -0.4051  0.5952
 7254SOL    HW125260   0.259   4.804   4.119 -0.5062  1.1676  0.4977
 7254SOL    HW225261   0.192   4.773   4.251 -0.9451  1.1923  0.2853
 7255SOL     OW25262   9.641   8.010   4.637 -0.1388  0.3542 -0.2163
 7255SOL    HW125263   9.607   8.028   4.549  0.4590 -0.2055 -0.5723
 7255SOL    HW225264   9.717   8.067   4.646  0.0209  0.1425 -0.2125
 7256SOL     OW25265   4.385   0.027   0.395  0.1756 -0.2252 -0.0009
 7256SOL    HW125266   4.449  -0.043   0.381 -0.0942 -0.7250  1.1161
 7256SOL    HW225267   4.385   0.041   0.490 -0.4362  0.6684 -0.1145
 7257SOL     OW25268   7.297  10.694  10.367 -0.3130  0.6358  0.4474
 7257SOL    HW125269   7.309  10.778  10.323 -0.8644 -0.1610 -1.3313
 7257SOL    HW225270   7.342  10.631  10.310  0.6450 -0.2129  2.0697
 7258SOL     OW25271   6.136   4.434   1.692 -0.4796  0.2958  0.5729
 7258SOL    HW125272   6.061   4.420   1.749 -0.3247  1.6803  1.1591
 7258SOL    HW225273   6.207   4.383   1.733 -0.9477 -0.6118  0.2880
 7259SOL     OW25274   3.545   5.623   8.473 -0.4051 -0.0681  0.2813
 7259SOL    HW125275   3.516   5.684   8.542 -0.6344 -0.4962  0.5652
 7259SOL    HW225276   3.477   5.629   8.406 -1.0311 -0.8752  0.8313
 7260SOL     OW25277  10.509   4.766   6.511  0.2284  0.3371  0.2058
 7260SOL    HW125278  10.524   4.675   6.540  1.6876  0.4683 -0.0228
 7260SOL    HW225279  10.550   4.770   6.425 -0.7723  0.9454 -0.2525
 7261SOL     OW25280   2.961   0.634   6.646 -0.6752 -0.2062  0.5198
 7261SOL    HW125281   2.988   0.546   6.618  0.2105 -0.0893  0.9837
 7261SOL    HW225282   2.909   0.619   6.726 -4.0063 -0.6232 -1.5339
 7262SOL     OW25283   6.802   4.314  10.395  0.7848 -0.0522 -0.1437
 7262SOL    HW125284   6.812   4.228  10.434  1.2708 -0.3431 -0.8854
 7262SOL    HW225285   6.826   4.302  10.303  0.1915  0.7241 -0.4176
 7263SOL     OW25286   6.270   8.702   6.102  0.0797  0.0884 -0.0177
 7263SOL    HW125287   6.354   8.699   6.056  0.1309  3.4500 -0.3815
 7263SOL    HW225288   6.204   8.697   6.033  0.0108 -0.4680  0.0830
 7264SOL     OW25289   7.066   1.573   0.381  0.1215  0.5922  0.0865
 7264SOL    HW125290   6.996   1.524   0.339 -0.1362 -0.5504  1.7730
 7264SOL    HW225291   7.147   1.530   0.353 -0.0530 -0.2244  0.8175
 7265SOL     OW25292  10.098  10.869   1.338  0.1112 -0.0473  0.1789
 7265SOL    HW125293  10.043  10.792   1.327  0.6747 -0.2489 -1.5248
 7265SOL    HW225294  10.130  10.863   1.428 -1.2456 -0.8394  0.6447
 7266SOL     OW25295   5.963   5.605   8.512  0.0715  0.1656 -0.5958
 7266SOL    HW125296   6.017   5.677   8.542 -2.3671  2.5802 -1.6049
 7266SOL    HW225297   5.979   5.600   8.418  0.9552 -1.3476 -0.4019
 7267SOL     OW25298   1.354   4.167   5.304  0.5789  0.6277 -0.4357
 7267SOL    HW125299   1.369   4.232   5.236  2.0330 -0.5351 -1.2803
 7267SOL    HW225300   1.268   4.132   5.286  0.6087  0.9238 -1.1621
 7268SOL     OW25301  10.372   9.696   4.681  0.1010  0.2204  0.0008
 7268SOL    HW125302  10.317   9.775   4.683 -0.4192 -0.1122 -0.5659
 7268SOL    HW225303  10.310   9.624   4.695  0.4825 -0.1289 -0.0914
 7269SOL     OW25304   8.531   1.128   5.561  0.5813  0.6404  0.0550
 7269SOL    HW125305   8.571   1.124   5.648  0.2036 -0.6718  0.1894
 7269SOL    HW225306   8.584   1.069   5.508  0.7127  1.3168 -0.5845
 7270SOL     OW25307   4.618  10.064   9.160 -0.6757 -0.0010 -0.4031
 7270SOL    HW125308   4.545  10.032   9.106 -1.1774  0.2462  0.1163
 7270SOL    HW225309   4.606  10.020   9.244 -1.3498  1.4825  0.3102
 7271SOL     OW25310   7.562   5.888   1.526 -0.2893  0.0519 -1.0052
 7271SOL    HW125311   7.501   5.820   1.552 -0.5489 -0.5616 -3.0724
 7271SOL    HW225312   7.587   5.930   1.609 -2.5800 -0.4303  0.0212
 7272SOL     OW25313   0.246   9.493   2.578 -0.0979  0.6390 -0.6372
 7272SOL    HW125314   0.155   9.475   2.600  0.2349  0.0658  0.3274
 7272SOL    HW225315   0.241   9.546   2.498 -1.2665  0.5896 -0.6189
 7273SOL     OW25316   6.915   2.164   2.444 -0.5912 -0.4791  0.4368
 7273SOL    HW125317   6.884   2.074   2.437  2.3922 -1.5708 -0.1659
 7273SOL    HW225318   6.982   2.161   2.513  0.7736  0.8441 -0.7576
 7274SOL     OW25319   5.955   3.647   8.270 -0.4561  0.3566 -0.5505
 7274SOL    HW125320   5.989   3.733   8.296 -0.3746  0.3287 -0.5647
 7274SOL    HW225321   6.014   3.618   8.201  0.3927 -0.3491  0.4267
 7275SOL     OW25322   7.863   1.017   9.642 -0.4302  0.1849  0.5767
 7275SOL    HW125323   7.955   1.007   9.667 -0.2087 -0.3493 -0.4179
 7275SOL    HW225324   7.827   1.078   9.707  0.6072  0.3609  1.0016
 7276SOL     OW25325  10.516   6.716   6.381  0.3452 -0.7331 -0.0998
 7276SOL    HW125326  10.427   6.683   6.393  0.4391 -1.7325 -1.7080
 7276SOL    HW225327  10.552   6.661   6.311  2.3413 -0.5614  0.7125
 7277SOL     OW25328   8.268   5.589   8.135  0.0315 -0.0715 -0.2947
 7277SOL    HW125329   8.271   5.496   8.112  0.0881 -0.3015  0.5918
 7277SOL    HW225330   8.190   5.622   8.092 -0.8508 -0.8952  0.6305
 7278SOL     OW25331   3.475   5.534   5.857  0.2631 -0.1357  0.1780
 7278SOL    HW125332   3.422   5.541   5.777 -0.2456  1.4903  0.6238
 7278SOL    HW225333   3.413   5.550   5.928  1.0746  0.3252  0.7982
 7279SOL     OW25334   8.356   9.784   4.596 -0.0468  0.0109  0.1653
 7279SOL    HW125335   8.305   9.802   4.675 -1.8409 -2.0179 -0.4179
 7279SOL    HW225336   8.382   9.692   4.605 -1.1799 -0.5892 -2.0031
 7280SOL     OW25337   3.644   8.541   6.374  0.0587 -0.0016  0.1327
 7280SOL    HW125338   3.650   8.566   6.282 -1.3011 -1.1331 -0.3117
 7280SOL    HW225339   3.634   8.623   6.421  3.3625  0.8387 -0.3970
 7281SOL     OW25340   5.030   2.746   3.002  0.6953  0.0989 -0.2586
 7281SOL    HW125341   5.125   2.744   3.011  0.7716  1.4661 -0.5242
 7281SOL    HW225342   5.008   2.839   2.996 -0.6107 -0.2098 -0.7076
 7282SOL     OW25343   7.998   7.535  10.632  0.3829  0.5277  0.0727
 7282SOL    HW125344   7.959   7.621  10.615 -0.5606  0.2119  0.5549
 7282SOL    HW225345   8.035   7.543  10.719  0.5968  0.5486 -0.0201
 7283SOL     OW25346   9.569  10.019  10.187  0.4486 -0.6638 -0.2675
 7283SOL    HW125347   9.486  10.057  10.159  0.4056 -0.1741  0.4910
 7283SOL    HW225348   9.545   9.935  10.226  0.1425  0.0316  1.1013
 7284SOL     OW25349   9.264   1.605  10.298  0.5848  0.0749  0.0967
 7284SOL    HW125350   9.266   1.578  10.206 -1.6352 -0.2672  0.0978
 7284SOL    HW225351   9.287   1.698  10.296 -0.5324  0.3600 -0.9705
 7285SOL     OW25352   0.006   3.718   7.362 -0.0522 -0.1576  0.4162
 7285SOL    HW125353   0.099   3.725   7.384  0.3423  0.2361 -1.2241
 7285SOL    HW225354  -0.033   3.799   7.395 -0.0191 -0.7186  1.9101
 7286SOL     OW25355   5.664   3.607   9.807 -0.0177  0.0552  0.0987
 7286SOL    HW125356   5.614   3.683   9.777 -0.9898  0.0868  1.7010
 7286SOL    HW225357   5.753   3.640   9.818  0.0903  0.3530 -1.4249
 7287SOL     OW25358   7.140   4.384   3.904  0.1748 -0.1907 -0.5118
 7287SOL    HW125359   7.234   4.402   3.915  0.1932 -0.3313 -0.4442
 7287SOL    HW225360   7.137   4.307   3.847  0.1203 -0.8291  0.3442
 7288SOL     OW25361   3.151   5.044   7.301  0.4742 -0.4092 -0.1758
 7288SOL    HW125362   3.118   4.985   7.234  0.6092  1.0191 -1.5577
 7288SOL    HW225363   3.110   5.128   7.282  1.9047  0.4664  0.4181
 7289SOL     OW25364   7.470   0.408   1.679 -0.4680  0.3611  0.4737
 7289SOL    HW125365   7.530   0.350   1.726  0.7378  0.9627 -0.2469
 7289SOL    HW225366   7.441   0.472   1.744 -0.3497  0.0352  0.8451
 7290SOL     OW25367   7.838   4.153   4.403  0.1010 -0.5321 -0.4065
 7290SOL    HW125368   7.835   4.248   4.410  1.2160 -0.5663  0.9578
 7290SOL    HW225369   7.761   4.123   4.451  1.1818 -0.3590  1.5428
 7291SOL     OW25370   3.489   0.781   5.344 -0.1171  0.0381  1.2165
 7291SOL    HW125371   3.498   0.739   5.429  0.5096 -2.3877  0.0495
 7291SOL    HW225372   3.394   0.786   5.329 -0.2100 -1.0179  1.3978
 7292SOL     OW25373   8.566   5.520   9.869  0.0322  0.1971  0.0150
 7292SOL    HW125374   8.564   5.427   9.846 -2.0737  0.6048 -1.7773
 7292SOL    HW225375   8.499   5.529   9.937  1.3889  0.1919  1.4208
 7293SOL     OW25376   0.246   9.018   6.413  0.0269 -0.2387  0.0894
 7293SOL    HW125377   0.274   8.965   6.338 -0.6558  0.9456 -1.0393
 7293SOL    HW225378   0.180   9.077   6.377  0.6614  1.2855  1.3298
 7294SOL     OW25379   2.216   0.428   5.745  0.3667 -0.3663 -0.1617
 7294SOL    HW125380   2.257   0.481   5.677 -0.9462 -0.4611 -1.0787
 7294SOL    HW225381   2.193   0.346   5.700 -2.3719  0.3398 -0.2221
 7295SOL     OW25382   5.428   9.355   0.632  0.2777 -0.5053  0.1045
 7295SOL    HW125383   5.430   9.422   0.563 -0.0772  0.3233  0.8745
 7295SOL    HW225384   5.489   9.288   0.601 -1.4218 -1.1743 -1.9925
 7296SOL     OW25385   3.299   7.426   6.506  0.3956  0.1608 -0.0404
 7296SOL    HW125386   3.252   7.356   6.551  0.3396  0.0548 -0.2627
 7296SOL    HW225387   3.357   7.381   6.445  1.5856  0.2559  0.9911
 7297SOL     OW25388  10.997   9.837   7.480  0.0864 -0.0444 -0.4819
 7297SOL    HW125389  10.991   9.743   7.460 -1.0281 -0.1395  0.2660
 7297SOL    HW225390  11.088   9.849   7.508 -0.4911 -1.5412  2.4422
 7298SOL     OW25391  10.249   5.271   3.376  0.1168  0.0114 -0.5679
 7298SOL    HW125392  10.217   5.198   3.429  1.5757 -0.3196 -0.0956
 7298SOL    HW225393  10.233   5.244   3.286 -1.5201  0.1696 -0.3571
 7299SOL     OW25394   2.397   5.834   3.057 -0.4632  0.2086  0.1726
 7299SOL    HW125395   2.491   5.816   3.055 -0.5061 -0.0765  0.5679
 7299SOL    HW225396   2.356   5.747   3.049 -0.6858  0.2246  1.0386
 7300SOL     OW25397   2.782   7.106  10.975 -0.1899 -0.4643 -0.0093
 7300SOL    HW125398   2.851   7.172  10.966 -1.5173  1.0297  0.3416
 7300SOL    HW225399   2.787   7.055  10.894 -0.6330  1.6002 -1.4166
 7301SOL     OW25400   7.036   7.106   2.241  0.4755  0.4726 -0.0363
 7301SOL    HW125401   7.081   7.136   2.162  0.6964 -0.3749 -0.2384
 7301SOL    HW225402   6.951   7.076   2.210 -0.1694  1.8261  0.3107
 7302SOL     OW25403   8.445   3.181  10.937  0.3641  0.3455 -0.3864
 7302SOL    HW125404   8.463   3.273  10.954 -0.1707  0.2857  0.5839
 7302SOL    HW225405   8.365   3.181  10.885 -0.5029  0.4014  0.8980
 7303SOL     OW25406   3.337   5.361   8.766  0.2135  0.2644 -0.3236
 7303SOL    HW125407   3.280   5.301   8.717 -0.4582  2.2439 -2.0900
 7303SOL    HW225408   3.420   5.315   8.773 -1.1616 -2.2181  1.2761
 7304SOL     OW25409   7.901   1.229   1.041 -0.2916  0.2392 -0.1664
 7304SOL    HW125410   7.978   1.216   0.985 -1.0458 -0.5922 -1.0355
 7304SOL    HW225411   7.852   1.300   1.000 -0.1602  0.5553  0.2136
 7305SOL     OW25412   8.410   6.015   5.807  0.1457  0.5264 -0.4160
 7305SOL    HW125413   8.371   6.026   5.893 -0.2169 -0.8055 -0.3832
 7305SOL    HW225414   8.465   6.092   5.795 -0.5750  1.2221  0.5779
 7306SOL     OW25415   1.350   8.906   9.796  0.0060  0.4102  0.1586
 7306SOL    HW125416   1.391   8.985   9.763 -0.0617 -0.5064 -2.2796
 7306SOL    HW225417   1.406   8.835   9.765 -1.9318 -0.7027 -0.9386
 7307SOL     OW25418   9.474   4.327   2.034  0.0459 -0.9113  0.4361
 7307SOL    HW125419   9.407   4.259   2.028 -1.4687  0.2851  2.5757
 7307SOL    HW225420   9.557   4.278   2.037 -1.0086 -2.7485  2.5848
 7308SOL     OW25421   0.400   4.657   4.481 -0.1083 -0.1730 -0.2916
 7308SOL    HW125422   0.314   4.630   4.512 -0.4428  1.7042  0.5456
 7308SOL    HW225423   0.383   4.711   4.404  0.3676 -0.2477 -0.4563
 7309SOL     OW25424   6.995   4.886   5.952 -0.0659  1.0552  0.3127
 7309SOL    HW125425   7.061   4.867   6.019 -2.2839 -1.9855  1.8722
 7309SOL    HW225426   7.025   4.839   5.874  0.3393  0.8976  0.5621
 7310SOL     OW25427   6.935   1.056   7.107  0.0682 -0.0324  0.3297
 7310SOL    HW125428   6.852   1.065   7.156 -0.7399  0.8864 -1.1390
 7310SOL    HW225429   6.943   0.962   7.092 -0.6903 -0.1461  0.5498
 7311SOL     OW25430  10.550   5.853   8.915  0.3101  0.2112 -0.2213
 7311SOL    HW125431  10.575   5.800   8.991 -1.4516  0.1779  0.3884
 7311SOL    HW225432  10.531   5.790   8.846  0.6750  0.1849 -0.3016
 7312SOL     OW25433   4.839   1.451   2.136  0.6279 -0.6605  0.1308
 7312SOL    HW125434   4.823   1.424   2.045  0.3090 -3.2812  0.8746
 7312SOL    HW225435   4.932   1.434   2.150  0.3519 -1.7607  0.7143
 7313SOL     OW25436   3.984   1.086   6.937 -0.1436 -0.3613  0.0857
 7313SOL    HW125437   4.051   1.060   6.874  1.3056  1.1330  0.9134
 7313SOL    HW225438   4.020   1.062   7.022 -1.3124 -0.8017  0.4778
 7314SOL     OW25439   3.116  10.516   6.945  0.3320  0.1966  0.1497
 7314SOL    HW125440   3.200  10.558   6.927  0.3429 -0.1076 -0.5200
 7314SOL    HW225441   3.138  10.430   6.980  0.2992 -0.2189 -0.8387
 7315SOL     OW25442   5.742   1.249   3.742 -0.3096 -0.1378 -0.2723
 7315SOL    HW125443   5.652   1.281   3.747 -0.3811 -0.1694 -1.1627
 7315SOL    HW225444   5.785   1.310   3.683  0.5998  0.6261  1.1285
 7316SOL     OW25445   9.757   1.024   6.238 -0.6110 -0.2192 -0.2006
 7316SOL    HW125446   9.770   0.948   6.295  1.2838 -0.5731 -1.0265
 7316SOL    HW225447   9.664   1.023   6.216 -0.8013 -1.7193  0.6121
 7317SOL     OW25448   4.992   8.659   5.055 -0.7447 -0.5115 -0.0073
 7317SOL    HW125449   4.911   8.621   5.088  0.0945 -0.4793  2.2713
 7317SOL    HW225450   5.050   8.585   5.044 -0.4803 -0.3502  0.2707
 7318SOL     OW25451   1.302   5.708   4.705 -0.2387 -0.1456 -0.2934
 7318SOL    HW125452   1.322   5.620   4.673  1.8459  0.2712 -0.2783
 7318SOL    HW225453   1.337   5.767   4.637  2.2925  0.7133  1.5802
 7319SOL     OW25454   2.099  10.441   8.745 -0.2026 -0.3612  0.5124
 7319SOL    HW125455   2.082  10.378   8.675  0.3585 -1.1684  1.0733
 7319SOL    HW225456   2.046  10.518   8.723 -1.3317 -1.2285  0.0818
 7320SOL     OW25457   2.085   9.321  10.532 -0.3773  0.3903 -0.0702
 7320SOL    HW125458   2.100   9.254  10.599  1.2712  0.9818  0.1990
 7320SOL    HW225459   2.041   9.275  10.461  0.4580 -0.9060  0.2317
 7321SOL     OW25460   8.968   7.826   1.707 -0.2659  0.0185  0.4595
 7321SOL    HW125461   8.904   7.892   1.681 -0.2929 -0.0779  0.2751
 7321SOL    HW225462   9.028   7.821   1.632  0.5087  0.7826  1.0068
 7322SOL     OW25463  10.734   2.411   1.395  0.7740 -0.0698  0.3961
 7322SOL    HW125464  10.702   2.332   1.350 -0.5628  1.6304 -1.8657
 7322SOL    HW225465  10.803   2.445   1.338  0.1578  1.2758  0.4110
 7323SOL     OW25466   1.593   4.509   2.512 -1.3614  0.6454 -0.5691
 7323SOL    HW125467   1.513   4.539   2.554 -0.9965  0.7823  0.0240
 7323SOL    HW225468   1.627   4.442   2.570 -0.5855  1.1931 -0.3823
 7324SOL     OW25469   8.130   8.275   3.627 -0.3099 -0.5403 -0.2079
 7324SOL    HW125470   8.072   8.334   3.676  0.0778 -0.1464 -0.2190
 7324SOL    HW225471   8.169   8.219   3.694  0.2178 -0.0054 -0.0623
 7325SOL     OW25472   7.313   3.411   1.104  1.0057  0.1572  0.0534
 7325SOL    HW125473   7.342   3.333   1.152  1.0887  0.5085  0.5841
 7325SOL    HW225474   7.219   3.396   1.090  1.2049 -0.4514 -0.6504
 7326SOL     OW25475   7.666   4.502   6.850 -0.1785  0.3233  0.2970
 7326SOL    HW125476   7.761   4.502   6.838 -0.2599  1.8910 -0.5487
 7326SOL    HW225477   7.654   4.486   6.944  0.9103  0.3100  0.4466
 7327SOL     OW25478   4.707   6.620   0.135 -0.1220 -0.5489  0.0560
 7327SOL    HW125479   4.751   6.622   0.050 -0.1763 -1.5284 -0.0081
 7327SOL    HW225480   4.778   6.627   0.199 -0.2535  3.6576  0.0156
 7328SOL     OW25481   0.466   0.234   5.243 -0.3992  0.4562  0.1316
 7328SOL    HW125482   0.400   0.277   5.298 -0.1951  1.3124 -0.2764
 7328SOL    HW225483   0.463   0.282   5.161 -0.9588 -1.0345 -0.7674
 7329SOL     OW25484   1.643   6.370   4.653  0.0543 -0.3431  0.0120
 7329SOL    HW125485   1.572   6.367   4.717 -0.4011 -0.3496 -0.4810
 7329SOL    HW225486   1.627   6.451   4.604  0.0863 -0.6066 -0.4395
 7330SOL     OW25487   3.782   6.079   8.409  0.2527 -0.0206 -0.3199
 7330SOL    HW125488   3.711   6.142   8.394 -0.7653 -0.7762  1.0553
 7330SOL    HW225489   3.825   6.110   8.489 -0.8912 -1.5286  0.9608
 7331SOL     OW25490   4.086   2.543   1.721 -0.3129 -0.1797  0.2574
 7331SOL    HW125491   4.004   2.494   1.714  0.0361 -0.6110 -1.1944
 7331SOL    HW225492   4.065   2.618   1.776 -1.5798 -0.4945  0.2259
 7332SOL     OW25493   3.855  10.845   9.188 -0.0240 -0.0626  0.5450
 7332SOL    HW125494   3.950  10.854   9.175  0.0940 -1.1441  0.5679
 7332SOL    HW225495   3.836  10.755   9.163 -1.2750  0.5124 -0.6902
 7333SOL     OW25496   5.580  10.044  10.604 -0.1206  0.2165 -0.0741
 7333SOL    HW125497   5.659   9.993  10.623  0.0437  0.9248  1.3482
 7333SOL    HW225498   5.519  10.020  10.674 -0.9431  0.1302 -0.8148
 7334SOL     OW25499   3.098   2.403   0.295  0.1479 -0.6303 -0.2956
 7334SOL    HW125500   3.028   2.376   0.354 -0.0251  0.2842 -0.0825
 7334SOL    HW225501   3.053   2.441   0.220  0.3988 -0.9064 -0.5910
 7335SOL     OW25502  10.505   5.778   2.807 -0.4857 -0.1686 -0.2199
 7335SOL    HW125503  10.410   5.781   2.811 -0.4474 -0.1908  1.0555
 7335SOL    HW225504  10.529   5.853   2.752 -1.1967  0.4291  0.2719
 7336SOL     OW25505   4.334   2.329   8.645 -0.0173 -0.2391  0.0878
 7336SOL    HW125506   4.274   2.380   8.701 -0.3334  1.4164 -1.6336
 7336SOL    HW225507   4.406   2.305   8.703 -0.6523  0.7967  1.3725
 7337SOL     OW25508  10.934   9.190   2.282  0.5765 -0.1356 -0.2901
 7337SOL    HW125509  10.870   9.167   2.349  2.5536  1.7113  2.4501
 7337SOL    HW225510  10.965   9.278   2.306  2.6782 -0.0900 -2.6421
 7338SOL     OW25511   0.462   3.261   7.801  0.0388 -0.2070 -0.7473
 7338SOL    HW125512   0.371   3.274   7.775 -0.1682 -1.0066 -0.4396
 7338SOL    HW225513   0.490   3.184   7.752  0.5734  0.0743 -0.8874
 7339SOL     OW25514   9.117   6.269   2.015  0.1107 -0.2152  0.4764
 7339SOL    HW125515   9.173   6.311   1.951  0.4222 -1.4417 -0.0899
 7339SOL    HW225516   9.030   6.308   2.001  0.3306  0.0507 -0.1893
 7340SOL     OW25517   0.137   0.073   3.818 -0.1059 -0.0986  0.7601
 7340SOL    HW125518   0.147   0.124   3.738 -0.4685 -0.0248  0.7579
 7340SOL    HW225519   0.208   0.009   3.815 -1.4633 -1.6452 -0.7967
 7341SOL     OW25520  10.484   4.040   2.055 -0.4441  0.1241 -0.4283
 7341SOL    HW125521  10.503   4.091   2.134 -0.6302 -0.1415 -0.2112
 7341SOL    HW225522  10.389   4.026   2.058 -0.2825 -0.9628 -0.0380
 7342SOL     OW25523   4.396   8.157   1.205  0.4463 -0.0146 -0.4235
 7342SOL    HW125524   4.346   8.224   1.252  0.4900  0.4343 -0.9931
 7342SOL    HW225525   4.487   8.188   1.210  0.7719 -1.1153  1.0959
 7343SOL     OW25526   9.574   9.204   0.123  0.3685  0.3952  0.1079
 7343SOL    HW125527   9.624   9.187   0.203 -0.2359  1.3956  0.7267
 7343SOL    HW225528   9.499   9.257   0.153 -1.0465 -1.0197 -0.7790
 7344SOL     OW25529   4.281   5.132   3.966  0.0052  0.0044 -0.5636
 7344SOL    HW125530   4.308   5.046   3.999  2.3263  1.6266  2.1513
 7344SOL    HW225531   4.204   5.155   4.018 -0.5962 -0.3746 -1.2675
 7345SOL     OW25532   3.114   5.065   3.407 -0.2272 -0.1883  0.0261
 7345SOL    HW125533   3.041   5.074   3.467 -0.9702 -0.8504 -0.7564
 7345SOL    HW225534   3.126   4.971   3.398  1.0189 -0.0932  0.4848
 7346SOL     OW25535   4.350   1.957   2.061 -0.2686 -0.1075  0.2364
 7346SOL    HW125536   4.307   1.873   2.045 -0.3007  0.1519 -1.1475
 7346SOL    HW225537   4.405   1.970   1.984  1.4746  0.0838  1.4668
 7347SOL     OW25538   0.812   2.854   9.132 -0.2049  0.1361 -0.3980
 7347SOL    HW125539   0.728   2.878   9.170  0.1393 -0.5629  0.8522
 7347SOL    HW225540   0.791   2.820   9.046 -1.0262  1.6254 -0.8229
 7348SOL     OW25541   8.585   6.265   1.990  0.0705 -0.2574  0.1379
 7348SOL    HW125542   8.568   6.233   1.901 -0.3604 -0.6515  0.3574
 7348SOL    HW225543   8.503   6.308   2.016 -0.2005 -1.1146  0.7520
 7349SOL     OW25544   7.164   3.534   9.069  0.4750  0.0795 -0.4168
 7349SOL    HW125545   7.095   3.560   9.130 -1.3160  0.0205 -2.2776
 7349SOL    HW225546   7.216   3.613   9.056  0.9073  0.0818  1.1590
 7350SOL     OW25547   5.455   6.100  10.104 -0.1349  0.2713  0.4132
 7350SOL    HW125548   5.450   6.190  10.138  2.6604  0.2737  1.0740
 7350SOL    HW225549   5.405   6.048  10.167 -0.8273  1.1887  0.6483
 7351SOL     OW25550   5.341   5.396   7.989 -0.1911  0.0742 -0.3070
 7351SOL    HW125551   5.316   5.486   7.967  1.2914  0.6973  0.4050
 7351SOL    HW225552   5.292   5.375   8.068 -2.5442 -0.7461 -1.8810
 7352SOL     OW25553   2.468   5.130   9.463 -0.3985 -0.1026 -0.1094
 7352SOL    HW125554   2.400   5.156   9.400  0.1397  0.1938 -0.5741
 7352SOL    HW225555   2.528   5.076   9.413  0.9222  1.4701 -0.3002
 7353SOL     OW25556   6.228   1.604   6.435 -0.3980  0.1022 -0.1690
 7353SOL    HW125557   6.291   1.534   6.416  0.4211  0.4889  1.0193
 7353SOL    HW225558   6.191   1.580   6.520 -2.7468 -0.7194 -1.3429
 7354SOL     OW25559   2.690   6.011   5.194 -0.2094 -0.4189  0.2400
 7354SOL    HW125560   2.766   6.062   5.166 -1.5709  1.5668 -0.0268
 7354SOL    HW225561   2.651   6.063   5.265 -0.8062 -1.8767  1.0338
 7355SOL     OW25562   5.291   7.974   3.580 -0.2252 -0.2776 -0.2719
 7355SOL    HW125563   5.326   7.894   3.620 -0.1202 -0.3749 -0.5552
 7355SOL    HW225564   5.210   7.991   3.627  1.0932  0.9809  1.6756
 7356SOL     OW25565   0.497   4.217   5.003 -0.2126 -0.2393 -0.0158
 7356SOL    HW125566   0.457   4.145   5.051 -0.0783 -0.9142 -0.8833
 7356SOL    HW225567   0.512   4.285   5.069  1.0238 -1.5546  1.1225
 7357SOL     OW25568   7.408   0.130   9.057  0.2842  0.4472 -0.3422
 7357SOL    HW125569   7.454   0.189   8.997  0.2343  0.0353 -0.7960
 7357SOL    HW225570   7.351   0.187   9.108 -0.6189  0.6838 -1.5693
 7358SOL     OW25571  10.140   3.070   3.657 -0.0056 -0.8166  0.3486
 7358SOL    HW125572  10.192   3.075   3.736  0.9978  2.0961 -0.3496
 7358SOL    HW225573  10.204   3.070   3.586 -0.9068 -1.5965 -0.4835
 7359SOL     OW25574   3.786   4.728   8.573 -0.5111  0.7333  0.3022
 7359SOL    HW125575   3.875   4.708   8.605 -1.2890 -0.7257  1.7159
 7359SOL    HW225576   3.792   4.717   8.478  0.5543 -0.5627  0.4814
 7360SOL     OW25577   8.867   6.929   7.521  0.3055  0.7211 -0.7255
 7360SOL    HW125578   8.880   7.023   7.507  2.3827  0.7143  0.6205
 7360SOL    HW225579   8.829   6.924   7.609 -1.1718  0.3270 -1.3621
 7361SOL     OW25580   1.663   3.389   3.818 -0.1675 -0.4809  0.2439
 7361SOL    HW125581   1.598   3.327   3.786  1.0050 -2.2890  1.2374
 7361SOL    HW225582   1.688   3.357   3.904  0.3842  1.4691  0.8704
 7362SOL     OW25583   4.533   7.820   1.134  0.3916  0.3442  0.2948
 7362SOL    HW125584   4.600   7.882   1.107 -0.2334  0.8403 -0.1357
 7362SOL    HW225585   4.507   7.849   1.222  0.4104  0.4330  0.2711
 7363SOL     OW25586   3.924   3.467   8.857  0.1118  0.4792  0.3037
 7363SOL    HW125587   3.893   3.539   8.802  0.8881  0.2111 -0.4977
 7363SOL    HW225588   4.018   3.482   8.865  0.5288 -1.2165 -1.0337
 7364SOL     OW25589   2.283   8.095  10.278  0.0952 -0.2331  0.2013
 7364SOL    HW125590   2.239   8.180  10.269  0.4240 -0.1144 -0.3336
 7364SOL    HW225591   2.330   8.101  10.361  0.1808  0.1415  0.1300
 7365SOL     OW25592   7.491   9.027   0.900 -0.2071  0.3599  0.6145
 7365SOL    HW125593   7.417   9.087   0.908 -2.9717 -2.7780  0.7690
 7365SOL    HW225594   7.499   8.986   0.986  1.2009  0.0301  0.3570
 7366SOL     OW25595   4.668   4.419   9.590  0.4239  0.3973 -0.1689
 7366SOL    HW125596   4.606   4.349   9.613  0.6453  0.2201 -0.1082
 7366SOL    HW225597   4.749   4.373   9.569  0.4564  0.6093 -0.5214
 7367SOL     OW25598   9.506   4.794   8.066 -0.1184 -0.4210  0.6075
 7367SOL    HW125599   9.448   4.863   8.034 -1.2123 -1.8496 -0.6471
 7367SOL    HW225600   9.578   4.793   8.004 -0.5926 -1.0176  0.0486
 7368SOL     OW25601   0.463   6.578   3.499 -0.5686  0.1039 -0.2548
 7368SOL    HW125602   0.520   6.655   3.500 -1.0698  0.5004 -1.3978
 7368SOL    HW225603   0.485   6.533   3.418 -0.3725 -0.9142  0.3424
 7369SOL     OW25604   0.602   3.544   7.368  0.5458 -0.2546 -0.0874
 7369SOL    HW125605   0.521   3.508   7.405  1.2902 -0.9416  0.8876
 7369SOL    HW225606   0.573   3.623   7.322 -0.9158 -1.3098 -1.1112
 7370SOL     OW25607   2.895   8.460   0.752 -0.1938  0.6297 -0.3775
 7370SOL    HW125608   2.802   8.468   0.728 -0.4043 -0.4055  0.0400
 7370SOL    HW225609   2.928   8.550   0.750 -1.1134  0.9702 -0.8996
 7371SOL     OW25610   2.800   4.877   2.647  0.1826  0.1561  0.0942
 7371SOL    HW125611   2.751   4.815   2.593 -0.7407  0.2479  0.7916
 7371SOL    HW225612   2.841   4.937   2.584 -1.9606  1.0900 -0.5204
 7372SOL     OW25613  10.449   7.858   4.551 -0.4060  0.0730  0.4703
 7372SOL    HW125614  10.451   7.932   4.611 -1.0135 -1.3319  2.3097
 7372SOL    HW225615  10.360   7.824   4.557  0.0419 -1.2145  0.1969
 7373SOL     OW25616   7.949   0.268   1.115  0.2309  0.3152 -0.2528
 7373SOL    HW125617   7.982   0.338   1.170  0.4894 -0.0442  0.0535
 7373SOL    HW225618   7.875   0.231   1.164 -1.1701  1.6117 -1.2686
 7374SOL     OW25619  10.363   5.983   9.896 -0.1265 -0.5644 -0.0342
 7374SOL    HW125620  10.326   5.922   9.960 -1.4623 -1.1039 -1.2784
 7374SOL    HW225621  10.319   6.066   9.913 -0.8854 -0.8464 -0.5944
 7375SOL     OW25622   1.073   6.117   2.867 -0.6048  0.4067  0.4154
 7375SOL    HW125623   1.110   6.029   2.867 -1.8145 -0.1522  1.9207
 7375SOL    HW225624   0.979   6.103   2.853 -0.4525  1.7296 -2.8562
 7376SOL     OW25625   0.440   3.036   2.093 -0.4548 -0.6644 -0.1534
 7376SOL    HW125626   0.373   3.014   2.028 -0.5370 -0.5507 -0.1087
 7376SOL    HW225627   0.423   2.978   2.167 -1.3156  0.2344  0.3833
 7377SOL     OW25628   9.274   6.578   0.620 -0.0929  0.6223  0.2182
 7377SOL    HW125629   9.336   6.610   0.686  1.0537 -0.6553 -0.1961
 7377SOL    HW225630   9.202   6.541   0.670  0.1744  0.7774  0.7278
 7378SOL     OW25631   1.984   2.407   2.857  0.1095  0.0352 -0.4710
 7378SOL    HW125632   1.900   2.369   2.882  0.9318 -1.4835  0.1360
 7378SOL    HW225633   1.969   2.445   2.771 -1.3350  0.3119 -0.1219
 7379SOL     OW25634  10.376   1.932   1.678 -0.6361 -0.0218  0.2108
 7379SOL    HW125635  10.419   1.861   1.726 -0.1294  0.0698 -0.1032
 7379SOL    HW225636  10.377   1.904   1.587  1.0658  1.1111 -0.1570
 7380SOL     OW25637   0.114   4.927   5.930  0.1578 -0.1530  0.5366
 7380SOL    HW125638   0.071   4.908   5.846 -0.1052 -1.4642  0.9486
 7380SOL    HW225639   0.208   4.922   5.910  0.1294  1.1217 -0.0102
 7381SOL     OW25640   9.208   8.175   2.204 -0.2375 -0.6471 -0.5358
 7381SOL    HW125641   9.182   8.144   2.117 -1.1411 -0.5095 -0.3274
 7381SOL    HW225642   9.179   8.106   2.264  0.5537 -0.8316 -0.3512
 7382SOL     OW25643   4.907   7.832   2.185  0.1805 -0.3174  0.4793
 7382SOL    HW125644   4.858   7.903   2.144  2.0345  0.3722 -0.7108
 7382SOL    HW225645   4.929   7.865   2.272  0.1117  0.1272  0.3328
 7383SOL     OW25646   8.152  10.728   8.745  0.3118 -0.7585 -0.2255
 7383SOL    HW125647   8.103  10.655   8.707 -1.2427 -0.1989  0.6270
 7383SOL    HW225648   8.237  10.691   8.766 -0.4984 -2.3855  0.3412
 7384SOL     OW25649   6.622   9.145   4.461  0.5162 -0.3220 -0.1076
 7384SOL    HW125650   6.604   9.096   4.541 -1.0445 -0.8425 -0.7335
 7384SOL    HW225651   6.617   9.079   4.392  1.0689  0.2521 -0.7012
 7385SOL     OW25652   3.046   4.053   9.437 -0.9728  0.2264  0.8143
 7385SOL    HW125653   3.036   3.958   9.443  2.7103 -0.4112 -0.3546
 7385SOL    HW225654   3.086   4.068   9.351 -1.4917  2.8778  0.9270
 7386SOL     OW25655   5.220   7.875   4.861 -0.0153 -0.4556 -0.2286
 7386SOL    HW125656   5.213   7.883   4.956  1.4841 -1.1677 -0.0110
 7386SOL    HW225657   5.161   7.803   4.838 -2.1331  1.1922 -0.1870
 7387SOL     OW25658   5.555   7.125   7.668  0.0270 -0.5368  0.8809
 7387SOL    HW125659   5.465   7.143   7.640  0.6741 -0.6919 -1.5070
 7387SOL    HW225660   5.546   7.058   7.735 -1.5432 -3.9989 -2.4221
 7388SOL     OW25661   2.000  10.471   5.867  0.5249 -0.1080  0.1232
 7388SOL    HW125662   2.059  10.442   5.797  1.0073  1.1040  0.0027
 7388SOL    HW225663   2.013  10.565   5.871  1.2605 -0.2567  2.5642
 7389SOL     OW25664   8.294   5.291   5.377  0.0227 -0.7660  0.7593
 7389SOL    HW125665   8.247   5.313   5.296 -0.4641 -2.5542  0.5176
 7389SOL    HW225666   8.226   5.253   5.433  0.7894 -1.5927  1.1430
 7390SOL     OW25667   1.005   2.945   0.115 -0.3024 -0.0904 -0.1016
 7390SOL    HW125668   1.098   2.924   0.108 -0.2869 -0.2497  0.5876
 7390SOL    HW225669   0.990   3.008   0.044  0.2559 -0.3115 -0.4215
 7391SOL     OW25670   2.172   0.204   6.303 -0.3777 -0.1637 -0.1855
 7391SOL    HW125671   2.159   0.128   6.247 -0.9751  0.4534 -0.9165
 7391SOL    HW225672   2.259   0.237   6.279 -1.0162  0.6633 -1.4960
 7392SOL     OW25673   3.737   8.877   5.804 -0.7923 -0.5301  0.6013
 7392SOL    HW125674   3.789   8.807   5.844 -1.4616 -2.2237 -1.2959
 7392SOL    HW225675   3.783   8.957   5.827 -0.1091 -1.5250  3.0729
 7393SOL     OW25676   7.998   2.861  10.793  0.3663  0.8729  0.4382
 7393SOL    HW125677   7.920   2.896  10.835  0.6971 -0.4236  2.2977
 7393SOL    HW225678   8.069   2.920  10.819  0.3206  0.9153  0.4655
 7394SOL     OW25679   1.756   9.037   3.024 -0.2793  0.5451  0.2554
 7394SOL    HW125680   1.751   8.993   2.940  0.9086  0.5251  0.1854
 7394SOL    HW225681   1.711   8.978   3.085 -1.8021  0.9007 -0.4674
 7395SOL     OW25682   0.007  10.617   1.947 -0.1294 -0.1445  0.5390
 7395SOL    HW125683  -0.005  10.587   2.037 -0.4369 -1.8159 -0.0105
 7395SOL    HW225684  -0.081  10.614   1.909  0.0475  0.2342  0.0879
 7396SOL     OW25685   9.976   0.570   3.897  0.0942 -0.0811 -0.3348
 7396SOL    HW125686   9.987   0.566   3.992  2.0059  1.6847 -0.3973
 7396SOL    HW225687   9.887   0.602   3.884 -0.6057 -1.4569  0.7858
 7397SOL     OW25688   2.047   5.010   0.476  0.0773  0.0303  0.0034
 7397SOL    HW125689   2.007   4.930   0.443  1.0733 -1.0733  1.3487
 7397SOL    HW225690   2.022   5.013   0.568  1.1202  0.5773  0.2844
 7398SOL     OW25691   5.072   7.511   6.214 -0.4329  0.5859 -0.0872
 7398SOL    HW125692   5.129   7.471   6.150  1.6010  0.8468  1.4574
 7398SOL    HW225693   4.989   7.464   6.206  1.3988 -3.0725  0.7155
 7399SOL     OW25694   0.050   1.354   0.857  0.2954 -0.1520  0.0502
 7399SOL    HW125695  -0.043   1.358   0.878  0.4789  1.6933  0.7035
 7399SOL    HW225696   0.085   1.284   0.912 -0.7457 -1.1197 -0.4800
 7400SOL     OW25697   4.264  10.880   1.557  0.0229  0.0553  0.2066
 7400SOL    HW125698   4.327  10.815   1.589  0.7716  1.5468  1.9601
 7400SOL    HW225699   4.209  10.832   1.495  2.8896 -1.3145 -1.4816
 7401SOL     OW25700   2.196   4.143  10.234  0.4865  0.1244  0.2472
 7401SOL    HW125701   2.282   4.109  10.259  0.7728 -0.0548 -0.9074
 7401SOL    HW225702   2.147   4.065  10.207  0.4780  0.3778 -0.5133
 7402SOL     OW25703   8.419   4.323   2.512 -0.3923 -0.6677  0.3721
 7402SOL    HW125704   8.429   4.274   2.594  0.0791 -0.1999  0.5984
 7402SOL    HW225705   8.329   4.304   2.484 -1.1673  0.4744  1.8762
 7403SOL     OW25706  10.226   7.953   7.924 -0.7066 -0.6243  0.4567
 7403SOL    HW125707  10.152   7.894   7.910 -0.1535 -1.5178  1.1460
 7403SOL    HW225708  10.286   7.903   7.979  0.6367 -0.1013 -0.4769
 7404SOL     OW25709   5.797   1.288   3.228  0.6362 -0.0737  0.1990
 7404SOL    HW125710   5.882   1.251   3.203  2.2357  3.0508  0.5590
 7404SOL    HW225711   5.776   1.245   3.311  1.5301 -1.3314 -0.1860
 7405SOL     OW25712   7.426  10.310   6.265 -0.3071 -0.1919 -0.1998
 7405SOL    HW125713   7.395  10.229   6.223 -0.7981 -0.9436  1.5220
 7405SOL    HW225714   7.520  10.313   6.244 -0.3838 -0.9652 -0.7033
 7406SOL     OW25715   5.602   3.064   1.413 -0.0345  0.1354  0.1932
 7406SOL    HW125716   5.559   3.108   1.486 -2.5401 -1.0101 -0.4803
 7406SOL    HW225717   5.692   3.095   1.416 -0.4994  1.5047  2.6498
 7407SOL     OW25718   2.397   7.563   0.399 -0.0093  0.1149  0.3233
 7407SOL    HW125719   2.436   7.616   0.330  0.7858 -0.3774  0.3875
 7407SOL    HW225720   2.455   7.574   0.474 -0.7851  0.5299  0.8800
 7408SOL     OW25721   1.196   2.072   8.485  0.6749  0.0892  0.4434
 7408SOL    HW125722   1.111   2.112   8.467  1.4683  1.6180 -0.1818
 7408SOL    HW225723   1.188   2.035   8.572 -0.7998 -0.2835  0.1660
 7409SOL     OW25724   6.703   5.850   9.648 -0.2702  0.1889  0.2377
 7409SOL    HW125725   6.747   5.766   9.632 -0.1065  0.3160  0.0160
 7409SOL    HW225726   6.769   5.903   9.693 -0.8628 -0.3112  1.7526
 7410SOL     OW25727   0.937   7.999   8.589  0.2249  0.5793  0.0463
 7410SOL    HW125728   0.945   8.088   8.555  0.2812  0.6925  0.3541
 7410SOL    HW225729   0.888   7.952   8.521 -0.5574  1.0582  0.2759
 7411SOL     OW25730   1.885   7.372   3.574  0.6498  0.1755  0.1098
 7411SOL    HW125731   1.852   7.375   3.485  0.0471  0.8656  0.3477
 7411SOL    HW225732   1.978   7.392   3.566  1.0550 -1.7803 -0.5673
 7412SOL     OW25733  10.192   3.149  10.480 -0.3560 -0.7043  0.1711
 7412SOL    HW125734  10.242   3.110  10.551  1.6439 -0.2441 -0.8993
 7412SOL    HW225735  10.253   3.151  10.406 -1.3770  1.5268 -0.7075
 7413SOL     OW25736   5.132   5.807   3.237  0.1699  0.9955  0.5089
 7413SOL    HW125737   5.039   5.786   3.238  0.2892  0.3538 -0.6979
 7413SOL    HW225738   5.174   5.727   3.268  0.3608  1.0939  0.5052
 7414SOL     OW25739   9.048   8.840   0.800  0.8172  0.0155 -0.6165
 7414SOL    HW125740   9.113   8.796   0.745 -0.2744 -1.1086 -1.0416
 7414SOL    HW225741   8.971   8.783   0.798  0.2375  0.6778  0.9073
 7415SOL     OW25742   8.746   3.419   5.673 -0.0343  0.3567  0.2483
 7415SOL    HW125743   8.693   3.480   5.622  1.2730  1.8671  0.6046
 7415SOL    HW225744   8.827   3.410   5.624 -0.3250 -1.4191  0.0343
 7416SOL     OW25745   1.432   8.512  10.192  0.2616  0.3802  0.7976
 7416SOL    HW125746   1.402   8.504  10.283 -1.5750 -0.9922  0.1337
 7416SOL    HW225747   1.437   8.421  10.161 -2.1216  0.8529 -1.3318
 7417SOL     OW25748   1.768   6.798   4.165 -0.0853 -0.2930 -0.0299
 7417SOL    HW125749   1.700   6.851   4.208  0.0229  0.0554 -0.2857
 7417SOL    HW225750   1.823   6.862   4.119  0.3288 -0.5874  0.0517
 7418SOL     OW25751   8.535   9.055   0.075  0.2513 -0.3500 -0.0230
 7418SOL    HW125752   8.526   8.963   0.099  0.7107  0.0398  1.7595
 7418SOL    HW225753   8.467   9.100   0.124  1.1292  0.4702  0.4865
 7419SOL     OW25754   9.719   3.104   3.593 -0.0660 -0.0456 -0.3895
 7419SOL    HW125755   9.671   3.029   3.558 -2.0850  1.0023 -0.0394
 7419SOL    HW225756   9.722   3.090   3.687 -0.0470  0.0879 -0.3695
 7420SOL     OW25757   7.571   3.577   2.735  0.0271 -0.5726 -0.3710
 7420SOL    HW125758   7.491   3.552   2.782 -0.8522  0.6720 -1.1555
 7420SOL    HW225759   7.603   3.654   2.782 -1.2758  1.1558 -2.1452
 7421SOL     OW25760   1.747   8.936   8.632  0.4507  0.1433  0.3009
 7421SOL    HW125761   1.828   8.885   8.629 -0.5935 -1.7418  1.6829
 7421SOL    HW225762   1.709   8.926   8.544  1.0528 -0.1102  0.0653
 7422SOL     OW25763   3.217   1.762   8.230  0.2855 -0.6416 -0.0173
 7422SOL    HW125764   3.256   1.734   8.312 -0.6984 -1.0235  0.3292
 7422SOL    HW225765   3.221   1.858   8.233  1.0599 -0.6696  0.0671
 7423SOL     OW25766   7.111   1.138  10.556 -0.5535 -0.5503  0.6635
 7423SOL    HW125767   7.180   1.137  10.623 -0.9657 -0.5773  1.0973
 7423SOL    HW225768   7.030   1.137  10.607 -0.8704 -0.5074  0.1569
 7424SOL     OW25769   9.094   6.800  10.251 -0.9900  0.2379  0.1201
 7424SOL    HW125770   9.055   6.874  10.298 -0.7390 -0.9151  2.2721
 7424SOL    HW225771   9.171   6.838  10.208 -0.8429  1.2485  1.2136
 7425SOL     OW25772   8.617   1.201   6.351  0.2027 -0.0186 -0.5598
 7425SOL    HW125773   8.572   1.195   6.267 -0.9462 -1.6212  0.1191
 7425SOL    HW225774   8.667   1.119   6.358  0.2392  0.0611  0.3385
 7426SOL     OW25775   5.970   2.061   5.697  0.8566  0.2628 -0.4205
 7426SOL    HW125776   6.033   1.994   5.668 -0.5970 -0.6818 -1.5264
 7426SOL    HW225777   5.974   2.128   5.628 -0.3455 -0.4871 -1.2491
 7427SOL     OW25778   8.851   8.932   1.004 -0.5647 -0.0728  0.7250
 7427SOL    HW125779   8.883   8.931   0.914 -0.8349 -1.3516  0.6204
 7427SOL    HW225780   8.929   8.940   1.058 -0.4962  2.2587  0.3786
 7428SOL     OW25781   7.975   1.758   4.292 -0.1139  0.3749 -0.4808
 7428SOL    HW125782   7.927   1.678   4.311 -2.5784  1.4989 -1.5942
 7428SOL    HW225783   7.932   1.826   4.343  0.8973  1.2896 -0.7891
 7429SOL     OW25784  10.749  10.099   6.333  0.4109 -0.7637  0.5742
 7429SOL    HW125785  10.743  10.015   6.287  1.0346 -0.9826  0.8872
 7429SOL    HW225786  10.769  10.162   6.264 -3.0229 -0.3264 -0.1886
 7430SOL     OW25787   3.263   5.648   4.147  0.0057  0.2854 -0.4477
 7430SOL    HW125788   3.245   5.572   4.204 -0.4368  0.2098 -0.6803
 7430SOL    HW225789   3.218   5.627   4.065  1.6719 -0.1816 -1.2970
 7431SOL     OW25790   6.620   8.917   2.813  0.4873 -0.1555  0.4360
 7431SOL    HW125791   6.575   8.990   2.855 -2.4652 -1.2710 -0.5301
 7431SOL    HW225792   6.554   8.847   2.810  2.2834 -1.9023 -1.2028
 7432SOL     OW25793   9.878   7.967   2.575 -0.5241 -0.1147 -0.1589
 7432SOL    HW125794   9.946   7.903   2.553 -0.3759 -0.0410  0.0782
 7432SOL    HW225795   9.827   7.977   2.495 -1.0146 -1.0982  0.0149
 7433SOL     OW25796   3.731   1.614   4.380 -0.0581  0.1022 -0.3766
 7433SOL    HW125797   3.791   1.661   4.438 -2.0495  1.0665  1.0278
 7433SOL    HW225798   3.723   1.527   4.419  1.4465 -0.5158 -1.3684
 7434SOL     OW25799  10.705   1.874   4.590  0.0945  0.3056 -0.0313
 7434SOL    HW125800  10.679   1.911   4.505  0.6012  2.1599  0.5840
 7434SOL    HW225801  10.794   1.842   4.576 -1.0630 -2.8714 -1.1681
 7435SOL     OW25802   5.761   2.418   6.762 -0.0641 -0.3818 -0.0644
 7435SOL    HW125803   5.762   2.470   6.843  0.4652  1.6668 -1.3106
 7435SOL    HW225804   5.854   2.408   6.739 -0.1967 -1.2353 -0.2687
 7436SOL     OW25805   3.857   1.297   9.405 -0.4594 -0.0062  0.2939
 7436SOL    HW125806   3.869   1.359   9.332 -1.0063  0.0353  0.2380
 7436SOL    HW225807   3.899   1.340   9.479 -0.2771  0.1479  0.1034
 7437SOL     OW25808   7.286   7.198   0.568 -0.8091 -0.3299  0.0195
 7437SOL    HW125809   7.261   7.208   0.476 -2.4797  0.5929  0.5455
 7437SOL    HW225810   7.328   7.281   0.591  0.4196 -0.8830 -0.1128
 7438SOL     OW25811   6.229   4.977   9.109 -0.4100  0.2445 -0.0494
 7438SOL    HW125812   6.321   4.950   9.102 -0.9018 -1.2480 -1.1060
 7438SOL    HW225813   6.205   5.004   9.021 -1.5139 -1.2333 -0.2389
 7439SOL     OW25814   9.959   7.519   5.154  0.6375  0.4424  0.6625
 7439SOL    HW125815   9.932   7.469   5.231 -0.4382  1.8540  1.2292
 7439SOL    HW225816   9.880   7.564   5.126  1.8020  2.6890  0.8156
 7440SOL     OW25817   1.746   2.450   3.853  0.7638  0.3576  0.0887
 7440SOL    HW125818   1.701   2.486   3.777 -0.8729 -0.3949  0.6640
 7440SOL    HW225819   1.831   2.494   3.854  0.1304  1.6734 -1.1502
 7441SOL     OW25820   3.226   7.642   2.896  0.0786 -0.3196  0.5665
 7441SOL    HW125821   3.261   7.673   2.980 -0.5490  2.3430 -0.0743
 7441SOL    HW225822   3.131   7.644   2.906 -0.0272 -2.4850  0.5699
 7442SOL     OW25823   5.080   9.978   1.325 -0.2205  0.4783  0.2793
 7442SOL    HW125824   5.163  10.002   1.366 -0.3503  1.5046 -0.0263
 7442SOL    HW225825   5.076   9.883   1.332  0.8308  0.4467  0.5809
 7443SOL     OW25826  10.996  10.347   3.920 -0.1745  0.3599  0.2030
 7443SOL    HW125827  11.047  10.425   3.898  0.3319  0.0396  0.2172
 7443SOL    HW225828  11.061  10.282   3.945 -0.7112  0.9077  3.4533
 7444SOL     OW25829   8.851   3.953  10.259 -0.3627  0.3077  0.4096
 7444SOL    HW125830   8.838   4.046  10.275 -0.4389  0.5857 -1.1342
 7444SOL    HW225831   8.800   3.934  10.181  2.1333 -0.3116 -1.1996
 7445SOL     OW25832   7.024   5.219   5.090  0.1226 -0.3833  0.3623
 7445SOL    HW125833   7.078   5.251   5.018 -1.6486  0.3837 -0.7045
 7445SOL    HW225834   7.077   5.233   5.168  0.4666  2.8915 -0.3083
 7446SOL     OW25835   6.215   7.813   2.961 -0.0134 -0.5020 -0.1474
 7446SOL    HW125836   6.217   7.880   2.892 -0.0751  1.7471  1.8941
 7446SOL    HW225837   6.139   7.760   2.939 -1.0193  1.1663 -0.9709
 7447SOL     OW25838   5.022   3.146   3.238  0.3309  0.2827  0.0345
 7447SOL    HW125839   5.016   3.069   3.183  0.1803  0.0424  0.3834
 7447SOL    HW225840   4.986   3.119   3.322  0.3256  0.7167  0.1777
 7448SOL     OW25841   9.723   9.116   2.772 -0.1682  0.4210 -0.0382
 7448SOL    HW125842   9.630   9.092   2.778  0.1046 -0.4433  1.6492
 7448SOL    HW225843   9.763   9.044   2.723 -0.2096  0.1106  0.3677
 7449SOL     OW25844   7.431   7.983   4.125  0.1070 -0.4359 -0.0036
 7449SOL    HW125845   7.372   8.008   4.054  0.0373  0.0247  0.2091
 7449SOL    HW225846   7.493   7.923   4.085 -1.2945 -1.9955  0.0601
 7450SOL     OW25847   7.171   9.789   4.875 -0.6071 -0.4214 -0.5084
 7450SOL    HW125848   7.104   9.770   4.809 -1.8539  0.4356  0.4594
 7450SOL    HW225849   7.160   9.883   4.894  0.7422 -0.3112 -0.1743
 7451SOL     OW25850   9.687   7.831   9.859  0.3938  0.2111 -0.1063
 7451SOL    HW125851   9.764   7.776   9.849 -1.1781 -2.0266 -0.7176
 7451SOL    HW225852   9.673   7.870   9.772 -0.8330 -1.8086 -0.8681
 7452SOL     OW25853   4.446  10.062   2.911  0.1251 -0.3786  0.0905
 7452SOL    HW125854   4.452  10.058   2.816 -0.1031  0.8450  0.0024
 7452SOL    HW225855   4.394  10.141   2.928  0.7254 -0.2153  1.2480
 7453SOL     OW25856   8.879   9.610   4.213  0.2891  0.2789  0.2146
 7453SOL    HW125857   8.945   9.649   4.270 -1.5915  0.6228  2.2866
 7453SOL    HW225858   8.806   9.672   4.213 -1.1116 -1.2729  0.1798
 7454SOL     OW25859   0.009   3.977   0.873  0.8395 -0.0604 -0.9980
 7454SOL    HW125860  -0.001   3.884   0.892 -0.8173  0.1246 -0.8387
 7454SOL    HW225861   0.047   4.014   0.953 -1.6096 -0.0822  0.2401
 7455SOL     OW25862   3.668   0.551   0.568 -0.0510  0.2439  0.0466
 7455SOL    HW125863   3.616   0.471   0.577  0.4499 -0.0925 -0.0045
 7455SOL    HW225864   3.645   0.585   0.481 -0.0434 -0.0033 -0.0531
 7456SOL     OW25865   7.757   5.390   2.574 -0.0976  0.0086  0.5071
 7456SOL    HW125866   7.749   5.327   2.503  0.8820 -1.5753  1.7350
 7456SOL    HW225867   7.676   5.381   2.624 -0.0834 -0.0761  0.5149
 7457SOL     OW25868   1.054   2.288   4.220  0.5051  0.4179 -1.2300
 7457SOL    HW125869   1.076   2.365   4.274  1.9576  0.1065 -1.3183
 7457SOL    HW225870   0.963   2.269   4.241  0.4978  1.4031 -0.2526
 7458SOL     OW25871   2.018   5.819   7.399 -0.1888 -0.1822  0.4957
 7458SOL    HW125872   1.996   5.885   7.334 -1.2350 -0.4529  0.5495
 7458SOL    HW225873   1.951   5.829   7.467  0.6988 -0.1042  1.4026
 7459SOL     OW25874   8.973   0.592   8.330 -0.8531  0.1174  0.1702
 7459SOL    HW125875   8.901   0.594   8.266 -0.9656 -1.9780  0.1462
 7459SOL    HW225876   9.029   0.519   8.300 -0.2137 -0.0590  1.7270
 7460SOL     OW25877   2.074   2.334   4.955 -0.6826  0.1912  0.5507
 7460SOL    HW125878   2.129   2.377   4.889  1.7652  0.4371  2.5762
 7460SOL    HW225879   1.988   2.373   4.944 -0.8723 -0.8930 -3.4483
 7461SOL     OW25880   1.967  10.155   9.538 -0.2206 -0.1312 -0.3029
 7461SOL    HW125881   1.908  10.153   9.463 -1.2991 -0.7306  0.5308
 7461SOL    HW225882   2.027  10.227   9.519 -0.4557 -0.2888 -1.7350
 7462SOL     OW25883   0.351   5.813   8.245  0.3583 -0.8191  0.2653
 7462SOL    HW125884   0.277   5.757   8.220 -0.2893 -0.3912  1.1573
 7462SOL    HW225885   0.317   5.902   8.234  1.0660 -0.6046 -0.2363
 7463SOL     OW25886   8.282   1.751   6.534 -0.3863  0.4867  0.1955
 7463SOL    HW125887   8.352   1.729   6.596  0.6208 -0.2343 -1.1448
 7463SOL    HW225888   8.263   1.843   6.552  1.8330  1.0932 -0.2253
 7464SOL     OW25889   6.283   2.934   6.348 -0.0471  0.0424  0.5869
 7464SOL    HW125890   6.344   2.906   6.415 -0.1742 -0.7041  0.4003
 7464SOL    HW225891   6.214   2.868   6.349  1.0013 -1.2056 -1.7104
 7465SOL     OW25892   5.532   2.545   8.316 -0.1200 -0.0475  0.5547
 7465SOL    HW125893   5.483   2.592   8.383 -1.2670  1.3893 -1.1865
 7465SOL    HW225894   5.466   2.515   8.254  1.0179  0.5164 -1.0268
 7466SOL     OW25895   9.998   7.021   3.528  0.3353  0.0982  0.6889
 7466SOL    HW125896  10.049   6.969   3.589  0.4976  0.5230  0.9230
 7466SOL    HW225897  10.063   7.063   3.472  0.2986  1.0676  1.3285
 7467SOL     OW25898   2.537   7.046   6.264  0.4734 -0.2454 -0.6415
 7467SOL    HW125899   2.524   6.966   6.315  0.3471  0.5982  0.6927
 7467SOL    HW225900   2.470   7.106   6.296  0.9506  0.6075 -1.1979
 7468SOL     OW25901   2.251   1.566   4.703  0.0519  0.3184  0.1975
 7468SOL    HW125902   2.237   1.657   4.675 -0.2325  0.4631  0.7972
 7468SOL    HW225903   2.215   1.562   4.792  0.0242 -0.3917  0.1632
 7469SOL     OW25904  10.071   9.334  10.572 -0.2259 -0.2276  0.6296
 7469SOL    HW125905  10.017   9.397  10.619  0.5098  0.2931  0.7959
 7469SOL    HW225906  10.158   9.374  10.570 -0.2725 -0.1360 -1.3206
 7470SOL     OW25907   7.650   8.549   8.723  0.2257  0.2822  0.1133
 7470SOL    HW125908   7.571   8.598   8.746  0.5952 -0.9588  5.1549
 7470SOL    HW225909   7.618   8.461   8.703  0.2219  0.1052  0.8823
 7471SOL     OW25910  10.970   2.863   4.144  0.5922 -0.4541 -0.1519
 7471SOL    HW125911  10.921   2.940   4.112  0.1866 -0.7131 -0.1634
 7471SOL    HW225912  10.919   2.832   4.218  0.8519 -0.6134 -0.0399
 7472SOL     OW25913   1.840   8.924   4.807  0.3672  0.1281 -0.1362
 7472SOL    HW125914   1.773   8.897   4.743  0.1872  1.6157 -0.6274
 7472SOL    HW225915   1.824   8.868   4.883 -0.9191 -0.1022 -0.5402
 7473SOL     OW25916   5.782   8.868   3.417 -0.2239  0.1962 -0.2494
 7473SOL    HW125917   5.791   8.774   3.436  3.0575  0.6195  0.9990
 7473SOL    HW225918   5.692   8.889   3.443 -0.6442 -2.3515  0.6746
 7474SOL     OW25919   0.120   6.285   4.646 -0.3671  0.0727  0.2042
 7474SOL    HW125920   0.042   6.281   4.702  0.4776  0.9783  1.5097
 7474SOL    HW225921   0.116   6.372   4.606  0.6733  0.6866  1.3812
 7475SOL     OW25922   5.543   7.772   1.410  0.2577 -0.1224 -0.4715
 7475SOL    HW125923   5.478   7.829   1.370 -0.5983  0.8172  2.0728
 7475SOL    HW225924   5.610   7.831   1.444  1.6296 -0.9789 -1.5799
 7476SOL     OW25925   7.353   6.973   6.830  0.4009 -0.3170 -0.2886
 7476SOL    HW125926   7.341   7.057   6.875 -1.4979 -1.1785  0.9321
 7476SOL    HW225927   7.447   6.956   6.836  0.6307  1.1074  0.6104
 7477SOL     OW25928   0.262   1.826   2.314  0.0632  0.5486  0.3718
 7477SOL    HW125929   0.217   1.848   2.232 -0.8383 -2.5663 -0.0970
 7477SOL    HW225930   0.192   1.816   2.378  0.3611 -0.9019  0.5057
 7478SOL     OW25931   8.172   4.877   0.089  0.1069 -0.2386  0.1271
 7478SOL    HW125932   8.106   4.944   0.070  0.7767 -0.2637 -2.6720
 7478SOL    HW225933   8.203   4.898   0.177 -2.8783  0.3614  1.1443
 7479SOL     OW25934   2.876   5.119   0.219  0.5690  0.5638 -0.2631
 7479SOL    HW125935   2.789   5.140   0.187  0.2751  1.3691  1.0319
 7479SOL    HW225936   2.925   5.201   0.214  0.1087  1.0919  2.5858
 7480SOL     OW25937   6.212   3.003  10.771  0.0045 -0.0224  0.0075
 7480SOL    HW125938   6.272   2.959  10.831  0.9658  2.3864  0.9358
 7480SOL    HW225939   6.130   3.009  10.819 -0.4590 -1.5894 -0.5158
 7481SOL     OW25940   9.851   1.334   0.237  0.4751  0.2726 -0.3289
 7481SOL    HW125941   9.756   1.346   0.243  0.5453  1.2029 -0.8249
 7481SOL    HW225942   9.887   1.409   0.285  0.9557  1.3722 -2.3225
 7482SOL     OW25943   3.984  10.847  10.890 -0.6876 -0.4911  0.1737
 7482SOL    HW125944   3.890  10.832  10.882 -0.7270 -0.2121  0.1139
 7482SOL    HW225945   3.995  10.881  10.979 -0.8297  0.8997 -0.3229
 7483SOL     OW25946   0.479   8.187   5.221 -0.6511  0.3450 -0.1710
 7483SOL    HW125947   0.461   8.259   5.282  3.5730  0.5048  1.1773
 7483SOL    HW225948   0.451   8.108   5.267  0.1103  0.6853  0.9039
 7484SOL     OW25949   2.881  10.168   3.341  0.1213 -0.3886 -0.0973
 7484SOL    HW125950   2.973  10.157   3.367 -0.5266 -1.0123  2.1179
 7484SOL    HW225951   2.853  10.081   3.315  0.1687 -0.1754 -0.8818
 7485SOL     OW25952   3.904   6.068   5.894 -0.1918  0.3425  0.7487
 7485SOL    HW125953   3.940   6.027   5.815 -3.2583 -1.0333 -0.0767
 7485SOL    HW225954   3.974   6.124   5.925  1.2453  0.8347 -2.8518
 7486SOL     OW25955  10.597   3.817   6.724 -0.1991 -0.0578  0.3729
 7486SOL    HW125956  10.625   3.903   6.691  0.8313  0.3442  2.1333
 7486SOL    HW225957  10.573   3.834   6.815 -0.8765 -1.4858  0.4767
 7487SOL     OW25958   5.303   3.420  10.406 -0.1655 -0.1112 -0.2263
 7487SOL    HW125959   5.219   3.461  10.422 -0.7087 -1.1119 -0.4361
 7487SOL    HW225960   5.354   3.486  10.358 -1.8442 -0.5005 -2.7364
 7488SOL     OW25961   1.233   9.090  10.888 -0.2507  0.2646  0.0916
 7488SOL    HW125962   1.327   9.093  10.868  0.1254  0.2760  1.6800
 7488SOL    HW225963   1.192   9.065  10.806  1.0216  1.5206 -0.9800
 7489SOL     OW25964   7.973   1.682   8.448  0.0428  0.0372 -0.3815
 7489SOL    HW125965   7.984   1.590   8.473  1.9741  0.6448  1.3079
 7489SOL    HW225966   7.935   1.723   8.525 -0.7356  0.6882 -1.0951
 7490SOL     OW25967  10.524  10.500   4.600  0.2372  0.4601  0.2980
 7490SOL    HW125968  10.616  10.499   4.573  0.0127  0.4627 -0.4978
 7490SOL    HW225969  10.494  10.410   4.589  0.1263  0.4712  0.4972
 7491SOL     OW25970   0.281   7.530   4.454  0.0245 -0.1597 -0.2053
 7491SOL    HW125971   0.307   7.438   4.463 -0.8999 -0.3984  0.0925
 7491SOL    HW225972   0.331   7.562   4.378 -1.3895 -1.5491 -1.7949
 7492SOL     OW25973   3.952  10.599   1.537  0.5642 -0.4269  0.0031
 7492SOL    HW125974   3.868  10.621   1.498  0.5858 -1.0182 -0.3986
 7492SOL    HW225975   3.931  10.563   1.623  0.3578 -1.1810 -0.3598
 7493SOL     OW25976  10.981   9.436   9.543 -0.5727  0.1074 -0.4192
 7493SOL    HW125977  11.059   9.422   9.489  0.2003  3.2289 -0.2756
 7493SOL    HW225978  10.937   9.350   9.544  1.8676 -1.2773 -2.0031
 7494SOL     OW25979   8.290   3.303   3.918 -0.1470 -0.3221 -0.2032
 7494SOL    HW125980   8.275   3.232   3.857  2.0930 -1.9888  1.0376
 7494SOL    HW225981   8.354   3.359   3.875  0.9632 -1.1609  0.3195
 7495SOL     OW25982   4.132   2.616   8.207 -0.1649  0.0201  0.4727
 7495SOL    HW125983   4.222   2.647   8.220 -0.0522 -0.4341  0.7792
 7495SOL    HW225984   4.112   2.566   8.286 -0.5662 -0.1712  0.2527
 7496SOL     OW25985  10.031   8.650   6.131 -0.0571  0.3415 -0.3330
 7496SOL    HW125986  10.126   8.651   6.120  0.0550  0.4237  0.5374
 7496SOL    HW225987  10.000   8.578   6.076  0.4155  0.8554 -1.2858
 7497SOL     OW25988   5.087   1.910   9.871  0.6672 -0.7605 -0.0622
 7497SOL    HW125989   5.075   1.971   9.799 -1.4018 -2.1710 -0.9992
 7497SOL    HW225990   5.161   1.855   9.843 -0.3813 -1.5613 -1.3457
 7498SOL     OW25991   7.018   7.904   0.046  0.0530  0.2518  0.1037
 7498SOL    HW125992   6.978   7.827   0.088 -1.5066  1.1727  0.3888
 7498SOL    HW225993   6.953   7.973   0.055  0.5731  1.0904 -1.9618
 7499SOL     OW25994   7.820   9.312  10.448 -0.1551  0.1346 -0.0235
 7499SOL    HW125995   7.820   9.282  10.539  1.7896 -0.9226 -0.3276
 7499SOL    HW225996   7.822   9.232  10.397  0.6145  0.7307 -0.9595
 7500SOL     OW25997  10.862   1.435   2.516 -0.2619 -0.0771 -0.0259
 7500SOL    HW125998  10.854   1.349   2.474  0.8169  0.1837 -0.8109
 7500SOL    HW225999  10.877   1.496   2.444  1.6075  0.3854  0.6841
 7501SOL     OW26000   5.387  10.279   3.555 -0.6948 -0.1423 -0.0216
 7501SOL    HW126001   5.309  10.326   3.586 -0.5835 -0.6915  1.1352
 7501SOL    HW226002   5.365  10.252   3.466 -1.0907  1.3466 -0.4075
 7502SOL     OW26003   3.801  10.468   4.694 -0.7739 -0.2494 -0.4895
 7502SOL    HW126004   3.763  10.382   4.712  0.1680 -0.5726  0.0193
 7502SOL    HW226005   3.877  10.449   4.638 -1.1153  0.3437 -1.1720
 7503SOL     OW26006   0.536  10.651   5.282  0.0792  0.0615 -0.2080
 7503SOL    HW126007   0.616  10.703   5.275  0.1532 -0.1795 -1.4172
 7503SOL    HW226008   0.561  10.574   5.333  0.7632 -0.2540 -0.9937
 7504SOL     OW26009   3.471   4.421   3.840  0.4087  0.2826 -0.0524
 7504SOL    HW126010   3.494   4.467   3.759  0.4226  0.7825  0.2287
 7504SOL    HW226011   3.413   4.482   3.885  1.8766  0.8056  1.1819
 7505SOL     OW26012   4.352   6.119   7.336  0.7532 -0.7894 -0.9955
 7505SOL    HW126013   4.277   6.079   7.292 -0.0600  0.1878 -0.5261
 7505SOL    HW226014   4.426   6.104   7.277  0.4508 -2.7961 -0.9344
 7506SOL     OW26015  10.493   1.352   5.148  0.2983  0.3813  0.3014
 7506SOL    HW126016  10.563   1.363   5.213  2.2026 -2.3632 -1.1008
 7506SOL    HW226017  10.447   1.273   5.176  0.1589  0.0512 -0.8273
 7507SOL     OW26018   0.356   9.319   5.181 -0.5644 -0.8482  0.3060
 7507SOL    HW126019   0.361   9.237   5.131 -0.7146  0.2031 -1.5347
 7507SOL    HW226020   0.302   9.298   5.257 -0.4735 -2.4813 -0.0429
 7508SOL     OW26021   8.932  10.219   8.321 -0.1928  0.1980  0.2139
 7508SOL    HW126022   8.965  10.133   8.296  0.0834  0.5796 -0.7621
 7508SOL    HW226023   8.957  10.228   8.413  1.6672  0.1093 -0.2404
 7509SOL     OW26024   4.211   2.876   7.707 -0.1997  0.5162 -0.0775
 7509SOL    HW126025   4.200   2.966   7.676 -0.1127  0.0677 -1.4982
 7509SOL    HW226026   4.261   2.884   7.788 -0.2510  1.7472 -0.1494
 7510SOL     OW26027   9.249   4.375   8.345  0.0829 -0.4858  0.1945
 7510SOL    HW126028   9.244   4.469   8.326 -1.7217 -0.3502  1.0854
 7510SOL    HW226029   9.339   4.350   8.324  0.5310  1.4001 -0.2550
 7511SOL     OW26030   0.073   3.826   6.257 -0.3819 -0.3057  0.1179
 7511SOL    HW126031   0.038   3.911   6.232  2.9962  0.8672 -1.1596
 7511SOL    HW226032   0.039   3.811   6.346 -2.9691  1.1599 -0.5281
 7512SOL     OW26033   2.447   6.920   7.850  0.2866 -0.2494 -0.3146
 7512SOL    HW126034   2.367   6.870   7.831 -0.6277  1.1601 -0.2738
 7512SOL    HW226035   2.433   6.955   7.938  2.2531 -2.4064  0.9591
 7513SOL     OW26036   5.686   4.129   1.831 -0.0985 -0.3877 -0.2191
 7513SOL    HW126037   5.619   4.110   1.897  1.3435 -0.8420  1.1667
 7513SOL    HW226038   5.755   4.065   1.847  0.6436  0.0100 -1.6657
 7514SOL     OW26039   6.708   3.016  10.255 -0.4152 -0.4754  0.9365
 7514SOL    HW126040   6.769   3.012  10.328 -1.4913 -0.5174  1.8664
 7514SOL    HW226041   6.622   3.004  10.296 -1.3405  2.4857  0.0767
 7515SOL     OW26042   0.109   6.362   9.946 -0.8957  0.2897 -0.3434
 7515SOL    HW126043   0.090   6.388  10.037 -2.9522 -0.8102 -0.4134
 7515SOL    HW226044   0.201   6.335   9.948 -1.2702 -1.0951  1.7687
 7516SOL     OW26045  10.995   9.385   1.272 -0.1578 -0.2793  0.1941
 7516SOL    HW126046  11.076   9.391   1.221 -0.8313 -1.1454 -1.0209
 7516SOL    HW226047  11.016   9.429   1.355  1.0013  1.0853 -0.7626
 7517SOL     OW26048   9.744   7.384   0.941  0.3541 -0.1563  0.1044
 7517SOL    HW126049   9.686   7.422   1.006 -0.1389 -1.0352  0.2052
 7517SOL    HW226050   9.723   7.429   0.859 -0.4157 -0.4104  0.1620
 7518SOL     OW26051   8.829   8.649   0.777 -0.4828  0.4995 -0.2142
 7518SOL    HW126052   8.772   8.635   0.853 -2.2854 -0.1995 -1.6058
 7518SOL    HW226053   8.876   8.566   0.767 -0.5129  0.4653 -0.0752
 7519SOL     OW26054   8.422   3.621   1.337 -0.1794 -0.0407  0.2878
 7519SOL    HW126055   8.497   3.596   1.390  0.6856  0.0143 -0.8687
 7519SOL    HW226056   8.354   3.644   1.400  0.8999  0.2992  1.3562
 7520SOL     OW26057   5.006   2.782   6.092  0.3687 -0.2185  0.2669
 7520SOL    HW126058   5.000   2.728   6.013  0.4157 -0.1655  0.2276
 7520SOL    HW226059   5.094   2.820   6.089 -0.4007  1.5836 -0.8134
 7521SOL     OW26060   9.339   0.857   3.164  0.5962 -0.2045  0.0851
 7521SOL    HW126061   9.299   0.944   3.155  0.4187 -0.4939 -3.7482
 7521SOL    HW226062   9.275   0.798   3.124  1.2277 -1.9788  1.5887
 7522SOL     OW26063  10.781   4.860   5.969 -1.1596 -0.2311  0.4354
 7522SOL    HW126064  10.846   4.912   6.017  0.1167 -2.6281  1.4798
 7522SOL    HW226065  10.698   4.904   5.986 -0.3855  0.5355  2.6082
 7523SOL     OW26066   1.098   9.076   1.469 -0.3166 -0.1521 -0.2775
 7523SOL    HW126067   1.173   9.134   1.485  1.0648 -1.8829 -0.1315
 7523SOL    HW226068   1.083   9.081   1.375  0.8251 -0.7274 -0.5051
 7524SOL     OW26069   6.225   9.118   5.440 -0.1735 -0.4397  0.5572
 7524SOL    HW126070   6.256   9.077   5.359 -0.0414 -0.4613  0.6174
 7524SOL    HW226071   6.131   9.127   5.429  0.1019  1.7122 -0.6001
 7525SOL     OW26072   8.278   6.973   2.160  0.2037 -0.2355  0.2163
 7525SOL    HW126073   8.257   7.006   2.247  0.2814 -2.0391  0.9645
 7525SOL    HW226074   8.303   7.051   2.110  0.0802  0.8490  1.7731
 7526SOL     OW26075   7.915  10.321   4.139  0.3275  0.0739 -0.6568
 7526SOL    HW126076   7.887  10.333   4.230 -1.3868  0.4800 -1.2025
 7526SOL    HW226077   7.869  10.243   4.110  1.3417 -0.4078 -1.0188
 7527SOL     OW26078   0.548   0.289   4.162  0.1212 -0.9090  0.2503
 7527SOL    HW126079   0.531   0.215   4.220  3.3495 -1.0850  1.1404
 7527SOL    HW226080   0.598   0.350   4.215  0.0243  0.6169 -1.3289
 7528SOL     OW26081   8.704   1.636   4.242  0.7228 -0.2200 -0.3682
 7528SOL    HW126082   8.724   1.711   4.186  0.6609 -0.3075 -0.5077
 7528SOL    HW226083   8.672   1.569   4.181  0.5124 -0.2632 -0.2079
 7529SOL     OW26084   3.284   9.223   5.811  0.1630  0.1527 -0.1320
 7529SOL    HW126085   3.355   9.227   5.875  0.4960  1.0595 -0.5384
 7529SOL    HW226086   3.245   9.310   5.813 -2.4964 -0.9417  1.7651
 7530SOL     OW26087   0.031   9.105   4.263 -0.2700 -0.1593  0.0409
 7530SOL    HW126088   0.098   9.040   4.283  0.5896  0.3251 -1.1355
 7530SOL    HW226089   0.066   9.188   4.295 -0.7983 -0.0616  0.3882
 7531SOL     OW26090   0.137   8.019  10.950 -0.1524  0.1027  0.4560
 7531SOL    HW126091   0.061   7.961  10.951  0.1651 -0.3288 -0.0008
 7531SOL    HW226092   0.176   8.006  10.864 -0.2375  1.2107  0.2367
 7532SOL     OW26093   9.243   3.321   5.610 -0.1221  0.3597  0.5354
 7532SOL    HW126094   9.307   3.253   5.631 -2.2644 -2.2652 -0.7110
 7532SOL    HW226095   9.267   3.349   5.522  0.6714  1.1277  0.9870
 7533SOL     OW26096   8.437   3.690   0.063 -0.1038  0.3615  0.3285
 7533SOL    HW126097   8.466   3.760   0.004 -0.2465  2.2740  2.4116
 7533SOL    HW226098   8.343   3.702   0.069 -0.0533  0.3537  1.1504
 7534SOL     OW26099   1.649   5.595   1.262 -0.1327 -0.0579 -0.4280
 7534SOL    HW126100   1.564   5.580   1.221  0.2367  0.1953 -1.3131
 7534SOL    HW226101   1.640   5.680   1.306 -0.5632 -0.3770  0.1121
 7535SOL     OW26102   2.548   4.668   4.566 -0.1849  0.2115  0.4605
 7535SOL    HW126103   2.604   4.680   4.489  0.4255  0.2631  0.8980
 7535SOL    HW226104   2.459   4.678   4.533 -0.2155 -3.4591 -0.9835
 7536SOL     OW26105  10.325   9.566   5.404  0.1370 -0.1947  0.0909
 7536SOL    HW126106  10.363   9.596   5.486 -0.6253 -1.1158  0.8087
 7536SOL    HW226107  10.356   9.476   5.395 -0.8661 -0.5514  0.0746
 7537SOL     OW26108   4.220   5.524   6.296 -0.8154 -0.6287 -0.7633
 7537SOL    HW126109   4.244   5.594   6.356 -0.2722 -2.4470  1.2384
 7537SOL    HW226110   4.151   5.563   6.242  0.1479  1.7392 -0.4307
 7538SOL     OW26111   4.505   9.231   2.837  0.4654 -0.1042  0.5039
 7538SOL    HW126112   4.450   9.277   2.773 -1.3018 -0.7797  1.4905
 7538SOL    HW226113   4.447   9.167   2.878  2.1325 -1.2289  1.2261
 7539SOL     OW26114   1.026   8.380   1.604 -0.3202  0.5953  0.5843
 7539SOL    HW126115   0.970   8.318   1.651 -1.7662  0.9604 -0.6018
 7539SOL    HW226116   0.976   8.404   1.526  1.2653  1.3696 -0.2427
 7540SOL     OW26117   8.810   7.069   6.193  0.0778 -0.5173 -0.6268
 7540SOL    HW126118   8.881   7.029   6.244  0.4420  1.8576  0.8569
 7540SOL    HW226119   8.843   7.155   6.169 -2.1447  0.4957 -0.2753
 7541SOL     OW26120   0.638   1.829   1.567 -0.9012  0.1376  0.1420
 7541SOL    HW126121   0.633   1.814   1.473  0.5203  0.5474 -0.0059
 7541SOL    HW226122   0.719   1.786   1.594 -0.9323  0.6355  1.0597
 7542SOL     OW26123   8.517   6.523   7.579  0.7271 -0.1459 -0.4625
 7542SOL    HW126124   8.467   6.561   7.651 -0.3808 -0.6532 -0.9378
 7542SOL    HW226125   8.606   6.516   7.612 -0.1891 -2.8192  1.8687
 7543SOL     OW26126   1.322   1.394   3.392 -0.1785  0.0623 -0.1185
 7543SOL    HW126127   1.413   1.426   3.390 -0.3149  0.7421  1.8648
 7543SOL    HW226128   1.311   1.347   3.310  1.5421  1.1282 -1.0187
 7544SOL     OW26129   1.979   5.136   4.855  0.2431  0.2591 -0.5883
 7544SOL    HW126130   2.062   5.114   4.814  0.5407  0.7098 -0.2287
 7544SOL    HW226131   1.921   5.159   4.782 -0.3547 -2.4730 -1.0924
 7545SOL     OW26132   7.722   6.734   3.791  0.6238 -0.0265 -0.3967
 7545SOL    HW126133   7.694   6.825   3.783 -0.2207 -0.1680  0.6547
 7545SOL    HW226134   7.798   6.727   3.734  0.1427  1.0912 -1.2138
 7546SOL     OW26135   4.010   0.930   8.821 -0.4357 -0.1406 -0.7982
 7546SOL    HW126136   3.965   0.972   8.895 -1.1632  0.2958 -1.4681
 7546SOL    HW226137   4.056   1.002   8.778  0.8094 -0.5557 -0.2207
 7547SOL     OW26138   8.128   0.331   4.385  0.4977 -0.3113 -0.3679
 7547SOL    HW126139   8.121   0.351   4.292  1.9151 -3.0125 -1.1849
 7547SOL    HW226140   8.071   0.255   4.397  1.8157 -1.2198  0.4558
 7548SOL     OW26141   0.883   8.618   7.598 -0.2745 -0.2750 -0.4007
 7548SOL    HW126142   0.896   8.643   7.689 -0.2254 -0.1906 -0.4302
 7548SOL    HW226143   0.891   8.523   7.597 -1.7078 -0.4212 -0.0798
 7549SOL     OW26144   2.612   4.887   9.781 -0.1051 -0.1892  0.8567
 7549SOL    HW126145   2.558   4.864   9.857 -0.0632 -0.3670  0.8342
 7549SOL    HW226146   2.655   4.805   9.756  0.6505  0.0800  1.2446
 7550SOL     OW26147   0.488   6.672   4.823  0.2034  0.2208 -0.1815
 7550SOL    HW126148   0.572   6.637   4.854  0.4023  0.6851 -0.1865
 7550SOL    HW226149   0.433   6.595   4.811  0.2217 -0.0054  1.0479
 7551SOL     OW26150   6.440   3.644   5.307 -0.0609  0.0144 -0.1133
 7551SOL    HW126151   6.444   3.714   5.242  0.0377 -0.2773 -0.4234
 7551SOL    HW226152   6.531   3.616   5.318 -0.1692 -0.5079 -0.4787
 7552SOL     OW26153   8.628   8.784   4.932 -0.3928 -0.1509 -0.4016
 7552SOL    HW126154   8.590   8.854   4.985  1.0122  1.3251 -1.2603
 7552SOL    HW226155   8.558   8.759   4.872 -0.3101  2.0520 -1.5224
 7553SOL     OW26156   4.653   9.772   4.425 -0.6641 -1.3929  0.1378
 7553SOL    HW126157   4.711   9.824   4.480  0.1900 -1.9242 -0.2421
 7553SOL    HW226158   4.566   9.810   4.439  0.1116  1.0443 -1.1764
 7554SOL     OW26159   4.952   7.435   7.458 -0.3943 -0.2051 -0.3957
 7554SOL    HW126160   4.901   7.411   7.381 -0.0454  0.8486 -0.9803
 7554SOL    HW226161   5.025   7.487   7.424 -0.3834  0.5161  0.6647
 7555SOL     OW26162  10.453   2.747   1.190 -0.2716  0.1423 -0.0667
 7555SOL    HW126163  10.540   2.771   1.156 -0.0450 -1.8231 -0.9901
 7555SOL    HW226164  10.392   2.796   1.135  0.2147  1.0317  0.1553
 7556SOL     OW26165   6.651  10.727  10.141 -0.7020  0.0780  0.1383
 7556SOL    HW126166   6.701  10.684  10.211 -2.2089 -1.2053  0.4793
 7556SOL    HW226167   6.582  10.775  10.187 -0.5379  0.8447 -0.3917
 7557SOL     OW26168   0.708  10.569   1.640  0.0727  0.4160  0.4430
 7557SOL    HW126169   0.620  10.531   1.640  0.5427 -0.7584 -1.1327
 7557SOL    HW226170   0.721  10.599   1.730 -1.5220 -0.3750  0.9703
 7558SOL     OW26171  10.203   2.666   9.492  0.2276  0.4090 -0.5961
 7558SOL    HW126172  10.208   2.683   9.586  2.0985 -3.1552  0.1347
 7558SOL    HW226173  10.283   2.704   9.456  0.3617  0.2661 -0.4484
 7559SOL     OW26174   5.096   5.128   0.511  0.4797 -0.3206  0.1789
 7559SOL    HW126175   5.074   5.164   0.426  2.4990 -0.3216 -0.3958
 7559SOL    HW226176   5.029   5.062   0.528  0.1438 -0.4407 -1.4938
 7560SOL     OW26177   3.678   0.479   4.301 -0.5361 -0.8535 -0.0525
 7560SOL    HW126178   3.604   0.531   4.332 -0.5092 -0.3953 -0.7202
 7560SOL    HW226179   3.707   0.429   4.377 -0.5556  0.1244  0.6167
 7561SOL     OW26180   9.704   9.195   0.394  0.0321 -0.1326 -0.1185
 7561SOL    HW126181   9.723   9.132   0.464  0.2373  0.5240  0.4283
 7561SOL    HW226182   9.785   9.201   0.344 -0.1426 -0.6714 -0.4645
 7562SOL     OW26183   5.833   7.235   9.309 -0.5752 -0.1842  0.4466
 7562SOL    HW126184   5.761   7.174   9.293 -0.5122 -0.5566  1.5371
 7562SOL    HW226185   5.813   7.275   9.394 -0.1021  0.5779  0.2092
 7563SOL     OW26186   1.970   9.750   1.675  0.6215 -0.2561  0.2754
 7563SOL    HW126187   2.050   9.725   1.630  0.5197  1.8965 -1.2580
 7563SOL    HW226188   1.902   9.695   1.635  1.0155 -0.5348 -0.0110
 7564SOL     OW26189   3.202   9.636   4.851 -0.3259 -0.5797 -0.0544
 7564SOL    HW126190   3.170   9.700   4.914  0.5752  2.2663 -2.3050
 7564SOL    HW226191   3.123   9.607   4.805 -0.4426  1.7558 -1.4464
 7565SOL     OW26192   7.243   7.531   5.706  0.2728 -0.0439  0.0855
 7565SOL    HW126193   7.297   7.480   5.645 -0.7830 -0.9095 -0.1604
 7565SOL    HW226194   7.210   7.466   5.768 -1.3575  0.2640 -0.4226
 7566SOL     OW26195   9.471   7.007   3.530 -0.1786  0.9008  0.2898
 7566SOL    HW126196   9.535   7.015   3.601  0.4930 -2.1247  0.1372
 7566SOL    HW226197   9.413   6.935   3.557 -1.8413  1.7262 -0.8655
 7567SOL     OW26198   8.760   1.969   9.613  0.0289  0.2298  0.4433
 7567SOL    HW126199   8.702   1.899   9.583  1.3039 -1.1238  1.0160
 7567SOL    HW226200   8.745   2.041   9.551 -0.5019 -0.9397 -0.8362
 7568SOL     OW26201   0.466   1.056  10.067 -0.3273  0.0874 -0.3352
 7568SOL    HW126202   0.514   1.122  10.017 -0.8251  0.7821  0.0836
 7568SOL    HW226203   0.375   1.085  10.065 -0.4812 -0.3239  0.2730
 7569SOL     OW26204   5.248   8.685   8.324 -0.3542 -0.2914  0.4160
 7569SOL    HW126205   5.264   8.733   8.243 -0.5684  0.4073  0.7838
 7569SOL    HW226206   5.234   8.594   8.295 -3.2829  0.3843 -0.6413
 7570SOL     OW26207   8.507  10.958   3.273 -0.0379  0.5370  0.0630
 7570SOL    HW126208   8.565  11.004   3.213 -0.4546 -1.0571 -1.6563
 7570SOL    HW226209   8.424  11.006   3.269 -0.4180 -0.1744 -1.5908
 7571SOL     OW26210   1.007   6.396   2.220 -0.4841  0.2065 -0.3361
 7571SOL    HW126211   0.915   6.422   2.230 -0.1109  1.5415 -0.1968
 7571SOL    HW226212   1.032   6.364   2.306 -1.6587 -3.1975 -1.1029
 7572SOL     OW26213   5.020   7.173   9.696 -0.3119  0.2563 -0.4555
 7572SOL    HW126214   5.009   7.227   9.775  0.2950  2.2138 -1.6590
 7572SOL    HW226215   4.931   7.146   9.674 -0.8589  2.0943 -0.6868
 7573SOL     OW26216   2.737   3.625   3.591 -0.0438  0.0793 -0.1185
 7573SOL    HW126217   2.811   3.607   3.649 -1.4094 -0.8785  1.4074
 7573SOL    HW226218   2.771   3.607   3.503  1.0899 -2.0147  0.6607
 7574SOL     OW26219   9.489   9.683   3.264  0.7971 -0.4861 -0.5823
 7574SOL    HW126220   9.455   9.675   3.353  1.0757 -0.7128 -0.4941
 7574SOL    HW226221   9.533   9.768   3.263 -0.2565  0.0644 -0.8665
 7575SOL     OW26222  10.097   1.620   9.788  0.3114  0.0563 -0.5460
 7575SOL    HW126223  10.028   1.683   9.807  0.2805 -0.4201  1.0570
 7575SOL    HW226224  10.178   1.667   9.807  0.3016 -0.2497  0.2964
 7576SOL     OW26225   4.886   5.725   2.923  0.0449  0.2067  0.4044
 7576SOL    HW126226   4.947   5.738   2.851 -0.9084 -2.6430 -1.0730
 7576SOL    HW226227   4.874   5.630   2.928 -2.5966  0.5066  2.0205
 7577SOL     OW26228   6.976   9.937   0.494 -0.3225  0.2624  0.2874
 7577SOL    HW126229   6.924  10.008   0.457  0.9227  1.4492  0.7354
 7577SOL    HW226230   6.915   9.887   0.547 -1.3690  0.5644 -0.6001
 7578SOL     OW26231  10.109   5.051   3.476 -0.4639 -0.4272  0.5918
 7578SOL    HW126232  10.175   4.983   3.484 -1.7005 -1.6976  0.3223
 7578SOL    HW226233  10.029   5.005   3.452 -1.3912  1.1020  0.5840
 7579SOL     OW26234   8.266   3.137   4.167 -0.3201  0.0880  0.5264
 7579SOL    HW126235   8.281   3.185   4.085  2.5039 -0.2378  0.7548
 7579SOL    HW226236   8.276   3.203   4.236  0.4157 -0.1943  0.7028
 7580SOL     OW26237  10.514   2.369   0.842 -0.6792  0.3141  0.4897
 7580SOL    HW126238  10.510   2.452   0.890 -0.0866  0.3311  0.5144
 7580SOL    HW226239  10.489   2.303   0.906 -0.4982  0.4036  0.6528
 7581SOL     OW26240   9.327   5.335   9.068 -0.0732  0.3680  0.0060
 7581SOL    HW126241   9.332   5.320   8.974 -0.8421  2.0548 -0.3248
 7581SOL    HW226242   9.409   5.380   9.089 -0.2105  0.6070  0.0255
 7582SOL     OW26243   2.811   1.625   5.667  0.1798 -0.0893 -0.1927
 7582SOL    HW126244   2.792   1.701   5.613 -1.4395  0.2031  0.7425
 7582SOL    HW226245   2.754   1.633   5.743  0.1623 -2.0946  0.0806
 7583SOL     OW26246   3.258   3.214   3.187  0.1573 -0.4620 -0.4225
 7583SOL    HW126247   3.188   3.221   3.252 -1.1286 -1.2549 -1.6622
 7583SOL    HW226248   3.310   3.294   3.199  0.2452 -0.7862  1.8361
 7584SOL     OW26249   7.607   1.353   8.308 -0.4109 -0.2398  0.2741
 7584SOL    HW126250   7.641   1.280   8.256 -1.0595  0.8524 -1.7375
 7584SOL    HW226251   7.639   1.334   8.397 -0.2063 -2.7391 -0.2368
 7585SOL     OW26252   1.153   9.815  10.207 -0.2529 -0.4744  0.4609
 7585SOL    HW126253   1.204   9.741  10.239 -0.1001  0.5065  2.7028
 7585SOL    HW226254   1.062   9.787  10.217 -0.1839 -0.7677  0.2647
 7586SOL     OW26255   6.397   7.145   9.845  0.1490  0.5776 -0.1303
 7586SOL    HW126256   6.448   7.226   9.852  0.8416  0.0763  1.0268
 7586SOL    HW226257   6.396   7.111   9.935  0.2889 -0.9433 -0.6904
 7587SOL     OW26258   3.911   2.080   5.532  0.1535  0.5717  0.0120
 7587SOL    HW126259   3.834   2.115   5.487 -1.2066 -0.6837  1.2407
 7587SOL    HW226260   3.901   2.111   5.622  1.0223  0.2772  0.2170
 7588SOL     OW26261   4.061   3.402   9.496 -0.5837  0.3954 -0.7496
 7588SOL    HW126262   3.992   3.468   9.497 -1.4615 -0.4878  0.9376
 7588SOL    HW226263   4.025   3.328   9.545  1.6234 -0.0484  0.3259
 7589SOL     OW26264   4.424   8.454   9.591  0.0145 -0.0926  0.0222
 7589SOL    HW126265   4.423   8.400   9.670  0.0874 -0.8166 -0.4558
 7589SOL    HW226266   4.478   8.404   9.529  1.0906  1.1037 -0.0523
 7590SOL     OW26267  10.103   3.514   3.665 -0.3033 -0.0114 -0.4364
 7590SOL    HW126268  10.021   3.465   3.669  0.3810 -1.2669 -1.1717
 7590SOL    HW226269  10.171   3.450   3.687  0.6629  0.4448 -1.9355
 7591SOL     OW26270   6.613   7.327   5.531  0.3514 -0.1674  0.6711
 7591SOL    HW126271   6.630   7.356   5.621  1.6778  2.1784 -0.2730
 7591SOL    HW226272   6.698   7.327   5.489 -0.3946 -0.1104 -0.9130
 7592SOL     OW26273   0.419   5.824   4.964  0.2029 -0.0224  0.3168
 7592SOL    HW126274   0.503   5.791   4.995 -0.4723 -0.5684  1.6684
 7592SOL    HW226275   0.414   5.797   4.873  1.4678 -0.0131  0.2328
 7593SOL     OW26276   9.516   4.789   5.094  0.1101  0.1601 -0.0777
 7593SOL    HW126277   9.600   4.792   5.140 -0.1296  0.9631  0.3131
 7593SOL    HW226278   9.504   4.877   5.058  0.0921 -0.3326 -1.3349
 7594SOL     OW26279   9.167   6.861   6.088  0.6639  0.5562 -0.8661
 7594SOL    HW126280   9.170   6.886   6.180  0.0805 -0.1398 -0.6478
 7594SOL    HW226281   9.133   6.938   6.043 -0.4608  0.4089 -0.2987
 7595SOL     OW26282   4.913   4.566   3.928  0.0093 -0.2310  0.2404
 7595SOL    HW126283   4.967   4.501   3.973 -0.5116  0.0037  1.2350
 7595SOL    HW226284   4.916   4.644   3.985 -1.1537 -0.1289  0.1952
 7596SOL     OW26285   7.124   5.313   7.050 -0.4578 -0.4092  0.1746
 7596SOL    HW126286   7.191   5.264   7.001 -0.1783  2.0208 -2.0942
 7596SOL    HW226287   7.083   5.248   7.107 -0.4162 -3.3710 -2.9023
 7597SOL     OW26288   2.467   3.657   7.304  0.0997  0.0417  0.5742
 7597SOL    HW126289   2.471   3.737   7.357  0.0137  0.6615 -0.3272
 7597SOL    HW226290   2.390   3.670   7.249  1.0004  0.0642 -0.7178
 7598SOL     OW26291   0.662   4.799   4.331  0.3146 -0.2259  0.3408
 7598SOL    HW126292   0.688   4.727   4.273 -0.6959 -1.4955  1.4030
 7598SOL    HW226293   0.606   4.854   4.276  1.8155  0.2849 -0.7454
 7599SOL     OW26294   6.831   2.406  10.586  0.7976  0.5876  0.1580
 7599SOL    HW126295   6.857   2.394  10.677  0.7715  0.7338  0.1845
 7599SOL    HW226296   6.909   2.441  10.543  0.5347  1.3734  0.3140
 7600SOL     OW26297   6.878   0.849   1.970  0.7713  0.0915  0.0359
 7600SOL    HW126298   6.897   0.931   2.015 -1.0196  0.5438  0.0183
 7600SOL    HW226299   6.911   0.781   2.030 -1.8787  0.6505  2.3272
 7601SOL     OW26300   2.319   2.145   7.002  0.9164 -0.4505 -0.1406
 7601SOL    HW126301   2.315   2.069   7.059  0.4318 -0.3823 -0.0818
 7601SOL    HW226302   2.406   2.182   7.017  0.5114  0.0310  1.1447
 7602SOL     OW26303   4.730   2.871   6.737  0.3660 -0.2456  0.3226
 7602SOL    HW126304   4.643   2.909   6.725 -0.0243 -0.4953  2.0582
 7602SOL    HW226305   4.785   2.915   6.673 -0.7346  1.0054  0.2044
 7603SOL     OW26306   3.984   8.861   1.844  0.3841 -0.4035  0.1011
 7603SOL    HW126307   4.045   8.802   1.799  1.4385 -0.9279  2.0859
 7603SOL    HW226308   3.898   8.822   1.829  0.5109  0.0786 -2.3479
 7604SOL     OW26309   5.666   8.392   6.844 -0.7465  0.3355  0.2823
 7604SOL    HW126310   5.622   8.310   6.821 -0.2564 -0.3980  1.8596
 7604SOL    HW226311   5.597   8.459   6.835 -0.9851 -0.0952 -1.6721
 7605SOL     OW26312   8.799   2.497   5.670 -0.3062  0.0551  0.3331
 7605SOL    HW126313   8.815   2.568   5.732 -0.0818  1.2868 -1.0610
 7605SOL    HW226314   8.824   2.418   5.717  3.4552  1.2229  0.6251
 7606SOL     OW26315   7.114   3.390   4.072  0.0585 -0.2102  0.7944
 7606SOL    HW126316   7.183   3.457   4.076  0.3139 -0.5469  2.5702
 7606SOL    HW226317   7.159   3.312   4.037 -0.2225  0.4536 -1.2046
 7607SOL     OW26318   5.912   6.458   5.584 -0.1513  0.7309 -0.1350
 7607SOL    HW126319   5.975   6.454   5.657 -1.0857  0.6575  0.6867
 7607SOL    HW226320   5.872   6.372   5.583 -1.2069  1.2031  0.2392
 7608SOL     OW26321   3.970   7.114   6.859 -0.4435  0.2372  0.6562
 7608SOL    HW126322   3.929   7.181   6.913 -1.0061  0.4066  0.0475
 7608SOL    HW226323   3.916   7.113   6.779  0.0225 -0.3972  0.3453
 7609SOL     OW26324   7.981   3.595   9.667  0.6195 -0.1905 -0.3892
 7609SOL    HW126325   7.996   3.530   9.736 -0.7985  3.0044  3.3098
 7609SOL    HW226326   8.057   3.652   9.671  0.2891  0.3255 -1.2148
 7610SOL     OW26327   3.015  10.562   3.285  0.1120 -0.2307 -0.4524
 7610SOL    HW126328   3.092  10.518   3.321  0.3982  0.7659  0.2271
 7610SOL    HW226329   2.980  10.502   3.219  1.6168 -0.5907 -0.9514
 7611SOL     OW26330   3.157  10.652   7.224 -0.0381  0.0741  0.1608
 7611SOL    HW126331   3.103  10.573   7.212 -1.4647  0.7203  1.9318
 7611SOL    HW226332   3.128  10.711   7.154 -0.1389 -0.3564 -0.1655
 7612SOL     OW26333   2.796   7.014  10.719 -0.1512  0.0707  0.0925
 7612SOL    HW126334   2.738   7.028  10.644  0.2264  1.4798  0.0370
 7612SOL    HW226335   2.883   7.007  10.680  0.1860  1.8778  0.4384
 7613SOL     OW26336   0.743   7.334   9.663 -0.0747  0.0211  0.1587
 7613SOL    HW126337   0.738   7.243   9.691  0.0493 -0.2382 -0.6326
 7613SOL    HW226338   0.740   7.385   9.744  0.1053 -0.6959  0.6207
 7614SOL     OW26339   9.827   4.785   6.344 -0.1712  0.0618  0.4534
 7614SOL    HW126340   9.751   4.843   6.351 -0.2812  0.0319 -0.3613
 7614SOL    HW226341   9.882   4.826   6.277 -0.0886 -0.6042  0.1113
 7615SOL     OW26342   1.386   1.037   0.732  0.0793 -0.0278  0.0775
 7615SOL    HW126343   1.472   1.048   0.691 -0.1663 -0.0719 -0.4447
 7615SOL    HW226344   1.366   0.944   0.721 -0.7682  0.2954 -1.2539
 7616SOL     OW26345   5.552   5.787  10.230 -0.2329  0.1546 -1.0271
 7616SOL    HW126346   5.474   5.839  10.211  0.0270  0.8731 -0.2100
 7616SOL    HW226347   5.585   5.761  10.145 -1.6961 -0.6613 -1.3709
 7617SOL     OW26348  10.044  10.885   4.828 -0.2682 -0.2697 -0.2784
 7617SOL    HW126349  10.086  10.916   4.908 -1.8110  0.7447  0.1828
 7617SOL    HW226350  10.029  10.791   4.843  1.2116 -0.5076 -0.2034
 7618SOL     OW26351   2.076   3.604   4.953  0.2784  0.0067 -0.1274
 7618SOL    HW126352   1.988   3.567   4.943  0.3338 -0.1270 -0.1228
 7618SOL    HW226353   2.103   3.578   5.041  0.8834 -1.1578 -0.6365
 7619SOL     OW26354   7.990   0.229   2.351  0.1768 -0.4796  0.0577
 7619SOL    HW126355   7.964   0.261   2.437  0.1487  0.0427 -0.1433
 7619SOL    HW226356   8.032   0.145   2.368  0.8357 -0.0397  0.6561
 7620SOL     OW26357   5.735   9.492   8.957  0.1966 -0.4315  0.0262
 7620SOL    HW126358   5.816   9.489   8.907  0.0497 -1.3718 -0.1626
 7620SOL    HW226359   5.670   9.450   8.901 -0.3372 -0.0606  0.3470
 7621SOL     OW26360   4.632   4.714   3.384  0.5839  0.2447 -0.7536
 7621SOL    HW126361   4.660   4.668   3.463  0.2595  1.6365  0.2186
 7621SOL    HW226362   4.671   4.664   3.312 -0.1176 -1.7636  0.1951
 7622SOL     OW26363  10.310   8.468   2.148 -0.1761  0.2478 -0.1864
 7622SOL    HW126364  10.387   8.523   2.159  1.8253 -2.0286 -1.8700
 7622SOL    HW226365  10.274   8.458   2.236  0.7446  2.2410  0.4730
 7623SOL     OW26366   1.768   8.957   9.041 -0.8869 -0.0280  0.3070
 7623SOL    HW126367   1.755   8.975   9.134  1.6501 -1.7959  1.1042
 7623SOL    HW226368   1.857   8.922   9.035 -1.0082 -0.1114 -2.7910
 7624SOL     OW26369   7.689   9.931   8.863  0.7612  0.2399 -0.2746
 7624SOL    HW126370   7.643   9.924   8.947  0.1019  1.5739 -0.5040
 7624SOL    HW226371   7.647   9.864   8.808 -0.4922  0.9998 -0.2840
 7625SOL     OW26372   1.512   4.268  10.900 -0.0701 -0.0388 -0.7260
 7625SOL    HW126373   1.524   4.237  10.990  2.2844  1.0997 -0.5742
 7625SOL    HW226374   1.580   4.223  10.850  0.3304  1.2722 -1.4083
 7626SOL     OW26375   5.366   3.004   7.307  0.3336 -0.2942 -0.0197
 7626SOL    HW126376   5.290   3.009   7.249  0.3791  1.2666  0.0159
 7626SOL    HW226377   5.425   3.072   7.275  2.4510 -2.4640 -1.0133
 7627SOL     OW26378   2.077   9.397   9.137  0.4751 -0.5995 -0.0435
 7627SOL    HW126379   2.097   9.323   9.080  0.3664 -0.3082 -0.4667
 7627SOL    HW226380   2.064   9.470   9.077 -1.0548 -0.5975  0.2695
 7628SOL     OW26381   1.436   5.550   7.634 -0.2295 -0.1098  0.1603
 7628SOL    HW126382   1.445   5.461   7.669  2.3215 -0.1480 -0.3785
 7628SOL    HW226383   1.466   5.607   7.705  2.5441 -0.0438 -0.9194
 7629SOL     OW26384  10.181   0.601   9.952 -0.0964 -0.6829 -0.1845
 7629SOL    HW126385  10.235   0.523   9.965  0.6188 -0.0666  0.6772
 7629SOL    HW226386  10.130   0.608  10.033  1.2876  0.8168  0.6182
 7630SOL     OW26387   6.824   0.961   3.811  0.6170  0.0333 -0.1512
 7630SOL    HW126388   6.778   0.877   3.814  0.5484  0.0056 -1.4637
 7630SOL    HW226389   6.770   1.020   3.863 -0.3110 -0.2824 -0.7371
 7631SOL     OW26390   4.582   8.027   8.437 -0.5822  0.9850 -0.1209
 7631SOL    HW126391   4.496   8.050   8.473 -0.1917  0.4109  1.2645
 7631SOL    HW226392   4.569   8.025   8.342 -2.5022 -0.6053  0.1138
 7632SOL     OW26393  10.807   1.320   2.904  0.1077 -0.2248 -0.2177
 7632SOL    HW126394  10.881   1.279   2.948  0.8212  1.5300  0.2669
 7632SOL    HW226395  10.738   1.322   2.971  0.2853 -0.0244 -0.0423
 7633SOL     OW26396   4.680   6.982  10.188 -0.1269  0.0442 -0.3479
 7633SOL    HW126397   4.674   7.070  10.150 -0.3215 -0.2378 -0.9892
 7633SOL    HW226398   4.589   6.958  10.205 -0.0304  0.2270  0.4432
 7634SOL     OW26399   9.246   8.808   1.440 -0.4979 -0.6305 -0.0745
 7634SOL    HW126400   9.307   8.827   1.369 -0.5712 -0.4921 -0.1001
 7634SOL    HW226401   9.239   8.890   1.489  2.1104 -1.5645  2.0729
 7635SOL     OW26402   0.634   4.214   8.833 -0.2942  0.0880  0.6950
 7635SOL    HW126403   0.647   4.304   8.800 -0.7559  0.4258  1.4266
 7635SOL    HW226404   0.580   4.172   8.766 -1.0386  0.7038  0.8953
 7636SOL     OW26405   4.903   1.282   2.793  0.3731  0.0555 -0.2026
 7636SOL    HW126406   4.926   1.282   2.886  1.4006 -0.4008 -0.4380
 7636SOL    HW226407   4.830   1.343   2.786 -0.8950 -1.2075  1.1767
 7637SOL     OW26408   5.702   4.614   6.533  0.0622  0.1470  0.3163
 7637SOL    HW126409   5.762   4.559   6.583 -1.5639 -0.4565  1.7356
 7637SOL    HW226410   5.727   4.704   6.556 -0.0968 -0.1070  1.5826
 7638SOL     OW26411   6.656   1.862   5.735 -0.3332 -0.1292  0.2208
 7638SOL    HW126412   6.739   1.816   5.744 -1.2318 -2.1510 -1.1086
 7638SOL    HW226413   6.645   1.909   5.818  2.3921  0.7178  0.1911
 7639SOL     OW26414   7.061   3.344   5.891 -0.3069  0.7198 -0.3556
 7639SOL    HW126415   7.066   3.425   5.942 -1.5231  0.3392  0.3892
 7639SOL    HW226416   7.081   3.372   5.801  0.5665  1.6109  0.0867
 7640SOL     OW26417   2.401   6.068   0.162 -0.5162 -0.1755 -0.5164
 7640SOL    HW126418   2.410   6.111   0.247 -2.8222  0.1145 -0.3289
 7640SOL    HW226419   2.437   6.131   0.099  0.5366 -0.0827  0.1605
 7641SOL     OW26420   4.658   2.874   0.200  0.1393 -0.3980  0.4463
 7641SOL    HW126421   4.688   2.965   0.207  0.4839 -0.6282  3.0684
 7641SOL    HW226422   4.563   2.881   0.198  0.1548  0.0493  0.8157
 7642SOL     OW26423   6.458   7.822   8.315  0.8051  0.8846  0.1364
 7642SOL    HW126424   6.382   7.776   8.351  1.0401  0.5721  0.2346
 7642SOL    HW226425   6.506   7.755   8.267  1.0837  1.0525  0.1787
 7643SOL     OW26426   1.712   1.446   1.491 -0.5278 -0.1126 -1.0826
 7643SOL    HW126427   1.802   1.434   1.521 -0.5105  1.4729 -0.4146
 7643SOL    HW226428   1.661   1.383   1.541 -0.3472  1.7210  1.6535
 7644SOL     OW26429   0.893   4.935   5.264  0.2490  0.1843  0.0057
 7644SOL    HW126430   0.833   4.869   5.298  1.6261 -2.0577 -1.5605
 7644SOL    HW226431   0.925   4.981   5.342  0.0104 -1.7378  1.3185
 7645SOL     OW26432   9.211   2.108   7.039  0.0646 -0.1804 -0.3380
 7645SOL    HW126433   9.283   2.050   7.016  0.7222 -0.6284  2.4926
 7645SOL    HW226434   9.253   2.192   7.058 -0.0858 -0.4630  1.3983
 7646SOL     OW26435   0.405   9.423   4.163 -0.5831  0.1889 -0.3405
 7646SOL    HW126436   0.424   9.349   4.220 -0.6599  2.6406  3.1845
 7646SOL    HW226437   0.491   9.448   4.127 -0.4393 -1.0396 -0.8853
 7647SOL     OW26438  10.259   1.824   2.675  0.0653  0.3660 -0.7529
 7647SOL    HW126439  10.312   1.771   2.734  1.1206  0.6666 -1.4167
 7647SOL    HW226440  10.258   1.911   2.714  0.6028  0.5185 -1.0832
 7648SOL     OW26441   5.498   9.027   2.041 -0.0539  0.3454  0.1665
 7648SOL    HW126442   5.565   9.071   1.989  0.1330  0.1292  0.2211
 7648SOL    HW226443   5.540   9.008   2.124  0.0898 -0.5377 -0.0954
 7649SOL     OW26444   0.976  10.706   0.936  0.2493 -0.1598  0.2659
 7649SOL    HW126445   1.018  10.784   0.900  0.4852 -0.9822 -1.2932
 7649SOL    HW226446   0.997  10.709   1.029  0.9128  1.2182  0.0995
 7650SOL     OW26447   9.889   9.565   5.551 -0.3868  0.2025 -0.8371
 7650SOL    HW126448   9.946   9.580   5.627  0.9987  0.4192 -1.8789
 7650SOL    HW226449   9.876   9.652   5.513 -0.0749 -0.0391 -1.5206
 7651SOL     OW26450  10.980   1.594   1.743 -0.1496  0.5894  0.2946
 7651SOL    HW126451  10.968   1.598   1.648  1.0154  1.3441  0.1598
 7651SOL    HW226452  11.062   1.641   1.759  0.4408 -0.7778  1.5289
 7652SOL     OW26453   2.581   6.993   8.584  0.6732 -0.5148  0.0048
 7652SOL    HW126454   2.502   7.005   8.532 -1.0602  2.8208  2.9732
 7652SOL    HW226455   2.569   6.909   8.627 -1.4500 -0.0285  0.4977
 7653SOL     OW26456   1.492   0.753   2.731  0.7973 -0.6611  0.6401
 7653SOL    HW126457   1.480   0.792   2.818  1.1262  0.5811  0.1595
 7653SOL    HW226458   1.573   0.792   2.699  0.4951 -0.8380 -0.3693
 7654SOL     OW26459   0.873   7.977   4.914 -0.3183  0.0615 -0.1330
 7654SOL    HW126460   0.906   7.890   4.935 -1.6442 -0.3898  0.1620
 7654SOL    HW226461   0.842   8.012   4.998 -1.4042  0.1030 -0.5381
 7655SOL     OW26462   9.597   3.287   0.424 -0.5884 -0.1372 -0.0646
 7655SOL    HW126463   9.524   3.348   0.418 -0.1266  0.7475  2.3241
 7655SOL    HW226464   9.675   3.342   0.423 -0.0171 -0.9336 -0.8430
 7656SOL     OW26465   5.738   8.994   8.865 -0.1743 -0.1614  0.1435
 7656SOL    HW126466   5.778   8.921   8.817  0.7875 -0.7705  1.7671
 7656SOL    HW226467   5.812   9.041   8.904 -0.8956  0.2970  1.0082
 7657SOL     OW26468   2.884   2.381   0.475  0.3939 -0.2672  0.5753
 7657SOL    HW126469   2.893   2.341   0.561 -1.5760  2.2165  2.0791
 7657SOL    HW226470   2.792   2.364   0.451  1.2633 -2.2314 -1.8594
 7658SOL     OW26471   1.299   7.508   1.637  0.1242  0.4758  0.3278
 7658SOL    HW126472   1.249   7.590   1.634 -2.2046 -0.8574 -0.4991
 7658SOL    HW226473   1.331   7.496   1.547 -1.2998 -0.4411 -0.1057
 7659SOL     OW26474   2.373   9.842   7.871  0.9870  0.2187  0.6887
 7659SOL    HW126475   2.309   9.771   7.864 -0.6234  1.7694 -2.1362
 7659SOL    HW226476   2.447   9.814   7.818  1.3592 -0.2458  1.4261
 7660SOL     OW26477   4.396   2.665   3.101  0.3552  0.4362  0.3973
 7660SOL    HW126478   4.328   2.731   3.085 -0.6925 -0.5566  0.6344
 7660SOL    HW226479   4.465   2.687   3.039 -1.3930 -0.1999 -1.9442
 7661SOL     OW26480   4.780   8.697  10.293 -0.5216  0.3251  0.1009
 7661SOL    HW126481   4.731   8.766  10.248 -1.9435 -0.2259  0.7499
 7661SOL    HW226482   4.755   8.616  10.247  1.2916  0.2098 -0.7942
 7662SOL     OW26483   6.037   0.331  10.279 -0.2287 -0.0850 -0.1794
 7662SOL    HW126484   5.975   0.332  10.352  1.9271  0.4759  1.7743
 7662SOL    HW226485   6.066   0.423  10.271  2.6826 -0.7268  1.2474
 7663SOL     OW26486   8.634   3.297   9.375 -0.1796 -0.1932  0.7751
 7663SOL    HW126487   8.706   3.241   9.349 -0.3664 -0.0115 -0.1705
 7663SOL    HW226488   8.556   3.255   9.338 -0.8568 -1.4649  3.4087
 7664SOL     OW26489   7.258   2.394   5.527 -0.0787 -0.3137  0.1909
 7664SOL    HW126490   7.303   2.477   5.508 -0.0043 -0.6268 -1.1110
 7664SOL    HW226491   7.299   2.363   5.608  0.8613  0.2457 -0.0453
 7665SOL     OW26492   0.730   5.209   2.500  0.2092  0.1400  0.4222
 7665SOL    HW126493   0.802   5.182   2.443 -1.1974 -0.2212 -1.2831
 7665SOL    HW226494   0.710   5.133   2.553  0.5206 -0.0481  0.2686
 7666SOL     OW26495   4.014   8.147   4.885 -0.1006  0.2581  0.2883
 7666SOL    HW126496   4.065   8.215   4.930  1.8811 -1.4080  0.7590
 7666SOL    HW226497   4.027   8.069   4.939 -0.2185 -1.0751 -1.5291
 7667SOL     OW26498   6.360   7.239   7.443 -0.2927  0.4073 -0.5010
 7667SOL    HW126499   6.296   7.287   7.495 -0.1793  1.3374 -1.1922
 7667SOL    HW226500   6.348   7.271   7.354  1.0921  0.5741 -0.6579
 7668SOL     OW26501   5.390   7.840  10.821  0.0247  0.0868  0.0631
 7668SOL    HW126502   5.410   7.886  10.902  0.1909  1.0839 -0.5314
 7668SOL    HW226503   5.475   7.825  10.780 -0.0406 -0.6179  0.1789
 7669SOL     OW26504   4.151   3.930   3.871  0.1688 -0.1880 -0.3332
 7669SOL    HW126505   4.216   3.861   3.856  0.0872 -0.4084  0.2916
 7669SOL    HW226506   4.153   3.983   3.791  0.6553 -0.5691 -0.5789
 7670SOL     OW26507   5.794   9.608   5.706 -0.9357 -0.2268  0.3945
 7670SOL    HW126508   5.742   9.578   5.632 -0.7856  1.0766 -0.2607
 7670SOL    HW226509   5.885   9.588   5.682 -1.0039 -1.3945  1.0136
 7671SOL     OW26510   8.530   2.100   3.196  0.1124  0.0779  0.1599
 7671SOL    HW126511   8.457   2.040   3.209 -1.2603  1.8330  1.1231
 7671SOL    HW226512   8.593   2.077   3.264 -0.3682 -0.2906  0.4856
 7672SOL     OW26513   2.753  10.289   1.894  0.0560 -0.3402 -0.2671
 7672SOL    HW126514   2.747  10.199   1.927  1.6322 -0.6018 -0.5870
 7672SOL    HW226515   2.837  10.321   1.928 -0.6980  1.1991  0.2360
 7673SOL     OW26516   5.823   4.543   5.993  0.3517  0.0261 -0.3293
 7673SOL    HW126517   5.752   4.549   6.057 -1.4319  0.5684 -2.2613
 7673SOL    HW226518   5.812   4.456   5.954 -0.1237  0.6234 -1.5683
 7674SOL     OW26519   0.938   8.681   3.420 -0.0386 -0.6959  0.0198
 7674SOL    HW126520   0.905   8.731   3.495  0.9270 -1.3531  0.8968
 7674SOL    HW226521   0.959   8.748   3.355 -0.5594 -0.0947  0.4468
 7675SOL     OW26522   5.468   4.153   2.207 -0.2602 -0.0510  0.1704
 7675SOL    HW126523   5.533   4.100   2.254  1.1562  1.1764 -0.3526
 7675SOL    HW226524   5.489   4.142   2.115 -2.1445 -1.3005 -0.1664
 7676SOL     OW26525  10.659   7.531   8.672  0.0071 -0.0993 -0.5730
 7676SOL    HW126526  10.594   7.592   8.708 -1.1713 -1.6829  0.1579
 7676SOL    HW226527  10.632   7.519   8.581  0.6828  1.0031 -0.9278
 7677SOL     OW26528   4.307   0.666  10.504  0.0205  0.4924  0.1584
 7677SOL    HW126529   4.278   0.661  10.595 -1.1320 -0.8771 -0.2581
 7677SOL    HW226530   4.314   0.760  10.486 -2.9400  0.9113  0.6946
 7678SOL     OW26531  10.600   6.474  10.151  0.1588 -0.2108  0.2965
 7678SOL    HW126532  10.515   6.432  10.166  0.6981 -1.8891 -1.0260
 7678SOL    HW226533  10.584   6.534  10.078  0.2484 -1.1083 -0.4834
 7679SOL     OW26534   1.286   3.690   1.105 -0.7295  0.2238 -1.1299
 7679SOL    HW126535   1.240   3.762   1.063 -0.4424  0.7452 -0.5617
 7679SOL    HW226536   1.356   3.732   1.156 -0.2320 -0.4842 -1.2072
 7680SOL     OW26537   9.657  10.276   5.793 -0.2466  0.4849 -0.5472
 7680SOL    HW126538   9.720  10.236   5.733  0.0115 -1.0568  0.6904
 7680SOL    HW226539   9.706  10.287   5.875 -1.6530 -1.1966  0.5929
 7681SOL     OW26540   9.319   9.712   3.013 -0.0011 -0.3044 -0.1737
 7681SOL    HW126541   9.352   9.650   2.948 -0.8455  0.5456 -1.4507
 7681SOL    HW226542   9.358   9.683   3.095 -0.9843 -3.0026 -0.5726
 7682SOL     OW26543   0.463   3.673   0.897  0.6452 -0.1671 -0.0301
 7682SOL    HW126544   0.451   3.584   0.930 -0.4059 -0.7562 -1.8571
 7682SOL    HW226545   0.376   3.699   0.864  1.1766  1.1056 -0.5205
 7683SOL     OW26546   7.740   6.784   5.745  0.2325 -0.1893  0.0577
 7683SOL    HW126547   7.714   6.729   5.671  0.5971 -0.0335 -0.1864
 7683SOL    HW226548   7.660   6.792   5.798  0.0807 -0.6503 -0.0964
 7684SOL     OW26549   2.419   1.697   3.708  0.1547  0.1244 -0.3546
 7684SOL    HW126550   2.333   1.656   3.720  1.1976 -2.1906 -0.2492
 7684SOL    HW226551   2.401   1.774   3.653 -1.8778 -0.6776 -0.9156
 7685SOL     OW26552   9.765   5.505   3.542  0.0049 -0.3892  0.3711
 7685SOL    HW126553   9.710   5.577   3.574 -0.2548 -0.2280 -0.4074
 7685SOL    HW226554   9.758   5.511   3.447 -0.3210 -1.6860  0.2948
 7686SOL     OW26555   1.336   6.941   5.611  0.0651  0.0585 -0.1848
 7686SOL    HW126556   1.249   6.929   5.650 -0.2799 -0.0114 -0.9555
 7686SOL    HW226557   1.323   6.925   5.517  0.4140  2.2683 -0.6762
 7687SOL     OW26558   5.981   6.224   0.297 -0.2286  0.8062 -0.5076
 7687SOL    HW126559   6.066   6.188   0.321 -1.5344 -2.3312 -0.1713
 7687SOL    HW226560   5.970   6.201   0.204 -0.9813  0.5514 -0.3674
 7688SOL     OW26561   5.902   3.899  10.076  0.8551  0.2289 -0.7399
 7688SOL    HW126562   5.822   3.948  10.094  1.0007  0.2733 -0.1688
 7688SOL    HW226563   5.878   3.837  10.008 -0.6637 -2.1616  1.7429
 7689SOL     OW26564   0.804   0.222   4.725 -0.0138  0.1086  0.4390
 7689SOL    HW126565   0.779   0.130   4.736 -0.0024 -0.3459 -2.4462
 7689SOL    HW226566   0.786   0.263   4.809 -6.0255 -1.1423  0.1813
 7690SOL     OW26567   1.216   1.627   2.208 -0.1337  0.5304 -0.1267
 7690SOL    HW126568   1.151   1.693   2.233 -0.0547  0.1326  1.1553
 7690SOL    HW226569   1.190   1.601   2.119 -0.7860  1.5071 -0.2418
 7691SOL     OW26570   8.848   3.035   5.353  0.0262 -0.3935 -0.0883
 7691SOL    HW126571   8.915   3.098   5.325 -1.2080  1.5811  1.0816
 7691SOL    HW226572   8.768   3.087   5.359 -0.8275 -1.8124  2.0763
 7692SOL     OW26573   3.877   0.688   4.374 -0.2767 -0.4467 -0.0067
 7692SOL    HW126574   3.887   0.783   4.370 -1.5359 -0.2653  0.5724
 7692SOL    HW226575   3.785   0.674   4.398 -0.3094 -1.8243 -0.7986
 7693SOL     OW26576   4.170   4.961   1.104  0.0426  0.3560 -0.1445
 7693SOL    HW126577   4.081   4.940   1.075 -0.1471 -0.7945  1.1430
 7693SOL    HW226578   4.219   4.881   1.088 -0.0217 -0.2832  2.3461
 7694SOL     OW26579  10.466   5.896   8.049 -0.5645 -0.1947 -0.7424
 7694SOL    HW126580  10.514   5.979   8.057 -0.8404  0.0770 -1.8597
 7694SOL    HW226581  10.385   5.919   8.004 -0.3899 -1.1590 -1.5742
 7695SOL     OW26582   0.860   6.503   0.506 -0.3476  0.3406  0.3835
 7695SOL    HW126583   0.860   6.414   0.539 -0.6852  0.7024  1.4125
 7695SOL    HW226584   0.924   6.549   0.560 -0.6214  0.8574  0.2766
 7696SOL     OW26585   4.053   0.491   4.503  0.1414  0.1373  0.0125
 7696SOL    HW126586   4.114   0.481   4.430  0.2491  0.9170 -0.0084
 7696SOL    HW226587   3.979   0.540   4.466 -0.3772 -0.5392  0.1124
 7697SOL     OW26588   2.134   9.666   0.642  0.0058  0.5464  0.6191
 7697SOL    HW126589   2.057   9.716   0.616 -0.8119 -0.0038  1.9170
 7697SOL    HW226590   2.160   9.702   0.727 -0.7889 -1.3861  1.7356
 7698SOL     OW26591   9.442  10.467   5.020  0.2600  0.1360  0.3958
 7698SOL    HW126592   9.530  10.474   4.983  0.1609  1.5574  0.3411
 7698SOL    HW226593   9.386  10.514   4.957 -0.2938  0.4874  1.1300
 7699SOL     OW26594   9.909   8.254   8.407 -0.1942 -0.3701  0.3534
 7699SOL    HW126595   9.926   8.266   8.313 -0.2404 -2.0799  0.1003
 7699SOL    HW226596   9.880   8.163   8.415  0.2156 -0.3816  2.0902
 7700SOL     OW26597   0.585   9.319  10.024 -0.3107 -0.3308  0.1263
 7700SOL    HW126598   0.525   9.299   9.952 -0.3866  0.2237  0.0291
 7700SOL    HW226599   0.618   9.407  10.004 -0.1609 -0.2635  0.6520
 7701SOL     OW26600   0.587   8.862   1.473  0.3477 -0.0296 -0.7154
 7701SOL    HW126601   0.646   8.931   1.505  0.1181  0.3947 -1.1949
 7701SOL    HW226602   0.552   8.897   1.391 -2.8823  1.0531  0.9428
 7702SOL     OW26603  10.575   5.394   7.459  0.3036 -0.3453 -0.2838
 7702SOL    HW126604  10.645   5.459   7.470  0.7246 -1.0902  1.9410
 7702SOL    HW226605  10.494   5.443   7.471  0.3177  0.5951 -3.2138
 7703SOL     OW26606   6.585  10.700   5.173  0.0511  0.8852 -0.0679
 7703SOL    HW126607   6.563  10.774   5.230 -0.0998  2.6705 -2.3020
 7703SOL    HW226608   6.671  10.723   5.137  0.1954 -0.2519 -0.4812
 7704SOL     OW26609   1.417   7.544   9.188  0.1128 -0.4801 -0.0577
 7704SOL    HW126610   1.465   7.623   9.164 -0.1999  1.1303  3.8044
 7704SOL    HW226611   1.484   7.476   9.195  1.0235  0.4223  0.1979
 7705SOL     OW26612   3.599   4.408   5.646  0.5129  0.3417  0.3239
 7705SOL    HW126613   3.593   4.425   5.740  0.4167 -1.3336  0.6514
 7705SOL    HW226614   3.594   4.312   5.638  2.9901  0.2232 -1.1672
 7706SOL     OW26615   5.210   6.201   2.738 -0.0400  0.3096  0.3102
 7706SOL    HW126616   5.300   6.235   2.740  0.2732 -0.5202  0.6471
 7706SOL    HW226617   5.156   6.278   2.756  0.6301  0.7296  0.5991
 7707SOL     OW26618   8.459   4.524   8.485 -0.1650 -0.1232 -0.3005
 7707SOL    HW126619   8.500   4.438   8.495  1.1419  0.6690  1.8468
 7707SOL    HW226620   8.467   4.543   8.392  2.5195 -0.9474 -0.3394
 7708SOL     OW26621   8.840   0.684   6.993 -0.5381 -0.2626 -0.1146
 7708SOL    HW126622   8.783   0.728   7.056 -0.6810 -1.6588  0.7660
 7708SOL    HW226623   8.782   0.662   6.920 -0.8536 -0.5544  0.2200
 7709SOL     OW26624   3.842   4.018   2.752 -0.1066  0.0817  0.1838
 7709SOL    HW126625   3.938   4.021   2.748 -0.0058 -2.2787 -1.1840
 7709SOL    HW226626   3.823   3.940   2.805 -1.3513  1.4517  1.8906
 7710SOL     OW26627   2.737   5.152   2.243  0.6348  0.2769 -0.7272
 7710SOL    HW126628   2.680   5.165   2.167 -1.8615  2.7229  1.3561
 7710SOL    HW226629   2.786   5.233   2.250 -0.3250  0.7543  1.0941
 7711SOL     OW26630   7.388   8.442   0.936 -0.1243 -0.0393 -0.3256
 7711SOL    HW126631   7.378   8.466   1.028  2.1819  1.0051 -0.2857
 7711SOL    HW226632   7.299   8.438   0.902 -0.9432  1.2780  1.5302
 7712SOL     OW26633   6.939   8.204  10.444 -0.2875 -0.1288 -0.1421
 7712SOL    HW126634   7.007   8.205  10.376 -1.0107 -2.9176 -1.0647
 7712SOL    HW226635   6.986   8.190  10.526  0.3406 -1.4977 -0.7086
 7713SOL     OW26636   2.460   3.096  10.698 -0.1933 -0.2535  0.2343
 7713SOL    HW126637   2.419   3.070  10.780  0.4456 -0.6696  0.4294
 7713SOL    HW226638   2.531   3.033  10.686 -0.1845 -0.1034 -0.5576
 7714SOL     OW26639   8.388   3.002   9.440  0.3507 -0.8491  0.6569
 7714SOL    HW126640   8.415   3.075   9.495  2.1877  0.5868 -1.8958
 7714SOL    HW226641   8.382   3.040   9.352  1.8530 -3.8419 -0.8787
 7715SOL     OW26642   5.754   4.147   9.127  0.3541  0.3926 -0.1224
 7715SOL    HW126643   5.716   4.087   9.191 -0.6952 -0.2504 -1.3078
 7715SOL    HW226644   5.838   4.173   9.166  0.0875 -0.5608  1.1560
 7716SOL     OW26645   1.421   9.117   3.406  0.2575 -1.0433  0.1603
 7716SOL    HW126646   1.372   9.165   3.340 -0.2312  0.7445  1.7274
 7716SOL    HW226647   1.370   9.037   3.422 -1.1655 -0.0976  0.4295
 7717SOL     OW26648   5.971   5.430   1.567  0.3459  0.5812 -0.6845
 7717SOL    HW126649   5.922   5.358   1.606  1.9186 -0.4279 -0.5208
 7717SOL    HW226650   5.986   5.404   1.477  0.2319  1.0904 -0.8583
 7718SOL     OW26651   4.159   3.228   7.297 -0.2606  0.3211 -0.6857
 7718SOL    HW126652   4.200   3.262   7.217 -0.0386 -0.4611 -0.9185
 7718SOL    HW226653   4.112   3.150   7.267 -1.8457  1.1135 -0.4072
 7719SOL     OW26654   7.492   5.359   4.930 -0.4900  0.0447  0.0667
 7719SOL    HW126655   7.448   5.382   5.012 -0.6135 -0.8164  0.2519
 7719SOL    HW226656   7.464   5.269   4.912  0.1171 -0.0311 -0.5386
 7720SOL     OW26657   1.903   4.676   0.047  0.0266  0.1418 -0.4542
 7720SOL    HW126658   1.840   4.667  -0.025  0.4454 -0.4265 -0.7467
 7720SOL    HW226659   1.860   4.633   0.121 -0.6753  1.2601 -0.1787
 7721SOL     OW26660   9.688   7.111   9.407 -0.0972  0.2797 -0.4439
 7721SOL    HW126661   9.640   7.167   9.468 -0.5147 -0.8796  0.3124
 7721SOL    HW226662   9.774   7.101   9.447 -0.1188  0.1321 -0.4355
 7722SOL     OW26663   8.341   1.582   0.793  0.3594  0.4775  0.2175
 7722SOL    HW126664   8.380   1.495   0.781  1.3537  0.9514 -0.0906
 7722SOL    HW226665   8.283   1.572   0.868 -0.9377 -0.9118 -0.8918
 7723SOL     OW26666   1.657   8.840   1.424  0.0594 -0.3272 -0.0972
 7723SOL    HW126667   1.631   8.899   1.496  1.8583 -1.3839  1.5232
 7723SOL    HW226668   1.701   8.897   1.361  0.0281  0.3691  0.4978
 7724SOL     OW26669   8.312   4.669   8.668 -0.0025  0.1893 -0.1305
 7724SOL    HW126670   8.227   4.635   8.642 -0.7233  1.0198  1.0386
 7724SOL    HW226671   8.372   4.639   8.600 -1.2491 -0.2662 -1.0617
 7725SOL     OW26672   8.657   1.744   6.289  0.2939 -0.2183  0.3031
 7725SOL    HW126673   8.704   1.744   6.206 -0.3002  0.4777 -0.0449
 7725SOL    HW226674   8.579   1.690   6.272 -1.2658  2.0953 -0.4781
 7726SOL     OW26675   2.637   4.124   5.214 -0.7941 -0.3237  0.1436
 7726SOL    HW126676   2.578   4.056   5.182 -1.3148  0.0449  0.3145
 7726SOL    HW226677   2.638   4.190   5.145  0.3589 -0.8729 -0.3939
 7727SOL     OW26678  10.941   2.572   5.592 -0.2079  0.5392  0.2549
 7727SOL    HW126679  11.018   2.520   5.616 -0.1161  1.0994  1.2003
 7727SOL    HW226680  10.940   2.570   5.497  0.2437 -0.5398  0.2536
 7728SOL     OW26681   5.974   6.949   4.191  0.2760 -0.5487 -0.2973
 7728SOL    HW126682   5.901   6.892   4.168  0.0531  1.0753 -4.3647
 7728SOL    HW226683   6.028   6.953   4.112  1.6029  2.8431  0.5918
 7729SOL     OW26684   4.181   7.707   8.116 -0.0345 -0.4861 -0.2601
 7729SOL    HW126685   4.175   7.621   8.159 -0.1182 -0.3133  0.0788
 7729SOL    HW226686   4.091   7.731   8.097 -0.0706 -0.1565  0.2894
 7730SOL     OW26687   2.068   9.940   9.659 -0.0488 -0.0821  0.2822
 7730SOL    HW126688   2.036  10.013   9.606  0.8725 -0.2113 -0.4822
 7730SOL    HW226689   2.001   9.929   9.727 -0.0782  1.6380  0.5862
 7731SOL     OW26690   5.253   4.321  10.541  1.0193  0.1592 -0.5162
 7731SOL    HW126691   5.199   4.293  10.468 -1.1892  1.3750  0.5628
 7731SOL    HW226692   5.239   4.416  10.546  1.2949  0.1417  1.3174
 7732SOL     OW26693   7.057   1.691   6.786  0.1319  0.1880 -0.4022
 7732SOL    HW126694   7.067   1.602   6.820 -0.1644  0.5989  0.8051
 7732SOL    HW226695   7.051   1.746   6.864 -1.6706  1.0486 -1.0919
 7733SOL     OW26696   1.457   4.202   1.632  0.4363  0.5808 -0.0791
 7733SOL    HW126697   1.474   4.130   1.571 -0.2507  0.0105  0.3918
 7733SOL    HW226698   1.501   4.277   1.593  0.2714  0.1516 -1.1137
 7734SOL     OW26699   2.690   8.486  10.543 -0.5477  0.1298 -0.1397
 7734SOL    HW126700   2.617   8.426  10.543 -1.1740  0.8599  0.9649
 7734SOL    HW226701   2.761   8.438  10.500 -1.3583 -0.9520 -0.3015
 7735SOL     OW26702   7.351   9.915   3.101 -0.0107 -0.7368 -0.0823
 7735SOL    HW126703   7.382  10.005   3.105  1.1378 -1.0826 -0.6468
 7735SOL    HW226704   7.259   9.920   3.124 -0.1937  0.7038 -0.9810
 7736SOL     OW26705   4.303   7.163   7.367  0.0488  0.8225  0.5160
 7736SOL    HW126706   4.291   7.101   7.296  1.2229 -0.2268  1.1862
 7736SOL    HW226707   4.343   7.240   7.326 -0.4236  0.7132 -0.1524
 7737SOL     OW26708   9.026   1.801   4.585 -0.0939 -0.4804 -0.1988
 7737SOL    HW126709   9.111   1.763   4.608  0.6215  1.6602  1.0594
 7737SOL    HW226710   8.997   1.845   4.665 -1.0955  1.0932 -1.3478
 7738SOL     OW26711  10.540   4.729   2.890 -0.1166 -0.1667 -0.1206
 7738SOL    HW126712  10.559   4.823   2.883  1.1677 -0.4367 -0.6401
 7738SOL    HW226713  10.613   4.694   2.942 -2.2227 -0.4197  2.8675
 7739SOL     OW26714   6.363   1.037   6.964  0.5502 -0.1871  0.0462
 7739SOL    HW126715   6.388   1.042   7.056 -0.5102 -1.1299  0.4124
 7739SOL    HW226716   6.407   1.112   6.923  1.8353 -0.3251  1.1104
 7740SOL     OW26717   0.134   7.130   6.929 -0.4242 -0.0437 -0.4816
 7740SOL    HW126718   0.181   7.104   7.009 -0.9754  1.1821  0.2757
 7740SOL    HW226719   0.083   7.053   6.906 -0.8039 -0.1978  0.7762
 7741SOL     OW26720   0.754  10.380   4.126  0.2509  0.1629 -0.7430
 7741SOL    HW126721   0.666  10.415   4.116  0.2318  0.0144 -1.1400
 7741SOL    HW226722   0.743  10.285   4.122  0.3838  0.1329 -0.3999
 7742SOL     OW26723   4.385   3.101  10.715  0.0328 -0.2594  0.2419
 7742SOL    HW126724   4.358   3.148  10.794 -1.5079  2.1668 -1.5897
 7742SOL    HW226725   4.319   3.033  10.704  0.2452 -0.5973  1.0043
 7743SOL     OW26726   7.864   3.956   8.618  0.1071  0.1043  0.1740
 7743SOL    HW126727   7.950   3.922   8.592  1.4327  0.6741  3.3212
 7743SOL    HW226728   7.822   3.882   8.662 -0.2668  0.3306  0.1971
 7744SOL     OW26729   6.262   0.380   1.971 -0.3947  0.3812  0.2561
 7744SOL    HW126730   6.330   0.396   1.905  0.0457 -1.1876  0.2659
 7744SOL    HW226731   6.189   0.343   1.922  0.1333 -1.3068  0.6458
 7745SOL     OW26732   5.411  10.957   4.292 -0.0133 -0.2094  0.2375
 7745SOL    HW126733   5.421  10.936   4.384 -0.2649  0.6545  0.4754
 7745SOL    HW226734   5.446  11.046   4.284  1.0370 -0.6848 -0.7139
 7746SOL     OW26735   1.598   3.192   8.937 -0.1545 -0.4438 -0.0998
 7746SOL    HW126736   1.585   3.182   9.032 -1.0662 -0.4602 -0.2229
 7746SOL    HW226737   1.657   3.121   8.914  0.1855 -0.3579  0.4795
 7747SOL     OW26738   5.511   2.529   6.520 -0.0195  0.4284  0.2285
 7747SOL    HW126739   5.537   2.605   6.467  2.0740 -1.1076 -1.0922
 7747SOL    HW226740   5.593   2.485   6.541 -1.1911 -1.6886  0.6502
 7748SOL     OW26741  10.201   7.467   7.924  0.2125 -1.2141  0.5016
 7748SOL    HW126742  10.118   7.438   7.961  0.1470 -2.4343 -0.5014
 7748SOL    HW226743  10.263   7.399   7.951  0.6440 -0.8915  0.3236
 7749SOL     OW26744   0.288   8.174  10.511  0.5665 -0.3466  0.5348
 7749SOL    HW126745   0.256   8.162  10.422  1.2989  0.4922  0.1436
 7749SOL    HW226746   0.382   8.190  10.501  0.6049  0.0674  1.4241
 7750SOL     OW26747   3.539   4.381  10.479  0.0836 -0.0446 -0.1565
 7750SOL    HW126748   3.588   4.305  10.511  2.2312  0.8897 -1.0287
 7750SOL    HW226749   3.504   4.354  10.395  0.6155 -0.1705 -0.3401
 7751SOL     OW26750   1.120   0.122   4.476 -0.0537 -0.0232  0.0504
 7751SOL    HW126751   1.124   0.099   4.569  0.5574  0.4276  0.1435
 7751SOL    HW226752   1.075   0.048   4.435 -1.8493  0.5251  0.9315
 7752SOL     OW26753   4.796   4.179   3.278 -0.1422  0.8991 -0.0810
 7752SOL    HW126754   4.760   4.258   3.317 -1.5209  0.7390 -0.9555
 7752SOL    HW226755   4.839   4.209   3.198 -0.6104  0.7809 -0.3802
 7753SOL     OW26756  10.445   1.666   8.743  0.4929 -0.1140 -0.1413
 7753SOL    HW126757  10.444   1.729   8.672  0.7602 -0.7457 -0.7129
 7753SOL    HW226758  10.537   1.647   8.757  0.3823 -1.0170 -0.5555
 7754SOL     OW26759   3.938   7.432  10.326 -0.1770 -0.0686  0.1639
 7754SOL    HW126760   3.889   7.513  10.318 -0.4707 -0.3257 -0.7563
 7754SOL    HW226761   4.013   7.455  10.381 -1.2025  0.3752  1.4400
 7755SOL     OW26762   9.031   5.503   8.829  0.4341 -0.3977  0.0848
 7755SOL    HW126763   8.941   5.472   8.815  0.2369  1.1434 -2.6165
 7755SOL    HW226764   9.080   5.469   8.754  1.6923  0.2927  0.5755
 7756SOL     OW26765   4.599  10.761   6.933 -0.7839 -0.1097 -0.5335
 7756SOL    HW126766   4.672  10.822   6.922 -1.4677  0.7016 -0.7108
 7756SOL    HW226767   4.627  10.681   6.889  0.2311 -0.0137 -0.0774
 7757SOL     OW26768   1.651   7.987   9.283 -0.4051  0.7085  0.6708
 7757SOL    HW126769   1.659   8.020   9.372  1.3019 -0.2130  0.9140
 7757SOL    HW226770   1.740   7.990   9.248 -0.2769 -2.6100  0.3878
 7758SOL     OW26771   0.889   3.653   7.025 -0.0012 -0.4852  0.4316
 7758SOL    HW126772   0.869   3.714   7.097  1.5966  0.3068  0.2463
 7758SOL    HW226773   0.804   3.637   6.983 -0.1840  4.1478 -1.4922
 7759SOL     OW26774   2.300   0.570   1.756  0.1736 -0.7735 -0.1214
 7759SOL    HW126775   2.249   0.570   1.836  0.3866  0.4912  0.0347
 7759SOL    HW226776   2.239   0.544   1.688  0.1398 -2.4656  0.5223
 7760SOL     OW26777   5.982   8.750   1.175 -0.0416 -0.1341 -0.7259
 7760SOL    HW126778   5.939   8.746   1.261  2.1899 -2.0144  0.4273
 7760SOL    HW226779   6.071   8.777   1.194  0.3700 -0.0644 -2.5509
 7761SOL     OW26780   4.760   0.788   3.743 -0.0804 -0.1018  0.4366
 7761SOL    HW126781   4.807   0.712   3.708  2.0623  0.7146  1.3561
 7761SOL    HW226782   4.770   0.856   3.677  1.4268  0.5350  1.2667
 7762SOL     OW26783   1.517   7.477  10.042  0.2489  0.0939  0.3715
 7762SOL    HW126784   1.572   7.445   9.971 -1.1563 -0.9665 -0.2942
 7762SOL    HW226785   1.514   7.405  10.105 -0.4431  0.0838  0.3409
 7763SOL     OW26786   1.353  10.235   2.936 -0.1498  0.1077  0.0286
 7763SOL    HW126787   1.370  10.305   2.999 -1.9396  0.4114  0.2396
 7763SOL    HW226788   1.301  10.277   2.868  0.5570 -0.5547 -0.9444
 7764SOL     OW26789   5.736  10.955   3.500  0.2287  0.6637 -0.1252
 7764SOL    HW126790   5.675  10.990   3.435  0.1387  0.8022  0.0323
 7764SOL    HW226791   5.821  10.954   3.456 -0.0166 -0.2287 -0.6010
 7765SOL     OW26792   6.710  10.880   6.286 -0.1109  0.7351  0.2877
 7765SOL    HW126793   6.658  10.859   6.364 -1.4487  0.3457 -0.6806
 7765SOL    HW226794   6.799  10.853   6.310 -0.7981 -1.0010  1.0766
 7766SOL     OW26795   3.120   0.447   2.783  0.1990 -0.3132  0.2415
 7766SOL    HW126796   3.054   0.484   2.841 -0.0246 -1.3179  0.6411
 7766SOL    HW226797   3.175   0.522   2.759 -2.3752  1.0551 -1.9519
 7767SOL     OW26798   3.950   7.815   7.982 -0.0498  0.8267 -0.0259
 7767SOL    HW126799   3.961   7.752   7.911 -0.5841  0.4933  0.1861
 7767SOL    HW226800   3.866   7.793   8.022  0.7003  0.3310  1.3688
 7768SOL     OW26801   0.495   2.888   4.503 -0.1085  0.1263  0.1862
 7768SOL    HW126802   0.416   2.840   4.478  0.2918 -0.1231 -0.6328
 7768SOL    HW226803   0.492   2.890   4.599 -2.2221  2.0065  0.1497
 7769SOL     OW26804   8.335   5.757   7.659 -0.6859 -0.3709 -0.6316
 7769SOL    HW126805   8.399   5.812   7.704  0.1965 -0.7277 -1.4038
 7769SOL    HW226806   8.250   5.793   7.684 -0.1348  1.4344 -1.2131
 7770SOL     OW26807   6.025   3.115   5.370 -0.5346 -0.3142 -0.0186
 7770SOL    HW126808   6.079   3.121   5.290  0.8905  1.5165  1.0118
 7770SOL    HW226809   6.004   3.205   5.392 -1.9024 -0.8690  1.0649
 7771SOL     OW26810   7.575   0.417   4.427  0.3357 -0.0929  0.3622
 7771SOL    HW126811   7.546   0.506   4.447 -0.7023 -0.5068  0.7170
 7771SOL    HW226812   7.499   0.362   4.443  0.9716 -1.0572  0.1540
 7772SOL     OW26813   6.121   7.010   2.184  0.8093  0.1609 -0.0238
 7772SOL    HW126814   6.044   6.961   2.213  1.5510 -1.4107 -0.5876
 7772SOL    HW226815   6.110   7.018   2.089  0.4910  1.5028  0.1087
 7773SOL     OW26816   7.486   7.089   4.674  0.0942 -0.2110  0.5629
 7773SOL    HW126817   7.506   6.995   4.678  0.3873 -0.1663  0.2200
 7773SOL    HW226818   7.543   7.123   4.604 -1.9319 -0.2798 -1.2507
 7774SOL     OW26819   2.470   7.977  10.881 -0.4241  0.0648  0.5875
 7774SOL    HW126820   2.444   7.989  10.973 -0.8072 -2.1183  0.8239
 7774SOL    HW226821   2.399   8.015  10.830 -0.7427  0.3025  1.2034
 7775SOL     OW26822   1.586   1.644   2.131  0.3321  0.4371  0.0822
 7775SOL    HW126823   1.543   1.686   2.206 -0.8834  0.9215 -0.8563
 7775SOL    HW226824   1.602   1.715   2.069 -0.8828 -0.2817 -1.1198
 7776SOL     OW26825   1.333   9.882   9.679 -1.2553  0.0265 -0.1243
 7776SOL    HW126826   1.323   9.825   9.755 -3.0315 -0.7791 -0.9088
 7776SOL    HW226827   1.244   9.910   9.658 -0.8202  0.1980 -1.9075
 7777SOL     OW26828   5.789  10.318   7.683 -0.0791 -0.1196 -0.2465
 7777SOL    HW126829   5.771  10.244   7.625 -1.7574  1.7094 -2.2397
 7777SOL    HW226830   5.860  10.366   7.640  0.3802 -0.0799  0.5434
 7778SOL     OW26831   5.311   1.562   3.366 -0.2194 -0.6703 -0.3146
 7778SOL    HW126832   5.395   1.588   3.329 -0.7551  0.5442 -0.7257
 7778SOL    HW226833   5.247   1.589   3.300 -1.0968  0.4051  0.9473
 7779SOL     OW26834   1.219   9.332   6.937  0.4546  0.1207 -0.0109
 7779SOL    HW126835   1.266   9.284   6.869  0.3601 -0.0958  0.0787
 7779SOL    HW226836   1.185   9.265   6.995 -1.6444  0.1259 -1.1299
 7780SOL     OW26837   5.290   1.371   8.953  0.1909  0.4901 -0.8906
 7780SOL    HW126838   5.251   1.388   8.867 -0.5544  1.4884 -0.3772
 7780SOL    HW226839   5.331   1.454   8.978 -1.5928  0.9766  0.6961
 7781SOL     OW26840   7.869   4.416   8.504  0.8081  0.1659  0.4241
 7781SOL    HW126841   7.847   4.329   8.537  3.5650 -1.0955 -0.7355
 7781SOL    HW226842   7.795   4.471   8.530 -0.5334 -2.2594  2.1534
 7782SOL     OW26843   4.270   7.147   8.044  0.3911 -0.2023 -0.2842
 7782SOL    HW126844   4.244   7.239   8.043  0.2370 -0.2427  0.0207
 7782SOL    HW226845   4.268   7.121   7.951 -2.7424 -0.7734 -0.1638
 7783SOL     OW26846   4.446   3.664   8.675  0.1431  0.4984 -0.6106
 7783SOL    HW126847   4.480   3.650   8.763 -1.1988 -0.1197 -0.1563
 7783SOL    HW226848   4.506   3.728   8.635 -0.6571  2.8604  1.6616
 7784SOL     OW26849   7.814   1.295   4.023  0.8040  0.0977  0.2218
 7784SOL    HW126850   7.831   1.229   4.090 -0.8223 -2.7184 -1.9003
 7784SOL    HW226851   7.724   1.322   4.038  0.8702  0.4514 -0.0111
 7785SOL     OW26852   5.317   5.078   1.181 -0.3684 -0.2694 -0.1036
 7785SOL    HW126853   5.301   5.045   1.270 -0.8004 -0.2947 -0.1879
 7785SOL    HW226854   5.251   5.034   1.127  0.6663 -1.1974 -0.6499
 7786SOL     OW26855  10.076   2.711   3.190 -0.6195  0.2057 -0.2111
 7786SOL    HW126856  10.017   2.701   3.115  1.1566 -0.5512 -1.5700
 7786SOL    HW226857  10.136   2.780   3.164 -1.7109  2.0176  1.7641
 7787SOL     OW26858   5.936   5.631  10.163  0.3326  0.0765 -0.0591
 7787SOL    HW126859   5.915   5.698  10.229 -0.8404  1.8789 -2.0968
 7787SOL    HW226860   5.856   5.578  10.157  1.8270 -2.8043  2.7719
 7788SOL     OW26861   8.716   3.797   7.748 -0.2044  0.2530  0.3472
 7788SOL    HW126862   8.720   3.892   7.745 -1.3424  0.2862 -1.1703
 7788SOL    HW226863   8.681   3.771   7.663 -1.2684 -1.4412  1.2378
 7789SOL     OW26864   8.878   6.798   8.547  0.5751  0.6759 -0.1886
 7789SOL    HW126865   8.800   6.827   8.499  0.2541  1.4191  0.7521
 7789SOL    HW226866   8.913   6.877   8.587 -1.0339 -0.2197  3.4756
 7790SOL     OW26867   5.126   1.752   6.345  0.1127  0.3876 -0.5158
 7790SOL    HW126868   5.149   1.714   6.430 -0.2380 -0.9722 -1.0122
 7790SOL    HW226869   5.162   1.691   6.280 -1.1270  0.4949 -1.3290
 7791SOL     OW26870   6.468   8.699   6.384  0.1916 -0.3141  0.3613
 7791SOL    HW126871   6.452   8.604   6.383  0.4154 -0.3700 -1.8355
 7791SOL    HW226872   6.382   8.737   6.404 -0.3206 -0.9564 -0.5304
 7792SOL     OW26873   8.294   3.340   0.229  0.3684 -0.0474  0.0141
 7792SOL    HW126874   8.338   3.284   0.293 -1.1213 -0.0580  1.0703
 7792SOL    HW226875   8.322   3.429   0.251 -1.6893  0.1902  2.0905
 7793SOL     OW26876  10.505   7.228   6.943 -0.9458 -0.2645 -0.4341
 7793SOL    HW126877  10.599   7.226   6.922 -0.5534 -3.0548  1.0256
 7793SOL    HW226878  10.496   7.303   7.002  0.3231  0.2273 -0.8184
 7794SOL     OW26879   0.830   7.745   8.400 -0.0324 -0.2146  0.4050
 7794SOL    HW126880   0.759   7.688   8.428 -0.9324  0.8803  0.4374
 7794SOL    HW226881   0.795   7.793   8.325 -0.0007  1.6420  1.5089
 7795SOL     OW26882   3.708  10.915   4.239 -0.1284  0.1278 -0.0205
 7795SOL    HW126883   3.724  10.820   4.244 -0.5017  0.0866  0.4963
 7795SOL    HW226884   3.716  10.945   4.330  0.7886  0.7277 -0.2825
 7796SOL     OW26885   2.428   3.334   4.676 -0.5253 -0.1786  0.6098
 7796SOL    HW126886   2.427   3.323   4.581 -1.5854 -1.0707  0.7045
 7796SOL    HW226887   2.360   3.400   4.693  0.6313  1.0293  0.6503
 7797SOL     OW26888   2.615   2.598   9.648 -0.4705 -0.2534 -0.4179
 7797SOL    HW126889   2.659   2.615   9.731 -1.5750  0.8912 -0.0439
 7797SOL    HW226890   2.529   2.565   9.672 -0.4435 -0.8696 -1.1319
 7798SOL     OW26891   1.561  10.940   8.296  0.7654 -0.8177 -0.4395
 7798SOL    HW126892   1.624  11.009   8.274  0.4176 -0.7550 -1.2909
 7798SOL    HW226893   1.532  10.907   8.211 -0.7871 -0.4553 -0.0844
 7799SOL     OW26894  10.734   9.158   7.233 -0.2134 -0.1408 -0.0486
 7799SOL    HW126895  10.815   9.176   7.184 -0.9831  1.3395 -0.8321
 7799SOL    HW226896  10.740   9.215   7.310 -0.0308 -0.8170  0.4404
 7800SOL     OW26897   7.626   3.659   1.831  0.0308 -0.2517 -0.5561
 7800SOL    HW126898   7.695   3.654   1.897  0.3968 -0.3153 -0.9350
 7800SOL    HW226899   7.544   3.656   1.880  0.3029  0.5076 -0.0601
 7801SOL     OW26900   5.378   4.640   4.146 -0.3740  0.1658 -0.1199
 7801SOL    HW126901   5.450   4.592   4.188 -0.2083  1.0203  0.6044
 7801SOL    HW226902   5.341   4.578   4.083 -0.4707 -1.0728  1.1224
 7802SOL     OW26903   2.893   7.571   5.257 -0.3421  0.3782 -1.0922
 7802SOL    HW126904   2.836   7.543   5.328 -0.2666  2.3338 -0.2100
 7802SOL    HW226905   2.977   7.528   5.275 -1.4480 -2.5893 -2.4514
 7803SOL     OW26906   5.797  10.299   7.230 -0.1412  0.2284 -0.0950
 7803SOL    HW126907   5.755  10.283   7.315 -1.5144  1.6494 -0.4633
 7803SOL    HW226908   5.737  10.263   7.166 -1.4440  3.1877 -0.6965
 7804SOL     OW26909   5.265   3.736   9.930 -0.3510  0.0365  0.0888
 7804SOL    HW126910   5.327   3.669   9.958 -0.1410  0.4009  0.5120
 7804SOL    HW226911   5.312   3.785   9.863  0.1646  0.8693  1.0292
 7805SOL     OW26912   3.522   1.414   0.342 -0.4027  0.6201  0.0142
 7805SOL    HW126913   3.454   1.349   0.358  0.0112  0.3728  0.8147
 7805SOL    HW226914   3.488   1.494   0.382 -0.1654  0.4600  0.5422
 7806SOL     OW26915   1.834   1.066   4.950 -0.1519  0.3935  0.3091
 7806SOL    HW126916   1.769   1.086   4.883  0.3122  0.1610 -0.2144
 7806SOL    HW226917   1.910   1.035   4.902  0.3824  0.7456  0.9133
 7807SOL     OW26918   9.788   2.144   1.157 -0.3576 -0.3265  0.0679
 7807SOL    HW126919   9.809   2.055   1.129  0.6485 -0.0516 -0.0856
 7807SOL    HW226920   9.693   2.151   1.147 -0.1962 -0.6592 -2.0779
 7808SOL     OW26921   8.507   5.210   3.903 -0.0681 -0.8404  0.5478
 7808SOL    HW126922   8.565   5.181   3.832  0.1811 -1.1520  0.8726
 7808SOL    HW226923   8.567   5.235   3.973 -0.3062 -0.2060  0.5283
 7809SOL     OW26924   9.104   1.957   4.153 -0.4603 -0.0195 -0.3301
 7809SOL    HW126925   9.131   2.000   4.234  0.2192 -0.6051 -0.2485
 7809SOL    HW226926   9.180   1.964   4.095 -0.9824  0.5069 -0.9761
 7810SOL     OW26927   6.718   3.044   9.616  0.0068  0.1904  0.0069
 7810SOL    HW126928   6.641   2.988   9.608  1.0712 -1.2881 -0.3907
 7810SOL    HW226929   6.724   3.063   9.710 -1.0095  0.6013 -0.0010
 7811SOL     OW26930   9.880   3.167   4.365 -0.2131  0.4474  0.0552
 7811SOL    HW126931   9.856   3.183   4.273  1.1914  0.6185 -0.3027
 7811SOL    HW226932   9.816   3.217   4.415 -2.8427 -1.9211 -0.6814
 7812SOL     OW26933   4.764   2.763  10.459 -0.1686  0.0837  0.1136
 7812SOL    HW126934   4.835   2.716  10.414  0.4202  1.0531 -0.0034
 7812SOL    HW226935   4.689   2.704  10.454  0.3641 -0.5511 -0.6300
 7813SOL     OW26936   7.118   6.538   0.933  0.5179 -0.2711 -0.5278
 7813SOL    HW126937   7.046   6.556   0.872  0.0253 -2.3374 -0.6128
 7813SOL    HW226938   7.079   6.544   1.019 -0.1280 -2.5538 -0.5954
 7814SOL     OW26939   4.882  10.102   1.827 -0.0166 -0.0542  0.3237
 7814SOL    HW126940   4.863  10.148   1.909  0.0598  0.2128  0.1925
 7814SOL    HW226941   4.856  10.163   1.758  2.3977  0.8675  0.1015
 7815SOL     OW26942   3.523   9.093  10.540 -0.0170  0.1769 -0.3578
 7815SOL    HW126943   3.527   9.031  10.613  1.5880  0.8470  0.1555
 7815SOL    HW226944   3.535   9.179  10.581  0.4316  0.6021 -1.3557
 7816SOL     OW26945   8.733   5.463   9.236  0.4941  0.1741  0.2494
 7816SOL    HW126946   8.808   5.421   9.193 -0.3165 -0.9660 -0.0843
 7816SOL    HW226947   8.712   5.538   9.179  1.7858  0.9166  0.7090
 7817SOL     OW26948   4.532   6.110   2.904 -0.0243  0.1282  0.1719
 7817SOL    HW126949   4.478   6.044   2.860 -0.3540  0.0410  0.6889
 7817SOL    HW226950   4.617   6.067   2.915 -0.2161 -0.1962  0.4431
 7818SOL     OW26951   5.236   8.573   3.730 -0.2256 -0.1246  0.3451
 7818SOL    HW126952   5.238   8.667   3.718  2.7685  0.1435  2.0322
 7818SOL    HW226953   5.180   8.560   3.807  0.1672  0.3856  0.7227
 7819SOL     OW26954   3.653   4.177   7.275 -0.4180  0.4298  0.6192
 7819SOL    HW126955   3.691   4.203   7.192  1.9844 -0.8943  1.2052
 7819SOL    HW226956   3.560   4.169   7.258 -0.0266  0.5510 -1.8277
 7820SOL     OW26957  10.141   7.618  10.282  0.2208 -0.1783 -0.0937
 7820SOL    HW126958  10.154   7.585  10.370  1.9892  0.6275  0.0059
 7820SOL    HW226959  10.130   7.713  10.293 -0.5453 -0.1865 -0.6727
 7821SOL     OW26960   9.432   6.630   3.405  0.4214 -0.4561 -0.5803
 7821SOL    HW126961   9.395   6.547   3.434  0.1260  0.0463  0.5144
 7821SOL    HW226962   9.497   6.653   3.472 -1.9798  1.9369  1.1541
 7822SOL     OW26963   2.650   3.900   5.524 -0.2836  0.0431 -0.1661
 7822SOL    HW126964   2.684   3.877   5.438 -0.9273  1.4597 -0.8211
 7822SOL    HW226965   2.709   3.967   5.557 -1.0773  0.8237 -0.3029
 7823SOL     OW26966   0.559   7.589   1.497  0.3869 -0.6259 -0.0596
 7823SOL    HW126967   0.526   7.677   1.478 -1.6922 -1.6250 -1.4519
 7823SOL    HW226968   0.654   7.599   1.500  0.2158  1.5916 -0.4906
 7824SOL     OW26969   4.139   2.619   6.034 -0.1311 -0.1001  0.4849
 7824SOL    HW126970   4.163   2.528   6.018 -0.0744 -0.0527  0.3001
 7824SOL    HW226971   4.172   2.667   5.958 -0.3229  0.0470  0.4917
 7825SOL     OW26972  10.281   0.155   4.096 -0.0484  0.1643 -0.2707
 7825SOL    HW126973  10.294   0.214   4.022 -0.2405 -0.8976 -1.1710
 7825SOL    HW226974  10.307   0.207   4.173  1.1162  0.9617 -1.1678
 7826SOL     OW26975  10.908   9.781   0.398  0.3425 -0.4412  0.3084
 7826SOL    HW126976  10.816   9.784   0.425  0.2494 -0.4012 -0.0082
 7826SOL    HW226977  10.906   9.737   0.313  0.5453  0.1388  0.0020
 7827SOL     OW26978   6.084   6.754   8.857 -0.0498 -0.6510  0.3163
 7827SOL    HW126979   6.159   6.714   8.900  1.3687  0.3258 -1.1414
 7827SOL    HW226980   6.039   6.681   8.815  0.8136 -1.0931  0.1356
 7828SOL     OW26981   7.173   8.269   6.030  0.3632 -0.6009 -0.1259
 7828SOL    HW126982   7.160   8.232   6.117 -0.2257 -1.3724 -0.5250
 7828SOL    HW226983   7.159   8.196   5.970  0.2229  0.0348 -0.8946
 7829SOL     OW26984   2.919   4.276   9.379  0.6823  0.3680 -0.0774
 7829SOL    HW126985   2.833   4.280   9.420  0.1843 -0.0606 -1.0400
 7829SOL    HW226986   2.961   4.199   9.417 -0.4597 -1.0733 -1.5904
 7830SOL     OW26987   1.155   2.369   5.988 -0.4390 -0.1093 -0.3525
 7830SOL    HW126988   1.078   2.350   5.935  0.9462  1.1125 -2.9940
 7830SOL    HW226989   1.229   2.353   5.929  1.4075 -1.5599  2.1629
 7831SOL     OW26990   1.370   0.701   0.574 -0.1737 -0.2352 -0.2741
 7831SOL    HW126991   1.276   0.705   0.552 -0.5766 -0.0285  1.3437
 7831SOL    HW226992   1.413   0.749   0.503 -1.6984  3.3164  0.9259
 7832SOL     OW26993  10.142   6.508   5.743 -0.0949 -0.6721 -0.1111
 7832SOL    HW126994  10.106   6.519   5.831 -0.9027 -0.2502 -0.4892
 7832SOL    HW226995  10.198   6.431   5.750  2.4156  1.1372  1.5809
 7833SOL     OW26996   2.315   4.530   3.658  0.3474  0.1350 -0.2735
 7833SOL    HW126997   2.239   4.521   3.601  1.7099 -0.9172 -2.0186
 7833SOL    HW226998   2.372   4.593   3.613  0.0779  1.8158  1.5791
 7834SOL     OW26999   5.513   3.192   3.451 -0.1968  0.3388  0.0350
 7834SOL    HW127000   5.605   3.215   3.458 -0.5002  1.2427  1.3545
 7834SOL    HW227001   5.510   3.126   3.382  1.7422 -1.4176  1.4971
 7835SOL     OW27002   6.256  10.952   8.202 -0.0624 -0.3433  0.0640
 7835SOL    HW127003   6.290  10.914   8.283  0.5838 -0.5279 -0.2922
 7835SOL    HW227004   6.334  10.972   8.150 -0.5022 -1.0765 -0.9000
 7836SOL     OW27005   7.832   2.698   1.623  0.6807 -0.3105  0.0373
 7836SOL    HW127006   7.801   2.717   1.534  0.3100 -0.8349  0.0464
 7836SOL    HW227007   7.770   2.742   1.680  0.4007 -0.7032  0.0435
 7837SOL     OW27008   1.137   9.326   9.538 -0.3307 -0.9220 -0.0186
 7837SOL    HW127009   1.129   9.275   9.618 -0.0823  0.9493  1.2469
 7837SOL    HW227010   1.224   9.303   9.504  1.9093  2.0520  3.0967
 7838SOL     OW27011   1.005   8.210   8.828  0.0528  0.0240 -0.1954
 7838SOL    HW127012   0.994   8.117   8.848  0.4719 -0.6012 -2.5523
 7838SOL    HW227013   1.090   8.215   8.784 -0.0253  1.5035 -0.2236
 7839SOL     OW27014   4.840   6.445   0.946  0.3802  0.1331 -0.6116
 7839SOL    HW127015   4.903   6.426   1.015 -0.5541  1.8628  0.8031
 7839SOL    HW227016   4.893   6.468   0.870  1.4352 -0.7165 -0.1622
 7840SOL     OW27017   1.791   3.332  10.716 -0.1780 -0.1152  0.3860
 7840SOL    HW127018   1.811   3.381  10.636 -0.3534 -1.9104 -0.8295
 7840SOL    HW227019   1.766   3.245  10.684  1.8306 -1.5785  2.4798
 7841SOL     OW27020   1.751   6.059  10.657 -0.6544 -0.0154  0.0755
 7841SOL    HW127021   1.664   6.049  10.617 -0.6058  1.3341 -0.4030
 7841SOL    HW227022   1.807   6.003  10.603 -0.9213  0.4167 -0.6770
 7842SOL     OW27023   7.710   8.855   8.453 -0.0317  0.1206 -0.2505
 7842SOL    HW127024   7.620   8.888   8.447  0.8888  2.6626 -1.8758
 7842SOL    HW227025   7.736   8.873   8.543 -0.7059  0.6821 -0.1540
 7843SOL     OW27026   1.620   6.357  10.430 -0.6957 -0.1557  0.0271
 7843SOL    HW127027   1.592   6.403  10.351  0.0952  0.4193  0.0770
 7843SOL    HW227028   1.655   6.273  10.398  1.7655  0.9889 -0.5007
 7844SOL     OW27029   0.069   4.980   2.501  0.0622 -0.2948  0.1419
 7844SOL    HW127030   0.061   5.041   2.428  0.5532 -1.7096 -1.1468
 7844SOL    HW227031   0.150   4.931   2.483  0.2014 -0.6740  1.6427
 7845SOL     OW27032   3.809   0.622   5.313 -0.9186  0.0455  0.2831
 7845SOL    HW127033   3.776   0.561   5.379 -1.3474 -0.6460 -0.5484
 7845SOL    HW227034   3.731   0.653   5.267 -0.6044  0.3108 -0.0789
 7846SOL     OW27035   6.631   4.177   6.512 -0.5426 -0.1884  0.1626
 7846SOL    HW127036   6.615   4.271   6.500  0.4230 -0.1453 -0.9718
 7846SOL    HW227037   6.544   4.141   6.531 -1.1156  0.7648 -0.5310
 7847SOL     OW27038   2.633   4.334   2.404 -0.0587  0.3920 -0.1638
 7847SOL    HW127039   2.666   4.382   2.328 -2.4828 -1.2789 -2.4476
 7847SOL    HW227040   2.696   4.263   2.417  0.4237  0.7408 -0.5529
 7848SOL     OW27041   8.984   0.294   1.700 -0.2213  0.1139  0.3254
 7848SOL    HW127042   8.992   0.389   1.700  0.6886  0.1083 -2.3095
 7848SOL    HW227043   9.070   0.262   1.672 -0.9499 -1.3911 -0.3242
 7849SOL     OW27044   2.111   8.596   6.044 -0.0362  0.3426 -0.1349
 7849SOL    HW127045   2.124   8.593   6.139 -0.4483 -2.1700 -0.0881
 7849SOL    HW227046   2.186   8.549   6.008 -0.5694  0.0857 -0.9443
 7850SOL     OW27047   9.236   0.245   6.213  0.2923  0.4481 -0.1720
 7850SOL    HW127048   9.291   0.264   6.136 -1.6615  1.7875 -1.3230
 7850SOL    HW227049   9.233   0.327   6.261 -0.1949  0.2085  0.2105
 7851SOL     OW27050   2.068   2.027   2.787  0.2816  0.0463  0.4237
 7851SOL    HW127051   2.105   1.940   2.801 -1.4049 -0.8956 -0.5380
 7851SOL    HW227052   2.135   2.075   2.739  0.3719 -1.5288 -1.1226
 7852SOL     OW27053   1.467   2.346   3.025 -0.2779 -0.1417 -0.5993
 7852SOL    HW127054   1.529   2.420   3.024 -2.1141  1.4643 -0.6553
 7852SOL    HW227055   1.502   2.287   3.092  0.7803  1.1998  0.0786
 7853SOL     OW27056   5.823   5.215   2.377  0.1609 -0.5609 -0.0277
 7853SOL    HW127057   5.880   5.269   2.431  0.4612 -1.4393  0.5721
 7853SOL    HW227058   5.848   5.235   2.287  1.7261 -1.2208  0.2272
 7854SOL     OW27059   0.555   9.212   6.384  0.2395  0.2409 -0.0648
 7854SOL    HW127060   0.579   9.121   6.367  0.6789  0.6288 -1.6859
 7854SOL    HW227061   0.475   9.207   6.435 -0.0847 -1.0634 -0.6807
 7855SOL     OW27062   1.930   6.302  10.420  0.1359 -0.0175  0.3132
 7855SOL    HW127063   1.845   6.345  10.410 -0.2990 -0.6631  1.1548
 7855SOL    HW227064   1.937   6.244  10.345  0.0286  0.3606  0.0101
 7856SOL     OW27065  10.759   0.987   9.835 -0.5738  0.1807 -0.4602
 7856SOL    HW127066  10.694   0.918   9.848 -0.2340  0.1588  1.3320
 7856SOL    HW227067  10.812   0.986   9.915  1.3219  0.5393 -1.6490
 7857SOL     OW27068   1.864   9.014   9.303 -0.0251 -0.9930  0.5158
 7857SOL    HW127069   1.948   9.060   9.304 -0.3723 -0.3372  0.1599
 7857SOL    HW227070   1.865   8.961   9.382  0.5036 -0.5791  0.7969
 7858SOL     OW27071   6.816  10.889   3.287  0.6073 -0.0491  0.2756
 7858SOL    HW127072   6.850  10.809   3.247 -1.7634 -2.3464  2.4629
 7858SOL    HW227073   6.725  10.868   3.309  0.7731  2.1261  3.7789
 7859SOL     OW27074   8.082   0.892   4.474 -0.0554 -0.2731 -0.5219
 7859SOL    HW127075   8.020   0.830   4.512 -0.0005 -0.4448 -0.7076
 7859SOL    HW227076   8.029   0.948   4.417 -0.7794  2.2104  2.2980
 7860SOL     OW27077   2.765   3.025   1.023 -0.2862 -0.0787 -0.2283
 7860SOL    HW127078   2.807   3.025   0.937  0.7643  1.9102  0.2339
 7860SOL    HW227079   2.676   2.994   1.007  0.8746 -3.1390 -1.4538
 7861SOL     OW27080   6.853   8.153   6.245 -0.8267 -0.0311 -0.2760
 7861SOL    HW127081   6.805   8.099   6.307 -0.0074  1.2522  1.5864
 7861SOL    HW227082   6.945   8.128   6.257 -0.4197  1.7905  0.7102
 7862SOL     OW27083   2.894   7.777   3.972 -0.2412  0.4659 -0.1035
 7862SOL    HW127084   2.882   7.682   3.963  0.4126  0.1441  1.9868
 7862SOL    HW227085   2.922   7.789   4.062  0.4419  2.5990 -0.5594
 7863SOL     OW27086   8.870   8.802   5.524 -0.1028 -0.2599 -0.1511
 7863SOL    HW127087   8.929   8.755   5.464 -0.6933 -1.5694  0.2555
 7863SOL    HW227088   8.907   8.890   5.530  2.8463 -1.4504  1.3829
 7864SOL     OW27089   4.744   4.977   4.283  0.2842 -0.0676  0.8247
 7864SOL    HW127090   4.831   4.964   4.323 -0.3842 -1.6030  1.8929
 7864SOL    HW227091   4.758   5.042   4.215  2.4806 -0.9752  0.3227
 7865SOL     OW27092   4.429   7.012   0.920 -0.0186  0.5775 -0.1411
 7865SOL    HW127093   4.373   7.074   0.873  0.7853  0.9534 -0.6185
 7865SOL    HW227094   4.515   7.021   0.879 -0.0721 -1.4975 -0.8408
 7866SOL     OW27095   0.818   9.281   0.263  0.4587  0.7452 -0.0300
 7866SOL    HW127096   0.832   9.320   0.350 -0.8902  0.3230  0.4055
 7866SOL    HW227097   0.755   9.340   0.221 -0.1951  0.0435 -0.0591
 7867SOL     OW27098   6.137   2.526   2.069  0.3497 -0.2352 -0.2183
 7867SOL    HW127099   6.147   2.620   2.053  0.7306 -0.4490 -1.3322
 7867SOL    HW227100   6.227   2.492   2.067  0.1211 -0.8133 -1.1411
 7868SOL     OW27101   2.124   5.352   6.189  0.1753  0.1234 -0.4510
 7868SOL    HW127102   2.182   5.419   6.153  1.4205 -0.0832  1.0325
 7868SOL    HW227103   2.149   5.346   6.281 -0.1162 -2.1413 -0.4562
 7869SOL     OW27104   0.949   3.199   1.770 -0.6078  0.0210 -0.4168
 7869SOL    HW127105   0.855   3.217   1.764 -0.5756  0.1004 -0.6700
 7869SOL    HW227106   0.954   3.103   1.777 -0.7483  0.0629  0.4014
 7870SOL     OW27107   0.776   7.327   3.838  0.0325 -0.2467 -0.0441
 7870SOL    HW127108   0.691   7.312   3.798 -0.0187  0.8541 -0.3881
 7870SOL    HW227109   0.773   7.419   3.867  0.6940 -0.5091  0.9405
 7871SOL     OW27110  10.693   3.247   4.085 -0.1123 -0.3870  0.1967
 7871SOL    HW127111  10.638   3.173   4.062  0.5613 -0.5213 -1.1134
 7871SOL    HW227112  10.767   3.209   4.133  0.6136 -0.6953 -1.1203
 7872SOL     OW27113   2.270   9.756   4.815 -0.2376  0.0026  0.4849
 7872SOL    HW127114   2.236   9.756   4.726  0.4016  2.0009  0.1974
 7872SOL    HW227115   2.193   9.769   4.871 -0.3473  1.5781  0.0164
 7873SOL     OW27116   6.153   3.062   8.664 -0.4728 -0.0611 -0.0695
 7873SOL    HW127117   6.072   3.031   8.703 -0.7023 -1.0292 -1.2556
 7873SOL    HW227118   6.125   3.108   8.584  0.1376 -0.5507 -0.5782
 7874SOL     OW27119  10.399   1.433   9.923 -0.1244 -0.3423  0.5378
 7874SOL    HW127120  10.456   1.357   9.909 -0.8913 -0.5962 -1.6541
 7874SOL    HW227121  10.313   1.396   9.938 -0.5729  0.0665 -0.9037
 7875SOL     OW27122   1.691  10.157   2.359  0.1889  0.2180  0.7275
 7875SOL    HW127123   1.663  10.157   2.268  0.4957 -1.1704  0.6117
 7875SOL    HW227124   1.631  10.096   2.403 -0.2689  1.2331  1.5682
 7876SOL     OW27125   2.234   1.939   9.457 -0.0711  0.1943  0.2202
 7876SOL    HW127126   2.155   1.978   9.495 -0.0732  1.0966 -0.6695
 7876SOL    HW227127   2.292   2.013   9.439  0.1451 -0.2435 -0.9937
 7877SOL     OW27128   7.172   4.025   0.950  0.0442  0.2987 -0.3418
 7877SOL    HW127129   7.084   4.028   0.988  0.3719  0.7965  0.4049
 7877SOL    HW227130   7.223   4.084   1.005  0.9433 -0.3114 -0.5079
 7878SOL     OW27131  10.258   7.083   8.025  0.1498 -0.0255 -0.2035
 7878SOL    HW127132  10.262   7.026   8.102  0.9035 -1.1728 -1.0696
 7878SOL    HW227133  10.348   7.116   8.014 -0.2168  1.1592  0.1326
 7879SOL     OW27134   6.637  10.637   0.312  0.1401 -0.7265  0.5796
 7879SOL    HW127135   6.674  10.709   0.260 -0.8849 -1.0379 -0.6249
 7879SOL    HW227136   6.713  10.587   0.342  0.8144  0.2746  0.5871
 7880SOL     OW27137   4.044   0.975   1.206  0.8460  0.2250 -0.5103
 7880SOL    HW127138   4.087   1.058   1.186  1.1181  0.0767 -0.5339
 7880SOL    HW227139   4.107   0.928   1.260  1.6893 -0.9574 -2.4371
 7881SOL     OW27140   1.836   6.544  10.049  0.1011 -0.1940 -0.2880
 7881SOL    HW127141   1.905   6.493  10.006  0.2856  0.2226 -0.4987
 7881SOL    HW227142   1.757   6.493  10.037  0.2333 -0.3003 -0.7391
 7882SOL     OW27143   1.355   6.015   8.055 -0.2725 -0.1573  0.5914
 7882SOL    HW127144   1.343   6.028   7.961  2.8309 -0.8931 -0.0310
 7882SOL    HW227145   1.308   5.934   8.074 -1.3445  0.2568 -0.2040
 7883SOL     OW27146   8.152   9.113   1.510 -0.0257  0.2149 -0.3527
 7883SOL    HW127147   8.090   9.155   1.451 -0.8013  0.3258  0.5325
 7883SOL    HW227148   8.217   9.073   1.451  0.1500  1.7134 -1.2390
 7884SOL     OW27149   1.522   4.469   3.647  0.1716 -0.0746 -1.2300
 7884SOL    HW127150   1.441   4.482   3.599  0.5543  2.2362 -1.4075
 7884SOL    HW227151   1.506   4.511   3.732  1.4566  1.3695 -1.6479
 7885SOL     OW27152   6.392   7.918   0.829  0.0171  0.2486 -0.2115
 7885SOL    HW127153   6.313   7.971   0.838  0.2322  0.4658  0.3810
 7885SOL    HW227154   6.378   7.868   0.748  0.0849  1.6778 -1.1603
 7886SOL     OW27155   5.865   1.474  10.353  0.0217  0.0143  0.5287
 7886SOL    HW127156   5.857   1.418  10.430 -1.1106 -0.3131  0.1943
 7886SOL    HW227157   5.898   1.557  10.387  2.6044 -1.0748  0.9244
 7887SOL     OW27158   0.222   2.991   6.960 -0.9903 -0.4957  0.0922
 7887SOL    HW127159   0.196   2.903   6.933  1.6670 -1.1750 -0.4395
 7887SOL    HW227160   0.225   2.987   7.055 -0.1305 -1.2172  0.0409
 7888SOL     OW27161   8.648   0.734   8.862 -0.1442  0.6784  0.0266
 7888SOL    HW127162   8.626   0.797   8.931  0.8941  0.6075  0.4495
 7888SOL    HW227163   8.565   0.693   8.839 -0.4223  0.1767  1.7775
 7889SOL     OW27164   6.876   0.334   3.948  0.2590  0.4786 -0.2156
 7889SOL    HW127165   6.921   0.358   3.867  0.7871 -0.0918 -0.0964
 7889SOL    HW227166   6.901   0.243   3.963  0.4361  0.6798  0.7665
 7890SOL     OW27167   4.358   8.130   1.595 -0.0939  0.3796 -0.1771
 7890SOL    HW127168   4.399   8.077   1.663  0.8339 -0.4692 -1.3593
 7890SOL    HW227169   4.268   8.097   1.590  0.6311 -1.6379 -1.3447
 7891SOL     OW27170   6.200   4.386   3.433 -0.7736  0.1553 -0.3552
 7891SOL    HW127171   6.192   4.470   3.387 -0.4465 -1.1264 -2.9168
 7891SOL    HW227172   6.284   4.351   3.405 -1.3047 -1.4284 -0.0563
 7892SOL     OW27173   2.588   3.847   4.280  0.0537 -0.1635 -0.0958
 7892SOL    HW127174   2.595   3.764   4.233  1.4664  0.0062 -0.2444
 7892SOL    HW227175   2.550   3.908   4.217 -1.1694 -0.7239  0.0747
 7893SOL     OW27176   6.630   9.852   2.570  0.0522  0.2515 -0.5118
 7893SOL    HW127177   6.593   9.862   2.658  0.2413  2.4657 -0.6252
 7893SOL    HW227178   6.555   9.834   2.514 -0.1050 -0.9031  0.0405
 7894SOL     OW27179   0.209   5.419   2.252 -0.0464 -0.2346  0.1779
 7894SOL    HW127180   0.224   5.466   2.334  1.0844  0.9517 -0.6566
 7894SOL    HW227181   0.125   5.452   2.220 -0.3347 -0.4644  0.6948
 7895SOL     OW27182   2.997  10.374   3.897 -0.5281  0.2780  0.1211
 7895SOL    HW127183   3.058  10.387   3.969 -1.3546 -0.2262  0.9194
 7895SOL    HW227184   3.052  10.380   3.818  0.3300  1.1351  0.7567
 7896SOL     OW27185   4.366   3.711   2.549 -0.1326 -0.1790  0.5377
 7896SOL    HW127186   4.379   3.782   2.487  0.3320 -0.9714 -0.3123
 7896SOL    HW227187   4.363   3.753   2.635  1.1939  0.7790  0.1520
 7897SOL     OW27188   5.254   1.863  10.634  0.3005  0.1731  0.0888
 7897SOL    HW127189   5.327   1.914  10.669 -0.2599  0.1864  1.2826
 7897SOL    HW227190   5.265   1.776  10.673 -0.0006  0.0126 -0.1813
 7898SOL     OW27191   4.718   1.318   0.684  0.3767  0.0791 -0.1847
 7898SOL    HW127192   4.668   1.243   0.715  0.0466 -0.3764 -1.7366
 7898SOL    HW227193   4.791   1.325   0.746 -0.9169  0.0243  1.4201
 7899SOL     OW27194   9.728   8.705   1.414 -0.1451  0.2563  0.6604
 7899SOL    HW127195   9.679   8.653   1.350  2.7915 -2.6743  0.4938
 7899SOL    HW227196   9.810   8.727   1.370  0.9731  0.2252  2.6009
 7900SOL     OW27197   3.132   6.436   6.106 -0.5203 -0.4835 -0.4270
 7900SOL    HW127198   3.090   6.462   6.188  0.4918  2.8800 -0.8032
 7900SOL    HW227199   3.182   6.358   6.128 -1.2586 -0.4014  1.8206
 7901SOL     OW27200   9.001   9.938   7.342  0.3020  0.4579 -0.1419
 7901SOL    HW127201   8.976  10.031   7.342  0.1820  0.4420  0.9590
 7901SOL    HW227202   9.083   9.935   7.294 -0.1501  0.9996 -0.9699
 7902SOL     OW27203   2.718   9.716   3.870  0.4691  0.3538  0.2380
 7902SOL    HW127204   2.644   9.689   3.925 -1.5587  0.5813 -2.1919
 7902SOL    HW227205   2.767   9.635   3.856 -0.4625 -0.2288  0.2655
 7903SOL     OW27206   4.506   9.574   5.593  0.1490 -0.5095  0.4240
 7903SOL    HW127207   4.562   9.612   5.525 -2.3210  0.5674 -1.1709
 7903SOL    HW227208   4.445   9.519   5.545 -2.4713  1.2563  1.5206
 7904SOL     OW27209   8.253   1.630  10.633 -0.1854  0.7226 -0.1949
 7904SOL    HW127210   8.263   1.689  10.708  1.3005  0.3633 -0.0841
 7904SOL    HW227211   8.319   1.660  10.571  1.6246 -1.6376  0.4315
 7905SOL     OW27212   5.289   1.054   4.476  0.0565 -0.4153 -0.5981
 7905SOL    HW127213   5.248   1.009   4.550  1.1966 -0.6501 -0.0784
 7905SOL    HW227214   5.217   1.071   4.415 -0.8220 -0.6684  0.3335
 7906SOL     OW27215   3.499   5.112   3.980  0.3858  0.3078 -0.7948
 7906SOL    HW127216   3.447   5.176   4.028  0.4177  0.6473 -1.2128
 7906SOL    HW227217   3.445   5.033   3.979  0.7287  0.0359  0.5158
 7907SOL     OW27218  10.809   7.622   3.831  0.0303  0.0762 -0.4508
 7907SOL    HW127219  10.877   7.624   3.898 -1.0808  0.8569  0.6996
 7907SOL    HW227220  10.839   7.684   3.765  2.0032 -1.9807 -1.6401
 7908SOL     OW27221   7.757   7.325   7.547  0.0836 -0.3159  0.5578
 7908SOL    HW127222   7.760   7.412   7.587 -1.1451  0.0238 -0.0364
 7908SOL    HW227223   7.683   7.329   7.486  0.9030 -1.3322 -0.5507
 7909SOL     OW27224   0.057   6.063   6.906  0.2371 -0.4466 -1.0932
 7909SOL    HW127225   0.147   6.031   6.908 -0.4519 -2.4653  1.0260
 7909SOL    HW227226   0.051   6.124   6.979 -0.1144 -0.2549 -1.2768
 7910SOL     OW27227   3.047   1.470   2.805 -0.4244 -0.0955  0.2770
 7910SOL    HW127228   3.028   1.389   2.854  0.2795  0.4740  1.5383
 7910SOL    HW227229   2.973   1.527   2.825 -0.3054  0.0127  0.4131
 7911SOL     OW27230   8.723  10.684   0.210 -0.0766 -0.1317  0.0281
 7911SOL    HW127231   8.814  10.713   0.205  0.1310 -0.8158 -0.2600
 7911SOL    HW227232   8.728  10.593   0.241 -0.6875 -0.0269  0.4609
 7912SOL     OW27233   2.280   4.792   0.551  0.0182  0.6758  0.0893
 7912SOL    HW127234   2.250   4.859   0.613 -0.3377 -0.1981  0.8997
 7912SOL    HW227235   2.321   4.726   0.607  2.2335  1.1631 -0.8659
 7913SOL     OW27236   9.044   5.979   7.741  0.1081 -0.2466  0.1491
 7913SOL    HW127237   8.952   5.959   7.755 -1.3865  2.4260 -3.8338
 7913SOL    HW227238   9.050   6.074   7.752  2.5398 -0.3990  0.7385
 7914SOL     OW27239  10.126   7.610   0.446  0.1981 -0.2914 -0.0531
 7914SOL    HW127240  10.084   7.597   0.361  0.8408 -0.5802 -0.3336
 7914SOL    HW227241  10.165   7.524   0.466  1.7577  0.3101 -0.4048
 7915SOL     OW27242   7.834   8.048   5.759  0.7675 -0.4294 -0.2087
 7915SOL    HW127243   7.879   8.094   5.830  1.7348 -1.5631 -0.0615
 7915SOL    HW227244   7.903   7.997   5.716 -0.1291 -1.1090 -0.8683
 7916SOL     OW27245   9.525   8.863   8.499 -0.0761  0.3006 -0.1323
 7916SOL    HW127246   9.586   8.792   8.480  0.4034  0.4338  0.8241
 7916SOL    HW227247   9.582   8.937   8.522 -0.5453 -0.1807  2.9895
 7917SOL     OW27248   0.468   7.869  10.699  0.0231  0.3054  0.1341
 7917SOL    HW127249   0.502   7.805  10.761 -0.6863 -0.4004 -0.1811
 7917SOL    HW227250   0.527   7.944  10.706  2.1495 -1.1620 -0.9839
 7918SOL     OW27251   0.951   8.824   3.902  0.4332 -0.0402 -0.5555
 7918SOL    HW127252   0.904   8.879   3.965  0.8093 -0.9846  0.5708
 7918SOL    HW227253   1.040   8.859   3.903  0.6020 -0.4760 -0.0548
 7919SOL     OW27254   5.826   7.549   2.105 -0.2019  0.1452 -0.2038
 7919SOL    HW127255   5.832   7.545   2.201  1.4752 -0.3974 -0.3081
 7919SOL    HW227256   5.862   7.466   2.075 -1.0363  0.1683 -1.3167
 7920SOL     OW27257   9.517   9.702   9.893  0.3834 -0.1663  0.0964
 7920SOL    HW127258   9.454   9.636   9.866 -0.2708 -0.4043  2.0508
 7920SOL    HW227259   9.563   9.726   9.812  0.0412 -2.3541 -0.8197
 7921SOL     OW27260   6.583   2.903   4.304  0.1169 -0.0429  0.4780
 7921SOL    HW127261   6.590   2.992   4.339 -3.1096  0.2919  0.5796
 7921SOL    HW227262   6.621   2.848   4.373  0.1129  1.1094  1.4474
 7922SOL     OW27263   0.889   5.261   6.376  0.4156 -0.0059 -0.2509
 7922SOL    HW127264   0.924   5.240   6.289  2.3567  0.6583  0.3150
 7922SOL    HW227265   0.813   5.316   6.358  1.4969  1.1660 -1.5594
 7923SOL     OW27266   4.110   1.170   8.745  0.1487 -0.4175  0.2947
 7923SOL    HW127267   4.085   1.258   8.719  0.6092 -0.7703 -1.5271
 7923SOL    HW227268   4.206   1.171   8.743  0.1753 -0.6926  1.2411
 7924SOL     OW27269   7.730  10.638  10.844 -0.3379 -0.9177 -0.2258
 7924SOL    HW127270   7.723  10.723  10.887  0.0614 -1.4366  0.9126
 7924SOL    HW227271   7.748  10.658  10.752 -0.9310  0.2232 -0.1022
 7925SOL     OW27272   4.365   1.482   5.783  0.0409 -0.5021  0.3261
 7925SOL    HW127273   4.380   1.559   5.839  0.8341  0.9537 -1.7729
 7925SOL    HW227274   4.270   1.471   5.782 -0.1211  0.7464  0.3072
 7926SOL     OW27275   6.120   6.809   9.158 -0.3865  0.1404 -0.0812
 7926SOL    HW127276   6.128   6.903   9.140  0.5887  0.2461  0.8311
 7926SOL    HW227277   6.153   6.767   9.079  0.2155  0.5717 -0.0606
 7927SOL     OW27278   7.986   4.189   3.157  0.1462 -0.5404  0.5412
 7927SOL    HW127279   7.961   4.249   3.227  0.7448 -0.9414  1.1008
 7927SOL    HW227280   8.065   4.145   3.189  0.7575 -0.3231 -0.6125
 7928SOL     OW27281   9.331   2.495   9.100 -0.4967 -0.2696  0.1267
 7928SOL    HW127282   9.407   2.445   9.070 -0.3703  0.4630 -0.8166
 7928SOL    HW227283   9.278   2.509   9.021 -2.3433 -1.9345  0.9626
 7929SOL     OW27284   8.255   9.382   5.778 -0.0432  0.5637 -0.0591
 7929SOL    HW127285   8.260   9.391   5.873  0.8849 -0.3986 -0.0005
 7929SOL    HW227286   8.199   9.454   5.750  1.5914  2.3014  0.9791
 7930SOL     OW27287   8.744   0.260   6.272 -0.2269 -0.2009  0.5148
 7930SOL    HW127288   8.818   0.201   6.257 -0.7044 -0.8729  0.7595
 7930SOL    HW227289   8.667   0.207   6.253 -0.6607  0.4071  0.5514
 7931SOL     OW27290  10.816  10.280   2.702  0.1668 -0.5817 -0.2981
 7931SOL    HW127291  10.726  10.247   2.710  0.1224 -0.0782  1.6902
 7931SOL    HW227292  10.851  10.235   2.625 -0.9367 -2.8125  0.4219
 7932SOL     OW27293   8.381   0.824   3.267 -0.1286 -0.2833  0.3240
 7932SOL    HW127294   8.331   0.897   3.302  2.4333  0.7035  2.2052
 7932SOL    HW227295   8.386   0.761   3.338 -0.1279 -1.1547 -0.4200
 7933SOL     OW27296   8.746   9.206   6.898 -0.4412 -0.0722  0.3480
 7933SOL    HW127297   8.668   9.258   6.915 -0.2816  0.2587  0.0847
 7933SOL    HW227298   8.719   9.116   6.915 -0.5727  0.1402  1.3234
 7934SOL     OW27299   4.597   9.950   1.575 -0.3002  0.1331 -0.0190
 7934SOL    HW127300   4.552  10.035   1.568  0.3859  0.4198 -1.5343
 7934SOL    HW227301   4.672   9.958   1.516  0.2290 -1.2650  0.4199
 7935SOL     OW27302   5.000   9.298   7.157  0.5235  0.2157 -0.2011
 7935SOL    HW127303   5.020   9.390   7.137 -0.7821  0.7289  0.7706
 7935SOL    HW227304   4.906   9.297   7.175  0.9714 -0.7878  2.5266
 7936SOL     OW27305   4.857   7.951   6.134 -0.4626  0.1231  0.4435
 7936SOL    HW127306   4.882   8.043   6.134 -0.0693  0.0144  0.5818
 7936SOL    HW227307   4.896   7.915   6.054 -1.1475  0.2186  0.0564
 7937SOL     OW27308   8.829   1.530   3.898 -0.1788 -0.0148  0.0557
 7937SOL    HW127309   8.899   1.585   3.934 -2.1610  1.5838  1.7952
 7937SOL    HW227310   8.871   1.480   3.828  2.2436  2.1955 -0.2372
 7938SOL     OW27311   3.236   2.382   4.089  0.4213 -0.2823 -0.5340
 7938SOL    HW127312   3.170   2.415   4.028 -0.1187  0.3246  0.3469
 7938SOL    HW227313   3.237   2.288   4.074 -2.1707 -0.6250  0.8143
 7939SOL     OW27314   1.314   4.679   5.335 -0.1262  0.0095 -0.0758
 7939SOL    HW127315   1.277   4.729   5.408  1.2550  0.7727  0.1335
 7939SOL    HW227316   1.240   4.629   5.300 -1.7403  2.6558 -0.6973
 7940SOL     OW27317   2.319   5.406   5.182  0.3178  0.3058  0.3288
 7940SOL    HW127318   2.312   5.386   5.089 -0.8205  0.5820  0.3292
 7940SOL    HW227319   2.412   5.402   5.202  0.4658 -0.9138 -0.5627
 7941SOL     OW27320   9.328   9.321   8.469 -0.3453 -0.5031  0.3502
 7941SOL    HW127321   9.300   9.380   8.399 -1.1985  1.4597  2.2579
 7941SOL    HW227322   9.247   9.294   8.512  0.0956 -2.4420  0.0931
 7942SOL     OW27323   1.993   7.671   4.592  0.1711 -0.4745 -0.4307
 7942SOL    HW127324   2.055   7.625   4.535  1.3582  0.7051 -0.1326
 7942SOL    HW227325   2.043   7.744   4.629 -0.3677 -1.4784  2.5683
 7943SOL     OW27326   6.318   1.706   0.187 -0.2964  0.4901 -0.1696
 7943SOL    HW127327   6.397   1.697   0.134 -1.2969  0.8024 -1.7544
 7943SOL    HW227328   6.287   1.616   0.201 -1.1287  0.4859 -1.8574
 7944SOL     OW27329   9.237   6.119   6.050 -0.4201  0.2311 -0.3823
 7944SOL    HW127330   9.264   6.197   6.099 -0.5380  0.1899 -0.2507
 7944SOL    HW227331   9.291   6.049   6.086 -1.0425  0.0531  0.2254
 7945SOL     OW27332  10.939   2.432   7.515 -0.3249  0.7524 -0.1477
 7945SOL    HW127333  10.865   2.410   7.572  0.3928 -0.7704  0.2432
 7945SOL    HW227334  11.011   2.378   7.547  0.4968  0.9277 -1.6044
 7946SOL     OW27335   1.509   1.619  10.601 -0.1790  0.0986 -0.3533
 7946SOL    HW127336   1.450   1.589  10.532 -0.1154  0.0432 -0.3832
 7946SOL    HW227337   1.592   1.637  10.556 -0.2048  0.2821 -0.3289
 7947SOL     OW27338   7.032   3.789  10.846  0.0016 -0.2760  0.2629
 7947SOL    HW127339   7.073   3.836  10.773 -2.2696 -0.9866 -1.5786
 7947SOL    HW227340   6.993   3.857  10.900 -0.0888  0.1532 -0.3406
 7948SOL     OW27341   4.792   9.173   2.108  0.2237 -0.2917  0.3690
 7948SOL    HW127342   4.758   9.235   2.173  1.0270 -0.0344  0.5555
 7948SOL    HW227343   4.822   9.228   2.036 -0.3246 -0.5577 -0.0696
 7949SOL     OW27344   5.459   6.841   2.551 -0.2744  0.5315  0.0702
 7949SOL    HW127345   5.538   6.891   2.530  0.6910 -0.7098  0.6148
 7949SOL    HW227346   5.460   6.767   2.490 -1.8195  1.2542 -0.9010
 7950SOL     OW27347   7.931   1.149   7.437  0.9990  0.9722  0.1602
 7950SOL    HW127348   7.945   1.157   7.343  1.4695  0.6881  0.2005
 7950SOL    HW227349   7.897   1.234   7.464  0.5796  0.9583 -0.3127
 7951SOL     OW27350   8.662   3.922   4.596  0.1855 -0.0597  0.0844
 7951SOL    HW127351   8.592   3.907   4.659 -0.4496 -0.1288 -0.6341
 7951SOL    HW227352   8.622   3.974   4.526  1.4984  2.1992  0.9032
 7952SOL     OW27353   2.077   5.023   2.722 -0.0945 -0.1239  0.0115
 7952SOL    HW127354   2.021   4.956   2.683 -1.2863  0.6067  0.3790
 7952SOL    HW227355   2.053   5.104   2.676  2.0762 -0.0930 -1.1726
 7953SOL     OW27356   6.356   6.278   6.719 -0.1801 -0.1287 -0.8104
 7953SOL    HW127357   6.387   6.197   6.761  0.5480  2.2302  3.8623
 7953SOL    HW227358   6.414   6.290   6.644  1.4190 -2.5867 -0.1004
 7954SOL     OW27359   4.415   6.982  10.243 -0.4561 -0.5600 -0.0713
 7954SOL    HW127360   4.388   6.902  10.289  1.1049 -3.2220 -3.2939
 7954SOL    HW227361   4.359   6.986  10.166 -0.3587  1.4126 -0.0904
 7955SOL     OW27362   1.400   8.141   8.974 -0.2145  0.3118 -0.2422
 7955SOL    HW127363   1.357   8.125   9.058 -0.4292  0.2811 -0.3582
 7955SOL    HW227364   1.452   8.063   8.958  0.2409  0.5327  0.1132
 7956SOL     OW27365   4.331   3.010   8.711 -0.1819  0.0212  0.3277
 7956SOL    HW127366   4.385   3.043   8.782 -0.1960  2.1003 -0.5678
 7956SOL    HW227367   4.295   3.088   8.669 -1.4001 -1.1962 -1.0222
 7957SOL     OW27368   4.645   5.066   3.584  0.0655  0.7998  0.1436
 7957SOL    HW127369   4.615   5.039   3.670 -1.3764 -0.0420 -0.5854
 7957SOL    HW227370   4.636   4.988   3.529  1.5483  1.1299 -0.6550
 7958SOL     OW27371   1.300   7.252  10.970  0.2327 -0.0938  0.0068
 7958SOL    HW127372   1.319   7.310  10.896  1.0795 -1.3112 -0.7624
 7958SOL    HW227373   1.280   7.311  11.042  0.4177  1.1390 -0.9173
 7959SOL     OW27374   2.393   9.146   7.346 -1.1500 -0.0978 -0.1685
 7959SOL    HW127375   2.454   9.079   7.379 -0.8665  0.2502  0.0175
 7959SOL    HW227376   2.360   9.189   7.425 -0.4602  0.7464 -0.3208
 7960SOL     OW27377   4.330   6.193   4.078 -0.2538 -0.2775  0.0988
 7960SOL    HW127378   4.390   6.254   4.120 -0.9352  0.2782  0.2794
 7960SOL    HW227379   4.343   6.207   3.984  0.0527 -0.3188  0.1342
 7961SOL     OW27380   9.178   2.396  10.067  0.3840  0.3486  0.6363
 7961SOL    HW127381   9.228   2.331  10.016 -0.0376 -0.1382  0.8330
 7961SOL    HW227382   9.106   2.422  10.009  0.7910  0.9649  0.3962
 7962SOL     OW27383   5.511   2.508  10.103 -0.0912  0.5759 -0.6636
 7962SOL    HW127384   5.442   2.445  10.123 -3.5016  4.5563  1.8878
 7962SOL    HW227385   5.580   2.489  10.167 -0.9554 -0.6422 -0.0510
 7963SOL     OW27386   3.962   9.801   6.303 -0.4512  0.5185 -0.2726
 7963SOL    HW127387   3.934   9.726   6.357 -1.2545 -1.2798 -2.9640
 7963SOL    HW227388   3.887   9.860   6.304 -0.9083 -0.0509 -0.3338
 7964SOL     OW27389  10.168   1.604   2.299  0.1772 -0.3089 -0.3189
 7964SOL    HW127390  10.123   1.522   2.322  2.5674 -1.1384  1.9883
 7964SOL    HW227391  10.207   1.587   2.213 -1.1814 -0.7581 -0.8629
 7965SOL     OW27392   9.700   2.657   6.132 -0.0262  0.4060  0.2625
 7965SOL    HW127393   9.671   2.569   6.156 -2.2151  0.8191 -0.6246
 7965SOL    HW227394   9.668   2.713   6.203  0.1311  0.6519  0.1392
 7966SOL     OW27395   0.061   3.281   9.799  0.0945  0.0487 -0.1523
 7966SOL    HW127396   0.073   3.284   9.705 -0.0575  2.6876 -0.1555
 7966SOL    HW227397   0.145   3.306   9.836 -0.1523  0.1229  0.3776
 7967SOL     OW27398   6.435   0.491   8.113 -0.1869 -0.3578  0.3101
 7967SOL    HW127399   6.391   0.512   8.031  0.0552  2.0852  0.7331
 7967SOL    HW227400   6.385   0.538   8.180  0.9421 -0.4577  1.2558
 7968SOL     OW27401   1.487  10.268   0.276  0.7593 -0.0635 -0.3501
 7968SOL    HW127402   1.518  10.198   0.334  0.9541  0.3139  0.0110
 7968SOL    HW227403   1.466  10.224   0.194 -0.0187 -0.6894  0.1670
 7969SOL     OW27404  10.397   5.587   6.905  0.3939  0.3812 -0.3165
 7969SOL    HW127405  10.311   5.628   6.915  1.3738  2.7153 -0.8059
 7969SOL    HW227406  10.429   5.576   6.994 -0.7386 -1.4563 -0.0594
 7970SOL     OW27407   8.024   8.399   6.367 -0.2194 -0.1189 -0.4756
 7970SOL    HW127408   7.991   8.314   6.339  0.1132 -1.2883  2.3489
 7970SOL    HW227409   7.953   8.438   6.417  0.2404  0.5105 -0.2933
 7971SOL     OW27410   6.260  10.372  10.949 -0.3731 -0.2596 -0.2297
 7971SOL    HW127411   6.290  10.463  10.949  1.5269 -0.6833 -3.7376
 7971SOL    HW227412   6.186  10.372  10.888 -2.0219 -0.7271  1.6810
 7972SOL     OW27413   3.175   8.973   5.777 -0.0647  0.4751 -0.1918
 7972SOL    HW127414   3.210   9.062   5.772  0.2197  0.4313  0.8048
 7972SOL    HW227415   3.136   8.958   5.691 -0.6872  1.7957 -0.1663
 7973SOL     OW27416   5.201  10.110   9.647  0.6539  0.1143  0.0350
 7973SOL    HW127417   5.254  10.030   9.654  1.6609  0.6834 -0.8120
 7973SOL    HW227418   5.122  10.082   9.601  1.3460 -0.2571 -0.9633
 7974SOL     OW27419   3.720   6.231   3.342  1.0309 -0.4229 -0.4040
 7974SOL    HW127420   3.771   6.241   3.261 -1.3091  1.0027 -1.8307
 7974SOL    HW227421   3.706   6.321   3.372 -1.1990 -0.6585 -0.5314
 7975SOL     OW27422   0.673   3.368   7.934 -0.4558  0.4489 -0.1658
 7975SOL    HW127423   0.735   3.300   7.904  0.3179  0.3001  1.6617
 7975SOL    HW227424   0.591   3.347   7.889 -0.3010 -1.8477  0.5160
 7976SOL     OW27425   6.778   4.988   1.211  0.1399 -0.4054 -0.5087
 7976SOL    HW127426   6.762   5.082   1.220  1.5721  0.0263 -2.0639
 7976SOL    HW227427   6.870   4.977   1.234  0.3595 -1.2004 -1.6801
 7977SOL     OW27428   1.778   9.751   5.041  0.1105  0.4912  0.4357
 7977SOL    HW127429   1.778   9.742   5.136 -0.5279 -0.1286  0.3859
 7977SOL    HW227430   1.766   9.661   5.009  0.7018  0.6441 -0.2347
 7978SOL     OW27431   4.382   5.295   1.031  0.3293  0.0314 -0.0271
 7978SOL    HW127432   4.366   5.350   1.108 -1.3122 -2.5978  1.6553
 7978SOL    HW227433   4.302   5.302   0.979  0.5269  0.0441 -0.3316
 7979SOL     OW27434   6.862   4.548   8.026  0.2515 -0.2688  1.0069
 7979SOL    HW127435   6.954   4.555   7.999 -0.2005  1.3727 -0.2222
 7979SOL    HW227436   6.861   4.584   8.115  1.1854 -2.6935  2.0940
 7980SOL     OW27437   1.446  10.191   9.954  0.1027  0.1219 -0.4749
 7980SOL    HW127438   1.388  10.124   9.991 -0.2546 -1.0436 -2.9337
 7980SOL    HW227439   1.387  10.256   9.917  0.4520  1.3879  1.1061
 7981SOL     OW27440   8.170  10.816  10.353 -0.1887 -0.0704 -0.8071
 7981SOL    HW127441   8.208  10.860  10.277  1.0067  1.6710  0.7116
 7981SOL    HW227442   8.095  10.870  10.377  1.3883  1.4185  1.1734
 7982SOL     OW27443   0.599   2.506   1.945  0.2168 -0.1154  0.2299
 7982SOL    HW127444   0.644   2.567   1.887 -0.3001  1.1794  1.1241
 7982SOL    HW227445   0.511   2.544   1.956 -0.6963 -1.9194 -0.4868
 7983SOL     OW27446   7.112   2.613   9.413 -0.4243  0.1376  0.0899
 7983SOL    HW127447   7.045   2.563   9.459 -0.0802  0.0820  0.5337
 7983SOL    HW227448   7.188   2.610   9.470  0.5167 -1.2189 -1.1556
 7984SOL     OW27449   1.427   0.406   0.385 -0.0759  0.6780  0.1741
 7984SOL    HW127450   1.342   0.430   0.422 -0.2697  1.8785 -0.9944
 7984SOL    HW227451   1.461   0.338   0.445 -0.9469  1.6045  1.7843
 7985SOL     OW27452   9.952   6.867   7.051  0.6944 -0.0396  0.7869
 7985SOL    HW127453   9.869   6.850   7.097 -0.7375  0.4078 -1.4925
 7985SOL    HW227454   9.975   6.782   7.012 -0.7696  0.6060 -1.6915
 7986SOL     OW27455   7.816   5.592   1.859  0.0072 -0.3325 -0.3383
 7986SOL    HW127456   7.872   5.623   1.788 -0.7588  1.6181 -0.1389
 7986SOL    HW227457   7.872   5.531   1.908  1.7091  0.9463 -0.6108
 7987SOL     OW27458   1.040   8.082   7.715 -0.0588  0.3931  0.4378
 7987SOL    HW127459   0.964   8.140   7.729 -1.2618 -0.9666 -0.1997
 7987SOL    HW227460   1.096   8.131   7.655 -0.0915  1.7127  1.4489
 7988SOL     OW27461   4.128   0.204  10.986  0.2937 -0.2927 -0.0349
 7988SOL    HW127462   4.198   0.174  10.929 -1.3284 -3.2538 -0.6878
 7988SOL    HW227463   4.129   0.144  11.061 -1.6851 -0.6330 -0.2210
 7989SOL     OW27464   7.496   1.843   9.733 -0.6312 -0.1180 -0.2389
 7989SOL    HW127465   7.416   1.870   9.779 -0.9565  0.9974 -1.3998
 7989SOL    HW227466   7.563   1.901   9.766 -0.9019  0.8047 -1.2488
 7990SOL     OW27467   6.761   4.090   7.019 -0.9299 -0.0187 -0.4495
 7990SOL    HW127468   6.775   3.998   7.040  0.8472  0.4261  0.5138
 7990SOL    HW227469   6.698   4.089   6.948 -0.3571 -2.0180 -0.9922
 7991SOL     OW27470   0.686   8.206   3.744 -0.6004  0.3733 -0.0127
 7991SOL    HW127471   0.763   8.231   3.795  0.0585  0.5926 -1.0673
 7991SOL    HW227472   0.653   8.128   3.787  0.2305  0.2685  0.4610
 7992SOL     OW27473   8.822   1.636   3.550 -0.2682 -0.0327 -0.5012
 7992SOL    HW127474   8.870   1.575   3.606 -1.9048 -0.9100  0.0114
 7992SOL    HW227475   8.730   1.626   3.577 -0.4128  5.5726  2.5284
 7993SOL     OW27476   7.690   1.010   7.060 -0.0163  0.2002  0.3174
 7993SOL    HW127477   7.650   1.027   6.975  0.0565  0.6709  0.3711
 7993SOL    HW227478   7.714   1.097   7.092 -2.2150  0.3011  1.9023
 7994SOL     OW27479   7.382   5.907   6.047 -0.7282 -0.1113 -0.3268
 7994SOL    HW127480   7.415   5.906   6.137 -1.8756  1.4521  0.1613
 7994SOL    HW227481   7.455   5.938   5.994 -0.8447  1.6824  0.4925
 7995SOL     OW27482   4.875   6.828   9.303 -0.0881  0.2966  0.5024
 7995SOL    HW127483   4.928   6.907   9.302 -2.1758  1.7678 -0.8641
 7995SOL    HW227484   4.817   6.839   9.379 -0.6168  0.2462  0.1093
 7996SOL     OW27485   0.314   1.908   9.168 -0.1995  0.0049  0.4674
 7996SOL    HW127486   0.329   1.980   9.230  1.6743  2.5625 -2.6018
 7996SOL    HW227487   0.400   1.867   9.160 -0.0169  0.6352 -1.3240
 7997SOL     OW27488   3.621   3.828   0.812  0.7593 -0.5231 -0.0412
 7997SOL    HW127489   3.693   3.870   0.859 -1.1580  1.0550  1.6326
 7997SOL    HW227490   3.579   3.899   0.764 -0.2161 -1.2644 -0.3055
 7998SOL     OW27491   5.210  10.009  10.268  0.1831 -0.4505 -0.3891
 7998SOL    HW127492   5.197  10.090  10.219  0.8858 -0.5934 -0.8198
 7998SOL    HW227493   5.140   9.951  10.237 -0.8489  0.2587  0.5360
 7999SOL     OW27494   3.401   6.582   0.718  0.0721 -0.1203  0.0530
 7999SOL    HW127495   3.334   6.526   0.679  1.2973 -0.4780 -1.6426
 7999SOL    HW227496   3.369   6.671   0.703 -0.2672 -0.2932 -0.2818
 8000SOL     OW27497   1.132   0.871   8.885 -0.6541 -0.0794  0.0978
 8000SOL    HW127498   1.198   0.937   8.863  0.4792 -0.8783  0.9453
 8000SOL    HW227499   1.139   0.806   8.815  0.6056 -0.9395  0.9546
 8001SOL     OW27500   4.697   5.042   1.809 -0.0445  0.0488  0.3897
 8001SOL    HW127501   4.619   5.005   1.851  0.2101 -0.8640  0.0736
 8001SOL    HW227502   4.757   5.060   1.882 -0.5246  0.7312  0.6319
 8002SOL     OW27503   2.671   9.438   1.270 -0.1754  0.1855 -0.1053
 8002SOL    HW127504   2.641   9.526   1.247  0.4472  0.5301  0.3697
 8002SOL    HW227505   2.622   9.415   1.349  0.6739  0.6921  0.5900
 8003SOL     OW27506   1.355   8.916   1.939  0.1313  0.7500 -0.3404
 8003SOL    HW127507   1.288   8.914   1.870 -0.1621  0.1423 -0.0528
 8003SOL    HW227508   1.355   8.827   1.975 -0.7306  1.3979  1.3982
 8004SOL     OW27509   3.746   1.382   7.497 -0.3874  0.1774  1.0722
 8004SOL    HW127510   3.734   1.306   7.554 -0.5009  0.2844  1.1928
 8004SOL    HW227511   3.811   1.436   7.541 -0.5889  0.3361  1.1822
 8005SOL     OW27512   8.386   3.652   4.775 -0.1186 -0.1745 -0.1693
 8005SOL    HW127513   8.432   3.726   4.815 -1.1834  0.2371  0.3500
 8005SOL    HW227514   8.329   3.692   4.709  0.3082 -0.6804 -0.8606
 8006SOL     OW27515   6.838   5.249   7.221  0.1103 -0.0899 -0.1268
 8006SOL    HW127516   6.857   5.340   7.244 -1.1017 -0.3106  2.0257
 8006SOL    HW227517   6.905   5.199   7.267  0.2651 -0.3273 -0.6147
 8007SOL     OW27518   4.013   4.539   2.199  0.1072 -0.0418  0.0824
 8007SOL    HW127519   4.081   4.484   2.159  0.0743  0.2139 -0.3278
 8007SOL    HW227520   3.966   4.480   2.258  0.7350 -0.2035  0.4318
 8008SOL     OW27521   2.570   5.215   9.041 -0.2974 -0.5898  0.6691
 8008SOL    HW127522   2.552   5.274   9.115 -0.5513 -0.8815  0.8420
 8008SOL    HW227523   2.535   5.262   8.965 -0.3372 -0.4367  0.7795
 8009SOL     OW27524   5.643   3.905   3.985 -0.7749 -0.3861 -0.5065
 8009SOL    HW127525   5.647   3.824   3.933  0.4643 -0.9381  0.4070
 8009SOL    HW227526   5.564   3.950   3.953 -1.0981 -1.6112 -1.5188
 8010SOL     OW27527   2.669   9.202   3.519 -0.1051 -0.0333  0.4797
 8010SOL    HW127528   2.696   9.167   3.434 -0.3314  2.0519 -0.5352
 8010SOL    HW227529   2.741   9.260   3.545 -1.5949  2.2739 -0.1918
 8011SOL     OW27530   5.422   9.238   2.595  0.1305 -0.5075 -0.3368
 8011SOL    HW127531   5.391   9.273   2.679 -2.1802 -0.5226 -1.1148
 8011SOL    HW227532   5.422   9.143   2.607 -0.3950 -0.5178 -0.4115
 8012SOL     OW27533   9.444   1.130   6.441 -0.3795 -0.0588 -0.6350
 8012SOL    HW127534   9.448   1.182   6.521 -1.1370  1.7287 -1.6762
 8012SOL    HW227535   9.355   1.094   6.440 -0.4149  0.0279 -0.7183
 8013SOL     OW27536   8.572   2.557   4.729  0.1061 -0.1518  0.3873
 8013SOL    HW127537   8.512   2.555   4.654 -1.1424  2.3063  1.1924
 8013SOL    HW227538   8.644   2.499   4.704 -1.1121 -0.7771 -1.9562
 8014SOL     OW27539   0.085   5.760   8.500 -0.7238 -0.2734 -0.6700
 8014SOL    HW127540   0.065   5.850   8.472  0.1873  0.3305  0.5411
 8014SOL    HW227541   0.119   5.769   8.589 -1.5543 -1.9347 -0.1360
 8015SOL     OW27542   4.605   2.556   7.740 -0.0363  0.2206 -0.4101
 8015SOL    HW127543   4.554   2.478   7.718  0.8959 -0.5166 -0.0121
 8015SOL    HW227544   4.695   2.525   7.746  0.3296  1.3017 -0.0823
 8016SOL     OW27545   2.548   6.086   6.771  0.2566  0.7876 -0.3972
 8016SOL    HW127546   2.530   6.159   6.712  0.5571  0.7339 -0.5588
 8016SOL    HW227547   2.629   6.111   6.815  0.0504  0.8146 -0.0280
 8017SOL     OW27548   9.530   1.244   9.795 -0.2811 -0.1485 -0.0529
 8017SOL    HW127549   9.617   1.250   9.756 -0.3394 -0.5460 -0.2463
 8017SOL    HW227550   9.512   1.333   9.827  0.3032 -0.1261  0.2259
 8018SOL     OW27551   8.913   3.608   7.712 -0.3444 -0.2877  0.5402
 8018SOL    HW127552   8.843   3.672   7.719 -0.3846 -0.3144  0.3713
 8018SOL    HW227553   8.903   3.569   7.626  0.8303  0.8306 -0.1464
 8019SOL     OW27554   7.712   0.493   7.499 -0.8240 -0.1707 -0.0761
 8019SOL    HW127555   7.628   0.484   7.455 -1.2136  0.9232  0.3980
 8019SOL    HW227556   7.748   0.576   7.466 -0.4051 -0.1204  0.4737
 8020SOL     OW27557   9.842   5.273   2.335  0.2460 -0.6845  0.0653
 8020SOL    HW127558   9.916   5.246   2.281  1.3985 -0.0094  1.2439
 8020SOL    HW227559   9.801   5.344   2.286 -0.0570 -1.5126 -0.9155
 8021SOL     OW27560   5.970  10.592   2.450  0.2044  0.0797 -0.3827
 8021SOL    HW127561   5.884  10.597   2.408 -0.1802 -2.3310 -0.0116
 8021SOL    HW227562   6.001  10.503   2.433  1.2670 -0.1077  2.0466
 8022SOL     OW27563   0.066  10.642   4.105 -0.4786 -0.1976 -0.0504
 8022SOL    HW127564   0.001  10.634   4.035 -0.3699  1.0528 -0.3225
 8022SOL    HW227565   0.134  10.699   4.067 -0.4830  0.6097  1.1228
 8023SOL     OW27566   6.081   3.313   4.011  0.1755 -0.2257 -0.2323
 8023SOL    HW127567   5.995   3.272   4.019  0.5542 -0.9029  0.5087
 8023SOL    HW227568   6.098   3.350   4.098  2.0101 -2.9190  0.6625
 8024SOL     OW27569   5.836   6.561   5.838  0.2883  0.2668  0.6620
 8024SOL    HW127570   5.876   6.473   5.834 -1.0782 -0.3313 -0.5175
 8024SOL    HW227571   5.860   6.602   5.755 -0.8615  0.1880  0.2730
 8025SOL     OW27572   0.435   3.127   3.807 -0.3783  0.2742  0.1658
 8025SOL    HW127573   0.505   3.192   3.801  0.6440 -0.8005  0.1811
 8025SOL    HW227574   0.462   3.057   3.747 -1.2706 -0.3166  0.4397
 8026SOL     OW27575   1.956   8.240   5.984 -0.8444  0.1114  0.1129
 8026SOL    HW127576   1.949   8.148   5.960  2.2164 -0.2203  0.1106
 8026SOL    HW227577   2.031   8.245   6.043 -1.4769  2.5062  0.8616
 8027SOL     OW27578   5.169   3.134  10.733  0.2129  0.3144  0.4704
 8027SOL    HW127579   5.233   3.206  10.736 -1.0578  1.5281 -0.4419
 8027SOL    HW227580   5.158   3.115  10.640  1.4681 -1.9924  0.7248
 8028SOL     OW27581   6.485   0.675   2.096 -0.4352 -0.1881  0.0112
 8028SOL    HW127582   6.391   0.663   2.084 -0.6676 -0.4537  1.8212
 8028SOL    HW227583   6.514   0.596   2.142  0.6692 -0.0924 -0.4904
 8029SOL     OW27584   9.981   4.162   9.616  0.3863  0.2834 -0.1500
 8029SOL    HW127585  10.035   4.236   9.642  1.3570  0.0767 -1.4683
 8029SOL    HW227586   9.948   4.186   9.529  0.9748 -0.9363 -0.7357
 8030SOL     OW27587   1.341   5.943   4.525 -0.2607 -0.1696 -0.2347
 8030SOL    HW127588   1.408   5.989   4.475 -1.0716  0.3780 -0.8529
 8030SOL    HW227589   1.273   5.922   4.460 -0.3536 -1.3646  0.2282
 8031SOL     OW27590   7.291   6.712  10.224  0.4364 -0.7377  0.1041
 8031SOL    HW127591   7.225   6.651  10.189  0.4239 -0.5456 -0.2174
 8031SOL    HW227592   7.318   6.764  10.148 -1.4917  1.5076  0.8310
 8032SOL     OW27593   4.580   2.995   4.813  0.0294  0.1972 -0.0196
 8032SOL    HW127594   4.550   3.027   4.728 -0.8119  0.9202  0.5349
 8032SOL    HW227595   4.601   2.903   4.798  1.8728  0.7932 -1.4926
 8033SOL     OW27596   3.308   9.318   2.490  0.7617  0.7317 -0.1030
 8033SOL    HW127597   3.349   9.232   2.479 -1.0303 -0.0062 -1.6151
 8033SOL    HW227598   3.326   9.341   2.581  0.0330 -1.9581  0.8283
 8034SOL     OW27599   3.977   7.801   0.618  0.1456 -0.2353  0.3641
 8034SOL    HW127600   3.905   7.745   0.588 -0.5896  0.9302 -0.1078
 8034SOL    HW227601   4.056   7.752   0.596 -0.4317 -0.4655 -1.3522
 8035SOL     OW27602   9.748   9.065   6.085  0.5568 -0.2909  0.3746
 8035SOL    HW127603   9.754   8.970   6.092  0.5243 -0.1943  2.5197
 8035SOL    HW227604   9.745   9.095   6.176 -2.3530  1.5826 -0.2162
 8036SOL     OW27605  10.554   4.737   9.115 -0.7100  0.0366 -0.6900
 8036SOL    HW127606  10.625   4.715   9.176 -2.2971 -1.0825  0.8462
 8036SOL    HW227607  10.577   4.693   9.034 -0.2150 -1.3345  0.1606
 8037SOL     OW27608   3.004   7.976   3.021 -0.0299 -0.1312  0.3194
 8037SOL    HW127609   3.047   7.894   3.000 -1.0981 -0.2241 -1.7010
 8037SOL    HW227610   2.911   7.955   3.027 -0.7981  1.3284 -3.4807
 8038SOL     OW27611   9.755   0.654   3.207  0.3791 -1.0421 -0.0766
 8038SOL    HW127612   9.786   0.569   3.175  0.1654 -0.9487 -0.5574
 8038SOL    HW227613   9.801   0.668   3.289 -0.7750 -2.3766  0.8448
 8039SOL     OW27614   0.907  10.762   4.083  0.0717  0.1977 -0.2161
 8039SOL    HW127615   0.834  10.814   4.116  1.1188  0.6611  1.5135
 8039SOL    HW227616   0.918  10.692   4.148  0.5974 -0.4133 -0.9431
 8040SOL     OW27617   6.438   4.676   4.326  0.3572 -0.2686 -0.5062
 8040SOL    HW127618   6.409   4.657   4.237  0.2417 -1.8821 -0.1708
 8040SOL    HW227619   6.395   4.609   4.380 -0.5491  1.4052  0.9635
 8041SOL     OW27620   8.434   7.185   3.032 -0.2207  0.1043  0.1013
 8041SOL    HW127621   8.511   7.214   3.081 -0.6641 -0.5122  1.1856
 8041SOL    HW227622   8.399   7.111   3.082  0.9618 -2.5098 -2.6246
 8042SOL     OW27623   7.872   3.223   5.074  0.4171 -0.2934  0.6233
 8042SOL    HW127624   7.832   3.205   4.989  1.6527 -2.6808  0.4491
 8042SOL    HW227625   7.807   3.192   5.137 -0.4017  1.2632  0.5863
 8043SOL     OW27626   6.114   7.880  10.713  0.2199 -0.5139  0.0312
 8043SOL    HW127627   6.064   7.859  10.792  0.3183 -0.6716  0.0544
 8043SOL    HW227628   6.206   7.865  10.739  0.1975 -1.3438 -0.3430
 8044SOL     OW27629   4.521  10.704   4.076 -0.1427  0.0044  0.3918
 8044SOL    HW127630   4.525  10.740   4.165 -0.2827  0.4089  0.2371
 8044SOL    HW227631   4.543  10.778   4.019  0.2541 -0.3320  0.1066
 8045SOL     OW27632   6.414  10.467   0.303  0.1747  0.0398 -0.4956
 8045SOL    HW127633   6.492  10.520   0.320 -0.3478  0.7499 -0.2451
 8045SOL    HW227634   6.358  10.484   0.379 -0.0883 -0.7214 -0.5148
 8046SOL     OW27635   9.431   9.888   4.293  0.6486  0.1310 -0.1421
 8046SOL    HW127636   9.413   9.960   4.232 -1.0908 -0.5685 -0.5279
 8046SOL    HW227637   9.447   9.931   4.377 -0.1848  0.9968 -0.4007
 8047SOL     OW27638   8.180   4.655   6.995  0.3855 -0.4384  0.0458
 8047SOL    HW127639   8.257   4.598   6.990  0.2085 -0.8456  1.4602
 8047SOL    HW227640   8.166   4.669   7.089 -1.0271 -0.0508 -0.1920
 8048SOL     OW27641   4.662   3.757   2.181 -0.5096 -0.6861 -0.3271
 8048SOL    HW127642   4.583   3.810   2.184  0.2146  0.4021  0.0427
 8048SOL    HW227643   4.718   3.798   2.116  0.3163 -0.6028  0.4041
 8049SOL     OW27644   0.588   4.585  10.055  0.3168 -0.3008  0.2039
 8049SOL    HW127645   0.616   4.592  10.146  0.9985 -0.0634 -0.0165
 8049SOL    HW227646   0.561   4.494  10.044  1.8907 -0.7867  0.1828
 8050SOL     OW27647  10.908   7.894   9.549 -0.1818 -0.1187 -0.1552
 8050SOL    HW127648  10.894   7.926   9.460 -0.6808 -0.3201 -0.1513
 8050SOL    HW227649  10.879   7.965   9.605 -1.2022 -0.5299 -0.1474
 8051SOL     OW27650  10.372   7.136   0.786  0.4226 -0.1245 -0.1642
 8051SOL    HW127651  10.343   7.045   0.784  1.6629 -0.5345 -0.0985
 8051SOL    HW227652  10.291   7.187   0.793 -0.1718 -1.2864  2.3229
 8052SOL     OW27653   8.413   1.158   3.799  0.4087 -0.6804  0.3250
 8052SOL    HW127654   8.425   1.221   3.870  0.5929 -0.1227 -0.1903
 8052SOL    HW227655   8.481   1.093   3.812 -0.8561 -1.7723  1.8966
 8053SOL     OW27656   4.182   6.851   4.553 -0.6559  0.6326  0.3824
 8053SOL    HW127657   4.169   6.877   4.645 -1.0089  0.5116  0.3686
 8053SOL    HW227658   4.106   6.886   4.508  0.5175  2.5344 -0.2581
 8054SOL     OW27659   6.278   8.578   4.260 -0.4014  0.2625 -0.4478
 8054SOL    HW127660   6.358   8.545   4.300 -1.0351  2.0422  2.6101
 8054SOL    HW227661   6.207   8.539   4.310 -1.4375 -0.0011 -2.0349
 8055SOL     OW27662   5.907  10.970   5.242 -0.5816  0.3590  0.4219
 8055SOL    HW127663   5.953  10.969   5.158 -0.4950  1.3966  0.4317
 8055SOL    HW227664   5.960  10.914   5.299 -1.0447 -0.9450 -0.3995
 8056SOL     OW27665   3.566   5.196   7.228  0.0127 -0.1634  0.5363
 8056SOL    HW127666   3.507   5.228   7.297  0.5163 -0.6697  1.2178
 8056SOL    HW227667   3.650   5.239   7.246  0.5487 -1.3912  1.1349
 8057SOL     OW27668   3.504   5.084   7.572  0.5135  0.1865  0.0450
 8057SOL    HW127669   3.492   5.146   7.644  1.3766  0.3565  0.0467
 8057SOL    HW227670   3.589   5.106   7.534  1.2590 -1.5773  0.6081
 8058SOL     OW27671   4.942   2.679   9.843 -0.0934 -0.0334 -0.0593
 8058SOL    HW127672   4.871   2.615   9.848 -1.2663  1.2955  0.7390
 8058SOL    HW227673   4.945   2.720   9.929  1.5593  0.0646 -0.1237
 8059SOL     OW27674   8.837   5.900  10.626  0.3941  0.2496  0.4107
 8059SOL    HW127675   8.769   5.844  10.588  0.5070  1.5541 -1.8570
 8059SOL    HW227676   8.910   5.840  10.643 -0.4134 -0.7305  0.5207
 8060SOL     OW27677   7.338   3.051   1.448 -0.4774 -0.4989  0.0861
 8060SOL    HW127678   7.389   2.978   1.413 -0.6619 -1.3344  1.4432
 8060SOL    HW227679   7.375   3.066   1.535  0.4090  1.9153 -0.6260
 8061SOL     OW27680   6.875   1.703   6.168 -0.2716 -0.1739 -0.4338
 8061SOL    HW127681   6.794   1.717   6.119 -0.6560 -0.1006  0.2080
 8061SOL    HW227682   6.850   1.644   6.239  0.0277  0.5688  0.3072
 8062SOL     OW27683   9.331   6.405   3.547 -0.3972 -0.3074  0.3794
 8062SOL    HW127684   9.379   6.338   3.498 -0.9408 -0.6165  0.2707
 8062SOL    HW227685   9.244   6.368   3.561 -0.6210  0.2663  0.5456
 8063SOL     OW27686  10.302   3.939   5.996 -0.2651  0.4107  0.6816
 8063SOL    HW127687  10.246   4.003   6.041 -0.7528  1.8410 -1.7680
 8063SOL    HW227688  10.387   3.982   5.988 -0.3870  0.4857 -0.3533
 8064SOL     OW27689   4.570   7.673   5.892  0.0839  0.3962 -0.2427
 8064SOL    HW127690   4.627   7.619   5.946 -0.2861 -0.2220 -0.4620
 8064SOL    HW227691   4.505   7.612   5.858 -1.8435  1.3862  1.4663
 8065SOL     OW27692   6.098   7.378   3.460  0.2756 -0.3043  0.6996
 8065SOL    HW127693   6.185   7.411   3.438 -0.8441  1.2067 -2.0679
 8065SOL    HW227694   6.091   7.295   3.411 -0.1850  0.1509 -0.0379
 8066SOL     OW27695  10.911   5.697  10.138  0.1038  0.0517  0.1511
 8066SOL    HW127696  10.896   5.654  10.222  1.0615  0.5506  0.5930
 8066SOL    HW227697  10.993   5.745  10.150  0.3076  0.0445 -1.1058
 8067SOL     OW27698   3.742   3.179   0.582  0.3847  0.1665 -0.3166
 8067SOL    HW127699   3.744   3.174   0.677  0.3608  2.1023 -0.1665
 8067SOL    HW227700   3.713   3.092   0.553 -0.7549 -0.0972  1.4842
 8068SOL     OW27701   7.772   1.492   9.996  0.2405 -0.4832 -0.4062
 8068SOL    HW127702   7.716   1.544   9.939 -0.6699  1.7527  2.3199
 8068SOL    HW227703   7.711   1.440  10.049  0.9153 -0.6373  0.2316
 8069SOL     OW27704   6.146   6.642   6.634 -0.6171  0.4486 -0.0232
 8069SOL    HW127705   6.153   6.587   6.556 -0.1520 -0.2080  0.4644
 8069SOL    HW227706   6.234   6.677   6.647 -0.6521  0.4328  0.2840
 8070SOL     OW27707   9.446   3.141   3.185 -0.4319  0.0150  0.0404
 8070SOL    HW127708   9.396   3.220   3.161 -1.0713 -0.7266 -1.2055
 8070SOL    HW227709   9.416   3.119   3.273 -1.9912 -0.1370 -0.5016
 8071SOL     OW27710   9.145   9.148   0.442 -1.2269  0.0620 -0.0377
 8071SOL    HW127711   9.235   9.180   0.448 -1.4153  0.5453  0.2279
 8071SOL    HW227712   9.134   9.093   0.520 -0.6194 -1.4047 -0.9439
 8072SOL     OW27713   0.468   6.715   5.172  0.8433  0.1014 -0.0088
 8072SOL    HW127714   0.467   6.624   5.144 -0.2410 -0.2948  1.2310
 8072SOL    HW227715   0.456   6.712   5.267 -0.3143  1.5462 -0.0629
 8073SOL     OW27716   3.672  11.006   6.174 -0.1220  0.2181 -0.4945
 8073SOL    HW127717   3.705  10.923   6.137 -1.0875 -0.5160  0.2537
 8073SOL    HW227718   3.605  10.980   6.236  0.1261  1.5412  0.3730
 8074SOL     OW27719  10.493   1.842   6.306  0.0254 -0.3685  0.0620
 8074SOL    HW127720  10.408   1.874   6.337 -0.0106 -1.5508  1.2783
 8074SOL    HW227721  10.541   1.921   6.282 -0.8055  0.4429  0.9898
 8075SOL     OW27722   1.418   2.202  10.241  0.1221 -0.0909 -0.1651
 8075SOL    HW127723   1.332   2.244  10.240  1.0300  1.9446  0.7901
 8075SOL    HW227724   1.424   2.157  10.157 -1.6279  0.2435 -0.5010
 8076SOL     OW27725   0.767   9.177   6.748 -0.0792  0.0710 -0.7560
 8076SOL    HW127726   0.749   9.132   6.831  0.1140  0.3261 -0.5711
 8076SOL    HW227727   0.862   9.189   6.748 -0.2853  2.1651  0.0981
 8077SOL     OW27728   1.734   3.883   0.639 -0.1870 -0.0059  0.1065
 8077SOL    HW127729   1.684   3.930   0.706 -0.7545  0.6619 -0.7760
 8077SOL    HW227730   1.781   3.951   0.591  0.3290 -0.4949 -0.0957
 8078SOL     OW27731   6.164   7.775   4.850 -0.2703  0.2813 -1.0500
 8078SOL    HW127732   6.102   7.839   4.884  1.0323  0.7179  0.6046
 8078SOL    HW227733   6.172   7.710   4.919 -1.6310 -1.8370 -2.7149
 8079SOL     OW27734   7.754   8.101   8.184  0.1064  0.2146  0.1095
 8079SOL    HW127735   7.828   8.055   8.225  1.5427  1.8696 -0.5191
 8079SOL    HW227736   7.748   8.063   8.096 -1.1747 -1.3694  0.8349
 8080SOL     OW27737   8.462   1.491   3.787 -0.2519  0.4349 -0.2793
 8080SOL    HW127738   8.457   1.587   3.787 -0.8419  0.4055 -0.5920
 8080SOL    HW227739   8.461   1.467   3.694 -1.9404  0.0464 -0.1958
 8081SOL     OW27740   7.403  10.983   6.666 -0.4888 -0.3448 -0.8213
 8081SOL    HW127741   7.389  10.966   6.573 -0.5842 -1.4633 -0.6272
 8081SOL    HW227742   7.476  10.925   6.690  0.4577  0.9434 -0.4914
 8082SOL     OW27743   2.733   0.889   2.820 -0.3799  0.1741  0.0153
 8082SOL    HW127744   2.782   0.827   2.766  0.7873  1.0835 -0.0185
 8082SOL    HW227745   2.695   0.835   2.890  1.3774 -0.4948  0.5192
 8083SOL     OW27746   1.721   8.667   1.661 -0.0135 -0.2357 -0.0131
 8083SOL    HW127747   1.669   8.740   1.627  0.1089  0.3430  0.9864
 8083SOL    HW227748   1.664   8.624   1.724  1.1024  1.2597  2.1663
 8084SOL     OW27749   6.768   3.239   5.254 -0.0062 -0.0283  0.1543
 8084SOL    HW127750   6.843   3.180   5.261  0.5052  0.6300  0.3807
 8084SOL    HW227751   6.707   3.208   5.322  0.2583 -0.2905  0.2750
 8085SOL     OW27752   8.513   1.851  10.037 -0.1510 -0.2971  0.3754
 8085SOL    HW127753   8.422   1.824  10.053 -0.7469  1.8826  1.0920
 8085SOL    HW227754   8.552   1.855  10.124  0.3231 -0.2326  0.1595
 8086SOL     OW27755   7.853  10.601   2.502 -0.6999 -0.3515  0.1422
 8086SOL    HW127756   7.872  10.695   2.502 -1.3677 -0.1919  1.4592
 8086SOL    HW227757   7.939  10.560   2.509 -0.2806  0.0865 -1.9432
 8087SOL     OW27758   1.304   3.770   7.368  0.1669 -0.5043  0.4224
 8087SOL    HW127759   1.396   3.767   7.394  0.2593 -1.5474  0.0336
 8087SOL    HW227760   1.278   3.861   7.382  1.7927  0.2858 -1.3396
 8088SOL     OW27761   7.355   2.241   0.708 -0.2323  0.1388 -0.1803
 8088SOL    HW127762   7.338   2.214   0.618  1.1553  1.2374 -0.8013
 8088SOL    HW227763   7.350   2.336   0.707  0.9924  0.2310  0.6345
 8089SOL     OW27764   3.420   9.838   4.090  0.2279  0.3474  0.8625
 8089SOL    HW127765   3.508   9.803   4.075  0.6922  1.9103 -0.2961
 8089SOL    HW227766   3.373   9.766   4.132  1.4474 -1.2687 -0.3805
 8090SOL     OW27767   3.387   5.415  10.150  0.0762  0.7290 -0.3715
 8090SOL    HW127768   3.360   5.492  10.200 -1.6118 -0.1792  0.2044
 8090SOL    HW227769   3.312   5.356  10.155  1.4627 -1.1262 -0.4659
 8091SOL     OW27770   5.373   2.914   6.664  0.2632  0.2536 -0.2917
 8091SOL    HW127771   5.291   2.941   6.706 -0.0617 -1.0189 -0.0557
 8091SOL    HW227772   5.384   2.822   6.690  1.9147  0.4778 -0.0958
 8092SOL     OW27773   8.232   5.671   8.531 -0.7010 -0.1132  0.3670
 8092SOL    HW127774   8.160   5.680   8.593 -0.9719  0.0070  0.0330
 8092SOL    HW227775   8.191   5.648   8.448 -0.2396 -1.6135  0.5221
 8093SOL     OW27776   8.537   1.774   8.533  0.2959  0.0554  0.0321
 8093SOL    HW127777   8.484   1.817   8.601  1.3276 -0.7228  1.3973
 8093SOL    HW227778   8.553   1.686   8.568  0.2903 -0.6030 -1.5682
 8094SOL     OW27779   9.047   0.821   0.985 -0.1360 -0.4776 -0.2402
 8094SOL    HW127780   9.043   0.729   0.956  2.6128  0.2389 -3.4486
 8094SOL    HW227781   8.998   0.869   0.919  0.4330  0.5956  0.1012
 8095SOL     OW27782   3.350   0.235   8.078  0.0395  0.0505  0.7345
 8095SOL    HW127783   3.334   0.329   8.085 -0.4400  0.0502 -0.2507
 8095SOL    HW227784   3.341   0.215   7.985 -2.2341 -1.3751  1.1718
 8096SOL     OW27785   4.480   4.583  10.626 -0.6015  0.1042 -0.0068
 8096SOL    HW127786   4.457   4.629  10.707  1.9622 -0.2197  0.9973
 8096SOL    HW227787   4.514   4.652  10.568 -0.9496  0.1059 -0.2107
 8097SOL     OW27788   6.250   7.098  10.114  0.3175  0.3439 -1.0859
 8097SOL    HW127789   6.319   7.034  10.127  0.1364  0.6495  2.4799
 8097SOL    HW227790   6.189   7.083  10.187 -2.6821  1.0291 -3.2300
 8098SOL     OW27791   3.440   9.473   1.899 -0.1428 -0.0593 -0.0431
 8098SOL    HW127792   3.416   9.414   1.970 -0.9780 -0.9928 -1.0753
 8098SOL    HW227793   3.533   9.456   1.884  0.0687  0.2292  0.8841
 8099SOL     OW27794   5.700   6.470  10.701 -0.9037  0.1399 -0.2631
 8099SOL    HW127795   5.758   6.505  10.769 -0.8301 -2.1841  0.9799
 8099SOL    HW227796   5.758   6.420  10.644 -1.5211 -1.6146  0.5825
 8100SOL     OW27797   1.686   5.621  10.489 -0.4287  0.2544  0.6442
 8100SOL    HW127798   1.632   5.570  10.429 -1.0036  0.5686  0.8868
 8100SOL    HW227799   1.716   5.558  10.555  0.3819 -0.1386 -0.0717
 8101SOL     OW27800   1.853   9.174   8.200 -0.8000 -0.3550  0.0256
 8101SOL    HW127801   1.904   9.130   8.132 -1.2780  0.0776 -0.6160
 8101SOL    HW227802   1.884   9.135   8.282  2.1848  1.4609 -0.1147
 8102SOL     OW27803   6.804   2.347   9.269 -0.0524 -0.0019  0.0404
 8102SOL    HW127804   6.794   2.313   9.357  1.1174 -0.7371 -0.0842
 8102SOL    HW227805   6.721   2.392   9.250 -0.8051 -0.9401  1.0209
 8103SOL     OW27806   8.667   7.900   7.530  0.4754 -0.3974 -0.6385
 8103SOL    HW127807   8.760   7.923   7.527  0.5276 -0.4488  0.4593
 8103SOL    HW227808   8.664   7.813   7.568 -0.1120  0.2943  1.0075
 8104SOL     OW27809   9.381   9.892   7.917 -0.3141  0.1139  0.2165
 8104SOL    HW127810   9.332   9.867   7.839 -1.2625  0.7129  0.6040
 8104SOL    HW227811   9.316   9.932   7.975  0.1055 -1.3593  1.8118
 8105SOL     OW27812   5.291   0.604   2.811 -0.2542  0.1176  0.1629
 8105SOL    HW127813   5.264   0.512   2.814 -0.6145  0.1584 -1.2243
 8105SOL    HW227814   5.360   0.606   2.745  0.2415  0.7358  0.6899
 8106SOL     OW27815   1.545   3.614   2.991 -0.2206 -0.2981 -0.6270
 8106SOL    HW127816   1.582   3.605   2.903  1.0330 -0.5521 -0.1052
 8106SOL    HW227817   1.479   3.545   2.997 -0.0429 -0.5256 -1.2314
 8107SOL     OW27818   0.505   9.637   3.348 -0.5651  0.2738 -0.0275
 8107SOL    HW127819   0.578   9.695   3.370 -0.3952  0.8171 -1.8727
 8107SOL    HW227820   0.478   9.664   3.261 -3.4819  0.5906  0.8543
 8108SOL     OW27821   4.630   6.840   4.055 -0.4956  0.0254  0.1399
 8108SOL    HW127822   4.654   6.858   3.964  0.0486 -0.0951  0.2576
 8108SOL    HW227823   4.713   6.843   4.103  0.0052 -4.3574 -0.0451
 8109SOL     OW27824   3.993   7.874   1.692  0.6426  0.6883 -0.0684
 8109SOL    HW127825   3.898   7.884   1.690  0.4606 -0.4757  1.1641
 8109SOL    HW227826   4.017   7.892   1.783  1.3781 -0.6366  0.0353
 8110SOL     OW27827   2.906   4.436   9.608  0.1452  0.2599 -0.0450
 8110SOL    HW127828   2.948   4.518   9.579 -0.1585  0.0970 -0.9520
 8110SOL    HW227829   2.979   4.375   9.619  0.3145  0.4789  0.0602
 8111SOL     OW27830  10.646   9.868   0.346 -0.3582 -0.1758 -0.3155
 8111SOL    HW127831  10.551   9.855   0.341 -0.6378  1.0917  0.8542
 8111SOL    HW227832  10.668   9.911   0.263 -0.5946 -1.4858 -1.0819
 8112SOL     OW27833   8.729   4.895   0.540  0.0425 -0.4308  0.9334
 8112SOL    HW127834   8.734   4.978   0.587  0.5040 -1.3552  2.6175
 8112SOL    HW227835   8.644   4.858   0.565 -0.3063 -0.3347 -0.0630
 8113SOL     OW27836   5.461   4.554   7.577 -0.1160 -0.2032 -0.4582
 8113SOL    HW127837   5.381   4.535   7.529 -1.8844 -0.8156  2.4974
 8113SOL    HW227838   5.506   4.470   7.583  0.6889  0.0936 -1.9099
 8114SOL     OW27839   9.714   3.086  10.196  0.3817  0.7909 -0.7880
 8114SOL    HW127840   9.702   3.166  10.247  1.5086  0.4152  0.1202
 8114SOL    HW227841   9.649   3.092  10.126  0.2545  2.3538 -0.5700
 8115SOL     OW27842   9.869   1.907  10.912  0.6506 -0.0162  0.0783
 8115SOL    HW127843   9.846   1.971  10.978 -0.4269  0.1929 -0.4829
 8115SOL    HW227844   9.906   1.833  10.962 -0.1513  0.1288  0.9093
 8116SOL     OW27845   4.473   9.466   1.766 -0.3841  0.2428  0.6531
 8116SOL    HW127846   4.415   9.403   1.808 -0.0911  0.6361  1.7008
 8116SOL    HW227847   4.556   9.420   1.755 -1.0349 -0.5155 -1.4040
 8117SOL     OW27848  10.276   9.625   5.132 -0.1908 -0.0057  0.3590
 8117SOL    HW127849  10.207   9.574   5.089 -1.9223  2.6304 -0.2613
 8117SOL    HW227850  10.296   9.576   5.212  0.3177 -3.0260 -1.4531
 8118SOL     OW27851   6.158   9.264   5.710 -0.1136 -0.3843  0.1651
 8118SOL    HW127852   6.122   9.350   5.687  0.3867 -0.4520 -0.9057
 8118SOL    HW227853   6.199   9.277   5.795 -1.9084 -0.0983  1.0471
 8119SOL     OW27854   2.474   1.178   6.199 -0.1966  0.2582 -0.2880
 8119SOL    HW127855   2.391   1.179   6.151 -0.3129  2.8225 -0.1793
 8119SOL    HW227856   2.511   1.265   6.184  0.9753  0.2672  2.2202
 8120SOL     OW27857   6.970   9.668   1.018  0.3138  0.0503  0.2692
 8120SOL    HW127858   6.937   9.638   1.103 -2.9773  0.1653 -0.8019
 8120SOL    HW227859   7.004   9.589   0.977 -3.3358 -1.4136 -0.3939
 8121SOL     OW27860   3.490   7.193  10.364 -0.0263 -0.1273 -0.5539
 8121SOL    HW127861   3.396   7.182  10.347 -0.0266 -0.0172 -0.6236
 8121SOL    HW227862   3.510   7.129  10.432 -0.3143  0.4026  0.0344
 8122SOL     OW27863   9.807   4.764   9.061 -0.3649 -0.5985  0.3890
 8122SOL    HW127864   9.752   4.716   8.999  0.3500 -0.6714 -0.2047
 8122SOL    HW227865   9.845   4.696   9.116 -0.4953 -0.5878  0.4938
 8123SOL     OW27866   5.227   8.204   6.258  0.3147  0.3068  0.7261
 8123SOL    HW127867   5.266   8.181   6.174 -0.4034 -1.9780  0.9395
 8123SOL    HW227868   5.152   8.259   6.235 -0.1495 -0.6773 -0.1834
 8124SOL     OW27869   7.015   4.602   7.367  0.3006  0.0396  0.1528
 8124SOL    HW127870   6.965   4.682   7.382 -1.7665 -1.5793  2.7985
 8124SOL    HW227871   7.074   4.596   7.442 -0.9433 -1.8181  1.0455
 8125SOL     OW27872   0.199   1.839  10.657  0.0250 -0.6685  0.0968
 8125SOL    HW127873   0.136   1.909  10.674  1.8099  1.2025 -0.4519
 8125SOL    HW227874   0.202   1.833  10.561  0.1503 -1.2569  0.1371
 8126SOL     OW27875   4.648   1.141   9.409  0.7795  0.1200  0.6357
 8126SOL    HW127876   4.607   1.171   9.328  0.6824 -1.1742  0.1751
 8126SOL    HW227877   4.736   1.179   9.407  1.2546 -0.9727 -0.7722
 8127SOL     OW27878   7.805  10.131   5.933 -0.3884  0.5356  0.5305
 8127SOL    HW127879   7.738  10.199   5.924 -0.0019  1.0763  1.5554
 8127SOL    HW227880   7.768  10.070   5.997  0.5458  1.4684  2.0381
 8128SOL     OW27881   5.032   4.357  10.868  0.6991  0.0061  0.3993
 8128SOL    HW127882   5.016   4.361  10.963  1.4206  1.1962  0.4899
 8128SOL    HW227883   5.124   4.382  10.859  0.7897 -0.6425 -0.5881
 8129SOL     OW27884  10.143   6.136  10.094 -0.2101 -0.8344 -0.1747
 8129SOL    HW127885  10.111   6.061  10.145 -0.2484  0.0426  1.1677
 8129SOL    HW227886  10.065   6.168  10.049 -1.3290  1.0336  2.7481
 8130SOL     OW27887   6.412  10.285   5.470 -0.0618 -0.2679  0.4540
 8130SOL    HW127888   6.318  10.270   5.482  0.4457 -2.4346  2.6456
 8130SOL    HW227889   6.424  10.293   5.376 -2.3103 -0.9863  0.0560
 8131SOL     OW27890   6.708   0.565   3.081  0.4274  0.2825  0.3387
 8131SOL    HW127891   6.716   0.623   3.158  0.2985 -0.3756  0.8555
 8131SOL    HW227892   6.631   0.512   3.101 -0.3701  0.9615 -0.8266
 8132SOL     OW27893   1.223   8.854   2.750 -0.0675 -0.2061 -0.6173
 8132SOL    HW127894   1.247   8.935   2.705  0.8201 -0.0745  0.0816
 8132SOL    HW227895   1.293   8.839   2.813 -1.3044 -0.3686  0.7600
 8133SOL     OW27896   5.227   7.523   9.414 -0.2281  0.2245  0.1320
 8133SOL    HW127897   5.246   7.590   9.348 -0.0819  0.3108  0.2604
 8133SOL    HW227898   5.184   7.571   9.485 -0.2030  0.1684  0.1852
 8134SOL     OW27899   9.550   3.772   5.448 -0.6322  0.0916  0.3902
 8134SOL    HW127900   9.500   3.746   5.370 -1.1895  1.6539  0.1756
 8134SOL    HW227901   9.493   3.748   5.521 -0.9589  0.3109  0.2156
 8135SOL     OW27902   7.805   7.639   9.298  0.0851  0.1261  0.6306
 8135SOL    HW127903   7.760   7.556   9.319  0.6892  0.0319  1.5993
 8135SOL    HW227904   7.813   7.638   9.203 -0.4483 -0.6542  0.5818
 8136SOL     OW27905   4.396  10.424   0.381  0.5871  0.1439  0.5283
 8136SOL    HW127906   4.356  10.453   0.299 -1.3856 -0.4424  1.2394
 8136SOL    HW227907   4.477  10.381   0.354  1.1804  2.0261 -0.8978
 8137SOL     OW27908   3.017   2.543   1.716 -0.2382 -0.3416 -0.6246
 8137SOL    HW127909   2.924   2.559   1.699  0.2326  1.6963 -1.6074
 8137SOL    HW227910   3.053   2.522   1.630  0.2447 -1.0645 -0.2552
 8138SOL     OW27911  10.416   3.359   4.937  0.9274 -0.5094 -0.5491
 8138SOL    HW127912  10.370   3.414   4.873 -1.0864  0.3372  1.4634
 8138SOL    HW227913  10.493   3.326   4.891 -0.4389  0.0065 -3.3723
 8139SOL     OW27914  10.087   4.909   6.495  0.3562  0.2256 -0.2509
 8139SOL    HW127915  10.120   4.888   6.583 -0.3136 -0.2104 -0.1045
 8139SOL    HW227916  10.114   4.835   6.441  3.0860  1.6587 -1.0313
 8140SOL     OW27917   4.746   5.495   4.145 -0.2897  0.0577  0.0297
 8140SOL    HW127918   4.766   5.553   4.219  1.0488 -1.3971  0.8674
 8140SOL    HW227919   4.756   5.550   4.068  0.3079  1.0963  0.8227
 8141SOL     OW27920  10.634   2.031   8.964 -0.3429  0.1467 -0.3999
 8141SOL    HW127921  10.601   2.092   9.030 -1.1922 -0.1421 -0.5440
 8141SOL    HW227922  10.647   2.085   8.886  3.0704  1.0407  0.6057
 8142SOL     OW27923   4.438   6.422  10.677  0.2205  0.4717 -0.9875
 8142SOL    HW127924   4.524   6.438  10.636  1.4373 -2.8967 -0.0818
 8142SOL    HW227925   4.404   6.345  10.632 -1.0705  0.1320  0.4809
 8143SOL     OW27926   8.325   1.136   1.003 -0.2833  0.1931 -0.1243
 8143SOL    HW127927   8.288   1.117   1.089 -0.9929  0.0558 -0.4535
 8143SOL    HW227928   8.390   1.068   0.988 -0.2748  0.1246  0.2327
 8144SOL     OW27929   4.868  10.978  10.029 -0.2838 -0.5318  0.1258
 8144SOL    HW127930   4.859  11.055  10.085  0.6786  0.1565 -0.6428
 8144SOL    HW227931   4.936  11.001   9.967 -0.8067 -1.5650 -0.8693
 8145SOL     OW27932  10.844   2.808  10.912 -0.9223 -1.0065 -0.0312
 8145SOL    HW127933  10.826   2.830  11.003  1.0326 -0.2181  0.2135
 8145SOL    HW227934  10.770   2.844  10.863 -0.7261  0.9197  0.9909
 8146SOL     OW27935   2.642   2.946   4.206  0.0248 -0.2980  0.6210
 8146SOL    HW127936   2.730   2.921   4.235  0.7091 -0.6774 -1.5244
 8146SOL    HW227937   2.633   3.038   4.231  0.7936 -0.4248  1.3960
 8147SOL     OW27938   8.943   2.372   5.013 -0.6039  0.6365  0.4369
 8147SOL    HW127939   9.001   2.430   5.063 -0.3290  0.8823 -0.1592
 8147SOL    HW227940   8.935   2.413   4.927  0.6679 -0.8743 -0.4532
 8148SOL     OW27941   8.336   4.975   9.694  0.2962 -0.3552  0.4076
 8148SOL    HW127942   8.314   5.044   9.757 -0.4954  1.8283 -2.0685
 8148SOL    HW227943   8.399   5.017   9.635  1.3246 -2.4454 -0.0814
 8149SOL     OW27944   7.086   1.060   8.395  0.1589  0.5280 -0.2098
 8149SOL    HW127945   7.079   1.102   8.481 -1.6312  0.5793 -0.3459
 8149SOL    HW227946   7.133   1.124   8.341  1.4638  0.4163  0.7489
 8150SOL     OW27947   0.096   7.642   5.246 -0.1323 -0.4067  0.1347
 8150SOL    HW127948   0.136   7.567   5.201  0.1944  0.8257 -1.7993
 8150SOL    HW227949   0.024   7.605   5.297  2.0559 -2.4328  1.9874
 8151SOL     OW27950   7.027   1.956   5.063  0.0556 -0.2003  0.2430
 8151SOL    HW127951   7.057   2.000   5.142 -0.7160 -3.0778  2.3048
 8151SOL    HW227952   7.107   1.937   5.014  0.3777  4.5033 -1.5944
 8152SOL     OW27953   5.682   3.489   5.422 -0.2478  0.1031 -0.3317
 8152SOL    HW127954   5.674   3.416   5.361  0.5783 -0.6151  0.3874
 8152SOL    HW227955   5.756   3.466   5.478 -2.1720 -0.2729  2.2783
 8153SOL     OW27956   2.830   7.408   7.666 -0.2533 -0.5516 -0.1519
 8153SOL    HW127957   2.845   7.435   7.757  0.1681  0.3124 -0.4739
 8153SOL    HW227958   2.865   7.479   7.613  2.2122 -2.2974 -1.0761
 8154SOL     OW27959   7.906   8.154   9.883  0.3477 -0.1224  0.2529
 8154SOL    HW127960   7.930   8.104   9.805 -0.9206 -0.1070 -0.1620
 8154SOL    HW227961   7.836   8.212   9.854 -2.4026 -2.3038  2.0878
 8155SOL     OW27962   9.210   4.747   2.031  0.4145  0.1735 -0.3837
 8155SOL    HW127963   9.226   4.830   1.986 -0.5773  0.0086 -1.0847
 8155SOL    HW227964   9.281   4.690   2.001  1.9917  1.1811  1.2901
 8156SOL     OW27965   9.893   7.629  10.471  0.1891  0.2490  0.3131
 8156SOL    HW127966   9.895   7.543  10.430 -1.2850 -1.0270  2.6886
 8156SOL    HW227967   9.922   7.614  10.561 -1.0968  1.9928  1.0880
 8157SOL     OW27968   9.321   6.366   7.281 -0.1907  0.2125  0.8475
 8157SOL    HW127969   9.347   6.442   7.229  1.2843 -1.2327 -0.6334
 8157SOL    HW227970   9.395   6.352   7.340 -1.8371  1.8375  3.5170
 8158SOL     OW27971   0.089   8.314   3.003 -0.1689 -0.2144 -0.3569
 8158SOL    HW127972   0.114   8.222   3.015 -0.4279 -0.0879  1.3623
 8158SOL    HW227973   0.002   8.321   3.043  0.1925  0.9473  0.2696
 8159SOL     OW27974   1.899   4.836   5.496 -0.2666 -0.0625 -0.1932
 8159SOL    HW127975   1.883   4.923   5.460  0.5991 -0.1769 -0.8862
 8159SOL    HW227976   1.861   4.840   5.584 -1.7283  0.4593 -0.8126
 8160SOL     OW27977   7.345   1.741   4.176 -0.1449  0.9551 -0.6493
 8160SOL    HW127978   7.364   1.670   4.237 -2.9614  2.5678  2.4103
 8160SOL    HW227979   7.312   1.697   4.097  0.2379 -1.1479  0.2905
 8161SOL     OW27980   8.156   1.380   3.292 -0.3217 -0.2406 -0.0931
 8161SOL    HW127981   8.080   1.399   3.347 -0.7802  0.2838 -0.8833
 8161SOL    HW227982   8.203   1.463   3.286 -0.4996 -0.1912 -0.8297
 8162SOL     OW27983   8.067   4.718   9.397 -0.3533 -0.3675 -0.1392
 8162SOL    HW127984   8.159   4.699   9.380 -0.1220  0.6494 -0.1116
 8162SOL    HW227985   8.063   4.737   9.491 -0.5775 -0.3462 -0.1527
 8163SOL     OW27986   5.258   1.655   6.588  0.0011 -0.1722  0.1312
 8163SOL    HW127987   5.253   1.726   6.652  0.7303  1.4592 -1.5363
 8163SOL    HW227988   5.284   1.579   6.639 -0.8651  0.7112  1.9979
 8164SOL     OW27989   0.479   0.204   4.773  0.1074 -0.0015  0.3248
 8164SOL    HW127990   0.513   0.139   4.834  0.7309 -0.4946 -0.5314
 8164SOL    HW227991   0.409   0.158   4.726  0.8943 -0.2293 -0.6407
 8165SOL     OW27992   9.751   6.870   8.937  0.4532  0.0966 -0.0327
 8165SOL    HW127993   9.822   6.929   8.962  1.9389 -1.2276 -0.9109
 8165SOL    HW227994   9.760   6.861   8.842 -0.1628 -0.9868 -0.0061
 8166SOL     OW27995   7.044   3.113   7.171  0.0322  0.6287 -0.5786
 8166SOL    HW127996   7.001   3.187   7.128 -1.5672 -0.8890 -1.6832
 8166SOL    HW227997   7.134   3.144   7.187  0.0328  2.0600 -2.9308
 8167SOL     OW27998   4.169   0.512   0.599  0.6074  0.7412  0.3362
 8167SOL    HW127999   4.081   0.546   0.580 -0.5087 -0.6768  2.4988
 8167SOL    HW228000   4.185   0.447   0.530  0.0253  1.1455 -0.1852
 8168SOL     OW28001   8.545   6.626   6.341 -0.0073 -0.0631  0.4839
 8168SOL    HW128002   8.530   6.712   6.302  0.5684 -0.0823  0.2144
 8168SOL    HW228003   8.637   6.628   6.369  0.0074 -0.5864  0.4825
 8169SOL     OW28004   0.746   8.911  10.440 -0.5780  0.3221 -0.6327
 8169SOL    HW128005   0.784   8.918  10.353  1.5414 -1.5793  0.0539
 8169SOL    HW228006   0.798   8.971  10.494 -0.4392 -0.1383 -0.2480
 8170SOL     OW28007   3.454   1.957   6.412  0.2909  0.1622  0.2684
 8170SOL    HW128008   3.405   1.879   6.441 -0.2182  0.8388  1.3224
 8170SOL    HW228009   3.535   1.922   6.376  0.1018 -0.8626  0.7751
 8171SOL     OW28010  10.447   8.991   5.916  0.3002 -0.3001  0.3191
 8171SOL    HW128011  10.375   9.054   5.907  0.2659 -0.3417  0.3063
 8171SOL    HW228012  10.413   8.923   5.974 -0.0774 -0.9191 -0.6046
 8172SOL     OW28013   8.316   8.138   9.261  0.1847 -0.5503 -0.0364
 8172SOL    HW128014   8.399   8.109   9.223  0.2178  1.0566 -1.2707
 8172SOL    HW228015   8.282   8.203   9.200 -0.8953  0.4721  1.5762
 8173SOL     OW28016  10.040   1.378   1.834  0.1148  0.1488 -0.3103
 8173SOL    HW128017  10.075   1.456   1.877  2.1075 -1.4509  1.1558
 8173SOL    HW228018  10.102   1.359   1.763 -0.4285 -0.0595 -0.7448
 8174SOL     OW28019   5.719   6.150   9.975  0.0162 -0.6550  0.2916
 8174SOL    HW128020   5.630   6.133  10.004 -0.1313 -0.2202  0.1040
 8174SOL    HW228021   5.773   6.130  10.052 -0.3193 -0.0863  0.6857
 8175SOL     OW28022   0.058   0.195   1.295  0.6670  0.2051 -0.3202
 8175SOL    HW128023  -0.033   0.219   1.277  1.0604  0.6113 -1.9073
 8175SOL    HW228024   0.068   0.207   1.389 -0.6399  1.1404 -0.2829
 8176SOL     OW28025   7.820   8.791   7.770  0.0729 -0.3980 -0.4636
 8176SOL    HW128026   7.914   8.809   7.777  0.0723 -0.5628  0.0010
 8176SOL    HW228027   7.807   8.712   7.822 -0.4015 -0.0911 -0.1085
 8177SOL     OW28028  10.672   2.135   1.357 -0.0155 -0.3287 -0.6238
 8177SOL    HW128029  10.611   2.105   1.424 -1.1371  0.2761 -1.3414
 8177SOL    HW228030  10.690   2.058   1.303 -0.1291 -0.5089 -0.4024
 8178SOL     OW28031   2.385   2.204   6.115 -0.0797  0.0729  0.7034
 8178SOL    HW128032   2.340   2.269   6.168  0.4166 -0.5753  1.9566
 8178SOL    HW228033   2.328   2.128   6.115  0.1820 -0.1263  0.7920
 8179SOL     OW28034   7.403   2.446   3.551  0.6587  0.1944  0.2824
 8179SOL    HW128035   7.358   2.439   3.467 -0.0209 -2.1730  0.7806
 8179SOL    HW228036   7.360   2.519   3.595 -0.2462  0.2653 -0.6866
 8180SOL     OW28037   0.180   0.160   6.334 -0.0261  0.5386  0.3153
 8180SOL    HW128038   0.263   0.204   6.316  0.7020 -1.0424 -0.3835
 8180SOL    HW228039   0.123   0.186   6.263  1.0267 -1.1236 -1.2316
 8181SOL     OW28040   3.618   2.719   6.789 -0.1266 -0.7855 -0.1970
 8181SOL    HW128041   3.601   2.750   6.699  1.4144 -0.1967 -0.3134
 8181SOL    HW228042   3.539   2.744   6.837 -0.8239 -0.7664 -1.2931
 8182SOL     OW28043   0.829   0.935   1.064  0.0882  0.5755  0.7769
 8182SOL    HW128044   0.830   1.018   1.016 -0.1655  0.0745 -0.1204
 8182SOL    HW228045   0.789   0.873   1.003  1.2322 -0.4448  1.0349
 8183SOL     OW28046   4.432   5.186   9.929 -0.0808  0.1239 -0.3054
 8183SOL    HW128047   4.353   5.180   9.983 -1.0186  2.3577 -1.2856
 8183SOL    HW228048   4.500   5.215   9.990 -0.6386  0.6323  0.0974
 8184SOL     OW28049   2.617   3.079   8.243 -0.1810  0.3863  0.2434
 8184SOL    HW128050   2.670   3.007   8.209  0.1785 -0.1577  1.8623
 8184SOL    HW228051   2.656   3.158   8.206  0.6480 -0.1380 -0.0136
 8185SOL     OW28052   7.491   0.141   2.019  0.1593  0.2764  0.1476
 8185SOL    HW128053   7.496   0.071   1.954 -1.4063 -1.5315  1.8836
 8185SOL    HW228054   7.565   0.124   2.078 -0.7015 -0.4672  1.0447
 8186SOL     OW28055   7.538   0.797   0.546 -0.1064 -0.0737 -0.4922
 8186SOL    HW128056   7.537   0.880   0.498 -0.6461 -0.6918 -1.5925
 8186SOL    HW228057   7.470   0.807   0.612  0.6217  0.7777  0.1575
 8187SOL     OW28058   4.768   4.057   2.313 -0.2668  0.4131  0.4771
 8187SOL    HW128059   4.809   3.971   2.318  1.4672  1.2020  0.7740
 8187SOL    HW228060   4.799   4.093   2.229 -1.6271  0.4605 -0.0318
 8188SOL     OW28061   5.751   0.702  10.390  0.7286  0.0503  0.0834
 8188SOL    HW128062   5.756   0.798  10.397 -1.4296  0.1620  0.9334
 8188SOL    HW228063   5.689   0.687  10.318  0.6253 -0.6917  0.3268
 8189SOL     OW28064  10.056  10.202   4.387  0.0179 -0.0622  0.2541
 8189SOL    HW128065  10.102  10.281   4.361  0.1191  0.3211  1.5322
 8189SOL    HW228066   9.970  10.209   4.345 -0.1046  0.9095  0.6428
 8190SOL     OW28067   8.296   7.992   9.568  0.6727 -0.7091 -0.3485
 8190SOL    HW128068   8.274   8.038   9.487  0.0845 -1.3913 -0.5888
 8190SOL    HW228069   8.216   7.945   9.592  0.6095  0.0536  1.0426
 8191SOL     OW28070   3.691   8.723   5.575 -0.2194 -0.5819 -0.1939
 8191SOL    HW128071   3.756   8.659   5.603 -1.0066 -1.3051  0.0323
 8191SOL    HW228072   3.695   8.792   5.641 -0.8798 -1.4615  0.8029
 8192SOL     OW28073   0.703  10.719   6.027 -0.1162  0.6031 -0.2187
 8192SOL    HW128074   0.797  10.737   6.024 -0.2574  1.8156  1.2425
 8192SOL    HW228075   0.682  10.684   5.941  1.6789  0.2925 -0.5530
 8193SOL     OW28076   7.323  10.928  10.247  0.2913  0.1976  0.5461
 8193SOL    HW128077   7.233  10.940  10.216  0.1703 -0.8345  0.4680
 8193SOL    HW228078   7.373  10.993  10.199 -0.1065 -0.5323 -0.9236
 8194SOL     OW28079   4.608   4.595   7.943 -0.5823 -0.1612  0.0284
 8194SOL    HW128080   4.633   4.529   8.007  0.7178  0.9637  0.7491
 8194SOL    HW228081   4.687   4.647   7.930 -1.1350  0.3209 -1.6725
 8195SOL     OW28082   0.023   2.652   8.007 -0.0569 -0.9063 -0.3684
 8195SOL    HW128083   0.057   2.657   7.917  0.7857 -1.2953 -0.0769
 8195SOL    HW228084   0.019   2.558   8.025  0.2428 -0.8128  0.1817
 8196SOL     OW28085   7.646   9.541   2.619 -0.1123  0.5021  0.3565
 8196SOL    HW128086   7.721   9.585   2.578 -0.3664 -0.9414 -1.8693
 8196SOL    HW228087   7.571   9.596   2.595 -0.2913 -0.4492 -1.5016
 8197SOL     OW28088   6.760  10.582  10.355 -0.1389 -0.0289 -0.2409
 8197SOL    HW128089   6.848  10.584  10.317 -0.8836  0.0240 -2.0645
 8197SOL    HW228090   6.747  10.490  10.379 -0.3961 -0.5042 -2.0571
 8198SOL     OW28091   8.162   1.121   3.868 -0.3367  0.2354  0.3011
 8198SOL    HW128092   8.244   1.105   3.822 -1.1327 -1.4611 -0.6086
 8198SOL    HW228093   8.132   1.206   3.834  0.4333  0.3032 -0.2355
 8199SOL     OW28094   6.910   8.533   9.966  0.2521  0.2030 -0.1253
 8199SOL    HW128095   6.922   8.452   9.916 -1.3099 -0.7041  0.9142
 8199SOL    HW228096   6.856   8.508  10.040 -1.2168  2.4142 -0.3619
 8200SOL     OW28097   7.939   9.651   3.221  0.1217  0.6514 -0.2574
 8200SOL    HW128098   8.008   9.663   3.287 -0.2663  1.4642  0.0178
 8200SOL    HW228099   7.894   9.735   3.218  0.1329  0.6287 -1.5768
 8201SOL     OW28100   7.399   8.823   6.543  0.2018 -0.4273  0.3335
 8201SOL    HW128101   7.331   8.760   6.569 -0.0248 -0.3004  0.0575
 8201SOL    HW228102   7.383   8.838   6.450  0.6734 -0.4693  0.2452
 8202SOL     OW28103   1.929   2.846   9.439 -0.2337 -0.0140  0.0330
 8202SOL    HW128104   1.922   2.751   9.445 -1.4652 -0.0488 -1.4351
 8202SOL    HW228105   1.953   2.874   9.528  0.5831 -1.7009  0.3885
 8203SOL     OW28106   0.813   3.244   2.078 -0.0309  0.6753 -0.2707
 8203SOL    HW128107   0.807   3.243   1.983 -1.7800 -1.8348 -0.2379
 8203SOL    HW228108   0.894   3.292   2.097  0.1920  1.5212 -2.9698
 8204SOL     OW28109   4.291   2.508   1.143  0.4291 -0.0969  0.1457
 8204SOL    HW128110   4.363   2.570   1.157  0.1958  0.6691 -1.8005
 8204SOL    HW228111   4.241   2.512   1.224  2.9425 -1.2427  1.8956
 8205SOL     OW28112   5.696   1.965   0.306 -0.2285 -0.3967  1.0038
 8205SOL    HW128113   5.631   2.025   0.343  0.5852  1.2639 -0.1403
 8205SOL    HW228114   5.780   1.999   0.338  0.4117  0.4235 -1.3754
 8206SOL     OW28115   6.261   2.300  10.961 -0.1013 -0.2309  0.5515
 8206SOL    HW128116   6.240   2.303  10.868  0.0320 -0.0336  0.5285
 8206SOL    HW228117   6.227   2.381  10.997  2.0669  0.9046  0.2120
 8207SOL     OW28118   3.718   1.353   9.739  0.3327  0.0603 -0.4246
 8207SOL    HW128119   3.660   1.395   9.675 -0.4627  0.7300  0.6939
 8207SOL    HW228120   3.759   1.426   9.785 -0.8875 -0.3145  1.3869
 8208SOL     OW28121   4.520   5.980   6.698 -0.3919 -0.8267 -0.4842
 8208SOL    HW128122   4.481   5.893   6.708 -1.9105 -0.1002  0.2498
 8208SOL    HW228123   4.560   5.999   6.783 -0.4051 -0.6619 -0.5128
 8209SOL     OW28124   0.891   2.817   7.992  0.2705  0.0741  0.1619
 8209SOL    HW128125   0.923   2.796   7.904  0.9388 -0.1317  0.4543
 8209SOL    HW228126   0.947   2.768   8.051 -0.2547  0.1201  0.7062
 8210SOL     OW28127   4.519   9.973  10.842 -0.2637  0.0017 -0.1866
 8210SOL    HW128128   4.609   9.948  10.823 -0.6492 -1.5693 -0.1211
 8210SOL    HW228129   4.495  10.034  10.772  0.8741  0.5275 -0.1340
 8211SOL     OW28130   1.363   1.667   9.104  0.4071 -0.0299 -0.4202
 8211SOL    HW128131   1.442   1.722   9.098  0.1510  0.2964 -0.8462
 8211SOL    HW228132   1.303   1.719   9.158  1.5579 -1.5839  2.6177
 8212SOL     OW28133  10.317   5.450   1.236 -0.2811 -0.5285  0.0949
 8212SOL    HW128134  10.395   5.405   1.267 -0.5048 -0.0095  1.4655
 8212SOL    HW228135  10.338   5.543   1.243 -0.5772 -0.3962 -0.7123
 8213SOL     OW28136   4.328   7.521   3.464  0.0915 -0.1046 -0.0489
 8213SOL    HW128137   4.407   7.518   3.410 -1.3429  0.5203 -2.2922
 8213SOL    HW228138   4.308   7.614   3.472  0.2446 -0.1794  1.6157
 8214SOL     OW28139   5.812   1.341   4.693  0.5702 -0.2663  0.1211
 8214SOL    HW128140   5.875   1.370   4.759  1.5006  0.0824 -0.8831
 8214SOL    HW228141   5.786   1.254   4.722 -0.6757  0.7014  2.0660
 8215SOL     OW28142   4.843   3.228   1.244 -0.4646 -0.7608 -0.1313
 8215SOL    HW128143   4.757   3.234   1.286 -1.8165 -1.8823 -2.5563
 8215SOL    HW228144   4.876   3.142   1.269  0.3233 -0.0750  1.3364
 8216SOL     OW28145   0.598   2.628  10.319 -0.1650  0.2171  0.4055
 8216SOL    HW128146   0.615   2.554  10.376  3.5882  0.8690  0.3628
 8216SOL    HW228147   0.606   2.705  10.375  0.9885  0.7517 -0.4463
 8217SOL     OW28148   5.238   5.684   2.381  0.4007 -0.6193  0.2245
 8217SOL    HW128149   5.238   5.716   2.471  3.0474 -2.6569  1.0721
 8217SOL    HW228150   5.288   5.750   2.333 -0.5503  0.1963  0.3120
 8218SOL     OW28151   4.476   1.687   5.915 -0.5814  0.2758  0.1227
 8218SOL    HW128152   4.562   1.729   5.913 -0.5695  0.2517 -2.2133
 8218SOL    HW228153   4.416   1.758   5.937 -0.3568  1.2546 -2.1151
 8219SOL     OW28154   7.385   8.566  10.212 -0.4558  0.1073  0.7305
 8219SOL    HW128155   7.427   8.621  10.278 -1.2450  2.1402 -0.3954
 8219SOL    HW228156   7.436   8.485  10.213  2.1398  1.6314  0.9580
 8220SOL     OW28157   6.726   5.406   2.029 -0.4448 -0.2742  0.0265
 8220SOL    HW128158   6.686   5.492   2.036 -0.7466 -0.4835  1.1751
 8220SOL    HW228159   6.652   5.345   2.020 -0.2028 -0.3650 -1.5437
 8221SOL     OW28160   8.221   0.850   5.558 -0.0019 -0.0803 -0.1302
 8221SOL    HW128161   8.312   0.876   5.570 -0.0769 -0.2934  1.0693
 8221SOL    HW228162   8.219   0.758   5.586 -0.4444 -0.2985 -0.8520
 8222SOL     OW28163   0.512   9.074   4.086 -0.4328 -0.5338 -0.3268
 8222SOL    HW128164   0.460   9.097   4.163 -1.6493  0.2286 -1.3319
 8222SOL    HW228165   0.595   9.119   4.099 -0.5966 -0.4656  0.5570
 8223SOL     OW28166   5.341   3.733   1.546  0.0800  0.0226 -0.4975
 8223SOL    HW128167   5.272   3.687   1.498 -1.4113  1.8241 -0.2070
 8223SOL    HW228168   5.422   3.691   1.517 -1.0885 -1.8772 -1.1889
 8224SOL     OW28169   1.060   9.360   4.402  0.2991  0.5994 -0.8651
 8224SOL    HW128170   0.985   9.325   4.449  1.3795 -1.3075 -0.4324
 8224SOL    HW228171   1.028   9.375   4.313 -0.5786 -0.3198 -0.7242
 8225SOL     OW28172   5.198   8.694   7.573  0.1792  0.0689 -0.7912
 8225SOL    HW128173   5.282   8.658   7.604  0.2018  0.8105  0.0760
 8225SOL    HW228174   5.220   8.737   7.491  0.2719 -1.3115 -1.5301
 8226SOL     OW28175   5.822   6.635   3.791 -0.2553  0.2129 -0.2204
 8226SOL    HW128176   5.813   6.554   3.741  0.9528  0.1297 -0.3193
 8226SOL    HW228177   5.902   6.675   3.757 -0.0364  0.7087  0.8674
 8227SOL     OW28178   5.804   8.374   7.330  0.1840  0.2617  0.2139
 8227SOL    HW128179   5.832   8.389   7.240 -2.8704 -0.7696 -1.0244
 8227SOL    HW228180   5.748   8.448   7.351 -0.8036 -0.5278  0.4598
 8228SOL     OW28181   4.568   2.612  10.073 -0.0557 -0.6424  0.8550
 8228SOL    HW128182   4.569   2.705  10.096  1.1973 -0.8329  1.6698
 8228SOL    HW228183   4.555   2.567  10.157 -2.2474 -1.1952  0.2938
 8229SOL     OW28184   6.877   2.076   7.027  0.7963  0.2565 -0.3831
 8229SOL    HW128185   6.829   2.113   6.953  0.6431  0.1857 -0.3197
 8229SOL    HW228186   6.833   2.113   7.104  0.5964 -0.1124 -0.3181
 8230SOL     OW28187   0.838   5.698   1.884  0.1825  0.2592 -0.3078
 8230SOL    HW128188   0.891   5.778   1.891  0.1579  0.3848 -1.4257
 8230SOL    HW228189   0.812   5.694   1.792  1.3207 -1.7701 -0.5913
 8231SOL     OW28190   3.822  10.310   4.374 -1.0030  0.5101  0.4083
 8231SOL    HW128191   3.886  10.364   4.420 -0.6599 -0.5338  1.1806
 8231SOL    HW228192   3.833  10.222   4.410 -0.3050 -0.5099 -2.0458
 8232SOL     OW28193   4.952   2.473   8.951 -0.6745 -0.6128 -0.0928
 8232SOL    HW128194   5.016   2.423   8.900 -1.3236 -0.7249 -0.8252
 8232SOL    HW228195   4.971   2.564   8.932  0.0475 -0.5975  0.6671
 8233SOL     OW28196   0.551   7.415   2.619 -0.4471 -0.1232  0.3326
 8233SOL    HW128197   0.631   7.373   2.653  0.6179  0.7277 -1.0045
 8233SOL    HW228198   0.493   7.342   2.599  0.6879 -0.8968 -0.2916
 8234SOL     OW28199   4.118   3.407  10.647 -0.2477  0.5523 -0.6301
 8234SOL    HW128200   4.050   3.411  10.714 -1.2181  1.4821 -1.6378
 8234SOL    HW228201   4.129   3.314  10.630  0.4847  0.2372  1.2463
 8235SOL     OW28202   4.178  10.468   3.840 -0.2512  0.6693  0.2296
 8235SOL    HW128203   4.264  10.497   3.871  1.0149 -2.5811  0.1600
 8235SOL    HW228204   4.115  10.523   3.887  1.7711  0.4611  3.4972
 8236SOL     OW28205   1.779   2.681   0.629 -0.0199  0.1090  0.4492
 8236SOL    HW128206   1.794   2.607   0.570  0.2552  0.1323  0.4916
 8236SOL    HW228207   1.860   2.690   0.678 -0.4530 -0.2864  1.2648
 8237SOL     OW28208   5.646   9.963   8.762 -0.1199 -0.2383 -0.5358
 8237SOL    HW128209   5.690   9.919   8.690  0.0535 -0.5722 -0.2278
 8237SOL    HW228210   5.652   9.902   8.836  2.9580  1.5264  0.8681
 8238SOL     OW28211   3.377   2.400   1.836 -0.2411 -0.7468  0.5371
 8238SOL    HW128212   3.291   2.361   1.850 -1.0288  0.0781 -1.5199
 8238SOL    HW228213   3.405   2.365   1.751  1.0572 -0.3140  0.7682
 8239SOL     OW28214   9.990  10.515   4.045  0.5039  0.3593  0.6941
 8239SOL    HW128215  10.029  10.428   4.043  0.9228  0.4747  2.5311
 8239SOL    HW228216   9.979  10.535   4.138 -0.8363  1.7254  0.2916
 8240SOL     OW28217  10.965   6.608   4.684 -0.0217 -0.1470 -0.7112
 8240SOL    HW128218  11.045   6.656   4.705 -0.4818 -0.3549  1.8078
 8240SOL    HW228219  10.899   6.644   4.743 -0.9826 -2.1718 -0.4589
 8241SOL     OW28220   7.942  10.964   2.204  0.1474 -0.3219 -0.3872
 8241SOL    HW128221   8.007  11.017   2.158  0.9818 -1.9677 -1.2247
 8241SOL    HW228222   7.878  10.940   2.137 -1.0548  0.8090  0.3104
 8242SOL     OW28223   8.762   6.862  10.989 -0.2248  0.1776  0.2121
 8242SOL    HW128224   8.710   6.863  11.069 -0.2789 -0.4531  0.1829
 8242SOL    HW228225   8.848   6.894  11.016 -0.4462  0.6476  0.3772
 8243SOL     OW28226  10.927   6.771   2.079  0.3357 -0.0612  0.1491
 8243SOL    HW128227  10.968   6.753   1.994  2.1924 -1.2620  1.2161
 8243SOL    HW228228  10.891   6.687   2.107  0.2388  0.1845  0.7896
 8244SOL     OW28229   4.549   9.402   3.580  0.6211 -0.1142  0.6160
 8244SOL    HW128230   4.513   9.319   3.551  0.8111 -0.2209  0.6850
 8244SOL    HW228231   4.472   9.458   3.593  0.5953  0.5366 -1.8387
 8245SOL     OW28232   2.038  10.547   0.740  0.2582  0.0141  0.2127
 8245SOL    HW128233   2.116  10.497   0.766  0.2344 -0.0998  0.0685
 8245SOL    HW228234   2.066  10.594   0.661  0.1252 -0.1698  0.0566
 8246SOL     OW28235   9.127   5.230   4.037 -0.2953 -0.4947  0.2059
 8246SOL    HW128236   9.141   5.321   4.062 -1.9377 -0.1137 -0.1425
 8246SOL    HW228237   9.113   5.184   4.120 -0.5019 -0.2258  0.3216
 8247SOL     OW28238   6.559   2.041   7.162 -0.4668 -0.7421 -0.2671
 8247SOL    HW128239   6.579   2.102   7.092  1.8278 -1.3795 -0.2475
 8247SOL    HW228240   6.577   2.089   7.243 -1.6762 -0.4807 -0.1366
 8248SOL     OW28241   3.490   3.294   2.776 -0.0390 -0.0368  0.0266
 8248SOL    HW128242   3.550   3.277   2.848  1.7585  2.4444 -0.7349
 8248SOL    HW228243   3.510   3.227   2.711  2.3180  0.9856 -0.3867
 8249SOL     OW28244   6.978   5.051   3.642 -0.0673  0.3894  0.2323
 8249SOL    HW128245   6.890   5.021   3.665 -0.2680  0.9569  0.2209
 8249SOL    HW228246   7.037   4.996   3.694 -0.5170  2.3507  3.0413
 8250SOL     OW28247  10.473   2.768  10.952  0.3872 -0.8584 -0.0863
 8250SOL    HW128248  10.471   2.693  10.892 -0.6970  0.2045 -1.4393
 8250SOL    HW228249  10.530   2.832  10.910 -0.3185 -0.1265  0.0387
 8251SOL     OW28250   6.161   8.943   1.510 -0.7431  0.5621  0.1204
 8251SOL    HW128251   6.161   8.951   1.415  2.6211  1.0514  0.0642
 8251SOL    HW228252   6.195   8.855   1.528  0.3165  1.0897  0.8286
 8252SOL     OW28253   2.207   7.931   7.472 -0.1701  0.0909  0.4534
 8252SOL    HW128254   2.249   7.854   7.509  0.2090  0.3067  0.4719
 8252SOL    HW228255   2.119   7.901   7.448  0.1579 -0.4877 -0.0535
 8253SOL     OW28256   4.043   6.198   1.915  0.2305  0.1712 -0.1975
 8253SOL    HW128257   3.959   6.185   1.872 -0.1459 -0.2707  0.6468
 8253SOL    HW228258   4.024   6.188   2.008  1.2743 -0.2593 -0.0164
 8254SOL     OW28259   1.383   7.596   5.716  0.1178  0.2917 -0.5642
 8254SOL    HW128260   1.352   7.642   5.794  0.8549 -0.9456  0.4891
 8254SOL    HW228261   1.439   7.526   5.750 -2.3616 -2.5932 -1.9431
 8255SOL     OW28262   5.781   7.491   2.730 -0.1462  0.1662  0.0884
 8255SOL    HW128263   5.785   7.582   2.700  1.2473 -0.1670 -0.8224
 8255SOL    HW228264   5.729   7.447   2.663 -1.4641  0.3922  0.9112
 8256SOL     OW28265  10.223   0.173   1.429  0.0959 -0.0661  0.1279
 8256SOL    HW128266  10.182   0.199   1.511  0.7254  0.0569  0.4150
 8256SOL    HW228267  10.247   0.081   1.443 -0.5488 -0.2907 -0.2309
 8257SOL     OW28268   4.085   8.652   1.614  0.2686 -0.8521 -0.5281
 8257SOL    HW128269   4.175   8.620   1.618  1.3364  1.9327 -0.0199
 8257SOL    HW228270   4.079   8.697   1.530  0.7915  2.5175  1.0750
 8258SOL     OW28271   8.021  10.374   1.308 -0.3914 -0.3982 -0.2468
 8258SOL    HW128272   8.024  10.400   1.215 -0.0815 -3.3837 -1.1615
 8258SOL    HW228273   7.927  10.371   1.328 -0.4504  1.1777 -0.1065
 8259SOL     OW28274   6.222   1.464   0.179 -0.1402 -0.3318  0.4026
 8259SOL    HW128275   6.220   1.403   0.253  1.2356  0.7696  1.4007
 8259SOL    HW228276   6.247   1.410   0.104 -0.9926 -1.3640  0.8371
 8260SOL     OW28277   6.825   8.682   2.118  0.4630  0.1689 -0.6761
 8260SOL    HW128278   6.896   8.620   2.135 -1.2600 -2.0408 -1.1334
 8260SOL    HW228279   6.759   8.662   2.184 -0.5970  0.7741 -1.5229
 8261SOL     OW28280   3.781   1.444   8.840 -0.7401 -0.0227  0.0094
 8261SOL    HW128281   3.713   1.476   8.779 -0.3827 -0.1554 -0.4627
 8261SOL    HW228282   3.863   1.462   8.795 -0.5169 -1.6218 -0.2894
 8262SOL     OW28283   3.854   8.280   4.111 -0.1679  0.4629 -0.4376
 8262SOL    HW128284   3.832   8.363   4.152  0.1861  0.6282 -0.5689
 8262SOL    HW228285   3.790   8.218   4.144  0.4905  0.4463  0.8543
 8263SOL     OW28286   6.830  10.182   4.137 -0.1524  0.1990  0.6602
 8263SOL    HW128287   6.768  10.133   4.083  1.1229 -1.4856  0.6048
 8263SOL    HW228288   6.904  10.122   4.147  1.0098  1.7239  1.5982
 8264SOL     OW28289   3.865   2.812   3.564  0.7764  0.1502  0.2749
 8264SOL    HW128290   3.928   2.741   3.549 -0.8747 -1.5535  1.0005
 8264SOL    HW228291   3.781   2.768   3.577 -0.1440  2.1770  1.8363
 8265SOL     OW28292   8.192   7.113   2.876  0.3713 -0.4557 -0.4020
 8265SOL    HW128293   8.265   7.089   2.934  0.5533  0.9938  0.0070
 8265SOL    HW228294   8.233   7.130   2.792  0.4823  0.1201 -0.2352
 8266SOL     OW28295   7.490   0.600   8.380 -0.0250  0.2644 -0.0844
 8266SOL    HW128296   7.581   0.585   8.356 -0.5589 -1.4310 -1.2159
 8266SOL    HW228297   7.445   0.519   8.358 -2.0932  1.5425 -0.9347
 8267SOL     OW28298   9.610   1.773  10.813  0.3696 -0.0881  0.1925
 8267SOL    HW128299   9.679   1.761  10.748 -0.5365 -2.4608 -0.4443
 8267SOL    HW228300   9.601   1.867  10.823  0.3217  0.4023 -3.3754
 8268SOL     OW28301   9.832   1.165   2.303  0.2113  0.1297 -0.2879
 8268SOL    HW128302   9.856   1.180   2.211 -0.6718  2.4245 -0.2041
 8268SOL    HW228303   9.739   1.141   2.300  0.5001 -1.0877 -0.0519
 8269SOL     OW28304  10.359   6.933   2.549 -0.2835 -0.3678  0.2147
 8269SOL    HW128305  10.346   6.955   2.457 -0.7164  0.5529  0.4816
 8269SOL    HW228306  10.348   6.838   2.553 -2.1387 -0.2087 -0.3839
 8270SOL     OW28307   1.132   4.018   1.944  0.2904  0.1480  0.0577
 8270SOL    HW128308   1.114   4.111   1.934  0.9421  0.4410  1.2797
 8270SOL    HW228309   1.211   4.002   1.892  1.0036  0.6175  0.9602
 8271SOL     OW28310   0.071   7.319   2.638 -0.4422 -0.2335  0.0566
 8271SOL    HW128311   0.006   7.276   2.693 -1.1381  0.2769 -0.3463
 8271SOL    HW228312   0.031   7.322   2.551 -0.2941  0.9197  0.0072
 8272SOL     OW28313   8.144   0.131   0.162 -0.6269  0.0778  0.1632
 8272SOL    HW128314   8.119   0.041   0.179 -2.5121  0.3484 -0.7871
 8272SOL    HW228315   8.141   0.174   0.247 -1.5536 -0.3786  0.3713
 8273SOL     OW28316   9.916  10.459   6.808  0.6342  0.3282  0.5939
 8273SOL    HW128317   9.951  10.404   6.738  0.7142  2.1126 -0.8553
 8273SOL    HW228318   9.885  10.538   6.763 -0.6773  0.9247  2.4189
 8274SOL     OW28319  10.647   9.112   0.218 -0.5257  0.3558 -0.2462
 8274SOL    HW128320  10.678   9.171   0.287 -0.6580  0.4186 -0.2393
 8274SOL    HW228321  10.557   9.093   0.243 -0.3764 -0.1256 -0.0633
 8275SOL     OW28322   5.067   6.895  10.785  0.7454  0.2656 -0.1942
 8275SOL    HW128323   5.074   6.914  10.691  3.7323  1.5202  0.1597
 8275SOL    HW228324   5.123   6.818  10.797  1.4259  0.8885  0.7217
 8276SOL     OW28325   8.235   1.860  10.806 -0.0838  0.6571 -0.4132
 8276SOL    HW128326   8.217   1.876  10.899 -0.0812 -1.3016 -0.0429
 8276SOL    HW228327   8.184   1.927  10.760 -1.3847  0.6482  0.9412
 8277SOL     OW28328   6.224   0.638   2.068  0.3120 -0.2734  0.4055
 8277SOL    HW128329   6.151   0.697   2.046  0.7734 -0.0413 -0.5581
 8277SOL    HW228330   6.197   0.553   2.034  0.4313 -0.2155  0.1639
 8278SOL     OW28331  10.720   3.302  10.577 -0.2628  0.3522 -0.5704
 8278SOL    HW128332  10.682   3.286  10.490  0.4956 -0.9230 -0.6865
 8278SOL    HW228333  10.752   3.217  10.605  0.0587  0.8759  0.7106
 8279SOL     OW28334   3.341  10.573   5.264  0.2860  0.7410 -0.0867
 8279SOL    HW128335   3.371  10.576   5.173  0.3997 -1.4398 -0.1820
 8279SOL    HW228336   3.322  10.664   5.286  2.2387  1.6027 -1.6121
 8280SOL     OW28337   7.213   0.193   1.909  0.7208 -0.1462 -0.1404
 8280SOL    HW128338   7.305   0.181   1.929  1.0456  0.5532 -1.1004
 8280SOL    HW228339   7.201   0.153   1.823  0.2830  0.3028 -0.2993
 8281SOL     OW28340   9.376   8.640  10.393  0.7217  0.3682  0.0658
 8281SOL    HW128341   9.350   8.623  10.484  1.2603 -0.4820  0.0758
 8281SOL    HW228342   9.343   8.727  10.375  0.8188  0.6590  1.1709
 8282SOL     OW28343   7.890   3.799  10.964  0.0447 -0.5699  0.2211
 8282SOL    HW128344   7.976   3.812  10.925  0.2173 -2.7957 -0.2754
 8282SOL    HW228345   7.829   3.842  10.904  0.7527  1.0254  0.5765
 8283SOL     OW28346   4.138   5.654   1.609 -0.3915  0.3843 -0.1540
 8283SOL    HW128347   4.116   5.645   1.702 -0.9933  3.3822  0.0903
 8283SOL    HW228348   4.222   5.700   1.609 -0.4727  0.5439 -1.0694
 8284SOL     OW28349   1.781   2.670   9.773 -0.0802 -0.6095 -0.2126
 8284SOL    HW128350   1.843   2.598   9.785 -0.2303 -0.6673  0.2169
 8284SOL    HW228351   1.762   2.701   9.861  0.0718  0.0374 -0.3935
 8285SOL     OW28352   8.107   7.792   9.641 -0.3938  0.4937 -0.0025
 8285SOL    HW128353   8.181   7.737   9.666 -0.9965  0.2152  1.2366
 8285SOL    HW228354   8.079   7.833   9.723 -2.2347 -0.1646 -0.2693
 8286SOL     OW28355   5.667   0.602  10.656 -0.2462  0.0932  0.5225
 8286SOL    HW128356   5.628   0.624  10.572  1.4129  0.0994 -0.2845
 8286SOL    HW228357   5.629   0.518  10.679 -1.4672  0.5609  0.2627
 8287SOL     OW28358   6.747   2.431   0.749 -0.0256  0.5607  0.1283
 8287SOL    HW128359   6.670   2.391   0.708 -0.5487  2.1074 -0.4487
 8287SOL    HW228360   6.819   2.374   0.724 -0.6384  0.3809 -1.3198
 8288SOL     OW28361   8.378   2.738   8.937  0.1000 -0.5455  0.2552
 8288SOL    HW128362   8.320   2.809   8.908  1.1095  0.0957 -0.2437
 8288SOL    HW228363   8.413   2.701   8.856  0.5855 -0.7564  0.5586
 8289SOL     OW28364   7.300   7.242   8.915 -0.2870  0.1613  0.2385
 8289SOL    HW128365   7.243   7.304   8.870  1.1373  1.0358 -0.4382
 8289SOL    HW228366   7.344   7.294   8.982  0.8366 -0.1366 -0.2493
 8290SOL     OW28367   2.834   2.646   9.914  0.0335 -0.3029 -0.1239
 8290SOL    HW128368   2.915   2.694   9.899 -0.2399  0.2760  0.1910
 8290SOL    HW228369   2.782   2.705   9.969 -0.1378 -1.1451  0.6371
 8291SOL     OW28370   1.019  10.460   6.804 -0.3327  0.8839 -0.1671
 8291SOL    HW128371   1.097  10.419   6.840 -1.8858 -1.1268  1.1825
 8291SOL    HW228372   1.036  10.554   6.809  2.2527  0.5212 -0.6507
 8292SOL     OW28373   9.716   5.769   9.176  0.3366  0.0430 -0.2257
 8292SOL    HW128374   9.694   5.815   9.095  1.8573 -0.6526 -1.0687
 8292SOL    HW228375   9.633   5.735   9.208 -0.3384  0.6384 -1.3012
 8293SOL     OW28376   9.858   4.726   8.667 -0.4306  0.3136  0.5218
 8293SOL    HW128377   9.931   4.746   8.726  0.0001 -1.8820  0.8157
 8293SOL    HW228378   9.883   4.643   8.625 -2.0909  0.2908 -0.5040
 8294SOL     OW28379   3.381  10.626   1.600  0.4443 -0.3509  0.6835
 8294SOL    HW128380   3.392  10.543   1.647  2.1540 -0.0004  0.9450
 8294SOL    HW228381   3.451  10.682   1.634 -1.3803  1.6369  1.4139
 8295SOL     OW28382   0.521   7.688   5.426 -0.0205 -0.2043 -0.6979
 8295SOL    HW128383   0.458   7.620   5.404  0.0401 -0.3609 -0.3791
 8295SOL    HW228384   0.599   7.667   5.374  0.1249 -0.5802 -0.3308
 8296SOL     OW28385   6.112   2.946   6.599  0.0963  0.1779 -0.3330
 8296SOL    HW128386   6.191   2.891   6.600 -0.6276 -0.8989 -1.0531
 8296SOL    HW228387   6.099   2.969   6.691  0.2696 -1.0866  0.0316
 8297SOL     OW28388   1.264   4.983   5.971 -0.3375 -0.2784  0.2573
 8297SOL    HW128389   1.276   4.891   5.946 -0.1027 -0.1553 -0.0930
 8297SOL    HW228390   1.313   4.992   6.053  1.2126 -0.0124 -0.6745
 8298SOL     OW28391   9.511   8.199   0.773 -0.0240  0.3654  0.0941
 8298SOL    HW128392   9.573   8.216   0.702 -0.8004  0.5022 -0.5662
 8298SOL    HW228393   9.427   8.186   0.729 -0.8669  2.1512  1.0740
 8299SOL     OW28394   1.011   1.893   7.846 -0.4166  0.2010  0.0963
 8299SOL    HW128395   1.028   1.948   7.769  2.2081  0.7058  0.9087
 8299SOL    HW228396   1.031   1.804   7.817  0.0190  0.3176  0.0326
 8300SOL     OW28397   8.002   3.299   9.423 -0.5964 -0.1939  0.1133
 8300SOL    HW128398   7.927   3.323   9.369 -0.0490 -0.0701 -0.6192
 8300SOL    HW228399   8.043   3.383   9.446 -0.6449 -0.2633  0.4543
 8301SOL     OW28400   7.096   1.372   3.751 -0.5026 -0.2601 -0.1145
 8301SOL    HW128401   7.046   1.307   3.801 -2.1480  0.9908 -0.0246
 8301SOL    HW228402   7.058   1.456   3.777  2.1165  0.8619  0.4332
 8302SOL     OW28403   7.257   7.819   9.698 -0.0444 -0.3606  0.5935
 8302SOL    HW128404   7.301   7.752   9.646 -1.9134 -0.9661 -0.2696
 8302SOL    HW228405   7.312   7.896   9.689 -0.4344 -0.3465 -2.5814
 8303SOL     OW28406   9.114   6.936   4.244  0.2178 -0.4362 -0.0786
 8303SOL    HW128407   9.117   6.929   4.339 -0.6864  0.6014  0.0527
 8303SOL    HW228408   9.143   7.026   4.226  0.6755 -0.7218 -0.8094
 8304SOL     OW28409   8.911   3.189   6.279 -0.0316 -0.1978  0.3294
 8304SOL    HW128410   8.998   3.157   6.255  0.7640  2.0873  0.0023
 8304SOL    HW228411   8.911   3.191   6.375  0.1829 -0.3657  0.3342
 8305SOL     OW28412   8.820   5.850   5.552  0.4104  0.1163  0.1102
 8305SOL    HW128413   8.826   5.924   5.612  1.9016 -0.2266  0.4220
 8305SOL    HW228414   8.846   5.885   5.467 -0.7893  0.3869 -0.1546
 8306SOL     OW28415   8.252  10.020   2.439 -0.6386  0.1560 -0.2856
 8306SOL    HW128416   8.297  10.003   2.356 -0.2045 -3.9326  0.5658
 8306SOL    HW228417   8.321  10.012   2.505 -1.3232  1.4179  0.6180
 8307SOL     OW28418   7.027   7.310   9.939  0.2229 -0.3594 -0.2276
 8307SOL    HW128419   7.111   7.290   9.980  0.7224 -0.4921 -1.2883
 8307SOL    HW228420   7.031   7.268   9.853 -0.9918 -0.4968 -0.2385
 8308SOL     OW28421   0.523   5.339   1.809  0.0785 -0.5138  1.0039
 8308SOL    HW128422   0.455   5.275   1.789 -0.4839  0.4137 -0.1922
 8308SOL    HW228423   0.538   5.330   1.903 -0.1096 -2.2531  0.9083
 8309SOL     OW28424   7.232  10.545   9.235  0.4933  0.1234 -0.3515
 8309SOL    HW128425   7.214  10.452   9.221  1.0670 -0.2104  1.0436
 8309SOL    HW228426   7.151  10.589   9.208  0.0505 -0.8035 -0.5897
 8310SOL     OW28427   0.660   4.599   6.625 -0.1689  0.0840 -0.0698
 8310SOL    HW128428   0.577   4.561   6.596 -1.0429  1.2977  0.7306
 8310SOL    HW228429   0.672   4.675   6.568  0.3392 -0.0175 -0.0987
 8311SOL     OW28430   6.956   6.260   6.632 -0.0836  0.4006 -0.1902
 8311SOL    HW128431   6.949   6.206   6.711  1.9374  0.3246 -0.0243
 8311SOL    HW228432   6.911   6.210   6.565  0.2358 -0.6650  0.3667
 8312SOL     OW28433   2.400   9.114   9.574  0.1266 -0.3353  0.0414
 8312SOL    HW128434   2.346   9.175   9.624 -1.0156 -1.9981  0.9006
 8312SOL    HW228435   2.354   9.102   9.491 -0.1624 -0.7735  0.2636
 8313SOL     OW28436   3.856   6.261   1.399 -0.4799 -0.5340 -0.5839
 8313SOL    HW128437   3.893   6.214   1.473 -1.9619  0.6893  0.9975
 8313SOL    HW228438   3.932   6.298   1.353  0.4044 -0.3362  0.9943
 8314SOL     OW28439   4.255   1.888   2.869  0.2533  0.2686  0.0862
 8314SOL    HW128440   4.203   1.863   2.793  0.6883 -1.6771  0.3835
 8314SOL    HW228441   4.336   1.838   2.861  1.3998  1.9423  0.5304
 8315SOL     OW28442   0.425   0.789   4.268  0.5932 -0.4872  0.0879
 8315SOL    HW128443   0.398   0.700   4.291  2.4509 -0.3589  3.4328
 8315SOL    HW228444   0.514   0.797   4.301  0.9606  2.2452 -1.2389
 8316SOL     OW28445   4.241  10.607   7.545  0.1215 -0.3705 -0.2852
 8316SOL    HW128446   4.326  10.600   7.587  0.4958 -0.1499 -0.9988
 8316SOL    HW228447   4.178  10.593   7.616  0.6434  3.0314  1.0555
 8317SOL     OW28448   7.341   7.814   3.666 -0.7758 -0.1629  0.2566
 8317SOL    HW128449   7.297   7.839   3.584 -0.0992 -0.1358 -0.1060
 8317SOL    HW228450   7.434   7.809   3.642 -0.5401  0.1222  1.0918
 8318SOL     OW28451   0.836   0.880   1.719  0.6240  0.3231 -0.1031
 8318SOL    HW128452   0.879   0.795   1.732 -1.1225 -0.9424 -2.0872
 8318SOL    HW228453   0.750   0.870   1.759  0.5244  1.2735 -0.0665
 8319SOL     OW28454   5.111   3.639   9.297 -0.1063  0.1975 -0.1976
 8319SOL    HW128455   5.098   3.615   9.205  0.4448  0.1200 -0.2561
 8319SOL    HW228456   5.205   3.627   9.312 -0.5451 -2.2467  1.0749
 8320SOL     OW28457   3.927   7.434   8.005 -0.4010 -0.6811  0.2819
 8320SOL    HW128458   3.899   7.446   8.096 -1.1818 -2.5304  0.3151
 8320SOL    HW228459   3.845   7.438   7.955 -0.1338 -1.0362 -0.1863
 8321SOL     OW28460   4.786   2.458   8.627 -0.3100 -0.3003  0.0312
 8321SOL    HW128461   4.810   2.457   8.535  2.4460  0.7707  0.6592
 8321SOL    HW228462   4.812   2.545   8.658 -1.1047 -0.6627  1.8374
 8322SOL     OW28463   5.238   9.903   3.212  0.0093 -0.0002  0.2196
 8322SOL    HW128464   5.170   9.856   3.163 -0.0079  0.1050  0.1434
 8322SOL    HW228465   5.287   9.833   3.256  1.1014 -0.2605 -1.2925
 8323SOL     OW28466   6.743   8.072   5.600 -0.6668  0.7743 -0.2181
 8323SOL    HW128467   6.703   8.033   5.522  3.5450  0.2102 -2.4035
 8323SOL    HW228468   6.766   7.997   5.655 -1.2458  0.9813  0.3192
 8324SOL     OW28469   8.287   2.373   2.435 -0.0413 -0.5855 -0.0329
 8324SOL    HW128470   8.265   2.429   2.509  2.2575 -1.2128  1.2076
 8324SOL    HW228471   8.241   2.412   2.361 -2.3204  0.1261  1.6657
 8325SOL     OW28472   0.516   8.257   7.263  0.6499 -0.0057 -0.1696
 8325SOL    HW128473   0.595   8.204   7.253  0.9197  0.5569 -1.1106
 8325SOL    HW228474   0.454   8.219   7.201 -0.6594 -1.9129  2.1639
 8326SOL     OW28475   6.584   0.013   7.807  0.9438 -0.2328 -0.0482
 8326SOL    HW128476   6.561  -0.024   7.722 -1.7667 -0.5909  0.7460
 8326SOL    HW228477   6.624  -0.060   7.855  2.4904 -0.0264 -0.9705
 8327SOL     OW28478   4.080   6.774   0.156 -0.2467  0.3057 -0.5211
 8327SOL    HW128479   4.086   6.686   0.119 -0.1320  0.0598  0.0799
 8327SOL    HW228480   3.986   6.795   0.154 -0.2906  0.1096 -0.5150
 8328SOL     OW28481   3.188   3.063  10.355 -0.6595 -0.1658  0.3024
 8328SOL    HW128482   3.179   3.154  10.383 -1.1123  0.0741 -0.5771
 8328SOL    HW228483   3.282   3.050  10.344 -0.4467 -0.3337  2.0851
 8329SOL     OW28484   1.528   3.490   4.434  0.2723  0.0033  0.2700
 8329SOL    HW128485   1.617   3.470   4.407  0.0757  1.2618 -1.4543
 8329SOL    HW228486   1.501   3.563   4.378 -2.0934 -0.8028  0.2349
 8330SOL     OW28487  10.572  10.566  10.782 -0.2535 -0.1225 -0.8475
 8330SOL    HW128488  10.509  10.520  10.727  0.6070 -0.7886 -1.3050
 8330SOL    HW228489  10.645  10.587  10.723  0.0407  0.4729 -0.2924
 8331SOL     OW28490   4.475   2.020   3.043 -0.0272  0.2611 -0.2070
 8331SOL    HW128491   4.569   2.017   3.028 -0.3621 -2.5195 -2.6077
 8331SOL    HW228492   4.456   1.942   3.095 -1.1095  0.3388 -0.4600
 8332SOL     OW28493   4.917   8.436   8.441  0.6310  0.6347  0.5040
 8332SOL    HW128494   4.982   8.374   8.407  1.2608  1.0987  0.8268
 8332SOL    HW228495   4.968   8.514   8.464 -0.0983  1.1471  0.4293
 8333SOL     OW28496   4.975   5.751   1.350  0.1951 -0.5285  0.2606
 8333SOL    HW128497   4.911   5.797   1.403 -0.1102  0.1801 -0.6942
 8333SOL    HW228498   4.976   5.662   1.385  0.8336  0.1754  2.1637
 8334SOL     OW28499   9.081  10.526   7.542  0.2652  0.4050  0.7529
 8334SOL    HW128500   9.046  10.545   7.629 -0.0283 -2.2933  1.3125
 8334SOL    HW228501   9.004  10.503   7.490  0.6792 -0.6861  0.5937
 8335SOL     OW28502   1.014   2.449   5.289 -0.1263  0.3643 -0.2632
 8335SOL    HW128503   1.042   2.531   5.249 -0.1595  1.0410  1.0701
 8335SOL    HW228504   1.094   2.399   5.301 -0.0930  0.2291 -0.9674
 8336SOL     OW28505   4.334   7.435   3.775  0.7969 -0.3789 -0.3952
 8336SOL    HW128506   4.258   7.481   3.739  0.3270  0.9391  2.0406
 8336SOL    HW228507   4.390   7.417   3.699 -0.0665  2.2609 -1.7861
 8337SOL     OW28508   5.374   7.512   8.629 -0.2507 -0.3676 -0.3670
 8337SOL    HW128509   5.378   7.479   8.719  0.6577 -3.7546 -1.4867
 8337SOL    HW228510   5.432   7.588   8.629 -0.8485  0.1727  2.0446
 8338SOL     OW28511   5.637   6.472   5.530 -0.4160  0.0382 -0.3465
 8338SOL    HW128512   5.628   6.421   5.449  1.1054 -1.7192  0.5218
 8338SOL    HW228513   5.729   6.498   5.531 -0.5997  0.6887  0.4581
 8339SOL     OW28514  10.018   1.674   6.053 -0.8678 -0.0935  0.1836
 8339SOL    HW128515  10.086   1.738   6.073 -1.6057  1.0840 -0.8994
 8339SOL    HW228516  10.044   1.637   5.968 -1.0528 -0.4030  0.2595
 8340SOL     OW28517   2.205   3.406   1.934  0.3648 -0.2302 -0.3886
 8340SOL    HW128518   2.249   3.321   1.930  2.5058  0.8360 -0.8220
 8340SOL    HW228519   2.160   3.414   1.850  1.8745 -0.1045 -1.2262
 8341SOL     OW28520  10.662   5.622   6.808  0.4660 -0.1815 -0.2068
 8341SOL    HW128521  10.572   5.613   6.840 -0.0560  1.0241 -1.2532
 8341SOL    HW228522  10.691   5.707   6.841 -0.3134  1.4185 -3.2600
 8342SOL     OW28523   0.766   6.410   5.859 -1.0075 -0.0458 -0.5315
 8342SOL    HW128524   0.672   6.403   5.842 -1.6315  0.3970  2.3353
 8342SOL    HW228525   0.773   6.463   5.938  1.5768 -1.6018  0.4131
 8343SOL     OW28526   5.317   4.668   0.880 -0.7781 -0.1247 -0.0251
 8343SOL    HW128527   5.396   4.617   0.902 -1.6581 -0.7285  1.9116
 8343SOL    HW228528   5.264   4.607   0.828 -1.9438 -1.4251  2.4949
 8344SOL     OW28529   9.776   8.790   6.544 -0.1779 -0.2475 -0.1714
 8344SOL    HW128530   9.820   8.716   6.501 -0.2637  1.1020 -2.7589
 8344SOL    HW228531   9.701   8.751   6.588 -0.0756 -1.7554 -1.2659
 8345SOL     OW28532   6.386   1.330   7.435  0.0320  0.1275 -0.0208
 8345SOL    HW128533   6.327   1.264   7.400  1.2496 -1.5327  0.8907
 8345SOL    HW228534   6.459   1.332   7.373  0.7822 -0.6371  0.8128
 8346SOL     OW28535  10.668   9.620  10.363  0.3402 -0.1441 -0.0978
 8346SOL    HW128536  10.623   9.665  10.291 -0.5073 -1.1985 -0.2604
 8346SOL    HW228537  10.608   9.550  10.388  0.5118  0.3343  1.8122
 8347SOL     OW28538   2.884   3.502   9.802 -0.0882 -0.1719  0.7014
 8347SOL    HW128539   2.906   3.410   9.784  0.2418  0.3647 -2.2925
 8347SOL    HW228540   2.789   3.504   9.807 -0.2812 -0.4555 -1.5377
 8348SOL     OW28541   4.646   9.207   6.488  0.1990 -0.1127  0.0280
 8348SOL    HW128542   4.705   9.141   6.455 -1.0187 -1.1471 -0.1475
 8348SOL    HW228543   4.569   9.201   6.432 -0.8362 -0.1132  1.3964
 8349SOL     OW28544   5.102   5.719   9.148  0.7314  0.0913  0.3066
 8349SOL    HW128545   5.191   5.751   9.131  0.5753  0.3019 -0.1428
 8349SOL    HW228546   5.054   5.740   9.068  0.1444  0.4702  0.7514
 8350SOL     OW28547   2.834   9.520  10.012 -0.1303 -0.1473  0.0113
 8350SOL    HW128548   2.858   9.550   9.924 -1.0918 -2.0510 -0.9546
 8350SOL    HW228549   2.827   9.425  10.004 -2.0168 -0.2168  1.7089
 8351SOL     OW28550   9.399   7.185   5.829 -0.2144  0.1189 -0.0861
 8351SOL    HW128551   9.345   7.142   5.763  1.8171 -3.1594  0.1134
 8351SOL    HW228552   9.410   7.119   5.897 -0.9791  2.8412  2.9226
 8352SOL     OW28553   5.155   2.568   8.572  0.5459  0.4360 -0.0252
 8352SOL    HW128554   5.229   2.587   8.515  0.7155  1.2332  0.4409
 8352SOL    HW228555   5.100   2.646   8.568 -0.0392  0.0364 -0.0007
 8353SOL     OW28556   8.865   1.066   7.491  0.0544 -0.5201  0.1316
 8353SOL    HW128557   8.887   1.101   7.578  1.0384 -1.1007  0.1370
 8353SOL    HW228558   8.786   1.014   7.505 -0.0791 -0.2010  0.5829
 8354SOL     OW28559   7.246   4.640   3.143  0.4794  0.3794  0.2639
 8354SOL    HW128560   7.310   4.647   3.071  0.2303  0.7308  0.0746
 8354SOL    HW228561   7.294   4.596   3.213  0.3292 -1.2718 -0.6091
 8355SOL     OW28562   4.559  10.729   3.342  0.5396  0.1105 -0.4273
 8355SOL    HW128563   4.536  10.795   3.408  1.3313 -1.0909  1.0800
 8355SOL    HW228564   4.487  10.666   3.345  0.0417  0.6010 -1.5034
 8356SOL     OW28565   7.347   4.874   5.842  0.1523  0.2053 -0.3336
 8356SOL    HW128566   7.372   4.821   5.917 -1.0649 -0.8716 -0.6345
 8356SOL    HW228567   7.328   4.961   5.878 -0.4338 -0.2983  0.6142
 8357SOL     OW28568  10.205   6.561   0.960  0.1341  0.2251  0.0223
 8357SOL    HW128569  10.138   6.495   0.980  1.3973 -1.0729  0.1621
 8357SOL    HW228570  10.155   6.639   0.934 -1.4381 -1.2020 -1.5332
 8358SOL     OW28571   7.957   4.392   0.853 -0.2824 -0.4734 -0.5936
 8358SOL    HW128572   8.027   4.330   0.873 -0.4788 -0.4007  0.3895
 8358SOL    HW228573   7.886   4.369   0.914 -0.0758  1.1772  0.3295
 8359SOL     OW28574   4.675  10.567   2.293  0.0666 -0.2655  0.1345
 8359SOL    HW128575   4.665  10.594   2.201 -0.2004 -0.7373  0.0172
 8359SOL    HW228576   4.703  10.646   2.339  0.1045  0.0002 -0.3375
 8360SOL     OW28577   4.367   8.475   6.061 -0.4438  0.4458  0.3195
 8360SOL    HW128578   4.382   8.556   6.111  0.0033 -0.0850  1.0522
 8360SOL    HW228579   4.446   8.423   6.075 -1.3197 -0.7421  1.0450
 8361SOL     OW28580   0.131   1.276   7.293 -0.4734  0.1697  0.0669
 8361SOL    HW128581   0.091   1.273   7.206  1.0433 -0.1843 -0.6584
 8361SOL    HW228582   0.224   1.291   7.276 -0.0645 -0.4390  1.6070
 8362SOL     OW28583   6.831   9.037   3.528 -0.0238  0.8442 -0.3844
 8362SOL    HW128584   6.804   8.989   3.450 -0.0729 -1.4366  0.9572
 8362SOL    HW228585   6.878   8.973   3.581  1.7404  2.8383  0.6197
 8363SOL     OW28586   7.570   3.634  10.456  0.1173  0.5753  0.2956
 8363SOL    HW128587   7.646   3.640  10.397  0.4001 -0.5803  0.5300
 8363SOL    HW228588   7.605   3.657  10.542 -0.3508  2.5204  0.0148
 8364SOL     OW28589   9.656  10.481   6.116 -0.3467  0.8056 -0.0269
 8364SOL    HW128590   9.609  10.523   6.187  0.4698  0.8936  0.4776
 8364SOL    HW228591   9.594  10.480   6.043 -0.6919  2.0386  0.2330
 8365SOL     OW28592   7.202   8.847   0.825  0.3358  0.2634  0.2363
 8365SOL    HW128593   7.169   8.936   0.820 -1.6178 -0.4383 -0.1069
 8365SOL    HW228594   7.125   8.792   0.816  1.5780 -1.4836 -0.2654
 8366SOL     OW28595   8.486   3.134   0.966 -0.0921 -0.4478  0.1644
 8366SOL    HW128596   8.443   3.172   0.889  0.0679 -1.8277 -0.6423
 8366SOL    HW228597   8.493   3.041   0.945 -1.7140 -1.2239  2.6083
 8367SOL     OW28598   9.703   0.832   5.742 -0.2763  0.6324 -0.4352
 8367SOL    HW128599   9.739   0.778   5.671  1.0914  1.5566 -0.4991
 8367SOL    HW228600   9.668   0.769   5.805  1.9517 -0.4038 -0.1414
 8368SOL     OW28601   8.204   9.495   9.559  0.1577 -0.2327 -0.2456
 8368SOL    HW128602   8.263   9.522   9.629  0.1569  0.9985 -0.6918
 8368SOL    HW228603   8.238   9.410   9.530 -0.4750 -1.2879  1.9232
 8369SOL     OW28604   8.276   8.240  10.084 -0.0336 -0.3805 -0.5092
 8369SOL    HW128605   8.292   8.318  10.031 -0.1666  0.5825  0.8197
 8369SOL    HW228606   8.342   8.243  10.153  0.6557 -2.0474 -1.0450
 8370SOL     OW28607   7.298   5.940   3.924 -0.4226 -0.5531  0.3417
 8370SOL    HW128608   7.265   5.867   3.871 -0.3758 -1.6030  1.7351
 8370SOL    HW228609   7.391   5.923   3.934 -0.0905  0.5330 -0.5791
 8371SOL     OW28610   0.540  10.757   3.997  0.1761 -0.2177  0.7298
 8371SOL    HW128611   0.615  10.762   3.938 -0.7283  1.0099 -0.4205
 8371SOL    HW228612   0.512  10.666   3.994  0.2373 -0.2128 -0.7051
 8372SOL     OW28613   3.708   7.770   7.495 -0.4460 -0.2204  0.2106
 8372SOL    HW128614   3.648   7.753   7.568  1.1516 -1.5813  1.2908
 8372SOL    HW228615   3.765   7.693   7.493  0.0696  0.1576 -1.9997
 8373SOL     OW28616   0.001   3.016   6.439  0.2573 -0.3193  0.1006
 8373SOL    HW128617  -0.085   3.055   6.458  0.1641 -0.1768 -0.5776
 8373SOL    HW228618   0.064   3.077   6.478  0.0934  0.2619 -0.5364
 8374SOL     OW28619   5.822   0.288   2.321 -0.5437  0.1853 -0.0190
 8374SOL    HW128620   5.773   0.220   2.277 -1.8165  0.9329  0.1990
 8374SOL    HW228621   5.804   0.368   2.271 -0.3233  0.6543  0.6231
 8375SOL     OW28622  10.082   7.375   1.011  0.3257 -0.2463  0.0535
 8375SOL    HW128623  10.029   7.320   1.069  1.0455 -0.3194  0.6540
 8375SOL    HW228624  10.049   7.463   1.025 -0.8702 -0.5131 -0.9520
 8376SOL     OW28625   6.586   3.633   1.252 -0.3360  0.3382  0.1832
 8376SOL    HW128626   6.527   3.605   1.323  0.1690  0.9582  0.8677
 8376SOL    HW228627   6.551   3.718   1.225 -1.4447 -0.5513 -1.4036
 8377SOL     OW28628   9.305   4.694   5.254  0.3516  0.2685 -0.2941
 8377SOL    HW128629   9.383   4.712   5.201  1.5816 -0.5312  1.1421
 8377SOL    HW228630   9.282   4.779   5.292  2.0800  0.1412  1.2085
 8378SOL     OW28631   6.947   7.250   7.649 -0.5884  0.1589 -0.6000
 8378SOL    HW128632   6.879   7.240   7.715 -0.0647 -0.9990 -0.2073
 8378SOL    HW228633   6.993   7.330   7.673  0.1037 -0.6598  0.9548
 8379SOL     OW28634   5.097   7.638   2.242  0.4364 -0.4547 -0.2675
 8379SOL    HW128635   5.024   7.686   2.202 -1.1251 -2.0757  0.4734
 8379SOL    HW228636   5.112   7.564   2.184  0.9091 -0.5899  0.0226
 8380SOL     OW28637   6.759   4.550   8.652 -0.6531  0.0101 -0.4404
 8380SOL    HW128638   6.721   4.483   8.709 -2.5843 -0.6826 -2.4104
 8380SOL    HW228639   6.743   4.633   8.697 -0.1142 -0.6454  1.0317
 8381SOL     OW28640   4.458   1.033   6.427 -0.2717  0.1902  0.5973
 8381SOL    HW128641   4.465   1.124   6.400 -3.1982  0.0893 -0.9712
 8381SOL    HW228642   4.496   0.984   6.354 -1.4337  0.1196  0.0161
 8382SOL     OW28643   3.415  10.113   5.852 -0.0355 -0.3583  0.0290
 8382SOL    HW128644   3.505  10.089   5.831 -0.6824 -3.0598 -0.0361
 8382SOL    HW228645   3.379  10.145   5.769  1.2075  2.2741  0.3953
 8383SOL     OW28646   3.436  10.398   3.190 -0.0708  0.0846  0.1930
 8383SOL    HW128647   3.510  10.339   3.197 -0.6312 -0.6775 -0.2134
 8383SOL    HW228648   3.474  10.485   3.203  0.9707 -0.2425 -0.5338
 8384SOL     OW28649   9.897   6.752  10.076  0.1526  0.0785 -0.1161
 8384SOL    HW128650   9.881   6.675  10.130 -0.5604  0.7511  0.6575
 8384SOL    HW228651   9.864   6.728   9.990 -0.4876 -0.3340  0.2305
 8385SOL     OW28652   8.081   1.972   8.041  0.1679  0.2309  0.0262
 8385SOL    HW128653   8.097   1.992   8.133  1.3164  0.6873 -0.2476
 8385SOL    HW228654   8.033   2.048   8.008  1.8049  1.1844 -0.2772
 8386SOL     OW28655   3.669   4.445   4.271  0.2335  0.8090 -0.2465
 8386SOL    HW128656   3.601   4.389   4.233  1.2402 -1.9926  1.7301
 8386SOL    HW228657   3.737   4.450   4.204  0.4718 -1.1256 -0.2078
 8387SOL     OW28658   8.525   3.768   2.238 -0.2714 -0.5507 -0.0297
 8387SOL    HW128659   8.551   3.677   2.252  0.3017 -0.6872 -1.7550
 8387SOL    HW228660   8.607   3.813   2.216 -0.6031  0.3070  0.4723
 8388SOL     OW28661   5.456   5.868   0.056 -0.5383  0.0415 -0.1013
 8388SOL    HW128662   5.550   5.851   0.059 -0.2758  1.0504 -1.6531
 8388SOL    HW228663   5.448   5.963   0.070 -1.1630  0.2553 -1.7003
 8389SOL     OW28664   2.036   9.992   3.133 -0.9282  0.4050 -0.1715
 8389SOL    HW128665   2.052   9.909   3.089  0.7810  0.8730 -0.4989
 8389SOL    HW228666   2.091  10.055   3.087  0.9433  0.9308  2.5066
 8390SOL     OW28667   4.018   2.999   7.251 -0.2800  0.0693  0.4175
 8390SOL    HW128668   3.932   3.027   7.283 -1.1590 -1.4682 -0.4333
 8390SOL    HW228669   4.023   2.906   7.275  1.2434  0.1907  0.6293
 8391SOL     OW28670   7.352   3.330   9.862  0.4251  0.4625  0.2464
 8391SOL    HW128671   7.388   3.418   9.861 -0.4790  0.8454 -0.8784
 8391SOL    HW228672   7.348   3.304   9.770 -0.6815 -0.1630  0.4414
 8392SOL     OW28673   4.057   3.030   0.761 -0.1817 -0.1753  0.5434
 8392SOL    HW128674   4.088   3.093   0.696 -2.0777  0.1733 -0.0701
 8392SOL    HW228675   4.016   3.083   0.829 -2.4121 -0.6827 -0.3031
 8393SOL     OW28676   4.232  10.887  10.774 -0.2404 -0.5492  0.3195
 8393SOL    HW128677   4.246  10.803  10.730 -2.6680 -0.2887 -1.1322
 8393SOL    HW228678   4.142  10.883  10.805 -0.2781  1.3753  0.5693
 8394SOL     OW28679   6.205  10.137   0.061 -0.4467  0.2383 -0.6828
 8394SOL    HW128680   6.111  10.155   0.060 -0.5170  0.0653 -2.9887
 8394SOL    HW228681   6.246  10.217   0.026  0.4389  0.8730  1.6451
 8395SOL     OW28682   8.382   6.670   9.301  0.1618  0.0595  0.5349
 8395SOL    HW128683   8.462   6.719   9.281  0.8213 -1.2518 -0.1585
 8395SOL    HW228684   8.412   6.582   9.320 -1.0969 -0.3631  0.6557
 8396SOL     OW28685   7.595   5.148   5.634 -0.8216  0.3799 -0.4699
 8396SOL    HW128686   7.500   5.147   5.640 -0.8007 -0.7798 -0.0880
 8396SOL    HW228687   7.620   5.056   5.623  0.2306  0.7042 -0.9462
 8397SOL     OW28688   3.982   8.221   5.239 -0.3344 -0.2932  0.4313
 8397SOL    HW128689   4.014   8.294   5.187  0.9739 -2.1073 -1.4814
 8397SOL    HW228690   3.891   8.208   5.210 -0.9107  1.1085  1.4960
 8398SOL     OW28691   4.973   6.668   6.612 -0.6435  0.3866  0.2118
 8398SOL    HW128692   4.951   6.647   6.521 -0.0843  1.1520 -0.1097
 8398SOL    HW228693   4.935   6.596   6.663 -0.3264 -0.4455 -0.6890
 8399SOL     OW28694   2.805   4.576   2.748 -0.7313  0.6887  0.1816
 8399SOL    HW128695   2.727   4.632   2.750 -1.9954 -0.9690 -0.3108
 8399SOL    HW228696   2.838   4.584   2.659  0.5232  2.4495  0.7539
 8400SOL     OW28697   8.058   7.982  10.949  0.2088 -0.4342 -0.5327
 8400SOL    HW128698   8.039   7.924  10.875 -2.0331 -0.3473 -0.0964
 8400SOL    HW228699   8.041   8.070  10.917  0.1261 -0.3154 -0.1699
 8401SOL     OW28700   5.361   0.088   2.820  0.0761 -0.1142 -0.8064
 8401SOL    HW128701   5.372   0.061   2.911 -0.1717 -0.8132 -0.9773
 8401SOL    HW228702   5.447   0.071   2.780  0.3536  0.7259 -0.5721
 8402SOL     OW28703   4.877   2.351   2.382  0.3965  0.6333 -0.3181
 8402SOL    HW128704   4.859   2.287   2.450 -1.2432  1.5581  0.1619
 8402SOL    HW228705   4.896   2.432   2.429 -1.8491  1.5714 -0.8987
 8403SOL     OW28706   5.493   5.557   4.497  0.1267  0.2730 -0.0850
 8403SOL    HW128707   5.556   5.629   4.495  2.7228 -1.8481 -0.2197
 8403SOL    HW228708   5.454   5.557   4.410  0.9466  0.8157 -0.4645
 8404SOL     OW28709   1.782   7.140   7.115  0.0715  0.3007 -0.3916
 8404SOL    HW128710   1.691   7.169   7.121  0.2796  1.0092 -0.5268
 8404SOL    HW228711   1.778   7.045   7.124 -0.8947  0.0830 -2.6198
 8405SOL     OW28712   8.245   9.880   5.285 -0.0545  0.1447  0.1930
 8405SOL    HW128713   8.308   9.943   5.249 -0.1466  0.8092  1.1657
 8405SOL    HW228714   8.160   9.915   5.261 -0.0865 -0.8281 -1.2438
 8406SOL     OW28715   5.891   6.772   5.662 -0.3644 -0.0693 -0.0667
 8406SOL    HW128716   5.916   6.854   5.704  0.2717 -0.6406  0.7205
 8406SOL    HW228717   5.973   6.737   5.626 -0.3893 -0.9260  0.6615
 8407SOL     OW28718   7.628   7.803   5.373 -0.9461  0.6808 -0.3944
 8407SOL    HW128719   7.549   7.770   5.330 -0.7260 -1.2886  0.5992
 8407SOL    HW228720   7.696   7.795   5.307 -0.6002 -2.3668  0.2155
 8408SOL     OW28721   0.302   4.978  10.206  0.2653  0.2413  0.0852
 8408SOL    HW128722   0.239   5.015  10.145  0.9156  1.9710  0.3958
 8408SOL    HW228723   0.297   4.884  10.192 -0.6167  0.5044 -1.6108
 8409SOL     OW28724   2.424   5.492  10.022  0.0535 -0.2660  0.3878
 8409SOL    HW128725   2.487   5.535   9.964  0.6256 -0.8561  0.5553
 8409SOL    HW228726   2.435   5.535  10.106  0.0365 -0.1835  0.3480
 8410SOL     OW28727   5.877   5.111   8.525 -0.3384 -0.1839 -0.0128
 8410SOL    HW128728   5.786   5.135   8.507 -1.4427 -3.1916  0.8032
 8410SOL    HW228729   5.907   5.174   8.590 -2.2898  0.1545  0.6207
 8411SOL     OW28730   3.548   5.167   2.199 -0.0590 -0.2241 -0.6041
 8411SOL    HW128731   3.574   5.252   2.235 -1.7740  0.5485 -1.0944
 8411SOL    HW228732   3.614   5.149   2.132  0.1300  0.9130 -0.7481
 8412SOL     OW28733   2.216   1.621   5.401 -0.3949  0.0673 -0.2843
 8412SOL    HW128734   2.196   1.584   5.488 -2.3647 -0.7778 -1.0366
 8412SOL    HW228735   2.165   1.701   5.397  0.1293  0.3968 -0.4789
 8413SOL     OW28736   1.030   1.942   7.250 -0.4756  0.2090 -0.0996
 8413SOL    HW128737   1.077   2.014   7.291 -1.7290  0.6246  0.6548
 8413SOL    HW228738   1.057   1.864   7.298  0.1879  0.2902 -0.3292
 8414SOL     OW28739   7.070   3.343   1.027  0.3429 -0.1475 -0.9528
 8414SOL    HW128740   7.017   3.282   1.078  0.7611 -1.1692 -1.7114
 8414SOL    HW228741   7.040   3.332   0.937 -0.8181  2.0993 -0.8914
 8415SOL     OW28742   4.493  10.771   4.672  0.4530 -0.3174  1.1208
 8415SOL    HW128743   4.458  10.850   4.714 -0.9851  0.1590 -0.8256
 8415SOL    HW228744   4.579  10.798   4.640 -1.2492  1.7362 -2.4374
 8416SOL     OW28745   1.081   1.352  10.236 -0.5682 -0.1659  0.2605
 8416SOL    HW128746   1.000   1.398  10.211 -0.0661  0.8753  0.5183
 8416SOL    HW228747   1.141   1.369  10.163  0.0082  0.6060  0.8902
 8417SOL     OW28748   2.649  10.796   3.941 -0.5159 -0.4187 -0.3683
 8417SOL    HW128749   2.567  10.762   3.906 -1.2524 -0.3411  1.1743
 8417SOL    HW228750   2.702  10.816   3.864 -1.6680 -1.1245 -1.3842
 8418SOL     OW28751   4.793   4.648   2.193 -0.3764 -0.0071  0.6926
 8418SOL    HW128752   4.772   4.677   2.282 -0.1524  0.1873  0.6843
 8418SOL    HW228753   4.709   4.642   2.148 -0.3079  2.6690  0.0536
 8419SOL     OW28754   5.336   5.219   5.122  0.0624  0.4394 -0.1557
 8419SOL    HW128755   5.398   5.146   5.129  2.1109  2.0888  0.2113
 8419SOL    HW228756   5.298   5.211   5.035 -1.8553 -2.5541  0.8225
 8420SOL     OW28757   1.422   3.975   3.775 -0.2273  0.2240  0.1806
 8420SOL    HW128758   1.402   4.013   3.860 -0.8353 -0.8616  0.5382
 8420SOL    HW228759   1.468   4.045   3.728  0.4210  0.7323  1.5072
 8421SOL     OW28760   5.872   2.636   3.821  0.1762  0.1408 -0.3901
 8421SOL    HW128761   5.955   2.673   3.791  0.5311 -0.2799  0.0625
 8421SOL    HW228762   5.808   2.666   3.756  1.0792 -1.6796 -2.2265
 8422SOL     OW28763   3.482   6.499   4.757  0.3975  0.4937  0.3505
 8422SOL    HW128764   3.393   6.491   4.724  0.2267 -0.6787  1.0245
 8422SOL    HW228765   3.490   6.591   4.783 -1.1429  0.3017  1.6685
 8423SOL     OW28766  10.669   2.596   9.822 -0.5277 -0.0194 -0.1889
 8423SOL    HW128767  10.724   2.521   9.840  1.1058  1.2985  0.6026
 8423SOL    HW228768  10.579   2.563   9.827  0.1262 -1.6963  1.0723
 8424SOL     OW28769   9.321   7.685  10.156  0.4185 -0.0058  0.4721
 8424SOL    HW128770   9.270   7.736  10.219 -1.8148 -0.5496 -0.8234
 8424SOL    HW228771   9.325   7.740  10.078 -0.6598 -1.1328 -0.4030
 8425SOL     OW28772   6.191   9.608   4.686  0.0285  0.8390 -0.2822
 8425SOL    HW128773   6.249   9.549   4.638 -0.3128  0.3049 -0.0368
 8425SOL    HW228774   6.251   9.673   4.724  0.2474  1.6736 -1.9646
 8426SOL     OW28775   9.263   8.742   7.370 -0.7282 -0.4075  0.3443
 8426SOL    HW128776   9.184   8.694   7.345  0.3471 -1.3021 -1.5177
 8426SOL    HW228777   9.255   8.826   7.327 -0.8052 -0.3698  0.4311
 8427SOL     OW28778   4.620   2.587   5.798 -0.0115 -0.4479  0.3280
 8427SOL    HW128779   4.593   2.673   5.831 -1.3063  0.3600 -2.5046
 8427SOL    HW228780   4.632   2.534   5.877 -0.4448  1.9313  2.1286
 8428SOL     OW28781   2.873   0.782   1.767  0.1507 -0.1041 -0.0998
 8428SOL    HW128782   2.966   0.771   1.749 -0.3093 -0.3531 -2.7444
 8428SOL    HW228783   2.857   0.729   1.844  2.2390  0.1834  0.5977
 8429SOL     OW28784   9.612   7.810   3.280  0.7892 -0.2847 -0.0881
 8429SOL    HW128785   9.625   7.809   3.375 -0.3867  0.8335  0.1199
 8429SOL    HW228786   9.646   7.895   3.252 -0.3773  0.1043 -0.3968
 8430SOL     OW28787   6.142   5.040   4.516 -0.0430 -0.1866  0.4197
 8430SOL    HW128788   6.076   5.088   4.466  0.0986  0.3616  0.7537
 8430SOL    HW228789   6.135   5.075   4.605 -0.2862 -1.1442  0.7892
 8431SOL     OW28790   9.700   3.194   9.834  0.3655  0.2667 -0.2627
 8431SOL    HW128791   9.698   3.283   9.868 -0.3657  0.6326 -1.2131
 8431SOL    HW228792   9.791   3.180   9.808  0.3738  0.9378 -0.6089
 8432SOL     OW28793   6.741   6.061   1.566 -0.0569  0.1728  0.2877
 8432SOL    HW128794   6.827   6.033   1.536 -0.3016 -1.4183  0.9949
 8432SOL    HW228795   6.739   6.037   1.659 -0.4505  2.2111  0.8613
 8433SOL     OW28796   9.442   0.116   8.637  0.4120 -0.1834  0.0828
 8433SOL    HW128797   9.460   0.099   8.545  0.7449  1.2265 -0.1364
 8433SOL    HW228798   9.499   0.189   8.660 -1.2862  0.9933  0.7657
 8434SOL     OW28799   2.805   9.475   0.515  0.2679 -0.7272  0.1849
 8434SOL    HW128800   2.728   9.523   0.483 -0.3606 -0.7943  1.4934
 8434SOL    HW228801   2.880   9.524   0.482 -0.3580  0.5873  0.6407
 8435SOL     OW28802   4.388   1.631   6.925  0.0862 -0.5806 -0.0593
 8435SOL    HW128803   4.323   1.691   6.961  0.5448 -0.3446  0.3984
 8435SOL    HW228804   4.465   1.685   6.910  0.4944 -1.0373  0.3259
 8436SOL     OW28805   7.687   1.555   0.729  0.1504  0.3411 -0.1545
 8436SOL    HW128806   7.696   1.643   0.691  0.6314  0.0834 -0.6407
 8436SOL    HW228807   7.600   1.526   0.701  0.2962  0.3574 -0.6369
 8437SOL     OW28808   3.649   0.749   3.836  0.6061  0.0407 -0.6760
 8437SOL    HW128809   3.674   0.672   3.785 -0.0818 -1.2387  0.8255
 8437SOL    HW228810   3.699   0.740   3.917  1.0633  1.5923 -0.7639
 8438SOL     OW28811   6.566   9.062   1.719 -0.0383 -0.5852  0.5373
 8438SOL    HW128812   6.497   9.093   1.661  1.0078  1.8674  0.4947
 8438SOL    HW228813   6.630   9.020   1.661  0.6571  1.2175 -0.0630
 8439SOL     OW28814   7.463   2.890  10.943  0.0208 -0.7794 -0.2006
 8439SOL    HW128815   7.522   2.816  10.933  0.0140 -0.8640  0.3497
 8439SOL    HW228816   7.376   2.853  10.930 -0.1271 -1.2482  1.7912
 8440SOL     OW28817   9.601   8.635   2.751 -0.4616  0.3141 -0.3528
 8440SOL    HW128818   9.621   8.608   2.841 -1.8795 -1.0076 -0.3820
 8440SOL    HW228819   9.535   8.703   2.760 -0.9391 -0.1366 -0.3850
 8441SOL     OW28820   0.109  10.728   9.973 -0.6288  0.2566  0.1733
 8441SOL    HW128821   0.165  10.692  10.042  0.9074  3.6757  0.9447
 8441SOL    HW228822   0.165  10.790   9.926 -3.4933  3.4526  0.5670
 8442SOL     OW28823   4.864   0.314   7.253 -0.2216 -0.1248  0.2175
 8442SOL    HW128824   4.810   0.264   7.316 -2.7285 -0.2083 -1.8173
 8442SOL    HW228825   4.951   0.314   7.292 -0.7953 -3.2973  1.9341
 8443SOL     OW28826   0.656  10.676  10.818 -0.1039 -0.0338 -0.0290
 8443SOL    HW128827   0.644  10.701  10.910 -0.5273  0.1300 -0.1238
 8443SOL    HW228828   0.567  10.676  10.782  0.2250  2.2727 -1.0496
 8444SOL     OW28829   9.219   4.790  10.912  0.1003 -0.0251  0.3589
 8444SOL    HW128830   9.132   4.810  10.947 -0.1213 -0.5085  0.0982
 8444SOL    HW228831   9.204   4.777  10.818  0.0154 -2.4570  0.6278
 8445SOL     OW28832   8.287   6.675   8.686  0.1643  0.0736  0.2935
 8445SOL    HW128833   8.366   6.650   8.638 -0.9409 -1.1851 -1.0001
 8445SOL    HW228834   8.315   6.743   8.746  1.9315  0.7333 -1.1798
 8446SOL     OW28835   4.920   3.672   9.484  0.7621 -0.3567  0.6670
 8446SOL    HW128836   4.946   3.612   9.414 -2.8325 -1.7557  0.3219
 8446SOL    HW228837   4.878   3.745   9.440  0.4959 -0.1327  1.2753
 8447SOL     OW28838   9.333   8.000   4.938 -0.5102  0.0109  0.0379
 8447SOL    HW128839   9.247   8.038   4.959 -0.0549  0.5724  0.9338
 8447SOL    HW228840   9.370   8.059   4.873 -0.5280  0.1187  0.1268
 8448SOL     OW28841   1.854   4.059   8.629  0.2829  0.1755 -0.0360
 8448SOL    HW128842   1.781   4.106   8.590  0.0887 -0.3419 -0.2977
 8448SOL    HW228843   1.832   4.053   8.722 -0.6132 -1.0805 -0.3183
 8449SOL     OW28844   3.903   5.400   5.978 -0.5348 -0.3679  0.4773
 8449SOL    HW128845   3.819   5.396   5.932  0.2733  0.7633 -1.2068
 8449SOL    HW228846   3.963   5.348   5.925 -0.1396 -1.1543  1.6534
 8450SOL     OW28847   4.538  10.711  10.865  0.1990  0.1337  0.0530
 8450SOL    HW128848   4.593  10.712  10.787  1.0691 -1.7239  0.5791
 8450SOL    HW228849   4.455  10.676  10.836 -0.0926  1.1588 -0.3765
 8451SOL     OW28850   1.665   4.965  10.953 -0.2742  0.0697  0.3474
 8451SOL    HW128851   1.706   4.899  11.009  0.8998  1.0198  0.6376
 8451SOL    HW228852   1.573   4.965  10.979 -0.1497 -0.9251  0.8474
 8452SOL     OW28853   8.713   6.239   6.087  0.0481 -0.1002  0.6303
 8452SOL    HW128854   8.644   6.306   6.093  0.4493  0.2471  1.5587
 8452SOL    HW228855   8.763   6.262   6.009 -0.1646  0.3478  0.6246
 8453SOL     OW28856   2.577   9.743   6.032  0.6952 -0.3345  0.4324
 8453SOL    HW128857   2.511   9.789   5.980  2.1166  0.6391 -0.5880
 8453SOL    HW228858   2.594   9.802   6.106  0.5535 -0.5151  0.6115
 8454SOL     OW28859   3.307   6.012   0.098  0.0595 -0.3902 -0.1707
 8454SOL    HW128860   3.227   5.959   0.099  0.6217 -1.2870 -0.8755
 8454SOL    HW228861   3.343   6.004   0.186  1.1143 -2.7857 -0.7119
 8455SOL     OW28862  10.985   9.783   6.360 -0.3916  0.1108  0.5349
 8455SOL    HW128863  11.059   9.725   6.344  0.9497  1.4360  1.5945
 8455SOL    HW228864  10.991   9.848   6.290 -1.1749 -0.3344  0.0446
 8456SOL     OW28865   4.893   8.014   4.843 -0.3973  0.2444 -0.1993
 8456SOL    HW128866   4.956   8.033   4.773 -0.1798 -5.3212 -2.0050
 8456SOL    HW228867   4.807   8.022   4.800 -0.3790 -0.7188 -0.4504
 8457SOL     OW28868   4.120   3.923   9.243 -0.2658 -0.1924 -0.1478
 8457SOL    HW128869   4.173   3.861   9.293 -1.1065  1.1732  2.6808
 8457SOL    HW228870   4.040   3.875   9.223 -0.1871 -0.5891  0.4594
 8458SOL     OW28871   1.650   7.644  10.496  0.5818 -1.4161 -0.2273
 8458SOL    HW128872   1.742   7.665  10.478  0.3514 -1.5657 -1.7038
 8458SOL    HW228873   1.620   7.599  10.416 -1.4142  0.6894 -0.7415
 8459SOL     OW28874   1.379   3.199  10.955 -0.0265 -0.7871  0.4257
 8459SOL    HW128875   1.437   3.275  10.946 -2.3812  1.0113 -0.3972
 8459SOL    HW228876   1.388   3.174  11.047  0.3835  0.8569  0.8777
 8460SOL     OW28877   0.235   2.831   4.441  0.1381  0.1312  0.3727
 8460SOL    HW128878   0.173   2.893   4.477 -1.4959 -1.1978 -0.0200
 8460SOL    HW228879   0.181   2.758   4.410  1.8376 -0.7769 -0.6201
 8461SOL     OW28880   2.286   6.665   6.129  0.2469  0.8262  0.1484
 8461SOL    HW128881   2.358   6.644   6.188  0.6714  0.4489 -0.4934
 8461SOL    HW228882   2.291   6.599   6.060  0.0769  1.5547 -0.5800
 8462SOL     OW28883  10.937   5.757   6.041  0.1522 -0.2978  0.6478
 8462SOL    HW128884  10.960   5.735   5.951 -1.6115 -0.1719  0.1305
 8462SOL    HW228885  10.846   5.729   6.051  0.7490 -1.7355  2.8928
 8463SOL     OW28886   9.831   3.457   0.648 -0.4864  0.1135  0.0572
 8463SOL    HW128887   9.817   3.370   0.687  0.7432 -0.4223 -0.6107
 8463SOL    HW228888   9.853   3.513   0.722 -2.1304  0.0795  0.6041
 8464SOL     OW28889   1.097  10.320   3.870  0.5109 -0.7735  0.0817
 8464SOL    HW128890   1.174  10.371   3.894  0.7401 -1.5038  0.9411
 8464SOL    HW228891   1.025  10.383   3.874  0.7416 -0.5702  1.4663
 8465SOL     OW28892   3.325  10.433   2.950  0.3834  0.0009 -0.1339
 8465SOL    HW128893   3.366  10.415   3.034 -1.9156 -1.3931  0.7786
 8465SOL    HW228894   3.365  10.371   2.889  2.5275  1.4451 -0.3268
 8466SOL     OW28895   3.776   8.509   5.141  0.0649  0.4692  0.2398
 8466SOL    HW128896   3.740   8.422   5.128 -0.3522  0.4947  1.1247
 8466SOL    HW228897   3.871   8.497   5.136  0.1572 -0.5239  2.7930
 8467SOL     OW28898   5.572   1.462   5.904  0.8124  0.1088 -0.1139
 8467SOL    HW128899   5.563   1.532   5.967  3.4182 -0.0059  0.4876
 8467SOL    HW228900   5.573   1.382   5.956  0.7715 -0.1561 -0.5118
 8468SOL     OW28901   0.600   9.539   4.494  0.1830 -0.6501  0.3688
 8468SOL    HW128902   0.609   9.606   4.425  2.6249 -1.6858 -0.4164
 8468SOL    HW228903   0.597   9.590   4.575 -3.3910  0.6486 -0.3810
 8469SOL     OW28904   8.825   3.615   3.363  0.0373 -0.1649 -0.3405
 8469SOL    HW128905   8.897   3.641   3.306  1.7505 -1.1816  1.2299
 8469SOL    HW228906   8.753   3.596   3.304  1.2745  0.1784 -2.0452
 8470SOL     OW28907  10.686   2.904   9.170  0.1918  0.4749 -0.3775
 8470SOL    HW128908  10.743   2.828   9.170  0.1849  0.4259  1.3426
 8470SOL    HW228909  10.687   2.936   9.079  1.0579 -0.9040 -0.8756
 8471SOL     OW28910   6.556   9.629   4.157 -0.1824  0.2485 -0.1324
 8471SOL    HW128911   6.478   9.663   4.200  0.5014 -1.5062  2.7996
 8471SOL    HW228912   6.622   9.698   4.167 -0.8126  0.9982 -0.9905
 8472SOL     OW28913   0.631   5.025   2.684  0.1545  0.9066 -0.0865
 8472SOL    HW128914   0.630   5.097   2.747 -0.1990  1.2605 -0.4869
 8472SOL    HW228915   0.671   4.952   2.731  0.2045  1.2659  0.4352
 8473SOL     OW28916   2.821   5.959   8.115  0.8914 -0.4827  0.5083
 8473SOL    HW128917   2.859   5.984   8.200 -1.8779 -1.0522  2.0271
 8473SOL    HW228918   2.877   5.887   8.085  2.5506  0.4073  1.3146
 8474SOL     OW28919   3.531   8.756   4.489  0.3332  0.4934 -0.1899
 8474SOL    HW128920   3.595   8.717   4.548  1.6407  1.7411 -0.7162
 8474SOL    HW228921   3.447   8.749   4.535  1.0150 -0.2343  0.9741
 8475SOL     OW28922   3.370   8.891   2.285 -0.5997  0.7076 -0.3620
 8475SOL    HW128923   3.332   8.803   2.283  0.7634  0.0948 -0.1991
 8475SOL    HW228924   3.410   8.902   2.199 -1.1792  1.3686 -0.5548
 8476SOL     OW28925   2.262   8.455   2.110 -0.5180 -0.0119 -0.1555
 8476SOL    HW128926   2.325   8.429   2.178 -1.3001  0.2292  0.6757
 8476SOL    HW228927   2.230   8.372   2.075 -1.0907 -0.1657  0.6999
 8477SOL     OW28928   2.954   6.361   0.395  0.0398  0.7960 -0.3291
 8477SOL    HW128929   2.905   6.326   0.321 -0.1172  2.0791 -0.8637
 8477SOL    HW228930   3.038   6.388   0.358  0.2673  0.7113  0.1175
 8478SOL     OW28931   6.732  10.812   0.961  0.5939 -0.2451 -0.6043
 8478SOL    HW128932   6.650  10.840   1.000  0.3458 -0.7213 -0.7691
 8478SOL    HW228933   6.800  10.856   1.012  0.2313  0.4128 -0.6813
 8479SOL     OW28934   8.039   9.251   3.615 -0.3023 -0.1150 -0.3534
 8479SOL    HW128935   8.121   9.218   3.578  1.4455  1.6863  1.5932
 8479SOL    HW228936   8.044   9.228   3.708 -1.1467  1.5208  0.1476
 8480SOL     OW28937   1.793  10.613   2.162  0.3913 -0.2314  0.4910
 8480SOL    HW128938   1.801  10.521   2.137 -0.5651  0.0215 -0.8104
 8480SOL    HW228939   1.699  10.627   2.173  0.2701  1.1650 -1.6981
 8481SOL     OW28940   4.471   0.209   8.323 -0.2744 -0.2532 -0.3531
 8481SOL    HW128941   4.396   0.258   8.358  0.2407  0.6005 -0.4024
 8481SOL    HW228942   4.508   0.267   8.255  1.0772 -0.1635  0.4201
 8482SOL     OW28943   6.024   4.660   4.506  0.1493  0.1268  0.4179
 8482SOL    HW128944   6.103   4.705   4.536 -0.7931  1.5333  0.8909
 8482SOL    HW228945   5.954   4.699   4.558 -0.7907 -1.5786  0.4960
 8483SOL     OW28946   6.219   6.115   4.672 -0.0031 -0.3503 -1.1526
 8483SOL    HW128947   6.304   6.128   4.630  1.5015  0.4972  1.9101
 8483SOL    HW228948   6.237   6.117   4.766 -3.4294 -0.1341 -0.3528
 8484SOL     OW28949   7.374   1.227   8.615  0.1706 -0.0780  0.4909
 8484SOL    HW128950   7.460   1.187   8.603 -0.0882 -0.1587 -1.3689
 8484SOL    HW228951   7.337   1.182   8.691  1.6942 -0.1310  1.2393
 8485SOL     OW28952   5.278   6.616   1.183  0.2701 -0.1209  0.1900
 8485SOL    HW128953   5.262   6.700   1.226 -0.7535 -0.1223 -0.1595
 8485SOL    HW228954   5.231   6.623   1.100  0.1066 -1.0684  0.1923
 8486SOL     OW28955   2.854   9.756   8.040  0.0650 -0.3222 -0.3129
 8486SOL    HW128956   2.940   9.725   8.010  0.6908  0.5390  0.4942
 8486SOL    HW228957   2.795   9.683   8.025  0.8905 -0.8424 -1.1382
 8487SOL     OW28958   4.181   0.816   7.765 -0.2264 -0.0428 -0.2573
 8487SOL    HW128959   4.110   0.832   7.828 -0.7915 -0.1317 -0.8553
 8487SOL    HW228960   4.136   0.801   7.682  0.5156  0.2049 -0.7130
 8488SOL     OW28961   8.741  10.107   1.612  0.1642  1.0153  0.1156
 8488SOL    HW128962   8.763  10.186   1.662 -3.4049  1.6822  0.9237
 8488SOL    HW228963   8.700  10.140   1.533 -0.9861  0.0005  0.2656
 8489SOL     OW28964   3.264   9.144   9.738 -0.4687 -0.2232 -0.3062
 8489SOL    HW128965   3.302   9.226   9.706  0.6480 -0.5844  0.0886
 8489SOL    HW228966   3.331   9.077   9.721 -1.4253 -1.0972 -0.7777
 8490SOL     OW28967   6.993   4.099   5.401 -0.2456 -0.2408  0.0407
 8490SOL    HW128968   6.907   4.121   5.437  0.3805  1.4772  0.5628
 8490SOL    HW228969   6.983   4.108   5.306 -1.2913 -2.5866 -0.1474
 8491SOL     OW28970   9.777  10.823   7.132 -0.1970  0.0306  0.1928
 8491SOL    HW128971   9.854  10.783   7.092 -1.3168 -0.6438 -1.4035
 8491SOL    HW228972   9.707  10.811   7.067 -1.7237  0.3709  1.6887
 8492SOL     OW28973   9.835   8.592   0.478 -0.0424 -0.1844 -0.0584
 8492SOL    HW128974   9.905   8.644   0.519 -0.5681  1.3900 -1.0434
 8492SOL    HW228975   9.784   8.656   0.428  0.7029 -1.9477 -3.4192
 8493SOL     OW28976   0.446   7.312   8.967 -0.8345 -0.4901 -0.1003
 8493SOL    HW128977   0.530   7.269   8.953 -1.9919 -2.3843 -1.7891
 8493SOL    HW228978   0.423   7.292   9.058  1.5793  2.1752  1.2562
 8494SOL     OW28979   2.268  10.151   8.376 -0.3281 -0.6263 -0.1952
 8494SOL    HW128980   2.277  10.079   8.313 -0.6227 -0.5194 -0.3615
 8494SOL    HW228981   2.259  10.229   8.323  1.8432 -0.1973 -0.0165
 8495SOL     OW28982   8.505   1.883  10.586  0.0368  0.4247  0.1005
 8495SOL    HW128983   8.526   1.791  10.566  0.2892  0.3496  0.6679
 8495SOL    HW228984   8.582   1.915  10.634  0.7037  1.4572 -1.5817
 8496SOL     OW28985   9.481   6.245   3.367 -0.8932 -0.3438 -0.6154
 8496SOL    HW128986   9.427   6.277   3.295  0.5743  2.7975 -0.4674
 8496SOL    HW228987   9.558   6.208   3.325 -0.4576  0.6526 -0.7177
 8497SOL     OW28988   3.983   7.174   1.443  0.2457  0.5512  0.3595
 8497SOL    HW128989   4.018   7.257   1.411  2.3778 -1.2206 -2.4308
 8497SOL    HW228990   3.890   7.178   1.424  0.3049  2.2797  0.2835
 8498SOL     OW28991  10.502   5.053   5.084  1.2349 -0.2071  0.0993
 8498SOL    HW128992  10.509   5.144   5.113 -1.4094 -0.1521  0.7753
 8498SOL    HW228993  10.515   5.057   4.989 -0.1001  1.0884 -0.0638
 8499SOL     OW28994   3.854   8.656   5.918 -0.5911 -0.2532 -0.5248
 8499SOL    HW128995   3.854   8.611   6.002  1.9992  1.0232  0.2774
 8499SOL    HW228996   3.941   8.637   5.881 -0.0248  2.6263 -0.8972
 8500SOL     OW28997   2.005   0.581   2.974 -0.4990 -0.2628 -0.2016
 8500SOL    HW128998   2.051   0.623   3.047 -1.8200  1.4768 -0.3094
 8500SOL    HW228999   2.074   0.544   2.920  0.6652  0.7425  0.5510
 8501SOL     OW29000   5.063   0.634   7.025  0.3130  0.1356 -0.1319
 8501SOL    HW129001   5.099   0.569   6.964 -0.8850 -0.2156 -0.4877
 8501SOL    HW229002   5.042   0.710   6.971 -1.3891 -0.4250 -0.3173
 8502SOL     OW29003   6.527   1.022   4.347 -0.2479  0.1592  0.1527
 8502SOL    HW129004   6.556   0.990   4.262  1.7556 -1.3121  1.2950
 8502SOL    HW229005   6.443   0.979   4.362  0.2878 -1.0958 -0.3042
 8503SOL     OW29006   2.024   0.797   4.597  0.3782 -0.1835  0.4731
 8503SOL    HW129007   2.111   0.767   4.622  0.2115 -1.0978  0.0220
 8503SOL    HW229008   1.976   0.716   4.578 -1.1156  0.1749  2.3991
 8504SOL     OW29009   6.548   7.694   6.427  0.3928 -0.0256 -0.7636
 8504SOL    HW129010   6.621   7.726   6.374 -0.6912  1.4778 -1.4446
 8504SOL    HW229011   6.472   7.742   6.394 -0.1683  2.2228  3.0826
 8505SOL     OW29012   5.145   5.535   3.030  0.1449  0.0868 -0.6203
 8505SOL    HW129013   5.179   5.616   3.069 -0.2565  0.2585 -0.6248
 8505SOL    HW229014   5.142   5.473   3.102  1.4442 -0.2408 -0.8328
 8506SOL     OW29015   5.646   4.015  10.579  0.6039  0.0727 -0.0703
 8506SOL    HW129016   5.573   4.047  10.526  0.6890 -0.5750 -0.5938
 8506SOL    HW229017   5.708   3.979  10.516  1.1461  0.1607  0.4052
 8507SOL     OW29018   0.453   8.210   8.263  0.4432 -0.2922  0.1027
 8507SOL    HW129019   0.424   8.125   8.232 -0.9249  0.1364  0.1208
 8507SOL    HW229020   0.372   8.255   8.288  1.1631  0.8942  0.3837
 8508SOL     OW29021   3.028   0.475   5.335  0.2370  0.1606  0.2281
 8508SOL    HW129022   2.965   0.547   5.328 -0.5364 -0.6374 -1.6711
 8508SOL    HW229023   3.104   0.505   5.285 -0.2498 -0.4880 -0.9179
 8509SOL     OW29024   7.531   2.356   1.883  0.4253  0.0882 -0.2398
 8509SOL    HW129025   7.624   2.374   1.871  0.3052  0.8524 -0.0965
 8509SOL    HW229026   7.487   2.425   1.832 -0.0682  1.1585  1.5569
 8510SOL     OW29027   2.333   1.656   6.160  0.6132 -0.1902  0.4969
 8510SOL    HW129028   2.423   1.626   6.147  0.8896  0.6616  0.4095
 8510SOL    HW229029   2.339   1.751   6.157 -0.4598 -0.1367 -0.6233
 8511SOL     OW29030   4.572   3.956   5.351 -0.9549 -0.1300 -0.0045
 8511SOL    HW129031   4.620   3.882   5.315 -0.0650  1.2280 -1.7877
 8511SOL    HW229032   4.490   3.958   5.303 -0.6801  0.4214 -0.4668
 8512SOL     OW29033   7.767   0.038   6.520  0.1283 -0.4722  0.0965
 8512SOL    HW129034   7.809  -0.045   6.498 -0.0806 -0.7456  0.7072
 8512SOL    HW229035   7.678   0.030   6.486  0.4394 -0.0402 -0.8628
 8513SOL     OW29036   8.117   5.384   9.332 -0.1920 -0.4345 -0.1986
 8513SOL    HW129037   8.188   5.448   9.343 -1.2624  0.6621  0.5467
 8513SOL    HW229038   8.140   5.312   9.391 -0.0319  0.2084  0.5306
 8514SOL     OW29039   6.794   1.824   5.143 -0.1768 -0.3198 -0.1756
 8514SOL    HW129040   6.732   1.882   5.101  0.3129  0.6019  0.3425
 8514SOL    HW229041   6.878   1.869   5.136 -0.2324  0.4384  2.7001
 8515SOL     OW29042   0.712   2.263   1.884 -0.8072  0.8892 -0.5301
 8515SOL    HW129043   0.804   2.285   1.900 -0.6627  1.2816 -1.7993
 8515SOL    HW229044   0.664   2.342   1.907 -0.9113  0.4832  0.7293
 8516SOL     OW29045   8.160   3.041   3.205 -0.7185  0.1919  0.4500
 8516SOL    HW129046   8.171   3.128   3.243 -4.2655  0.9332  0.1474
 8516SOL    HW229047   8.096   2.998   3.261  0.1368 -1.8794 -0.0400
 8517SOL     OW29048   4.528   1.048   4.953  0.1021  0.2540  0.3528
 8517SOL    HW129049   4.439   1.014   4.956 -0.1846  1.0418  1.0784
 8517SOL    HW229050   4.583   0.970   4.950 -0.5780 -0.2579  0.8297
 8518SOL     OW29051   2.021   6.179   1.684 -0.0133  0.0974  0.1377
 8518SOL    HW129052   2.045   6.226   1.604 -2.2168  0.0273 -0.6198
 8518SOL    HW229053   2.103   6.175   1.734  1.4703  0.0849 -2.1106
 8519SOL     OW29054   5.862   9.883   5.330  0.2861  0.2647 -0.4080
 8519SOL    HW129055   5.856   9.876   5.425 -0.5813 -0.1999 -0.4893
 8519SOL    HW229056   5.954   9.866   5.310  0.0378 -2.0133  0.1500
 8520SOL     OW29057   1.513   8.219   6.944 -0.0753 -0.0782  0.4129
 8520SOL    HW129058   1.570   8.267   6.884 -1.6209  1.9925  0.5179
 8520SOL    HW229059   1.474   8.151   6.889  2.0115 -1.2230  0.2237
 8521SOL     OW29060   5.155   2.509   1.885 -0.1714 -0.6238  0.8756
 8521SOL    HW129061   5.109   2.586   1.851 -0.8434 -1.2888  0.2416
 8521SOL    HW229062   5.243   2.540   1.904  0.2170 -0.1791 -1.3932
 8522SOL     OW29063   8.965   2.843  10.851 -0.1848  0.0472 -0.0391
 8522SOL    HW129064   9.034   2.885  10.902  1.0901 -0.9553 -0.8730
 8522SOL    HW229065   8.897   2.822  10.915  1.5125 -1.5203  1.3523
 8523SOL     OW29066   1.082   3.550   3.783 -0.0603  0.3935 -0.3698
 8523SOL    HW129067   1.097   3.645   3.782  1.9476  0.1538  0.7757
 8523SOL    HW229068   1.147   3.516   3.721  0.0230 -0.3173  0.1083
 8524SOL     OW29069   3.698   8.541   3.131 -0.0542 -0.2073 -0.2145
 8524SOL    HW129070   3.709   8.522   3.038  2.6651  1.5776 -0.3481
 8524SOL    HW229071   3.630   8.479   3.160 -1.8359 -0.0388 -3.5675
 8525SOL     OW29072  10.960   1.358   7.985  0.4186 -0.8171  0.3061
 8525SOL    HW129073  10.952   1.412   8.064 -1.5298  2.4292 -1.9029
 8525SOL    HW229074  10.872   1.358   7.947  1.7421 -0.1984 -3.0921
 8526SOL     OW29075   4.492  10.866   9.025  1.0017  0.3302 -0.1671
 8526SOL    HW129076   4.495  10.893   8.933  0.5808 -0.4535 -0.4185
 8526SOL    HW229077   4.558  10.920   9.068 -0.9254  3.0148 -0.3243
 8527SOL     OW29078   6.468   8.734   0.997 -0.2197 -0.2420 -0.3368
 8527SOL    HW129079   6.434   8.646   1.010 -3.0658  0.7036 -0.7338
 8527SOL    HW229080   6.465   8.748   0.902  1.4106 -0.1067 -0.4048
 8528SOL     OW29081   1.019   6.036   8.180 -0.2596 -0.0163 -0.2036
 8528SOL    HW129082   1.044   5.969   8.118 -0.9601  0.3770 -0.9240
 8528SOL    HW229083   1.087   6.033   8.248 -0.0727 -1.1611 -0.4312
 8529SOL     OW29084   4.890   0.783  10.921  0.0314 -0.1558  0.4639
 8529SOL    HW129085   4.979   0.750  10.908  0.3274  0.9089 -0.3492
 8529SOL    HW229086   4.833   0.715  10.887  0.5186 -0.9291  1.1564
 8530SOL     OW29087  10.018   8.453   1.201  0.4572 -0.3538 -0.2370
 8530SOL    HW129088  10.096   8.397   1.206 -1.3446 -2.9716  0.4243
 8530SOL    HW229089  10.034   8.522   1.265  1.1753 -2.3493  1.8734
 8531SOL     OW29090   3.316   3.835   5.865 -0.2968  0.5206 -0.1602
 8531SOL    HW129091   3.221   3.838   5.871 -0.3414 -1.4035  1.1284
 8531SOL    HW229092   3.338   3.741   5.869  1.7255  0.9833  1.4290
 8532SOL     OW29093   3.649  10.274   2.609 -0.2316  0.2110  0.1777
 8532SOL    HW129094   3.604  10.344   2.560 -0.5522  0.1701  0.4095
 8532SOL    HW229095   3.665  10.312   2.695  0.0917  0.1881  0.1296
 8533SOL     OW29096   4.198  10.151  10.333  0.1304  0.2789  0.6353
 8533SOL    HW129097   4.145  10.073  10.322  1.9634 -0.9044 -0.3066
 8533SOL    HW229098   4.204  10.189  10.245  2.0680 -0.4886  0.3875
 8534SOL     OW29099  10.574   7.990   2.438  0.5304  0.1514 -0.1031
 8534SOL    HW129100  10.644   7.925   2.441  0.9972  0.6241 -0.5949
 8534SOL    HW229101  10.581   8.035   2.522  0.8851  0.2632 -0.1889
 8535SOL     OW29102   6.564   4.663   2.876  0.0564 -0.3356 -0.4809
 8535SOL    HW129103   6.498   4.618   2.822 -1.0283  1.1402 -0.4378
 8535SOL    HW229104   6.611   4.718   2.814  0.8152 -0.8713 -0.3902
 8536SOL     OW29105   1.114   6.418   1.102 -0.8959 -0.5338  0.0926
 8536SOL    HW129106   1.058   6.439   1.177  0.0281  2.4222  0.0994
 8536SOL    HW229107   1.086   6.479   1.033  2.4440  1.4486  0.2518
 8537SOL     OW29108   4.422  10.276   7.291 -0.5112 -0.6226 -0.6831
 8537SOL    HW129109   4.343  10.318   7.258  1.7353  5.4469  0.1748
 8537SOL    HW229110   4.479  10.267   7.214 -0.6545 -1.2181 -0.7205
 8538SOL     OW29111   3.036   7.726   3.265  0.2980  0.1709  1.1299
 8538SOL    HW129112   3.119   7.720   3.312  2.3834  2.5151 -1.9410
 8538SOL    HW229113   3.005   7.815   3.283 -0.3844  0.0879  0.3972
 8539SOL     OW29114   0.992   6.594   3.800  0.5835  0.2628  0.7834
 8539SOL    HW129115   1.037   6.635   3.726 -1.0174  2.0595  0.7250
 8539SOL    HW229116   0.918   6.548   3.761  1.0587 -0.8127  1.0915
 8540SOL     OW29117   7.617   9.622   8.899 -0.3179 -0.1970  0.2066
 8540SOL    HW129118   7.712   9.628   8.888 -0.2084  1.1844  1.5184
 8540SOL    HW229119   7.592   9.543   8.852  1.2287  0.3531 -1.6895
 8541SOL     OW29120   5.910   4.859   7.453 -0.4595  0.6624 -0.2348
 8541SOL    HW129121   5.891   4.877   7.545 -0.9808  1.0127 -0.4039
 8541SOL    HW229122   5.827   4.827   7.418  0.1142 -0.8752 -0.2486
 8542SOL     OW29123   4.368   7.335   9.324  0.0414  0.1012  0.3590
 8542SOL    HW129124   4.367   7.332   9.228 -0.2428  2.2840  0.2508
 8542SOL    HW229125   4.447   7.286   9.348 -0.5758 -1.6197 -0.8883
 8543SOL     OW29126   4.577   2.340  10.245 -0.0867 -0.0918 -0.6540
 8543SOL    HW129127   4.591   2.248  10.225  0.3521 -0.2905  0.4772
 8543SOL    HW229128   4.491   2.342  10.287  0.8010 -0.3372  1.2822
 8544SOL     OW29129   4.718   8.052   9.559  0.1310  0.6465  0.2815
 8544SOL    HW129130   4.799   8.002   9.560  0.3234  0.8734  2.6447
 8544SOL    HW229131   4.686   8.045   9.469  1.8628 -0.8933 -0.2753
 8545SOL     OW29132   4.474  10.882   1.823 -0.8400  0.2120  0.1798
 8545SOL    HW129133   4.413  10.811   1.842 -0.6204 -0.6313 -1.9849
 8545SOL    HW229134   4.547  10.840   1.777 -0.4716  1.7462 -0.7328
 8546SOL     OW29135   2.081   3.604   2.454  0.4711 -0.2860 -0.3352
 8546SOL    HW129136   2.009   3.612   2.517  0.0161 -1.3171 -0.7001
 8546SOL    HW229137   2.095   3.510   2.446  0.8149 -0.1524 -1.4442
 8547SOL     OW29138   9.805   0.754   2.329 -0.1263 -0.1876 -0.2849
 8547SOL    HW129139   9.874   0.785   2.271  0.4861  1.3746  1.2056
 8547SOL    HW229140   9.791   0.663   2.302  0.7633  0.1948 -2.2331
 8548SOL     OW29141   3.893   0.103   3.641  0.3478 -0.2358  0.7368
 8548SOL    HW129142   3.974   0.054   3.622  1.3499  1.2171  1.1012
 8548SOL    HW229143   3.901   0.126   3.734  0.2707  1.2379  0.4020
 8549SOL     OW29144   7.773   9.774  10.590  0.8365  0.3355 -0.2255
 8549SOL    HW129145   7.833   9.706  10.620 -0.6459 -0.6361  0.6404
 8549SOL    HW229146   7.734   9.738  10.510  0.3306  0.3216  0.0227
 8550SOL     OW29147   9.860  10.809   5.858  0.2494 -0.0181 -0.3779
 8550SOL    HW129148   9.765  10.808   5.860  0.2591 -0.2526  1.0790
 8550SOL    HW229149   9.882  10.828   5.767 -1.1879  0.8357 -0.5764
 8551SOL     OW29150   2.130   3.932   1.030  0.8349 -0.0011  0.0685
 8551SOL    HW129151   2.066   3.863   1.045  2.1093 -0.9996  1.2513
 8551SOL    HW229152   2.213   3.895   1.061  1.5258  2.1793  1.0586
 8552SOL     OW29153   5.154   9.015   4.537 -0.3443 -0.2300  0.3188
 8552SOL    HW129154   5.174   8.927   4.506 -1.1971 -1.4390  2.9634
 8552SOL    HW229155   5.067   9.034   4.502 -0.4797 -0.7478  0.3727
 8553SOL     OW29156   0.936   1.466   7.866 -0.4949 -0.6925 -0.6095
 8553SOL    HW129157   0.880   1.537   7.897  0.2359 -0.1882 -0.4075
 8553SOL    HW229158   0.876   1.395   7.845 -1.3295  0.2682 -1.6260
 8554SOL     OW29159   7.659  10.903  10.918 -0.2319 -0.1402 -0.1909
 8554SOL    HW129160   7.696  10.932  10.835 -0.1136 -0.5126 -0.2716
 8554SOL    HW229161   7.691  10.967  10.982  0.6034 -0.4865 -0.2512
 8555SOL     OW29162  10.643   0.198   1.974 -0.1984  0.0018 -0.1864
 8555SOL    HW129163  10.726   0.198   1.927 -0.8647 -0.4965 -1.4041
 8555SOL    HW229164  10.644   0.280   2.024  0.6656  0.4029 -0.8352
 8556SOL     OW29165   7.119   2.734   8.207 -0.8220  0.0860 -0.1362
 8556SOL    HW129166   7.175   2.751   8.282 -0.0035 -0.5863 -0.5705
 8556SOL    HW229167   7.053   2.673   8.239  0.2132 -1.1120 -0.2325
 8557SOL     OW29168   3.787   9.829   1.519 -0.2644  0.4285 -0.1706
 8557SOL    HW129169   3.761   9.915   1.550  0.3300  0.2743  0.8150
 8557SOL    HW229170   3.877   9.819   1.551  0.1809  0.0220 -1.4943
 8558SOL     OW29171   7.639   7.934  10.607 -0.1407 -0.6865  0.1463
 8558SOL    HW129172   7.605   7.859  10.558 -1.9070  0.6611 -0.7783
 8558SOL    HW229173   7.593   7.930  10.691 -0.9616 -0.1277 -0.2638
 8559SOL     OW29174   8.947   1.300   1.428  0.2016  0.1885  0.0009
 8559SOL    HW129175   8.881   1.244   1.387 -0.1496  0.9891 -0.5544
 8559SOL    HW229176   8.906   1.386   1.432  0.6074  0.3390  1.1513
 8560SOL     OW29177   0.408   7.256   4.479  0.5426  0.4094  0.0477
 8560SOL    HW129178   0.409   7.223   4.569  2.0687  1.1887  0.3480
 8560SOL    HW229179   0.422   7.179   4.425 -0.2214 -0.0424  0.4736
 8561SOL     OW29180   4.301   4.959   7.401 -0.8767 -0.0327  0.4736
 8561SOL    HW129181   4.331   5.046   7.426 -2.0835  0.3195  0.7653
 8561SOL    HW229182   4.230   4.939   7.463 -0.5608 -1.2563  0.4622
 8562SOL     OW29183   2.690   8.961  10.971 -0.0364 -0.1416 -0.1218
 8562SOL    HW129184   2.661   8.887  10.918  0.9472 -2.1038  1.9290
 8562SOL    HW229185   2.700   8.925  11.059  0.5614  2.4427  0.9532
 8563SOL     OW29186   5.219  10.928  10.969  0.0144  0.3162 -0.2165
 8563SOL    HW129187   5.221  11.006  10.914  0.3305 -0.8783 -1.9784
 8563SOL    HW229188   5.297  10.935  11.024 -0.3836  1.5977  0.2101
 8564SOL     OW29189   2.237  10.712   3.089 -0.3600 -0.0491  0.4166
 8564SOL    HW129190   2.295  10.775   3.133 -0.7114  0.0627  0.7204
 8564SOL    HW229191   2.150  10.731   3.123 -0.7697  0.5484 -0.8852
 8565SOL     OW29192   3.925   0.672   0.644  0.2872  0.8598  0.1411
 8565SOL    HW129193   3.944   0.638   0.731  0.3055  1.7786  0.5075
 8565SOL    HW229194   3.830   0.669   0.637  0.3592 -1.3090 -0.6940
 8566SOL     OW29195   3.088   1.913   2.760 -0.4593 -0.6444  0.1648
 8566SOL    HW129196   3.086   1.845   2.827 -1.3831  0.1111  0.9346
 8566SOL    HW229197   3.005   1.903   2.713 -1.0186  0.5107  0.8761
 8567SOL     OW29198   1.577   5.923   6.952 -0.1233 -0.1576 -0.5843
 8567SOL    HW129199   1.633   5.964   7.019  0.6103  0.4977 -1.5659
 8567SOL    HW229200   1.529   5.855   7.000  2.5064 -1.7153  0.0933
 8568SOL     OW29201  10.237   8.180   0.756 -0.5092 -0.4787  0.1746
 8568SOL    HW129202  10.295   8.173   0.832 -0.2742 -0.4791 -0.0040
 8568SOL    HW229203  10.296   8.176   0.680 -0.5519  1.2699  0.0129
 8569SOL     OW29204   4.659   8.936   4.825 -0.0014 -0.0126  0.2101
 8569SOL    HW129205   4.677   8.850   4.787  0.6740  0.4467 -0.5352
 8569SOL    HW229206   4.565   8.935   4.843 -0.2407 -0.4583 -0.9623
 8570SOL     OW29207   9.051   3.018   7.437  0.1774  0.1348  0.1280
 8570SOL    HW129208   9.083   2.933   7.407 -0.0915 -0.2147  0.8252
 8570SOL    HW229209   9.071   3.020   7.530 -0.1154  0.7017  0.1828
 8571SOL     OW29210   2.325  10.852   4.154  0.0006  0.4686  0.1240
 8571SOL    HW129211   2.304  10.776   4.101  1.5551 -0.4877  0.8069
 8571SOL    HW229212   2.400  10.825   4.206  1.4000  2.8404 -0.4792
 8572SOL     OW29213   7.127  10.564   4.999  0.1099 -0.2092  0.9849
 8572SOL    HW129214   7.101  10.476   5.025 -1.5598 -1.2592 -3.3909
 8572SOL    HW229215   7.050  10.618   5.016  0.3975 -0.0006  1.6882
 8573SOL     OW29216   5.967   5.630   1.846 -0.0899 -0.0098  0.1932
 8573SOL    HW129217   6.004   5.582   1.920 -0.7262  0.3627  0.7716
 8573SOL    HW229218   5.881   5.591   1.833 -0.7057  1.0633  0.8073
 8574SOL     OW29219   8.077   7.530   3.638 -0.1648  0.0982  0.2483
 8574SOL    HW129220   8.025   7.603   3.602 -2.0864 -1.4333 -0.2680
 8574SOL    HW229221   8.106   7.481   3.561 -0.2852 -0.5833  0.6287
 8575SOL     OW29222   8.562   9.451   0.023  0.2618  0.2834  0.2506
 8575SOL    HW129223   8.653   9.476   0.041  0.1159 -0.0683  1.5759
 8575SOL    HW229224   8.523   9.439   0.110 -1.6225  2.3827 -0.2201
 8576SOL     OW29225   6.417   2.435   2.038 -0.3287  0.0517 -0.4212
 8576SOL    HW129226   6.447   2.367   1.977  0.0243 -1.8857  1.7915
 8576SOL    HW229227   6.453   2.410   2.123  0.1950  3.3085  0.4569
 8577SOL     OW29228   9.728   1.582   3.252  0.3505 -0.0104 -0.0396
 8577SOL    HW129229   9.814   1.568   3.291  0.2742 -1.8067 -0.4629
 8577SOL    HW229230   9.675   1.620   3.323  0.8586 -1.0461  0.9222
 8578SOL     OW29231   3.296   8.967  10.714 -0.5387 -0.6960 -0.0230
 8578SOL    HW129232   3.241   8.921  10.651  1.8819 -0.2815 -2.6444
 8578SOL    HW229233   3.248   9.047  10.734 -2.4002 -1.8923  0.5097
 8579SOL     OW29234   0.231   2.902   8.713  0.7862 -0.4950 -0.0381
 8579SOL    HW129235   0.193   2.977   8.760  1.2376 -0.3448  0.0908
 8579SOL    HW229236   0.216   2.922   8.620 -0.0606 -0.7683  0.0359
 8580SOL     OW29237   7.456   4.661   3.610  0.1259 -0.1343  0.3069
 8580SOL    HW129238   7.397   4.651   3.684 -0.5464 -0.6952 -0.2988
 8580SOL    HW229239   7.488   4.752   3.617 -1.2200  0.3511  0.3285
 8581SOL     OW29240   4.998   3.596   3.165  0.4992 -0.2780 -0.1729
 8581SOL    HW129241   5.042   3.615   3.248  1.2735 -1.7644 -0.1927
 8581SOL    HW229242   5.062   3.544   3.116 -0.6939 -1.1721 -0.8432
 8582SOL     OW29243   1.006   7.359  10.483  0.5062 -0.3825  0.4991
 8582SOL    HW129244   1.099   7.347  10.502  1.0766  2.7229  0.1731
 8582SOL    HW229245   0.961   7.323  10.560  1.9902 -1.2574  0.9946
 8583SOL     OW29246   9.821   8.989   9.541  0.1531 -0.7607  0.4828
 8583SOL    HW129247   9.781   8.913   9.501 -0.2428 -0.8263  0.9865
 8583SOL    HW229248   9.873   8.953   9.614  1.1414 -0.6801 -0.1637
 8584SOL     OW29249   2.607   0.350   6.071 -0.3487  0.0280 -0.8718
 8584SOL    HW129250   2.554   0.347   5.992 -1.8266  0.2705  0.0637
 8584SOL    HW229251   2.696   0.334   6.041 -1.1477 -2.2573 -2.2914
 8585SOL     OW29252   1.145   1.729   8.241 -0.3392 -0.2317  0.2346
 8585SOL    HW129253   1.052   1.723   8.264 -0.1315 -0.7522  0.9533
 8585SOL    HW229254   1.188   1.760   8.320 -0.1485  2.1585 -0.7050
 8586SOL     OW29255   4.618   3.585  10.255 -0.5846 -0.1080  0.3565
 8586SOL    HW129256   4.682   3.516  10.236 -0.8271 -0.1195 -0.4520
 8586SOL    HW229257   4.666   3.649  10.308 -0.0304 -0.3340  0.1302
 8587SOL     OW29258   9.638   7.409  10.686  0.1062  0.0924 -0.2737
 8587SOL    HW129259   9.542   7.402  10.689  0.1551 -0.4066  0.4608
 8587SOL    HW229260   9.658   7.492  10.730  0.1099 -0.8930  1.6999
 8588SOL     OW29261   5.379   3.836   6.389 -0.2175  0.5455  0.1871
 8588SOL    HW129262   5.440   3.767   6.362 -1.3866 -0.4965  0.1045
 8588SOL    HW229263   5.407   3.859   6.477 -0.2364 -0.5689  0.5046
 8589SOL     OW29264   2.645   1.286   1.567 -0.0849 -0.0220 -0.2644
 8589SOL    HW129265   2.588   1.259   1.640  1.3299 -1.6214  0.3016
 8589SOL    HW229266   2.681   1.205   1.533  0.9976  0.8693 -1.3347
 8590SOL     OW29267   8.144   8.312   6.912  0.3800 -0.4590 -0.1010
 8590SOL    HW129268   8.240   8.319   6.907  0.2618  0.5022 -2.0391
 8590SOL    HW229269   8.115   8.323   6.821 -1.5254 -1.8407  0.2945
 8591SOL     OW29270   1.251   2.563   1.869  0.1911  0.5063  0.3814
 8591SOL    HW129271   1.274   2.618   1.794 -0.3166  2.5314  1.6473
 8591SOL    HW229272   1.215   2.624   1.934 -0.8591 -1.4020  1.6775
 8592SOL     OW29273   2.870   8.776   8.457 -0.3530 -0.2154 -0.4663
 8592SOL    HW129274   2.935   8.735   8.513 -0.5833 -0.7278 -0.5687
 8592SOL    HW229275   2.879   8.732   8.373 -0.7243 -0.1835 -0.5260
 8593SOL     OW29276   5.531   4.275   4.263 -0.0243  0.5365  0.0391
 8593SOL    HW129277   5.541   4.256   4.170  2.5462  0.2166  0.2937
 8593SOL    HW229278   5.539   4.189   4.306 -0.0407  0.8075  0.5956
 8594SOL     OW29279  10.833   3.154   3.084  0.0737 -0.3575 -0.0405
 8594SOL    HW129280  10.824   3.075   3.031 -0.2032 -0.4481  0.1378
 8594SOL    HW229281  10.915   3.142   3.132  1.4462  0.6547 -1.9816
 8595SOL     OW29282   8.584   3.840   1.211  1.0085 -0.0178  0.2207
 8595SOL    HW129283   8.553   3.924   1.245  0.4842 -0.6915  1.4590
 8595SOL    HW229284   8.503   3.791   1.194  1.3212 -1.1333  1.7710
 8596SOL     OW29285   9.411   1.472   1.100  0.0367 -0.0000 -0.2088
 8596SOL    HW129286   9.421   1.406   1.169  0.9164 -0.2394 -0.5572
 8596SOL    HW229287   9.436   1.427   1.020  0.3636  0.6808 -0.4917
 8597SOL     OW29288   3.176   2.842   7.898 -0.1727 -0.2283 -0.5478
 8597SOL    HW129289   3.177   2.921   7.952  0.0907 -0.4510 -0.2219
 8597SOL    HW229290   3.255   2.849   7.844  0.1592 -0.5394 -0.1140
 8598SOL     OW29291   4.163   1.576   0.512  0.6116  0.2121  0.0305
 8598SOL    HW129292   4.215   1.615   0.583  1.0523 -0.0827 -0.1249
 8598SOL    HW229293   4.211   1.497   0.488  0.4732  0.3217 -0.6110
 8599SOL     OW29294  10.717   2.968   3.775 -0.1120 -0.2769  0.1315
 8599SOL    HW129295  10.806   2.948   3.806 -0.4221 -1.0486  0.5346
 8599SOL    HW229296  10.729   3.043   3.717  0.8669 -0.6299 -0.1463
 8600SOL     OW29297   2.414   3.896   3.901  0.1439 -0.2878  0.0058
 8600SOL    HW129298   2.475   3.930   3.967  1.9077 -1.9675 -0.6396
 8600SOL    HW229299   2.461   3.821   3.862 -1.0070  0.3552 -2.8512
 8601SOL     OW29300   4.278   3.034   0.346  0.1231 -0.1370 -0.0919
 8601SOL    HW129301   4.313   2.963   0.291 -2.1045 -1.1634 -0.2798
 8601SOL    HW229302   4.330   3.031   0.426  0.7750 -1.2675 -0.5413
 8602SOL     OW29303   4.287   0.957   9.803 -0.1327 -0.9357  0.1792
 8602SOL    HW129304   4.371   1.004   9.807 -0.8286  0.4429 -0.8190
 8602SOL    HW229305   4.224   1.017   9.842 -0.6315 -2.1111  1.2574
 8603SOL     OW29306   4.781   0.203  10.204 -0.3889 -0.4695  0.5680
 8603SOL    HW129307   4.694   0.215  10.167  0.0519 -0.3177 -0.4870
 8603SOL    HW229308   4.807   0.291  10.233 -0.3139 -0.3798  0.2329
 8604SOL     OW29309  10.741   0.127   4.315 -0.3492 -0.0825 -0.2433
 8604SOL    HW129310  10.731   0.032   4.312 -1.3980 -0.0037  0.4300
 8604SOL    HW229311  10.696   0.154   4.395  1.3106  0.8336  0.4205
 8605SOL     OW29312   5.611   0.947   9.539  0.2645 -0.1762 -0.1195
 8605SOL    HW129313   5.557   0.901   9.603  0.2884  0.3666  0.2943
 8605SOL    HW229314   5.668   1.003   9.591  1.4545 -0.9611 -0.5252
 8606SOL     OW29315   7.911   0.530   7.940 -0.4401  0.3784 -0.3311
 8606SOL    HW129316   7.913   0.476   8.019  1.6662 -1.5524 -1.5889
 8606SOL    HW229317   8.002   0.555   7.926 -0.9340  1.5820 -1.5684
 8607SOL     OW29318   2.496   5.974   6.335  0.2027  1.1173  0.3832
 8607SOL    HW129319   2.404   5.984   6.314  0.0889 -1.2572 -0.5851
 8607SOL    HW229320   2.534   6.061   6.322 -1.4555  1.6003 -1.6179
 8608SOL     OW29321  10.356   3.012   0.650  0.4104  0.5778  0.4363
 8608SOL    HW129322  10.357   3.032   0.557  0.4066 -0.2278  0.2556
 8608SOL    HW229323  10.286   3.067   0.686 -0.3056  0.1168 -0.2183
 8609SOL     OW29324   7.759   7.255   5.314 -0.2560 -0.4381 -0.1307
 8609SOL    HW129325   7.801   7.283   5.233  1.7036 -1.5671  0.4194
 8609SOL    HW229326   7.744   7.336   5.363  0.9670  0.0392 -0.5135
 8610SOL     OW29327   2.568   4.076   9.045 -0.1713  0.1015 -0.2015
 8610SOL    HW129328   2.543   4.166   9.068 -1.1605 -0.0346 -0.6923
 8610SOL    HW229329   2.604   4.040   9.126  0.9704  1.1742 -0.1933
 8611SOL     OW29330  10.838   8.304   3.092  0.2455 -0.3550 -0.2169
 8611SOL    HW129331  10.798   8.389   3.112  0.4828  0.2907 -2.2533
 8611SOL    HW229332  10.834   8.256   3.175  1.1097  2.0118  1.3193
 8612SOL     OW29333   6.143   3.590   5.254 -0.3312 -0.4976  0.2541
 8612SOL    HW129334   6.234   3.602   5.283 -0.7025 -3.2192  3.1211
 8612SOL    HW229335   6.149   3.522   5.187 -0.2498 -0.6534  0.4186
 8613SOL     OW29336   7.923   4.520   3.739 -0.3626  0.2581 -0.5061
 8613SOL    HW129337   7.936   4.425   3.736 -0.0974  0.2861 -0.2093
 8613SOL    HW229338   7.854   4.536   3.674  0.4688  0.0063 -1.4704
 8614SOL     OW29339   4.911  10.879   0.685  0.6468  0.3141  0.1044
 8614SOL    HW129340   4.874  10.791   0.690  1.4667  0.0182  1.4197
 8614SOL    HW229341   4.851  10.934   0.736 -0.8716  0.9392 -2.1932
 8615SOL     OW29342   9.192   2.545   4.452  0.5247 -0.0560 -0.1147
 8615SOL    HW129343   9.119   2.602   4.480  0.5422 -1.0179  2.1516
 8615SOL    HW229344   9.269   2.602   4.454 -0.0587  0.8960 -2.2336
 8616SOL     OW29345   7.269  10.031   5.002  0.1203 -0.0840  0.4572
 8616SOL    HW129346   7.272  10.116   4.958 -0.0668 -0.4411 -0.2667
 8616SOL    HW229347   7.211  10.045   5.078 -0.5380  0.2409 -0.0913
 8617SOL     OW29348   6.554   8.861   8.748  0.3526  0.2413  0.0411
 8617SOL    HW129349   6.611   8.784   8.750  1.7619  1.2477  0.1066
 8617SOL    HW229350   6.592   8.921   8.813 -0.6256  1.0652 -0.1170
 8618SOL     OW29351   8.925   6.858   7.270 -0.4270 -0.1354 -0.7536
 8618SOL    HW129352   8.897   6.773   7.238 -0.3016 -0.2068 -0.6747
 8618SOL    HW229353   8.899   6.859   7.362  1.0354 -0.7444 -0.3153
 8619SOL     OW29354   5.784   2.629   6.437  0.1625 -0.4411 -0.1641
 8619SOL    HW129355   5.824   2.673   6.512  0.7618 -0.9076 -0.2106
 8619SOL    HW229356   5.823   2.542   6.435 -1.1910 -1.0808  0.0650
 8620SOL     OW29357   4.368   5.421   8.222  0.4964 -0.5221 -0.1891
 8620SOL    HW129358   4.434   5.436   8.289  1.0191 -1.2243 -0.5413
 8620SOL    HW229359   4.341   5.330   8.234  2.5641 -1.5778 -2.6313
 8621SOL     OW29360   9.208   9.529   4.796  0.0792 -0.6799  0.5680
 8621SOL    HW129361   9.162   9.473   4.734 -0.6859  0.1931  0.3217
 8621SOL    HW229362   9.174   9.502   4.882 -1.5607  0.5021  0.3383
 8622SOL     OW29363   4.957   0.996   2.842  0.4331 -0.0306 -0.3981
 8622SOL    HW129364   4.945   1.085   2.808 -0.2698  0.7715  1.8050
 8622SOL    HW229365   4.874   0.952   2.826 -0.2476  0.6622  1.1124
 8623SOL     OW29366   6.920   3.146   1.163  0.1634  0.3642  0.2008
 8623SOL    HW129367   6.830   3.132   1.133  0.5421  0.4038 -0.9710
 8623SOL    HW229368   6.911   3.160   1.258 -0.8773 -1.5350  0.4461
 8624SOL     OW29369   1.906   2.004  10.909 -0.0858 -0.0252 -0.0394
 8624SOL    HW129370   1.878   2.057  10.984 -0.4779  0.7926 -0.7395
 8624SOL    HW229371   1.998   2.028  10.896  0.5777 -1.6635  1.3961
 8625SOL     OW29372   5.767   6.311   9.106  0.2626 -0.3848  0.2328
 8625SOL    HW129373   5.812   6.230   9.127  0.8448 -0.4923 -1.2881
 8625SOL    HW229374   5.790   6.328   9.015  1.2455  2.1754  0.8646
 8626SOL     OW29375   4.611   3.377   8.158  0.1248 -0.1270  0.1757
 8626SOL    HW129376   4.660   3.447   8.114 -0.0577 -0.6633 -0.9013
 8626SOL    HW229377   4.679   3.327   8.205  0.7028 -1.0652 -1.5795
 8627SOL     OW29378   8.568   6.688   5.388  0.3898  1.0829  0.6520
 8627SOL    HW129379   8.517   6.616   5.427  0.3353  0.2995 -0.8061
 8627SOL    HW229380   8.659   6.662   5.402  0.4272 -0.5500 -1.9404
 8628SOL     OW29381   8.304   6.400   7.366  0.1653 -0.0560  0.1034
 8628SOL    HW129382   8.329   6.356   7.447  2.0085 -0.0655 -0.4214
 8628SOL    HW229383   8.376   6.383   7.306 -1.0742  0.0739 -1.5146
 8629SOL     OW29384  10.379   1.189   9.747 -0.2889  0.1087 -0.2705
 8629SOL    HW129385  10.329   1.226   9.820  1.4731  3.2458 -0.4796
 8629SOL    HW229386  10.469   1.182   9.781  0.4027  0.8603 -1.8336
 8630SOL     OW29387   1.893   9.632   2.149 -0.1588  0.3171  0.1096
 8630SOL    HW129388   1.800   9.621   2.172 -0.4085  1.9490  0.0027
 8630SOL    HW229389   1.901   9.725   2.128  1.3625  0.0511 -0.5814
 8631SOL     OW29390   6.775   8.899   3.305  0.3061  0.4093  0.5002
 8631SOL    HW129391   6.839   8.907   3.234  1.0254 -1.1045  0.9332
 8631SOL    HW229392   6.753   8.806   3.307 -2.0434  0.9017  0.2883
 8632SOL     OW29393   4.638   9.321   0.043  0.1549  0.1018  0.3523
 8632SOL    HW129394   4.649   9.320   0.139  0.6560 -0.6415  0.2991
 8632SOL    HW229395   4.567   9.259   0.027 -0.0984  0.4169  0.2606
 8633SOL     OW29396   1.027   2.729   3.022  0.5769  0.0855  0.5939
 8633SOL    HW129397   0.960   2.699   3.084  1.5166 -0.8528  1.1936
 8633SOL    HW229398   1.075   2.650   2.998 -0.0273  0.3481 -1.7187
 8634SOL     OW29399   4.057   1.382  10.006  0.0034  0.5082 -0.1814
 8634SOL    HW129400   3.969   1.374  10.042  0.3715 -1.1982  0.4515
 8634SOL    HW229401   4.056   1.463   9.956 -1.7788  0.7580  0.2142
 8635SOL     OW29402   9.201   2.507   5.632  1.0382  0.4384  0.0138
 8635SOL    HW129403   9.188   2.454   5.711  0.5713 -1.7180 -1.4239
 8635SOL    HW229404   9.249   2.450   5.572 -0.2257  1.3010 -1.9366
 8636SOL     OW29405   3.232   8.959   4.085  0.4524 -0.0186 -0.3108
 8636SOL    HW129406   3.259   8.872   4.112  0.0888 -0.0725 -0.1084
 8636SOL    HW229407   3.137   8.952   4.073  0.0680  0.8518  1.7435
 8637SOL     OW29408   4.504   5.395   2.285 -0.0876  0.4351 -0.0543
 8637SOL    HW129409   4.408   5.397   2.281 -0.1436 -1.8050 -1.3341
 8637SOL    HW229410   4.523   5.326   2.349  0.7046  0.9812  0.3113
 8638SOL     OW29411   5.849   6.286   7.555 -0.3229 -0.0275 -0.2905
 8638SOL    HW129412   5.936   6.267   7.520 -1.1827 -1.1574 -1.9483
 8638SOL    HW229413   5.839   6.381   7.544  0.3277 -0.0340 -1.0121
 8639SOL     OW29414   7.810   5.055  10.610 -0.0959  0.3364 -0.1788
 8639SOL    HW129415   7.743   4.997  10.574  0.9171 -0.6939 -0.4725
 8639SOL    HW229416   7.817   5.126  10.545 -1.0315  0.5746 -0.0372
 8640SOL     OW29417  10.780   9.890   7.595 -0.2894  0.3206 -0.2771
 8640SOL    HW129418  10.860   9.873   7.545 -1.8002  0.4115 -2.9058
 8640SOL    HW229419  10.747   9.803   7.618  0.0553  0.2593  0.0064
 8641SOL     OW29420  10.613   4.010   1.435  0.0139 -0.2484 -0.3309
 8641SOL    HW129421  10.689   3.999   1.493 -0.2844 -0.1809  0.0747
 8641SOL    HW229422  10.572   4.091   1.464 -0.8132 -0.8179  0.1514
 8642SOL     OW29423   8.547   7.651   0.226 -0.1708  0.0111  0.7238
 8642SOL    HW129424   8.545   7.668   0.132 -0.6890  2.8870  1.1743
 8642SOL    HW229425   8.525   7.558   0.233 -1.1638 -0.0610 -1.9430
 8643SOL     OW29426   0.399   8.263   3.205 -0.1045  0.4459 -1.1220
 8643SOL    HW129427   0.464   8.209   3.159 -1.2592 -2.2288  0.2067
 8643SOL    HW229428   0.412   8.243   3.297 -0.9858  2.0630 -0.6113
 8644SOL     OW29429   0.728   0.459   5.983 -0.1747  0.3934 -0.1995
 8644SOL    HW129430   0.704   0.430   5.895  1.9391 -1.6890 -0.1759
 8644SOL    HW229431   0.683   0.399   6.042  0.5316  0.0753  0.0275
 8645SOL     OW29432   9.766   6.030   7.306  0.0256 -0.2276 -0.1842
 8645SOL    HW129433   9.859   6.032   7.283  0.6681  1.5731  2.1362
 8645SOL    HW229434   9.765   6.013   7.400 -2.0260 -0.4158 -0.1889
 8646SOL     OW29435   2.888   3.024   7.674  0.2437  0.3147  0.0503
 8646SOL    HW129436   2.963   3.063   7.629  1.2383 -1.2040  0.3372
 8646SOL    HW229437   2.897   3.055   7.765  1.8129 -1.5760  0.5988
 8647SOL     OW29438  10.635   8.522   9.853 -0.2071 -0.0705  0.0420
 8647SOL    HW129439  10.606   8.608   9.823  0.3683  1.0597  2.4668
 8647SOL    HW229440  10.704   8.497   9.791  2.1797  2.9335  1.2192
 8648SOL     OW29441   0.915   2.447   2.622 -0.0234  0.1047  0.5672
 8648SOL    HW129442   0.843   2.507   2.641 -0.9299 -1.0834  0.9849
 8648SOL    HW229443   0.924   2.450   2.527  0.0145  0.9583  0.5839
 8649SOL     OW29444   1.625   8.858   3.525  0.1558  0.1701 -0.3620
 8649SOL    HW129445   1.671   8.921   3.470  1.1806 -0.4749 -0.2580
 8649SOL    HW229446   1.577   8.802   3.464 -0.2032  0.6127 -0.4903
 8650SOL     OW29447   9.200   2.586   3.649  0.4585  0.1215 -0.1771
 8650SOL    HW129448   9.223   2.628   3.566 -1.3624 -0.2968 -0.9494
 8650SOL    HW229449   9.140   2.647   3.691 -0.2846 -0.5987 -0.1720
 8651SOL     OW29450   5.522   6.721   6.221 -0.8614  0.0970 -0.1110
 8651SOL    HW129451   5.591   6.737   6.286 -1.2232 -0.2430  0.3628
 8651SOL    HW229452   5.568   6.687   6.145 -0.6679 -1.7246  0.7801
 8652SOL     OW29453   9.467   4.780   9.082  0.1872  0.2678  0.8076
 8652SOL    HW129454   9.490   4.861   9.127  0.5721  0.3990  0.3844
 8652SOL    HW229455   9.528   4.776   9.007 -1.9093  1.2377 -1.0775
 8653SOL     OW29456   3.678   3.513   4.464  0.0237  0.2600 -0.2515
 8653SOL    HW129457   3.621   3.584   4.495 -0.1041 -0.1454  0.4731
 8653SOL    HW229458   3.668   3.513   4.369  0.7698  1.8568 -0.3690
 8654SOL     OW29459   0.686   2.312   8.473 -0.3882  0.3491 -0.1005
 8654SOL    HW129460   0.633   2.317   8.393  0.2040  0.9780 -0.4659
 8654SOL    HW229461   0.630   2.349   8.541 -0.3998  1.0820 -0.4948
 8655SOL     OW29462   3.316   1.128   4.844  0.0951  0.2311  0.2300
 8655SOL    HW129463   3.368   1.169   4.914 -0.9645  0.7256  0.7466
 8655SOL    HW229464   3.301   1.039   4.874  0.5640  0.1113  0.1188
 8656SOL     OW29465   1.515   5.135   6.904  0.1173 -0.2349  0.2751
 8656SOL    HW129466   1.507   5.057   6.850  0.2744 -0.9730  1.2835
 8656SOL    HW229467   1.559   5.199   6.848  0.8144 -1.1679 -0.2715
 8657SOL     OW29468   7.213   5.490   1.659 -1.0130  0.1525  0.2963
 8657SOL    HW129469   7.142   5.430   1.636 -1.5122  0.4830  0.9625
 8657SOL    HW229470   7.215   5.491   1.754  0.0437 -0.0285  0.2932
 8658SOL     OW29471   5.503   1.471   1.238  0.3323 -0.0715  0.3571
 8658SOL    HW129472   5.414   1.439   1.220  0.9682 -1.5097 -0.4047
 8658SOL    HW229473   5.493   1.566   1.247 -1.2293 -0.1665 -0.0425
 8659SOL     OW29474  10.396  10.704   1.030 -0.5077 -0.0231 -0.4935
 8659SOL    HW129475  10.425  10.615   1.006 -0.4565 -0.0290 -0.4111
 8659SOL    HW229476  10.315  10.691   1.078 -1.5746  0.0969 -2.2055
 8660SOL     OW29477   8.398   5.793   0.101 -0.6472  0.1095 -0.6436
 8660SOL    HW129478   8.361   5.881   0.101  0.3349  0.5361 -1.3786
 8660SOL    HW229479   8.371   5.755   0.017 -2.1847 -0.8005  0.2145
 8661SOL     OW29480   6.455   4.690   0.575 -0.2426 -0.1439 -0.3563
 8661SOL    HW129481   6.379   4.640   0.606  0.0326 -0.1734  0.2763
 8661SOL    HW229482   6.524   4.670   0.638  0.6707 -1.1179 -1.6069
 8662SOL     OW29483   1.407   3.431   5.851 -0.3967  0.3483  0.6430
 8662SOL    HW129484   1.412   3.424   5.946 -0.7994 -0.1315  0.6355
 8662SOL    HW229485   1.459   3.358   5.818 -1.6381 -0.5116  0.5214
 8663SOL     OW29486   3.914   3.759   3.820 -0.4852  0.3661  0.0013
 8663SOL    HW129487   3.889   3.809   3.742  0.1012  0.0010 -0.4215
 8663SOL    HW229488   3.965   3.821   3.872 -0.3598  0.4269 -0.1916
 8664SOL     OW29489  10.628   3.970   3.824 -0.0965  0.4464  0.7358
 8664SOL    HW129490  10.575   3.997   3.749  0.7699  0.3353  0.0685
 8664SOL    HW229491  10.714   3.952   3.787  0.5684  1.1627  1.8794
 8665SOL     OW29492   0.674   0.617   0.675  0.0251  0.1561  0.2509
 8665SOL    HW129493   0.766   0.593   0.683  0.6885  1.3574 -2.6500
 8665SOL    HW229494   0.627   0.535   0.691  1.4497 -0.2941  2.7396
 8666SOL     OW29495  10.611   9.790   3.064  0.3728  0.1591 -0.0059
 8666SOL    HW129496  10.563   9.822   3.140 -0.9400  0.3369 -0.8802
 8666SOL    HW229497  10.562   9.714   3.034 -0.2258  1.1856 -1.7685
 8667SOL     OW29498   8.312   9.549   2.576 -0.1555  0.4887 -0.3969
 8667SOL    HW129499   8.244   9.600   2.531 -0.9283 -1.3073 -1.3744
 8667SOL    HW229500   8.372   9.525   2.506  0.5615  0.5873  0.1752
 8668SOL     OW29501   4.227   3.068   6.812  0.1638  0.0530 -0.1089
 8668SOL    HW129502   4.158   3.022   6.859  2.0973 -0.2662  2.6555
 8668SOL    HW229503   4.223   3.033   6.723 -0.2549 -3.4804  1.1425
 8669SOL     OW29504   8.597   1.669   3.111  0.0892 -0.2679 -0.3947
 8669SOL    HW129505   8.551   1.730   3.053 -1.4274  0.2108  1.2539
 8669SOL    HW229506   8.652   1.725   3.166 -0.6817 -0.4267  0.5644
 8670SOL     OW29507   2.559   3.530   8.186 -0.1969  0.2850  0.0127
 8670SOL    HW129508   2.605   3.614   8.185  0.0443  0.1622 -1.5104
 8670SOL    HW229509   2.520   3.525   8.273  1.5954  0.9811  0.9075
 8671SOL     OW29510   4.467   2.644   3.893  0.2816  0.4447  0.3571
 8671SOL    HW129511   4.439   2.573   3.950  0.1745  0.3392  0.1737
 8671SOL    HW229512   4.433   2.621   3.806 -0.1723  0.9647  0.3937
 8672SOL     OW29513   0.060  10.033   1.484  0.1642  0.1823  0.5620
 8672SOL    HW129514   0.030  10.111   1.531  0.6470  0.5888  0.2065
 8672SOL    HW229515  -0.019   9.996   1.445 -0.3290 -0.4134  2.0406
 8673SOL     OW29516   9.751   5.557   1.920 -0.5959  0.2549 -0.1145
 8673SOL    HW129517   9.769   5.463   1.919 -0.5152  0.2661 -1.0882
 8673SOL    HW229518   9.662   5.564   1.955 -0.0310 -0.0502  1.4761
 8674SOL     OW29519   6.809   3.022   3.568  0.3937 -0.4869 -0.1510
 8674SOL    HW129520   6.815   3.095   3.506  1.7821  0.2590  0.7876
 8674SOL    HW229521   6.749   3.054   3.635 -0.1787 -0.8213 -0.4983
 8675SOL     OW29522   7.899   5.870  10.793  0.2092 -0.2757  0.0294
 8675SOL    HW129523   7.854   5.800  10.841 -2.0890  0.0051 -1.5224
 8675SOL    HW229524   7.848   5.949  10.813  0.9420  0.3791 -0.6037
 8676SOL     OW29525   2.069   8.894   3.507  0.0691  0.1096 -0.1349
 8676SOL    HW129526   2.082   8.801   3.488  0.7513  0.1322  0.1975
 8676SOL    HW229527   2.114   8.909   3.590 -0.1553  0.7062 -0.1114
 8677SOL     OW29528   1.604   0.933   6.277  0.2589  0.5250 -0.0616
 8677SOL    HW129529   1.543   0.887   6.334 -0.6333  0.8451 -0.7482
 8677SOL    HW229530   1.685   0.939   6.329  0.0642 -0.8672  0.4321
 8678SOL     OW29531  10.962   4.830   3.386  0.5039 -0.2434  0.4813
 8678SOL    HW129532  10.943   4.751   3.437 -1.1104 -0.0697  0.2189
 8678SOL    HW229533  10.876   4.869   3.371  0.9458 -0.1222 -2.1354
 8679SOL     OW29534   4.037   6.874   9.112  0.2251 -0.1552  0.0516
 8679SOL    HW129535   4.083   6.954   9.137  0.4560 -0.4815  0.6826
 8679SOL    HW229536   4.089   6.838   9.040 -0.6204  0.9591 -1.1642
 8680SOL     OW29537   3.687   7.658   1.635 -0.4099 -0.0181 -0.2609
 8680SOL    HW129538   3.606   7.626   1.675 -1.6740  1.7203 -1.3082
 8680SOL    HW229539   3.715   7.730   1.692 -0.1566  0.0492 -0.4704
 8681SOL     OW29540   6.068   6.041   7.183 -0.2305  0.1569 -0.3825
 8681SOL    HW129541   6.131   6.031   7.111 -0.9673 -0.7046 -0.9227
 8681SOL    HW229542   6.043   6.134   7.180  1.0050  0.5166 -0.1510
 8682SOL     OW29543   9.885   3.675   6.529 -0.0801  0.3362 -0.2721
 8682SOL    HW129544   9.955   3.718   6.577  1.0645  0.3858 -1.9250
 8682SOL    HW229545   9.929   3.617   6.467 -1.5283 -3.2435  1.7264
 8683SOL     OW29546   1.359   5.616   7.348  0.2821  0.0034 -0.3274
 8683SOL    HW129547   1.357   5.528   7.311  0.2432  0.0700 -0.4819
 8683SOL    HW229548   1.329   5.604   7.438  0.3000 -0.1448 -0.3408
 8684SOL     OW29549   3.701   1.777   4.746 -0.2717  0.5130  0.0274
 8684SOL    HW129550   3.640   1.712   4.713  0.8405 -0.2576 -0.6059
 8684SOL    HW229551   3.700   1.847   4.681  0.4920 -0.1157 -0.6755
 8685SOL     OW29552   2.145   3.194   6.990  0.0065 -0.4344  0.7195
 8685SOL    HW129553   2.113   3.257   7.054  0.8905  0.1291  0.6181
 8685SOL    HW229554   2.231   3.168   7.022  1.0445  0.8465 -0.8849
 8686SOL     OW29555   9.162   9.511   0.353  0.0354  0.3234  0.5405
 8686SOL    HW129556   9.203   9.520   0.439  0.1685  1.0263  0.4103
 8686SOL    HW229557   9.081   9.561   0.359 -1.5874 -2.1835  1.2398
 8687SOL     OW29558   9.791   8.047   8.221 -0.0444  0.1870  0.0005
 8687SOL    HW129559   9.836   8.009   8.297  0.0604 -0.2677 -0.2838
 8687SOL    HW229560   9.699   8.050   8.247  0.0436  0.3899  0.2918
 8688SOL     OW29561   4.345   5.360   4.624  0.5677 -0.0856  0.0344
 8688SOL    HW129562   4.415   5.346   4.560  1.0012  0.3414  0.4074
 8688SOL    HW229563   4.364   5.299   4.695 -0.6224 -1.4685 -0.7858
 8689SOL     OW29564   3.798   1.062   1.332 -0.0329 -0.0752  0.2978
 8689SOL    HW129565   3.833   1.144   1.368 -1.2683  1.4107 -1.6994
 8689SOL    HW229566   3.875   1.016   1.298  0.3572  2.1600 -2.1421
 8690SOL     OW29567   5.749   5.161   4.083 -0.0962 -0.2111  0.5001
 8690SOL    HW129568   5.746   5.070   4.112  0.4433 -0.6960 -0.9298
 8690SOL    HW229569   5.819   5.201   4.136  0.0148 -0.7553  0.7666
 8691SOL     OW29570   6.870   8.773   2.867 -0.2280 -0.2162  0.1144
 8691SOL    HW129571   6.790   8.795   2.818  0.4550  2.8175  0.1189
 8691SOL    HW229572   6.940   8.818   2.819  1.2476 -1.4898  0.9931
 8692SOL     OW29573   5.697   9.649   9.672  0.0874 -0.0968  0.1298
 8692SOL    HW129574   5.720   9.702   9.748 -0.3121 -0.3363  0.4196
 8692SOL    HW229575   5.707   9.558   9.701 -0.1028 -0.1894 -0.0846
 8693SOL     OW29576   6.420   2.241   1.850 -0.4191 -0.1654  0.0118
 8693SOL    HW129577   6.467   2.160   1.833  0.2863  0.5777 -1.8588
 8693SOL    HW229578   6.332   2.226   1.814 -1.3585 -1.1503  2.4931
 8694SOL     OW29579   2.707   9.502   5.990 -0.3773 -0.5515 -0.0420
 8694SOL    HW129580   2.666   9.450   5.921 -1.6969  1.1489 -0.5923
 8694SOL    HW229581   2.645   9.572   6.008 -0.3446 -1.2183  3.2827
 8695SOL     OW29582   9.227   2.404   5.876  0.0377 -0.0772  0.0717
 8695SOL    HW129583   9.146   2.442   5.910  0.3503 -0.3946  1.2386
 8695SOL    HW229584   9.230   2.316   5.916 -1.4227 -2.0387 -3.6615
 8696SOL     OW29585   8.231   2.105   9.211  0.2493  0.3393 -0.0206
 8696SOL    HW129586   8.268   2.182   9.255  3.1138  0.3536 -2.1592
 8696SOL    HW229587   8.253   2.031   9.267  0.1091  0.7502  0.5869
 8697SOL     OW29588  10.885   3.072  10.726 -0.1124  0.4703  0.8230
 8697SOL    HW129589  10.849   3.004  10.670  1.1920  0.7862 -0.4639
 8697SOL    HW229590  10.960   3.031  10.769  1.7558  1.4509 -1.2591
 8698SOL     OW29591   9.046   3.531   7.318 -0.1501 -0.4270 -0.3147
 8698SOL    HW129592   9.034   3.617   7.277  1.0947  0.2128  0.6051
 8698SOL    HW229593   8.957   3.498   7.332 -0.6402 -0.1934 -2.4903
 8699SOL     OW29594   6.994   9.706   4.660 -0.0766  0.5422 -0.2097
 8699SOL    HW129595   6.971   9.614   4.646 -0.6137  0.3578  1.5567
 8699SOL    HW229596   7.047   9.730   4.585 -0.0593 -1.1744 -0.7771
 8700SOL     OW29597   7.016   8.441   7.749  0.2913 -0.0131 -0.1012
 8700SOL    HW129598   6.989   8.414   7.661 -0.1424  1.2705 -0.3812
 8700SOL    HW229599   6.934   8.463   7.793  0.3115 -2.4238  1.2886
 8701SOL     OW29600   2.184  10.646   1.873  0.1771  0.5188 -0.0289
 8701SOL    HW129601   2.108  10.636   1.816 -0.9352  2.8473  0.9235
 8701SOL    HW229602   2.239  10.570   1.853 -1.7533 -0.5372 -1.6996
 8702SOL     OW29603   4.096   4.289   1.806 -0.1821  0.5624 -0.1476
 8702SOL    HW129604   4.073   4.302   1.898 -0.0138  1.2830 -0.1982
 8702SOL    HW229605   4.192   4.296   1.805 -0.2415  1.5276 -0.5081
 8703SOL     OW29606   3.167   9.531   2.374  0.0842 -0.1863 -0.2891
 8703SOL    HW129607   3.091   9.546   2.317 -0.1432 -2.3609 -0.6536
 8703SOL    HW229608   3.193   9.441   2.355 -0.5627 -1.3742  3.6670
 8704SOL     OW29609   5.613   3.739   9.199  0.4718  0.4389  0.0177
 8704SOL    HW129610   5.612   3.667   9.262 -0.3466 -0.5444 -1.0704
 8704SOL    HW229611   5.653   3.702   9.120 -1.1157  0.7482 -0.9994
 8705SOL     OW29612   1.742  10.374   1.314  0.2055 -0.1089  0.6640
 8705SOL    HW129613   1.783  10.289   1.296  1.4659  0.5100  0.4474
 8705SOL    HW229614   1.723  10.410   1.227 -1.5740 -0.7240  0.7727
 8706SOL     OW29615   3.956   4.490   1.540 -0.3181  0.5183  0.2212
 8706SOL    HW129616   3.931   4.462   1.452  0.0375 -1.2017  0.6429
 8706SOL    HW229617   3.963   4.586   1.533 -2.5024  0.6452 -1.0242
 8707SOL     OW29618   9.379   0.015   2.662 -0.3779 -0.3594 -0.3766
 8707SOL    HW129619   9.380  -0.051   2.592 -1.6046 -1.6667  0.7743
 8707SOL    HW229620   9.450  -0.012   2.720 -0.3279 -0.1404 -0.3342
 8708SOL     OW29621   3.970   6.536   6.548  0.5776 -0.5581  0.2019
 8708SOL    HW129622   3.996   6.448   6.522  2.9038  0.4870 -1.3410
 8708SOL    HW229623   3.877   6.541   6.525  0.1907 -2.7805  1.0156
 8709SOL     OW29624  10.248   4.903   4.124  0.1885  0.2255  0.0168
 8709SOL    HW129625  10.171   4.950   4.092 -0.7243 -1.1941  0.0357
 8709SOL    HW229626  10.242   4.910   4.219 -0.4466 -0.6774  0.0488
 8710SOL     OW29627   8.014   6.757   7.631  0.3200  0.0177 -0.1903
 8710SOL    HW129628   8.053   6.696   7.569 -0.1835 -1.1755  0.6311
 8710SOL    HW229629   7.941   6.797   7.583  0.3013 -0.4512 -0.5574
 8711SOL     OW29630   6.170   1.232   8.411 -0.4287 -0.3746 -0.5006
 8711SOL    HW129631   6.136   1.275   8.489  1.1896  0.4597 -0.2084
 8711SOL    HW229632   6.134   1.283   8.338  0.8809  1.1003 -0.1745
 8712SOL     OW29633  10.901   0.825   2.443  0.1804  0.4165  0.0273
 8712SOL    HW129634  10.985   0.807   2.485  0.8968 -0.6503 -1.7431
 8712SOL    HW229635  10.836   0.805   2.510  1.3122  2.3696  1.8235
 8713SOL     OW29636   7.085  10.290   4.721 -0.1841 -0.6720  0.8234
 8713SOL    HW129637   7.167  10.243   4.738  0.8588  1.2871  1.5348
 8713SOL    HW229638   7.064  10.333   4.804 -0.9098  0.3284  0.1458
 8714SOL     OW29639   8.293   3.407   9.692 -0.0731  0.1895  0.5614
 8714SOL    HW129640   8.267   3.479   9.749  0.6494 -1.4510  3.1255
 8714SOL    HW229641   8.210   3.368   9.663 -0.5344 -0.5477  2.7062
 8715SOL     OW29642  10.297   7.302   6.716  0.3031 -0.5569 -0.2632
 8715SOL    HW129643  10.321   7.390   6.687  0.2066  0.2273  1.8562
 8715SOL    HW229644  10.379   7.264   6.747  0.1572 -0.8071 -0.1843
 8716SOL     OW29645   7.000   1.078   2.591 -0.2210  0.3848  0.1290
 8716SOL    HW129646   6.933   1.022   2.631  1.1253 -0.4740  1.2859
 8716SOL    HW229647   7.021   1.036   2.508 -0.2139 -0.0614  0.3533
 8717SOL     OW29648  10.538   4.169  10.524 -0.6976  0.9385 -0.1004
 8717SOL    HW129649  10.472   4.141  10.460 -0.0234  0.3314 -0.5471
 8717SOL    HW229650  10.557   4.260  10.500 -2.0500  1.4394  0.6292
 8718SOL     OW29651   9.375   8.007   3.224  0.0629  0.4863 -0.5283
 8718SOL    HW129652   9.357   7.941   3.156 -0.6314 -1.3210  1.3205
 8718SOL    HW229653   9.460   7.982   3.259  0.7373  1.8239 -1.1236
 8719SOL     OW29654   7.776  10.294   1.419  0.0519 -0.0689  0.9000
 8719SOL    HW129655   7.849  10.234   1.434 -0.8745 -0.6234  3.7632
 8719SOL    HW229656   7.699  10.238   1.419 -0.6157  0.8258  0.7906
 8720SOL     OW29657   0.488   6.832   2.798 -0.3531 -0.1716 -0.3962
 8720SOL    HW129658   0.475   6.910   2.745  1.5104  1.1639  0.9799
 8720SOL    HW229659   0.411   6.829   2.855 -0.1609  1.0146 -0.0601
 8721SOL     OW29660  10.351   2.072   7.405  0.2193  0.2587 -0.0798
 8721SOL    HW129661  10.342   2.117   7.488 -1.3035 -1.4279  0.7380
 8721SOL    HW229662  10.265   2.079   7.363  0.8883  0.8668 -1.4288
 8722SOL     OW29663   0.210   6.706   3.374  0.1644  0.2469  0.2479
 8722SOL    HW129664   0.273   6.658   3.428  0.3756 -0.3675 -0.5273
 8722SOL    HW229665   0.125   6.676   3.406  0.2893 -1.4332 -0.8635
 8723SOL     OW29666   9.802   5.356   9.767  0.6071  0.1913 -0.1343
 8723SOL    HW129667   9.814   5.344   9.861 -0.1550  0.7129  0.0402
 8723SOL    HW229668   9.829   5.272   9.728 -0.9996 -0.7822  0.7312
 8724SOL     OW29669   3.847   4.588   7.521  0.8449  0.1926 -0.2533
 8724SOL    HW129670   3.784   4.581   7.449 -1.3427 -0.2645  1.5509
 8724SOL    HW229671   3.846   4.501   7.561 -2.4219  1.6595  3.6097
 8725SOL     OW29672   2.947   2.672   2.586  0.0302 -0.6916  0.1696
 8725SOL    HW129673   2.877   2.711   2.534  0.0463 -1.1708 -0.2191
 8725SOL    HW229674   2.969   2.591   2.540 -0.3092 -1.3968  1.2105
 8726SOL     OW29675   3.032   3.269   4.568 -0.1689  0.0938  0.6036
 8726SOL    HW129676   3.083   3.283   4.489  0.9372 -0.4237  1.2000
 8726SOL    HW229677   2.999   3.179   4.559 -1.7571  0.7119 -0.1830
 8727SOL     OW29678   1.679  10.356   2.044 -0.4484 -0.2738  0.2519
 8727SOL    HW129679   1.655  10.270   2.078  1.3677 -1.0986 -0.4622
 8727SOL    HW229680   1.606  10.380   1.987 -0.7903 -1.5307  0.1271
 8728SOL     OW29681   0.477   4.615   3.802  0.1793  0.4336 -0.3839
 8728SOL    HW129682   0.455   4.525   3.779  0.2537  0.3176 -0.0056
 8728SOL    HW229683   0.507   4.655   3.720  1.0507 -0.1512 -0.3561
 8729SOL     OW29684   6.969  10.873   8.395 -0.3681  0.2022 -0.3015
 8729SOL    HW129685   6.933  10.808   8.334  0.5723  0.9914 -1.7434
 8729SOL    HW229686   7.043  10.911   8.349  0.5296  0.6770  1.4545
 8730SOL     OW29687   6.690   9.934   5.652  0.3859 -0.1281  0.3421
 8730SOL    HW129688   6.660   9.998   5.587  1.8014  0.3046  0.0768
 8730SOL    HW229689   6.735   9.867   5.601 -0.2804 -0.8563  0.7038
 8731SOL     OW29690   7.419   5.179   9.809  0.7890  0.1483  0.1454
 8731SOL    HW129691   7.422   5.158   9.716 -0.5131  1.0956 -0.1486
 8731SOL    HW229692   7.510   5.194   9.834  1.1582 -0.1661 -0.9614
 8732SOL     OW29693   0.039   1.876   2.886 -0.4765  0.3913 -0.4976
 8732SOL    HW129694   0.012   1.967   2.899 -1.5549  0.1847 -1.1881
 8732SOL    HW229695   0.126   1.882   2.847 -0.0787  1.0991  0.4481
 8733SOL     OW29696   8.995   6.818   2.776  0.1307 -0.8461  0.0654
 8733SOL    HW129697   9.032   6.870   2.848 -0.7511 -3.0282  2.2059
 8733SOL    HW229698   9.011   6.872   2.698  0.8802  1.7711  1.8736
 8734SOL     OW29699  10.606   5.145   1.215  0.0859 -0.4608  0.6155
 8734SOL    HW129700  10.671   5.176   1.152 -0.5053 -1.2192 -0.3832
 8734SOL    HW229701  10.598   5.051   1.198 -3.5189  0.0317 -1.4652
 8735SOL     OW29702   3.531   6.466   1.074  0.1360 -0.1904  0.0879
 8735SOL    HW129703   3.480   6.408   1.131  1.0218  0.0767  1.1950
 8735SOL    HW229704   3.622   6.444   1.092  0.6036  2.5354  1.7416
 8736SOL     OW29705   1.882   6.345   4.209  0.5747 -0.5868  0.1628
 8736SOL    HW129706   1.849   6.256   4.202  2.3562 -1.2672 -0.1397
 8736SOL    HW229707   1.814   6.399   4.169 -0.5485 -1.7874  0.3839
 8737SOL     OW29708   8.740   3.481   1.986  0.2296 -0.2625 -0.4327
 8737SOL    HW129709   8.689   3.543   2.038 -0.3913 -0.0816 -1.2408
 8737SOL    HW229710   8.722   3.396   2.026  1.4717  0.0989  0.9901
 8738SOL     OW29711   5.142   9.406   0.982 -0.7449 -0.1174 -0.2568
 8738SOL    HW129712   5.196   9.485   0.987  1.6701 -1.7321  0.8013
 8738SOL    HW229713   5.165   9.367   0.898  0.5316 -1.2881  0.5945
 8739SOL     OW29714   2.077   1.819  10.244  0.1393  0.0717 -0.1220
 8739SOL    HW129715   2.001   1.872  10.267 -0.1093 -0.7609  1.0596
 8739SOL    HW229716   2.142   1.882  10.215  0.8659  1.4267  3.9086
 8740SOL     OW29717   6.235   2.313   2.641 -0.2889 -0.1018 -0.5419
 8740SOL    HW129718   6.298   2.341   2.575  0.4305  2.7613  1.1962
 8740SOL    HW229719   6.215   2.393   2.690 -1.9697 -1.7956  1.7178
 8741SOL     OW29720   5.511   3.710   6.051 -0.3428 -0.7079  0.2495
 8741SOL    HW129721   5.548   3.733   6.136  0.0039 -1.0130  0.1796
 8741SOL    HW229722   5.421   3.684   6.070 -0.6462  0.3735  0.3790
 8742SOL     OW29723   7.025   1.020   4.973 -0.5978  0.2792 -0.0666
 8742SOL    HW129724   7.106   1.069   4.958 -0.2749  0.5256  2.0823
 8742SOL    HW229725   7.053   0.940   5.018 -1.2475 -1.3794 -2.4138
 8743SOL     OW29726   7.753   3.723   1.408 -0.5476  0.4219  0.1915
 8743SOL    HW129727   7.777   3.811   1.438 -1.6861  0.8082  0.0098
 8743SOL    HW229728   7.665   3.709   1.444  0.2337 -1.3035  1.5920
 8744SOL     OW29729   4.114   9.645   3.197 -0.2915 -0.2828 -0.6175
 8744SOL    HW129730   4.140   9.661   3.107  0.7251  1.2316 -0.0935
 8744SOL    HW229731   4.025   9.679   3.203  0.5161  2.0012 -0.4780
 8745SOL     OW29732   6.108   0.365   0.095  0.7231 -0.0210  0.4658
 8745SOL    HW129733   6.055   0.307   0.040 -0.9578  1.3429  0.5614
 8745SOL    HW229734   6.170   0.405   0.035  0.0100  0.1937 -0.1399
 8746SOL     OW29735   7.695   0.310   9.604  0.0085 -0.1172  0.4124
 8746SOL    HW129736   7.773   0.328   9.656  0.7726 -0.4755 -0.5616
 8746SOL    HW229737   7.622   0.329   9.662  0.8226  0.0522  1.4075
 8747SOL     OW29738   2.526   1.736   1.954 -0.0113  0.4054  0.2458
 8747SOL    HW129739   2.611   1.692   1.954 -0.2651 -0.1731 -1.5555
 8747SOL    HW229740   2.536   1.809   2.015  1.4848 -0.1677  0.7219
 8748SOL     OW29741   4.941   9.924   9.525  0.7135 -0.4769  0.5971
 8748SOL    HW129742   4.888   9.847   9.501 -1.3568  2.2889 -6.1576
 8748SOL    HW229743   5.029   9.904   9.494  0.4290 -0.6101 -0.1539
 8749SOL     OW29744   7.886   4.445   4.645  0.1635  0.2566  0.8515
 8749SOL    HW129745   7.923   4.432   4.558 -0.6591 -1.3090  0.6955
 8749SOL    HW229746   7.833   4.525   4.636  0.2943  0.2613 -0.0199
 8750SOL     OW29747   0.076   6.474   6.721 -0.0547  0.1049  0.3198
 8750SOL    HW129748   0.026   6.397   6.696 -0.6210  0.5235  0.1337
 8750SOL    HW229749   0.152   6.440   6.767  0.2916 -0.6184 -0.7552
 8751SOL     OW29750   3.954  10.433   7.177 -0.5679 -0.4037  0.1358
 8751SOL    HW129751   3.931  10.346   7.143 -1.2191 -0.3080  0.3102
 8751SOL    HW229752   3.880  10.456   7.234 -1.1746  0.9658 -1.1539
 8752SOL     OW29753   9.965   4.625   5.730  0.1753  0.2218 -0.2168
 8752SOL    HW129754  10.034   4.687   5.755 -0.3116  0.2520  1.1679
 8752SOL    HW229755   9.964   4.627   5.635  0.1599  2.3773 -0.2225
 8753SOL     OW29756   9.437   1.079   8.540 -0.1525  0.4202 -0.3347
 8753SOL    HW129757   9.477   1.110   8.459  0.4614  0.9327  0.1579
 8753SOL    HW229758   9.482   1.127   8.610 -1.3683  0.7298  0.2602
 8754SOL     OW29759   2.824   9.259   4.771  0.4287 -0.1007 -0.6044
 8754SOL    HW129760   2.781   9.223   4.848 -0.8113  0.9615 -0.7580
 8754SOL    HW229761   2.822   9.189   4.706 -1.1422 -0.0759 -0.6139
 8755SOL     OW29762   1.680  10.723   7.959 -0.0623 -0.2643  0.1969
 8755SOL    HW129763   1.596  10.754   7.993  0.7306  0.5250  1.4955
 8755SOL    HW229764   1.743  10.789   7.986  0.8404 -0.2592 -1.7235
 8756SOL     OW29765   8.956  10.868   3.598  0.0473 -0.0895  0.0829
 8756SOL    HW129766   8.993  10.780   3.603  3.7773  1.1284 -2.0739
 8756SOL    HW229767   9.025  10.925   3.631 -0.9189  2.2541 -1.6388
 8757SOL     OW29768   6.503   9.638  10.696 -0.1211 -0.4695  0.6076
 8757SOL    HW129769   6.451   9.717  10.682  0.1264 -0.3075  0.5984
 8757SOL    HW229770   6.498   9.591  10.613  2.5109  1.1715 -0.5942
 8758SOL     OW29771   1.579   1.972   2.687  0.2513 -0.5425  0.2898
 8758SOL    HW129772   1.543   2.061   2.688  1.2429 -0.0565 -2.0578
 8758SOL    HW229773   1.503   1.916   2.701 -0.7570  0.6127 -0.3637
 8759SOL     OW29774  10.214   8.820   7.260 -0.2360  0.0689  0.4687
 8759SOL    HW129775  10.284   8.789   7.317 -1.0166 -0.9439  0.9042
 8759SOL    HW229776  10.216   8.761   7.185 -0.9650 -0.3147  0.7400
 8760SOL     OW29777   1.059   1.861   0.862 -0.3345 -0.3914 -0.0859
 8760SOL    HW129778   1.025   1.950   0.862  0.6472  0.1181  2.8066
 8760SOL    HW229779   1.153   1.871   0.850 -0.1704 -0.9910  0.6125
 8761SOL     OW29780   1.922   4.764   0.431 -0.0019  0.6342 -0.1567
 8761SOL    HW129781   1.833   4.756   0.396 -0.5616  3.3004  0.4303
 8761SOL    HW229782   1.969   4.690   0.393 -2.1063 -0.0621 -1.6159
 8762SOL     OW29783   0.939   2.900   8.756 -0.0910 -0.0655  0.4389
 8762SOL    HW129784   0.883   2.973   8.731 -0.5129 -0.1633  1.0812
 8762SOL    HW229785   1.010   2.941   8.807 -0.8905 -0.2001  1.7060
 8763SOL     OW29786   3.622  10.983   0.449 -0.2048  0.3110  0.4452
 8763SOL    HW129787   3.677  10.970   0.372 -0.4828 -0.8542  0.4239
 8763SOL    HW229788   3.684  10.996   0.521  0.1092 -0.7724  0.3848
 8764SOL     OW29789   0.956   5.755   1.060 -0.6890 -0.4620 -0.0761
 8764SOL    HW129790   0.941   5.703   1.139 -1.6410  0.8508  0.6331
 8764SOL    HW229791   0.965   5.845   1.092 -0.4055  0.0021 -1.4056
 8765SOL     OW29792   9.970   0.440   5.545  0.6330 -0.1601  0.1222
 8765SOL    HW129793  10.000   0.383   5.617 -0.7177  0.0060  0.8620
 8765SOL    HW229794  10.041   0.438   5.482  2.2126  0.2864  1.7939
 8766SOL     OW29795   4.357  10.638   1.892 -0.4364  0.0759 -0.7593
 8766SOL    HW129796   4.387  10.558   1.936  1.6435  1.4505  0.5043
 8766SOL    HW229797   4.264  10.644   1.914 -0.3592 -1.3886  0.1015
 8767SOL     OW29798   9.678   8.587   2.174  0.3196 -0.0255 -0.4538
 8767SOL    HW129799   9.701   8.578   2.266 -0.0225 -1.7932 -0.5078
 8767SOL    HW229800   9.631   8.670   2.170 -2.7100 -1.4464  1.6632
 8768SOL     OW29801   3.225  10.945   3.702 -0.6336 -0.6736 -0.7595
 8768SOL    HW129802   3.167  11.021   3.695 -0.9280 -0.9614 -1.5083
 8768SOL    HW229803   3.174  10.872   3.666 -0.6542 -1.3975  0.6870
 8769SOL     OW29804   4.747   6.416   9.534  0.3595 -0.6310 -0.0917
 8769SOL    HW129805   4.704   6.467   9.465  1.1639 -0.2950 -0.3495
 8769SOL    HW229806   4.837   6.447   9.535  0.2407 -0.2527  1.4768
 8770SOL     OW29807   3.448   6.336   3.932  0.2817  0.2831 -0.2554
 8770SOL    HW129808   3.462   6.282   3.854 -0.8823 -0.4968  0.0435
 8770SOL    HW229809   3.492   6.288   4.002 -1.0878 -0.5386  0.0870
 8771SOL     OW29810   8.303   0.262   5.217 -0.1855 -0.2974  0.6578
 8771SOL    HW129811   8.294   0.302   5.304  1.5867 -0.3015  0.8707
 8771SOL    HW229812   8.383   0.300   5.181  0.6674 -2.4178  0.1885
 8772SOL     OW29813  10.938  10.615   9.260 -0.1025  0.2653 -0.3721
 8772SOL    HW129814  10.920  10.649   9.347  1.7610  2.3210 -0.7056
 8772SOL    HW229815  10.871  10.548   9.246 -0.4888 -0.0875  2.5827
 8773SOL     OW29816  10.616   2.595   3.927 -0.7500 -0.1576 -0.0064
 8773SOL    HW129817  10.550   2.588   3.996 -2.9173 -0.1841 -1.9633
 8773SOL    HW229818  10.602   2.519   3.872  0.7417  0.0017 -0.6659
 8774SOL     OW29819   3.930   3.467   4.554  0.0635  0.1213  0.5825
 8774SOL    HW129820   3.945   3.559   4.574 -2.0592  0.6953 -0.3025
 8774SOL    HW229821   3.850   3.465   4.503  0.7158 -2.1166 -0.5005
 8775SOL     OW29822   9.491  10.967   3.683 -0.0807  0.6676  0.2957
 8775SOL    HW129823   9.470  11.047   3.731 -0.9013  0.1804  0.7719
 8775SOL    HW229824   9.499  10.995   3.592 -1.3640  1.1274  0.3102
 8776SOL     OW29825   0.701   2.720   3.626 -0.5575 -0.2540  0.8191
 8776SOL    HW129826   0.734   2.631   3.620  0.0199 -0.0227  0.4493
 8776SOL    HW229827   0.656   2.724   3.710  0.4969 -0.5390  1.4044
 8777SOL     OW29828   3.771   7.889   4.894 -0.0345  0.1538  0.1414
 8777SOL    HW129829   3.703   7.900   4.960 -0.7143  0.9160 -0.6644
 8777SOL    HW229830   3.853   7.905   4.941 -0.5964  2.6137  0.4222
 8778SOL     OW29831   8.054   6.999   0.807  0.0053  0.6306 -0.2984
 8778SOL    HW129832   8.096   7.038   0.884 -0.2840  0.4975 -0.0707
 8778SOL    HW229833   8.114   6.930   0.779 -0.4863 -0.1778  0.5791
 8779SOL     OW29834  10.061   3.588   9.055  0.2482 -0.4253 -0.8118
 8779SOL    HW129835  10.119   3.664   9.054 -1.8126  1.2241 -1.1179
 8779SOL    HW229836  10.059   3.557   8.965  1.1752 -0.9584 -0.6656
 8780SOL     OW29837   7.547   8.129   9.217 -0.0087  0.0169  0.1403
 8780SOL    HW129838   7.629   8.113   9.172 -0.6025  0.2283 -1.0530
 8780SOL    HW229839   7.530   8.223   9.205  0.2932  0.3101  1.6665
 8781SOL     OW29840   3.329   6.008   7.082 -0.5023  0.4964  0.1050
 8781SOL    HW129841   3.366   6.063   7.151  2.2354 -2.2002  1.0264
 8781SOL    HW229842   3.376   6.033   7.003 -1.2837  1.3575 -0.0945
 8782SOL     OW29843   0.904   3.134   3.859 -0.0189  0.8878  0.0833
 8782SOL    HW129844   0.858   3.051   3.872 -1.4897  1.7517  0.5978
 8782SOL    HW229845   0.856   3.197   3.912  1.8440  1.8421  0.7369
 8783SOL     OW29846   1.942   4.749   4.565 -0.5314 -0.1171 -0.0289
 8783SOL    HW129847   1.909   4.768   4.477 -1.5239 -0.3106  0.2833
 8783SOL    HW229848   1.877   4.790   4.624  0.6628  0.9358  0.6212
 8784SOL     OW29849   6.983   5.452   9.778  0.3581  0.2154 -0.2777
 8784SOL    HW129850   6.980   5.364   9.814  0.3068  1.3600  2.8334
 8784SOL    HW229851   7.074   5.464   9.751  0.8902 -0.1165  1.2714
 8785SOL     OW29852  11.005   5.694   3.392  0.2225  0.4532 -0.1666
 8785SOL    HW129853  10.986   5.614   3.440  0.4741  0.2860 -0.3466
 8785SOL    HW229854  10.992   5.671   3.300  1.6776  0.2245 -0.3290
 8786SOL     OW29855  10.186   1.197   9.951 -0.0765  0.1057 -0.3671
 8786SOL    HW129856  10.117   1.245   9.998  1.2934  0.8724  0.9681
 8786SOL    HW229857  10.197   1.117  10.002  0.2188  0.1315 -0.3920
 8787SOL     OW29858   1.893  10.842   4.481 -0.1908  0.0226 -0.0413
 8787SOL    HW129859   1.862  10.929   4.504  1.7980  1.1061 -1.1566
 8787SOL    HW229860   1.921  10.804   4.565  1.0093  1.3820  0.2224
 8788SOL     OW29861   1.257   0.328   1.861  0.0395 -0.3827 -0.1636
 8788SOL    HW129862   1.202   0.376   1.923  0.1721 -0.4545  0.0103
 8788SOL    HW229863   1.331   0.297   1.913  1.0009  0.9556 -0.6798
 8789SOL     OW29864   1.096   2.547   3.964  0.1004 -0.0668 -0.2037
 8789SOL    HW129865   1.077   2.626   3.913  1.4998  0.3528 -0.1264
 8789SOL    HW229866   1.031   2.548   4.035 -0.2612  0.7039 -0.5347
 8790SOL     OW29867   7.225   0.891   1.598  0.7356  0.3451 -0.2847
 8790SOL    HW129868   7.252   0.955   1.664  0.7946  0.0191  0.0085
 8790SOL    HW229869   7.165   0.833   1.645  1.2258 -0.2351 -0.3670
 8791SOL     OW29870   6.560   0.522   4.913  0.6184 -0.0149 -0.5695
 8791SOL    HW129871   6.626   0.533   4.844  3.7375  1.1431  2.3271
 8791SOL    HW229872   6.611   0.508   4.993 -2.6717  1.1207  1.9354
 8792SOL     OW29873  10.376   4.098   2.579 -0.2638  0.2864  0.4475
 8792SOL    HW129874  10.304   4.161   2.580 -0.6600 -0.1432 -0.1383
 8792SOL    HW229875  10.405   4.094   2.670 -2.1199 -0.7963  1.0700
 8793SOL     OW29876   8.230   5.786  10.386  0.4504 -0.7120 -0.4032
 8793SOL    HW129877   8.157   5.724  10.396  0.1942 -0.1974  1.2489
 8793SOL    HW229878   8.261   5.800  10.475  0.6297  1.3992 -0.7564
 8794SOL     OW29879   5.979   8.439   3.317  0.6061  0.3026  0.3380
 8794SOL    HW129880   6.061   8.484   3.338 -0.2701  2.3764 -0.3170
 8794SOL    HW229881   5.986   8.354   3.359  2.6711  0.8004  1.1311
 8795SOL     OW29882   5.533   3.195  10.530 -0.6773 -0.0842  0.0686
 8795SOL    HW129883   5.555   3.287  10.540 -0.7527  0.4688 -3.5206
 8795SOL    HW229884   5.442   3.189  10.558 -1.2035  1.3659 -1.1843
 8796SOL     OW29885   3.762   9.396   4.499  0.6559 -0.3866 -0.2063
 8796SOL    HW129886   3.747   9.353   4.583  2.0251 -0.8512 -0.1805
 8796SOL    HW229887   3.775   9.325   4.437 -0.9777 -0.0665 -0.9765
 8797SOL     OW29888   8.005   4.764   4.685  0.4556 -0.2113  0.2409
 8797SOL    HW129889   7.989   4.852   4.719  0.5908 -0.0934  0.0043
 8797SOL    HW229890   8.021   4.710   4.763 -0.6958 -0.2617  0.4657
 8798SOL     OW29891   1.357   5.078   5.586 -0.2190 -0.1634  0.3060
 8798SOL    HW129892   1.321   5.133   5.516 -1.7864  0.9013  1.8672
 8798SOL    HW229893   1.449   5.067   5.562 -0.5377  0.7110 -1.5657
 8799SOL     OW29894   9.298   1.505   0.661  0.5902  0.0038 -0.0561
 8799SOL    HW129895   9.221   1.449   0.666  1.2339 -0.8390  0.6955
 8799SOL    HW229896   9.268   1.590   0.695 -0.1372 -0.1533 -0.2901
 8800SOL     OW29897   3.284   2.312   0.956 -0.4341  0.2180  0.3537
 8800SOL    HW129898   3.195   2.307   0.919 -0.6852  3.4638  0.2022
 8800SOL    HW229899   3.336   2.253   0.901 -2.2303 -0.7322 -0.4086
 8801SOL     OW29900   5.369   6.631   8.050  0.4622  0.2745  0.2961
 8801SOL    HW129901   5.404   6.632   7.961  0.6880 -0.2181  0.3740
 8801SOL    HW229902   5.360   6.538   8.071  1.1474  0.3667  1.0670
 8802SOL     OW29903   6.622   4.767   0.127 -0.1078  0.1005 -0.0208
 8802SOL    HW129904   6.530   4.740   0.135 -0.1538  0.5013  0.8785
 8802SOL    HW229905   6.654   4.719   0.050 -0.7976 -0.7969  0.2304
 8803SOL     OW29906   3.262  10.836   2.126 -0.3656  0.6650  0.5930
 8803SOL    HW129907   3.257  10.924   2.087  1.2279  1.4193  1.9552
 8803SOL    HW229908   3.221  10.779   2.061 -2.1517  2.4855 -0.0148
 8804SOL     OW29909   7.810   4.260   2.966 -0.0985 -0.4194  0.1988
 8804SOL    HW129910   7.869   4.242   3.039 -1.9379  0.3524  1.9689
 8804SOL    HW229911   7.862   4.240   2.888  1.3914 -3.0078  1.7080
 8805SOL     OW29912   2.528   4.567  10.172  0.8916 -0.1210  0.2751
 8805SOL    HW129913   2.466   4.501  10.141  0.1656  0.6993 -0.0597
 8805SOL    HW229914   2.595   4.517  10.219  0.4445 -1.1041 -0.1096
 8806SOL     OW29915   2.074   8.010  10.589 -0.0543  0.0991 -0.1016
 8806SOL    HW129916   2.045   8.012  10.498 -0.1358  0.8405 -0.0733
 8806SOL    HW229917   2.019   8.075  10.633  0.2962  0.0837  0.3748
 8807SOL     OW29918  10.623   3.309  10.329 -0.7349 -0.0461 -0.0905
 8807SOL    HW129919  10.565   3.384  10.317  0.1948  0.7367  0.1096
 8807SOL    HW229920  10.671   3.302  10.246 -0.1158  0.2197  0.2345
 8808SOL     OW29921   6.341   5.302   6.113 -0.2655  0.3400  0.0945
 8808SOL    HW129922   6.285   5.315   6.037 -1.1280 -1.1816  0.4264
 8808SOL    HW229923   6.304   5.225   6.157  2.2713 -0.9822  0.1208
 8809SOL     OW29924   8.469   9.142   9.991 -0.0041 -0.7200 -0.0365
 8809SOL    HW129925   8.534   9.183   9.934 -0.3637  0.9536  0.6707
 8809SOL    HW229926   8.385   9.160   9.948 -0.2299  0.0566  0.6846
 8810SOL     OW29927   2.940   0.382   1.035  0.5300  0.2284 -0.1630
 8810SOL    HW129928   2.880   0.456   1.045  1.8026  1.4427 -1.1575
 8810SOL    HW229929   2.920   0.325   1.110 -1.5811  0.7587 -0.2682
 8811SOL     OW29930   3.537  10.808   8.400 -0.5031  0.8865 -0.4451
 8811SOL    HW129931   3.629  10.790   8.380 -0.4534  0.6762 -0.0444
 8811SOL    HW229932   3.488  10.738   8.357 -0.3467  0.0362  0.7074
 8812SOL     OW29933   4.390   7.664   1.689  0.0768 -0.1252  0.1955
 8812SOL    HW129934   4.404   7.570   1.698 -1.1332 -0.4577 -1.0882
 8812SOL    HW229935   4.392   7.679   1.594  0.6004  1.2113  0.3968
 8813SOL     OW29936   7.550   0.212   0.318 -0.3345  0.2042  0.0662
 8813SOL    HW129937   7.524   0.121   0.306  0.4723 -0.3073  1.7845
 8813SOL    HW229938   7.563   0.220   0.413  0.1395  1.9622 -0.1189
 8814SOL     OW29939   0.816   2.545   8.220  0.1578 -0.0877 -0.7927
 8814SOL    HW129940   0.724   2.557   8.195  0.2929  1.3618 -0.6701
 8814SOL    HW229941   0.821   2.576   8.310  1.1552  1.8099 -1.4605
 8815SOL     OW29942   9.618   2.655   9.762  0.0361  0.1936  0.2757
 8815SOL    HW129943   9.647   2.617   9.679  2.7428  0.2788  1.0813
 8815SOL    HW229944   9.642   2.589   9.828 -0.6576  0.7799  1.1336
 8816SOL     OW29945   9.505   6.020   9.453  0.3132 -0.3194  0.1411
 8816SOL    HW129946   9.444   5.953   9.485  0.6259 -0.4974  0.3694
 8816SOL    HW229947   9.493   6.019   9.358 -0.1962 -0.2016  0.2038
 8817SOL     OW29948   5.952   3.938   7.524 -1.0963  0.0108 -0.6291
 8817SOL    HW129949   6.008   3.981   7.459  1.3832 -0.8056  0.8319
 8817SOL    HW229950   5.869   3.985   7.518 -0.0326  1.8596 -2.3370
 8818SOL     OW29951   4.185   6.690   1.110 -0.0562 -0.0616  0.1551
 8818SOL    HW129952   4.242   6.741   1.053  1.2571 -0.8449  0.7422
 8818SOL    HW229953   4.152   6.754   1.173  0.6288  0.2990  0.1573
 8819SOL     OW29954  10.075   7.325   6.874 -0.4820  0.8001  0.7330
 8819SOL    HW129955  10.033   7.397   6.826  0.0157  1.2029  0.8902
 8819SOL    HW229956  10.154   7.306   6.824 -1.9765 -1.5542 -0.9018
 8820SOL     OW29957   2.232   0.389   4.621  0.2477 -0.3611 -0.2552
 8820SOL    HW129958   2.273   0.467   4.583  0.1069 -0.5279 -0.7592
 8820SOL    HW229959   2.157   0.372   4.564 -1.5104  0.8911  1.5722
 8821SOL     OW29960   0.715   6.308   8.384 -0.3819 -0.1517 -0.1425
 8821SOL    HW129961   0.680   6.321   8.472 -0.6765 -0.0397 -0.2752
 8821SOL    HW229962   0.800   6.352   8.385 -0.2888 -0.3335  0.1485
 8822SOL     OW29963   2.254   7.335   7.562  0.0965  0.1764  0.2123
 8822SOL    HW129964   2.177   7.390   7.546  0.1912  0.7032  1.4240
 8822SOL    HW229965   2.254   7.272   7.490 -1.3186  0.3380  0.0334
 8823SOL     OW29966   2.491   5.301   7.686  0.6479 -0.5071 -0.2492
 8823SOL    HW129967   2.450   5.325   7.769  2.1688 -0.5995  0.5722
 8823SOL    HW229968   2.448   5.358   7.622  0.1127  0.2651  0.7476
 8824SOL     OW29969  10.101   0.129  10.108  0.0303 -0.1755 -0.1379
 8824SOL    HW129970  10.028   0.117  10.168  0.3073 -1.7972 -0.0985
 8824SOL    HW229971  10.176   0.147  10.165  0.1053 -0.7899 -0.0341
 8825SOL     OW29972   6.108   8.452   9.324 -0.1044 -0.0182  0.3464
 8825SOL    HW129973   6.069   8.441   9.411 -2.0025 -0.4590 -0.4971
 8825SOL    HW229974   6.185   8.396   9.325 -0.1360 -0.0634  1.7322
 8826SOL     OW29975   0.518   7.283   6.673  0.0042  0.3386  0.8510
 8826SOL    HW129976   0.554   7.206   6.628 -0.1743  0.1779  0.9772
 8826SOL    HW229977   0.567   7.357   6.639 -0.8725  0.3546 -0.4362
 8827SOL     OW29978   8.202   3.621   1.520  0.4428 -0.0568  0.3064
 8827SOL    HW129979   8.126   3.626   1.461 -0.5887 -1.4775  1.4341
 8827SOL    HW229980   8.191   3.696   1.579 -0.8373 -0.9536  1.2646
 8828SOL     OW29981   6.164   8.579   3.993  0.0456 -0.3620  0.3311
 8828SOL    HW129982   6.219   8.588   4.071  0.3954  1.5760 -0.0774
 8828SOL    HW229983   6.225   8.587   3.920 -0.6443  1.1634 -0.1260
 8829SOL     OW29984   7.151  10.502   7.705  0.2993  0.0522  0.5655
 8829SOL    HW129985   7.082  10.550   7.660 -1.1889 -1.6179  0.9488
 8829SOL    HW229986   7.166  10.552   7.786  0.6546  1.2552 -0.2208
 8830SOL     OW29987   4.162   1.641  10.808  0.0189  0.0977  0.2078
 8830SOL    HW129988   4.104   1.636  10.884  1.3253 -1.1044  1.1782
 8830SOL    HW229989   4.196   1.730  10.809 -0.3750  0.2438  0.7370
 8831SOL     OW29990   6.041   9.938   1.784 -0.3263 -0.2350 -0.5496
 8831SOL    HW129991   5.960   9.904   1.821 -0.6212 -0.0992 -1.0664
 8831SOL    HW229992   6.094   9.962   1.860 -0.2906 -1.4335 -0.1741
 8832SOL     OW29993   1.458   3.403   6.123  0.0879 -0.0383 -0.2468
 8832SOL    HW129994   1.486   3.478   6.176  0.0495  1.3631 -2.0935
 8832SOL    HW229995   1.526   3.337   6.136  0.0725  0.2386  1.4957
 8833SOL     OW29996   4.112   9.471   1.007  0.1539  0.1128  0.1516
 8833SOL    HW129997   4.169   9.473   0.930 -0.9758  0.8240 -0.7167
 8833SOL    HW229998   4.029   9.435   0.973 -0.9542  2.1247  0.5697
 8834SOL     OW29999   3.096   9.752   2.730 -0.1116 -0.7651  0.1618
 8834SOL    HW130000   3.119   9.669   2.688  0.3769 -0.7964  0.4821
 8834SOL    HW230001   3.081   9.729   2.821  0.6073 -0.4111  0.3736
 8835SOL     OW30002   3.217   2.335   3.351 -0.1244 -0.1470 -0.4927
 8835SOL    HW130003   3.266   2.385   3.417  0.3554 -1.4591  0.1897
 8835SOL    HW230004   3.126   2.340   3.380 -0.5480  2.6140 -1.9688
 8836SOL     OW30005   6.047   9.000   3.451  0.1050 -0.0819 -0.0343
 8836SOL    HW130006   5.954   8.981   3.456  0.3273 -0.8705  2.0067
 8836SOL    HW230007   6.081   8.976   3.537  1.8077  2.2794  0.0595
 8837SOL     OW30008   8.568   0.013   0.991  0.1784 -0.3842  0.2535
 8837SOL    HW130009   8.526   0.065   0.922 -0.2068 -1.0517 -0.0304
 8837SOL    HW230010   8.640   0.067   1.022  0.2985 -0.0342 -0.6161
 8838SOL     OW30011   6.672   7.931   9.010 -0.0582  0.0887  0.0608
 8838SOL    HW130012   6.746   7.984   8.980  0.3368 -0.2896  0.3583
 8838SOL    HW230013   6.703   7.891   9.091 -0.0561 -1.2489 -0.5876
 8839SOL     OW30014   7.748   2.517   1.831 -0.3980  0.4061  0.2091
 8839SOL    HW130015   7.733   2.600   1.786  0.0301  0.9108  0.9811
 8839SOL    HW230016   7.783   2.542   1.916  0.6967 -0.6013  0.0781
 8840SOL     OW30017   5.481   7.263   2.700 -0.9000 -0.0317 -0.4022
 8840SOL    HW130018   5.410   7.200   2.698 -0.1960 -0.9445  1.1792
 8840SOL    HW230019   5.561   7.210   2.702 -0.2389  0.9276 -0.4450
 8841SOL     OW30020   6.686   8.821   7.232  0.5599  0.1261  0.0793
 8841SOL    HW130021   6.673   8.824   7.326  0.3011  1.8687  0.0328
 8841SOL    HW230022   6.743   8.746   7.217  0.7814 -0.0375  1.6366
 8842SOL     OW30023   1.167   4.627   6.584 -0.3509 -0.1095 -0.0687
 8842SOL    HW130024   1.098   4.694   6.577 -0.3646 -0.3001 -2.5031
 8842SOL    HW230025   1.132   4.564   6.647 -1.8852  0.3862 -0.3692
 8843SOL     OW30026   0.475   3.591   4.155  0.1314  0.0415  0.1988
 8843SOL    HW130027   0.557   3.574   4.201  0.1878 -2.2451 -0.6089
 8843SOL    HW230028   0.407   3.566   4.218  0.1326 -0.3223  0.0589
 8844SOL     OW30029   5.226  10.273   3.918  0.4615 -0.0540  0.0546
 8844SOL    HW130030   5.192  10.213   3.984  0.7714 -1.6490 -1.1744
 8844SOL    HW230031   5.316  10.289   3.944  0.4645 -0.3619  0.2358
 8845SOL     OW30032   3.558   5.721   8.033 -0.3141 -0.7648 -0.1950
 8845SOL    HW130033   3.588   5.754   8.118  1.1686 -0.6560 -0.7190
 8845SOL    HW230034   3.637   5.686   7.992 -0.6991  0.4449 -2.0915
 8846SOL     OW30035   2.591   7.720  10.926  0.7465  0.7306  0.0915
 8846SOL    HW130036   2.534   7.789  10.892  0.6872  0.5125 -0.2498
 8846SOL    HW230037   2.655   7.767  10.980 -1.1702  0.7967  2.4765
 8847SOL     OW30038   9.371   5.165   1.670  0.1187  0.6152 -0.6641
 8847SOL    HW130039   9.295   5.203   1.624 -0.6509  0.3799  0.3750
 8847SOL    HW230040   9.410   5.239   1.716 -0.2406  0.5159 -0.1879
 8848SOL     OW30041   9.876   4.522   2.804 -0.2508 -0.1988 -0.0952
 8848SOL    HW130042   9.938   4.478   2.863 -0.8841  0.9754  1.4880
 8848SOL    HW230043   9.791   4.486   2.827 -0.6520  1.1308  0.5549
 8849SOL     OW30044   3.350   5.748   6.783  0.1642 -0.3491  0.0726
 8849SOL    HW130045   3.302   5.704   6.854  1.9072 -1.7531  0.4504
 8849SOL    HW230046   3.330   5.697   6.705 -1.0924  0.7124 -0.3499
 8850SOL     OW30047   0.485   8.991   2.286 -0.2440 -0.0045  0.1675
 8850SOL    HW130048   0.578   9.006   2.270 -0.3234  0.3987  0.0746
 8850SOL    HW230049   0.465   9.043   2.363 -0.4097 -0.0332  0.1443
 8851SOL     OW30050  10.280  10.960  10.877  0.2675  0.5917 -0.3691
 8851SOL    HW130051  10.334  10.977  10.954 -2.1900 -1.6632  2.0443
 8851SOL    HW230052  10.258  11.047  10.843  2.1981  1.6196  0.8371
 8852SOL     OW30053   8.541   2.834   3.010 -0.0422  0.3192  0.0961
 8852SOL    HW130054   8.449   2.847   3.035 -0.2228  0.3317 -0.5397
 8852SOL    HW230055   8.552   2.892   2.934  0.7013  0.8745  0.6140
 8853SOL     OW30056   7.511   5.426   2.647  0.1608 -0.8651  0.1290
 8853SOL    HW130057   7.560   5.505   2.672  0.3477 -0.7331 -0.6157
 8853SOL    HW230058   7.453   5.409   2.721  0.0932 -0.0049  0.2844
 8854SOL     OW30059   4.279   6.797   0.863  0.1959  0.2150  0.1876
 8854SOL    HW130060   4.333   6.752   0.799  0.7206 -1.7696  1.9209
 8854SOL    HW230061   4.334   6.868   0.895 -0.3591  1.7452 -2.0324
 8855SOL     OW30062   6.474   1.644   7.161 -0.3376 -0.6043 -0.1803
 8855SOL    HW130063   6.530   1.677   7.090 -0.6649 -0.1833 -0.2486
 8855SOL    HW230064   6.525   1.574   7.201 -0.2588 -1.0397 -1.0095
 8856SOL     OW30065   1.417   5.002  10.812  0.0925  0.6792 -0.2385
 8856SOL    HW130066   1.402   4.912  10.783 -0.4771  0.8526 -0.4961
 8856SOL    HW230067   1.466   5.043  10.740 -3.3582  1.7986 -2.1866
 8857SOL     OW30068   1.752   0.912   2.656  0.2548 -0.2877  0.9671
 8857SOL    HW130069   1.669   0.959   2.656  1.2085  1.4489  0.7192
 8857SOL    HW230070   1.758   0.873   2.569  1.3664  2.7264 -0.4216
 8858SOL     OW30071   9.438   3.487   7.908 -0.8826 -0.4892  0.6166
 8858SOL    HW130072   9.344   3.494   7.923 -1.2102 -1.6906 -0.6676
 8858SOL    HW230073   9.450   3.511   7.816  0.4551  2.2691  1.3782
 8859SOL     OW30074   9.045   5.382   9.713 -0.0115 -0.0264  0.0880
 8859SOL    HW130075   9.097   5.334   9.778 -0.6726 -0.8227  0.0402
 8859SOL    HW230076   8.954   5.370   9.741 -0.3724 -0.9964 -1.3559
 8860SOL     OW30077   5.703   2.201   6.888  0.2095 -0.3688 -0.1012
 8860SOL    HW130078   5.774   2.205   6.951  0.2305 -0.3966 -0.1231
 8860SOL    HW230079   5.711   2.281   6.835 -0.8392  0.5267  1.0398
 8861SOL     OW30080   9.934   4.584   9.198  0.3252 -0.4646  0.1382
 8861SOL    HW130081   9.946   4.536   9.115 -1.3371 -1.0793  0.2097
 8861SOL    HW230082   9.939   4.516   9.265  0.3773 -0.1612  0.4390
 8862SOL     OW30083   6.454   2.087  10.927 -0.5612  0.3657  0.1864
 8862SOL    HW130084   6.489   2.143  10.858 -0.4166  1.1250  0.8645
 8862SOL    HW230085   6.381   2.136  10.964 -1.9057 -0.8657 -0.6951
 8863SOL     OW30086   0.800  10.760   5.315 -0.5082  0.0378  0.8333
 8863SOL    HW130087   0.833  10.809   5.390  0.0410 -0.0756  0.6697
 8863SOL    HW230088   0.870  10.697   5.295 -0.7447 -0.0771  0.3644
 8864SOL     OW30089   1.131   4.837  10.632  0.2211  0.1451 -0.6431
 8864SOL    HW130090   1.194   4.792  10.688  0.2994  0.8559 -0.1571
 8864SOL    HW230091   1.074   4.767  10.600  2.4106 -0.8356 -2.6874
 8865SOL     OW30092   9.186   7.784   5.331 -0.2521  0.6145 -0.1462
 8865SOL    HW130093   9.235   7.777   5.250  1.9822  0.4023  1.1267
 8865SOL    HW230094   9.179   7.878   5.348  0.2948  0.6397 -0.0359
 8866SOL     OW30095   9.229   1.124   2.572 -0.0077 -0.0725 -0.8224
 8866SOL    HW130096   9.258   1.169   2.492 -0.1604  0.6190 -0.4883
 8866SOL    HW230097   9.184   1.045   2.539 -0.7903  0.6160 -1.4571
 8867SOL     OW30098   7.399   8.183   5.806  0.7608  0.5670  0.3082
 8867SOL    HW130099   7.370   8.271   5.830 -1.5673  0.1787 -0.7578
 8867SOL    HW230100   7.447   8.152   5.882  0.9469  2.4516  1.0150
 8868SOL     OW30101   3.767   9.857   8.572  0.0935 -0.3974 -0.4968
 8868SOL    HW130102   3.843   9.819   8.528 -0.3426 -0.8453 -0.8814
 8868SOL    HW230103   3.703   9.871   8.502 -2.0700 -4.5592  0.2737
 8869SOL     OW30104   4.166   8.393   3.040  0.1976 -0.2334 -0.0328
 8869SOL    HW130105   4.146   8.463   3.101 -0.4814 -1.3263  1.0546
 8869SOL    HW230106   4.170   8.314   3.094  1.6159 -0.9512 -1.1177
 8870SOL     OW30107   6.156   2.283   1.630  0.1431 -0.4148 -0.7612
 8870SOL    HW130108   6.156   2.378   1.616 -1.3938 -0.2351  0.2223
 8870SOL    HW230109   6.153   2.246   1.542 -0.6153  0.4951 -1.1376
 8871SOL     OW30110   9.016   7.555   9.091 -0.2542  0.5414 -0.1931
 8871SOL    HW130111   9.050   7.551   9.180  1.4555 -0.3594 -0.8361
 8871SOL    HW230112   8.927   7.589   9.100 -0.5631 -0.7032  1.9516
 8872SOL     OW30113  10.163   6.706   0.527  0.0295 -0.2068 -1.1680
 8872SOL    HW130114  10.214   6.744   0.598 -0.1656  0.3119 -1.3052
 8872SOL    HW230115  10.109   6.778   0.494 -1.6644 -0.9802 -0.2636
 8873SOL     OW30116   0.925   4.921   4.344 -0.5753 -0.2946  0.0551
 8873SOL    HW130117   0.844   4.870   4.338  0.0762 -1.4640  0.8760
 8873SOL    HW230118   0.928   4.951   4.435  0.5789 -1.4303  0.4158
 8874SOL     OW30119   2.830   9.413   0.182  0.3634  0.6443 -0.2330
 8874SOL    HW130120   2.837   9.331   0.230  0.8225 -0.8735 -2.7278
 8874SOL    HW230121   2.738   9.436   0.186  0.1060 -0.3718 -0.0685
 8875SOL     OW30122  10.827   5.267   4.944 -0.1469 -0.1157  0.2804
 8875SOL    HW130123  10.902   5.310   4.902 -0.0678  0.1235  0.6703
 8875SOL    HW230124  10.812   5.317   5.024 -0.8465 -0.0472  0.1104
 8876SOL     OW30125   2.971   4.672   0.121 -0.2657  0.0790 -0.2764
 8876SOL    HW130126   3.035   4.606   0.148  0.4173  1.6892  2.4526
 8876SOL    HW230127   2.890   4.645   0.164 -0.2207  0.4779  0.0665
 8877SOL     OW30128   4.026   9.245   7.608  0.2131  0.1464  0.0595
 8877SOL    HW130129   3.996   9.154   7.599 -1.0585  0.6450 -1.2143
 8877SOL    HW230130   4.111   9.246   7.565  0.4803 -0.5450  0.5496
 8878SOL     OW30131   6.464   6.362   6.474 -0.4366 -0.2570 -0.4662
 8878SOL    HW130132   6.548   6.328   6.443  0.3736  0.3533  0.9508
 8878SOL    HW230133   6.414   6.381   6.394  0.8187 -0.5110 -1.3318
 8879SOL     OW30134   7.306  10.657   5.182 -0.4313  0.3721 -0.0659
 8879SOL    HW130135   7.386  10.619   5.148 -0.5617  0.0297  0.0064
 8879SOL    HW230136   7.238  10.632   5.119 -0.7756 -0.7473  0.7244
 8880SOL     OW30137   7.133   8.986   9.674 -0.3426 -0.7262  0.1377
 8880SOL    HW130138   7.174   8.901   9.658 -1.3189 -1.3026  0.6182
 8880SOL    HW230139   7.140   9.032   9.591  3.0777  0.0205  0.6667
 8881SOL     OW30140   2.501   9.251   2.716  0.1789  0.1429  0.3971
 8881SOL    HW130141   2.462   9.167   2.692  0.0792 -0.4070  2.3412
 8881SOL    HW230142   2.574   9.261   2.654 -0.8885 -0.4755 -1.0319
 8882SOL     OW30143   8.850   6.352   4.945 -0.4128 -0.2207 -0.1888
 8882SOL    HW130144   8.895   6.272   4.971  1.2187  0.7303  0.0468
 8882SOL    HW230145   8.758   6.326   4.934 -0.7152 -1.3057  3.6526
 8883SOL     OW30146   9.352   8.297   6.937  0.2538  0.3023 -0.2114
 8883SOL    HW130147   9.293   8.304   6.861 -3.1744 -0.4763  2.1720
 8883SOL    HW230148   9.409   8.223   6.916 -0.7836 -0.0807 -1.9163
 8884SOL     OW30149   6.147   9.013   9.768 -0.2167 -0.1345 -0.1878
 8884SOL    HW130150   6.220   9.028   9.828 -0.6644  1.6546 -0.0187
 8884SOL    HW230151   6.080   8.971   9.821  0.0480 -0.2029  0.0960
 8885SOL     OW30152   0.189   6.092   3.852  0.2091  0.3967  0.1963
 8885SOL    HW130153   0.196   5.996   3.853  1.1565  0.4568  1.0598
 8885SOL    HW230154   0.245   6.119   3.778 -0.3708  0.2768 -0.2960
 8886SOL     OW30155   2.117  10.061   7.178  0.0605  0.6872  0.2262
 8886SOL    HW130156   2.154  10.142   7.143 -1.5920  0.5994 -1.9219
 8886SOL    HW230157   2.139  10.063   7.271  1.6863  2.6578 -0.1276
 8887SOL     OW30158   5.082   5.450   3.935  0.3067  0.1766  0.3492
 8887SOL    HW130159   5.012   5.482   3.879  0.3746  0.9106  0.6732
 8887SOL    HW230160   5.038   5.393   3.998  0.1532 -0.1885 -0.0837
 8888SOL     OW30161   5.436   6.786   0.866 -0.2833  0.0914 -1.0183
 8888SOL    HW130162   5.496   6.790   0.791  0.7260  0.1351 -0.2314
 8888SOL    HW230163   5.361   6.840   0.839 -0.6799 -1.1647 -2.6075
 8889SOL     OW30164  10.529   7.543   1.204  0.3642  0.2385  0.2089
 8889SOL    HW130165  10.554   7.603   1.134 -1.5738  1.6295  0.6428
 8889SOL    HW230166  10.494   7.466   1.158 -1.4914  1.3999 -0.4273
 8890SOL     OW30167   8.978   0.964   1.509 -0.4781  0.0297 -0.2312
 8890SOL    HW130168   8.903   0.908   1.492  1.2865 -1.9109 -2.1811
 8890SOL    HW230169   9.027   0.965   1.427  1.7058  1.1035  0.9893
 8891SOL     OW30170   6.521   5.657   9.732 -0.6934 -0.3157  0.0364
 8891SOL    HW130171   6.577   5.724   9.693  0.3489 -1.4893 -0.5575
 8891SOL    HW230172   6.510   5.685   9.822  2.4262 -0.9520  0.7275
 8892SOL     OW30173   3.847  10.871   4.672  0.2220  0.1161 -0.0676
 8892SOL    HW130174   3.910  10.819   4.623 -0.6214 -0.8782 -0.1375
 8892SOL    HW230175   3.896  10.904   4.748  1.5796  1.7756 -1.5687
 8893SOL     OW30176   1.048   6.457   0.262 -0.1756 -0.0302 -0.7642
 8893SOL    HW130177   1.026   6.394   0.331 -1.6402  0.6756 -0.5354
 8893SOL    HW230178   0.969   6.511   0.253  0.6647  1.0995 -1.6893
 8894SOL     OW30179   0.075   8.986  10.035 -0.6136  0.5977  0.6014
 8894SOL    HW130180   0.034   8.932  10.103 -1.7207  1.0730  0.3207
 8894SOL    HW230181   0.002   9.026   9.988  0.1421  0.5647 -0.6485
 8895SOL     OW30182   9.289   0.333   6.558  0.7687 -0.9496  0.3597
 8895SOL    HW130183   9.283   0.337   6.653 -1.8210 -0.5434  0.2590
 8895SOL    HW230184   9.289   0.425   6.530 -1.1793 -1.0301 -0.0632
 8896SOL     OW30185   3.320   0.753   3.866  0.3439  0.2465 -0.0082
 8896SOL    HW130186   3.415   0.757   3.874  0.5102 -0.3083 -1.3358
 8896SOL    HW230187   3.287   0.774   3.953  1.6960 -0.5158  0.7223
 8897SOL     OW30188   3.941   7.657   7.746 -0.4638  0.1737 -0.6913
 8897SOL    HW130189   4.028   7.616   7.739  0.0317  0.9892  0.4096
 8897SOL    HW230190   3.882   7.594   7.705  0.3946 -1.2403  0.1627
 8898SOL     OW30191   5.392   2.107   6.130 -0.2722 -0.0328  0.1395
 8898SOL    HW130192   5.407   2.087   6.223  1.4824 -0.2977 -0.1655
 8898SOL    HW230193   5.450   2.180   6.112 -1.5107  0.8292 -0.4798
 8899SOL     OW30194   1.553   6.344   4.303 -0.5367 -0.3917 -0.1943
 8899SOL    HW130195   1.524   6.405   4.371 -1.0339 -0.6593 -0.1547
 8899SOL    HW230196   1.603   6.398   4.242 -3.4660  0.7401 -1.7885
 8900SOL     OW30197  10.727   6.577  10.366 -0.2240  0.4805  0.2573
 8900SOL    HW130198  10.667   6.537  10.303  0.6809  0.0500 -0.3714
 8900SOL    HW230199  10.721   6.671  10.349  0.0729  0.3653 -0.5583
 8901SOL     OW30200   3.679   6.620   0.651 -0.6406  0.3654  0.3436
 8901SOL    HW130201   3.611   6.637   0.715  0.3452 -1.8195  2.1048
 8901SOL    HW230202   3.656   6.535   0.613  1.3644 -0.7586  1.4696
 8902SOL     OW30203   1.567   2.163   6.881  0.0456  0.0624  0.5077
 8902SOL    HW130204   1.577   2.089   6.821  0.1193 -1.5615  2.4055
 8902SOL    HW230205   1.656   2.197   6.891 -0.0493  0.7140 -0.6967
 8903SOL     OW30206   7.677   1.253  10.103 -0.6982  0.3586  0.2284
 8903SOL    HW130207   7.622   1.180  10.075 -0.5093  0.1673  0.3595
 8903SOL    HW230208   7.669   1.254  10.198 -1.3570  1.0235  0.1761
 8904SOL     OW30209   4.857   5.799   1.097 -0.5080 -0.3473  0.2987
 8904SOL    HW130210   4.881   5.884   1.060 -1.1753 -0.1253  0.3749
 8904SOL    HW230211   4.908   5.793   1.178  0.4318 -0.5362 -0.2768
 8905SOL     OW30212   1.160   1.607   7.759 -0.2048 -0.1880  0.1947
 8905SOL    HW130213   1.178   1.574   7.671 -0.1172 -0.4159  0.2987
 8905SOL    HW230214   1.080   1.563   7.786 -0.2214 -0.1325  0.2386
 8906SOL     OW30215   5.658   7.939   3.815  0.1257 -0.4398  0.0395
 8906SOL    HW130216   5.750   7.945   3.790  0.1158  0.9177  0.2534
 8906SOL    HW230217   5.631   8.029   3.832 -1.1434 -0.8489  0.3663
 8907SOL     OW30218  10.445   8.669   4.437  0.1591 -0.1930 -0.1095
 8907SOL    HW130219  10.463   8.664   4.343 -2.7181  0.3377 -0.8098
 8907SOL    HW230220  10.398   8.588   4.456  0.2239 -0.0384  0.7375
 8908SOL     OW30221   7.982   0.894   7.994  0.1381  0.0844 -0.1216
 8908SOL    HW130222   7.943   0.861   8.075 -0.7451 -0.8469 -0.8990
 8908SOL    HW230223   8.015   0.816   7.950  1.9608  0.7328  0.0007
 8909SOL     OW30224  10.168   9.637  10.330  0.2672  0.0812  0.6086
 8909SOL    HW130225  10.231   9.624  10.402 -0.2090 -0.8757  0.8707
 8909SOL    HW230226  10.162   9.552  10.288  0.6808  0.6781 -0.7112
 8910SOL     OW30227   4.195   5.118   6.723 -0.7603 -0.2028  0.1013
 8910SOL    HW130228   4.265   5.180   6.701  0.3802 -1.1550  0.9146
 8910SOL    HW230229   4.115   5.168   6.712  0.1509  1.9369  2.1476
 8911SOL     OW30230   6.955   4.288   0.811 -0.4641 -0.0868 -0.2997
 8911SOL    HW130231   6.962   4.233   0.733  0.7483  0.0033 -0.2738
 8911SOL    HW230232   6.951   4.225   0.884 -1.1785 -0.1651 -0.4053
 8912SOL     OW30233   5.235   5.162   0.185  0.0250  0.5713 -0.8764
 8912SOL    HW130234   5.224   5.166   0.090 -1.8237 -1.0947 -0.7952
 8912SOL    HW230235   5.148   5.182   0.220  0.4794  0.3522  0.4456
 8913SOL     OW30236   1.627   2.409   8.793 -0.2860 -0.3926 -0.0167
 8913SOL    HW130237   1.658   2.341   8.853 -0.1762 -0.2720  0.0630
 8913SOL    HW230238   1.637   2.491   8.843 -0.8472 -0.3670  0.0621
 8914SOL     OW30239   3.398   1.347   1.056 -0.4260  0.1927 -0.4648
 8914SOL    HW130240   3.314   1.324   1.095  0.5683 -0.8494  1.1872
 8914SOL    HW230241   3.433   1.416   1.112  0.5740 -0.5943 -0.0884
 8915SOL     OW30242   9.386   5.180   5.121 -0.0486 -0.0774 -0.4350
 8915SOL    HW130243   9.385   5.196   5.215  0.1496  1.3302 -0.6510
 8915SOL    HW230244   9.474   5.204   5.093 -0.7284  1.6170 -1.2872
 8916SOL     OW30245   8.426   0.626  10.075 -0.5514 -0.0367  0.6501
 8916SOL    HW130246   8.512   0.652  10.109  0.6405 -1.5856 -0.9754
 8916SOL    HW230247   8.407   0.543  10.119 -0.6768 -0.2693  0.1566
 8917SOL     OW30248   3.868   7.660   2.324  0.2956 -0.2537 -0.7847
 8917SOL    HW130249   3.859   7.568   2.300 -1.1446 -0.2424 -0.3779
 8917SOL    HW230250   3.926   7.696   2.257  0.3021 -1.2973 -1.3654
 8918SOL     OW30251   8.382   2.788   9.653  0.5156 -0.0891 -0.0693
 8918SOL    HW130252   8.362   2.866   9.601 -0.8528 -0.2613  0.1624
 8918SOL    HW230253   8.475   2.797   9.675  0.7969  0.6288 -1.4409
 8919SOL     OW30254   1.989   8.607   8.799 -0.0583  0.5814 -0.0838
 8919SOL    HW130255   2.008   8.667   8.727  0.7777 -2.9964 -3.1660
 8919SOL    HW230256   2.069   8.555   8.808 -0.7174 -0.1368  2.4397
 8920SOL     OW30257   0.536   4.104   0.327  0.3712  0.3206  0.0964
 8920SOL    HW130258   0.566   4.138   0.412 -0.3186  0.7460  0.1743
 8920SOL    HW230259   0.584   4.022   0.316  1.0230  0.6334  0.5529
 8921SOL     OW30260   4.061   9.052   1.536 -0.2249 -0.2005  0.5882
 8921SOL    HW130261   3.998   9.084   1.472  1.7772  1.0410 -0.8613
 8921SOL    HW230262   4.074   8.960   1.512  2.1784  0.7683 -2.4085
 8922SOL     OW30263   8.228   3.665  10.707 -0.1965  0.0206  0.0418
 8922SOL    HW130264   8.247   3.601  10.638 -1.6969 -0.5750  0.1527
 8922SOL    HW230265   8.147   3.707  10.679 -0.6429  0.0078  1.2675
 8923SOL     OW30266   3.634   5.393   1.906 -0.0770 -0.2055  0.0921
 8923SOL    HW130267   3.559   5.449   1.889  0.9893  1.1341 -0.3846
 8923SOL    HW230268   3.632   5.377   2.001 -0.0316  1.2026  0.3431
 8924SOL     OW30269   6.411   7.059   7.125  0.1477 -0.5331 -0.4271
 8924SOL    HW130270   6.457   7.141   7.142  0.9995 -0.3890 -2.9173
 8924SOL    HW230271   6.481   6.997   7.104 -0.6013 -1.0987 -1.3497
 8925SOL     OW30272   5.758  10.855   4.576  0.2299 -0.0467  0.5317
 8925SOL    HW130273   5.688  10.904   4.620  0.4044  0.5449  0.1671
 8925SOL    HW230274   5.737  10.763   4.593 -0.6039  0.1218  0.4846
 8926SOL     OW30275   3.472   3.407  10.719  0.0900 -0.6501  0.1400
 8926SOL    HW130276   3.468   3.384  10.812 -2.1527 -2.8899 -0.3866
 8926SOL    HW230277   3.424   3.489  10.713  0.2036 -0.5093  0.9663
 8927SOL     OW30278   9.901   5.168   7.358  0.4278 -0.0793  0.4733
 8927SOL    HW130279   9.958   5.127   7.294  2.1681  0.0357  1.8641
 8927SOL    HW230280   9.906   5.112   7.435 -0.0553  0.7882  1.1666
 8928SOL     OW30281   0.627   0.604   3.221  0.2455 -0.0359 -0.8475
 8928SOL    HW130282   0.666   0.521   3.192  1.7218  0.7996 -1.3652
 8928SOL    HW230283   0.689   0.671   3.192 -0.1494  1.1514  0.8933
 8929SOL     OW30284   8.000   3.772   8.244 -0.4455 -0.0296 -0.3625
 8929SOL    HW130285   7.914   3.733   8.261 -0.1503 -0.9096 -0.7761
 8929SOL    HW230286   7.986   3.826   8.166 -0.3554 -1.2627 -1.2808
 8930SOL     OW30287   4.617   0.220   4.801 -0.4724 -0.7337  0.4485
 8930SOL    HW130288   4.675   0.280   4.849 -0.5665 -0.8853  0.7567
 8930SOL    HW230289   4.670   0.188   4.729 -0.6297  0.2290 -0.1102
 8931SOL     OW30290   2.671   1.114   3.867  0.2422  0.4758  0.6971
 8931SOL    HW130291   2.640   1.031   3.830  0.0637  1.2061 -0.8462
 8931SOL    HW230292   2.655   1.179   3.798 -0.2449  1.9342  2.1249
 8932SOL     OW30293   0.386   3.893   1.085  0.0702 -0.0675  0.0730
 8932SOL    HW130294   0.385   3.985   1.058 -2.8097 -0.5407 -1.8527
 8932SOL    HW230295   0.363   3.844   1.006 -2.2431 -2.1346  1.8571
 8933SOL     OW30296   9.915  10.651   9.170  0.6859 -0.2565  0.2178
 8933SOL    HW130297   9.826  10.685   9.179  0.5643 -0.2361 -0.9236
 8933SOL    HW230298   9.904  10.558   9.153  0.9308 -0.4258  0.9234
 8934SOL     OW30299   1.606   1.950   9.025  0.0532 -0.1828  0.4182
 8934SOL    HW130300   1.540   2.005   8.982  0.1188  0.0850  0.6608
 8934SOL    HW230301   1.564   1.922   9.107  0.4775  0.5120  0.8775
 8935SOL     OW30302   8.823   4.339   1.145  0.3473  0.2530 -0.1820
 8935SOL    HW130303   8.815   4.264   1.203 -1.2815  0.3760 -0.2131
 8935SOL    HW230304   8.839   4.413   1.204  0.9351  0.0459 -0.0748
 8936SOL     OW30305  10.115   2.101   3.976 -0.4351  0.2008 -0.1608
 8936SOL    HW130306  10.204   2.130   3.997 -0.8113  2.2611 -1.1488
 8936SOL    HW230307  10.058   2.157   4.029 -1.2182  1.8429 -2.5704
 8937SOL     OW30308   3.889   9.439   0.872  0.4791  0.1734 -0.7920
 8937SOL    HW130309   3.795   9.446   0.854  0.6558  0.0464 -1.8075
 8937SOL    HW230310   3.931   9.485   0.800  1.1596  2.5971  1.0300
 8938SOL     OW30311   8.004   5.976   1.783 -0.0618  0.8050  0.0797
 8938SOL    HW130312   7.940   6.037   1.820 -1.2068  0.0314 -0.5706
 8938SOL    HW230313   8.025   5.916   1.854 -3.0449 -1.3316 -0.6244
 8939SOL     OW30314   8.148   9.911   5.927 -0.0709  0.1844  0.5091
 8939SOL    HW130315   8.178   9.926   6.016 -0.2934 -1.3906  0.8830
 8939SOL    HW230316   8.132   9.817   5.923 -1.2783  0.4156 -0.8224
 8940SOL     OW30317  10.648   7.382   2.360 -0.3382  0.1110 -0.5199
 8940SOL    HW130318  10.725   7.437   2.374 -0.3039  0.2648 -1.2674
 8940SOL    HW230319  10.584   7.414   2.423  1.0919 -1.8339  2.1023
 8941SOL     OW30320   2.703   9.152   1.626 -0.4201 -0.3968  0.0060
 8941SOL    HW130321   2.623   9.099   1.632 -1.0827  0.4199 -1.2464
 8941SOL    HW230322   2.731   9.163   1.717 -1.9922 -0.3150  0.5108
 8942SOL     OW30323   7.224   5.915   0.380  0.4606  0.0709  0.3393
 8942SOL    HW130324   7.230   6.010   0.384 -0.2691  0.1574 -0.3808
 8942SOL    HW230325   7.135   5.895   0.411  1.3582 -0.5687  2.7546
 8943SOL     OW30326   0.048   4.191   8.946 -0.0266 -0.3562  0.4818
 8943SOL    HW130327   0.144   4.190   8.949  0.1428  0.6667 -2.0101
 8943SOL    HW230328   0.025   4.107   8.905 -0.3382 -1.2098  2.3047
 8944SOL     OW30329   0.836   6.873   4.876 -0.0045 -0.2550 -0.3609
 8944SOL    HW130330   0.812   6.917   4.795  2.0063  0.9064 -0.3748
 8944SOL    HW230331   0.781   6.914   4.943 -1.1350 -0.6967 -0.9896
 8945SOL     OW30332   0.161   6.997   3.126  0.2593  0.1156 -0.2728
 8945SOL    HW130333   0.168   7.064   3.058  0.9795  2.5352  2.0287
 8945SOL    HW230334   0.075   7.012   3.165  0.6240  0.0006  0.5768
 8946SOL     OW30335   1.831   3.068   4.056  0.1555 -0.2666  0.0549
 8946SOL    HW130336   1.779   3.148   4.067 -0.6087 -0.8636  1.0423
 8946SOL    HW230337   1.844   3.060   3.962  2.3499  2.2999  0.0291
 8947SOL     OW30338   4.708   3.508   5.778  0.0060  0.6587 -0.4735
 8947SOL    HW130339   4.693   3.430   5.725 -1.0021  1.5866 -1.6275
 8947SOL    HW230340   4.625   3.557   5.773  0.9797  2.3628 -0.7897
 8948SOL     OW30341   8.184  10.226   7.309 -0.3469  0.6816 -0.0083
 8948SOL    HW130342   8.265  10.176   7.317 -0.5774  0.0154 -1.5007
 8948SOL    HW230343   8.203  10.309   7.352  1.6021  1.0696 -1.4822
 8949SOL     OW30344  10.896   6.729   0.878 -0.0554  0.5754  0.5681
 8949SOL    HW130345  10.895   6.634   0.892  0.0051  0.5314  0.2748
 8949SOL    HW230346  10.867   6.765   0.962 -1.0799  0.2594  0.3690
 8950SOL     OW30347   8.032   3.836   5.836  0.1171  0.2025  0.6773
 8950SOL    HW130348   8.051   3.911   5.892  0.0051  0.5332  0.2753
 8950SOL    HW230349   8.053   3.866   5.748  1.2162 -0.6180  0.6279
 8951SOL     OW30350   6.655   1.646   3.475  0.0352  0.3334 -0.0664
 8951SOL    HW130351   6.586   1.689   3.525  0.3944  1.0538 -0.1820
 8951SOL    HW230352   6.707   1.601   3.542  0.8331  1.7368  0.3094
 8952SOL     OW30353   8.971   0.649   4.071  0.1089 -0.5019 -0.0471
 8952SOL    HW130354   9.047   0.708   4.076  0.3440 -0.7987 -0.0588
 8952SOL    HW230355   8.948   0.633   4.163 -0.6272  0.4571 -0.0593
 8953SOL     OW30356   0.604   5.377   9.581 -0.2801  0.5077 -0.1164
 8953SOL    HW130357   0.624   5.467   9.556 -0.0635  0.5691  0.2679
 8953SOL    HW230358   0.638   5.324   9.509  0.3900  0.6778  0.0669
 8954SOL     OW30359   6.396   8.245   3.948 -0.0631  0.2304  0.5437
 8954SOL    HW130360   6.302   8.241   3.968 -0.2967  1.5240 -0.1456
 8954SOL    HW230361   6.404   8.205   3.862 -0.3542  1.9849 -0.3604
 8955SOL     OW30362   9.841   4.641   6.985 -0.6627  0.1013  0.4136
 8955SOL    HW130363   9.902   4.705   7.022  1.2088 -1.0807 -0.5069
 8955SOL    HW230364   9.779   4.693   6.934  0.7990  1.2135 -0.2933
 8956SOL     OW30365   5.165   1.450  10.998  0.2440 -0.2892  0.0957
 8956SOL    HW130366   5.257   1.461  11.022  0.1632 -1.7147  1.1877
 8956SOL    HW230367   5.158   1.358  10.974 -1.3172 -0.7795  2.1593
 8957SOL     OW30368   4.694   0.222   1.324  0.2612  0.2214  0.0456
 8957SOL    HW130369   4.675   0.246   1.415  0.6071  0.7369 -0.0151
 8957SOL    HW230370   4.618   0.252   1.275 -0.4455 -1.0718  0.3102
 8958SOL     OW30371   7.579   6.341   2.905  0.2465 -0.3158  0.8860
 8958SOL    HW130372   7.501   6.290   2.882 -1.5993  2.6571 -0.1369
 8958SOL    HW230373   7.637   6.330   2.829  0.2447 -1.4468  1.0266
 8959SOL     OW30374  10.861   4.429   3.467  0.2573  0.3727 -0.0755
 8959SOL    HW130375  10.944   4.476   3.479  0.4817  0.0270 -0.2512
 8959SOL    HW230376  10.798   4.497   3.443 -0.1475  1.0456  2.6427
 8960SOL     OW30377   4.988   6.863   7.248  0.0006 -0.1121 -0.7157
 8960SOL    HW130378   4.969   6.799   7.179 -0.7761 -0.4713 -0.1870
 8960SOL    HW230379   4.922   6.846   7.315  0.1176  0.9019 -0.3261
 8961SOL     OW30380   8.348   5.614   2.781 -0.2809 -0.3008 -0.0134
 8961SOL    HW130381   8.341   5.595   2.687  2.1238 -0.7114 -0.1662
 8961SOL    HW230382   8.307   5.701   2.790  0.2121  0.1429 -1.6021
 8962SOL     OW30383   4.431  10.463  10.542 -0.1135  0.3171  0.0617
 8962SOL    HW130384   4.432  10.399  10.471  0.6109  1.0922 -0.6638
 8962SOL    HW230385   4.343  10.499  10.541 -0.0007  0.5981 -0.7278
 8963SOL     OW30386   3.927   8.366   0.598  0.1448 -0.0567 -0.1791
 8963SOL    HW130387   3.922   8.276   0.628 -0.9489  0.5304  1.5532
 8963SOL    HW230388   3.984   8.363   0.521  1.6259 -1.9387  0.9137
 8964SOL     OW30389   6.414   3.327   1.690  0.1132 -0.5310 -0.1010
 8964SOL    HW130390   6.451   3.243   1.718  1.0977  0.2641  1.0620
 8964SOL    HW230391   6.399   3.375   1.771  1.6208  1.2572 -0.8071
 8965SOL     OW30392   1.607   8.545   5.650  0.1210  0.5063 -0.3799
 8965SOL    HW130393   1.690   8.570   5.609 -0.2251  0.2212 -1.2934
 8965SOL    HW230394   1.577   8.470   5.597 -0.2411 -0.0094  0.5411
 8966SOL     OW30395   3.081  10.457   0.657  0.0737  0.0260  0.1564
 8966SOL    HW130396   3.147  10.513   0.616 -1.2842  1.5620 -0.0009
 8966SOL    HW230397   3.104  10.458   0.750  0.3021  0.5080  0.0974
 8967SOL     OW30398   7.159   4.660   8.024 -0.4408 -0.0612 -0.2904
 8967SOL    HW130399   7.172   4.652   8.118 -1.6640  0.8208 -0.0403
 8967SOL    HW230400   7.120   4.746   8.011 -2.5472 -1.0876 -1.3417
 8968SOL     OW30401   3.025   6.306   4.096  0.6820  0.0148 -0.2560
 8968SOL    HW130402   2.950   6.343   4.049  0.5829 -1.2439 -1.1427
 8968SOL    HW230403   3.095   6.304   4.031  0.6513 -1.4099 -0.2698
 8969SOL     OW30404   2.740   0.781   4.470 -0.0326  0.4984  0.2442
 8969SOL    HW130405   2.795   0.858   4.485 -2.0852  1.9791  0.7544
 8969SOL    HW230406   2.660   0.817   4.431 -1.6774 -1.1278  1.8976
 8970SOL     OW30407   7.361   0.824  10.722 -0.0896  0.1622  0.0482
 8970SOL    HW130408   7.401   0.741  10.745 -2.0800 -0.5743  1.1236
 8970SOL    HW230409   7.294   0.800  10.657  0.7147  1.2592 -1.2511
 8971SOL     OW30410   8.042   0.354   0.658 -0.2970 -0.3450  0.4002
 8971SOL    HW130411   8.009   0.439   0.687  0.2630  0.1407 -0.3497
 8971SOL    HW230412   8.014   0.347   0.567 -0.4127 -1.0016  0.4830
 8972SOL     OW30413   3.102   2.883   6.235 -0.4276  0.3711  0.4456
 8972SOL    HW130414   3.176   2.831   6.267 -0.2315  1.0346  1.0790
 8972SOL    HW230415   3.141   2.964   6.202 -0.9683  1.3624  2.1226
 8973SOL     OW30416   0.614   8.710   9.089 -0.0801 -0.1485  0.6606
 8973SOL    HW130417   0.682   8.694   9.024 -0.1405 -1.0566  0.8042
 8973SOL    HW230418   0.534   8.673   9.050 -0.5691  1.1369  0.3783
 8974SOL     OW30419   0.974   8.904   6.616 -0.1288 -0.2543  0.0184
 8974SOL    HW130420   1.059   8.944   6.594  0.5584 -2.0806 -0.7974
 8974SOL    HW230421   0.985   8.876   6.707  0.2485 -0.7301 -0.1699
 8975SOL     OW30422   9.758   7.300   6.631  0.3664  0.1341 -0.1595
 8975SOL    HW130423   9.675   7.343   6.647 -0.7823 -1.6030 -1.0776
 8975SOL    HW230424   9.799   7.350   6.561 -0.6670  0.0781 -0.8160
 8976SOL     OW30425   2.697   0.331   0.200 -0.1882  0.0567 -0.5233
 8976SOL    HW130426   2.646   0.283   0.266  0.1552 -1.4403 -1.2900
 8976SOL    HW230427   2.762   0.380   0.251 -0.1838 -0.7616  0.2840
 8977SOL     OW30428   1.613   6.062   2.640 -0.2666  0.0460  0.1173
 8977SOL    HW130429   1.570   6.028   2.718  2.3885 -1.5219  0.9931
 8977SOL    HW230430   1.583   6.005   2.569 -1.7325  0.7300  0.1332
 8978SOL     OW30431   6.233   6.539  10.815 -0.3717  0.0284 -1.3110
 8978SOL    HW130432   6.296   6.495  10.758  2.8321  1.0802  1.1112
 8978SOL    HW230433   6.215   6.476  10.885 -1.6421 -0.0634 -1.6997
 8979SOL     OW30434  10.464   7.700   1.659  0.6076  0.2148 -0.4666
 8979SOL    HW130435  10.427   7.637   1.596  0.0168  0.1895 -0.0998
 8979SOL    HW230436  10.403   7.773   1.658  0.3702  0.0397  0.3761
 8980SOL     OW30437   5.826   6.810   1.566 -0.3630  0.4834  0.7624
 8980SOL    HW130438   5.863   6.885   1.518 -1.1082  1.1467  1.1932
 8980SOL    HW230439   5.778   6.761   1.499  1.8016 -0.7846  0.0440
 8981SOL     OW30440   2.886   7.836   6.907 -0.6890  0.1793  0.7955
 8981SOL    HW130441   2.960   7.819   6.848 -1.9163 -1.6764 -0.3038
 8981SOL    HW230442   2.869   7.752   6.949 -2.1479  0.5740  1.0416
 8982SOL     OW30443   0.037   1.011   4.263 -0.4105  0.5081 -0.4247
 8982SOL    HW130444  -0.006   1.037   4.344 -0.4957  0.2315 -0.3783
 8982SOL    HW230445   0.074   1.092   4.228 -0.0589  0.5653  0.0733
 8983SOL     OW30446  10.833   0.192   0.024 -0.3342  0.2939  0.0915
 8983SOL    HW130447  10.806   0.280   0.051 -1.6779 -0.5368  1.6383
 8983SOL    HW230448  10.754   0.153  -0.011 -0.4333 -1.1275  1.7668
 8984SOL     OW30449   7.337   7.653   6.346  0.8628  0.0064  0.2487
 8984SOL    HW130450   7.378   7.731   6.309  0.2928 -0.6641 -1.9524
 8984SOL    HW230451   7.336   7.590   6.275 -3.0374 -0.3539  0.4016
 8985SOL     OW30452   7.307   5.290   3.516  0.1464 -0.0725 -0.2000
 8985SOL    HW130453   7.280   5.302   3.425  0.5630 -1.6319 -0.5439
 8985SOL    HW230454   7.383   5.347   3.526 -0.8480  1.3357 -0.3418
 8986SOL     OW30455   1.432   2.472  10.774 -0.5219  0.0635  0.0377
 8986SOL    HW130456   1.497   2.404  10.756  0.3170  1.1491 -1.2119
 8986SOL    HW230457   1.407   2.458  10.865 -0.2981 -1.8422 -0.1661
 8987SOL     OW30458   4.665   7.089   1.720 -0.1689  0.2858  0.1922
 8987SOL    HW130459   4.661   6.994   1.704  1.0589  0.5019 -1.8030
 8987SOL    HW230460   4.603   7.104   1.792 -3.3241 -1.4776 -1.9209
 8988SOL     OW30461   2.093   4.927   7.232 -0.1744  0.4062  0.0465
 8988SOL    HW130462   2.026   4.988   7.199 -1.0694 -0.2256  0.6391
 8988SOL    HW230463   2.051   4.841   7.227  1.2651 -0.2633 -1.2990
 8989SOL     OW30464  10.052   9.949   0.506  0.1620 -0.6562  0.5212
 8989SOL    HW130465  10.092   9.939   0.419  1.1605  0.3887  0.8266
 8989SOL    HW230466  10.021  10.039   0.508 -1.6148 -1.2421  0.5725
 8990SOL     OW30467   8.068   7.356   6.707  0.8245 -0.6260 -0.8596
 8990SOL    HW130468   8.065   7.261   6.706  2.4979 -0.7022 -1.6478
 8990SOL    HW230469   8.052   7.382   6.616 -0.3617 -0.1044 -0.5202
 8991SOL     OW30470   8.504   3.799   4.213  0.0761  0.2510  0.5122
 8991SOL    HW130471   8.599   3.796   4.204  0.1367  0.0176  1.1879
 8991SOL    HW230472   8.471   3.771   4.127  0.6044  0.9993  0.0584
 8992SOL     OW30473   5.738   6.919   6.618  0.1037  0.0256 -0.6893
 8992SOL    HW130474   5.797   6.869   6.562  1.0486  0.1906  0.1277
 8992SOL    HW230475   5.758   7.011   6.600  1.9514  0.1153  1.3935
 8993SOL     OW30476   9.260   8.385   1.797  0.1208  0.2970  0.1866
 8993SOL    HW130477   9.181   8.370   1.848 -1.1879 -0.5609 -1.9663
 8993SOL    HW230478   9.329   8.397   1.863 -1.3244 -1.3515  2.1409
 8994SOL     OW30479   6.818   1.574   9.047  0.2304  0.1215 -0.3537
 8994SOL    HW130480   6.744   1.515   9.059 -0.4456  1.1978  0.9785
 8994SOL    HW230481   6.803   1.613   8.960 -1.3578  1.0810  0.2985
 8995SOL     OW30482   9.095   7.666   8.825 -0.0857 -0.2966 -0.2124
 8995SOL    HW130483   9.123   7.589   8.776  3.3741  0.6852 -0.0298
 8995SOL    HW230484   9.085   7.635   8.915 -0.0627 -0.7761 -0.3715
 8996SOL     OW30485   0.220   9.636   4.575  0.2375  0.5232  0.3400
 8996SOL    HW130486   0.171   9.562   4.610 -1.5279  1.0231 -0.9870
 8996SOL    HW230487   0.163   9.712   4.588  1.4089  1.4431  0.3593
 8997SOL     OW30488   6.571   7.681   0.919 -0.9050 -0.3844  0.6791
 8997SOL    HW130489   6.498   7.698   0.978 -2.0721  1.0224 -1.0675
 8997SOL    HW230490   6.531   7.643   0.841  0.2810  0.0126 -0.1524
 8998SOL     OW30491   9.029   3.444   2.081  0.6046 -0.3286 -0.2868
 8998SOL    HW130492   8.959   3.416   2.022 -1.8012  4.4536 -0.2144
 8998SOL    HW230493   9.090   3.492   2.025  0.7830  0.2676  0.3968
 8999SOL     OW30494   1.458   4.649   0.038  0.1239 -0.1866  0.6100
 8999SOL    HW130495   1.530   4.623  -0.019 -0.6800 -1.8655  0.2985
 8999SOL    HW230496   1.486   4.732   0.076  1.7116 -0.2337 -0.3797
 9000SOL     OW30497   1.640   3.518   2.024 -0.2943 -0.3430  0.0875
 9000SOL    HW130498   1.588   3.519   2.104 -0.2171  0.2820  0.1346
 9000SOL    HW230499   1.575   3.513   1.954 -0.3603 -0.9218  0.1891
 9001SOL     OW30500   5.395   5.137   7.887  0.0150 -0.3589  0.2335
 9001SOL    HW130501   5.481   5.115   7.924  0.3731 -0.7267 -0.7858
 9001SOL    HW230502   5.373   5.221   7.926  1.6126  0.5726 -0.7340
 9002SOL     OW30503   9.472   0.367   9.108 -0.1799 -0.3848  0.5495
 9002SOL    HW130504   9.441   0.427   9.039 -1.2110 -0.0756  1.2580
 9002SOL    HW230505   9.556   0.403   9.134 -1.3448  1.5969  1.8675
 9003SOL     OW30506  10.358   7.879   3.199 -0.0747 -0.2980 -0.3995
 9003SOL    HW130507  10.399   7.949   3.250 -0.1332  0.0491 -0.8279
 9003SOL    HW230508  10.264   7.901   3.201 -0.7116 -2.5022  2.8539
 9004SOL     OW30509   4.638   6.742   4.945  1.0428 -0.3555 -0.0423
 9004SOL    HW130510   4.652   6.760   5.038  1.6286  0.5673 -0.2895
 9004SOL    HW230511   4.703   6.796   4.900  1.0384 -1.1029 -0.9762
 9005SOL     OW30512   6.786   2.872   7.413 -0.4081  0.1689 -0.4943
 9005SOL    HW130513   6.731   2.935   7.367  0.7782 -0.2669 -2.6298
 9005SOL    HW230514   6.746   2.787   7.394  1.0781 -0.1753 -2.2939
 9006SOL     OW30515   8.442   1.145   4.304  0.5929  1.0424 -0.4325
 9006SOL    HW130516   8.430   1.105   4.390  0.4978  2.2016  0.1090
 9006SOL    HW230517   8.360   1.127   4.257  1.6782 -2.0805 -1.3778
 9007SOL     OW30518   7.665   4.620   9.973  0.1574  0.2879  0.3010
 9007SOL    HW130519   7.697   4.710   9.963 -3.0381  1.6002  0.4546
 9007SOL    HW230520   7.593   4.627  10.037 -0.2716 -2.3695  0.2399
 9008SOL     OW30521   5.588   4.953   5.933  0.2658  0.3126 -0.4034
 9008SOL    HW130522   5.586   5.044   5.903  1.1815  0.9292  1.2478
 9008SOL    HW230523   5.505   4.915   5.904 -1.5179  2.5451  1.4500
 9009SOL     OW30524   5.678   7.421   6.665  0.0200  0.1630 -0.3004
 9009SOL    HW130525   5.761   7.432   6.711 -0.4329 -0.2160  0.6488
 9009SOL    HW230526   5.636   7.507   6.671 -0.4449 -0.1275  0.8554
 9010SOL     OW30527   8.182   7.655   6.724  0.1054 -0.6590  0.0056
 9010SOL    HW130528   8.187   7.749   6.736  0.3825 -0.4514 -1.5293
 9010SOL    HW230529   8.154   7.621   6.809  0.8369  0.7119  0.8144
 9011SOL     OW30530  10.877   8.804   9.755  0.1528 -0.2718 -0.2957
 9011SOL    HW130531  10.883   8.735   9.821  0.5502 -0.8663 -0.9360
 9011SOL    HW230532  10.831   8.876   9.799 -1.2678 -1.3479  0.0553
 9012SOL     OW30533   8.893   2.793   3.435 -1.0942 -0.1736 -0.4288
 9012SOL    HW130534   8.914   2.704   3.408  1.2152  0.3189 -0.4695
 9012SOL    HW230535   8.829   2.783   3.506  1.6210 -2.1098  1.9480
 9013SOL     OW30536   8.781   5.760   7.527 -0.1452  0.1887  0.0360
 9013SOL    HW130537   8.718   5.695   7.497  0.4521  0.1651 -1.2582
 9013SOL    HW230538   8.854   5.708   7.560 -0.0532  0.1946 -0.1527
 9014SOL     OW30539  10.608   1.243   0.606  1.0999  0.5341  0.1652
 9014SOL    HW130540  10.659   1.213   0.680  1.7983  0.7034 -0.2413
 9014SOL    HW230541  10.518   1.218   0.627  1.5509 -1.1944  0.1637
 9015SOL     OW30542   8.084   5.503   3.738  0.2106  0.2169  0.4002
 9015SOL    HW130543   8.145   5.479   3.808  1.3757  1.5149 -0.1283
 9015SOL    HW230544   8.139   5.540   3.670 -1.1568  1.2214 -0.2012
 9016SOL     OW30545   5.407   4.722   3.261  0.1397 -0.4363  0.1796
 9016SOL    HW130546   5.498   4.695   3.250 -0.0114 -0.6259 -0.6467
 9016SOL    HW230547   5.410   4.794   3.324  0.8607 -0.3942  0.0989
 9017SOL     OW30548   5.276   1.734   3.873 -0.2273  0.1435 -0.1500
 9017SOL    HW130549   5.245   1.778   3.794 -0.5902 -1.0117 -0.6671
 9017SOL    HW230550   5.371   1.730   3.864 -0.3248 -0.6694 -0.9104
 9018SOL     OW30551   1.449   3.984   8.489  0.3086 -0.1231  0.0043
 9018SOL    HW130552   1.423   4.012   8.577 -1.7769  0.2607 -0.6953
 9018SOL    HW230553   1.514   3.915   8.504  1.4713  1.2659  1.8086
 9019SOL     OW30554   8.496   6.456   1.677 -0.4064  0.0783  0.0025
 9019SOL    HW130555   8.501   6.368   1.713 -1.4720 -0.0258 -0.0912
 9019SOL    HW230556   8.453   6.445   1.592  1.3054  0.4261 -0.9705
 9020SOL     OW30557   9.191   7.644   1.074  0.4837 -0.3923  0.2176
 9020SOL    HW130558   9.171   7.554   1.101  2.8113 -1.2705 -0.6985
 9020SOL    HW230559   9.259   7.673   1.134 -0.3066  0.8425  0.5627
 9021SOL     OW30560   9.993  10.642   8.505 -0.1622  0.0483 -0.5652
 9021SOL    HW130561   9.918  10.644   8.445 -0.2168 -1.8853 -0.6282
 9021SOL    HW230562   9.995  10.552   8.538  0.4463  0.7999  1.6191
 9022SOL     OW30563   3.712   9.647   0.123  0.1162 -0.1603  0.0055
 9022SOL    HW130564   3.665   9.703   0.061  0.0469  1.2752  1.2889
 9022SOL    HW230565   3.692   9.558   0.094  0.6024  0.4260 -2.4011
 9023SOL     OW30566   8.985   1.220  10.649 -0.3334 -0.0624 -0.0694
 9023SOL    HW130567   8.934   1.293  10.613  0.0328 -0.8274 -2.2857
 9023SOL    HW230568   9.075   1.252  10.652 -0.5371  0.4656  1.5805
 9024SOL     OW30569   5.816   0.171   0.601  0.1044  0.0508 -0.1898
 9024SOL    HW130570   5.728   0.194   0.633  0.7081  1.4602  0.5444
 9024SOL    HW230571   5.827   0.222   0.521  1.0866  1.7358  0.9433
 9025SOL     OW30572   2.490  10.959   3.103  0.1401 -0.0845  0.1929
 9025SOL    HW130573   2.453  11.002   3.025 -1.0287 -3.0720 -1.0289
 9025SOL    HW230574   2.504  11.031   3.165 -0.8618  2.1506 -1.9913
 9026SOL     OW30575  10.358   3.966   3.537 -0.0787 -0.0482 -1.0035
 9026SOL    HW130576  10.287   3.902   3.532  0.7941 -0.9863 -1.9267
 9026SOL    HW230577  10.436   3.914   3.558  0.4166  0.9088 -0.3974
 9027SOL     OW30578   0.705   3.859   0.292 -0.3135  0.3914 -0.1710
 9027SOL    HW130579   0.746   3.775   0.273  1.1521  0.7441  1.2365
 9027SOL    HW230580   0.771   3.924   0.267  0.0894  0.9716  2.1483
 9028SOL     OW30581   0.709   7.033   7.396 -0.5631  0.0935  0.0373
 9028SOL    HW130582   0.673   7.115   7.431  0.4828  0.5275  0.1315
 9028SOL    HW230583   0.711   6.973   7.470  2.5422  1.3046  1.0839
 9029SOL     OW30584   2.275   4.643   0.317  0.0116 -0.1634 -0.4069
 9029SOL    HW130585   2.240   4.696   0.245 -1.7959 -0.0935  0.4743
 9029SOL    HW230586   2.273   4.701   0.393  0.3029 -0.7486  0.0562
 9030SOL     OW30587   7.252   1.275   6.665  0.0758  0.5521  0.2288
 9030SOL    HW130588   7.228   1.303   6.753 -0.1494  0.1811  0.2862
 9030SOL    HW230589   7.337   1.316   6.649 -0.2010  1.1908  0.3467
 9031SOL     OW30590  10.805   8.384   6.291  0.0546 -0.6009 -0.1089
 9031SOL    HW130591  10.842   8.433   6.217  1.9085 -1.2479  0.3316
 9031SOL    HW230592  10.723   8.429   6.311  0.3230  0.5869 -1.5026
 9032SOL     OW30593  10.687   1.115   0.860  0.4152  0.1056  0.3669
 9032SOL    HW130594  10.611   1.059   0.870  0.1725 -0.1076 -2.0973
 9032SOL    HW230595  10.761   1.055   0.854  0.5387  0.2097  0.8607
 9033SOL     OW30596   0.767   6.909   1.731 -0.2330 -0.4048 -0.8390
 9033SOL    HW130597   0.805   6.915   1.644 -0.6302 -0.6972 -1.0361
 9033SOL    HW230598   0.744   6.999   1.754 -1.2883 -0.4633 -1.5667
 9034SOL     OW30599   3.258   8.613   3.447  0.2202  0.2602  0.2655
 9034SOL    HW130600   3.289   8.642   3.533  2.5653 -0.6511 -0.1928
 9034SOL    HW230601   3.288   8.681   3.386  0.9655 -0.4129 -0.1380
 9035SOL     OW30602   0.371   8.239   4.500 -0.1805 -0.3353  0.2418
 9035SOL    HW130603   0.347   8.151   4.473 -0.6054  0.2689 -1.4550
 9035SOL    HW230604   0.387   8.232   4.595 -1.8941 -1.8556  0.4634
 9036SOL     OW30605   6.836   5.330   5.365 -0.2426  0.3706  0.2624
 9036SOL    HW130606   6.909   5.305   5.309 -0.9378  1.2769 -1.1069
 9036SOL    HW230607   6.834   5.426   5.361 -0.8275  0.4052  1.1500
 9037SOL     OW30608   2.572   2.571   6.048 -0.1678 -0.1082  0.4827
 9037SOL    HW130609   2.485   2.607   6.067  0.3339  0.6358  1.4480
 9037SOL    HW230610   2.608   2.627   5.980 -0.3831 -0.3267  0.1879
 9038SOL     OW30611   7.286   8.139  10.237  0.1473  0.4551 -0.0575
 9038SOL    HW130612   7.335   8.221  10.231  1.5028 -0.3610 -0.7413
 9038SOL    HW230613   7.217   8.147  10.172  0.8857  0.6794 -0.8303
 9039SOL     OW30614  10.863   8.900   1.911  0.0612 -0.6055 -0.1182
 9039SOL    HW130615  10.879   8.812   1.875  0.7451 -0.6258  0.2186
 9039SOL    HW230616  10.914   8.902   1.992 -1.1825 -0.4419  0.6835
 9040SOL     OW30617   0.704  10.892   1.019  0.0737  0.3155  0.5271
 9040SOL    HW130618   0.695  10.854   0.931  1.6242  1.7493 -0.3078
 9040SOL    HW230619   0.613  10.901   1.050 -0.4469 -1.4559 -0.3356
 9041SOL     OW30620   5.133  10.544   3.226  0.0047  0.0451  0.4774
 9041SOL    HW130621   5.106  10.616   3.169 -0.1287  0.7668  1.4232
 9041SOL    HW230622   5.223  10.565   3.250  0.4362 -0.8317 -0.3368
 9042SOL     OW30623   8.684   0.066   4.127  0.7295 -0.1805 -0.3966
 9042SOL    HW130624   8.592   0.063   4.100  0.6421  2.1486 -0.5582
 9042SOL    HW230625   8.721  -0.017   4.097 -1.2244 -1.0206 -0.6353
 9043SOL     OW30626   3.506   3.424   3.377  0.2491  0.4584  0.6314
 9043SOL    HW130627   3.547   3.509   3.361  0.1004  0.7796  1.8273
 9043SOL    HW230628   3.577   3.360   3.367  0.5565  0.8081  0.5744
 9044SOL     OW30629   2.257   3.106  10.481 -0.2604 -0.0815  0.0877
 9044SOL    HW130630   2.239   3.012  10.477 -0.5184 -0.0495  0.4491
 9044SOL    HW230631   2.317   3.115  10.554 -1.5480  0.2262  1.1388
 9045SOL     OW30632   3.157   2.492   9.571  0.4650  0.1560 -0.1563
 9045SOL    HW130633   3.070   2.454   9.578 -1.2293  3.7972  0.5652
 9045SOL    HW230634   3.182   2.478   9.479 -0.6324 -1.3061 -0.2668
 9046SOL     OW30635   3.318   6.938   1.973 -0.4346  0.8351 -0.4084
 9046SOL    HW130636   3.324   6.996   2.049 -0.2494  0.1296  0.1288
 9046SOL    HW230637   3.407   6.909   1.957 -0.8311 -1.4423  1.0558
 9047SOL     OW30638  10.982   1.972   2.354 -0.4370 -0.2206  0.1086
 9047SOL    HW130639  11.013   2.058   2.383 -2.6856  0.7830 -0.2584
 9047SOL    HW230640  11.023   1.910   2.414  0.6601  1.1685  0.8520
 9048SOL     OW30641   5.857   2.350   6.445 -0.3908 -0.2995  0.1973
 9048SOL    HW130642   5.841   2.276   6.504 -0.2269 -1.4891 -1.1990
 9048SOL    HW230643   5.882   2.309   6.362 -0.0263  1.3421 -0.5334
 9049SOL     OW30644   8.944   8.316   5.133  0.1895  0.0564  0.2064
 9049SOL    HW130645   8.855   8.285   5.148  0.0331  0.3641 -0.0781
 9049SOL    HW230646   8.937   8.412   5.138  0.3902  0.1094 -0.4335
 9050SOL     OW30647   7.998   4.600   2.436 -0.1568 -0.5085 -0.4130
 9050SOL    HW130648   8.058   4.526   2.441 -0.4800 -0.7348  3.3098
 9050SOL    HW230649   8.055   4.675   2.418  0.7234 -1.1980 -0.5918
 9051SOL     OW30650   7.507   6.092  10.350 -0.7428 -0.1911 -0.5743
 9051SOL    HW130651   7.537   6.182  10.362  1.0025 -1.0763  3.2820
 9051SOL    HW230652   7.550   6.063  10.270  0.3913  1.7750 -0.7436
 9052SOL     OW30653   1.627   1.258   9.941  0.2886 -0.5097  0.6514
 9052SOL    HW130654   1.696   1.321   9.918 -0.0605 -0.2131  0.4065
 9052SOL    HW230655   1.608   1.277  10.033  0.3631 -0.4297  0.6509
 9053SOL     OW30656   5.842   6.180   4.888  0.3797 -0.4899  0.3669
 9053SOL    HW130657   5.819   6.246   4.823  1.9736 -1.1459 -0.9100
 9053SOL    HW230658   5.805   6.098   4.854  0.7810 -0.7477  0.5380
 9054SOL     OW30659   1.865   6.745   4.750  0.1705 -0.5309  0.0388
 9054SOL    HW130660   1.798   6.786   4.695  0.5899  0.7194  0.4275
 9054SOL    HW230661   1.923   6.702   4.687 -0.2109 -0.4290 -0.3934
 9055SOL     OW30662   2.991   6.958   1.936 -0.4216 -0.2664 -0.0991
 9055SOL    HW130663   3.084   6.958   1.914 -0.3957 -0.7282 -0.0074
 9055SOL    HW230664   2.957   6.878   1.897 -0.4567 -0.8999  1.1720
 9056SOL     OW30665   7.002   9.687   3.005  0.5960  0.1014  0.0636
 9056SOL    HW130666   6.938   9.670   2.937  0.8288  1.3687 -0.5042
 9056SOL    HW230667   7.025   9.600   3.039 -0.3244 -0.4656 -0.7165
 9057SOL     OW30668   7.426   5.075   9.233 -0.1924  0.0461  0.1814
 9057SOL    HW130669   7.422   5.116   9.147 -0.6561 -2.0392 -0.8524
 9057SOL    HW230670   7.336   5.046   9.250  0.6117 -3.2823 -0.6182
 9058SOL     OW30671   9.657   4.185   6.100 -0.1500 -0.8618 -0.9847
 9058SOL    HW130672   9.748   4.188   6.072 -0.6203  0.7040 -2.5717
 9058SOL    HW230673   9.649   4.254   6.165 -0.1483 -1.1962 -0.6259
 9059SOL     OW30674  10.537   2.267   2.017  0.6396 -0.3899  0.1191
 9059SOL    HW130675  10.614   2.223   1.982  0.2733 -2.2795  1.5429
 9059SOL    HW230676  10.464   2.209   1.994 -0.6943  2.1197 -2.6231
 9060SOL     OW30677   7.830  10.473   8.032  0.0791 -0.4464  0.8767
 9060SOL    HW130678   7.827  10.569   8.040  1.5225 -0.3747  0.8647
 9060SOL    HW230679   7.804  10.441   8.118 -0.3358 -0.0441  0.9056
 9061SOL     OW30680   3.710   3.654   1.196  0.4255 -0.2699  0.2739
 9061SOL    HW130681   3.725   3.719   1.128 -1.3220 -0.3211 -0.1947
 9061SOL    HW230682   3.790   3.600   1.195  0.7353  0.1775 -1.2147
 9062SOL     OW30683   7.662   0.516   2.133 -0.7658  0.1447  0.0429
 9062SOL    HW130684   7.663   0.532   2.227  0.3572  1.0865 -0.1042
 9062SOL    HW230685   7.582   0.465   2.118 -1.1607  0.3111  1.4417
 9063SOL     OW30686   5.543   9.051   6.662 -0.3848  0.2226 -0.1124
 9063SOL    HW130687   5.564   8.987   6.730 -0.4218 -0.9687 -1.1858
 9063SOL    HW230688   5.548   9.001   6.580 -0.2608  1.6373 -0.9958
 9064SOL     OW30689  10.872   3.170   0.260 -0.0227 -0.9185  0.1978
 9064SOL    HW130690  10.902   3.207   0.342 -0.0209 -0.5410  0.0289
 9064SOL    HW230691  10.952   3.147   0.213  0.0634  0.7525 -0.5599
 9065SOL     OW30692   0.145   3.501   3.474  0.2858 -0.2490  0.5666
 9065SOL    HW130693   0.159   3.594   3.453 -1.0783  0.5603  2.8301
 9065SOL    HW230694   0.231   3.462   3.464  1.0001  1.3544 -0.0208
 9066SOL     OW30695   0.763   6.043   3.881 -0.0081  0.2982 -0.5678
 9066SOL    HW130696   0.680   6.071   3.919  0.8006  1.7256  0.2673
 9066SOL    HW230697   0.827   6.060   3.951  0.9009 -1.4224 -0.9292
 9067SOL     OW30698   3.571   7.071   5.231 -1.0467 -0.5711  0.0764
 9067SOL    HW130699   3.588   7.076   5.137 -0.5291 -1.4821  0.1198
 9067SOL    HW230700   3.602   6.985   5.258  2.2170  0.9298  1.7580
 9068SOL     OW30701   8.469   6.781  10.547  0.1240  0.6381  0.5095
 9068SOL    HW130702   8.515   6.865  10.541 -1.6259  1.7676  1.6955
 9068SOL    HW230703   8.484   6.753  10.637  1.7225 -1.0192 -0.2144
 9069SOL     OW30704   6.167   5.068   8.513 -0.3341 -0.0882  0.0050
 9069SOL    HW130705   6.072   5.070   8.501 -0.1724 -0.2934 -1.4916
 9069SOL    HW230706   6.196   4.994   8.461  0.5692 -0.5952  1.2055
 9070SOL     OW30707   8.906   0.161   4.216  0.1113  0.4696 -0.0353
 9070SOL    HW130708   8.830   0.111   4.186  0.7782 -1.1657  0.8471
 9070SOL    HW230709   8.869   0.231   4.270 -0.7901 -2.2717  3.2612
 9071SOL     OW30710   6.882   7.597  10.624  0.3104 -0.0981 -0.1002
 9071SOL    HW130711   6.953   7.658  10.607  0.8888 -0.6861  0.1398
 9071SOL    HW230712   6.893   7.528  10.559 -1.6350  1.0857 -1.8014
 9072SOL     OW30713   1.483  10.457   1.364 -0.1182 -0.0865  0.0915
 9072SOL    HW130714   1.498  10.549   1.342 -0.4829  0.3255  1.4294
 9072SOL    HW230715   1.563  10.412   1.337  1.0819  1.0363  1.5862
 9073SOL     OW30716   4.454  10.825   2.127 -0.3178 -0.0868  0.9065
 9073SOL    HW130717   4.543  10.834   2.096 -0.1759  2.2149  1.7639
 9073SOL    HW230718   4.408  10.780   2.057  0.9827  0.8945 -0.6431
 9074SOL     OW30719   2.514   6.173   7.755  0.1267  0.7527  0.5973
 9074SOL    HW130720   2.463   6.094   7.737 -0.4014  0.9970  1.0307
 9074SOL    HW230721   2.577   6.146   7.822  1.7850 -0.0336 -1.1770
 9075SOL     OW30722   6.440   5.973  10.355 -0.3339  0.3860  0.0679
 9075SOL    HW130723   6.391   6.040  10.308 -0.9394 -0.5765 -0.7213
 9075SOL    HW230724   6.523   5.967  10.308 -0.5966  0.0336 -0.3609
 9076SOL     OW30725   5.148  10.922   3.119  0.7206 -0.8914 -0.6544
 9076SOL    HW130726   5.092  10.932   3.196  0.1698  0.4864 -1.1911
 9076SOL    HW230727   5.113  10.846   3.073 -1.5722  0.6239 -1.6106
 9077SOL     OW30728   5.566   7.019   4.423  0.1139 -0.2162  0.4357
 9077SOL    HW130729   5.542   7.089   4.363  0.8300 -1.2809 -1.1813
 9077SOL    HW230730   5.525   6.941   4.386  0.7900 -0.9509  1.1879
 9078SOL     OW30731   0.892   2.285   1.179  0.3240  0.2839  0.4996
 9078SOL    HW130732   0.830   2.358   1.185  0.9316  0.8874 -0.2378
 9078SOL    HW230733   0.844   2.210   1.213 -1.7628  0.1399 -2.4200
 9079SOL     OW30734   5.210   6.706   4.374  0.1511  0.1876 -0.2628
 9079SOL    HW130735   5.193   6.619   4.411  0.8853 -0.1204 -0.6396
 9079SOL    HW230736   5.141   6.761   4.411 -0.6451 -0.6635 -0.4346
 9080SOL     OW30737   9.618   0.294   4.641 -0.3220  0.4750  0.2894
 9080SOL    HW130738   9.662   0.243   4.709 -1.5142  0.6227  1.2139
 9080SOL    HW230739   9.668   0.376   4.636  1.4802 -0.6442 -1.0670
 9081SOL     OW30740   9.932  10.157   2.226  0.2904 -0.3603 -0.0020
 9081SOL    HW130741   9.948  10.194   2.139 -1.8595 -0.0429 -0.3222
 9081SOL    HW230742   9.909  10.066   2.210 -0.2328 -0.2713  0.2022
 9082SOL     OW30743  10.874   4.197   7.082  0.2290  0.0713 -0.1315
 9082SOL    HW130744  10.853   4.277   7.130  0.7044 -0.4201  0.9430
 9082SOL    HW230745  10.898   4.134   7.150  0.2771 -0.8600 -0.9836
 9083SOL     OW30746   3.783   2.277  10.743 -0.0880 -0.3416 -0.5026
 9083SOL    HW130747   3.873   2.309  10.745 -1.0835  2.8480 -0.4264
 9083SOL    HW230748   3.771   2.246  10.653  1.5789 -2.7475  0.0119
 9084SOL     OW30749   4.734   5.047   0.374  0.3916  0.6488  0.1313
 9084SOL    HW130750   4.646   5.010   0.378  0.9981 -0.7900  1.0172
 9084SOL    HW230751   4.738   5.108   0.447  0.8559 -1.0789  1.6228
 9085SOL     OW30752   5.631   1.440   1.671  0.3862  0.0408  0.1514
 9085SOL    HW130753   5.654   1.438   1.764 -0.1894 -1.2171  0.2848
 9085SOL    HW230754   5.654   1.353   1.638  1.2511  0.7002 -1.0681
 9086SOL     OW30755   8.600   0.009   6.472 -1.2957 -0.3394 -0.7128
 9086SOL    HW130756   8.663   0.079   6.488 -0.5494 -1.1663  0.0385
 9086SOL    HW230757   8.520   0.055   6.446 -1.6134  1.0005  2.1853
 9087SOL     OW30758  10.740   7.928   5.265 -0.3970  0.5728 -0.8126
 9087SOL    HW130759  10.707   7.932   5.354  0.3128 -1.6554 -0.3849
 9087SOL    HW230760  10.709   8.008   5.224 -1.1337  1.4242  1.2895
 9088SOL     OW30761   6.973   2.689  10.360  0.3384  0.3788  0.3792
 9088SOL    HW130762   7.036   2.759  10.343  0.9473 -0.3758 -0.5977
 9088SOL    HW230763   6.948   2.701  10.452  0.0803  2.1252  0.1254
 9089SOL     OW30764  10.544   0.773   0.177 -0.0128 -0.5026 -0.7073
 9089SOL    HW130765  10.623   0.796   0.224 -0.0475 -1.7367  0.0079
 9089SOL    HW230766  10.556   0.809   0.089  0.4689  1.0003 -0.0566
 9090SOL     OW30767  10.843   9.155   1.885  0.1162 -0.0450 -0.2004
 9090SOL    HW130768  10.837   9.061   1.904 -0.9152 -0.2120 -1.1940
 9090SOL    HW230769  10.869   9.159   1.793  1.4397  0.6696  0.1884
 9091SOL     OW30770   4.634   3.218   1.445  0.4427 -0.0111  0.1369
 9091SOL    HW130771   4.546   3.183   1.456  0.3581 -0.6146 -2.0685
 9091SOL    HW230772   4.636   3.296   1.500 -1.9625  0.8634 -0.8731
 9092SOL     OW30773   3.832   6.551   7.011  0.1855  0.1145  0.0387
 9092SOL    HW130774   3.814   6.569   7.103  1.2416 -1.6845  0.6437
 9092SOL    HW230775   3.912   6.499   7.012 -1.1227 -2.1106 -1.6875
 9093SOL     OW30776   6.470   4.590   8.409 -0.0431  0.1749  0.1196
 9093SOL    HW130777   6.551   4.640   8.419  0.5119 -0.7653  0.4907
 9093SOL    HW230778   6.441   4.609   8.320  0.6432  0.4461 -0.0490
 9094SOL     OW30779   3.215   0.448   8.257  0.5815  0.6682 -0.2791
 9094SOL    HW130780   3.234   0.489   8.342  0.1958  2.1051 -0.8711
 9094SOL    HW230781   3.219   0.519   8.194  2.6530 -0.6326 -1.7758
 9095SOL     OW30782   4.575   8.999   6.816  0.2850  0.3718  0.1003
 9095SOL    HW130783   4.606   8.989   6.906  0.4941  1.1839  0.1261
 9095SOL    HW230784   4.546   9.090   6.811 -2.1477 -0.3428  0.0790
 9096SOL     OW30785   4.858   4.249   9.283  0.6138  0.0474  0.2119
 9096SOL    HW130786   4.843   4.171   9.230 -2.0197  0.4017  0.3047
 9096SOL    HW230787   4.883   4.215   9.369  0.6448 -0.6374 -0.0606
 9097SOL     OW30788   2.856   8.416   1.790  0.4067 -0.7749 -0.3731
 9097SOL    HW130789   2.951   8.411   1.796  0.4244 -0.0522 -0.0117
 9097SOL    HW230790   2.828   8.454   1.874 -0.0522  0.9051 -1.2574
 9098SOL     OW30791   3.833   8.075   7.115  0.2588  0.4750  0.0079
 9098SOL    HW130792   3.902   8.018   7.148 -0.1091  0.1496  0.2204
 9098SOL    HW230793   3.846   8.158   7.161  1.1228  0.7541 -0.6899
 9099SOL     OW30794   4.338   3.784   2.796 -0.1095 -0.2068  0.3055
 9099SOL    HW130795   4.404   3.852   2.811  0.6304 -1.0152  0.7804
 9099SOL    HW230796   4.308   3.759   2.884  0.6124 -1.4364  0.2221
 9100SOL     OW30797   6.987   4.696   0.312 -0.0729  0.4207  0.1448
 9100SOL    HW130798   7.066   4.674   0.360 -0.2697  0.1238  0.3361
 9100SOL    HW230799   6.915   4.672   0.371 -0.3160  2.9964  1.0290
 9101SOL     OW30800   2.067   2.275   6.991  0.4536  0.2259  0.0546
 9101SOL    HW130801   2.138   2.212   6.992 -1.5165 -2.1258 -0.2182
 9101SOL    HW230802   2.106   2.355   6.954  2.8226 -1.0558 -0.3662
 9102SOL     OW30803   7.590  10.256   3.399  0.0928  0.3039 -0.1326
 9102SOL    HW130804   7.541  10.308   3.462 -0.7998 -0.1404 -0.4403
 9102SOL    HW230805   7.571  10.165   3.423 -0.8515  0.1174 -1.4472
 9103SOL     OW30806   7.304   9.594   9.453 -0.5072  0.0922  0.1373
 9103SOL    HW130807   7.368   9.525   9.468 -0.3166  0.2550  0.0896
 9103SOL    HW230808   7.351   9.675   9.474 -0.7160  0.2103  0.1597
 9104SOL     OW30809  10.260   3.976   5.283  0.7846 -1.0056  0.0423
 9104SOL    HW130810  10.290   3.888   5.306  0.6750 -1.3010 -0.8741
 9104SOL    HW230811  10.201   4.001   5.354  2.4523 -0.7790  1.4108
 9105SOL     OW30812   4.558   3.508   2.500  0.1617  0.0340  0.3924
 9105SOL    HW130813   4.506   3.566   2.555  0.4537 -1.2725  2.1288
 9105SOL    HW230814   4.521   3.518   2.413 -1.9640  0.3252  1.2742
 9106SOL     OW30815   1.242   6.072   8.335 -0.1645 -0.4177 -0.0630
 9106SOL    HW130816   1.276   6.122   8.410 -0.3501  0.2137 -0.3895
 9106SOL    HW230817   1.317   6.064   8.276  0.1955 -1.6006  0.5275
 9107SOL     OW30818   7.324   4.003   3.341 -0.4650  0.4137  0.0138
 9107SOL    HW130819   7.258   4.063   3.376 -1.3932  0.0050 -0.9587
 9107SOL    HW230820   7.344   4.038   3.254  1.2951  1.0400  0.6222
 9108SOL     OW30821   1.957   7.770   0.007  0.3221  1.1418  0.1559
 9108SOL    HW130822   2.029   7.812   0.053 -0.1032  1.9346  0.1055
 9108SOL    HW230823   1.984   7.770  -0.085  1.7709 -1.6185  0.4572
 9109SOL     OW30824   7.077   7.768   5.866  0.0553 -0.5224  0.1512
 9109SOL    HW130825   7.036   7.686   5.893 -1.1504  0.6120  1.9977
 9109SOL    HW230826   7.165   7.765   5.903 -0.2313 -0.6870  0.8314
 9110SOL     OW30827  10.874   7.577   2.405  0.4014  0.0153 -0.0624
 9110SOL    HW130828  10.880   7.587   2.500  0.5585 -2.2882  0.2313
 9110SOL    HW230829  10.964   7.560   2.376  0.2004 -0.4634 -0.4405
 9111SOL     OW30830   6.081   1.121   6.614 -0.2064 -0.1742 -0.1059
 9111SOL    HW130831   6.091   1.044   6.559  1.1594 -0.4332  0.4753
 9111SOL    HW230832   6.048   1.087   6.697  1.9693 -0.4111  0.7291
 9112SOL     OW30833   0.528   8.317   1.654 -0.0631  0.1585 -0.7721
 9112SOL    HW130834   0.475   8.295   1.577 -2.8801 -0.6648  1.2697
 9112SOL    HW230835   0.525   8.412   1.659 -4.0988  0.1148  0.9268
 9113SOL     OW30836   8.159   6.561   4.786 -0.7517  0.3688 -0.3069
 9113SOL    HW130837   8.135   6.479   4.743 -0.6505 -0.2262  0.7187
 9113SOL    HW230838   8.146   6.543   4.879 -0.1029  1.3122 -0.0207
 9114SOL     OW30839   6.046   8.234   6.998  0.0226 -0.0024 -0.1772
 9114SOL    HW130840   6.017   8.181   6.923  1.4574 -0.3348 -0.5192
 9114SOL    HW230841   6.036   8.176   7.073  0.3324 -0.3145 -0.3731
 9115SOL     OW30842   4.447   7.036   2.754  0.2059 -0.5596 -0.0314
 9115SOL    HW130843   4.353   7.054   2.762 -0.4430 -1.6346 -3.3976
 9115SOL    HW230844   4.457   6.947   2.787  0.0461 -0.4126  0.4107
 9116SOL     OW30845   6.018   4.740   8.009  0.0885  0.2896 -0.2813
 9116SOL    HW130846   5.993   4.658   8.053 -2.5531  0.7895 -0.6669
 9116SOL    HW230847   6.071   4.787   8.073 -1.8889  0.0773  1.6221
 9117SOL     OW30848   4.797   3.062   1.619 -0.1377  0.0736 -0.4321
 9117SOL    HW130849   4.752   3.098   1.542 -0.3384 -0.6304 -0.6560
 9117SOL    HW230850   4.890   3.078   1.602 -0.2919  1.7363  0.1343
 9118SOL     OW30851   7.962   8.994   8.283  0.3275 -0.4138 -0.8965
 9118SOL    HW130852   7.953   9.048   8.204 -2.8568 -0.2200 -0.5471
 9118SOL    HW230853   7.880   8.944   8.287  1.8550 -3.0492  0.4566
 9119SOL     OW30854   9.105   8.667   4.720  0.7099  0.1186  0.0404
 9119SOL    HW130855   9.197   8.641   4.716  0.8629  0.6227  0.2271
 9119SOL    HW230856   9.062   8.594   4.764  0.5000 -1.4579 -2.5683
 9120SOL     OW30857   9.444   8.591   0.664 -0.1297 -0.2298  0.8245
 9120SOL    HW130858   9.528   8.567   0.703  0.0082  0.7142  1.1493
 9120SOL    HW230859   9.379   8.538   0.710  0.1848 -0.1968  1.3080
 9121SOL     OW30860   1.758   5.629   2.586  0.1482 -0.3243 -0.3012
 9121SOL    HW130861   1.850   5.657   2.590  0.5543 -1.4396 -1.0492
 9121SOL    HW230862   1.764   5.534   2.576 -1.0405 -0.2294 -2.3878
 9122SOL     OW30863  10.924   0.731  10.422 -0.1529  0.1783  0.5354
 9122SOL    HW130864  10.894   0.815  10.457  1.1964  0.1064  1.9576
 9122SOL    HW230865  10.876   0.665  10.472 -0.4164  0.0868  0.1672
 9123SOL     OW30866   5.934   1.950   2.130  0.5233 -0.2527  0.0275
 9123SOL    HW130867   6.029   1.936   2.133  0.7090  0.8643  0.0634
 9123SOL    HW230868   5.913   1.987   2.216  0.3104  0.8036 -0.4557
 9124SOL     OW30869  10.177   7.492   9.251  0.1471  0.3211 -0.1913
 9124SOL    HW130870  10.214   7.575   9.222  0.8871  1.0962  2.6096
 9124SOL    HW230871  10.099   7.518   9.302  0.0851 -0.7276  0.2700
 9125SOL     OW30872   0.846   7.557   1.154 -0.4370  0.3373  0.2906
 9125SOL    HW130873   0.784   7.611   1.105  0.0310  0.9683  0.3761
 9125SOL    HW230874   0.911   7.530   1.089 -0.7907 -0.3144  0.2032
 9126SOL     OW30875   3.942   0.936   0.160 -0.3238  0.2856 -0.7461
 9126SOL    HW130876   3.968   1.026   0.177 -0.4562  0.4288 -1.2763
 9126SOL    HW230877   3.980   0.885   0.232  0.5565  0.6266 -0.9586
 9127SOL     OW30878  10.121   3.769   3.530 -0.2015  0.1335 -0.3068
 9127SOL    HW130879  10.086   3.700   3.586 -2.8344  0.8396 -0.9351
 9127SOL    HW230880  10.044   3.814   3.497  1.3549  1.6294 -2.1315
 9128SOL     OW30881   3.106   1.865   3.808 -0.1781 -0.0900  0.2914
 9128SOL    HW130882   3.152   1.781   3.801 -0.0502 -0.0672  0.7967
 9128SOL    HW230883   3.036   1.848   3.872  1.2649  0.7804  2.1976
 9129SOL     OW30884   8.290   1.061   8.614  0.0306  1.1917 -0.4413
 9129SOL    HW130885   8.383   1.043   8.620 -0.3338 -0.3012  2.3074
 9129SOL    HW230886   8.282   1.155   8.630  1.0348  1.2710 -0.3570
 9130SOL     OW30887   8.854   4.086   6.766 -0.0797 -0.1991 -0.1850
 9130SOL    HW130888   8.766   4.091   6.802  0.2504  0.0250  0.6068
 9130SOL    HW230889   8.842   4.054   6.676 -0.9433 -0.3761 -0.0079
 9131SOL     OW30890   1.342   2.571   0.293 -0.1424 -0.0413 -0.3694
 9131SOL    HW130891   1.414   2.625   0.327 -0.6410 -0.2865  1.1831
 9131SOL    HW230892   1.352   2.487   0.337 -1.3991 -0.0629 -0.0666
 9132SOL     OW30893   3.975   3.070   8.580 -0.7916  0.8421 -0.0604
 9132SOL    HW130894   3.999   3.134   8.513  0.6919  1.3311  0.8853
 9132SOL    HW230895   3.919   3.118   8.640 -0.9969  0.7962 -0.2153
 9133SOL     OW30896   5.593   2.271   2.317 -0.4628  1.0717 -0.7286
 9133SOL    HW130897   5.605   2.329   2.242 -1.8282  0.3645 -1.5475
 9133SOL    HW230898   5.590   2.183   2.278 -1.0254  0.6770  0.1797
 9134SOL     OW30899   7.315   5.721   9.972 -0.1948  0.0988  0.2898
 9134SOL    HW130900   7.319   5.711  10.067  1.6881 -0.0092  0.2348
 9134SOL    HW230901   7.280   5.638   9.941  0.4061 -0.3646  0.8231
 9135SOL     OW30902   1.499   9.379   9.280  0.3023 -0.6498 -0.2681
 9135SOL    HW130903   1.505   9.474   9.267 -1.4962 -0.0649  2.2961
 9135SOL    HW230904   1.590   9.350   9.280  1.2864  1.7847  2.6342
 9136SOL     OW30905   4.275   0.744   6.880  0.1332 -0.1186 -0.5576
 9136SOL    HW130906   4.279   0.836   6.852  1.8316  0.8739  2.5613
 9136SOL    HW230907   4.365   0.721   6.903 -0.4146 -2.2786 -0.3266
 9137SOL     OW30908   9.929   7.373  10.360 -0.2176 -0.2521 -0.2313
 9137SOL    HW130909   9.959   7.304  10.420  2.6240  0.6681 -0.4286
 9137SOL    HW230910   9.954   7.341  10.273  1.2890  1.0511 -0.3079
 9138SOL     OW30911   3.775   9.633   8.303 -0.0288 -0.3047 -0.5191
 9138SOL    HW130912   3.723   9.713   8.308  3.5421  2.6532 -3.5668
 9138SOL    HW230913   3.851   9.650   8.358  0.4280 -1.9888 -0.5633
 9139SOL     OW30914   2.112   0.610   1.998 -0.1370  0.0787 -0.1189
 9139SOL    HW130915   2.044   0.638   1.937  0.2437  1.2983 -0.0197
 9139SOL    HW230916   2.134   0.689   2.047 -0.0914 -0.7675  1.2743
 9140SOL     OW30917   6.088   6.328   6.702  0.0692 -0.2307 -0.0184
 9140SOL    HW130918   6.092   6.279   6.620  1.5154 -0.6179  0.2525
 9140SOL    HW230919   6.179   6.331   6.733 -0.4982 -0.4709  1.7966
 9141SOL     OW30920   8.746   0.039   0.417 -0.0852 -0.0475  0.2101
 9141SOL    HW130921   8.741   0.004   0.328  0.2697 -0.5559  0.3891
 9141SOL    HW230922   8.664   0.011   0.458  0.5052 -1.3165  0.5771
 9142SOL     OW30923   7.867   8.491   7.356  0.0889  0.2846 -0.4725
 9142SOL    HW130924   7.773   8.498   7.338  0.3522  0.5060 -1.8845
 9142SOL    HW230925   7.903   8.576   7.332  0.4506  0.7993  1.6662
 9143SOL     OW30926   4.802   5.485  10.185  0.5688  0.3882  0.6237
 9143SOL    HW130927   4.732   5.421  10.175  2.9466 -2.2446 -0.5931
 9143SOL    HW230928   4.799   5.509  10.278 -1.4955 -0.1144  0.7323
 9144SOL     OW30929   1.806   3.916   4.006 -0.3038  0.2409 -0.1688
 9144SOL    HW130930   1.736   3.959   4.056  2.0866  1.9889  2.0090
 9144SOL    HW230931   1.828   3.839   4.058  1.6967  1.6698  1.2938
 9145SOL     OW30932   8.081   4.531   5.157 -0.0280  0.3491 -0.4168
 9145SOL    HW130933   8.140   4.591   5.202 -0.7380  1.1044 -0.4589
 9145SOL    HW230934   8.073   4.567   5.068 -0.7713  0.4350 -0.3248
 9146SOL     OW30935   2.230   4.208   7.668 -0.0111  0.2280 -0.0352
 9146SOL    HW130936   2.237   4.113   7.662 -1.4231  0.0630  0.4144
 9146SOL    HW230937   2.205   4.225   7.759  0.9330  1.0942  0.0762
 9147SOL     OW30938   7.476   7.302   5.120 -0.5681  0.4736 -0.0118
 9147SOL    HW130939   7.438   7.256   5.045  0.3375  0.9253 -0.7729
 9147SOL    HW230940   7.539   7.241   5.156 -1.4598  0.0067  0.8019
 9148SOL     OW30941   9.485   2.089   0.189  0.1416  0.0141 -0.1990
 9148SOL    HW130942   9.421   2.140   0.139 -0.5720 -0.3190  0.3423
 9148SOL    HW230943   9.518   2.024   0.128 -0.8561 -0.5090 -0.2083
 9149SOL     OW30944   1.688   1.370   0.749  0.3296  0.2333 -0.1287
 9149SOL    HW130945   1.778   1.337   0.749 -0.4578 -2.2312  1.3943
 9149SOL    HW230946   1.668   1.386   0.657  1.7316 -1.0164 -0.6920
 9150SOL     OW30947   5.844   6.181   3.174 -0.1913 -0.2205 -0.0366
 9150SOL    HW130948   5.875   6.244   3.109 -0.3595  3.2511  2.9352
 9150SOL    HW230949   5.923   6.136   3.203  0.5958  1.4044  0.4406
 9151SOL     OW30950   7.892   8.168   4.937  0.3806 -0.0074 -0.1655
 9151SOL    HW130951   7.905   8.074   4.949  1.0803  0.0446 -0.4833
 9151SOL    HW230952   7.847   8.176   4.853 -1.6893 -0.1781  0.8593
 9152SOL     OW30953   7.949   6.565  10.389 -0.4792 -0.1487  0.2759
 9152SOL    HW130954   8.040   6.574  10.418  0.0847  3.1439 -1.9604
 9152SOL    HW230955   7.956   6.528  10.301 -1.7170 -3.6779  1.4781
 9153SOL     OW30956   4.254  10.107   1.290  0.0821 -0.8241 -0.1664
 9153SOL    HW130957   4.271  10.044   1.360  2.6072  0.5301  0.5754
 9153SOL    HW230958   4.162  10.130   1.300 -0.3705 -2.8333  0.8172
 9154SOL     OW30959  10.164   8.758   5.063  0.4935 -1.1490 -0.0147
 9154SOL    HW130960  10.252   8.795   5.055 -0.4423  1.5275  1.0220
 9154SOL    HW230961  10.127   8.765   4.975  0.1978  0.9265  0.2327
 9155SOL     OW30962   9.546   8.882   7.514 -0.3432 -0.4887 -0.1176
 9155SOL    HW130963   9.564   8.819   7.445  0.7524 -0.1948 -0.1222
 9155SOL    HW230964   9.574   8.838   7.595  0.1466 -0.1260 -0.0875
 9156SOL     OW30965   9.907   7.562   7.182 -0.5060 -0.4951  0.0411
 9156SOL    HW130966   9.941   7.621   7.249  0.8650 -0.4858 -0.6227
 9156SOL    HW230967   9.985   7.520   7.145 -1.1693 -0.1430 -1.8659
 9157SOL     OW30968   2.585   3.371  10.361 -0.2361  0.1503  0.0644
 9157SOL    HW130969   2.586   3.280  10.389 -1.5638 -0.6928 -2.3364
 9157SOL    HW230970   2.658   3.412  10.408  0.7477 -2.2730  0.7778
 9158SOL     OW30971   4.115   4.438   5.302 -0.7192 -0.1957  0.2446
 9158SOL    HW130972   4.188   4.384   5.331 -0.3039 -0.1479 -0.6875
 9158SOL    HW230973   4.089   4.400   5.218 -2.2083 -0.6359  0.8701
 9159SOL     OW30974   2.385   8.150   8.277 -0.8274  0.0944 -0.1034
 9159SOL    HW130975   2.327   8.208   8.326 -1.1299 -0.1722 -0.1493
 9159SOL    HW230976   2.328   8.106   8.214 -0.4985  0.1830 -0.4677
 9160SOL     OW30977   2.462   3.382   5.891  0.2965  0.1162 -0.4934
 9160SOL    HW130978   2.546   3.340   5.909  0.3885  0.3323 -0.4106
 9160SOL    HW230979   2.468   3.467   5.936  0.9807  1.1857 -2.4764
 9161SOL     OW30980   5.318   6.767   9.824 -0.1888 -0.3887  0.6718
 9161SOL    HW130981   5.384   6.698   9.811  0.4016  0.0772  1.1208
 9161SOL    HW230982   5.262   6.761   9.747  0.0330 -1.1723  0.5528
 9162SOL     OW30983   3.745   5.941   6.624 -0.0946 -0.0026  0.0980
 9162SOL    HW130984   3.680   5.942   6.554 -0.6262  0.4208  0.5912
 9162SOL    HW230985   3.718   5.868   6.680  1.5575 -1.7398 -1.2572
 9163SOL     OW30986  10.972   2.513  10.955  0.6370 -0.4055 -0.0240
 9163SOL    HW130987  11.020   2.567  10.892 -0.7576 -1.1718 -1.8491
 9163SOL    HW230988  10.910   2.574  10.996 -0.0086 -0.2856 -1.1059
 9164SOL     OW30989   6.703   1.393   2.857 -0.2670 -0.4572 -0.1034
 9164SOL    HW130990   6.727   1.383   2.950  0.5813 -1.0438 -0.3756
 9164SOL    HW230991   6.711   1.487   2.840 -0.6489 -0.3111  0.4665
 9165SOL     OW30992   5.871   7.014   8.306 -0.6448 -0.0926 -0.5060
 9165SOL    HW130993   5.900   7.105   8.307  1.4881 -0.7304 -0.1332
 9165SOL    HW230994   5.804   7.009   8.374 -0.0790  0.9839  0.1457
 9166SOL     OW30995   1.185   9.601   2.664  0.0524  0.0739  0.4137
 9166SOL    HW130996   1.198   9.520   2.713  0.7679 -0.5274 -0.7252
 9166SOL    HW230997   1.225   9.584   2.579  0.5384  1.7565  0.2724
 9167SOL     OW30998   9.805   0.037   6.007  0.1663  0.9391  0.1342
 9167SOL    HW130999   9.822   0.131   6.008  2.9155  0.5522  1.5746
 9167SOL    HW231000   9.877  -0.000   6.059 -1.7375 -1.8194  1.0145
 9168SOL     OW31001   9.979   8.134  10.671  0.2503  0.5106 -0.3132
 9168SOL    HW131002   9.997   8.051  10.715  1.3685  0.8394 -0.1377
 9168SOL    HW231003  10.023   8.127  10.586 -0.7178  0.4338 -0.8252
 9169SOL     OW31004   4.873  10.962  10.851  0.0765  0.1292 -0.0640
 9169SOL    HW131005   4.912  10.877  10.869  0.8582  0.5807  0.3756
 9169SOL    HW231006   4.944  11.025  10.859 -0.6552  0.9266  0.4111
 9170SOL     OW31007   5.926   8.992   2.920 -0.3003 -0.5390  0.3964
 9170SOL    HW131008   5.985   8.937   2.868 -1.9710 -2.3965  0.3246
 9170SOL    HW231009   5.913   9.070   2.867 -0.7866 -1.7398 -1.3405
 9171SOL     OW31010   7.858   2.778   5.759 -0.3664 -0.0623 -0.2842
 9171SOL    HW131011   7.802   2.854   5.775  0.1660  0.2742  0.0197
 9171SOL    HW231012   7.940   2.816   5.726  0.4279 -0.3849  1.2323
 9172SOL     OW31013   7.202   1.394   4.223  0.3551 -0.5363 -0.2688
 9172SOL    HW131014   7.275   1.446   4.257 -0.6347  0.0478  1.0608
 9172SOL    HW231015   7.211   1.310   4.267  0.4006 -0.5777 -0.3559
 9173SOL     OW31016   8.148   8.306   4.888 -0.4748  0.3025  0.0959
 9173SOL    HW131017   8.118   8.394   4.864 -2.6279 -0.2565  0.4900
 9173SOL    HW231018   8.069   8.263   4.920  0.4803 -1.8582 -0.3266
 9174SOL     OW31019   3.155   7.089   7.086  0.1737 -0.3655  0.7240
 9174SOL    HW131020   3.158   7.083   7.182 -0.8717  0.5595  0.8403
 9174SOL    HW231021   3.061   7.092   7.066  0.3669  1.7070 -0.1462
 9175SOL     OW31022   2.408   8.556   3.975 -0.1451 -0.0035  0.1093
 9175SOL    HW131023   2.389   8.639   3.931 -1.1157 -0.3270 -0.0837
 9175SOL    HW231024   2.377   8.569   4.064 -2.2907 -0.8696 -0.4540
 9176SOL     OW31025   0.931   5.200   8.269 -0.1894  0.1705  0.5198
 9176SOL    HW131026   0.971   5.278   8.232  1.0096  1.1492  3.5417
 9176SOL    HW231027   1.002   5.138   8.278 -0.7798 -0.6315 -0.2318
 9177SOL     OW31028   9.597   1.493   2.681 -0.1952 -0.2658  0.5572
 9177SOL    HW131029   9.626   1.584   2.688 -0.4981 -0.2230  1.3044
 9177SOL    HW231030   9.501   1.499   2.675 -0.2767 -0.5730  1.4592
 9178SOL     OW31031   4.470   6.752   9.206  0.1824 -0.0590 -0.1851
 9178SOL    HW131032   4.396   6.813   9.205 -0.9854 -1.4327 -0.5523
 9178SOL    HW231033   4.496   6.744   9.114  0.4884  0.0528 -0.1104
 9179SOL     OW31034   5.743   1.702   0.875  0.3855 -0.8128  0.7639
 9179SOL    HW131035   5.816   1.741   0.924 -0.8639  0.5680  1.5767
 9179SOL    HW231036   5.718   1.625   0.926 -0.5173  0.2843  2.0256
 9180SOL     OW31037   7.404   2.403   6.470 -0.2269 -0.4756  0.0821
 9180SOL    HW131038   7.441   2.491   6.471 -2.9524  0.8000 -1.5656
 9180SOL    HW231039   7.470   2.350   6.424  0.9251  0.9408  0.0396
 9181SOL     OW31040   5.202   3.530   0.907 -0.3038  0.0041  0.2363
 9181SOL    HW131041   5.127   3.495   0.956 -1.5909  0.5635 -1.2491
 9181SOL    HW231042   5.190   3.497   0.818  0.8822  0.6329 -0.1844
 9182SOL     OW31043   9.593   5.672   8.215  0.0507 -0.0716  0.1581
 9182SOL    HW131044   9.656   5.638   8.151 -1.0644 -0.5543 -0.7031
 9182SOL    HW231045   9.604   5.617   8.292  1.1186  0.2517  0.2507
 9183SOL     OW31046   8.378   8.130   4.222  0.1122 -0.6768  0.4539
 9183SOL    HW131047   8.303   8.072   4.233 -2.1642  2.0013  0.0778
 9183SOL    HW231048   8.394   8.132   4.128  1.1943 -1.7798  0.5830
 9184SOL     OW31049   0.846   4.028   4.118  0.4959 -0.0286 -0.0872
 9184SOL    HW131050   0.805   3.953   4.075  1.1351 -1.5624  1.8847
 9184SOL    HW231051   0.933   4.034   4.079  0.5673 -0.5179 -0.0017
 9185SOL     OW31052   4.872  10.441   3.163 -0.1462 -0.7613 -0.1116
 9185SOL    HW131053   4.962  10.443   3.131 -0.6001  0.1041 -1.4399
 9185SOL    HW231054   4.861  10.525   3.209 -0.6074 -0.3293 -0.9869
 9186SOL     OW31055   2.785   4.482   1.442  0.2764  0.6102 -0.2074
 9186SOL    HW131056   2.712   4.489   1.380  0.6229 -1.4400 -0.8984
 9186SOL    HW231057   2.851   4.543   1.408  0.1616  0.0760 -1.4458
 9187SOL     OW31058   2.575   2.389  10.756 -0.4785  0.2244  0.0274
 9187SOL    HW131059   2.540   2.429  10.676  0.1873 -1.6348 -1.2584
 9187SOL    HW231060   2.500   2.342  10.794 -0.5143  0.1566 -0.1266
 9188SOL     OW31061  11.002   1.851   7.422  1.1479  0.5590 -0.0869
 9188SOL    HW131062  11.087   1.889   7.445  1.0724 -0.4485  2.1284
 9188SOL    HW231063  10.951   1.925   7.389  2.1949  1.6271  0.5944
 9189SOL     OW31064   3.741   3.930   5.643 -0.5849 -0.6657 -0.3924
 9189SOL    HW131065   3.800   4.003   5.661  0.8638 -1.9081  0.1196
 9189SOL    HW231066   3.705   3.907   5.729 -1.0071 -0.5925 -0.5469
 9190SOL     OW31067   1.953   7.170   2.461  0.2154 -0.1986  0.3724
 9190SOL    HW131068   1.945   7.113   2.385  1.1216  0.8241 -0.5232
 9190SOL    HW231069   1.989   7.114   2.530 -0.1136 -1.0014 -0.0983
 9191SOL     OW31070   8.151   6.787   3.008  0.1943  0.1409 -0.6431
 9191SOL    HW131071   8.205   6.772   2.931 -0.5893 -2.5698 -0.7549
 9191SOL    HW231072   8.061   6.788   2.974 -0.1732 -1.2835  0.2121
 9192SOL     OW31073   5.405   8.281   4.592 -0.0407 -0.8669 -0.1922
 9192SOL    HW131074   5.310   8.289   4.601  0.1309  0.9080  0.5576
 9192SOL    HW231075   5.422   8.187   4.594 -1.7203 -1.1925  0.3217
 9193SOL     OW31076   2.255   1.503   5.051 -0.6005 -0.2793  0.3300
 9193SOL    HW131077   2.177   1.463   5.013 -0.9791 -0.4296  1.2273
 9193SOL    HW231078   2.227   1.592   5.075 -0.2057  0.0069 -0.2511
 9194SOL     OW31079   1.939   9.904   8.718  0.1209  0.0997 -0.1958
 9194SOL    HW131080   1.992   9.915   8.639  0.4010 -0.0192 -0.0260
 9194SOL    HW231081   1.963   9.817   8.751  0.7009  0.5316  0.5385
 9195SOL     OW31082  10.084   1.306   8.039 -0.9470  0.0229  0.5552
 9195SOL    HW131083  10.046   1.240   7.981 -1.1726  1.3609 -0.8842
 9195SOL    HW231084  10.012   1.367   8.056 -0.0528  1.4393 -0.4981
 9196SOL     OW31085   9.588   5.303   7.554 -0.1433 -0.2126  0.7080
 9196SOL    HW131086   9.608   5.347   7.471 -0.2443 -0.1605  0.7105
 9196SOL    HW231087   9.550   5.372   7.609 -0.6574 -0.3869  0.5762
 9197SOL     OW31088   4.203   6.095   6.257 -0.3373  0.4024 -0.0076
 9197SOL    HW131089   4.155   6.025   6.213  1.0616 -0.4138 -0.2995
 9197SOL    HW231090   4.183   6.083   6.350  1.7570 -2.0023  0.2609
 9198SOL     OW31091   8.270   7.541   4.022  0.0481 -0.4980  0.1333
 9198SOL    HW131092   8.274   7.529   3.927  0.1175 -1.0758  0.2047
 9198SOL    HW231093   8.226   7.462   4.054  1.2240 -0.9514  0.7074
 9199SOL     OW31094   4.234   4.503   4.587 -0.2235 -0.1602  0.2640
 9199SOL    HW131095   4.281   4.501   4.504 -0.4515 -0.0699  0.1326
 9199SOL    HW231096   4.147   4.468   4.567  0.0314 -1.0434  0.6633
 9200SOL     OW31097   6.526   3.859   7.660 -0.0794  0.3280  0.0386
 9200SOL    HW131098   6.586   3.926   7.690  2.0781 -0.3322 -2.3995
 9200SOL    HW231099   6.539   3.785   7.720  1.7394  0.1461 -0.5171
 9201SOL     OW31100   8.959   8.185   2.653  0.1681  0.2532 -0.3915
 9201SOL    HW131101   8.999   8.228   2.578 -1.2929  1.8746 -0.2967
 9201SOL    HW231102   8.867   8.208   2.648 -0.1252 -0.3604  1.4045
 9202SOL     OW31103   3.915   9.077   2.647  0.9973 -0.2611  0.0576
 9202SOL    HW131104   3.969   9.111   2.718  0.4373  1.7393 -0.4034
 9202SOL    HW231105   3.842   9.138   2.641  0.9017 -0.5088 -2.0511
 9203SOL     OW31106   6.150   1.791   5.896 -0.5469 -0.1182  0.4231
 9203SOL    HW131107   6.237   1.790   5.936 -0.4155  0.2159  0.1501
 9203SOL    HW231108   6.148   1.872   5.845  0.4505 -1.8999 -2.7993
 9204SOL     OW31109   8.487   2.400   2.740 -0.4831  0.1242 -0.3797
 9204SOL    HW131110   8.499   2.327   2.680  0.7672  1.0719 -1.3257
 9204SOL    HW231111   8.494   2.360   2.827 -2.3032 -1.2580 -0.7991
 9205SOL     OW31112  10.638   3.456   6.013  0.2358  0.3211 -0.6050
 9205SOL    HW131113  10.710   3.395   6.027 -0.9699 -1.1503 -0.5814
 9205SOL    HW231114  10.574   3.407   5.962 -2.4942  0.1468  2.6095
 9206SOL     OW31115   5.109   1.441   2.162 -0.3279  0.2644  0.0366
 9206SOL    HW131116   5.133   1.525   2.202  1.3153 -1.6982  3.7069
 9206SOL    HW231117   5.190   1.409   2.123  0.2765 -1.2579  2.2794
 9207SOL     OW31118   4.278   6.665   5.694  0.0750  0.3299  0.4628
 9207SOL    HW131119   4.246   6.722   5.624  1.8978  2.4519  1.2744
 9207SOL    HW231120   4.201   6.612   5.718 -0.6592 -0.4419 -2.9901
 9208SOL     OW31121   3.054   3.260   3.379 -0.7351  0.2245 -0.1398
 9208SOL    HW131122   2.974   3.307   3.355  0.0813  1.5123 -0.4051
 9208SOL    HW231123   3.068   3.282   3.472 -1.7713 -1.6425  0.5082
 9209SOL     OW31124   4.614   3.097  10.564 -0.1519  0.2863 -0.3002
 9209SOL    HW131125   4.548   3.077  10.630 -0.1259 -0.6327 -0.5332
 9209SOL    HW231126   4.582   3.176  10.521  1.2692  2.7258  2.7140
 9210SOL     OW31127   6.937   1.088   5.965  0.0200 -0.2530 -0.0519
 9210SOL    HW131128   6.983   1.116   6.044 -1.3542  0.1220  0.6389
 9210SOL    HW231129   6.950   0.993   5.962 -0.9256 -0.4566  1.3163
 9211SOL     OW31130   4.434  10.871  10.318  0.0022  0.3395 -0.1819
 9211SOL    HW131131   4.357  10.848  10.371  1.9187 -2.3428  1.6830
 9211SOL    HW231132   4.469  10.950  10.361  0.3434 -0.5923  1.3369
 9212SOL     OW31133   9.448   9.803   1.289 -0.1288 -0.7643  0.1248
 9212SOL    HW131134   9.479   9.747   1.360 -0.9386  0.5515  1.6103
 9212SOL    HW231135   9.496   9.885   1.301 -2.0923  0.3662  0.8079
 9213SOL     OW31136   0.994   2.524   9.162 -0.3329  0.4771  0.5662
 9213SOL    HW131137   1.028   2.563   9.081  0.6644 -0.7436  0.3789
 9213SOL    HW231138   0.905   2.496   9.140  0.6682 -1.8543 -0.8320
 9214SOL     OW31139   6.765   0.623   0.072  0.1739 -0.4896 -0.1403
 9214SOL    HW131140   6.833   0.684   0.100  0.7069  0.0161 -2.4026
 9214SOL    HW231141   6.683   0.670   0.085  0.3938 -0.2649  0.4789
 9215SOL     OW31142   6.535   0.976   5.784  0.1137  0.2021 -0.3644
 9215SOL    HW131143   6.610   0.925   5.813  0.7874 -0.3054 -2.7310
 9215SOL    HW231144   6.461   0.916   5.788  0.2836  0.0098 -0.1112
 9216SOL     OW31145   9.794   1.004  10.454 -0.1662  0.3070 -0.8960
 9216SOL    HW131146   9.757   1.035  10.371 -1.7815 -2.7965 -1.4993
 9216SOL    HW231147   9.723   1.015  10.517  0.6459  1.5199 -0.1481
 9217SOL     OW31148   4.996   5.244   6.712 -0.4074 -0.5130 -0.2222
 9217SOL    HW131149   4.937   5.311   6.748 -3.1381 -2.4980 -0.6925
 9217SOL    HW231150   5.058   5.293   6.658 -1.2317  1.7686  0.7666
 9218SOL     OW31151   3.927   2.611   2.611 -0.2130 -0.0639  0.0386
 9218SOL    HW131152   3.847   2.609   2.663 -0.7643 -0.3029 -0.8098
 9218SOL    HW231153   3.930   2.700   2.576  1.4919  0.9626  2.4789
 9219SOL     OW31154   2.978   6.716   6.863  0.4689 -0.6463 -0.3614
 9219SOL    HW131155   2.948   6.806   6.869 -0.2724 -0.8818 -0.4146
 9219SOL    HW231156   3.049   6.718   6.799 -0.4652 -0.3169 -1.4253
 9220SOL     OW31157   6.498   3.508   8.336 -0.1510  0.0341 -0.6944
 9220SOL    HW131158   6.456   3.546   8.413  0.9433  1.5363 -0.7872
 9220SOL    HW231159   6.587   3.485   8.365 -0.7243 -2.4473 -0.6767
 9221SOL     OW31160   3.299   7.931   7.143 -0.2077 -0.5175  0.1020
 9221SOL    HW131161   3.307   7.847   7.187  1.3829 -0.0367  0.8395
 9221SOL    HW231162   3.206   7.940   7.122 -1.2246 -0.5337  3.8931
 9222SOL     OW31163   4.183   2.702   0.475 -0.2634 -0.0110  0.2466
 9222SOL    HW131164   4.151   2.746   0.397  0.4845 -2.4489 -1.5786
 9222SOL    HW231165   4.233   2.769   0.522 -0.6385  1.5037 -1.4264
 9223SOL     OW31166   1.586   0.387   2.486 -0.4004 -0.4103  0.3483
 9223SOL    HW131167   1.518   0.429   2.539 -1.2965 -0.5186 -0.6931
 9223SOL    HW231168   1.601   0.303   2.529 -0.3137 -0.0364  1.0658
 9224SOL     OW31169   6.040   0.804   4.800  0.2504 -0.5380 -0.1225
 9224SOL    HW131170   6.089   0.724   4.780 -0.4602 -0.8313 -0.7235
 9224SOL    HW231171   5.957   0.773   4.836  0.0871 -0.0592 -0.0719
 9225SOL     OW31172   4.673   8.460   3.448 -0.0349 -0.1426 -0.0784
 9225SOL    HW131173   4.726   8.382   3.468 -1.5581 -1.2864 -0.3540
 9225SOL    HW231174   4.669   8.463   3.353 -1.1716 -0.5928 -0.0633
 9226SOL     OW31175   1.281   6.071   0.947 -0.1516 -0.6145 -0.4396
 9226SOL    HW131176   1.197   6.032   0.925  0.3959 -1.9464 -0.2415
 9226SOL    HW231177   1.306   6.032   1.030  0.7615 -0.4024 -0.5967
 9227SOL     OW31178   5.001   4.111   0.358  0.2988 -0.1366 -0.1603
 9227SOL    HW131179   5.013   4.203   0.333  0.6482  0.1614  1.0253
 9227SOL    HW231180   5.025   4.062   0.279  1.0057  0.7580 -0.5263
 9228SOL     OW31181   8.206   6.850   5.054  0.9310  0.2097 -0.0268
 9228SOL    HW131182   8.122   6.808   5.074  1.3361 -0.6558 -0.1063
 9228SOL    HW231183   8.259   6.781   5.014  1.2819  1.0566 -1.0591
 9229SOL     OW31184   5.449   2.129   0.380 -0.2863  0.0527 -0.0646
 9229SOL    HW131185   5.512   2.198   0.397  0.9843 -0.6277 -1.7427
 9229SOL    HW231186   5.395   2.162   0.308 -0.5771 -0.1569  0.0518
 9230SOL     OW31187   6.098   4.793   9.740  0.0292  0.4863 -0.0916
 9230SOL    HW131188   6.049   4.832   9.668 -0.5135  1.5489  0.8141
 9230SOL    HW231189   6.189   4.808   9.718 -0.1389  1.0027 -0.4600
 9231SOL     OW31190   1.961   9.095   6.201 -0.4321 -0.5380  0.5367
 9231SOL    HW131191   2.007   9.077   6.283 -1.6254 -0.2136  1.3051
 9231SOL    HW231192   1.971   9.015   6.150  2.2247  0.0124  0.0171
 9232SOL     OW31193   7.029   0.482   3.726  0.1323  0.7338 -0.3960
 9232SOL    HW131194   6.957   0.535   3.690  0.8977  1.6079 -0.6876
 9232SOL    HW231195   7.101   0.545   3.737  0.5702  0.0593  0.7349
 9233SOL     OW31196   9.441   5.950   9.177 -0.1274  0.3116  0.1762
 9233SOL    HW131197   9.354   5.914   9.198 -0.3596  0.4279 -0.5714
 9233SOL    HW231198   9.477   5.889   9.113 -0.0010  0.7160 -0.1379
 9234SOL     OW31199   3.096   3.395   3.676 -0.0873  0.1869 -0.3613
 9234SOL    HW131200   3.190   3.403   3.660 -0.0901 -0.9268 -0.9850
 9234SOL    HW231201   3.073   3.475   3.724  1.3970 -0.0631  0.8250
 9235SOL     OW31202   2.106   0.779   9.114  0.7763 -0.8205 -0.2233
 9235SOL    HW131203   2.097   0.687   9.090  4.1061 -0.9969 -1.3789
 9235SOL    HW231204   2.191   0.805   9.077  0.3599  2.4882  0.8050
 9236SOL     OW31205  10.700   8.702   3.571 -0.5334  0.5218 -0.1726
 9236SOL    HW131206  10.769   8.761   3.541  0.6803 -1.3925 -1.3378
 9236SOL    HW231207  10.735   8.661   3.650 -1.1370  0.9183  0.3109
 9237SOL     OW31208   9.935  10.932   9.957 -0.4594 -0.5796  0.1396
 9237SOL    HW131209   9.978  10.892   9.881 -0.0789  2.5472 -1.4670
 9237SOL    HW231210  10.006  10.976  10.004 -1.1558  0.1433  0.5261
 9238SOL     OW31211   7.395   4.933   1.631  0.1575  0.2148  0.3674
 9238SOL    HW131212   7.357   5.010   1.673 -1.0106 -0.0160 -0.2157
 9238SOL    HW231213   7.354   4.931   1.544 -2.2921 -2.7849  1.4425
 9239SOL     OW31214   7.725   4.950   7.176 -0.0363 -0.1819 -0.3996
 9239SOL    HW131215   7.732   4.913   7.264  0.0980  2.6063  0.8634
 9239SOL    HW231216   7.631   4.962   7.163  0.0140  0.8436  0.0630
 9240SOL     OW31217   0.917  10.198   4.539  0.7791  0.1074  0.1355
 9240SOL    HW131218   0.836  10.249   4.538  1.2654  0.8964 -0.1947
 9240SOL    HW231219   0.922  10.158   4.453  0.6015 -0.1639  0.2518
 9241SOL     OW31220   1.662   3.689   5.384  0.6292  0.2654 -0.1321
 9241SOL    HW131221   1.746   3.706   5.427  0.4169  0.2258  0.3105
 9241SOL    HW231222   1.637   3.772   5.345  0.9160  0.2537 -0.3458
 9242SOL     OW31223   7.962   4.263   3.735  0.3852 -0.3222  0.5317
 9242SOL    HW131224   7.975   4.202   3.808  2.8668  0.7512  1.0711
 9242SOL    HW231225   8.005   4.220   3.661 -1.9186 -1.2959 -0.3523
 9243SOL     OW31226   5.432  10.453   5.825 -0.5266  0.3201 -0.2079
 9243SOL    HW131227   5.467  10.401   5.897  1.0192  1.9185  0.2737
 9243SOL    HW231228   5.397  10.389   5.763  0.5331 -1.2281  0.7290
 9244SOL     OW31229   8.831   0.430   5.878  0.6347  0.8137 -0.2784
 9244SOL    HW131230   8.808   0.508   5.828 -2.2715  0.3173  0.0806
 9244SOL    HW231231   8.812   0.453   5.969  1.5253  0.2705  0.0556
 9245SOL     OW31232   6.224  10.067   7.403 -0.2180 -0.6364  0.0227
 9245SOL    HW131233   6.258  10.142   7.452 -1.6008 -0.5516  0.9344
 9245SOL    HW231234   6.291  10.048   7.337 -0.5252  2.4465 -1.3548
 9246SOL     OW31235  10.645   1.634   5.954  0.1994  0.2348 -0.8530
 9246SOL    HW131236  10.558   1.601   5.977  0.6564 -1.7070 -1.6812
 9246SOL    HW231237  10.645   1.725   5.983 -2.4639  0.6149 -1.7495
 9247SOL     OW31238   4.039   2.554   4.169 -0.3525  0.0451  0.5632
 9247SOL    HW131239   4.029   2.477   4.113  0.0261  0.6636 -0.3812
 9247SOL    HW231240   4.093   2.614   4.118  0.0464  0.6153  1.6247
 9248SOL     OW31241  10.412   5.047   3.044 -0.4213  0.1560 -0.0725
 9248SOL    HW131242  10.328   5.003   3.053  0.1874 -1.1562 -0.6378
 9248SOL    HW231243  10.476   4.983   3.073  0.4139  1.1064  0.2533
 9249SOL     OW31244   2.790   1.745   1.246 -0.3730  0.2794  0.1204
 9249SOL    HW131245   2.789   1.663   1.197  1.3636 -0.4096  1.1362
 9249SOL    HW231246   2.819   1.810   1.182 -0.5627 -0.1241 -0.3858
 9250SOL     OW31247  10.875   4.765   2.912  0.2326 -0.1604  0.2318
 9250SOL    HW131248  10.933   4.776   2.987  1.2336  1.8739 -0.7508
 9250SOL    HW231249  10.809   4.834   2.921 -0.9757 -1.2930  0.3648
 9251SOL     OW31250   8.755   1.911   4.156  0.2862  0.3984 -0.2500
 9251SOL    HW131251   8.844   1.924   4.124  0.4785 -1.6996 -0.6809
 9251SOL    HW231252   8.763   1.918   4.251  0.3418  3.0927 -0.3803
 9252SOL     OW31253   8.381   2.992   6.316  1.0316  0.0492 -0.4800
 9252SOL    HW131254   8.463   2.973   6.362  1.1496 -0.0537 -0.7313
 9252SOL    HW231255   8.318   3.009   6.386  0.7987 -1.7272 -0.2229
 9253SOL     OW31256   1.266   5.727  10.875  0.2208  0.1779 -0.3805
 9253SOL    HW131257   1.286   5.635  10.892 -0.3452  0.4283  2.1278
 9253SOL    HW231258   1.343   5.774  10.906 -1.1058  0.7058  2.5370
 9254SOL     OW31259   8.919   1.865   5.376 -0.4043 -0.3269 -0.2892
 9254SOL    HW131260   9.011   1.842   5.364 -0.1370  0.7358 -0.4321
 9254SOL    HW231261   8.920   1.927   5.449 -0.9388  0.0780 -0.6235
 9255SOL     OW31262   2.300   6.996   2.272 -0.1663  0.3204  0.6615
 9255SOL    HW131263   2.386   7.002   2.231 -0.5009 -0.3387 -0.1457
 9255SOL    HW231264   2.319   6.992   2.366  0.5933  2.1754  0.6334
 9256SOL     OW31265   8.950   6.798   3.951 -0.1623  0.0281 -0.1774
 9256SOL    HW131266   9.020   6.759   4.003 -1.1834 -0.0312  1.1949
 9256SOL    HW231267   8.932   6.882   3.994 -1.4409 -0.2970 -0.0503
 9257SOL     OW31268   1.941   6.987   8.630  0.6309 -0.1342  0.2435
 9257SOL    HW131269   1.993   6.952   8.702  1.2949 -0.6493 -0.4760
 9257SOL    HW231270   1.895   6.911   8.594  0.5370  0.0688 -0.0724
 9258SOL     OW31271   4.578   0.204   5.883  0.3669  0.1053  0.3583
 9258SOL    HW131272   4.590   0.236   5.793 -1.0415  0.0899  0.1274
 9258SOL    HW231273   4.489   0.168   5.883 -0.2636  1.4696  2.1449
 9259SOL     OW31274   1.469   2.746   4.949  0.3398  0.4407 -0.4096
 9259SOL    HW131275   1.484   2.677   4.885  0.7605 -0.0313  0.1893
 9259SOL    HW231276   1.374   2.759   4.948  0.2755 -0.0321 -0.6383
 9260SOL     OW31277   4.889   9.976   6.155  0.0784 -0.4843 -0.2676
 9260SOL    HW131278   4.918   9.976   6.246 -1.8274 -0.2682  0.3861
 9260SOL    HW231279   4.880  10.069   6.132  2.1105 -0.4734 -1.2604
 9261SOL     OW31280   1.061   9.792   3.223 -0.0235  0.0777  0.2909
 9261SOL    HW131281   1.007   9.733   3.276  0.1839 -0.9365 -0.5778
 9261SOL    HW231282   1.151   9.764   3.240 -0.0013 -1.7266 -2.1015
 9262SOL     OW31283   2.940   3.124   5.395 -0.9194  0.2099  0.0926
 9262SOL    HW131284   2.969   3.064   5.464  0.4874  2.9827  2.0762
 9262SOL    HW231285   2.889   3.191   5.441 -1.1522  1.3878 -1.7838
 9263SOL     OW31286   7.616   5.762   8.819  0.3116 -0.5158 -0.7229
 9263SOL    HW131287   7.698   5.725   8.786  1.4845 -0.7404  2.1379
 9263SOL    HW231288   7.642   5.846   8.858 -0.9354 -0.3410 -0.2358
 9264SOL     OW31289   2.565   0.102   6.807  0.0059 -0.0741  0.1655
 9264SOL    HW131290   2.612   0.085   6.725 -0.5645  1.3682 -0.4923
 9264SOL    HW231291   2.623   0.067   6.875  1.0546 -0.2121 -0.7652
 9265SOL     OW31292  10.515   2.140   2.276  0.0882  0.1955  0.4775
 9265SOL    HW131293  10.536   2.219   2.327 -0.1741 -0.1981  1.2019
 9265SOL    HW231294  10.524   2.168   2.185 -0.7342  1.2839  0.7068
 9266SOL     OW31295   4.687   4.788   9.109 -0.1600  0.4225 -0.0439
 9266SOL    HW131296   4.627   4.841   9.161 -1.9464  0.4164 -1.9679
 9266SOL    HW231297   4.763   4.776   9.165 -2.3324 -0.4748  3.0143
 9267SOL     OW31298   4.689   6.227   6.103 -0.5196 -0.0820  0.4010
 9267SOL    HW131299   4.618   6.163   6.104 -1.2422  0.7139  0.5753
 9267SOL    HW231300   4.765   6.179   6.138 -0.8410 -1.0649 -0.1994
 9268SOL     OW31301   5.597   7.759   2.333 -0.2427 -0.0996 -0.1099
 9268SOL    HW131302   5.595   7.713   2.416  1.4087  1.6002  0.9519
 9268SOL    HW231303   5.565   7.695   2.269 -0.3846 -1.8438  1.6220
 9269SOL     OW31304   9.994   6.652   3.537 -0.1820 -0.0198 -1.1830
 9269SOL    HW131305  10.001   6.656   3.632 -0.0608  0.7064 -1.2117
 9269SOL    HW231306  10.082   6.674   3.506 -0.1111 -0.6779 -1.4586
 9270SOL     OW31307   3.239   6.359   2.516  0.0594  0.0177  0.4394
 9270SOL    HW131308   3.223   6.271   2.550 -1.6452 -0.4017 -1.2474
 9270SOL    HW231309   3.227   6.351   2.421  3.0755  1.4342 -0.1683
 9271SOL     OW31310   3.009   3.802  10.751 -0.0422 -0.1598  0.1305
 9271SOL    HW131311   3.006   3.834  10.661 -2.2475 -1.2091 -0.2445
 9271SOL    HW231312   3.060   3.867  10.799  0.1719  1.0290 -1.6427
 9272SOL     OW31313   0.238  10.505   3.134 -0.5344  0.4227  0.4794
 9272SOL    HW131314   0.223  10.551   3.217 -0.8488  3.8063 -1.2926
 9272SOL    HW231315   0.161  10.448   3.124 -1.7069  1.7705  1.4253
 9273SOL     OW31316  10.020   4.511   4.210  0.1727 -0.1228  0.1843
 9273SOL    HW131317  10.002   4.600   4.242 -1.6546  0.1520 -1.4675
 9273SOL    HW231318   9.940   4.462   4.228  0.2996 -0.8095 -1.0092
 9274SOL     OW31319   1.807  10.851   5.440 -1.2445 -0.0533 -0.7048
 9274SOL    HW131320   1.771  10.939   5.434 -2.1702 -0.3999 -0.3998
 9274SOL    HW231321   1.778  10.819   5.526 -0.3677 -0.4203 -0.5340
 9275SOL     OW31322   9.704   5.907   9.670 -0.0807 -0.2800  0.0126
 9275SOL    HW131323   9.704   5.947   9.583  0.5124  0.9424  0.5543
 9275SOL    HW231324   9.708   5.813   9.653  0.7562 -0.0328 -1.2895
 9276SOL     OW31325   4.743  10.770   1.717 -0.2311  0.2534 -0.0881
 9276SOL    HW131326   4.758  10.846   1.661  2.8983 -0.5581 -0.5512
 9276SOL    HW231327   4.801  10.784   1.793 -0.3745 -1.1502  0.3145
 9277SOL     OW31328   2.475  10.099   7.912  0.3321  0.5475  0.0654
 9277SOL    HW131329   2.399  10.155   7.895 -0.0829  0.0255  0.1548
 9277SOL    HW231330   2.439  10.010   7.910  0.9142  0.3063  0.2775
 9278SOL     OW31331   7.615   7.586   2.204  0.2743  0.1186 -0.1229
 9278SOL    HW131332   7.557   7.539   2.144  0.5309 -2.4106  1.4579
 9278SOL    HW231333   7.703   7.555   2.181  0.2711 -2.1369  2.3837
 9279SOL     OW31334   6.279   0.252   8.363 -0.2290  0.4266  0.0882
 9279SOL    HW131335   6.286   0.302   8.282  0.7927 -1.1358 -0.8149
 9279SOL    HW231336   6.360   0.202   8.368 -1.7050 -2.1022  0.2906
 9280SOL     OW31337   9.060   3.391   1.291 -0.0961  0.3467 -0.3278
 9280SOL    HW131338   9.107   3.472   1.306 -1.1159  0.5822  2.1402
 9280SOL    HW231339   9.092   3.332   1.359 -1.1762 -0.4703 -0.4972
 9281SOL     OW31340   8.224   9.945   6.873 -0.1761  0.3135 -0.2726
 9281SOL    HW131341   8.169   9.963   6.950 -0.4154  1.0114 -0.5909
 9281SOL    HW231342   8.281  10.022   6.867  1.5848 -0.8594  0.6525
 9282SOL     OW31343   7.421   3.491   4.326 -0.2848  0.3550  0.1201
 9282SOL    HW131344   7.342   3.488   4.379 -2.3852 -0.0044 -2.7893
 9282SOL    HW231345   7.458   3.403   4.334 -2.4354 -0.7875 -1.5144
 9283SOL     OW31346   4.346   4.650   9.992 -0.1330  0.7535 -0.2786
 9283SOL    HW131347   4.283   4.683   9.929  0.6693  1.5499 -0.6839
 9283SOL    HW231348   4.418   4.614   9.939 -0.6281 -0.9933  0.1568
 9284SOL     OW31349   6.388   5.905   3.279  0.3285  0.2018 -0.1590
 9284SOL    HW131350   6.478   5.883   3.254 -0.4885 -0.4040 -2.7818
 9284SOL    HW231351   6.358   5.829   3.330  1.8414  1.2406  2.5339
 9285SOL     OW31352   6.046   2.757   6.336  0.6820  0.2343  0.7167
 9285SOL    HW131353   6.004   2.683   6.293  2.1619 -0.7799  0.9578
 9285SOL    HW231354   5.986   2.830   6.321 -1.0731 -1.0968  0.9437
 9286SOL     OW31355   5.380  10.118   8.443  0.3837  0.0109  0.3490
 9286SOL    HW131356   5.410  10.027   8.443  0.5615  0.0531 -1.1394
 9286SOL    HW231357   5.404  10.150   8.531  1.3481 -1.0406  0.5022
 9287SOL     OW31358   6.999   2.927   0.873 -0.0162 -0.1188 -0.1436
 9287SOL    HW131359   6.998   3.018   0.900 -0.1747 -0.3508  0.6629
 9287SOL    HW231360   6.981   2.929   0.779 -2.6361  0.5288  0.3002
 9288SOL     OW31361   5.713   3.462   1.096 -0.0177  0.5797  0.4647
 9288SOL    HW131362   5.645   3.489   1.158  0.0447  0.8516  0.4164
 9288SOL    HW231363   5.666   3.407   1.033 -0.2975  1.1791  0.1432
 9289SOL     OW31364   1.037   2.855   6.506 -0.4807  0.1603  0.1492
 9289SOL    HW131365   1.052   2.846   6.412  1.2153 -1.2700  0.5086
 9289SOL    HW231366   1.045   2.949   6.523  0.8516  0.2674 -0.8967
 9290SOL     OW31367   9.061   0.332   8.191  0.4499  0.4309  0.1945
 9290SOL    HW131368   9.082   0.261   8.131 -0.9673  0.1904 -0.0532
 9290SOL    HW231369   8.984   0.301   8.239  1.6512  0.5197  2.3273
 9291SOL     OW31370   0.280   1.065   8.624  0.2183 -0.3327 -0.5956
 9291SOL    HW131371   0.232   0.995   8.668 -0.3883  0.2642 -0.2977
 9291SOL    HW231372   0.215   1.107   8.567 -0.2741  1.8898  1.4080
 9292SOL     OW31373   6.285   2.624   6.303  0.1684  0.4495  0.4022
 9292SOL    HW131374   6.206   2.669   6.333  0.2920  0.0747  1.3215
 9292SOL    HW231375   6.292   2.548   6.361  0.5669 -0.1551 -0.4188
 9293SOL     OW31376   0.132   8.198   3.758 -0.5029 -0.3041 -0.0577
 9293SOL    HW131377   0.113   8.284   3.722  0.9587 -0.2924 -0.8752
 9293SOL    HW231378   0.196   8.160   3.698 -2.3339 -2.6675 -0.6559
 9294SOL     OW31379   2.995   3.511   3.087  0.4716  0.5482  0.2692
 9294SOL    HW131380   3.087   3.519   3.062  0.5392  2.1474  0.8504
 9294SOL    HW231381   2.997   3.511   3.183 -0.1863  2.2781  0.3241
 9295SOL     OW31382   1.585   1.205   1.203 -0.5153  0.0719 -0.4969
 9295SOL    HW131383   1.492   1.209   1.181 -0.6939 -1.2996 -0.0816
 9295SOL    HW231384   1.629   1.227   1.121 -1.1864  1.1725 -0.5896
 9296SOL     OW31385   5.048   3.351   3.642  0.5631  0.1985 -0.3512
 9296SOL    HW131386   5.042   3.374   3.549  0.8748  1.3463 -0.1047
 9296SOL    HW231387   4.962   3.314   3.663  0.4927 -0.0769 -1.0975
 9297SOL     OW31388   6.415   9.614   0.275  0.3673 -0.3418  0.3215
 9297SOL    HW131389   6.320   9.625   0.266  0.2804 -0.8456  0.6158
 9297SOL    HW231390   6.437   9.544   0.215  1.0127  1.6926 -1.9702
 9298SOL     OW31391   6.241  10.087   2.801  0.0910  0.1422  0.0077
 9298SOL    HW131392   6.198  10.108   2.883 -0.5849  1.8029 -0.7197
 9298SOL    HW231393   6.280  10.170   2.772 -3.1026  0.7668 -3.2889
 9299SOL     OW31394   6.813   0.064   9.225  0.0101  0.5213 -0.5174
 9299SOL    HW131395   6.878   0.064   9.296  0.2426 -1.5222 -0.6718
 9299SOL    HW231396   6.743   0.007   9.256 -0.5114  0.6593 -1.3995
 9300SOL     OW31397   3.505   8.232   2.194 -0.3560 -0.4043  0.1520
 9300SOL    HW131398   3.562   8.170   2.149  0.2490 -0.6060  1.1487
 9300SOL    HW231399   3.545   8.318   2.177  0.3043 -0.5486  0.8813
 9301SOL     OW31400   7.072   5.028   3.389 -0.4665  0.1466 -0.1357
 9301SOL    HW131401   7.011   5.028   3.464 -2.7565  2.7870 -1.7928
 9301SOL    HW231402   7.106   5.117   3.386  0.4456 -0.2180 -1.5940
 9302SOL     OW31403   6.840   6.948   5.581  0.2574 -0.2202 -0.1614
 9302SOL    HW131404   6.818   6.858   5.604  0.1797 -0.2829 -0.4797
 9302SOL    HW231405   6.768   6.977   5.525  1.4453 -0.7820 -2.0846
 9303SOL     OW31406   1.845   2.040   8.619 -0.0598 -0.0446 -0.4046
 9303SOL    HW131407   1.776   2.005   8.562  0.1473 -1.3353  0.1065
 9303SOL    HW231408   1.844   2.134   8.602 -1.3435 -0.1485 -1.0634
 9304SOL     OW31409   5.865   6.307   9.445 -0.2455  0.0222  0.2862
 9304SOL    HW131410   5.829   6.234   9.396 -0.3833  0.9287 -1.0229
 9304SOL    HW231411   5.950   6.276   9.476 -0.1568 -0.5777 -0.5334
 9305SOL     OW31412   3.131   4.729   8.290 -0.3299 -0.6128  0.1822
 9305SOL    HW131413   3.191   4.798   8.264  0.7668 -2.2445 -1.9274
 9305SOL    HW231414   3.147   4.717   8.384  2.4788 -0.7991 -0.2453
 9306SOL     OW31415   1.328   1.175  10.151  0.5468 -0.2316  0.1251
 9306SOL    HW131416   1.391   1.235  10.111  1.0814  0.2993  1.7023
 9306SOL    HW231417   1.367   1.088  10.141 -0.6886 -0.5749 -3.0781
 9307SOL     OW31418   6.333  10.268   6.800  0.0551  0.3112 -0.0312
 9307SOL    HW131419   6.254  10.311   6.832  0.5520  0.7955  0.5692
 9307SOL    HW231420   6.358  10.207   6.870  0.9051  1.0602  0.3333
 9308SOL     OW31421   7.093   6.988   6.727 -0.0043  0.0333  0.2154
 9308SOL    HW131422   7.103   6.989   6.632  2.4002  2.3770  0.3581
 9308SOL    HW231423   7.182   6.976   6.761 -0.4914  1.2122  2.1213
 9309SOL     OW31424  10.228  10.765   9.526  0.0344 -0.2992 -0.3621
 9309SOL    HW131425  10.171  10.790   9.599 -1.4097 -0.5801 -1.3604
 9309SOL    HW231426  10.196  10.817   9.452  1.4084 -0.1030 -0.8376
 9310SOL     OW31427   0.300   8.651   0.475  0.5828  0.5430 -0.0977
 9310SOL    HW131428   0.339   8.578   0.427 -0.2653  0.1568 -0.2191
 9310SOL    HW231429   0.241   8.609   0.537  0.6089  1.1049  0.3133
 9311SOL     OW31430   7.490   3.623   6.447 -0.1227  0.0299  0.4316
 9311SOL    HW131431   7.511   3.618   6.540 -0.3892  0.3794  0.5124
 9311SOL    HW231432   7.394   3.618   6.443 -0.0897 -0.4725  0.1404
 9312SOL     OW31433   5.285   6.189   2.220 -0.0862  0.1566  0.0794
 9312SOL    HW131434   5.237   6.262   2.180 -1.5033 -0.9354 -0.3137
 9312SOL    HW231435   5.356   6.170   2.159 -0.3741  0.4988 -0.3642
 9313SOL     OW31436  10.845   9.140   5.031 -0.3674 -0.1265  0.2736
 9313SOL    HW131437  10.808   9.152   4.944 -0.7492 -0.4411  0.3923
 9313SOL    HW231438  10.891   9.056   5.027  1.6551  0.9613 -0.3280
 9314SOL     OW31439   1.937   9.740   8.008 -0.2307 -0.3666  1.0528
 9314SOL    HW131440   1.945   9.775   7.919 -1.1541 -2.2877  0.1615
 9314SOL    HW231441   1.968   9.650   8.002  0.2548 -0.3585  2.8313
 9315SOL     OW31442   6.291   1.957   8.749  0.3964  0.0445  0.1249
 9315SOL    HW131443   6.373   1.921   8.782  0.5900 -0.1000 -0.4989
 9315SOL    HW231444   6.272   1.905   8.671  0.3051  0.8314 -0.3816
 9316SOL     OW31445   4.850   3.351   6.142 -0.2185 -0.8058 -0.4299
 9316SOL    HW131446   4.828   3.287   6.074 -0.7949 -0.7040 -0.3456
 9316SOL    HW231447   4.766   3.372   6.182  0.2777 -2.0559  1.3881
 9317SOL     OW31448   6.460   4.065   2.840  0.2357 -0.3036 -0.3287
 9317SOL    HW131449   6.367   4.087   2.843 -0.0580 -1.4561 -0.7061
 9317SOL    HW231450   6.489   4.097   2.754  0.0927 -0.3021 -0.3765
 9318SOL     OW31451   3.004   6.452  10.262 -0.3308  0.2654 -0.1109
 9318SOL    HW131452   3.072   6.394  10.297 -0.7671 -1.6176 -2.1822
 9318SOL    HW231453   3.038   6.483  10.179 -1.0723  1.1646 -0.1017
 9319SOL     OW31454   9.480   6.650   7.975  1.1047 -0.4429  0.2710
 9319SOL    HW131455   9.415   6.595   8.018  0.5089  1.2229  1.6110
 9319SOL    HW231456   9.439   6.676   7.893  0.7954 -0.8091  0.3074
 9320SOL     OW31457   7.915   5.132   1.710  0.0871 -0.8320  0.3790
 9320SOL    HW131458   7.827   5.146   1.675  0.1385  0.8850  0.8350
 9320SOL    HW231459   7.966   5.206   1.678  0.9069 -0.8368  1.5992
 9321SOL     OW31460   2.511   1.411   4.724  0.2364 -0.1237 -0.1046
 9321SOL    HW131461   2.430   1.449   4.692  0.0452 -0.4359  0.0067
 9321SOL    HW231462   2.509   1.424   4.818  0.9316  1.0487 -0.2304
 9322SOL     OW31463   7.399   2.849   1.060 -0.1667  0.5068 -0.3389
 9322SOL    HW131464   7.325   2.896   1.097 -1.9085 -1.4317 -1.1374
 9322SOL    HW231465   7.400   2.765   1.105  2.0986  0.7710  0.2173
 9323SOL     OW31466   1.819   5.440   8.378  0.5603 -0.4094  0.3059
 9323SOL    HW131467   1.864   5.524   8.389  0.5966 -0.5097  0.9390
 9323SOL    HW231468   1.736   5.451   8.423 -0.5198  0.1216 -1.7116
 9324SOL     OW31469   9.139   5.020   8.780  0.0019  0.1715 -0.0516
 9324SOL    HW131470   9.203   5.012   8.851  1.4390  2.3998 -0.9603
 9324SOL    HW231471   9.191   5.009   8.700 -1.5251 -1.9555 -0.8352
 9325SOL     OW31472   0.657   9.704   4.992 -0.5076 -0.2306 -0.3641
 9325SOL    HW131473   0.690   9.791   4.972 -1.3473 -0.1220 -1.3665
 9325SOL    HW231474   0.593   9.718   5.062 -1.0081  0.0331 -0.8684
 9326SOL     OW31475   7.391   5.624   3.197 -0.2884 -0.6067 -0.3399
 9326SOL    HW131476   7.463   5.687   3.186  0.4523 -1.2190  0.7131
 9326SOL    HW231477   7.315   5.667   3.158  0.0816  1.1478  0.7031
 9327SOL     OW31478   3.124   1.571   9.663 -0.0494 -0.2635 -0.4020
 9327SOL    HW131479   3.167   1.610   9.740 -1.5073 -0.1640  0.4015
 9327SOL    HW231480   3.166   1.485   9.653 -0.7996 -0.8933  1.4211
 9328SOL     OW31481   8.005   1.118   4.335  0.1643  0.5617  0.2082
 9328SOL    HW131482   8.047   1.165   4.407  2.0819 -0.1700 -0.3632
 9328SOL    HW231483   7.915   1.152   4.332  0.4918  1.6699  1.9659
 9329SOL     OW31484   6.480   5.698   0.818 -0.1705 -0.3344  0.2269
 9329SOL    HW131485   6.474   5.788   0.849  0.9247 -0.0860 -0.2455
 9329SOL    HW231486   6.539   5.655   0.880 -0.6371 -0.7243  0.4140
 9330SOL     OW31487   4.315   9.287   8.889  0.2826  0.1505 -0.1658
 9330SOL    HW131488   4.317   9.208   8.835 -1.0702  0.0734 -0.1301
 9330SOL    HW231489   4.233   9.280   8.939  0.1493  1.5575 -0.1565
 9331SOL     OW31490   2.885   6.582   4.900  0.5897  0.2791  0.2137
 9331SOL    HW131491   2.845   6.501   4.932 -0.6803  1.4825  1.8679
 9331SOL    HW231492   2.979   6.565   4.902  0.3493 -1.1080  0.6897
 9332SOL     OW31493   9.819   5.750  10.495 -0.7226  0.3338 -0.1031
 9332SOL    HW131494   9.879   5.768  10.567 -0.3481 -0.8529 -0.0916
 9332SOL    HW231495   9.748   5.699  10.534 -0.1683 -0.9192 -0.6753
 9333SOL     OW31496   8.593   1.850   7.630  0.1190 -0.5394  0.2995
 9333SOL    HW131497   8.557   1.846   7.719  1.1306 -0.9361  0.6987
 9333SOL    HW231498   8.648   1.928   7.629  1.3549 -1.3920  0.5077
 9334SOL     OW31499   8.724   7.356   6.278  0.2258  0.1914 -0.3689
 9334SOL    HW131500   8.757   7.318   6.359  0.1688  1.2115  0.1524
 9334SOL    HW231501   8.711   7.449   6.299  1.4367  0.7484 -1.8949
 9335SOL     OW31502   7.033   0.030   9.398  0.6261 -0.3044  0.0203
 9335SOL    HW131503   7.073   0.105   9.443 -0.6559 -0.4236  1.4618
 9335SOL    HW231504   7.016  -0.033   9.468 -0.1553 -1.0990 -0.8579
 9336SOL     OW31505  10.814   3.546   8.087 -0.0854  0.4440 -0.3647
 9336SOL    HW131506  10.754   3.511   8.152  0.8967  1.4934  1.1497
 9336SOL    HW231507  10.761   3.605   8.034 -1.4326 -2.0753 -2.0623
 9337SOL     OW31508  10.046   2.754   2.312  0.2321 -0.3334  0.0273
 9337SOL    HW131509  10.101   2.817   2.266  2.0011 -2.4087 -0.9129
 9337SOL    HW231510  10.104   2.717   2.379 -0.5178 -1.4403  0.0914
 9338SOL     OW31511   8.594   7.009   8.261 -0.2482 -0.6949 -0.5418
 9338SOL    HW131512   8.679   7.032   8.298 -0.1339 -1.4274 -0.3474
 9338SOL    HW231513   8.558   7.093   8.231  0.3224 -0.3129 -0.1791
 9339SOL     OW31514  10.587   4.583   5.019 -0.1482  0.9375  1.1663
 9339SOL    HW131515  10.587   4.655   4.956  0.7398 -0.9954 -1.2154
 9339SOL    HW231516  10.664   4.600   5.074 -0.1411  1.9640  0.8660
 9340SOL     OW31517   9.804   5.462   1.459  0.8164 -0.6290  0.1592
 9340SOL    HW131518   9.798   5.532   1.524  0.9833 -0.9040  0.4743
 9340SOL    HW231519   9.782   5.382   1.508 -2.7576 -0.4502 -0.9107
 9341SOL     OW31520   4.925   0.631   8.710 -0.6517 -0.7029 -0.0117
 9341SOL    HW131521   4.908   0.702   8.648 -0.3925  0.9836  1.7654
 9341SOL    HW231522   5.010   0.597   8.684 -1.3530 -1.3044 -1.6917
 9342SOL     OW31523  10.675   6.876   6.820  0.1186 -0.7951  0.1291
 9342SOL    HW131524  10.735   6.828   6.762  0.5938 -2.0549  1.6103
 9342SOL    HW231525  10.595   6.887   6.768  0.5387 -1.8523 -0.7843
 9343SOL     OW31526   1.101   9.940   9.909 -0.3428  0.2580  0.1523
 9343SOL    HW131527   1.063   9.856   9.882 -0.0484 -0.1889  1.0875
 9343SOL    HW231528   1.158   9.918   9.983  3.0206  0.5966 -2.1003
 9344SOL     OW31529   7.810   9.227   2.773 -0.6348  0.3639  0.3979
 9344SOL    HW131530   7.880   9.224   2.839 -0.0570 -1.2977 -0.2355
 9344SOL    HW231531   7.856   9.247   2.691 -0.9437 -0.4219  0.0278
 9345SOL     OW31532   8.356   9.995  10.671 -0.4520  0.0772 -0.0108
 9345SOL    HW131533   8.396   9.962  10.751  0.6301 -1.1671 -1.0222
 9345SOL    HW231534   8.421   9.979  10.603 -0.5046  2.9450 -0.8493
 9346SOL     OW31535  10.448   0.679   9.653  0.5208  0.0148 -0.1044
 9346SOL    HW131536  10.355   0.675   9.675  0.4017 -1.5417 -0.8023
 9346SOL    HW231537  10.493   0.649   9.732  0.2445 -2.3772 -0.7888
 9347SOL     OW31538   2.353   4.138   5.766 -0.3132 -0.0746  0.0626
 9347SOL    HW131539   2.382   4.150   5.675  0.3642  1.2632  0.4333
 9347SOL    HW231540   2.257   4.141   5.761 -0.2680  0.9771 -0.5045
 9348SOL     OW31541   1.475   4.346   1.331 -0.6596  0.2893  0.3025
 9348SOL    HW131542   1.512   4.341   1.243 -1.1240  0.6235  0.0796
 9348SOL    HW231543   1.381   4.350   1.317 -0.7641 -0.1557  0.8412
 9349SOL     OW31544  10.295   7.042   8.956 -0.0826 -0.1377 -0.4157
 9349SOL    HW131545  10.318   7.130   8.986  0.3374  0.5008 -2.4460
 9349SOL    HW231546  10.365   7.018   8.894 -1.5662 -0.7502 -1.9494
 9350SOL     OW31547   0.781   2.492   5.086 -0.3173 -0.3622  0.7898
 9350SOL    HW131548   0.837   2.430   5.131  1.2976 -0.1383 -0.7996
 9350SOL    HW231549   0.760   2.450   5.003 -0.8639  0.3910  0.5324
 9351SOL     OW31550   1.335   6.677  10.576 -0.3482  0.0295  0.3328
 9351SOL    HW131551   1.245   6.668  10.607 -0.0916  1.5135  1.6361
 9351SOL    HW231552   1.326   6.703  10.484 -1.2099 -0.6357  0.2120
 9352SOL     OW31553   9.183   6.014   0.932  0.2191  0.2008  0.4600
 9352SOL    HW131554   9.146   6.085   0.984 -1.8796 -0.3023 -0.2098
 9352SOL    HW231555   9.222   5.955   0.996 -1.3516  0.1308  1.4039
 9353SOL     OW31556  10.805   5.715   7.213  0.2781  0.2945  0.2304
 9353SOL    HW131557  10.782   5.808   7.208  1.6058  0.5930 -0.7041
 9353SOL    HW231558  10.899   5.713   7.199  0.2329 -1.2223  0.0327
 9354SOL     OW31559   1.313   0.556   5.677 -0.7326  0.5970 -0.2564
 9354SOL    HW131560   1.245   0.540   5.742 -0.6459 -2.0275 -0.6942
 9354SOL    HW231561   1.282   0.511   5.598  1.1361 -0.0298 -0.6812
 9355SOL     OW31562   1.310   9.593   4.759  0.1241  0.0622  0.3902
 9355SOL    HW131563   1.326   9.561   4.670 -0.2912 -1.4001  0.8174
 9355SOL    HW231564   1.388   9.567   4.808 -0.5517 -1.0708  0.9221
 9356SOL     OW31565   4.501   0.156   0.127 -0.4036  0.4327 -0.3463
 9356SOL    HW131566   4.572   0.099   0.096  0.1754  1.9174 -1.8865
 9356SOL    HW231567   4.426   0.133   0.074 -0.5239  0.2521 -0.1008
 9357SOL     OW31568   2.237   8.012   4.167 -0.2200 -0.4707  0.1333
 9357SOL    HW131569   2.226   7.918   4.180 -1.0283 -0.2309  1.3448
 9357SOL    HW231570   2.152   8.042   4.136 -0.6228  0.1568  1.7442
 9358SOL     OW31571   3.692   2.397   7.385 -0.1005  0.0205  0.5139
 9358SOL    HW131572   3.709   2.492   7.388 -1.2051  0.4720 -3.0659
 9358SOL    HW231573   3.774   2.358   7.415  0.9452  2.1075  0.5883
 9359SOL     OW31574   7.822  10.998   3.382  0.6928  0.9651  0.2557
 9359SOL    HW131575   7.774  11.066   3.335 -0.0316  0.3712  0.1291
 9359SOL    HW231576   7.867  11.046   3.452 -1.4028  1.3455  1.4152
 9360SOL     OW31577   6.734   4.646   3.066 -0.6869  0.2261 -0.5198
 9360SOL    HW131578   6.817   4.601   3.052 -0.6156  0.4516 -0.8461
 9360SOL    HW231579   6.688   4.638   2.982 -1.3010 -0.5106 -0.1259
 9361SOL     OW31580   9.350   3.576  10.844 -0.7732 -0.0218 -0.0148
 9361SOL    HW131581   9.401   3.504  10.881  2.0250  2.4143  1.3643
 9361SOL    HW231582   9.305   3.615  10.919 -0.5476  0.8886 -0.3346
 9362SOL     OW31583   5.267   0.317  10.807  0.2056 -0.2946  0.1593
 9362SOL    HW131584   5.355   0.301  10.842  0.2578  0.9476  0.6519
 9362SOL    HW231585   5.279   0.384  10.740 -0.3774 -0.0448  0.2942
 9363SOL     OW31586   0.297   0.616   0.760 -0.5356  0.8180  0.3873
 9363SOL    HW131587   0.355   0.681   0.720 -0.7495  1.3014  0.8558
 9363SOL    HW231588   0.279   0.650   0.847 -0.1985 -0.1545  0.8481
 9364SOL     OW31589   5.860  10.287   8.830 -0.2816  0.4347 -0.1802
 9364SOL    HW131590   5.882  10.242   8.748 -1.1473 -0.7233  0.1995
 9364SOL    HW231591   5.875  10.380   8.811 -0.1683  0.1593 -1.5566
 9365SOL     OW31592  10.810   9.637   2.578 -0.3491  0.2359 -0.2066
 9365SOL    HW131593  10.750   9.708   2.556 -0.8499 -0.0939  0.0684
 9365SOL    HW231594  10.753   9.564   2.602  0.1305  0.4174  1.6828
 9366SOL     OW31595   3.709   8.356   6.799 -0.4816  0.8311 -0.0116
 9366SOL    HW131596   3.658   8.362   6.719 -2.1320  0.0167  0.9184
 9366SOL    HW231597   3.749   8.268   6.797  1.5339  1.7106 -1.0572
 9367SOL     OW31598   5.287   9.294   2.349 -0.0757 -0.1141  0.6018
 9367SOL    HW131599   5.350   9.279   2.419  0.3935  1.9619  0.7019
 9367SOL    HW231600   5.237   9.371   2.377 -0.7441 -0.0174 -0.7460
 9368SOL     OW31601   5.226   8.604   0.886 -1.0171 -0.2146 -0.1895
 9368SOL    HW131602   5.317   8.634   0.892 -0.9995 -0.5381  1.9805
 9368SOL    HW231603   5.175   8.683   0.905 -1.2613  0.1381 -2.1213
 9369SOL     OW31604   7.804   6.629   7.761  0.2517 -0.3253  0.0604
 9369SOL    HW131605   7.890   6.636   7.720  0.0716 -1.7926 -0.6734
 9369SOL    HW231606   7.751   6.581   7.696 -1.7837  2.4178 -0.4773
 9370SOL     OW31607   0.003   4.298   7.650 -0.5547  0.1683 -0.0127
 9370SOL    HW131608   0.089   4.320   7.615 -0.2881 -1.4742 -0.5051
 9370SOL    HW231609  -0.058   4.318   7.578 -0.4338  0.1963 -0.1083
 9371SOL     OW31610   9.942   7.030   0.769  0.7101 -0.1921 -0.5013
 9371SOL    HW131611  10.018   6.980   0.798 -0.3355 -0.2637  2.3892
 9371SOL    HW231612   9.870   7.000   0.825 -0.1940  3.7703  0.7670
 9372SOL     OW31613   8.072   7.384   6.411  0.7718 -0.0021 -0.1139
 9372SOL    HW131614   8.112   7.465   6.380 -1.0786  0.6807 -0.8385
 9372SOL    HW231615   8.137   7.317   6.393  2.7590  1.3956  1.3543
 9373SOL     OW31616   2.360   3.042   9.959  0.5089 -0.0039 -0.3294
 9373SOL    HW131617   2.337   3.073  10.047  0.0418 -2.0109  0.3174
 9373SOL    HW231618   2.354   3.119   9.904 -0.2618  1.0955  1.2112
 9374SOL     OW31619   3.554  10.337   8.473  0.0326  0.8588 -0.5363
 9374SOL    HW131620   3.587  10.269   8.533 -1.8902  1.0449  0.8255
 9374SOL    HW231621   3.486  10.293   8.422  1.7998  0.6479 -2.8446
 9375SOL     OW31622   6.972  10.811   9.943 -0.1256  0.8844  0.2855
 9375SOL    HW131623   7.009  10.893   9.976  1.6354  0.0362  0.5341
 9375SOL    HW231624   6.950  10.762  10.022  3.1164 -0.7160  0.3440
 9376SOL     OW31625   1.811   8.613   6.839  0.1937  0.0837 -0.8277
 9376SOL    HW131626   1.839   8.688   6.786  1.6729  0.6428  0.6522
 9376SOL    HW231627   1.879   8.604   6.906 -0.6538 -1.7473 -0.1404
 9377SOL     OW31628  10.171   3.203   0.690 -1.0225 -0.4372 -0.0562
 9377SOL    HW131629  10.127   3.221   0.607 -0.2709 -1.7566 -0.7708
 9377SOL    HW231630  10.178   3.289   0.732  1.1625  0.8252 -2.6536
 9378SOL     OW31631   6.054   7.018   3.055 -0.3422 -0.0249  0.4612
 9378SOL    HW131632   5.990   6.982   3.117 -0.1118  0.1541  0.8069
 9378SOL    HW231633   6.123   6.952   3.050 -0.0691  0.2218  0.8612
 9379SOL     OW31634   0.594   7.169   6.317 -0.1954 -0.1388 -0.2972
 9379SOL    HW131635   0.513   7.157   6.267 -0.0865  1.1836 -0.8297
 9379SOL    HW231636   0.580   7.118   6.397 -0.1001 -2.8974 -1.9004
 9380SOL     OW31637   3.588   2.823   9.051 -0.0613  0.4215  0.0539
 9380SOL    HW131638   3.537   2.853   9.126 -2.7290  1.9235 -2.1448
 9380SOL    HW231639   3.535   2.753   9.013  0.7581  0.3092 -0.9299
 9381SOL     OW31640   3.708  10.388   1.882  0.0415 -0.5726  0.1085
 9381SOL    HW131641   3.624  10.431   1.900  1.5620  2.2490  1.1333
 9381SOL    HW231642   3.706  10.370   1.788 -1.6075 -0.4177  0.0795
 9382SOL     OW31643   0.808   1.263   5.710 -0.5031  0.4700 -0.2700
 9382SOL    HW131644   0.847   1.345   5.738  0.4625  0.3488 -1.1867
 9382SOL    HW231645   0.788   1.216   5.791 -1.2196  1.6543  0.2651
 9383SOL     OW31646   0.608   2.920  10.350 -0.0034 -0.0710 -0.1862
 9383SOL    HW131647   0.688   2.965  10.324  1.1829 -1.7853  0.2666
 9383SOL    HW231648   0.609   2.923  10.446  0.2566 -1.2268 -0.1302
 9384SOL     OW31649   8.262   0.428   3.887 -0.4741 -0.3141  0.1787
 9384SOL    HW131650   8.332   0.374   3.849  0.3314  0.1567  0.9519
 9384SOL    HW231651   8.220   0.469   3.812  0.0636 -0.6250 -0.3064
 9385SOL     OW31652   1.850   7.233   8.302 -0.1829  0.0172  0.2485
 9385SOL    HW131653   1.842   7.328   8.311  3.0997  0.4887 -0.5721
 9385SOL    HW231654   1.907   7.207   8.375 -0.7449 -1.2938  0.2510
 9386SOL     OW31655   1.005  10.285   1.844 -0.4673 -0.1028  0.3948
 9386SOL    HW131656   0.972  10.289   1.933 -0.4062  2.1069  0.3752
 9386SOL    HW231657   0.927  10.282   1.789 -0.5203 -0.3256  0.4795
 9387SOL     OW31658   4.265   9.944   0.098  0.1987  0.0576  0.6410
 9387SOL    HW131659   4.228  10.032   0.091  0.7046  0.1536 -1.6835
 9387SOL    HW231660   4.192   9.890   0.125 -0.6388  0.9014  0.1627
 9388SOL     OW31661   3.773   7.436   0.234  0.1413 -0.0219 -0.6935
 9388SOL    HW131662   3.734   7.352   0.256 -0.2294  0.3992  0.2996
 9388SOL    HW231663   3.717   7.471   0.164  0.7408 -0.9175 -1.6534
 9389SOL     OW31664   7.990   8.436   4.161 -0.5130 -0.5327 -0.1259
 9389SOL    HW131665   7.920   8.407   4.220 -0.4100  1.1996  0.9329
 9389SOL    HW231666   8.027   8.355   4.127 -0.4520 -1.6719  2.3763
 9390SOL     OW31667   8.230   2.162   6.800 -0.0277 -0.0467 -0.0210
 9390SOL    HW131668   8.174   2.232   6.836 -1.2149 -2.1398  2.5431
 9390SOL    HW231669   8.313   2.171   6.847  0.5648  0.8283 -1.1851
 9391SOL     OW31670   8.000   1.701   6.758  0.0895 -0.1338 -0.2991
 9391SOL    HW131671   8.037   1.789   6.753  0.3519 -0.1335  1.2458
 9391SOL    HW231672   8.036   1.656   6.681  1.0431  0.7066 -0.3738
 9392SOL     OW31673   9.904   5.242   6.995 -0.2881 -0.3449 -0.7050
 9392SOL    HW131674   9.955   5.300   7.052  0.2542 -0.3480 -1.1851
 9392SOL    HW231675   9.813   5.269   7.009 -0.1038  0.0952 -0.3353
 9393SOL     OW31676   1.228   8.412   4.696  0.4124 -0.0213 -0.3347
 9393SOL    HW131677   1.201   8.483   4.638 -1.7581 -0.1852  0.3958
 9393SOL    HW231678   1.164   8.414   4.767  2.2059 -0.6568  1.4061
 9394SOL     OW31679   4.571   5.639   1.926  0.0607 -0.4746  0.3455
 9394SOL    HW131680   4.489   5.674   1.960  0.3491 -0.6418  1.2383
 9394SOL    HW231681   4.615   5.600   2.002  2.2910  2.0759  0.5167
 9395SOL     OW31682  10.882   3.935   0.110 -0.4911  0.0483  0.4584
 9395SOL    HW131683  10.972   3.935   0.142 -0.2964 -0.1231 -0.0806
 9395SOL    HW231684  10.861   3.843   0.098 -0.4638  0.1269 -0.1803
 9396SOL     OW31685   3.785   8.542   0.765 -0.0041  0.3660 -0.0108
 9396SOL    HW131686   3.811   8.504   0.849  0.1353  0.5633  0.0361
 9396SOL    HW231687   3.840   8.497   0.701  0.4751  0.8021  0.0916
 9397SOL     OW31688   3.733   7.849   0.234  0.2088 -0.1578  0.7838
 9397SOL    HW131689   3.697   7.895   0.158  1.1835  1.0174  0.9842
 9397SOL    HW231690   3.793   7.913   0.273  3.4612 -2.3093 -0.2324
 9398SOL     OW31691   9.689   4.662   1.373 -0.8224  0.2977 -0.7111
 9398SOL    HW131692   9.682   4.584   1.428  2.0772  0.1148 -0.4701
 9398SOL    HW231693   9.674   4.630   1.284 -1.7024 -0.1243 -0.4196
 9399SOL     OW31694   4.050   4.797   6.428  0.3405  0.4022 -0.0996
 9399SOL    HW131695   3.994   4.846   6.369 -0.9205 -0.3392  0.4253
 9399SOL    HW231696   4.139   4.820   6.403 -0.1339 -0.2192 -2.5599
 9400SOL     OW31697   5.202   9.669   7.590 -0.4134 -0.0342  0.1959
 9400SOL    HW131698   5.170   9.665   7.680  0.1505 -0.8207  0.3687
 9400SOL    HW231699   5.152   9.740   7.550  0.3810  1.3495  1.5566
 9401SOL     OW31700   8.841   3.382  10.576  0.5507  0.3310 -0.3062
 9401SOL    HW131701   8.908   3.383  10.644 -0.4186  1.7146  0.6863
 9401SOL    HW231702   8.839   3.291  10.546  0.4185 -0.5558  2.1287
 9402SOL     OW31703   3.085   3.774   3.431 -0.0484  0.0751  0.3089
 9402SOL    HW131704   3.164   3.730   3.461  0.9158 -0.1029 -2.2562
 9402SOL    HW231705   3.101   3.867   3.448  1.3850  0.1987 -1.4636
 9403SOL     OW31706   8.907   0.905   4.447 -0.0678  0.2057  0.1492
 9403SOL    HW131707   8.919   0.891   4.541 -3.0601 -0.7329  0.4840
 9403SOL    HW231708   8.969   0.845   4.406 -0.1965 -0.9305  1.5422
 9404SOL     OW31709   8.295   6.990   6.924  0.5148 -0.1732  0.6268
 9404SOL    HW131710   8.383   6.967   6.956  0.7346 -1.3961 -0.7279
 9404SOL    HW231711   8.252   6.905   6.911 -0.5907  0.3909  0.5385
 9405SOL     OW31712   8.789  10.185   9.506 -0.2356 -0.3560 -0.1522
 9405SOL    HW131713   8.813  10.264   9.554  0.6006 -0.3882 -0.4911
 9405SOL    HW231714   8.724  10.214   9.442  1.5730  0.5234 -1.6999
 9406SOL     OW31715   1.223   4.398   1.261 -0.1634  0.6573 -0.1986
 9406SOL    HW131716   1.129   4.386   1.274 -0.2602  2.2746  0.8644
 9406SOL    HW231717   1.232   4.417   1.167 -1.1197  2.0987 -0.0258
 9407SOL     OW31718   8.094   6.330   7.196  0.0256  0.0950  0.2143
 9407SOL    HW131719   8.006   6.329   7.233 -1.2934 -0.2459 -2.6415
 9407SOL    HW231720   8.149   6.367   7.265 -2.2486 -0.0778  2.2528
 9408SOL     OW31721   2.468   4.834   9.995 -0.4180 -0.1698 -0.3422
 9408SOL    HW131722   2.431   4.746   9.993  0.4832 -0.5544 -0.7895
 9408SOL    HW231723   2.473   4.856  10.088  0.7765 -1.2283 -0.1297
 9409SOL     OW31724   5.622   0.882   9.270  0.7354  0.4897 -0.1476
 9409SOL    HW131725   5.619   0.890   9.366  1.4222 -0.9870  0.0187
 9409SOL    HW231726   5.630   0.972   9.239 -2.1594  1.2894  1.0378
 9410SOL     OW31727   1.533   8.232   9.677  0.6515 -0.2887  0.3600
 9410SOL    HW131728   1.606   8.275   9.722  1.4573 -1.6337  0.3937
 9410SOL    HW231729   1.551   8.139   9.687  1.1470 -0.7130 -3.1019
 9411SOL     OW31730   4.537   9.975   5.182  0.5823  0.1839  0.2347
 9411SOL    HW131731   4.518  10.007   5.271  0.0431 -0.1390  0.2402
 9411SOL    HW231732   4.541  10.055   5.129  0.6635  0.3620  0.5040
 9412SOL     OW31733   6.694   1.870   9.056  0.1922 -0.0928  0.0936
 9412SOL    HW131734   6.761   1.897   9.118 -0.0607  0.0121  0.3235
 9412SOL    HW231735   6.742   1.853   8.975  0.2690  1.8223 -0.3041
 9413SOL     OW31736   0.769   0.987   3.321 -0.1120  0.0579 -0.5457
 9413SOL    HW131737   0.687   1.034   3.311 -0.2887  0.2744  1.4813
 9413SOL    HW231738   0.837   1.053   3.306 -0.3474  1.2786  2.8330
 9414SOL     OW31739  10.882   4.443   1.955 -0.1652  0.5956  0.1757
 9414SOL    HW131740  10.814   4.497   1.995  0.4045  0.9909  0.6233
 9414SOL    HW231741  10.900   4.485   1.872  1.0723  1.7759  1.0043
 9415SOL     OW31742   7.930   4.112   2.732  0.2024  0.0955 -0.5832
 9415SOL    HW131743   7.895   4.027   2.758  1.5378 -0.1481  0.5098
 9415SOL    HW231744   7.990   4.092   2.660  0.0889  0.1948 -0.7070
 9416SOL     OW31745   1.421   0.517   9.393 -0.4929  0.3053  0.1488
 9416SOL    HW131746   1.503   0.496   9.349 -0.6368  0.4104 -0.1704
 9416SOL    HW231747   1.357   0.456   9.357 -0.9367  1.3183 -0.8604
 9417SOL     OW31748   0.661   5.825   2.078  0.3714 -0.0990 -0.1418
 9417SOL    HW131749   0.745   5.780   2.075  0.5329  0.0654  1.2411
 9417SOL    HW231750   0.668   5.893   2.011  1.0706 -0.5228 -0.5119
 9418SOL     OW31751   1.769   5.087  10.330 -0.0288  0.1174 -0.4090
 9418SOL    HW131752   1.694   5.032  10.308 -0.0090 -0.5008  0.9663
 9418SOL    HW231753   1.766   5.158  10.267 -1.7939  0.1327 -0.3616
 9419SOL     OW31754   6.387   3.880   5.090 -0.3554 -0.2578 -0.1035
 9419SOL    HW131755   6.314   3.937   5.113  0.3228  0.5965  0.0104
 9419SOL    HW231756   6.460   3.913   5.142  0.0767 -1.2066 -0.0791
 9420SOL     OW31757   7.780   5.968  10.319  0.1180 -0.0362 -0.4334
 9420SOL    HW131758   7.704   5.913  10.304 -0.1151  0.3637 -0.7465
 9420SOL    HW231759   7.823   5.972  10.233  0.6817 -0.5360 -0.1830
 9421SOL     OW31760   2.793   5.964  10.115  0.1969 -0.3023 -0.0219
 9421SOL    HW131761   2.704   5.953  10.147  0.2396 -1.5924 -0.2946
 9421SOL    HW231762   2.795   6.052  10.076 -0.3767  0.5669  1.7775
 9422SOL     OW31763   5.900   8.451  10.903  0.2781  0.3102 -0.0223
 9422SOL    HW131764   5.817   8.497  10.898 -0.2523 -0.6633 -0.3880
 9422SOL    HW231765   5.913   8.416  10.815 -1.1477 -3.3054  1.0329
 9423SOL     OW31766   6.074   3.884   4.298 -0.3655  0.2366  0.6392
 9423SOL    HW131767   6.078   3.926   4.384 -0.6247 -1.1952  1.3689
 9423SOL    HW231768   6.139   3.931   4.246 -0.5368  1.4318  1.4656
 9424SOL     OW31769   6.344   5.157   5.488  0.5128  0.2855 -0.3083
 9424SOL    HW131770   6.382   5.120   5.568 -1.3772 -0.8956  0.1125
 9424SOL    HW231771   6.419   5.173   5.431  1.6801 -1.7803  0.5323
 9425SOL     OW31772   9.033   4.244   0.526 -0.2886  0.7739 -0.2897
 9425SOL    HW131773   9.049   4.264   0.619  3.2002  2.1352 -1.0315
 9425SOL    HW231774   9.049   4.150   0.518 -1.2024  0.5280  0.5480
 9426SOL     OW31775   9.750   3.758   0.609  0.3434  0.7055 -0.0259
 9426SOL    HW131776   9.720   3.810   0.534 -0.1295 -0.0215 -0.3463
 9426SOL    HW231777   9.671   3.712   0.639  0.2538  1.8417  1.6351
 9427SOL     OW31778   1.824   2.245   6.912  0.7231  0.2120  0.7815
 9427SOL    HW131779   1.768   2.282   6.981  0.5336 -0.4696  0.9986
 9427SOL    HW231780   1.913   2.254   6.947  0.7282  0.8933  0.6232
 9428SOL     OW31781   3.713   3.336   1.623  0.2104  0.7059 -0.4236
 9428SOL    HW131782   3.730   3.418   1.576  0.0573  0.3608 -1.0921
 9428SOL    HW231783   3.620   3.319   1.609  0.1234  0.6912  0.1596
 9429SOL     OW31784   1.358   7.038   2.378 -0.5820  0.1109  0.4262
 9429SOL    HW131785   1.266   7.067   2.376 -0.3294  1.0803  1.5021
 9429SOL    HW231786   1.372   7.010   2.469 -0.3982 -2.1357 -0.2363
 9430SOL     OW31787   9.581   1.935  10.500 -0.2557 -0.2942  0.7452
 9430SOL    HW131788   9.601   2.024  10.531 -0.5041  0.6729 -1.6319
 9430SOL    HW231789   9.656   1.882  10.528  0.4175  0.9093  1.2915
 9431SOL     OW31790   3.814   4.735   8.317  0.5452  0.0862 -0.0135
 9431SOL    HW131791   3.824   4.820   8.274 -2.5043 -0.2713 -1.7369
 9431SOL    HW231792   3.828   4.672   8.246  0.1471 -0.7458  0.6404
 9432SOL     OW31793   7.400   6.201   1.737 -0.8820  0.2215 -0.5993
 9432SOL    HW131794   7.409   6.234   1.648 -0.7126  1.0627 -0.2790
 9432SOL    HW231795   7.468   6.134   1.745 -0.4349  0.6338 -0.8819
 9433SOL     OW31796   6.537   6.221   5.223 -0.0602 -1.0149  0.6415
 9433SOL    HW131797   6.507   6.147   5.276  0.2315 -0.5667  1.4410
 9433SOL    HW231798   6.618   6.190   5.183 -0.2484 -1.3319  0.5022
 9434SOL     OW31799   5.934   4.210   4.195 -0.2114  0.0672 -0.2354
 9434SOL    HW131800   5.999   4.278   4.177 -2.2857  2.2322 -0.0783
 9434SOL    HW231801   5.933   4.202   4.290 -1.0287  0.9972 -0.1471
 9435SOL     OW31802   8.627   3.748   8.993  0.0791  0.4137  0.4369
 9435SOL    HW131803   8.617   3.681   9.061 -0.7698 -0.0995 -0.1782
 9435SOL    HW231804   8.599   3.705   8.912  1.1237  0.9967 -0.2662
 9436SOL     OW31805   6.526   7.733   7.105 -0.5223 -0.0482  0.6378
 9436SOL    HW131806   6.562   7.667   7.046 -1.5202  0.4477 -0.5845
 9436SOL    HW231807   6.600   7.760   7.159  0.6013 -0.0895 -0.8038
 9437SOL     OW31808   4.797  10.583   4.992  0.3289 -0.0069  0.4389
 9437SOL    HW131809   4.741  10.617   5.061 -0.0384  0.6980 -0.1864
 9437SOL    HW231810   4.752  10.504   4.962 -0.5180  0.7207 -0.2674
 9438SOL     OW31811   5.380  10.363   5.455 -0.4916  0.5874 -0.0170
 9438SOL    HW131812   5.418  10.451   5.458  0.2048  0.3265 -0.6498
 9438SOL    HW231813   5.441  10.313   5.400  0.1257 -0.7728  1.7913
 9439SOL     OW31814   0.625   4.012   6.720 -0.1112  0.1650 -0.0575
 9439SOL    HW131815   0.603   4.099   6.754 -1.7886 -0.8968  1.8265
 9439SOL    HW231816   0.581   4.007   6.635  1.0550  1.5691 -0.7754
 9440SOL     OW31817   9.582   0.336   8.711  0.3857  0.1497  0.3430
 9440SOL    HW131818   9.536   0.369   8.789 -0.4160 -1.9148  0.8188
 9440SOL    HW231819   9.551   0.392   8.640 -0.1704  1.0264  1.2430
 9441SOL     OW31820   6.820   2.835   7.703  0.1798 -0.1733 -0.0273
 9441SOL    HW131821   6.818   2.844   7.608 -0.4673 -1.6478 -0.1838
 9441SOL    HW231822   6.729   2.845   7.730  0.2421 -0.5679  0.3405
 9442SOL     OW31823   8.311   9.010  10.406  0.2001  0.2200  0.0504
 9442SOL    HW131824   8.279   9.036  10.493  0.0523  0.0077  0.0582
 9442SOL    HW231825   8.365   8.933  10.423  0.2550  0.2409 -0.0353
 9443SOL     OW31826   9.502   0.573   2.362  0.1310 -0.2508  0.7813
 9443SOL    HW131827   9.472   0.663   2.356 -0.4716 -0.4063  1.3120
 9443SOL    HW231828   9.424   0.521   2.344  0.1727 -0.6651  1.7331
 9444SOL     OW31829   9.665   1.054   8.951 -0.0639 -0.1303  0.3021
 9444SOL    HW131830   9.580   1.038   8.993  0.0493  0.6619  0.8370
 9444SOL    HW231831   9.701   1.130   8.997  0.6415 -0.0531 -0.3660
 9445SOL     OW31832   1.275   1.517   8.450 -0.0826 -0.6127  0.1756
 9445SOL    HW131833   1.314   1.603   8.431 -0.5621  0.2480  2.7400
 9445SOL    HW231834   1.270   1.474   8.364  0.1129  1.9333 -1.2191
 9446SOL     OW31835   8.902   3.460   3.868 -0.1372 -0.0839  0.3173
 9446SOL    HW131836   8.846   3.389   3.898 -2.2344  0.1840 -2.5565
 9446SOL    HW231837   8.972   3.417   3.820 -1.0616 -0.2902 -0.8881
 9447SOL     OW31838   0.391   3.200   3.417  0.0422  0.0471  0.4426
 9447SOL    HW131839   0.430   3.123   3.459 -1.4525  0.2744  2.3437
 9447SOL    HW231840   0.296   3.185   3.423 -0.2735  1.8495  0.4925
 9448SOL     OW31841   2.513   4.221   4.559  0.1737 -1.1094 -0.9074
 9448SOL    HW131842   2.436   4.222   4.616  0.7529 -0.0194 -0.0909
 9448SOL    HW231843   2.565   4.296   4.589  1.3586 -1.5934 -1.6988
 9449SOL     OW31844   1.574   1.492   3.367  1.3257  0.5849 -0.3485
 9449SOL    HW131845   1.616   1.576   3.387  2.8839  0.5178 -2.7840
 9449SOL    HW231846   1.639   1.446   3.313 -0.0429 -1.6171 -0.2340
 9450SOL     OW31847   2.826  10.218   5.011 -0.1388  0.6224  0.3152
 9450SOL    HW131848   2.854  10.281   5.078  0.5802  1.4343 -0.7197
 9450SOL    HW231849   2.851  10.259   4.928 -0.3822 -0.6775 -0.4174
 9451SOL     OW31850   7.046   5.141   7.609  0.3990  0.1729 -0.0221
 9451SOL    HW131851   7.080   5.231   7.613 -0.9257  0.7894 -1.5018
 9451SOL    HW231852   7.026   5.127   7.517 -1.4963 -0.8402  0.4927
 9452SOL     OW31853   5.167   2.381   1.324 -0.0250 -0.1428  0.8436
 9452SOL    HW131854   5.254   2.393   1.361  0.0514  0.5439  0.4537
 9452SOL    HW231855   5.179   2.315   1.256  0.6246  1.3915 -0.6116
 9453SOL     OW31856   3.417   3.164   9.928 -0.1579  0.5482  0.3889
 9453SOL    HW131857   3.447   3.214   9.852  2.1104  0.5982  1.2145
 9453SOL    HW231858   3.370   3.228   9.982  0.6370  1.2144  0.3144
 9454SOL     OW31859   0.199   3.027   8.973 -0.0411 -0.3217  0.0373
 9454SOL    HW131860   0.242   3.107   9.001  0.5356 -0.2164 -1.0808
 9454SOL    HW231861   0.180   2.980   9.054 -0.3304  0.9066  0.6961
 9455SOL     OW31862   4.389   8.820   9.355  0.9726 -0.2425 -0.4755
 9455SOL    HW131863   4.463   8.828   9.416  1.7445 -0.6275 -1.3331
 9455SOL    HW231864   4.412   8.877   9.282  2.1074 -2.9020 -2.3475
 9456SOL     OW31865   0.776   7.105   2.549 -0.0901  0.0233 -0.5042
 9456SOL    HW131866   0.859   7.061   2.533 -1.7707 -3.6153 -0.1562
 9456SOL    HW231867   0.736   7.111   2.462  0.5941  2.1314 -0.7314
 9457SOL     OW31868   8.206   2.564   5.644  0.5448  0.0997  0.2422
 9457SOL    HW131869   8.186   2.652   5.611 -0.0795  0.4848  1.5978
 9457SOL    HW231870   8.296   2.548   5.615 -0.0473  0.2612 -1.8960
 9458SOL     OW31871  10.033   5.004   2.261 -0.3622 -0.5819  0.6747
 9458SOL    HW131872  10.070   4.937   2.320  0.2728  1.9681  3.4086
 9458SOL    HW231873   9.941   4.978   2.251  0.4187 -3.2574 -0.5851
 9459SOL     OW31874   4.744   3.654   1.530  1.0470  0.4945  0.5036
 9459SOL    HW131875   4.707   3.566   1.515 -2.9289  2.1553 -0.9712
 9459SOL    HW231876   4.766   3.655   1.623 -0.7886 -1.4518  1.0528
 9460SOL     OW31877   6.631   4.584   5.778  0.2889  0.3695  0.7595
 9460SOL    HW131878   6.680   4.585   5.695 -0.2414 -1.9343  0.3429
 9460SOL    HW231879   6.657   4.665   5.822  1.1596  1.3025 -1.3218
 9461SOL     OW31880   9.824   1.146   2.574 -0.0778 -0.2865  0.4042
 9461SOL    HW131881   9.746   1.092   2.566 -0.0696 -0.2762  0.2439
 9461SOL    HW231882   9.875   1.127   2.495  0.1442 -0.3916  0.5717
 9462SOL     OW31883   1.504   6.643   3.529 -0.2950 -0.3450  0.1331
 9462SOL    HW131884   1.428   6.604   3.488 -1.1483  0.9215  0.4306
 9462SOL    HW231885   1.559   6.671   3.457 -1.0412  0.4571 -0.1447
 9463SOL     OW31886   0.357   0.496   6.932 -0.5618  0.2301 -0.2925
 9463SOL    HW131887   0.438   0.533   6.968 -1.1567  2.5125 -1.1204
 9463SOL    HW231888   0.385   0.443   6.858  0.2141  0.9858 -0.5579
 9464SOL     OW31889   0.747   9.313   7.226  0.2387  0.1110 -0.0203
 9464SOL    HW131890   0.802   9.391   7.233  0.3881 -0.0448  0.7007
 9464SOL    HW231891   0.801   9.243   7.266  0.2856 -0.4551 -1.0408
 9465SOL     OW31892   6.753  10.335   9.914  0.5440  0.5093 -0.4570
 9465SOL    HW131893   6.687  10.404   9.918  0.7319  0.6687 -0.0675
 9465SOL    HW231894   6.836  10.379   9.927  0.9007  0.5310 -2.4192
 9466SOL     OW31895   6.684   0.579   5.201  0.1057 -0.9997  0.3199
 9466SOL    HW131896   6.599   0.548   5.231  0.3059 -2.5794 -0.6516
 9466SOL    HW231897   6.665   0.661   5.155 -0.7201 -0.7596  1.0569
 9467SOL     OW31898   3.912   1.660   5.523  0.8666  0.4842 -0.5204
 9467SOL    HW131899   3.869   1.585   5.482 -1.2849  0.7635  1.0143
 9467SOL    HW231900   3.861   1.675   5.604  1.1960  3.5660 -0.7599
 9468SOL     OW31901   5.579   6.308   4.199  0.3943  0.7552  0.5738
 9468SOL    HW131902   5.491   6.274   4.216  0.7643 -0.2436  0.5939
 9468SOL    HW231903   5.568   6.402   4.192 -0.4973  0.7456  1.6935
 9469SOL     OW31904   8.793   4.470  10.189 -0.6538 -0.1758 -0.3556
 9469SOL    HW131905   8.863   4.493  10.128  0.0398  0.2823  0.5918
 9469SOL    HW231906   8.781   4.375  10.177  0.3428 -0.3195 -0.3183
 9470SOL     OW31907   4.551   7.552   1.232  0.2617  0.0157 -0.0284
 9470SOL    HW131908   4.489   7.496   1.185 -1.0459  0.2343  1.3419
 9470SOL    HW231909   4.566   7.627   1.174  0.4944 -0.7990 -1.0425
 9471SOL     OW31910   0.151   6.294   6.456 -0.5548  0.0364  0.3871
 9471SOL    HW131911   0.082   6.354   6.426  0.8856  1.4519 -0.2461
 9471SOL    HW231912   0.189   6.259   6.375 -0.2009 -0.3582  0.7190
 9472SOL     OW31913   0.121   9.111   5.222 -0.0605 -0.1277  0.4638
 9472SOL    HW131914   0.168   9.079   5.145  3.0639 -0.5617  2.3583
 9472SOL    HW231915   0.061   9.177   5.189  0.7243 -0.7262 -2.3754
 9473SOL     OW31916   1.294   8.110   8.135  0.2313  0.2817  0.1918
 9473SOL    HW131917   1.203   8.085   8.118 -0.0113  1.3203 -0.0995
 9473SOL    HW231918   1.346   8.035   8.106 -0.4312  0.3173 -1.1414
 9474SOL     OW31919   9.367   0.505   8.879 -0.1429  0.0390  0.2489
 9474SOL    HW131920   9.275   0.512   8.853 -0.2892  0.5425  0.8862
 9474SOL    HW231921   9.390   0.591   8.912  1.2850  0.6573 -2.1157
 9475SOL     OW31922   2.455   5.925   1.715  0.4155  0.2734  0.4368
 9475SOL    HW131923   2.470   5.935   1.809  2.6554  0.3465  0.1325
 9475SOL    HW231924   2.527   5.869   1.686 -0.8520 -0.6449 -1.0790
 9476SOL     OW31925   7.276   9.833   1.610  0.1146  0.2089  0.0732
 9476SOL    HW131926   7.280   9.869   1.522  2.0999 -1.3998 -0.5766
 9476SOL    HW231927   7.234   9.748   1.599 -1.9127  1.0033  1.1260
 9477SOL     OW31928   1.391   2.956   0.965  0.3170 -1.0072  0.0441
 9477SOL    HW131929   1.385   3.037   1.017  2.4639 -0.0125 -1.1360
 9477SOL    HW231930   1.473   2.916   0.994 -1.0434 -3.2233  1.1214
 9478SOL     OW31931   4.832   5.833   6.273 -0.5986 -0.5477 -0.6238
 9478SOL    HW131932   4.882   5.767   6.224  0.1985 -0.0531 -0.4890
 9478SOL    HW231933   4.741   5.814   6.252 -0.2610  0.2959 -3.1525
 9479SOL     OW31934  10.999   9.425   2.430 -0.4692  0.4608  0.2346
 9479SOL    HW131935  10.936   9.496   2.441 -0.6490  0.3634 -0.1567
 9479SOL    HW231936  10.982   9.368   2.505 -0.5686  0.6450  0.3543
 9480SOL     OW31937   8.899   2.367   6.885 -0.1741 -1.1264  0.1842
 9480SOL    HW131938   8.935   2.284   6.916  2.0477  0.1196  1.1602
 9480SOL    HW231939   8.947   2.387   6.805  1.1336  0.3648  1.2823
 9481SOL     OW31940   7.087   2.655  10.779 -0.6255 -0.1872 -0.0591
 9481SOL    HW131941   7.116   2.598  10.851 -1.8122  0.4256  0.9329
 9481SOL    HW231942   7.105   2.604  10.700  0.2803 -1.0673  0.6836
 9482SOL     OW31943   3.726   6.201   4.531 -0.3271 -0.2628 -0.8164
 9482SOL    HW131944   3.751   6.169   4.444 -1.5975 -0.5099 -1.1107
 9482SOL    HW231945   3.653   6.145   4.557 -0.6785  0.5242 -0.0670
 9483SOL     OW31946   2.957   6.762   4.208 -0.4528 -0.3301  0.6940
 9483SOL    HW131947   2.936   6.838   4.154 -0.7620  0.5003  1.9579
 9483SOL    HW231948   2.892   6.696   4.181  0.0968 -0.3341 -0.7243
 9484SOL     OW31949   3.375   0.284   2.261  0.2512 -0.1357  0.0685
 9484SOL    HW131950   3.369   0.199   2.217  0.1618 -0.6122  0.9738
 9484SOL    HW231951   3.457   0.281   2.309  0.2413  0.2866  0.1144
 9485SOL     OW31952   7.757   9.870   6.095  0.0240 -0.0692 -0.3346
 9485SOL    HW131953   7.709   9.922   6.159 -0.0397 -0.2656 -0.2235
 9485SOL    HW231954   7.814   9.814   6.147  0.1122 -0.0916 -0.4554
 9486SOL     OW31955   3.402   1.269  10.991  0.5538  0.0872  0.4297
 9486SOL    HW131956   3.312   1.242  10.971  0.3330  1.2000 -0.2057
 9486SOL    HW231957   3.454   1.231  10.920  0.6653 -0.8989  1.0187
 9487SOL     OW31958   7.955   6.393   3.331  0.0515 -0.3828  0.1474
 9487SOL    HW131959   8.026   6.451   3.358 -1.2972  1.4664 -0.1187
 9487SOL    HW231960   7.881   6.418   3.386 -0.7477 -1.4295 -0.4142
 9488SOL     OW31961   6.084   3.372   7.085 -0.4575 -0.0092  0.3384
 9488SOL    HW131962   6.010   3.335   7.037 -1.4236  0.8863  1.0955
 9488SOL    HW231963   6.133   3.422   7.019 -1.2680  0.4677  0.0793
 9489SOL     OW31964   0.510   6.004   6.444 -0.1451 -0.2211 -0.2499
 9489SOL    HW131965   0.498   6.018   6.350 -2.1019  1.5097  0.1777
 9489SOL    HW231966   0.598   6.038   6.462  0.0765 -0.1632 -1.3615
 9490SOL     OW31967   8.241   7.222   3.883 -0.3859  0.1448 -0.3222
 9490SOL    HW131968   8.290   7.165   3.825 -0.6252 -0.6501  0.2411
 9490SOL    HW231969   8.266   7.194   3.971 -1.3497  0.1532 -0.0293
 9491SOL     OW31970   4.788   5.726   2.392 -0.4920  0.1267  0.4797
 9491SOL    HW131971   4.726   5.733   2.465 -2.2167  1.0512 -0.9852
 9491SOL    HW231972   4.817   5.816   2.377  1.6034 -0.3423  1.4025
 9492SOL     OW31973   5.429   9.672   7.789 -0.0891 -1.0147  0.9378
 9492SOL    HW131974   5.343   9.714   7.790 -0.2363 -1.2546 -0.1798
 9492SOL    HW231975   5.467   9.692   7.875 -0.9054 -0.1743  1.1140
 9493SOL     OW31976   2.368   2.565   2.061 -0.2129 -0.3772  0.1360
 9493SOL    HW131977   2.357   2.570   2.156  0.1346 -0.6161  0.1888
 9493SOL    HW231978   2.341   2.652   2.030  0.7470  0.0860  0.5606
 9494SOL     OW31979   7.698   3.323   8.634 -0.4138 -0.4647 -0.4442
 9494SOL    HW131980   7.622   3.379   8.651  1.1015  1.1249  1.5951
 9494SOL    HW231981   7.773   3.383   8.636  1.0033 -2.1089 -1.4566
 9495SOL     OW31982   1.822   8.287   0.717  0.6173  0.0320  0.3315
 9495SOL    HW131983   1.877   8.353   0.675  0.8690 -0.0732  0.4937
 9495SOL    HW231984   1.806   8.222   0.649  0.4477  0.2124  0.1988
 9496SOL     OW31985   3.701   0.619   6.647  0.4846 -0.5352  0.4944
 9496SOL    HW131986   3.639   0.581   6.709  1.0034 -0.1634  1.2583
 9496SOL    HW231987   3.773   0.556   6.642  0.9377 -0.0830  1.0957
 9497SOL     OW31988   2.377   6.159   5.115 -0.0732  0.1849 -0.1721
 9497SOL    HW131989   2.462   6.181   5.155  0.2965  0.2834 -1.0002
 9497SOL    HW231990   2.354   6.075   5.154  0.3467  0.2158  0.1527
 9498SOL     OW31991   8.853   4.605   8.180 -0.2969 -0.1106 -0.2016
 9498SOL    HW131992   8.781   4.620   8.241  0.0327 -1.9598  0.7362
 9498SOL    HW231993   8.925   4.657   8.214 -1.4640  2.8738 -1.9211
 9499SOL     OW31994   8.889   6.595   1.017 -0.2876  0.6838  0.4418
 9499SOL    HW131995   8.802   6.612   1.053 -0.2321  0.6046  0.6145
 9499SOL    HW231996   8.882   6.509   0.975 -0.8524  1.5389 -1.3205
 9500SOL     OW31997   9.820   2.066   5.825  0.2994 -0.0922  0.4921
 9500SOL    HW131998   9.741   2.060   5.879 -0.0326  2.8209  0.4858
 9500SOL    HW231999   9.807   2.145   5.772  2.3981 -0.6126 -0.9301
 9501SOL     OW32000  10.684   8.171   5.086 -0.2676 -0.3498 -0.1143
 9501SOL    HW132001  10.706   8.196   5.176 -0.5939  0.0027 -0.1287
 9501SOL    HW232002  10.589   8.181   5.081 -0.1837  0.1996 -0.6716
 9502SOL     OW32003   3.234   8.323   5.820  0.3225  0.1778  0.3010
 9502SOL    HW132004   3.304   8.290   5.875 -0.1348  0.5986  1.1587
 9502SOL    HW232005   3.257   8.415   5.804  0.6118 -0.0214 -0.4856
 9503SOL     OW32006  10.386   3.515   2.447 -0.1354  0.0769  0.0338
 9503SOL    HW132007  10.372   3.487   2.357 -1.4009 -0.4027  0.3579
 9503SOL    HW232008  10.338   3.598   2.454 -0.0060  0.1344  0.2597
 9504SOL     OW32009   6.613   5.858   2.431 -0.3717 -0.1585 -1.0114
 9504SOL    HW132010   6.541   5.877   2.371 -1.7967 -0.1129  0.6501
 9504SOL    HW232011   6.578   5.794   2.492  1.4173 -1.0812 -0.8765
 9505SOL     OW32012  10.908   6.283   4.781  0.4477 -0.3425 -0.1121
 9505SOL    HW132013  10.915   6.190   4.800  1.2070 -0.2081  0.3373
 9505SOL    HW232014  10.875   6.321   4.863  1.4824 -0.0544  0.1922
 9506SOL     OW32015   7.013   7.210   6.022  0.0971  0.3130 -0.7387
 9506SOL    HW132016   6.933   7.183   5.976  0.3748 -0.4195 -0.7935
 9506SOL    HW232017   6.985   7.228   6.111 -0.0176 -0.5994 -0.5822
 9507SOL     OW32018   7.500   2.793   8.704 -0.0082  0.1539 -0.4359
 9507SOL    HW132019   7.517   2.706   8.741  1.1674  0.6583  0.2793
 9507SOL    HW232020   7.530   2.854   8.772 -0.7036  1.1214 -0.9753
 9508SOL     OW32021   5.490   9.195   1.365  0.6523  0.0611  0.2434
 9508SOL    HW132022   5.493   9.169   1.273  0.1166 -0.9962  0.5030
 9508SOL    HW232023   5.430   9.269   1.367 -0.4310 -0.7753 -0.0947
 9509SOL     OW32024   3.784   1.151   9.966  0.4417 -0.3299  0.0382
 9509SOL    HW132025   3.815   1.160   9.876  0.5592  0.0760  0.1153
 9509SOL    HW232026   3.795   1.239  10.004 -3.1392  0.5807 -0.6326
 9510SOL     OW32027   4.133   0.561   1.121 -0.2825 -0.2664 -1.3521
 9510SOL    HW132028   4.217   0.603   1.140  0.6902 -1.7347 -2.1753
 9510SOL    HW232029   4.132   0.484   1.179 -1.1447 -0.1702 -1.2325
 9511SOL     OW32030   9.141   0.301   5.063  0.4769  0.1967 -0.1003
 9511SOL    HW132031   9.078   0.234   5.036  1.0876  0.3160 -1.9891
 9511SOL    HW232032   9.151   0.356   4.986  4.0160 -0.7055 -0.4573
 9512SOL     OW32033   2.189   7.133   4.775  0.5293  0.2586  0.0236
 9512SOL    HW132034   2.109   7.111   4.823  0.4654 -0.7835 -0.5404
 9512SOL    HW232035   2.206   7.057   4.720  0.9190  1.1948 -1.1897
 9513SOL     OW32036   5.408   2.594   0.758  0.4414  0.3251 -0.5172
 9513SOL    HW132037   5.454   2.677   0.766 -1.6510  1.4881  0.2098
 9513SOL    HW232038   5.456   2.534   0.816  1.4889  1.2513 -0.4064
 9514SOL     OW32039   4.203   6.815   2.905  0.3406 -0.7156  0.2114
 9514SOL    HW132040   4.174   6.901   2.877 -0.2398 -0.1932  2.2611
 9514SOL    HW232041   4.269   6.832   2.972  0.4171 -1.8608  0.4542
 9515SOL     OW32042  10.762  10.677  10.606 -0.3842  0.5444  0.0437
 9515SOL    HW132043  10.855  10.669  10.629  0.4236 -0.5951 -3.0460
 9515SOL    HW232044  10.750  10.771  10.590  0.8604  0.5032 -1.4483
 9516SOL     OW32045   2.920   3.142  10.744  0.1741  0.3779  0.0070
 9516SOL    HW132046   2.878   3.072  10.795 -2.5693  1.1679 -1.0103
 9516SOL    HW232047   2.979   3.184  10.806 -1.9159  0.3539  2.1510
 9517SOL     OW32048   4.077   7.994   6.696 -0.7108  0.5663  0.2624
 9517SOL    HW132049   4.037   7.910   6.674 -2.9921  1.5186  0.4583
 9517SOL    HW232050   4.058   8.050   6.621  2.2224  0.5593 -0.6268
 9518SOL     OW32051   3.477   9.559   6.777  0.1745 -0.2458  0.0469
 9518SOL    HW132052   3.418   9.593   6.709  0.9597 -0.2543 -0.6550
 9518SOL    HW232053   3.422   9.550   6.854 -0.4962  0.7961 -0.2874
 9519SOL     OW32054   6.642   0.576   0.629  0.2409 -0.3349 -0.0446
 9519SOL    HW132055   6.594   0.648   0.669  1.0066  0.1953 -0.0436
 9519SOL    HW232056   6.719   0.565   0.684 -0.2681 -1.7147  0.4205
 9520SOL     OW32057   3.027   5.985   9.380 -0.2962  0.0081  0.5323
 9520SOL    HW132058   3.005   5.920   9.313 -2.1496  0.6793  0.4345
 9520SOL    HW232059   3.098   6.037   9.341  0.2614 -1.0642  0.0606
 9521SOL     OW32060   8.895   0.655   3.303 -0.2646  0.0252 -0.2507
 9521SOL    HW132061   8.917   0.637   3.211 -1.0933 -0.9528 -0.2795
 9521SOL    HW232062   8.893   0.750   3.309  1.7060  0.1485 -0.7716
 9522SOL     OW32063   1.369   5.037   2.527 -0.0390  0.1361 -0.1282
 9522SOL    HW132064   1.378   5.031   2.622  0.1115 -1.2353 -0.2164
 9522SOL    HW232065   1.365   4.947   2.497 -3.8463  0.4489 -1.0905
 9523SOL     OW32066   2.113   0.906   1.921  0.1628  0.4306 -0.7375
 9523SOL    HW132067   2.080   0.931   2.007 -0.0734  1.6038 -1.1488
 9523SOL    HW232068   2.044   0.851   1.883 -0.6953  1.6527 -1.0054
 9524SOL     OW32069   1.150   5.790   8.055  0.4786 -0.2567 -0.4405
 9524SOL    HW132070   1.201   5.713   8.028  0.5109 -0.4636  0.2030
 9524SOL    HW232071   1.100   5.760   8.131  0.7992  0.4731  0.0725
 9525SOL     OW32072   6.479   4.599   2.522 -0.3045  0.0220 -0.5006
 9525SOL    HW132073   6.450   4.546   2.596  0.1598 -2.3450 -1.9190
 9525SOL    HW232074   6.402   4.608   2.467  0.1599 -1.2591 -1.4063
 9526SOL     OW32075   7.049   2.654   7.948 -0.1084  0.2118  0.3246
 9526SOL    HW132076   6.961   2.631   7.979  0.6237 -1.3511  1.3600
 9526SOL    HW232077   7.096   2.678   8.028  0.7101 -0.0014 -0.0881
 9527SOL     OW32078   0.872   6.931   5.255 -0.3493 -0.6751  0.3922
 9527SOL    HW132079   0.853   6.849   5.301 -1.1526 -0.4589  0.4705
 9527SOL    HW232080   0.859   6.999   5.320  0.9202 -0.5098  0.4927
 9528SOL     OW32081   5.023   0.855   0.526  0.3807  0.1628 -0.0830
 9528SOL    HW132082   5.061   0.768   0.541 -2.2806 -1.7297 -2.9494
 9528SOL    HW232083   5.087   0.900   0.471  0.2105 -1.5903 -1.8573
 9529SOL     OW32084   4.610   7.657   9.867 -0.0529  0.4211 -0.1153
 9529SOL    HW132085   4.621   7.655   9.772 -0.3472 -0.9628 -0.1380
 9529SOL    HW232086   4.526   7.701   9.881 -1.1665 -1.4321 -0.6450
 9530SOL     OW32087   2.243  10.472   6.284  0.0673 -0.1317  0.3069
 9530SOL    HW132088   2.317  10.533   6.276 -0.5630  0.5693 -0.3102
 9530SOL    HW232089   2.271  10.409   6.350  0.6689  0.9380  1.0996
 9531SOL     OW32090   9.052   2.520   1.311 -0.1123  0.1800 -0.0948
 9531SOL    HW132091   9.098   2.575   1.375 -0.5753  2.2994 -1.4487
 9531SOL    HW232092   8.974   2.570   1.289 -1.2970 -1.7212 -0.4082
 9532SOL     OW32093   4.633   4.370   3.386 -0.2832  0.1442 -0.4869
 9532SOL    HW132094   4.576   4.334   3.318 -0.7940 -0.0289  0.0169
 9532SOL    HW232095   4.572   4.412   3.448 -0.1135 -1.9467  1.2163
 9533SOL     OW32096   9.864   4.373  10.212  0.4708  0.8198 -0.0083
 9533SOL    HW132097   9.768   4.375  10.205  0.3651 -2.4653 -1.0100
 9533SOL    HW232098   9.881   4.353  10.304  0.2157  1.4120  0.1739
 9534SOL     OW32099   0.792   3.585   1.042  0.0055 -0.1523 -0.6543
 9534SOL    HW132100   0.836   3.576   0.957  0.0665  0.4739 -0.6974
 9534SOL    HW232101   0.746   3.669   1.036 -2.3384 -1.4101 -1.1139
 9535SOL     OW32102   6.395   8.990   6.131 -0.5227 -0.9459  0.1468
 9535SOL    HW132103   6.469   8.936   6.158 -0.4499 -2.0250 -1.9663
 9535SOL    HW232104   6.328   8.974   6.198  1.1052  0.0855  2.1207
 9536SOL     OW32105   1.609   0.722   3.412  0.1460  0.2724  0.1251
 9536SOL    HW132106   1.694   0.725   3.455  0.9164 -2.7935 -0.9365
 9536SOL    HW232107   1.577   0.633   3.427 -1.0889  0.1138 -2.7147
 9537SOL     OW32108   1.186   5.099   1.519 -0.4974 -0.0612  0.3286
 9537SOL    HW132109   1.099   5.062   1.500  0.5538 -2.6845  0.1765
 9537SOL    HW232110   1.188   5.107   1.615 -1.1239  0.6884  0.2924
 9538SOL     OW32111   8.791   3.686   5.392  0.1645 -0.3122  0.4773
 9538SOL    HW132112   8.710   3.635   5.395  0.1095 -0.3050 -0.6098
 9538SOL    HW232113   8.860   3.619   5.387  0.1007 -0.3030 -0.7840
 9539SOL     OW32114   5.014   9.235   3.760 -0.5183  0.6070  0.3207
 9539SOL    HW132115   5.029   9.156   3.813 -0.7913 -1.0325 -1.8909
 9539SOL    HW232116   4.925   9.261   3.781 -0.9750 -0.5990 -0.0098
 9540SOL     OW32117   6.572   0.755  10.293 -0.3178 -0.0400  0.7348
 9540SOL    HW132118   6.632   0.809  10.345 -0.5184 -1.2952  2.3721
 9540SOL    HW232119   6.591   0.666  10.320 -1.7030 -0.6023 -0.0317
 9541SOL     OW32120  10.821   8.564   6.080 -0.4897 -0.3248  0.4242
 9541SOL    HW132121  10.821   8.657   6.057 -1.2444 -0.8586 -1.9875
 9541SOL    HW232122  10.882   8.524   6.018 -2.1009 -1.7787 -0.2951
 9542SOL     OW32123   0.082   9.091   9.701 -0.1139 -0.0765  0.6096
 9542SOL    HW132124   0.148   9.051   9.645  0.5488 -1.0248  1.9962
 9542SOL    HW232125   0.111   9.182   9.710  0.0710 -0.0554 -0.1201
 9543SOL     OW32126   5.070  10.965   7.794  0.5557  0.6083  0.2257
 9543SOL    HW132127   5.056  10.993   7.885 -4.6525 -0.5575  0.0770
 9543SOL    HW232128   5.003  11.011   7.744 -1.2711 -3.6832 -1.7874
 9544SOL     OW32129   4.904   6.545   9.262 -0.4613  0.1652 -0.0907
 9544SOL    HW132130   4.974   6.522   9.323  0.6932 -0.4845 -1.6287
 9544SOL    HW232131   4.881   6.635   9.286  1.9983  0.9739 -0.5548
 9545SOL     OW32132   7.046   4.513   3.315  0.6528 -0.2568 -0.2351
 9545SOL    HW132133   7.061   4.566   3.393 -0.2116 -0.6303  0.1943
 9545SOL    HW232134   7.100   4.554   3.248  1.7204 -0.1502  0.6447
 9546SOL     OW32135   3.638  10.741   5.045  0.3400  0.3478  0.1945
 9546SOL    HW132136   3.628  10.665   5.102  0.9667  0.0231 -0.1174
 9546SOL    HW232137   3.613  10.709   4.958  2.4702 -0.0738 -0.3213
 9547SOL     OW32138   5.757   4.697   2.641  0.0944  0.5173 -0.3391
 9547SOL    HW132139   5.814   4.701   2.564 -0.2957  2.3056 -0.5715
 9547SOL    HW232140   5.810   4.733   2.712 -0.2882  0.9482 -0.2689
 9548SOL     OW32141   4.369   7.617   0.335  0.6309  0.0259  0.1073
 9548SOL    HW132142   4.374   7.707   0.366  1.0654  0.1332 -0.2743
 9548SOL    HW232143   4.449   7.604   0.284  0.9342 -0.8027  0.7612
 9549SOL     OW32144   4.130   4.078   9.827  0.3727 -0.7424 -0.0760
 9549SOL    HW132145   4.189   4.003   9.820  1.3172 -0.0878  0.6430
 9549SOL    HW232146   4.114   4.104   9.736  2.6825  0.1784 -0.2791
 9550SOL     OW32147   3.491   7.206   7.797 -0.1304 -0.1452  0.3918
 9550SOL    HW132148   3.426   7.160   7.850  0.9484 -2.5712 -0.2812
 9550SOL    HW232149   3.498   7.155   7.717  2.3543  0.2124  0.3020
 9551SOL     OW32150   3.199   6.678   7.688  0.3956 -0.7283  0.8508
 9551SOL    HW132151   3.255   6.603   7.668  0.2565 -0.6223  0.0428
 9551SOL    HW232152   3.152   6.652   7.767  0.9562 -1.1597  1.0468
 9552SOL     OW32153  10.868   1.072   9.155  0.4494 -0.2209  0.0407
 9552SOL    HW132154  10.866   1.165   9.175 -1.1462  0.1500 -1.5695
 9552SOL    HW232155  10.942   1.062   9.095  0.8167 -0.0514  0.4647
 9553SOL     OW32156   5.190   7.054   6.283 -0.5300  0.0855  0.2680
 9553SOL    HW132157   5.132   7.119   6.323 -1.1334 -0.5721  0.4687
 9553SOL    HW232158   5.192   7.078   6.190 -1.6687 -0.2813  0.1354
 9554SOL     OW32159   6.996   0.766   6.032 -0.1537 -0.0293 -0.4029
 9554SOL    HW132160   7.063   0.806   5.977 -0.4773  2.8599  1.1098
 9554SOL    HW232161   7.037   0.687   6.066  1.2569 -0.0648 -2.0735
 9555SOL     OW32162   4.121   4.418   8.535  0.5452  0.1518  0.1554
 9555SOL    HW132163   4.091   4.489   8.591  1.4001  0.8141 -0.1982
 9555SOL    HW232164   4.044   4.394   8.484  0.4217  1.3199 -0.2390
 9556SOL     OW32165   3.643   0.472   8.236 -0.3448  0.2423 -0.3016
 9556SOL    HW132166   3.613   0.521   8.312  0.6603  0.1989  0.1381
 9556SOL    HW232167   3.605   0.519   8.161  0.0484  1.2977  0.1486
 9557SOL     OW32168   7.052   8.931   9.927 -0.2923  0.0414  0.8184
 9557SOL    HW132169   7.079   8.967   9.843 -1.5700 -1.9925 -0.5654
 9557SOL    HW232170   7.019   9.006   9.976 -0.4061  1.1522 -0.8805
 9558SOL     OW32171   4.981   0.097   4.958 -0.5323 -0.2372  0.5409
 9558SOL    HW132172   5.024   0.024   4.913 -1.4336 -0.3432 -0.1841
 9558SOL    HW232173   5.045   0.128   5.021  0.1593 -1.1474  0.2996
 9559SOL     OW32174   6.160  10.876   1.074 -0.0640  0.3697 -0.1104
 9559SOL    HW132175   6.210  10.957   1.077 -1.6578  1.4187 -0.3728
 9559SOL    HW232176   6.201  10.820   1.139  0.4265  1.7947  0.8594
 9560SOL     OW32177   0.812   3.133   7.614 -0.0430  0.2016 -0.2781
 9560SOL    HW132178   0.866   3.191   7.561  1.2576 -0.8213 -0.1286
 9560SOL    HW232179   0.832   3.157   7.704  0.1420 -0.1479 -0.2230
 9561SOL     OW32180   8.262   8.641   9.954 -0.0675 -0.1696  0.1698
 9561SOL    HW132181   8.222   8.648  10.041 -1.3602  1.4361 -0.5020
 9561SOL    HW232182   8.339   8.585   9.968 -0.2936 -0.0508  2.3177
 9562SOL     OW32183   6.777   1.269   4.981  0.4204  0.2779  0.2521
 9562SOL    HW132184   6.768   1.210   5.056 -0.3815  0.6566  0.4638
 9562SOL    HW232185   6.773   1.357   5.019 -0.8406  0.4834 -0.3085
 9563SOL     OW32186   5.553   9.178   4.656 -0.1398 -0.1004  0.3035
 9563SOL    HW132187   5.486   9.205   4.593 -0.0675  0.3100  0.3995
 9563SOL    HW232188   5.505   9.125   4.720 -0.4197  0.3756  0.4953
 9564SOL     OW32189   0.271   2.097   6.123 -0.0888  0.4643  0.4335
 9564SOL    HW132190   0.244   2.071   6.035 -0.0341 -0.0593  0.5677
 9564SOL    HW232191   0.225   2.036   6.181 -0.5745  1.1738  0.8012
 9565SOL     OW32192   9.608   9.088   8.905 -0.0277  0.8441  0.3359
 9565SOL    HW132193   9.527   9.133   8.930  0.0280  1.2018 -0.1045
 9565SOL    HW232194   9.669   9.108   8.976 -0.6779 -0.4478  1.2921
 9566SOL     OW32195   5.930   7.633   1.878  0.1231  0.4205 -0.1243
 9566SOL    HW132196   5.886   7.612   1.961 -1.2826  0.4973 -0.8215
 9566SOL    HW232197   5.900   7.722   1.857  1.4309  0.8830 -0.1289
 9567SOL     OW32198   2.117  10.207   8.593  0.2773 -0.1040  0.0528
 9567SOL    HW132199   2.139  10.122   8.630 -1.1454 -0.4953  0.0682
 9567SOL    HW232200   2.152  10.204   8.504 -0.7038 -1.1648 -0.3328
 9568SOL     OW32201   5.529   0.452   8.970 -0.0559  0.3272  0.2223
 9568SOL    HW132202   5.498   0.361   8.977  0.1882  0.1154 -1.2357
 9568SOL    HW232203   5.624   0.445   8.960 -0.1828  0.6368 -1.4332
 9569SOL     OW32204   2.495   2.190   8.619  0.5309 -0.0757 -0.0488
 9569SOL    HW132205   2.539   2.132   8.556  1.1074  1.0493 -0.7005
 9569SOL    HW232206   2.541   2.173   8.701  1.3085  0.1013 -0.4292
 9570SOL     OW32207   3.385  10.005   6.391 -0.1898  0.1425 -0.4595
 9570SOL    HW132208   3.382  10.062   6.314 -0.4045 -0.9796 -1.3091
 9570SOL    HW232209   3.313  10.036   6.446 -0.0993  0.8962 -0.7532
 9571SOL     OW32210   9.358   4.327   6.193  0.0144  0.1389  0.5960
 9571SOL    HW132211   9.403   4.334   6.278  0.7731 -0.3477  0.2453
 9571SOL    HW232212   9.268   4.303   6.215  0.0158  0.7353  1.2957
 9572SOL     OW32213   6.239  10.485  10.051 -0.2784  0.4102  0.0525
 9572SOL    HW132214   6.275  10.482   9.963  0.6391  1.4372  0.3836
 9572SOL    HW232215   6.315  10.487  10.109 -0.8098  2.4188  0.7662
 9573SOL     OW32216   7.950  10.511   0.789  0.1186  0.6328  0.2915
 9573SOL    HW132217   8.022  10.470   0.741  0.4433  1.6901 -0.1595
 9573SOL    HW232218   7.906  10.566   0.724  1.3803  3.1549  1.4081
 9574SOL     OW32219  10.032   7.456   7.600 -0.2944 -0.3966 -0.0314
 9574SOL    HW132220  10.044   7.361   7.612 -2.3618 -0.5842  1.1415
 9574SOL    HW232221   9.958   7.477   7.657  0.8319  2.1650  0.5859
 9575SOL     OW32222   5.604  10.741   1.455  0.0009  0.0649  0.5957
 9575SOL    HW132223   5.600  10.656   1.498  0.3593 -0.5670 -0.5851
 9575SOL    HW232224   5.609  10.721   1.362 -2.7680  1.4226  0.0449
 9576SOL     OW32225   5.259   8.469   2.696 -0.3655  0.0657  0.1854
 9576SOL    HW132226   5.169   8.487   2.669  0.6465  2.4749 -1.9898
 9576SOL    HW232227   5.266   8.509   2.783 -1.2061  0.5660  0.0382
 9577SOL     OW32228   9.738   7.960   0.347 -0.0341 -0.4987 -0.7174
 9577SOL    HW132229   9.741   8.012   0.266 -0.9736  2.1148  0.7998
 9577SOL    HW232230   9.828   7.962   0.380 -0.3156  1.5292  0.0544
 9578SOL     OW32231   7.665  10.186   8.131 -0.2435  0.2100 -0.3000
 9578SOL    HW132232   7.609  10.164   8.057  0.5725  0.2011 -0.9228
 9578SOL    HW232233   7.607  10.234   8.191 -0.7216  0.8989 -1.2875
 9579SOL     OW32234   6.953  10.096   0.930  0.2058  0.2552  0.4603
 9579SOL    HW132235   6.950  10.034   1.004 -0.6139 -1.3492 -0.8466
 9579SOL    HW232236   6.863  10.097   0.897  0.2011  2.1977  0.4337
 9580SOL     OW32237   5.859   9.579   0.271 -0.5782  0.2097  0.1761
 9580SOL    HW132238   5.782   9.616   0.227  1.5453  2.3504 -2.0207
 9580SOL    HW232239   5.869   9.633   0.350  0.8925  2.7850 -1.6100
 9581SOL     OW32240   9.358   7.551   6.071  0.1139 -0.3282 -0.2017
 9581SOL    HW132241   9.276   7.582   6.110  0.9524  0.9432  0.6683
 9581SOL    HW232242   9.331   7.489   6.003 -1.5687  0.3450 -0.2022
 9582SOL     OW32243   9.118   6.385   4.180 -0.0492  0.2880 -0.3979
 9582SOL    HW132244   9.071   6.330   4.243 -0.7777  1.8267  0.4861
 9582SOL    HW232245   9.191   6.331   4.150  0.8503 -0.2711  2.4246
 9583SOL     OW32246   9.598   7.655   6.078 -0.0526  0.1069 -0.5065
 9583SOL    HW132247   9.593   7.668   6.173  2.1502 -0.9591 -0.1965
 9583SOL    HW232248   9.514   7.615   6.055 -0.0846 -0.9133  1.2322
 9584SOL     OW32249   9.625   8.547   4.740  0.1552  0.1464  0.5600
 9584SOL    HW132250   9.659   8.487   4.807  0.7773  0.0224  0.1476
 9584SOL    HW232251   9.690   8.542   4.669 -0.1369  0.8001  0.2408
 9585SOL     OW32252   4.870   5.496   7.145 -0.3116  0.4841  0.4431
 9585SOL    HW132253   4.825   5.581   7.140 -0.9006  0.1854  0.5133
 9585SOL    HW232254   4.846   5.463   7.232  0.4914  0.5562  0.6985
 9586SOL     OW32255   2.641   4.583   7.689 -0.2894  0.7916 -0.5992
 9586SOL    HW132256   2.736   4.594   7.687 -0.2986  0.7982 -1.6640
 9586SOL    HW232257   2.617   4.592   7.781  0.8172  0.1621 -0.2331
 9587SOL     OW32258   8.755   5.388   9.533  0.4922  0.4341 -0.4880
 9587SOL    HW132259   8.730   5.433   9.452 -1.7269 -0.9910 -0.6643
 9587SOL    HW232260   8.710   5.437   9.602  0.2802  0.1275 -0.4050
 9588SOL     OW32261   7.996   6.973   2.776 -0.0754 -0.1574  0.0799
 9588SOL    HW132262   7.921   7.027   2.801  1.0083  0.4259  2.3611
 9588SOL    HW232263   8.071   7.017   2.815  1.6664 -0.1843 -2.9316
 9589SOL     OW32264   6.859   1.726   0.829 -0.1787  0.5623 -0.7124
 9589SOL    HW132265   6.764   1.737   0.820 -0.1718  0.2044 -1.2195
 9589SOL    HW232266   6.874   1.632   0.815 -0.0452  0.1167  1.9253
 9590SOL     OW32267   3.287   9.791   3.849  0.3703  0.3220  0.2672
 9590SOL    HW132268   3.237   9.710   3.859  0.5688  0.2017  0.3091
 9590SOL    HW232269   3.333   9.801   3.932  2.7768 -1.1944 -0.7362
 9591SOL     OW32270   1.135   7.293   1.653  0.0881 -0.2321  0.4779
 9591SOL    HW132271   1.058   7.342   1.680 -0.9077 -0.5038 -1.6385
 9591SOL    HW232272   1.209   7.346   1.683 -0.8678  0.0237  2.5757
 9592SOL     OW32273   2.502   5.263   2.596 -0.3389 -0.0352  0.0363
 9592SOL    HW132274   2.444   5.256   2.672 -0.3762  1.4483  0.1852
 9592SOL    HW232275   2.551   5.344   2.612  1.5942 -1.0993 -0.2193
 9593SOL     OW32276   4.609   0.091   9.130  0.1538 -0.1193 -0.3511
 9593SOL    HW132277   4.649   0.122   9.212 -0.2998  0.4257 -0.3331
 9593SOL    HW232278   4.535   0.149   9.116  0.2533 -0.1817 -1.1778
 9594SOL     OW32279   6.882   1.090   6.816  0.3950  0.1857  0.1258
 9594SOL    HW132280   6.928   1.063   6.895  0.7863 -0.6160 -0.3650
 9594SOL    HW232281   6.831   1.167   6.842 -1.0449 -1.2114  1.6702
 9595SOL     OW32282   4.349   0.770   8.758 -0.1335 -0.4426  0.0194
 9595SOL    HW132283   4.373   0.736   8.672 -0.3114  0.4162 -0.3878
 9595SOL    HW232284   4.368   0.864   8.752 -0.4818 -0.3160  0.7990
 9596SOL     OW32285   4.529   7.118   1.955  0.0832 -0.0403  0.3220
 9596SOL    HW132286   4.573   7.040   1.988  1.1215  1.5325  2.9539
 9596SOL    HW232287   4.440   7.113   1.990 -0.0684 -0.3470 -0.0941
 9597SOL     OW32288   5.124   1.300   5.774 -0.3772 -0.3064 -0.3664
 9597SOL    HW132289   5.165   1.324   5.857  2.1302 -2.3235 -0.9005
 9597SOL    HW232290   5.061   1.231   5.797 -2.3699  1.5797  0.2186
 9598SOL     OW32291   3.515   7.848   3.843  0.2993 -0.0853  0.4555
 9598SOL    HW132292   3.434   7.862   3.892 -0.3045 -0.7090 -0.3412
 9598SOL    HW232293   3.580   7.826   3.910 -0.0351  1.0007  1.1631
 9599SOL     OW32294   7.529   7.214  10.313 -0.1067  0.4494  0.7595
 9599SOL    HW132295   7.623   7.217  10.294 -0.1029 -0.9887  0.4427
 9599SOL    HW232296   7.523   7.226  10.407  0.5463 -1.1676  1.0345
 9600SOL     OW32297   6.291   8.578   9.859 -0.1901 -0.5157 -0.0794
 9600SOL    HW132298   6.271   8.601   9.949  0.3953  0.5850 -0.2114
 9600SOL    HW232299   6.234   8.633   9.806  0.5005 -0.0732 -0.3872
 9601SOL     OW32300   3.848   9.387   8.174 -0.1287 -0.5229  0.2267
 9601SOL    HW132301   3.909   9.346   8.235 -1.5959 -1.0360  1.4042
 9601SOL    HW232302   3.805   9.456   8.225  1.0954  1.4490 -1.2524
 9602SOL     OW32303   4.224   9.685   9.974  0.0685  0.4468 -0.3205
 9602SOL    HW132304   4.156   9.633   9.932  0.5195 -0.2015 -0.2691
 9602SOL    HW232305   4.238   9.643  10.059 -0.3990  1.3768  0.2255
 9603SOL     OW32306   4.384   5.227   1.598 -0.1706 -0.3714 -0.1473
 9603SOL    HW132307   4.477   5.209   1.606  0.0397  0.2132 -1.0846
 9603SOL    HW232308   4.347   5.205   1.684  0.9091 -0.0815  0.4014
 9604SOL     OW32309   7.894   1.994   2.323 -0.2591 -0.1807  0.0018
 9604SOL    HW132310   7.806   1.962   2.303 -1.2501  2.4729 -0.2164
 9604SOL    HW232311   7.929   1.930   2.386 -2.0172 -1.7111 -0.4979
 9605SOL     OW32312   4.301   4.785   6.349 -0.2484 -0.1695  0.2525
 9605SOL    HW132313   4.379   4.813   6.397 -0.5642 -1.1847  1.4079
 9605SOL    HW232314   4.319   4.808   6.258  0.1916  2.1934  0.8927
 9606SOL     OW32315   1.980   3.553  10.721  0.0841  0.2660  0.3303
 9606SOL    HW132316   1.942   3.475  10.761  0.3606 -0.6876 -1.1940
 9606SOL    HW232317   1.961   3.623  10.783 -1.3676 -0.7583  1.1050
 9607SOL     OW32318   8.338   8.932   6.097  0.3380 -0.0596  0.3551
 9607SOL    HW132319   8.310   9.013   6.053  1.4514  1.0861  1.6518
 9607SOL    HW232320   8.303   8.940   6.186  3.2238  0.6793  1.5452
 9608SOL     OW32321  10.770   5.053   3.066 -0.0741 -0.0412 -0.4113
 9608SOL    HW132322  10.821   5.089   2.993  0.0191 -0.2958 -0.4741
 9608SOL    HW232323  10.711   5.124   3.091  2.2608  1.3869  1.5986
 9609SOL     OW32324   7.560   4.653   2.164  0.1185 -0.1487  0.2177
 9609SOL    HW132325   7.495   4.584   2.155  0.4585 -0.3486 -0.9219
 9609SOL    HW232326   7.642   4.607   2.179  0.3928 -0.0283 -0.8229
 9610SOL     OW32327   3.959   4.762   6.965 -0.6837  0.2330  0.2409
 9610SOL    HW132328   4.002   4.694   6.912 -0.3571 -0.3850  1.2658
 9610SOL    HW232329   3.869   4.764   6.934 -1.1458 -1.8437  1.2655
 9611SOL     OW32330   2.844   9.216   0.908  0.5308  0.0389  0.2104
 9611SOL    HW132331   2.791   9.166   0.846  3.0619 -1.3614 -1.0004
 9611SOL    HW232332   2.835   9.169   0.991  0.3715 -0.5539 -0.1343
 9612SOL     OW32333   9.311   7.465   7.444  0.3490 -0.4688  0.2594
 9612SOL    HW132334   9.330   7.395   7.507 -0.9883 -0.9508  0.1683
 9612SOL    HW232335   9.359   7.440   7.365  1.4678 -0.2335  0.8518
 9613SOL     OW32336   4.145   7.148   3.266 -0.5757 -0.8401 -0.5821
 9613SOL    HW132337   4.070   7.197   3.232 -1.7560 -2.9292 -1.1908
 9613SOL    HW232338   4.157   7.180   3.355 -1.7663  0.0143 -0.7072
 9614SOL     OW32339   6.960  10.082   7.602  0.0573 -0.1199  0.2445
 9614SOL    HW132340   6.903  10.113   7.673 -0.7222  0.3078 -0.5525
 9614SOL    HW232341   7.013  10.158   7.579 -1.6202  0.6225 -1.4804
 9615SOL     OW32342   1.046   7.801   0.997 -0.0967 -0.2331 -0.1929
 9615SOL    HW132343   1.140   7.786   1.005  0.4596  2.3376 -0.8228
 9615SOL    HW232344   1.017   7.818   1.087  0.2851  0.0275 -0.1139
 9616SOL     OW32345   1.364   1.304   1.017  0.0253 -0.7118  0.1876
 9616SOL    HW132346   1.411   1.384   0.993  0.7806 -1.4931 -1.0511
 9616SOL    HW232347   1.281   1.309   0.970  0.3969 -1.0018 -0.5134
 9617SOL     OW32348   9.797   0.954   9.813 -0.1184 -0.2149  0.0867
 9617SOL    HW132349   9.739   0.901   9.758 -0.3696 -2.4607  2.3138
 9617SOL    HW232350   9.756   0.951   9.900  0.7932  2.3086  0.6749
 9618SOL     OW32351   4.845   9.152   4.884  0.4573 -0.1167  0.7728
 9618SOL    HW132352   4.934   9.141   4.850  0.4595 -0.5452  0.9048
 9618SOL    HW232353   4.795   9.083   4.841 -0.5414  2.0007 -1.7258
 9619SOL     OW32354   7.327   1.504   3.310 -0.5769 -0.1923  0.1300
 9619SOL    HW132355   7.233   1.511   3.290 -0.3697 -1.0811 -1.3314
 9619SOL    HW232356   7.363   1.451   3.238  0.6897 -1.7169  1.7935
 9620SOL     OW32357   6.271   0.591   3.408  0.0657  0.9359  0.1194
 9620SOL    HW132358   6.247   0.504   3.374 -0.2398  0.5598  1.2701
 9620SOL    HW232359   6.247   0.651   3.337  2.2783 -0.0599 -1.6173
 9621SOL     OW32360  10.382   4.232   4.302  0.5068 -0.4077  0.2629
 9621SOL    HW132361  10.349   4.210   4.215  0.3440 -1.8104  0.6556
 9621SOL    HW232362  10.311   4.281   4.344  1.1372  1.5744 -0.8789
 9622SOL     OW32363   7.400   4.588   0.690 -0.0941 -0.0863 -0.4128
 9622SOL    HW132364   7.414   4.560   0.780  0.3513 -0.2007 -0.5127
 9622SOL    HW232365   7.488   4.592   0.652 -0.3237 -0.7291 -1.0449
 9623SOL     OW32366   3.969   7.981   0.850  0.3388 -0.0926 -0.5758
 9623SOL    HW132367   3.949   7.917   0.781  1.3697 -2.7420  1.4128
 9623SOL    HW232368   3.897   7.973   0.912  1.7218 -1.2977  0.9550
 9624SOL     OW32369   4.449   3.535   2.253  0.3292  0.3934 -0.1615
 9624SOL    HW132370   4.483   3.501   2.170  1.8761  1.1365  0.1313
 9624SOL    HW232371   4.431   3.627   2.235 -1.0506  0.1401 -0.1499
 9625SOL     OW32372   9.207  10.644   1.098  0.2320  0.0491  0.1299
 9625SOL    HW132373   9.293  10.680   1.077 -0.0474  1.2855  0.9949
 9625SOL    HW232374   9.225  10.554   1.126  1.0200 -0.3218 -1.4840
 9626SOL     OW32375   5.632   7.500   4.341 -0.4424  0.3642 -0.4049
 9626SOL    HW132376   5.683   7.419   4.330 -0.1618  0.4256  0.3473
 9626SOL    HW232377   5.684   7.552   4.403 -0.4689  1.2548 -1.1184
 9627SOL     OW32378   9.660   3.212   6.862  0.3674 -0.4672  0.5904
 9627SOL    HW132379   9.608   3.226   6.782  1.9789 -0.1739 -0.4549
 9627SOL    HW232380   9.751   3.218   6.833  1.0281 -1.9338  2.1858
 9628SOL     OW32381   9.599   4.334   5.706 -0.2035  0.2529 -0.3788
 9628SOL    HW132382   9.649   4.414   5.726 -0.9609  0.4129  1.0248
 9628SOL    HW232383   9.535   4.328   5.777  1.2998 -2.8478  0.8832
 9629SOL     OW32384   8.593   8.908  10.181 -0.6808 -0.7420  0.0797
 9629SOL    HW132385   8.593   8.872  10.270  2.2934  0.5394  0.7109
 9629SOL    HW232386   8.557   8.996  10.191 -0.8712 -0.7978 -0.1032
 9630SOL     OW32387   4.642   3.004   4.127  0.0847 -0.8833 -0.3290
 9630SOL    HW132388   4.694   2.996   4.207 -0.3453  0.1889  0.0681
 9630SOL    HW232389   4.559   3.042   4.155 -0.4857 -1.4967 -1.1343
 9631SOL     OW32390   9.652   6.501   4.596  0.0803 -0.3534  0.2052
 9631SOL    HW132391   9.674   6.409   4.582  0.3196  0.0127 -2.1998
 9631SOL    HW232392   9.561   6.509   4.568  0.3528  0.3205 -0.5134
 9632SOL     OW32393   8.598   9.009   9.502 -0.1439  0.0499 -0.6759
 9632SOL    HW132394   8.657   8.966   9.565 -1.9003 -0.3914  0.7426
 9632SOL    HW232395   8.514   9.012   9.547 -1.3826  0.0477 -2.8991
 9633SOL     OW32396   2.854   5.210   9.279  0.2301 -0.1724 -0.0597
 9633SOL    HW132397   2.892   5.194   9.192 -1.0189  0.4621 -0.7567
 9633SOL    HW232398   2.772   5.160   9.278 -0.9284  1.6514 -0.1424
 9634SOL     OW32399  11.002   3.462   1.794  0.0726 -0.5006 -0.4846
 9634SOL    HW132400  11.065   3.390   1.804 -1.8166 -2.0413  1.2478
 9634SOL    HW232401  11.013   3.492   1.704  2.3023 -1.5982 -0.6496
 9635SOL     OW32402   5.626   4.970   8.229  0.1205  0.2587 -0.3200
 9635SOL    HW132403   5.664   4.887   8.256  0.5703  0.4975 -0.2011
 9635SOL    HW232404   5.561   4.990   8.296  0.8587  0.5913  0.3172
 9636SOL     OW32405   8.426   6.065   8.728 -0.2981  0.0983  0.4899
 9636SOL    HW132406   8.429   6.159   8.746  0.8036  0.7044 -2.2849
 9636SOL    HW232407   8.500   6.029   8.775 -0.4244  0.7034  1.1687
 9637SOL     OW32408   0.171   4.198   8.215 -0.2893 -0.3207  0.0250
 9637SOL    HW132409   0.154   4.247   8.135 -0.2185  0.0831  0.2583
 9637SOL    HW232410   0.181   4.107   8.186 -0.9503 -0.2808 -0.3415
 9638SOL     OW32411   6.269   4.424   2.213 -0.2777  0.1420  0.0156
 9638SOL    HW132412   6.282   4.504   2.264  0.2367  0.7712 -1.0967
 9638SOL    HW232413   6.244   4.454   2.126  0.2204 -0.9035 -0.5014
 9639SOL     OW32414   4.680   0.619   1.886 -0.1160  0.0040  0.2919
 9639SOL    HW132415   4.670   0.647   1.977  2.6694 -1.9892  1.3983
 9639SOL    HW232416   4.643   0.531   1.884 -2.7206  1.0326 -1.3452
 9640SOL     OW32417   3.711  10.597   0.991  0.0345 -0.7150 -0.4827
 9640SOL    HW132418   3.700  10.558   1.077  2.4211 -2.0736 -0.7073
 9640SOL    HW232419   3.622  10.603   0.956 -0.8577 -1.3867  1.4992
 9641SOL     OW32420   3.437  10.328  10.960  0.1673 -0.1955 -0.0407
 9641SOL    HW132421   3.389  10.345  10.879 -0.6789  0.7520  0.6224
 9641SOL    HW232422   3.484  10.247  10.944 -0.7586 -0.5401 -1.1369
 9642SOL     OW32423   7.134   8.240   8.959 -0.4568  0.2822  0.0162
 9642SOL    HW132424   7.146   8.200   8.873  1.2699 -2.1639  1.2733
 9642SOL    HW232425   7.121   8.165   9.018 -0.2474  1.8040  2.0955
 9643SOL     OW32426   6.618   9.716   5.067 -0.6520  0.1763 -0.6632
 9643SOL    HW132427   6.554   9.723   4.997  0.2268 -1.6289 -1.7114
 9643SOL    HW232428   6.669   9.638   5.045  0.7175  0.5187  1.1082
 9644SOL     OW32429   1.293   3.127  10.700  0.5663  0.2477  0.1916
 9644SOL    HW132430   1.283   3.218  10.673 -1.9110  0.1543  0.5374
 9644SOL    HW232431   1.309   3.131  10.794 -0.8240  0.3487  0.4509
 9645SOL     OW32432   1.725   1.738   3.403 -0.2458 -0.0909 -0.1834
 9645SOL    HW132433   1.800   1.798   3.401  0.5949 -1.0825  0.5784
 9645SOL    HW232434   1.661   1.782   3.459 -0.2901  0.8081 -0.9167
 9646SOL     OW32435   6.127   1.012   3.976  0.0146 -0.2744  0.3241
 9646SOL    HW132436   6.078   1.015   3.894  1.8952 -0.4657 -0.8457
 9646SOL    HW232437   6.092   1.086   4.027 -1.1024 -0.0838 -0.6695
 9647SOL     OW32438   4.635   0.194   7.844 -0.2602  0.2584 -0.0315
 9647SOL    HW132439   4.679   0.155   7.920 -0.6883 -0.5889 -0.2055
 9647SOL    HW232440   4.678   0.156   7.768  0.4858  1.4657 -0.2460
 9648SOL     OW32441   6.834   0.451   1.511  0.7393 -0.5601 -0.1103
 9648SOL    HW132442   6.872   0.529   1.471 -0.3630 -0.1967 -0.4852
 9648SOL    HW232443   6.813   0.394   1.437  0.2197 -0.5927  0.0598
 9649SOL     OW32444   7.095   7.159   7.067 -0.3766 -0.0135  0.2444
 9649SOL    HW132445   7.168   7.097   7.074 -0.2516  0.1003 -0.0209
 9649SOL    HW232446   7.135   7.245   7.079 -0.1020  0.2158 -1.8800
 9650SOL     OW32447   3.405   6.626   8.394  0.0045  0.5202 -0.6566
 9650SOL    HW132448   3.347   6.702   8.396  0.0409  0.5348  0.4957
 9650SOL    HW232449   3.490   6.662   8.369  0.3987  1.1594  1.4343
 9651SOL     OW32450   7.378   4.024   7.554  0.3430 -0.8240  0.3516
 9651SOL    HW132451   7.422   4.061   7.630 -0.1514 -0.4617  0.4697
 9651SOL    HW232452   7.431   4.052   7.479 -0.1397  0.3329  0.4196
 9652SOL     OW32453   3.363   3.209   6.884  0.0136 -0.3254 -0.0932
 9652SOL    HW132454   3.337   3.193   6.793  0.1824  0.8255 -0.3723
 9652SOL    HW232455   3.457   3.194   6.885  0.2531  1.0197 -0.4691
 9653SOL     OW32456   1.164   1.495   5.765 -0.3995  0.4976 -0.4039
 9653SOL    HW132457   1.119   1.580   5.768 -0.0539  0.7569 -1.8756
 9653SOL    HW232458   1.147   1.456   5.851 -2.1205  1.2466 -0.3622
 9654SOL     OW32459   5.981   4.325   2.105 -0.2364  0.0529  0.5824
 9654SOL    HW132460   6.047   4.388   2.078  0.6802 -0.6610  1.1114
 9654SOL    HW232461   5.968   4.343   2.198  1.6060 -1.8656  1.2965
 9655SOL     OW32462   5.107   1.442  10.574  0.0469 -0.3522  0.7552
 9655SOL    HW132463   5.124   1.398  10.490 -0.0718 -0.9572  1.0458
 9655SOL    HW232464   5.075   1.372  10.631 -1.7387  0.4220  0.7411
 9656SOL     OW32465   2.351   0.054   3.980  0.2685  0.3085  0.5576
 9656SOL    HW132466   2.290   0.116   4.020  0.5933  0.2358  1.1845
 9656SOL    HW232467   2.334  -0.029   4.024 -0.2252 -0.0748 -0.3451
 9657SOL     OW32468   3.105   5.569   9.909  0.1050 -0.3280 -0.1239
 9657SOL    HW132469   3.182   5.579   9.853  0.8437  1.9431  1.1450
 9657SOL    HW232470   3.031   5.589   9.851  0.4837 -1.7882 -1.1701
 9658SOL     OW32471   9.615   2.175   2.474 -0.3751  0.1027 -0.2746
 9658SOL    HW132472   9.609   2.231   2.551 -1.5963 -0.3458 -0.0336
 9658SOL    HW232473   9.704   2.190   2.441 -0.8493  2.6321 -0.5688
 9659SOL     OW32474  10.224   6.539   1.873 -0.0690 -0.1296  0.1864
 9659SOL    HW132475  10.152   6.478   1.885 -0.1650  0.2951  1.9585
 9659SOL    HW232476  10.289   6.515   1.940  0.5786  0.7167 -0.1149
 9660SOL     OW32477   0.151   3.228   1.835  0.3517  0.0237 -0.7541
 9660SOL    HW132478   0.218   3.179   1.787  0.0411 -0.2696 -0.8949
 9660SOL    HW232479   0.086   3.162   1.860 -0.3979  0.4558 -1.5038
 9661SOL     OW32480   7.053   5.799   3.730  0.4372 -0.8387  0.2551
 9661SOL    HW132481   7.007   5.715   3.721  0.5988 -0.8150 -0.9465
 9661SOL    HW232482   7.142   5.780   3.699  0.5897 -0.3179  0.3751
 9662SOL     OW32483  10.263  10.534   0.049  0.5777  0.1091 -0.5680
 9662SOL    HW132484  10.278  10.614  -0.001  1.4570 -0.6295 -1.5363
 9662SOL    HW232485  10.351  10.499   0.066  0.1814 -1.2106 -1.1160
 9663SOL     OW32486   0.547   8.215  10.956 -0.0782 -0.0195  0.6675
 9663SOL    HW132487   0.589   8.157  10.892  0.5201  1.9620 -0.8428
 9663SOL    HW232488   0.611   8.222  11.028 -0.0366 -0.9764  0.7333
 9664SOL     OW32489   3.794  10.762   6.121 -0.2181  0.4631  0.3272
 9664SOL    HW132490   3.879  10.758   6.078  0.2472  1.0651  1.1622
 9664SOL    HW232491   3.814  10.780   6.213 -1.1250 -1.7742  1.0321
 9665SOL     OW32492   0.413  10.199   4.914 -0.4520  0.0339  0.7050
 9665SOL    HW132493   0.421  10.253   4.992  0.0152  0.8103  0.1358
 9665SOL    HW232494   0.323  10.212   4.884 -0.4020  0.3467  0.6861
 9666SOL     OW32495  10.668   3.672   0.243 -0.4223 -0.2954 -0.8473
 9666SOL    HW132496  10.593   3.659   0.186 -0.4161  1.2869 -1.2736
 9666SOL    HW232497  10.634   3.721   0.318 -0.0006 -0.3431 -0.6194
 9667SOL     OW32498   3.939   7.444   3.498  0.0395  0.1047 -0.6152
 9667SOL    HW132499   3.953   7.500   3.422 -0.4522 -0.0984 -0.8647
 9667SOL    HW232500   3.878   7.494   3.553 -2.1120 -1.0196 -1.8258
 9668SOL     OW32501   0.597   4.837   6.924 -0.2433 -0.4137  0.6703
 9668SOL    HW132502   0.670   4.776   6.937  1.1380  0.0333 -3.4269
 9668SOL    HW232503   0.519   4.782   6.925  0.8080 -2.0858 -1.1520
 9669SOL     OW32504   4.141   0.919   0.647  0.0715  0.2135 -0.4855
 9669SOL    HW132505   4.153   1.014   0.643 -0.7227  0.3250 -0.3326
 9669SOL    HW232506   4.116   0.901   0.738  0.3848 -0.1656 -0.4699
 9670SOL     OW32507   9.614   8.709   4.093  0.1132 -0.1242  0.3627
 9670SOL    HW132508   9.623   8.633   4.035  0.6068  0.0135  0.2517
 9670SOL    HW232509   9.544   8.761   4.053 -1.0368 -1.0666  1.0633
 9671SOL     OW32510   2.961   6.106   8.891  0.0544  0.2996  0.1715
 9671SOL    HW132511   2.882   6.152   8.861 -0.8005 -0.2607  1.4553
 9671SOL    HW232512   3.018   6.104   8.815 -1.5889 -0.1448 -1.1179
 9672SOL     OW32513  10.035  10.124   7.468  0.2497  0.3661  0.6058
 9672SOL    HW132514  10.120  10.103   7.507 -0.1324 -1.6375  0.4804
 9672SOL    HW232515   9.979  10.050   7.491 -1.5796  1.7848  0.9560
 9673SOL     OW32516   9.425   3.213   9.828  0.2707  0.1672  0.2570
 9673SOL    HW132517   9.519   3.198   9.829  0.7459  2.6658  0.9536
 9673SOL    HW232518   9.403   3.218   9.735  0.3288 -2.5852  0.0049
 9674SOL     OW32519   8.593   2.532  10.005  0.1068 -0.1033  0.1285
 9674SOL    HW132520   8.676   2.524  10.051  0.0831  1.3135  0.4658
 9674SOL    HW232521   8.600   2.616   9.959 -0.2752 -0.9951 -1.6329
 9675SOL     OW32522   5.262   5.861   2.603 -0.4874  0.4363 -0.0661
 9675SOL    HW132523   5.302   5.936   2.559 -0.8614  0.8975  0.3633
 9675SOL    HW232524   5.320   5.843   2.677  0.5732 -0.8368 -1.1502
 9676SOL     OW32525   4.794   4.173   1.314 -0.5131 -0.2803  0.7088
 9676SOL    HW132526   4.792   4.164   1.218 -0.4838 -0.7115  0.7428
 9676SOL    HW232527   4.758   4.259   1.331 -0.5334 -0.2060  0.3070
 9677SOL     OW32528   3.885   5.436   5.094 -0.1843  0.0177  0.1629
 9677SOL    HW132529   3.896   5.386   5.175 -0.8143 -0.1122  0.1727
 9677SOL    HW232530   3.974   5.446   5.060 -0.1187 -1.9726 -0.3547
 9678SOL     OW32531  10.461   3.024   6.869  0.2447 -0.2604 -0.2154
 9678SOL    HW132532  10.527   3.033   6.801  1.7465 -0.8707  1.1050
 9678SOL    HW232533  10.405   3.101   6.858  2.0279  1.0541 -0.4896
 9679SOL     OW32534   7.522   6.630  10.336  0.2080  0.0151  0.0917
 9679SOL    HW132535   7.592   6.693  10.354  0.7370 -0.1410 -1.3380
 9679SOL    HW232536   7.459   6.679  10.283 -0.8924  0.2101  1.5175
 9680SOL     OW32537   8.622   8.582   6.866 -0.3208  0.2198 -0.4310
 9680SOL    HW132538   8.665   8.507   6.824  1.3712  1.0735 -0.2627
 9680SOL    HW232539   8.574   8.625   6.795 -0.6819 -0.5677 -0.6778
 9681SOL     OW32540   0.887   2.927   9.437 -0.1481 -0.1744 -0.3547
 9681SOL    HW132541   0.803   2.969   9.457 -0.2958  0.2926 -1.8081
 9681SOL    HW232542   0.917   2.971   9.357  1.4317 -0.4133  0.0658
 9682SOL     OW32543   9.277   5.610   0.492 -0.5511 -0.3186 -0.6404
 9682SOL    HW132544   9.237   5.598   0.578 -0.9552  0.4165 -0.7088
 9682SOL    HW232545   9.337   5.536   0.482  0.5992  0.3528  0.8818
 9683SOL     OW32546   4.737   0.430   2.161 -0.0295  0.2202  0.3023
 9683SOL    HW132547   4.823   0.427   2.203 -1.4603 -0.2408  3.5175
 9683SOL    HW232548   4.708   0.520   2.173 -0.5791  0.0048  0.6564
 9684SOL     OW32549   7.360   5.014  10.678  0.3107 -0.6505  0.0611
 9684SOL    HW132550   7.276   5.011  10.632  1.6819  0.3197 -2.7386
 9684SOL    HW232551   7.352   5.089  10.737 -0.2912  0.4724 -1.3687
 9685SOL     OW32552   4.805   6.642   7.974  0.3704  0.4339  0.9128
 9685SOL    HW132553   4.895   6.632   7.941  0.7314 -1.9258  2.3494
 9685SOL    HW232554   4.750   6.613   7.901  0.6898  2.2195 -0.1032
 9686SOL     OW32555  10.460   6.732   7.388 -0.0296  0.2128  0.6663
 9686SOL    HW132556  10.367   6.721   7.368  0.0044  3.7177 -2.4290
 9686SOL    HW232557  10.502   6.657   7.346 -1.1504  0.7807 -1.6040
 9687SOL     OW32558   5.480   2.178   5.192  0.2872  0.0337  0.7489
 9687SOL    HW132559   5.514   2.261   5.158 -1.6713 -0.0417 -1.6136
 9687SOL    HW232560   5.532   2.111   5.149 -0.2266 -0.0009  0.1671
 9688SOL     OW32561   5.394   6.905   1.991 -0.6477  0.2606  0.0146
 9688SOL    HW132562   5.435   6.931   2.074 -0.2402 -0.9501  0.2083
 9688SOL    HW232563   5.344   6.826   2.013 -0.0494 -0.4233 -1.0124
 9689SOL     OW32564   2.259   2.376   2.881  0.2516 -1.0524  0.4787
 9689SOL    HW132565   2.270   2.458   2.832  1.8853 -0.8665  1.0975
 9689SOL    HW232566   2.165   2.364   2.886  0.0104 -0.2891 -1.4073
 9690SOL     OW32567  10.681   7.701   1.496 -0.5847 -0.3911  0.2126
 9690SOL    HW132568  10.740   7.633   1.528  0.1561  0.3946  0.5272
 9690SOL    HW232569  10.602   7.690   1.549  0.1918  0.1342  1.5148
 9691SOL     OW32570   5.826   2.189  10.787  0.1703 -0.4942 -0.0425
 9691SOL    HW132571   5.812   2.256  10.721 -1.5596 -0.1807  0.5783
 9691SOL    HW232572   5.757   2.205  10.852  0.4189 -2.1667  0.6846
 9692SOL     OW32573  10.842  10.224   7.693  0.6708 -0.0295  0.2861
 9692SOL    HW132574  10.838  10.188   7.782  0.3392 -0.3112  0.1591
 9692SOL    HW232575  10.807  10.155   7.638  0.1639  0.4334  0.0227
 9693SOL     OW32576   6.071   9.410   5.353  0.0009  0.9994  0.4773
 9693SOL    HW132577   6.038   9.327   5.387 -0.7695  0.4010 -1.5524
 9693SOL    HW232578   6.072   9.468   5.429  0.6049 -0.8472  1.9703
 9694SOL     OW32579   0.344   0.245   8.804 -0.2451  0.5344 -0.2902
 9694SOL    HW132580   0.426   0.275   8.765 -0.0846 -2.5007 -2.6727
 9694SOL    HW232581   0.276   0.279   8.746 -0.4185  0.4238 -0.1537
 9695SOL     OW32582   1.671   7.901   6.066  0.6728  0.5344 -0.0957
 9695SOL    HW132583   1.596   7.850   6.097 -1.2159  1.8605 -2.1372
 9695SOL    HW232584   1.679   7.973   6.129  0.8355 -0.0862  0.6137
 9696SOL     OW32585   1.011   3.011   8.463 -0.0185  0.0045 -0.2048
 9696SOL    HW132586   1.067   3.088   8.472  1.7142 -1.3314  0.8581
 9696SOL    HW232587   1.013   2.969   8.549  0.4694 -2.1343 -1.1974
 9697SOL     OW32588   7.769   3.340   0.942 -0.1590  0.2853 -0.6519
 9697SOL    HW132589   7.773   3.246   0.962 -1.2884  0.4182  0.3105
 9697SOL    HW232590   7.677   3.363   0.955  0.4072  1.8921  0.8789
 9698SOL     OW32591   9.143   6.648   8.629 -0.6264  0.2092  0.0423
 9698SOL    HW132592   9.167   6.614   8.543  3.2067  0.5917  0.8071
 9698SOL    HW232593   9.097   6.730   8.611 -1.6565 -0.6675 -1.5949
 9699SOL     OW32594   5.677   0.786   8.799 -0.3954 -0.2586 -0.4664
 9699SOL    HW132595   5.615   0.779   8.872  0.0955 -0.3212 -0.0550
 9699SOL    HW232596   5.755   0.739   8.828 -0.1330 -0.1403 -0.9635
 9700SOL     OW32597   0.298   7.565   0.675 -0.8872 -0.0147 -0.0090
 9700SOL    HW132598   0.282   7.626   0.603 -1.1380 -0.3623 -0.2494
 9700SOL    HW232599   0.226   7.502   0.669 -1.4211  0.4594  1.0870
 9701SOL     OW32600   1.789   9.038   5.102 -0.0465 -0.3666 -0.0811
 9701SOL    HW132601   1.749   9.089   5.172 -1.3117 -0.9166 -0.3816
 9701SOL    HW232602   1.734   8.960   5.094  0.4907 -0.6526 -1.2086
 9702SOL     OW32603   2.730   2.729   8.016 -0.3906 -0.2195 -0.2292
 9702SOL    HW132604   2.799   2.664   8.027 -0.0053  0.1059 -0.7155
 9702SOL    HW232605   2.767   2.810   8.049  0.2234  0.4229 -2.3559
 9703SOL     OW32606  10.498   2.283   6.150  0.0846  0.2952  0.0480
 9703SOL    HW132607  10.507   2.303   6.057 -1.8933 -2.1057 -0.7724
 9703SOL    HW232608  10.479   2.368   6.191  2.6848  1.6864 -1.3818
 9704SOL     OW32609  10.170   7.706   7.016  0.1365 -0.0723 -0.3192
 9704SOL    HW132610  10.087   7.699   6.969 -0.1298  0.9860 -0.0218
 9704SOL    HW232611  10.178   7.624   7.064 -0.8236 -0.0985 -0.2028
 9705SOL     OW32612   0.955   1.517   3.182  0.0192 -0.2959  0.2586
 9705SOL    HW132613   1.010   1.593   3.164 -2.7443  2.6846  3.0503
 9705SOL    HW232614   0.974   1.495   3.274  0.7984 -3.1942 -0.4833
 9706SOL     OW32615   1.697   0.682   1.542  0.1175  0.1329  0.4244
 9706SOL    HW132616   1.628   0.624   1.508  1.8992 -0.3942 -2.7187
 9706SOL    HW232617   1.757   0.624   1.588  1.9937 -0.7954 -2.8690
 9707SOL     OW32618   4.688   5.846   4.502 -0.3446  0.1727  0.0509
 9707SOL    HW132619   4.724   5.892   4.578  1.6646 -0.4296 -0.4603
 9707SOL    HW232620   4.594   5.845   4.517 -0.2247  2.1183  1.3569
 9708SOL     OW32621   8.726  10.679   9.530  0.9866  0.7183  0.0707
 9708SOL    HW132622   8.658  10.739   9.499 -0.6222 -1.0994 -0.0817
 9708SOL    HW232623   8.757  10.718   9.612 -1.5309  0.7393  1.0957
 9709SOL     OW32624   9.065   0.935   8.048  0.3058  0.5923 -0.2176
 9709SOL    HW132625   8.981   0.948   8.093  0.6804  0.9772  0.3863
 9709SOL    HW232626   9.044   0.943   7.955 -0.5819 -0.7241 -0.1722
 9710SOL     OW32627   7.762   2.083   1.942  0.1262 -0.1188  0.2678
 9710SOL    HW132628   7.752   2.016   2.009  1.2573 -0.2587  0.3148
 9710SOL    HW232629   7.674   2.098   1.909 -0.0907 -2.0174 -0.1043
 9711SOL     OW32630   0.263   0.952   0.413 -0.2377  0.1539  0.5943
 9711SOL    HW132631   0.318   1.010   0.466 -0.4288 -0.7795  1.8547
 9711SOL    HW232632   0.267   0.990   0.325  1.4024  0.8211  0.9105
 9712SOL     OW32633   2.654   8.381   1.404  0.7057  0.1529 -0.1097
 9712SOL    HW132634   2.607   8.434   1.468 -0.0416 -0.8395  0.1866
 9712SOL    HW232635   2.620   8.292   1.416 -0.0254  0.0590 -2.3860
 9713SOL     OW32636   3.987   2.598   9.763 -0.0145  0.1174  0.4167
 9713SOL    HW132637   4.002   2.513   9.803  1.1517 -0.5570 -1.3318
 9713SOL    HW232638   3.905   2.588   9.715 -0.2631  0.2357  0.8073
 9714SOL     OW32639   0.970   3.554   7.349 -0.3730  0.2250 -0.3202
 9714SOL    HW132640   0.963   3.634   7.400 -1.6595 -0.6837  1.0240
 9714SOL    HW232641   0.896   3.557   7.288  0.7838  1.0015 -1.7365
 9715SOL     OW32642   0.946   9.919   0.214 -0.3775 -0.4549  0.4830
 9715SOL    HW132643   0.969   9.963   0.132 -1.8670  0.4252  0.4967
 9715SOL    HW232644   0.969   9.982   0.283  0.7159 -1.1256  0.7445
 9716SOL     OW32645  10.498   9.365   0.039  0.1171 -0.2167 -0.3526
 9716SOL    HW132646  10.501   9.438   0.100  0.1798 -0.9817  0.5939
 9716SOL    HW232647  10.420   9.315   0.064 -0.8378  0.3627 -2.0132
 9717SOL     OW32648   1.613   2.517   0.874 -0.1758  0.0297  0.3738
 9717SOL    HW132649   1.614   2.524   0.779 -1.2037 -0.1226  0.3336
 9717SOL    HW232650   1.695   2.474   0.896  0.2842  0.4918 -0.4023
 9718SOL     OW32651   3.875   3.243   6.766  0.4213  0.2453 -0.4444
 9718SOL    HW132652   3.913   3.295   6.695  1.6675  1.2829  0.9131
 9718SOL    HW232653   3.911   3.281   6.846 -1.4432 -0.4639  0.8091
 9719SOL     OW32654   4.884  10.698  10.800 -0.2296  0.0438  0.3706
 9719SOL    HW132655   4.901  10.605  10.785  1.3741  0.3916 -0.2014
 9719SOL    HW232656   4.792  10.702  10.825 -0.1478 -1.7661  1.1035
 9720SOL     OW32657   3.129   4.063   9.852  0.8667  0.6472 -0.5817
 9720SOL    HW132658   3.065   4.027   9.914 -0.6390  0.5077 -2.1602
 9720SOL    HW232659   3.187   3.989   9.833 -0.1624 -0.0353 -1.1991
 9721SOL     OW32660   0.685   8.860   5.178 -0.4000 -0.2630 -0.2733
 9721SOL    HW132661   0.779   8.846   5.164 -0.5843 -2.8735  0.4808
 9721SOL    HW232662   0.674   8.954   5.173  2.8943  0.5695  3.0387
 9722SOL     OW32663   3.819   8.100   6.810  0.0698  0.7009 -0.0591
 9722SOL    HW132664   3.784   8.106   6.899 -0.5478  0.7820 -0.3001
 9722SOL    HW232665   3.870   8.019   6.810 -0.9129  0.0607  0.0440
 9723SOL     OW32666   5.556   8.207   9.427 -0.2908  0.2764  0.6005
 9723SOL    HW132667   5.527   8.282   9.376 -1.5907 -0.2750  0.4676
 9723SOL    HW232668   5.628   8.239   9.480  0.7917  0.9976 -1.1997
 9724SOL     OW32669   5.449   9.052  10.931  0.3622  0.3592  0.6956
 9724SOL    HW132670   5.496   9.019  10.856 -1.8433 -1.0647 -0.1701
 9724SOL    HW232671   5.473   9.145  10.936  0.4167  0.5513 -1.8920
 9725SOL     OW32672   6.529   2.539  10.688  0.0430  0.4201 -0.3251
 9725SOL    HW132673   6.436   2.518  10.693  0.2905 -0.6323  0.3770
 9725SOL    HW232674   6.543   2.567  10.598 -0.5661 -1.5503 -1.0997
 9726SOL     OW32675   9.469   1.478   4.471 -0.1687  0.0968  0.2889
 9726SOL    HW132676   9.495   1.415   4.403  0.1214  1.5410 -0.9855
 9726SOL    HW232677   9.406   1.536   4.427 -0.6399  0.5498  1.5140
 9727SOL     OW32678   8.508   8.874   9.264  0.0903 -0.1778  0.2646
 9727SOL    HW132679   8.589   8.835   9.232  0.8507 -1.8474  3.7713
 9727SOL    HW232680   8.535   8.927   9.339 -1.6658  2.7369 -0.9693
 9728SOL     OW32681   3.664   6.601   9.216 -0.1436  0.0602  0.3299
 9728SOL    HW132682   3.604   6.655   9.267 -1.3330 -0.7493 -0.1624
 9728SOL    HW232683   3.671   6.520   9.267  0.1288 -0.0424  0.1312
 9729SOL     OW32684   9.255   8.644   3.499  0.2183 -0.7033  0.0464
 9729SOL    HW132685   9.185   8.620   3.561 -0.3574  3.6985  1.4734
 9729SOL    HW232686   9.335   8.637   3.550  0.1917 -0.7919  0.0759
 9730SOL     OW32687   5.128   2.906   7.880  0.3231 -0.6310 -0.5543
 9730SOL    HW132688   5.150   2.823   7.839 -0.4880  0.1876 -2.7947
 9730SOL    HW232689   5.033   2.907   7.885  0.3845 -0.7710  1.6252
 9731SOL     OW32690   1.916   4.405   7.503 -0.1588 -0.2145 -0.2810
 9731SOL    HW132691   1.840   4.379   7.554  0.9355 -2.2234  0.4456
 9731SOL    HW232692   1.890   4.487   7.461 -2.1524 -0.0443  1.1344
 9732SOL     OW32693   4.976   8.885   4.908  0.7995 -0.1705 -0.1861
 9732SOL    HW132694   5.063   8.924   4.919  1.1805 -1.2296  0.7239
 9732SOL    HW232695   4.984   8.797   4.946 -0.8579 -0.0362  0.5490
 9733SOL     OW32696   6.400   7.549   7.583  0.0677  0.1143  0.3699
 9733SOL    HW132697   6.415   7.460   7.552 -0.6082 -0.5278  1.8079
 9733SOL    HW232698   6.397   7.602   7.503 -0.0962 -1.2247 -0.5457
 9734SOL     OW32699   1.999   7.394   0.570 -0.5582 -0.0510 -0.5566
 9734SOL    HW132700   1.939   7.448   0.621 -0.3497  0.4740 -0.8552
 9734SOL    HW232701   1.988   7.306   0.604  0.2784  0.4329  1.0643
 9735SOL     OW32702   6.248  10.388   2.716  0.0239 -0.2096 -0.2195
 9735SOL    HW132703   6.238  10.482   2.733  2.2996 -0.2832  2.2793
 9735SOL    HW232704   6.281  10.384   2.626  1.5921  1.6011  0.1864
 9736SOL     OW32705   7.357   4.230   8.353  0.3698  0.1345  0.0841
 9736SOL    HW132706   7.376   4.218   8.260 -0.1921  0.0051 -0.0207
 9736SOL    HW232707   7.263   4.212   8.360  0.4798 -0.2088  0.7376
 9737SOL     OW32708   4.127   9.091   1.253 -0.4594 -0.7443 -0.1206
 9737SOL    HW132709   4.127   8.998   1.231 -0.7718 -1.1178  1.3379
 9737SOL    HW232710   4.037   9.110   1.278 -0.7575  0.3468 -1.8448
 9738SOL     OW32711   4.420   6.057   7.605  0.0731  0.2312 -0.1296
 9738SOL    HW132712   4.380   6.073   7.519 -2.4070  0.4695  0.9816
 9738SOL    HW232713   4.459   6.141   7.629  0.9563  0.1058 -1.0980
 9739SOL     OW32714  10.656   2.741   5.078  0.5421  0.2297 -0.4826
 9739SOL    HW132715  10.732   2.684   5.066 -0.2396 -1.0022  0.2522
 9739SOL    HW232716  10.585   2.682   5.101 -0.0704  1.5979  1.3426
 9740SOL     OW32717   3.191  10.753   6.694  0.3375  0.4495  0.6602
 9740SOL    HW132718   3.131  10.786   6.627  1.5859 -0.0178 -0.7379
 9740SOL    HW232719   3.140  10.756   6.775 -1.8085 -0.5481 -0.5652
 9741SOL     OW32720   9.423   5.475   4.585  0.2117  0.0486  0.2584
 9741SOL    HW132721   9.491   5.521   4.633 -0.6071  1.0782  0.4811
 9741SOL    HW232722   9.429   5.384   4.615  0.8853  0.3145  0.9545
 9742SOL     OW32723   8.499   5.684   8.014 -0.4020  0.2549  0.4978
 9742SOL    HW132724   8.412   5.654   8.038 -0.8319 -0.0234 -1.2745
 9742SOL    HW232725   8.551   5.675   8.094 -1.6261 -0.9681  1.1862
 9743SOL     OW32726   0.117   3.801   5.436 -0.3657  0.0882  0.1389
 9743SOL    HW132727   0.168   3.850   5.501  0.8732  0.3818 -1.0168
 9743SOL    HW232728   0.113   3.859   5.360 -2.0333 -0.1344  0.0118
 9744SOL     OW32729   8.526   3.440  10.983  0.3070  0.2668 -0.7489
 9744SOL    HW132730   8.583   3.415  11.056  1.6211  1.4763 -1.3059
 9744SOL    HW232731   8.502   3.531  11.002 -1.5504 -0.2265 -0.4979
 9745SOL     OW32732   7.720   5.139   3.755  0.6749  0.6220  0.4190
 9745SOL    HW132733   7.747   5.139   3.664 -1.4831  1.5140 -0.2859
 9745SOL    HW232734   7.751   5.224   3.789 -1.6688  1.9742 -0.5891
 9746SOL     OW32735   7.396   2.394   0.081 -0.5450  0.7734 -0.0346
 9746SOL    HW132736   7.403   2.326   0.015 -0.7734 -0.1070  0.8272
 9746SOL    HW232737   7.359   2.350   0.158  0.0511  1.6854  0.8062
 9747SOL     OW32738   3.408   3.788   9.035 -0.1743 -0.3415 -0.7607
 9747SOL    HW132739   3.328   3.770   9.084 -0.5532 -1.6527 -1.8114
 9747SOL    HW232740   3.382   3.851   8.969  0.0404  0.4292 -0.1279
 9748SOL     OW32741   5.333   4.374   2.009  0.2787 -0.4058  0.3215
 9748SOL    HW132742   5.350   4.460   1.970  1.3370 -0.5840  0.3556
 9748SOL    HW232743   5.262   4.389   2.071  0.1172  0.3419 -0.0363
 9749SOL     OW32744   4.097   1.613  10.334  0.4292  0.9633 -0.1092
 9749SOL    HW132745   4.080   1.575  10.420 -0.5360  0.3941 -0.5343
 9749SOL    HW232746   4.183   1.579  10.308  0.2072  0.2127  0.1292
 9750SOL     OW32747   8.294   9.317   4.251  0.1575 -0.4520 -0.0221
 9750SOL    HW132748   8.300   9.223   4.235  0.1399 -0.1852 -1.8387
 9750SOL    HW232749   8.385   9.347   4.256  0.1758 -0.4545 -0.2971
 9751SOL     OW32750   3.915   1.687   0.591 -0.4964 -0.0931 -0.3596
 9751SOL    HW132751   3.841   1.633   0.563 -0.1687 -0.8771  0.2433
 9751SOL    HW232752   3.992   1.633   0.573 -0.3008 -1.3760  3.4205
 9752SOL     OW32753   8.784   2.599   3.922 -0.2505 -0.5181 -0.0390
 9752SOL    HW132754   8.735   2.676   3.953 -2.8581 -1.8337 -0.5970
 9752SOL    HW232755   8.855   2.589   3.985 -0.9032  1.3305  1.0632
 9753SOL     OW32756   3.866   2.220   7.693  0.1478  0.9614  0.0159
 9753SOL    HW132757   3.809   2.146   7.715  1.5071  0.1930  1.1699
 9753SOL    HW232758   3.869   2.220   7.597 -0.3232 -0.1239 -0.0202
 9754SOL     OW32759   4.133   2.722   5.606  0.4593 -0.3554  0.3915
 9754SOL    HW132760   4.083   2.647   5.637 -0.6191 -0.0135 -0.4445
 9754SOL    HW232761   4.083   2.755   5.530  0.3813  1.7702  1.2790
 9755SOL     OW32762   4.889   7.129   0.470  0.6110 -0.0725  0.0219
 9755SOL    HW132763   4.815   7.161   0.418 -0.2013 -0.1580  1.0765
 9755SOL    HW232764   4.934   7.209   0.498  0.0655  0.0588  0.5568
 9756SOL     OW32765   7.587   3.187   7.988 -0.5298  0.5515 -0.4884
 9756SOL    HW132766   7.662   3.200   8.047 -0.7936  0.6830 -0.1785
 9756SOL    HW232767   7.538   3.115   8.029 -0.8181  0.7726 -0.4445
 9757SOL     OW32768   1.142   1.085   7.082  0.5796  0.3642 -0.1389
 9757SOL    HW132769   1.141   1.146   7.009 -0.1092 -0.8173 -1.1644
 9757SOL    HW232770   1.214   1.025   7.061  0.4227  0.0562  0.1938
 9758SOL     OW32771   9.315   5.789   6.301 -0.2678  0.2392  0.5078
 9758SOL    HW132772   9.359   5.833   6.373 -1.4684 -1.0272  2.1012
 9758SOL    HW232773   9.224   5.780   6.330 -0.9904  0.4295 -1.5364
 9759SOL     OW32774   7.334   0.260   1.271 -0.2386 -0.2514 -0.1095
 9759SOL    HW132775   7.350   0.347   1.307 -0.8448 -0.1969  0.0512
 9759SOL    HW232776   7.394   0.252   1.197  0.8107 -0.2507  0.7311
 9760SOL     OW32777   0.003   4.215   6.044  0.2123  0.2573 -0.5927
 9760SOL    HW132778  -0.034   4.300   6.070  0.8110 -0.2744  2.3035
 9760SOL    HW232779  -0.029   4.202   5.955 -3.5119  1.5399  0.3493
 9761SOL     OW32780   3.093   4.707   2.835  0.0688  0.2446 -0.8138
 9761SOL    HW132781   3.010   4.692   2.790 -0.4935  1.1734 -0.1153
 9761SOL    HW232782   3.110   4.624   2.882 -0.5545  0.1180 -0.8127
 9762SOL     OW32783   7.933   8.627   0.059 -0.5180 -0.3886 -0.0180
 9762SOL    HW132784   7.951   8.670  -0.025  0.2395 -0.5189  0.0681
 9762SOL    HW232785   7.996   8.666   0.120 -0.8005 -0.5752  0.3992
 9763SOL     OW32786   6.441  10.712   0.971 -0.2553  0.0782  0.3038
 9763SOL    HW132787   6.416  10.626   0.938 -0.1723 -0.1283  0.7774
 9763SOL    HW232788   6.469  10.760   0.893 -0.4663 -0.2652  0.0143
 9764SOL     OW32789  10.563   5.950   0.300  0.4952 -0.9035 -0.5825
 9764SOL    HW132790  10.610   5.876   0.339  0.3451  0.1273  1.7403
 9764SOL    HW232791  10.474   5.916   0.285 -0.2178 -0.7057  2.5236
 9765SOL     OW32792   7.482   1.236   7.376 -0.0207 -0.3025 -0.1065
 9765SOL    HW132793   7.548   1.294   7.339 -2.5059  3.1410  0.3990
 9765SOL    HW232794   7.435   1.202   7.300 -0.6930  1.1270 -0.3425
 9766SOL     OW32795   3.888   3.570   2.292  0.2851 -0.0828 -0.4241
 9766SOL    HW132796   3.962   3.610   2.246  1.2318 -1.5953 -0.2786
 9766SOL    HW232797   3.820   3.562   2.226 -0.0517  1.9647 -0.3996
 9767SOL     OW32798  10.492   3.342   7.856 -0.0280  0.5183 -0.0731
 9767SOL    HW132799  10.503   3.311   7.946  1.3260 -0.4663 -0.5444
 9767SOL    HW232800  10.426   3.412   7.863  1.6229  2.0077  1.9998
 9768SOL     OW32801   9.409  10.026   5.876  0.5136  0.0025 -0.0680
 9768SOL    HW132802   9.412   9.941   5.831  2.0644  0.9119 -1.8278
 9768SOL    HW232803   9.369  10.085   5.812  1.3416  1.0090  0.3120
 9769SOL     OW32804   5.993   5.538   0.000 -0.2705  0.0279 -0.1548
 9769SOL    HW132805   6.016   5.452   0.035 -1.2425 -0.4209 -0.5970
 9769SOL    HW232806   6.029   5.600   0.064  0.4168 -0.7027  0.1776
 9770SOL     OW32807   8.068   4.274   3.453  0.4991  0.4509 -0.2270
 9770SOL    HW132808   7.976   4.300   3.447  0.0136 -1.3315 -1.0793
 9770SOL    HW232809   8.115   4.357   3.464 -1.2442  1.3442  1.0201
 9771SOL     OW32810   3.783   6.195   6.495  0.3744 -0.5095 -0.4263
 9771SOL    HW132811   3.787   6.114   6.547  1.4360 -0.1887  0.0250
 9771SOL    HW232812   3.732   6.171   6.418  2.6708 -2.3221 -1.5107
 9772SOL     OW32813   8.937   8.554   1.143  0.2169  0.4181 -0.1472
 9772SOL    HW132814   8.993   8.486   1.106 -0.2857  0.7146 -1.5291
 9772SOL    HW232815   8.997   8.625   1.167  0.5490  0.2688 -0.5280
 9773SOL     OW32816   9.149   6.645   4.047  0.0614  0.0493 -0.0882
 9773SOL    HW132817   9.181   6.618   3.961  3.2799 -0.2300  1.0462
 9773SOL    HW232818   9.157   6.567   4.101 -0.9337  0.5001  0.7495
 9774SOL     OW32819   9.351   6.975   8.682  0.2859 -0.1149 -0.0718
 9774SOL    HW132820   9.331   6.924   8.604  0.0268 -0.2368  0.0725
 9774SOL    HW232821   9.444   6.997   8.674  0.7769 -1.8370  0.5608
 9775SOL     OW32822   4.123  10.525   8.873 -0.3634  0.1996  0.4956
 9775SOL    HW132823   4.144  10.503   8.964 -0.1910 -1.2580  0.1232
 9775SOL    HW232824   4.045  10.474   8.853  0.4500 -0.6409 -0.6187
 9776SOL     OW32825   6.209   9.703   2.000 -0.2991  0.2006  0.2583
 9776SOL    HW132826   6.293   9.718   1.957 -0.6987  0.6786 -0.3821
 9776SOL    HW232827   6.189   9.787   2.041 -0.7759  0.2995 -0.1654
 9777SOL     OW32828   6.851   6.244   9.908  0.2409 -0.4761  0.3588
 9777SOL    HW132829   6.859   6.332   9.872 -0.3154 -0.5727 -0.0290
 9777SOL    HW232830   6.757   6.225   9.902  0.1436 -0.5386  1.7819
 9778SOL     OW32831  10.315   2.781   3.763  0.5584 -0.5526  0.1283
 9778SOL    HW132832  10.223   2.801   3.748  0.2145 -2.1177  0.0067
 9778SOL    HW232833  10.332   2.813   3.852 -0.6924 -2.0474  0.9717
 9779SOL     OW32834   3.986   3.881   7.110  0.2262 -0.1319 -0.1011
 9779SOL    HW132835   4.006   3.960   7.161 -0.2043 -1.1201  1.6924
 9779SOL    HW232836   4.067   3.831   7.111  0.0909 -0.3508  0.0018
 9780SOL     OW32837   4.745   7.421   8.181  0.0335  0.7438  0.3449
 9780SOL    HW132838   4.741   7.498   8.125  0.9070  0.0884 -0.6582
 9780SOL    HW232839   4.688   7.442   8.255 -2.7837  0.8649 -1.6970
 9781SOL     OW32840   7.917   8.880   0.399 -0.6748 -0.3559 -0.2490
 9781SOL    HW132841   7.935   8.835   0.481  0.1439  1.3181  0.5282
 9781SOL    HW232842   7.919   8.973   0.421 -1.0106  0.1217 -2.0522
 9782SOL     OW32843   4.373   8.274   2.237 -0.1173  0.5891 -0.6577
 9782SOL    HW132844   4.347   8.274   2.145 -0.1957 -2.0743 -0.7151
 9782SOL    HW232845   4.290   8.271   2.285 -0.0678  1.6252 -0.4887
 9783SOL     OW32846   6.901   0.431   8.611  0.2778  0.2720 -0.1211
 9783SOL    HW132847   6.916   0.497   8.679 -1.5144  1.0540 -0.4308
 9783SOL    HW232848   6.806   0.420   8.609  0.4769 -1.7999 -0.5969
 9784SOL     OW32849   7.132   8.634   2.559 -0.0483 -0.0393 -0.0323
 9784SOL    HW132850   7.088   8.694   2.620 -0.4999 -0.0448 -0.3503
 9784SOL    HW232851   7.208   8.683   2.527  1.0258 -0.5351  1.6099
 9785SOL     OW32852  10.560   4.955   6.059  0.5886  0.5634  0.5338
 9785SOL    HW132853  10.574   5.036   6.108  0.5925  0.6269  0.4266
 9785SOL    HW232854  10.482   4.971   6.007  0.4283  0.4004  0.7206
 9786SOL     OW32855   2.018   1.798   3.909 -0.1537  0.2787 -0.0042
 9786SOL    HW132856   1.924   1.780   3.902 -0.1916  0.4115  0.1642
 9786SOL    HW232857   2.023   1.876   3.963  0.0295  0.6296 -0.5221
 9787SOL     OW32858   4.857   2.795   7.812  0.1463 -0.3465 -0.5296
 9787SOL    HW132859   4.781   2.853   7.816  1.1733  1.0774 -0.8478
 9787SOL    HW232860   4.848   2.750   7.728 -0.5121 -0.4576 -0.4096
 9788SOL     OW32861   4.128   6.282   5.565  0.1428  0.0808  0.0628
 9788SOL    HW132862   4.057   6.222   5.542 -0.1860 -0.0689  1.3524
 9788SOL    HW232863   4.129   6.347   5.495 -0.7771 -0.3465 -0.3615
 9789SOL     OW32864   1.261   9.205   5.284 -0.1202  1.0506  0.1643
 9789SOL    HW132865   1.327   9.143   5.314  0.3688  1.7065  0.4769
 9789SOL    HW232866   1.199   9.211   5.357  0.1512  1.3668  0.3729
 9790SOL     OW32867   1.978   4.709   0.938 -0.0144 -0.0954 -0.0322
 9790SOL    HW132868   1.906   4.719   1.001 -0.2480 -0.5146 -0.2284
 9790SOL    HW232869   2.053   4.749   0.982 -0.4676  0.7513 -0.0106
 9791SOL     OW32870   7.837   2.822   6.504 -0.1873  0.2233 -0.0077
 9791SOL    HW132871   7.763   2.836   6.445 -0.5533  0.0358  0.4027
 9791SOL    HW232872   7.892   2.758   6.458 -0.5461 -0.0403 -0.0777
 9792SOL     OW32873  10.413   3.553   9.720  0.1080 -0.0642 -0.0113
 9792SOL    HW132874  10.416   3.463   9.688 -2.4827  0.0329 -0.8150
 9792SOL    HW232875  10.374   3.602   9.648  0.2902  1.4712  0.8896
 9793SOL     OW32876  10.451   5.786   8.325 -0.7071  0.0150  0.0810
 9793SOL    HW132877  10.450   5.832   8.241  0.3488 -1.0645 -0.5423
 9793SOL    HW232878  10.544   5.766   8.340 -0.5721  1.9105  2.4792
 9794SOL     OW32879   8.100   1.798   5.410 -0.3318  0.6412  0.3011
 9794SOL    HW132880   8.079   1.858   5.481  0.7443  1.3085  0.0795
 9794SOL    HW232881   8.195   1.802   5.403  0.0075 -2.3053  1.3476
 9795SOL     OW32882   2.870   1.355   1.064  0.4627  0.1048 -0.0219
 9795SOL    HW132883   2.819   1.331   1.141  0.3581 -0.4163 -0.2500
 9795SOL    HW232884   2.815   1.416   1.016  0.6412  0.6488  0.4548
 9796SOL     OW32885   6.706   6.643   8.458  0.7182 -1.0100  0.0625
 9796SOL    HW132886   6.740   6.554   8.448  0.2633 -1.0648 -1.1888
 9796SOL    HW232887   6.689   6.672   8.368  2.6337  1.0542  0.2851
 9797SOL     OW32888   2.667   2.491   2.442  0.5803 -0.2228  0.2674
 9797SOL    HW132889   2.761   2.506   2.451  0.7127 -0.3180 -0.7725
 9797SOL    HW232890   2.660   2.427   2.370 -0.3418  1.1730 -0.9444
 9798SOL     OW32891   9.825   7.169   0.560  0.3570 -1.0785  0.0944
 9798SOL    HW132892   9.858   7.127   0.481 -0.0341  0.1046 -0.7261
 9798SOL    HW232893   9.869   7.124   0.632 -0.0309 -2.8470 -0.7341
 9799SOL     OW32894   3.370   6.684   1.008  0.5294 -0.0345 -0.5832
 9799SOL    HW132895   3.349   6.676   0.915 -1.2432 -1.6125 -0.1377
 9799SOL    HW232896   3.430   6.611   1.026  0.1173 -0.3194 -0.3302
 9800SOL     OW32897   1.359   8.132   1.990  0.1392 -0.4744  1.3158
 9800SOL    HW132898   1.387   8.151   2.080  3.7966  2.1923 -0.1175
 9800SOL    HW232899   1.307   8.208   1.964 -0.5547 -1.0371  1.0220
 9801SOL     OW32900   3.925   6.723   9.294 -0.3463 -0.4560  0.1116
 9801SOL    HW132901   3.850   6.682   9.251 -0.9899  1.3196 -0.5516
 9801SOL    HW232902   3.952   6.793   9.234 -0.2418  1.0507  1.8506
 9802SOL     OW32903   8.557   1.181   8.395  0.2151  0.1370  0.1337
 9802SOL    HW132904   8.559   1.146   8.306  1.4094  1.0712 -0.2386
 9802SOL    HW232905   8.476   1.232   8.398 -0.6020 -1.1200  0.0944
 9803SOL     OW32906   2.423   7.420   3.891  0.7413  0.0098 -0.0336
 9803SOL    HW132907   2.341   7.396   3.933  0.4871  0.5592 -0.2091
 9803SOL    HW232908   2.402   7.425   3.798  0.4571  2.1280  0.0889
 9804SOL     OW32909   6.712   6.407   4.594 -0.3861  0.6390  0.8514
 9804SOL    HW132910   6.779   6.372   4.537 -0.3893  1.3670  0.3878
 9804SOL    HW232911   6.677   6.483   4.547 -2.0101 -0.1155  0.7648
 9805SOL     OW32912   8.792   3.811   0.504  0.0051  0.1552  0.3069
 9805SOL    HW132913   8.734   3.878   0.542 -1.1081 -0.6962  0.1563
 9805SOL    HW232914   8.740   3.771   0.434  0.3159 -1.4588  0.9542
 9806SOL     OW32915   8.166   5.701   6.743 -0.4139 -0.7294  0.6383
 9806SOL    HW132916   8.159   5.769   6.809  0.2440 -0.0674  0.0459
 9806SOL    HW232917   8.239   5.728   6.688  0.2240 -2.2033  0.7148
 9807SOL     OW32918   0.535   1.363   8.909  0.6397  0.1460 -0.0762
 9807SOL    HW132919   0.486   1.289   8.947 -0.2127 -0.1328 -1.6175
 9807SOL    HW232920   0.532   1.431   8.976 -0.6169 -0.3994  0.4610
 9808SOL     OW32921   6.755   1.662   2.780 -0.1374  0.0254 -0.3879
 9808SOL    HW132922   6.700   1.658   2.702 -0.0418 -0.8351 -0.4178
 9808SOL    HW232923   6.844   1.667   2.746 -0.1601  0.9565 -0.3351
 9809SOL     OW32924   6.537   2.921   3.098  0.1207 -0.2653 -0.0860
 9809SOL    HW132925   6.498   3.008   3.083 -1.2975 -1.0106 -0.9750
 9809SOL    HW232926   6.467   2.860   3.075  1.3192 -1.6656 -0.1182
 9810SOL     OW32927   7.973   4.522   4.027 -0.1830 -0.4691 -0.0679
 9810SOL    HW132928   8.040   4.585   4.053 -0.4692 -0.2690  0.1899
 9810SOL    HW232929   7.965   4.534   3.932 -1.2664  0.9244  0.1593
 9811SOL     OW32930   1.311   9.498   0.738 -0.1722  0.6540 -0.1631
 9811SOL    HW132931   1.282   9.418   0.694  0.8840  0.4253 -0.4579
 9811SOL    HW232932   1.393   9.521   0.694 -0.4449  1.8841 -0.0661
 9812SOL     OW32933   9.416   7.539   8.849 -0.3451  0.3108 -0.1918
 9812SOL    HW132934   9.381   7.547   8.761 -1.7090  1.0926  0.3971
 9812SOL    HW232935   9.372   7.462   8.886 -0.3030  0.3963  0.0379
 9813SOL     OW32936   6.042   7.869  10.986 -0.0928 -0.9080 -0.0306
 9813SOL    HW132937   5.973   7.835  11.042 -1.2765  0.4353 -0.6107
 9813SOL    HW232938   6.044   7.963  11.003  1.1415 -0.8150 -0.5294
 9814SOL     OW32939   4.484   8.671   8.314 -0.1113 -0.2135  0.0201
 9814SOL    HW132940   4.490   8.746   8.255 -0.0503 -0.9578 -0.9359
 9814SOL    HW232941   4.574   8.645   8.330 -0.1492 -1.2146 -1.1626
 9815SOL     OW32942   7.333   7.662   4.934  0.1407  0.3461  0.0769
 9815SOL    HW132943   7.421   7.686   4.906  0.3176  0.1322  0.4469
 9815SOL    HW232944   7.275   7.704   4.871  0.4574  1.4931  0.5290
 9816SOL     OW32945   7.008   4.946   7.102  0.4672 -0.4980 -0.1185
 9816SOL    HW132946   7.070   4.874   7.093  0.7014 -0.7023  2.4206
 9816SOL    HW232947   6.972   4.957   7.014  2.2369 -2.0366 -1.1190
 9817SOL     OW32948   3.946   6.540   1.225  0.5966 -0.3252  0.7350
 9817SOL    HW132949   4.014   6.549   1.158  0.1406  0.0663  0.3138
 9817SOL    HW232950   3.989   6.495   1.297  1.6983  1.0881  1.0218
 9818SOL     OW32951   9.961   0.848  10.587 -0.5175 -0.2409  0.1881
 9818SOL    HW132952   9.910   0.904  10.528 -0.9575 -1.4393 -0.6191
 9818SOL    HW232953  10.010   0.909  10.642 -0.8287  0.9300 -0.7810
 9819SOL     OW32954   9.721   0.201  10.146 -0.1375 -0.5126  0.4057
 9819SOL    HW132955   9.771   0.182  10.226 -0.4305  0.5650  0.8636
 9819SOL    HW232956   9.787   0.222  10.081  0.0648 -0.3259  0.6677
 9820SOL     OW32957   0.584   1.565   9.084 -0.1818 -0.0801 -0.0931
 9820SOL    HW132958   0.573   1.565   9.179  1.3687  0.4042  0.1164
 9820SOL    HW232959   0.602   1.656   9.062  3.2593 -0.6993 -0.2977
 9821SOL     OW32960   1.457   9.700   1.776  0.3036 -0.2813  0.0536
 9821SOL    HW132961   1.483   9.609   1.758  1.4259 -0.2808  1.4976
 9821SOL    HW232962   1.495   9.719   1.862  0.3564  1.6705 -0.3666
 9822SOL     OW32963   1.425   4.299  10.174  0.2886 -0.9580 -0.3751
 9822SOL    HW132964   1.339   4.316  10.136  0.4427  1.2997  0.1551
 9822SOL    HW232965   1.485   4.356  10.125  1.1501 -1.0119  0.5836
 9823SOL     OW32966   5.432   9.634   9.736 -0.3758 -0.4185  0.2963
 9823SOL    HW132967   5.458   9.598   9.821  0.4544 -1.2666 -0.2985
 9823SOL    HW232968   5.513   9.636   9.685 -1.3427 -3.0069 -1.5758
 9824SOL     OW32969   5.723  10.507   1.892  0.0943 -0.1257 -0.1931
 9824SOL    HW132970   5.722  10.414   1.916  1.1766  0.8553  4.7216
 9824SOL    HW232971   5.811  10.521   1.857 -0.0619 -0.9139 -0.9276
 9825SOL     OW32972   7.197   3.700   7.749 -0.1969 -0.0442 -0.1614
 9825SOL    HW132973   7.183   3.777   7.803  0.2826 -0.3057  0.3424
 9825SOL    HW232974   7.120   3.645   7.764  0.5913 -0.7811  1.4135
 9826SOL     OW32975   2.065   1.510   9.659 -0.1675  0.4075 -0.0213
 9826SOL    HW132976   1.988   1.459   9.634  0.1257  0.7135 -1.6626
 9826SOL    HW232977   2.047   1.599   9.628  0.3009  0.7845  0.7488
 9827SOL     OW32978   1.943   9.132   6.695  0.6423  0.4800 -0.2467
 9827SOL    HW132979   1.994   9.056   6.724  0.8934  0.5526 -0.4925
 9827SOL    HW232980   1.903   9.105   6.613  1.6639  0.9926 -0.9425
 9828SOL     OW32981  10.597   0.631   3.627 -0.5152 -0.7000 -1.0229
 9828SOL    HW132982  10.526   0.612   3.567 -0.5383 -1.0058 -0.8985
 9828SOL    HW232983  10.559   0.693   3.690 -0.7482 -1.0627 -0.8033
 9829SOL     OW32984   9.698   7.323   5.028  0.1648  0.3419  0.3524
 9829SOL    HW132985   9.744   7.392   4.981  2.4070 -0.6701  0.9393
 9829SOL    HW232986   9.634   7.289   4.965  0.9002  1.1251 -0.8473
 9830SOL     OW32987   9.658   1.120   1.944 -0.1154  0.0830  0.3941
 9830SOL    HW132988   9.668   1.071   2.026 -0.3381  1.4145  1.2405
 9830SOL    HW232989   9.567   1.104   1.918  0.2917 -1.3155 -0.2637
 9831SOL     OW32990   4.272   1.654   3.743 -0.0309  0.2218  0.9158
 9831SOL    HW132991   4.210   1.724   3.724 -1.2256 -1.3480 -1.5238
 9831SOL    HW232992   4.221   1.591   3.795  0.0061 -0.2732  0.3684
 9832SOL     OW32993   3.844   7.419   2.252  0.2297 -0.1805 -0.3626
 9832SOL    HW132994   3.922   7.395   2.301 -0.7820 -0.1623  1.3058
 9832SOL    HW232995   3.775   7.362   2.286 -1.2208  2.0109  0.5484
 9833SOL     OW32996  10.328   1.456   7.834  0.0474  0.1437 -0.0363
 9833SOL    HW132997  10.292   1.543   7.854  0.6034  0.6700 -1.2507
 9833SOL    HW232998  10.423   1.469   7.833  0.0932 -0.0468 -2.0223
 9834SOL     OW32999   9.388   1.805   5.549  0.0449  1.1583  0.3580
 9834SOL    HW133000   9.470   1.805   5.498 -0.2265  1.1547 -0.0836
 9834SOL    HW233001   9.408   1.752   5.626 -0.0818 -0.4173 -0.6523
 9835SOL     OW33002   4.829   3.963   1.465  0.1954  0.2484  0.4358
 9835SOL    HW133003   4.761   3.904   1.432  1.2727 -1.4019  1.0222
 9835SOL    HW233004   4.816   4.044   1.416 -0.4101 -0.9654 -1.5135
 9836SOL     OW33005   3.923  10.494  10.614 -0.1894 -0.4308 -0.0005
 9836SOL    HW133006   3.974  10.447  10.679 -0.7695  1.0689  1.6235
 9836SOL    HW233007   3.832  10.483  10.643 -0.3552  1.4592  0.3502
 9837SOL     OW33008   0.980   8.289   6.244  0.2776 -0.2888 -0.1907
 9837SOL    HW133009   0.918   8.362   6.235  0.0653 -0.4300  0.1284
 9837SOL    HW233010   1.041   8.317   6.312  0.8155  0.0219 -0.7830
 9838SOL     OW33011   5.405   7.463   4.685 -0.0212 -0.1283 -0.2126
 9838SOL    HW133012   5.479   7.448   4.744 -0.9027  1.8384  1.5515
 9838SOL    HW233013   5.415   7.398   4.616  2.6145 -0.7568  0.6493
 9839SOL     OW33014   7.697   9.196   7.177  0.6120  0.1286 -0.0153
 9839SOL    HW133015   7.634   9.151   7.233  0.7179  0.7457  0.6105
 9839SOL    HW233016   7.756   9.127   7.147 -0.3050 -0.4453 -0.5516
 9840SOL     OW33017   4.068   8.831   1.133 -0.1172 -0.3375 -0.7051
 9840SOL    HW133018   4.039   8.867   1.049 -0.2109  1.1164 -0.0730
 9840SOL    HW233019   4.083   8.738   1.115  2.6671  0.4228 -3.0814
 9841SOL     OW33020   0.672  10.437   7.578 -0.0702  0.5462 -0.1196
 9841SOL    HW133021   0.683  10.439   7.673 -0.8347 -0.1435 -0.0088
 9841SOL    HW233022   0.758  10.414   7.545  0.7905  2.9263  0.2609
 9842SOL     OW33023   0.543   3.539   9.037 -0.4522 -0.1993  0.1641
 9842SOL    HW133024   0.635   3.554   9.059 -0.4824 -0.0297  0.1756
 9842SOL    HW233025   0.507   3.626   9.025 -0.4303 -0.2847 -0.5729
 9843SOL     OW33026   2.937   7.035   3.279  0.3301  0.1723 -0.4437
 9843SOL    HW133027   2.884   6.963   3.314  0.6408 -0.5456 -1.3918
 9843SOL    HW233028   2.918   7.034   3.185  1.7371  0.1327 -0.7474
 9844SOL     OW33029   9.447   6.769   7.460 -0.4729  0.3502 -0.2007
 9844SOL    HW133030   9.415   6.779   7.550  0.5435  0.6777  0.1286
 9844SOL    HW233031   9.369   6.785   7.406 -1.5196 -1.5301  0.6333
 9845SOL     OW33032   8.761   7.182   0.419 -0.2595  0.4423  0.0061
 9845SOL    HW133033   8.836   7.124   0.433  0.4705  1.5840  1.0458
 9845SOL    HW233034   8.689   7.141   0.467  0.9588  1.7493  3.2614
 9846SOL     OW33035   1.249   9.909   0.789  0.1009 -0.2938 -0.0797
 9846SOL    HW133036   1.230   9.892   0.881  0.7718  0.3870  0.1977
 9846SOL    HW233037   1.221   9.830   0.743 -1.2777 -0.2045  0.5641
 9847SOL     OW33038   1.118   6.359   3.174 -0.1723 -0.0220 -0.1101
 9847SOL    HW133039   1.098   6.269   3.202  0.2222 -0.7453 -1.9552
 9847SOL    HW233040   1.161   6.347   3.089  0.2514  1.9125 -0.1908
 9848SOL     OW33041   1.913   0.582   0.876  0.0127  0.3219  0.1960
 9848SOL    HW133042   1.969   0.653   0.844  1.1617  0.2565  1.9330
 9848SOL    HW233043   1.905   0.598   0.970  0.0343 -1.6682  0.5758
 9849SOL     OW33044   9.581   0.588   1.979 -0.7856 -0.1420  0.5265
 9849SOL    HW133045   9.505   0.565   1.926 -2.0289  1.5694  1.4735
 9849SOL    HW233046   9.639   0.634   1.919 -0.1044 -2.0745 -0.3827
 9850SOL     OW33047   6.879   7.246   5.324 -0.9208  0.1831 -0.0823
 9850SOL    HW133048   6.881   7.335   5.289  1.0439  0.3990  0.4973
 9850SOL    HW233049   6.843   7.193   5.252  0.9986  0.9502 -1.6951
 9851SOL     OW33050   0.148   0.589   0.194 -0.4270  0.5709  0.3552
 9851SOL    HW133051   0.099   0.663   0.157 -1.7416  0.3752  1.6213
 9851SOL    HW233052   0.204   0.629   0.261 -0.9573  0.4605  0.8696
 9852SOL     OW33053   0.787   8.508   6.244  0.1226 -0.5323  0.3382
 9852SOL    HW133054   0.749   8.521   6.157 -1.7701 -0.8038  1.0711
 9852SOL    HW233055   0.731   8.558   6.302  2.5392  1.3139  1.2382
 9853SOL     OW33056   0.283   2.916   6.511  0.1699 -0.7293 -0.4166
 9853SOL    HW133057   0.203   2.876   6.546  0.8775 -0.8772  1.1018
 9853SOL    HW233058   0.332   2.942   6.588  0.3192  1.9763 -1.3091
 9854SOL     OW33059   1.590   6.175   8.923  0.3689  0.0911 -0.1178
 9854SOL    HW133060   1.500   6.208   8.927  0.3646  0.2664 -1.3824
 9854SOL    HW233061   1.626   6.194   9.010 -1.1696 -1.0431  0.8379
 9855SOL     OW33062   4.122   1.912   1.108 -0.3819 -0.0792  0.2622
 9855SOL    HW133063   4.143   1.942   1.196 -0.5591 -1.4982  0.8175
 9855SOL    HW233064   4.197   1.938   1.055  0.3779 -0.4535  1.1337
 9856SOL     OW33065   6.205   4.730   6.336  0.6958 -0.3243 -0.1393
 9856SOL    HW133066   6.241   4.796   6.278 -0.5390  1.1842  0.7314
 9856SOL    HW233067   6.165   4.665   6.278  0.7266  0.4097 -0.9938
 9857SOL     OW33068   9.650   7.400   9.109  0.0818  0.0882 -0.1059
 9857SOL    HW133069   9.556   7.387   9.123  0.2916 -1.1725  0.2262
 9857SOL    HW233070   9.689   7.394   9.196  0.4332  1.0578 -0.1831
 9858SOL     OW33071   6.190   4.625   3.316 -0.9158  0.8115 -0.2027
 9858SOL    HW133072   6.214   4.672   3.395 -1.3481 -0.1569  0.5189
 9858SOL    HW233073   6.244   4.666   3.247  0.3791  0.8499  0.7882
 9859SOL     OW33074   3.971   4.871   7.824 -0.2640  0.0116  0.1739
 9859SOL    HW133075   3.888   4.823   7.830 -0.1335 -0.3012 -0.5195
 9859SOL    HW233076   4.021   4.825   7.757  0.0015  0.9095 -0.2540
 9860SOL     OW33077   8.065   1.536   9.067  0.2300 -0.3979  0.1142
 9860SOL    HW133078   8.042   1.521   9.159 -1.2909  0.3733 -0.1030
 9860SOL    HW233079   8.055   1.631   9.055 -2.0707 -0.7519 -1.4139
 9861SOL     OW33080  10.279   8.938   1.572  0.5766 -0.0940 -0.4549
 9861SOL    HW133081  10.303   9.002   1.639 -0.7735  0.2320 -0.2680
 9861SOL    HW233082  10.189   8.960   1.548 -0.2294 -2.3835  0.1863
 9862SOL     OW33083   8.897   7.047   6.757  0.4112 -0.6480  0.2333
 9862SOL    HW133084   8.826   7.102   6.791  0.2268 -0.8805  0.2203
 9862SOL    HW233085   8.977   7.091   6.787  0.2522 -1.3777  1.8717
 9863SOL     OW33086   4.803   6.843   7.457  0.3207  0.2058  0.1104
 9863SOL    HW133087   4.727   6.797   7.492 -0.7357  1.0852 -0.9162
 9863SOL    HW233088   4.769   6.929   7.430  1.7048  0.6706 -0.2494
 9864SOL     OW33089   9.403   7.174   6.400  0.2591  0.1200 -0.0279
 9864SOL    HW133090   9.471   7.238   6.378  0.0570  0.9864  1.6674
 9864SOL    HW233091   9.355   7.214   6.473  0.8418 -2.4098  1.9059
 9865SOL     OW33092   2.991   2.880   3.016 -0.4454 -0.1452  0.2743
 9865SOL    HW133093   3.035   2.940   3.076 -1.3126  2.1090 -1.1882
 9865SOL    HW233094   2.902   2.873   3.050 -0.7825  0.6948 -0.3946
 9866SOL     OW33095  10.101   0.780   3.306 -0.3283 -0.4053 -1.0431
 9866SOL    HW133096  10.056   0.729   3.373  1.1281 -1.8159 -1.0773
 9866SOL    HW233097  10.047   0.858   3.295 -1.0598 -0.5321  1.1467
 9867SOL     OW33098   9.018   1.134   0.803  0.1013 -0.8241 -0.6305
 9867SOL    HW133099   8.977   1.055   0.838 -1.5818  0.1794 -0.2724
 9867SOL    HW233100   8.950   1.176   0.751  0.2286  1.4784  0.9105
 9868SOL     OW33101   2.905   4.386   2.909 -0.0047  0.2351 -0.4305
 9868SOL    HW133102   2.862   4.302   2.889  1.2766 -1.0299  1.6836
 9868SOL    HW233103   2.875   4.446   2.841 -1.8963 -1.6365 -1.3434
 9869SOL     OW33104  10.257   7.767   9.169 -0.1004 -0.4453 -0.3049
 9869SOL    HW133105  10.204   7.823   9.113  0.8770 -0.6606 -1.4815
 9869SOL    HW233106  10.281   7.822   9.243 -0.3974  0.2308 -0.7035
 9870SOL     OW33107   7.599   2.250   8.444  0.1933  0.2075 -0.1758
 9870SOL    HW133108   7.531   2.183   8.449 -0.3680  0.8764  2.2759
 9870SOL    HW233109   7.577   2.312   8.514  2.8096  0.9375  0.0845
 9871SOL     OW33110   0.062   1.480   3.248  0.4981 -0.0161 -0.5215
 9871SOL    HW133111   0.152   1.487   3.279  0.6887  2.2821 -1.3983
 9871SOL    HW233112   0.056   1.545   3.178 -1.9225  0.0600 -0.3127
 9872SOL     OW33113   7.399   9.576   6.482 -0.2150 -0.5511 -0.0321
 9872SOL    HW133114   7.319   9.545   6.523 -0.4460  0.2636  0.1648
 9872SOL    HW233115   7.470   9.533   6.529 -0.3930  1.5784  2.3693
 9873SOL     OW33116   3.557   8.843   1.835  0.6489 -0.0479  0.1242
 9873SOL    HW133117   3.473   8.847   1.790  0.9998  0.0358 -0.5299
 9873SOL    HW233118   3.623   8.855   1.766  1.1683  1.2976  0.8044
 9874SOL     OW33119   8.201   6.100   4.326 -0.5148 -0.2566  0.5654
 9874SOL    HW133120   8.235   6.162   4.262 -0.1531 -0.9001  0.1294
 9874SOL    HW233121   8.108   6.094   4.307 -0.1955 -1.4576 -0.7987
 9875SOL     OW33122   9.261   1.922   2.576  0.0892 -0.3940 -0.1520
 9875SOL    HW133123   9.248   1.840   2.529  0.4334 -0.0604 -0.8472
 9875SOL    HW233124   9.293   1.896   2.662 -0.8951 -1.0319  0.0428
 9876SOL     OW33125   2.970   4.509   0.617 -0.0993 -0.7940 -0.2062
 9876SOL    HW133126   2.914   4.544   0.686 -2.3223 -0.4664 -2.0323
 9876SOL    HW233127   3.058   4.539   0.639 -1.0379  1.0083  1.3709
 9877SOL     OW33128   5.658   8.861   9.778 -0.7135 -0.2689 -0.0469
 9877SOL    HW133129   5.707   8.890   9.855 -0.2864  0.9453 -0.7457
 9877SOL    HW233130   5.601   8.792   9.810  0.1027 -0.4041  1.1745
 9878SOL     OW33131   7.555  10.304   3.867  0.3224 -0.1674 -0.1854
 9878SOL    HW133132   7.618  10.258   3.922  0.7990 -1.1846 -1.5268
 9878SOL    HW233133   7.607  10.343   3.797 -0.3006  0.8342 -0.1137
 9879SOL     OW33134   6.593   3.938   3.710  0.1169 -0.0024  0.0576
 9879SOL    HW133135   6.603   3.851   3.748 -0.0032 -0.4112 -0.8190
 9879SOL    HW233136   6.500   3.945   3.690  0.1080  0.3666  0.2276
 9880SOL     OW33137   6.752   2.223   7.726 -0.2392 -0.5323 -0.4807
 9880SOL    HW133138   6.806   2.295   7.760  0.0370 -0.9478 -0.0276
 9880SOL    HW233139   6.754   2.157   7.795 -2.2767 -0.0967  0.0689
 9881SOL     OW33140   4.702   7.533   5.104 -0.0717  0.6680 -0.3438
 9881SOL    HW133141   4.697   7.536   5.008  0.6870  0.8031 -0.3856
 9881SOL    HW233142   4.653   7.610   5.133  1.0694  1.5651 -0.6967
 9882SOL     OW33143   3.316   9.349   2.131  0.2014 -0.2386  0.1235
 9882SOL    HW133144   3.287   9.257   2.129  0.3606 -0.2817 -0.3403
 9882SOL    HW233145   3.369   9.355   2.210 -1.1933 -0.1166  1.0895
 9883SOL     OW33146   3.293   1.043   8.226  0.3985  0.2005  0.4617
 9883SOL    HW133147   3.244   1.062   8.306 -1.1426  0.3100 -0.4665
 9883SOL    HW233148   3.245   0.970   8.186 -0.3268  1.7072 -1.5576
 9884SOL     OW33149   8.890   7.446   8.447  0.3342 -0.0532  0.0886
 9884SOL    HW133150   8.905   7.429   8.354 -0.2486  1.6741 -0.3490
 9884SOL    HW233151   8.824   7.382   8.473  1.3974 -1.3797 -0.3390
 9885SOL     OW33152   9.488   4.118   5.557 -0.4274 -0.0340 -0.6639
 9885SOL    HW133153   9.520   4.028   5.554 -2.2723 -0.7122 -1.1879
 9885SOL    HW233154   9.545   4.162   5.620  1.7969 -1.0273 -1.8620
 9886SOL     OW33155   6.863   3.459   3.030 -0.5356 -0.1677 -0.1735
 9886SOL    HW133156   6.838   3.550   3.045 -0.4922 -0.0936 -0.5318
 9886SOL    HW233157   6.783   3.418   2.997  0.1994  0.4765 -2.9976
 9887SOL     OW33158   2.203   2.820   7.806 -0.1836 -0.0540  0.3823
 9887SOL    HW133159   2.262   2.863   7.743  0.5745 -1.3197  0.1926
 9887SOL    HW233160   2.115   2.847   7.778  0.2626  1.5140  0.4007
 9888SOL     OW33161   7.237   7.960   1.590  0.2062 -0.6583  0.1732
 9888SOL    HW133162   7.320   7.933   1.552  0.7910 -0.4447  1.2647
 9888SOL    HW233163   7.216   8.042   1.545  1.3330  0.0588  0.9216
 9889SOL     OW33164   7.349   4.258   2.336 -0.5577  0.4905 -0.5792
 9889SOL    HW133165   7.429   4.275   2.384 -1.0626 -1.0539  0.9119
 9889SOL    HW233166   7.372   4.188   2.274 -0.3195  1.3353 -1.4691
 9890SOL     OW33167   0.952   5.268   6.103 -0.0193  0.0105  0.1952
 9890SOL    HW133168   0.923   5.326   6.032 -0.6961  1.5535  1.6478
 9890SOL    HW233169   1.047   5.280   6.107 -0.2444  2.0176  1.1940
 9891SOL     OW33170   9.532   8.279   8.095 -0.4159 -0.5499  1.0966
 9891SOL    HW133171   9.490   8.362   8.118 -0.8927 -0.5416  0.2142
 9891SOL    HW233172   9.571   8.294   8.009 -0.9334 -1.3834  0.7038
 9892SOL     OW33173   0.762   1.894   7.344  0.0996 -0.1588 -0.3825
 9892SOL    HW133174   0.846   1.896   7.299 -0.3788 -0.0850 -1.2913
 9892SOL    HW233175   0.698   1.918   7.277 -0.5412  0.8750  0.5558
 9893SOL     OW33176   9.241   5.527   4.801  0.2151 -0.9456 -0.4422
 9893SOL    HW133177   9.208   5.607   4.841 -1.4715 -2.0077  0.4074
 9893SOL    HW233178   9.269   5.553   4.714 -0.0874  0.6047 -0.0995
 9894SOL     OW33179  10.385   2.582   7.594  0.4991  0.7206 -0.1272
 9894SOL    HW133180  10.352   2.582   7.684  0.1193 -2.8337 -0.0966
 9894SOL    HW233181  10.311   2.550   7.542  1.0428  1.7142 -1.5841
 9895SOL     OW33182   1.621   5.007   5.472 -0.6076  0.3567  0.5506
 9895SOL    HW133183   1.700   5.054   5.498 -0.1116 -1.3266  2.2602
 9895SOL    HW233184   1.650   4.951   5.400 -0.8016  1.3454 -0.3238
 9896SOL     OW33185   4.957   4.317   9.823 -1.0468 -0.3587 -0.1854
 9896SOL    HW133186   4.987   4.254   9.889 -0.0268  0.8573  0.5568
 9896SOL    HW233187   4.861   4.315   9.831 -0.9625  1.0158  2.6686
 9897SOL     OW33188   0.098   4.575   6.831 -0.3831 -0.1209 -0.4703
 9897SOL    HW133189   0.101   4.668   6.811 -1.7038  0.3371  1.2660
 9897SOL    HW233190   0.005   4.554   6.839 -0.0598 -1.0780  1.2915
 9898SOL     OW33191   7.613   3.662   1.047  0.1386 -0.6372 -0.6237
 9898SOL    HW133192   7.546   3.660   1.116  0.4416 -1.9301 -0.3329
 9898SOL    HW233193   7.586   3.594   0.986 -0.3220  0.7457 -2.0105
 9899SOL     OW33194   2.805   9.881   4.099  0.1651  0.6509 -0.2240
 9899SOL    HW133195   2.759   9.834   4.168 -0.9336  1.2080 -0.5458
 9899SOL    HW233196   2.791   9.829   4.020  0.7364  0.4315 -0.1842
 9900SOL     OW33197   9.429   7.680   0.430 -0.3340  0.1563 -0.1302
 9900SOL    HW133198   9.472   7.749   0.481  1.0633  1.4498 -2.8377
 9900SOL    HW233199   9.483   7.602   0.445 -1.9580 -0.5114  2.9985
 9901SOL     OW33200   5.119   9.111   6.528  0.9969 -0.1147  0.3383
 9901SOL    HW133201   5.159   9.156   6.454 -2.2055  0.8765 -0.9303
 9901SOL    HW233202   5.170   9.140   6.604  0.7623  3.5747 -0.7647
 9902SOL     OW33203   9.633   7.086   4.533 -0.3646  0.3122  0.2395
 9902SOL    HW133204   9.561   7.149   4.525  1.0286  1.9859  0.4261
 9902SOL    HW233205   9.591   7.000   4.522 -2.1655  1.3004 -1.0852
 9903SOL     OW33206   1.743   5.335   8.681  0.1415  0.4341 -0.6957
 9903SOL    HW133207   1.759   5.426   8.704  0.1142  0.6281 -1.4263
 9903SOL    HW233208   1.648   5.326   8.683 -0.0940  1.3075 -3.7996
 9904SOL     OW33209   8.653   4.643   2.025  0.3385  0.1351 -0.0405
 9904SOL    HW133210   8.704   4.679   1.952  2.7243 -0.8010  1.0635
 9904SOL    HW233211   8.652   4.712   2.091  0.9210 -0.1266  0.2533
 9905SOL     OW33212  10.452  10.247   4.500  0.0179  0.5123  0.5003
 9905SOL    HW133213  10.451  10.221   4.408  0.4829  1.0672  0.3318
 9905SOL    HW233214  10.441  10.165   4.548  0.5900  0.1058 -0.0389
 9906SOL     OW33215   8.833   1.184   4.619 -0.1988 -0.3102 -0.1015
 9906SOL    HW133216   8.803   1.256   4.562  1.8884 -0.2854 -1.2569
 9906SOL    HW233217   8.833   1.107   4.562  0.0780 -0.6872  0.4039
 9907SOL     OW33218  10.417   5.356   0.720  0.6290  0.4469 -0.1345
 9907SOL    HW133219  10.344   5.335   0.779 -0.2132  2.7122 -0.2800
 9907SOL    HW233220  10.471   5.277   0.721 -1.1245 -0.8319  1.0078
 9908SOL     OW33221   3.068   8.339   6.303  0.0945 -0.3194 -0.2320
 9908SOL    HW133222   3.122   8.402   6.351  1.0524 -0.6750 -0.8205
 9908SOL    HW233223   3.035   8.280   6.371  0.4275 -0.0834  0.1407
 9909SOL     OW33224   3.536   8.128   4.445 -0.8062 -0.3483  0.8414
 9909SOL    HW133225   3.603   8.076   4.490  0.1946  0.0261 -0.1813
 9909SOL    HW233226   3.554   8.218   4.470  0.8004  0.0667 -1.4962
 9910SOL     OW33227  10.484   5.374   4.856 -0.4262  0.2700  0.1912
 9910SOL    HW133228  10.558   5.316   4.836 -1.4020 -1.0194  0.1212
 9910SOL    HW233229  10.474   5.368   4.952 -0.0768  0.8989  0.2658
 9911SOL     OW33230  10.668   1.002  10.316  0.3139 -0.0445  0.1371
 9911SOL    HW133231  10.729   1.075  10.317  0.0272  0.1936  0.6000
 9911SOL    HW233232  10.603   1.024  10.382 -0.3736 -0.2160 -0.4782
 9912SOL     OW33233   3.099   3.550   0.934  0.0214  0.5105 -0.0524
 9912SOL    HW133234   3.062   3.527   1.020 -0.7364 -0.5382 -0.6282
 9912SOL    HW233235   3.023   3.550   0.876  0.2996  2.6370 -0.4787
 9913SOL     OW33236   2.834   3.345   8.813  0.1130  0.5354  0.6960
 9913SOL    HW133237   2.833   3.430   8.858 -0.0032  0.5584  0.6531
 9913SOL    HW233238   2.855   3.367   8.722  1.1581  0.4063  0.8962
 9914SOL     OW33239   3.065   9.343   2.127  0.3106  0.6252  0.3068
 9914SOL    HW133240   3.079   9.275   2.193  0.5969 -0.1073 -0.4921
 9914SOL    HW233241   3.149   9.350   2.082  0.9386  2.9551  1.6734
 9915SOL     OW33242   7.640  10.209   8.782 -0.0546 -0.0773 -0.2438
 9915SOL    HW133243   7.661  10.120   8.811 -0.7250 -0.6995 -1.5933
 9915SOL    HW233244   7.712  10.263   8.814  0.0896 -1.0088  1.0553
 9916SOL     OW33245   0.161   4.851   6.795 -0.0545 -0.1557  0.4645
 9916SOL    HW133246   0.160   4.940   6.758 -0.0937 -1.3923 -2.8416
 9916SOL    HW233247   0.090   4.852   6.859 -0.4050  2.0646  0.1506
 9917SOL     OW33248   4.813   2.172   8.474  0.3654  0.1895  0.2500
 9917SOL    HW133249   4.798   2.200   8.564  0.1418 -0.5046  0.4333
 9917SOL    HW233250   4.908   2.164   8.467  0.2976 -2.2288  1.2151
 9918SOL     OW33251   4.984   4.168   6.490  0.7320  0.0545  0.6005
 9918SOL    HW133252   5.026   4.103   6.433  0.6843  0.7090 -0.1927
 9918SOL    HW233253   5.056   4.224   6.520  0.8381 -0.5953  1.6295
 9919SOL     OW33254   0.198   0.030  10.871  0.0807  0.4179  0.6887
 9919SOL    HW133255   0.103   0.027  10.868  0.1100 -0.5036 -0.1676
 9919SOL    HW233256   0.225  -0.052  10.829  1.2517  1.0344  0.2005
 9920SOL     OW33257   8.535   7.076   1.967  0.1548  0.0182  0.1383
 9920SOL    HW133258   8.464   7.031   1.922  0.6574 -0.2291 -0.4279
 9920SOL    HW233259   8.601   7.008   1.980  1.4674  0.8146 -1.8602
 9921SOL     OW33260   1.757   5.714   9.134 -0.0839  0.1356 -0.2746
 9921SOL    HW133261   1.744   5.675   9.048 -0.9098  0.6887 -0.4082
 9921SOL    HW233262   1.735   5.807   9.123 -2.7848 -0.2227  1.0784
 9922SOL     OW33263   3.635   8.336   8.845  0.0338 -0.5550 -0.0321
 9922SOL    HW133264   3.558   8.321   8.790 -0.5084 -1.5352  0.9544
 9922SOL    HW233265   3.707   8.348   8.782 -0.6948 -0.8438 -0.9510
 9923SOL     OW33266   7.807   6.148   2.173 -0.4783  0.1367 -0.3851
 9923SOL    HW133267   7.851   6.212   2.229 -0.9317 -0.7057  0.9766
 9923SOL    HW233268   7.869   6.076   2.164 -1.0425 -0.4763  0.4623
 9924SOL     OW33269   3.123   7.311   2.779  0.7168  0.1563  0.2202
 9924SOL    HW133270   3.056   7.368   2.742  0.7419 -1.5460 -2.8034
 9924SOL    HW233271   3.082   7.224   2.778  1.0466 -0.2029  3.6826
 9925SOL     OW33272   6.623   1.436   6.684 -0.6432  0.5775  0.1532
 9925SOL    HW133273   6.694   1.418   6.623  0.7916  3.8523  0.6434
 9925SOL    HW233274   6.645   1.387   6.763 -0.8272 -1.1527 -0.8244
 9926SOL     OW33275   1.811   2.160  10.442 -0.0395 -0.0734  0.6395
 9926SOL    HW133276   1.787   2.252  10.450 -1.9117 -0.3080 -1.3813
 9926SOL    HW233277   1.873   2.145  10.514  0.2879  2.7170  1.0494
 9927SOL     OW33278  10.624   1.041   5.465  0.0366 -0.0049  0.2854
 9927SOL    HW133279  10.629   1.125   5.420 -0.8746 -0.9449 -1.6778
 9927SOL    HW233280  10.538   1.041   5.508  0.2680  0.2726  0.7567
 9928SOL     OW33281   6.980   3.805   4.501  0.2245  0.2823 -0.0554
 9928SOL    HW133282   7.035   3.770   4.572  0.3258  1.7894  0.6399
 9928SOL    HW233283   6.986   3.738   4.432  2.3812  0.0585  0.2587
 9929SOL     OW33284  10.675   3.826   8.150 -0.2541 -0.7461 -0.3015
 9929SOL    HW133285  10.641   3.915   8.156  2.0933  0.1625  0.8687
 9929SOL    HW233286  10.603   3.771   8.180 -1.3552  0.8527  0.1483
 9930SOL     OW33287   7.373   1.069   8.847 -0.0811 -0.3291  0.4524
 9930SOL    HW133288   7.452   1.054   8.795  0.3183  0.2612  0.8664
 9930SOL    HW233289   7.406   1.086   8.936 -0.3857  3.1326  0.0588
 9931SOL     OW33290  10.020   9.519   0.818  0.5184  0.6581 -0.3663
 9931SOL    HW133291   9.984   9.582   0.756  1.5207  0.7763 -0.8418
 9931SOL    HW233292  10.102   9.490   0.778  0.1480 -0.8495 -0.0992
 9932SOL     OW33293   5.070   4.300   0.954  0.3076 -0.3240 -0.2460
 9932SOL    HW133294   5.088   4.206   0.955  1.7161 -0.0809 -1.2921
 9932SOL    HW233295   5.055   4.321   0.862  2.2613  0.8535 -0.3546
 9933SOL     OW33296   1.390   3.281   3.263  0.3837  0.4933 -0.0356
 9933SOL    HW133297   1.410   3.222   3.191 -0.9050 -1.2600  0.9572
 9933SOL    HW233298   1.316   3.334   3.232 -1.0917 -1.2188  0.4274
 9934SOL     OW33299   2.093   0.055   6.079 -0.9426 -0.3426  0.0789
 9934SOL    HW133300   2.166   0.083   6.024 -0.9751  0.8043  0.5826
 9934SOL    HW233301   2.021   0.112   6.052 -0.5265  1.4125  2.3998
 9935SOL     OW33302   5.440   7.999   5.372  0.2187  0.8461 -0.3677
 9935SOL    HW133303   5.428   8.087   5.408 -1.3102  0.2076  0.7521
 9935SOL    HW233304   5.362   7.951   5.398  0.4342 -0.5014 -2.0702
 9936SOL     OW33305   9.979   2.550   7.944  0.3041  0.1187 -0.6155
 9936SOL    HW133306   9.971   2.639   7.909  1.1590  0.5542  0.2340
 9936SOL    HW233307   9.971   2.561   8.039  1.1942 -0.6002 -0.4473
 9937SOL     OW33308   2.230   1.250   1.969 -0.1440 -0.4808  0.1343
 9937SOL    HW133309   2.138   1.276   1.971 -0.7283 -2.4674  0.2534
 9937SOL    HW233310   2.241   1.193   2.044  1.5211  0.6644  0.8261
 9938SOL     OW33311   6.419   1.861   3.531 -0.3754  0.1727  0.1504
 9938SOL    HW133312   6.404   1.923   3.460 -0.4245 -0.1639 -0.1387
 9938SOL    HW233313   6.443   1.915   3.606  0.9796  0.4584 -0.4636
 9939SOL     OW33314  10.747   2.472   0.407 -0.2312 -0.0498  0.4975
 9939SOL    HW133315  10.744   2.376   0.415 -0.7063 -0.0909 -0.0690
 9939SOL    HW233316  10.720   2.489   0.316  0.3902  0.5949  0.4275
 9940SOL     OW33317   0.874   9.983   5.823 -0.1340 -0.3460 -0.6562
 9940SOL    HW133318   0.933  10.029   5.884 -0.6198  0.6888 -0.9489
 9940SOL    HW233319   0.891   9.891   5.839 -0.5033 -0.1188  1.3310
 9941SOL     OW33320  10.168   2.548   3.997 -0.8459 -0.4515 -0.2022
 9941SOL    HW133321  10.121   2.614   3.947 -1.5149 -0.2849  0.6169
 9941SOL    HW233322  10.099   2.490   4.031 -0.2010 -2.3154 -1.9149
 9942SOL     OW33323   2.554   3.032  10.326  0.0673 -0.3844  0.0836
 9942SOL    HW133324   2.648   3.036  10.347 -0.2710  2.1194  1.4626
 9942SOL    HW233325   2.514   2.993  10.404 -0.2232  0.3381  0.3014
 9943SOL     OW33326   4.740   3.734   2.441  0.5091  0.6649  0.0283
 9943SOL    HW133327   4.699   3.648   2.448  1.6427  0.0735 -0.3238
 9943SOL    HW233328   4.725   3.761   2.351  0.8290  0.4709 -0.0860
 9944SOL     OW33329   6.420   0.052   3.250 -0.4886 -0.5787  0.0937
 9944SOL    HW133330   6.464  -0.028   3.278 -0.2428 -0.0076  1.4086
 9944SOL    HW233331   6.340   0.022   3.207 -0.4355 -1.5212  0.6357
 9945SOL     OW33332   6.443   5.836   6.293 -0.3790 -0.2070  0.1881
 9945SOL    HW133333   6.456   5.877   6.379 -2.2785  0.9285 -0.0091
 9945SOL    HW233334   6.349   5.842   6.278  0.1088  1.9924 -3.1227
 9946SOL     OW33335   3.437   0.665   4.881 -0.7400  0.2325 -0.3225
 9946SOL    HW133336   3.466   0.703   4.798  0.9767  0.0402  0.1448
 9946SOL    HW233337   3.366   0.722   4.910 -0.2922  1.2519 -1.1504
 9947SOL     OW33338   4.318   6.174   1.698 -0.4306 -0.1810  0.4517
 9947SOL    HW133339   4.350   6.222   1.774 -2.3126  0.2540  1.0327
 9947SOL    HW233340   4.337   6.231   1.624 -3.1955  1.9476  1.1898
 9948SOL     OW33341   1.216   1.132   4.233 -0.0663  0.1865 -0.2095
 9948SOL    HW133342   1.312   1.126   4.230 -0.0791  0.3592 -1.1627
 9948SOL    HW233343   1.185   1.062   4.176 -0.5385 -0.3337  0.6598
 9949SOL     OW33344  10.210   9.514  10.986 -0.3933 -0.0022  0.1325
 9949SOL    HW133345  10.265   9.553  11.055  0.2403 -2.1929  0.9403
 9949SOL    HW233346  10.182   9.589  10.934  1.3891  1.4624  1.1222
 9950SOL     OW33347   1.160   7.462  10.830  0.0230 -0.4401 -0.0535
 9950SOL    HW133348   1.069   7.492  10.822 -0.0493 -0.3824  0.8991
 9950SOL    HW233349   1.189   7.495  10.915  0.6002 -1.3651  0.1227
 9951SOL     OW33350  10.825   5.051   8.091 -0.4163  0.2853  0.4090
 9951SOL    HW133351  10.734   5.044   8.119 -0.2228  0.2516  1.0538
 9951SOL    HW233352  10.828   5.005   8.007 -0.4832 -2.0916  1.6107
 9952SOL     OW33353   9.484   2.292   1.700 -0.3316 -0.3749 -0.5196
 9952SOL    HW133354   9.456   2.373   1.743  0.1325  0.0154 -0.9380
 9952SOL    HW233355   9.573   2.277   1.733 -0.6277 -1.0393  0.0025
 9953SOL     OW33356   4.890   2.381  10.153 -0.2609 -0.5256 -0.2411
 9953SOL    HW133357   4.800   2.358  10.173 -0.2438 -0.5655 -0.2104
 9953SOL    HW233358   4.943   2.315  10.198 -0.2364 -0.8756 -0.7772
 9954SOL     OW33359  10.985   9.958   2.798  0.0342 -0.4243  0.1326
 9954SOL    HW133360  10.974   9.941   2.891 -0.4447 -0.1949  0.1155
 9954SOL    HW233361  11.021  10.046   2.794 -1.5087  0.2266  0.0362
 9955SOL     OW33362   2.559   2.463   0.138 -0.2590 -0.0256 -0.1505
 9955SOL    HW133363   2.583   2.405   0.066 -1.3819  0.1507 -0.6888
 9955SOL    HW233364   2.584   2.550   0.108 -2.5249  0.3213 -1.2211
 9956SOL     OW33365   3.920   0.221   6.368  0.4663  0.1719 -0.4662
 9956SOL    HW133366   3.925   0.277   6.445 -1.1476  0.8813 -0.8519
 9956SOL    HW233367   3.914   0.282   6.294  0.9024 -0.5069 -1.0820
 9957SOL     OW33368   1.600   1.989   4.473  0.4661 -0.5967 -0.0035
 9957SOL    HW133369   1.616   1.898   4.498  0.4524  0.0404  2.7371
 9957SOL    HW233370   1.687   2.030   4.477  0.5476 -0.5696 -1.6991
 9958SOL     OW33371   0.253   2.221   4.800 -0.7164  0.2289 -0.5126
 9958SOL    HW133372   0.312   2.203   4.874  1.2803 -0.2845 -2.1223
 9958SOL    HW233373   0.194   2.146   4.798 -0.6274  0.1194  0.3872
 9959SOL     OW33374   1.237   8.888   3.823  0.1740  0.2412  0.1146
 9959SOL    HW133375   1.233   8.797   3.794 -0.3858  1.0440 -2.6956
 9959SOL    HW233376   1.330   8.910   3.822  0.2043  0.1203 -0.8046
 9960SOL     OW33377   6.090   3.765   0.604 -0.3197  0.2696  0.4495
 9960SOL    HW133378   6.014   3.787   0.551  0.2173  0.2849 -0.3375
 9960SOL    HW233379   6.059   3.769   0.694 -1.2887  0.1114  0.1332
 9961SOL     OW33380   3.256   4.228   4.445  0.2420  0.4001 -0.0659
 9961SOL    HW133381   3.337   4.208   4.492  1.2394 -0.4130 -1.9760
 9961SOL    HW233382   3.260   4.171   4.367 -0.3429  2.9601 -2.1067
 9962SOL     OW33383   9.442   0.472   1.412 -0.3048  0.9674  0.1706
 9962SOL    HW133384   9.508   0.500   1.475  0.0744  2.5136 -0.8772
 9962SOL    HW233385   9.398   0.552   1.385  0.0918  0.4857 -2.1288
 9963SOL     OW33386   1.399   4.320   3.090  0.4000 -0.0291 -0.4924
 9963SOL    HW133387   1.490   4.340   3.066  0.3447  0.4533 -0.3170
 9963SOL    HW233388   1.370   4.398   3.138  0.8384 -1.3433  2.0981
 9964SOL     OW33389  10.044   6.482   0.741 -0.6820  0.3649 -0.2517
 9964SOL    HW133390  10.054   6.520   0.653 -1.9379  1.4489  0.0457
 9964SOL    HW233391   9.996   6.549   0.790 -0.7762 -0.6091  1.0133
 9965SOL     OW33392   3.101   4.894   7.969  0.2044 -0.4257  0.2050
 9965SOL    HW133393   3.161   4.870   8.040  1.1993  0.1443 -0.4057
 9965SOL    HW233394   3.073   4.983   7.990 -0.9273 -0.9120  0.8031
 9966SOL     OW33395   6.155   2.123   0.694  0.4618 -0.1067  0.4103
 9966SOL    HW133396   6.131   2.104   0.785  2.6721 -0.2340  1.0205
 9966SOL    HW233397   6.149   2.038   0.650 -0.6332 -0.0427  0.3952
 9967SOL     OW33398   4.292   8.256   6.392  0.2164  0.5208  0.1152
 9967SOL    HW133399   4.285   8.224   6.302  0.4228  1.0628 -0.0989
 9967SOL    HW233400   4.220   8.318   6.402  0.9308  1.4202 -0.0987
 9968SOL     OW33401   4.555   3.605   7.359 -0.0977  0.7325  0.2189
 9968SOL    HW133402   4.497   3.639   7.427 -0.8374  0.6302 -0.3475
 9968SOL    HW233403   4.513   3.631   7.277 -1.3731 -2.5324 -0.2877
 9969SOL     OW33404   5.824  10.821   7.733  0.0120 -0.2661  0.3087
 9969SOL    HW133405   5.731  10.841   7.724  0.0980 -0.2939 -0.7409
 9969SOL    HW233406   5.825  10.730   7.765 -0.3200 -0.0712  0.8927
 9970SOL     OW33407   6.902   1.027   3.087  0.4100 -0.1242  0.2411
 9970SOL    HW133408   6.943   1.080   3.018  1.1595 -1.6718 -0.5541
 9970SOL    HW233409   6.811   1.017   3.059  0.7740 -0.9700 -0.7064
 9971SOL     OW33410   8.219   7.173   7.680 -0.6951 -0.0939 -0.0976
 9971SOL    HW133411   8.269   7.115   7.622  1.1480  1.3884 -0.0822
 9971SOL    HW233412   8.169   7.228   7.621 -0.1429  0.2618 -0.2459
 9972SOL     OW33413   0.335   7.966   6.435 -0.6705  0.1522  0.0929
 9972SOL    HW133414   0.390   7.996   6.507 -1.9464 -1.4772  1.8470
 9972SOL    HW233415   0.254   8.018   6.443 -1.5550 -1.2821  1.0827
 9973SOL     OW33416   5.891   2.079   9.414  0.1915  0.1507 -0.1551
 9973SOL    HW133417   5.885   2.011   9.481 -1.2229  1.3825  1.0279
 9973SOL    HW233418   5.906   2.160   9.463  1.9581  0.7217 -1.5439
 9974SOL     OW33419   3.195   5.828   7.728  0.2143  0.1880 -0.2698
 9974SOL    HW133420   3.237   5.891   7.786  1.9891  0.3291 -1.6272
 9974SOL    HW233421   3.195   5.746   7.777  0.0476  0.6888  0.5872
 9975SOL     OW33422   5.477   2.431   4.707  0.1947  0.5857  0.0772
 9975SOL    HW133423   5.420   2.459   4.635  0.5751  1.6016  0.1494
 9975SOL    HW233424   5.559   2.405   4.666 -0.0487 -0.1263  0.0373
 9976SOL     OW33425   9.116   3.499   6.220  0.2512 -0.4733 -0.1990
 9976SOL    HW133426   9.095   3.578   6.169 -1.6922  0.2804  1.6198
 9976SOL    HW233427   9.107   3.428   6.157 -0.6131  0.5449 -1.2859
 9977SOL     OW33428   2.260   5.701   9.513  0.3847  0.1446 -0.2648
 9977SOL    HW133429   2.269   5.794   9.494 -2.5082  0.3683 -1.0686
 9977SOL    HW233430   2.224   5.698   9.602 -1.2752 -0.0518 -0.9073
 9978SOL     OW33431   9.772   6.589   0.000 -0.0561 -0.4323  0.1554
 9978SOL    HW133432   9.836   6.587  -0.071 -0.8236 -0.9538 -0.5358
 9978SOL    HW233433   9.710   6.519  -0.021 -0.5826 -0.2621  1.0715
 9979SOL     OW33434   9.886   0.240   2.976  1.0747 -0.1289 -0.4713
 9979SOL    HW133435   9.791   0.239   2.984  1.0136 -1.2411 -1.1302
 9979SOL    HW233436   9.917   0.182   3.046  1.2533 -0.0425 -0.4776
 9980SOL     OW33437   8.473   8.183  10.992 -0.2632 -0.4130  0.3507
 9980SOL    HW133438   8.468   8.093  11.024  1.4467 -0.3146  0.9931
 9980SOL    HW233439   8.516   8.232  11.063  0.5746  0.4908 -0.7344
 9981SOL     OW33440   5.385  10.322   2.426  0.6110 -0.1931  0.1188
 9981SOL    HW133441   5.425  10.242   2.459  0.5804 -0.9193 -1.5441
 9981SOL    HW233442   5.291  10.308   2.439  0.7159  0.6734  2.1637
 9982SOL     OW33443   3.129   5.375   4.580 -0.1840 -0.4443 -0.0206
 9982SOL    HW133444   3.164   5.287   4.592 -0.4144 -0.8360 -1.8949
 9982SOL    HW233445   3.034   5.363   4.582 -0.2951  0.2105  2.3205
 9983SOL     OW33446   5.214   3.360   4.671 -0.0539 -0.3294 -0.3795
 9983SOL    HW133447   5.191   3.361   4.578  0.7961 -1.7284 -0.6279
 9983SOL    HW233448   5.304   3.329   4.673 -0.8400 -2.7207  1.0429
 9984SOL     OW33449   5.094   5.621   6.988  0.1340 -0.2261  0.2605
 9984SOL    HW133450   5.040   5.667   6.922  0.7188 -0.6780 -0.5487
 9984SOL    HW233451   5.075   5.667   7.070 -1.0672 -0.0239 -0.1038
 9985SOL     OW33452  10.563   6.325   1.136 -0.0278  0.4371 -0.7829
 9985SOL    HW133453  10.637   6.317   1.197 -1.4072 -1.2473  0.7696
 9985SOL    HW233454  10.548   6.419   1.130  0.7517  0.6972  0.7505
 9986SOL     OW33455   4.803   9.348   0.866 -0.0032  0.2361 -0.3760
 9986SOL    HW133456   4.860   9.284   0.911 -1.1031 -0.6307 -0.1697
 9986SOL    HW233457   4.728   9.357   0.923 -0.1131  1.3375 -0.6761
 9987SOL     OW33458  10.265   6.953   3.125 -0.4351 -0.6017  0.0578
 9987SOL    HW133459  10.247   6.968   3.032 -2.0458 -0.1875  0.4110
 9987SOL    HW233460  10.357   6.926   3.127 -0.1144  0.2224 -1.5555
 9988SOL     OW33461   6.867   6.409   8.386 -0.6546 -0.2737  0.1815
 9988SOL    HW133462   6.913   6.457   8.318 -2.1327  0.3398 -0.4108
 9988SOL    HW233463   6.937   6.372   8.441  0.5220  1.0217 -0.4030
 9989SOL     OW33464  10.442   6.544   8.727  0.4446 -0.1178  0.5129
 9989SOL    HW133465  10.384   6.613   8.693  0.6203  0.2820  1.0149
 9989SOL    HW233466  10.526   6.588   8.739  0.2219 -0.0773  2.0830
 9990SOL     OW33467  10.442   1.381   2.493  0.0115  0.0052 -0.9078
 9990SOL    HW133468  10.431   1.472   2.520  0.5166  0.3425 -1.7934
 9990SOL    HW233469  10.366   1.335   2.529  0.0617  0.6523  0.0500
 9991SOL     OW33470  10.995   6.932   2.513  0.0137 -0.0375  0.3806
 9991SOL    HW133471  11.087   6.920   2.489  0.0302  2.4874 -1.1711
 9991SOL    HW233472  10.946   6.889   2.443  0.0509  0.8512 -0.2068
 9992SOL     OW33473   6.625   1.678  10.039  0.4753 -0.0119 -0.2546
 9992SOL    HW133474   6.633   1.757  10.093  0.4663 -1.4174  1.9147
 9992SOL    HW233475   6.532   1.671  10.020  0.5835  0.9621 -1.2457
 9993SOL     OW33476   5.234   9.422   9.966 -0.3705  0.2747 -0.1638
 9993SOL    HW133477   5.282   9.361   9.909 -1.5669 -0.7064 -0.1587
 9993SOL    HW233478   5.302   9.463  10.020  0.5969 -0.0885 -1.0666
 9994SOL     OW33479   3.560   0.373   4.074  0.6314  0.1234 -0.2788
 9994SOL    HW133480   3.546   0.280   4.087 -0.7130  0.1818 -1.1190
 9994SOL    HW233481   3.612   0.401   4.150  0.3585 -1.1361  0.3905
 9995SOL     OW33482   6.706   4.237   5.903 -0.6236 -0.1647  0.2700
 9995SOL    HW133483   6.698   4.142   5.898 -0.3936 -0.1471 -0.6316
 9995SOL    HW233484   6.676   4.268   5.817 -1.5988  0.6413  0.8734
 9996SOL     OW33485   1.763   4.716   9.281  0.5311  0.0536 -0.8101
 9996SOL    HW133486   1.743   4.805   9.310 -0.0430 -0.0885 -0.7581
 9996SOL    HW233487   1.856   4.719   9.258  0.3271  0.8678 -1.5707
 9997SOL     OW33488   3.977   1.287   3.717 -0.3661 -0.0114 -0.2237
 9997SOL    HW133489   3.895   1.303   3.671 -1.1317 -0.3649  0.9780
 9997SOL    HW233490   3.964   1.203   3.761  1.1435 -0.7446 -1.0834
 9998SOL     OW33491   5.356   9.286   9.438  0.5108  0.6435 -0.2102
 9998SOL    HW133492   5.381   9.197   9.460  0.5629  1.2392  2.5096
 9998SOL    HW233493   5.262   9.289   9.455  0.1118  0.6609 -2.1572
 9999SOL     OW33494   6.084   0.884   5.635  0.4658  0.4267 -0.0010
 9999SOL    HW133495   6.016   0.817   5.633 -0.4099  1.2685  0.5338
 9999SOL    HW233496   6.054   0.946   5.702  1.3843  1.2101 -0.2964
10000SOL     OW33497  10.705   4.392  10.970  0.2003 -0.0635 -0.3121
10000SOL    HW133498  10.696   4.313  11.023  1.2329 -1.3938 -2.0218
10000SOL    HW233499  10.683   4.464  11.030 -0.0887 -1.5775  1.4816
10001SOL     OW33500  10.690   3.281   0.085 -0.7139  0.0753  0.2838
10001SOL    HW133501  10.761   3.234   0.128 -1.8920 -1.2014  0.9338
10001SOL    HW233502  10.732   3.332   0.017  0.8019 -0.7904  0.5286
10002SOL     OW33503   8.837   8.930   4.859 -0.1306  0.2736  0.1893
10002SOL    HW133504   8.763   8.878   4.891  2.0541 -2.0171  1.8870
10002SOL    HW233505   8.849   8.902   4.769 -1.9152  1.4657 -0.4731
10003SOL     OW33506   1.183   1.199   4.684  0.0589 -0.4848 -0.1331
10003SOL    HW133507   1.152   1.273   4.633 -0.8259 -1.2313 -0.7177
10003SOL    HW233508   1.209   1.134   4.618  0.1389 -0.9663  0.3633
10004SOL     OW33509   0.210   1.509   4.656  0.1306 -0.5268  0.4602
10004SOL    HW133510   0.206   1.588   4.710  0.0090 -1.2638  1.5729
10004SOL    HW233511   0.134   1.457   4.685 -1.2938  0.0047 -2.0094
10005SOL     OW33512   3.680   6.934   6.083 -0.3072  0.0558  0.3377
10005SOL    HW133513   3.629   6.912   6.005 -2.1000 -1.1065  1.7621
10005SOL    HW233514   3.748   6.868   6.086 -0.9477 -0.6157  0.3694
10006SOL     OW33515  10.214  10.128   1.922  0.7882 -0.0730  0.1890
10006SOL    HW133516  10.122  10.154   1.923  0.3278 -1.6029  0.1799
10006SOL    HW233517  10.231  10.102   1.831  1.0393 -0.4322  0.3357
10007SOL     OW33518   7.557   7.088   1.487  0.0087  0.1227  1.0300
10007SOL    HW133519   7.490   7.020   1.480 -0.0892  0.4143 -1.9339
10007SOL    HW233520   7.638   7.046   1.457  0.7873  0.3411  2.6851
10008SOL     OW33521  10.834   8.158   4.732  0.1122 -0.2901 -0.5704
10008SOL    HW133522  10.902   8.203   4.682  1.1841  1.2824  2.0659
10008SOL    HW233523  10.882   8.108   4.798 -1.2437 -0.9140 -0.0185
10009SOL     OW33524   0.207   3.878   1.352 -0.2107  0.5974  0.4570
10009SOL    HW133525   0.242   3.792   1.327  3.5775  1.5531  1.8666
10009SOL    HW233526   0.210   3.930   1.271  0.0443  0.1936  0.2055
10010SOL     OW33527   5.935   5.989   6.175 -0.2800  0.1211 -0.4657
10010SOL    HW133528   5.876   5.917   6.151 -0.8591  0.6534 -0.6540
10010SOL    HW233529   5.895   6.028   6.253  1.4473 -1.4355  1.3071
10011SOL     OW33530   4.456   8.181   4.817 -0.3049  0.4072  0.4002
10011SOL    HW133531   4.549   8.176   4.795 -0.3940  0.7672 -0.0695
10011SOL    HW233532   4.419   8.100   4.781 -0.7725  1.7843 -2.4176
10012SOL     OW33533   1.097   8.304   2.100 -0.6035 -0.3685  0.1325
10012SOL    HW133534   1.015   8.274   2.139 -1.1323  0.6184 -0.1568
10012SOL    HW233535   1.092   8.276   2.008 -0.9174  0.2100 -0.0384
10013SOL     OW33536   8.545   7.059   6.325 -0.1765  0.5421 -0.3357
10013SOL    HW133537   8.519   6.989   6.265 -0.9882  1.4742 -1.1063
10013SOL    HW233538   8.631   7.086   6.294  0.7799 -1.0220  0.8243
10014SOL     OW33539   2.851   0.894   6.776 -0.2551  0.2976  0.4456
10014SOL    HW133540   2.763   0.875   6.743  0.3939 -1.8996 -0.2086
10014SOL    HW233541   2.884   0.809   6.805  3.1203  0.1417 -3.0218
10015SOL     OW33542   6.013   5.778   9.208  0.3913  0.1941  0.0677
10015SOL    HW133543   5.983   5.688   9.198  2.3701 -0.6991  1.5394
10015SOL    HW233544   6.032   5.788   9.301  3.6346  0.8751 -0.5095
10016SOL     OW33545   7.684   1.849   2.234  0.5934 -0.0510 -0.0887
10016SOL    HW133546   7.748   1.833   2.165  1.0318  2.4355 -0.3621
10016SOL    HW233547   7.604   1.806   2.203  1.0727  0.1162 -1.6347
10017SOL     OW33548   3.705  10.957   9.643  0.0945 -0.1977  0.2766
10017SOL    HW133549   3.765  10.886   9.667 -0.1209  0.0144  1.5637
10017SOL    HW233550   3.752  11.007   9.576 -0.6796 -2.8180 -2.4015
10018SOL     OW33551   2.877   2.924   3.995  0.4112  0.2080 -0.0178
10018SOL    HW133552   2.811   2.948   4.060 -0.7955  1.1317 -1.5023
10018SOL    HW233553   2.926   3.005   3.980  0.1866  0.2100 -0.7769
10019SOL     OW33554   4.269   2.539   4.464 -0.3034 -0.8795  0.5747
10019SOL    HW133555   4.254   2.558   4.556 -1.6198  0.7136  0.0989
10019SOL    HW233556   4.214   2.463   4.446  0.3534 -1.5151  1.1934
10020SOL     OW33557   2.022   6.326   3.232 -0.0688  0.6659  0.2517
10020SOL    HW133558   2.064   6.319   3.146 -0.2282 -0.2257  0.2397
10020SOL    HW233559   2.053   6.250   3.280 -1.8378 -0.1406  0.1631
10021SOL     OW33560   6.953   0.749   3.488  0.4018 -0.1990  0.6293
10021SOL    HW133561   7.040   0.713   3.466  0.3041  0.1240 -0.3133
10021SOL    HW233562   6.921   0.692   3.558  0.0662 -2.3000 -1.1257
10022SOL     OW33563   8.375   5.837   8.987 -0.5701  0.0773  0.1911
10022SOL    HW133564   8.299   5.789   9.020  0.9216 -2.6740 -0.1299
10022SOL    HW233565   8.434   5.770   8.954  1.7292  2.1575 -0.2477
10023SOL     OW33566   8.399   1.159   9.534 -0.4997 -0.3933  0.3447
10023SOL    HW133567   8.404   1.252   9.512 -1.4477 -1.0640 -3.4193
10023SOL    HW233568   8.490   1.129   9.534 -0.2843  0.2477  0.1368
10024SOL     OW33569   4.564   4.072   4.616 -0.6252  0.2505  0.2759
10024SOL    HW133570   4.640   4.090   4.671  0.7567 -0.0964 -1.3997
10024SOL    HW233571   4.542   4.156   4.576 -0.3113  0.1267 -0.1747
10025SOL     OW33572   6.110   4.489   6.919 -0.1823 -0.5310 -0.7603
10025SOL    HW133573   6.080   4.409   6.961 -0.8153 -0.7647 -1.6160
10025SOL    HW233574   6.180   4.461   6.860  2.2305  0.0871  1.6198
10026SOL     OW33575   9.245   2.486   2.764  0.1854 -0.0026 -0.0489
10026SOL    HW133576   9.200   2.553   2.712 -0.6924 -1.8583 -1.7971
10026SOL    HW233577   9.175   2.431   2.798  0.9775 -1.5120 -0.7676
10027SOL     OW33578   9.852   6.162  10.018 -0.2258 -0.0451  0.0841
10027SOL    HW133579   9.820   6.153  10.107 -0.9548  0.9220 -0.0535
10027SOL    HW233580   9.811   6.090   9.970  0.2332 -0.6131  0.5395
10028SOL     OW33581   6.163   6.600   2.603  0.5633  0.0585 -0.5746
10028SOL    HW133582   6.132   6.510   2.610  1.5067 -0.2923 -0.6390
10028SOL    HW233583   6.250   6.598   2.645  1.5697  0.4046 -2.5243
10029SOL     OW33584   9.533   8.915   2.425 -0.3760  0.2237  0.4909
10029SOL    HW133585   9.466   8.983   2.416 -0.0699  0.4176 -0.4682
10029SOL    HW233586   9.484   8.834   2.437 -0.7806  0.3839 -0.0474
10030SOL     OW33587   8.744   8.368   1.270  0.3399 -0.3326  0.6924
10030SOL    HW133588   8.791   8.432   1.217  1.0117  1.5362  3.3303
10030SOL    HW233589   8.663   8.352   1.222  0.6294  1.7243 -0.6032
10031SOL     OW33590   6.824   1.619   7.087  0.2231  0.4480  0.6061
10031SOL    HW133591   6.818   1.530   7.053  0.6708 -0.0683  1.8360
10031SOL    HW233592   6.863   1.670   7.016 -0.6678 -0.1832 -0.3537
10032SOL     OW33593   0.352  10.218   6.459 -0.3379 -0.0394  0.7771
10032SOL    HW133594   0.401  10.238   6.378 -2.9387  0.8513 -0.6917
10032SOL    HW233595   0.392  10.275   6.525 -0.2552  1.7030 -0.6802
10033SOL     OW33596   0.979   4.523  10.710 -0.2802 -0.0306  0.2318
10033SOL    HW133597   0.899   4.486  10.673 -0.6420  1.3549 -0.4545
10033SOL    HW233598   0.956   4.545  10.800  0.3100 -2.5116  1.0783
10034SOL     OW33599  10.045   2.931   4.425  0.3924 -0.3227  0.2169
10034SOL    HW133600   9.994   2.984   4.363 -0.1882 -1.0162  0.0915
10034SOL    HW233601  10.025   2.970   4.510  0.5907  0.1561  0.0472
10035SOL     OW33602   9.109   1.550   1.841  0.2345 -0.5367 -0.2373
10035SOL    HW133603   9.187   1.569   1.789  1.1242 -2.3949  0.3229
10035SOL    HW233604   9.092   1.457   1.826 -2.5587  0.0046 -1.1726
10036SOL     OW33605   0.372   2.454   1.093 -0.5159  0.0232 -0.5854
10036SOL    HW133606   0.292   2.504   1.076 -1.2209 -1.6232 -2.5702
10036SOL    HW233607   0.369   2.434   1.186 -1.6096  1.3146 -0.3129
10037SOL     OW33608   7.667   0.671   9.828  0.4640 -0.2899 -0.0090
10037SOL    HW133609   7.616   0.751   9.839  1.8787  0.7698 -0.8459
10037SOL    HW233610   7.715   0.661   9.910 -1.6867 -1.8185  1.1704
10038SOL     OW33611   6.068   4.689   6.086 -0.1062  0.2586 -0.3181
10038SOL    HW133612   6.005   4.622   6.061  0.3826 -0.2931 -0.1080
10038SOL    HW233613   6.015   4.767   6.104 -0.7806 -0.3491  0.3972
10039SOL     OW33614   8.623   3.375   8.209  0.0523  0.1259  0.5194
10039SOL    HW133615   8.584   3.386   8.296 -0.6600 -1.4750  0.4398
10039SOL    HW233616   8.555   3.405   8.149 -0.2490 -0.6734  0.4539
10040SOL     OW33617   6.680   7.676   3.425 -0.1563 -0.0821  0.0830
10040SOL    HW133618   6.715   7.622   3.354  1.9146  1.1796  0.0535
10040SOL    HW233619   6.753   7.684   3.487  0.2609  3.8631 -0.6444
10041SOL     OW33620   4.752   5.512   8.892 -1.3539  0.0823 -0.0123
10041SOL    HW133621   4.742   5.422   8.922  1.4622  0.3293  2.0767
10041SOL    HW233622   4.673   5.556   8.921 -2.9257 -1.7080 -1.3397
10042SOL     OW33623  10.607   3.263   8.525  0.1536  0.2655 -0.4051
10042SOL    HW133624  10.571   3.175   8.514 -0.0830  0.4707 -1.3293
10042SOL    HW233625  10.702   3.250   8.529  0.0526 -0.2931  2.1719
10043SOL     OW33626   7.703   3.871  10.794 -0.0408  0.3065  0.3303
10043SOL    HW133627   7.708   3.935  10.723 -1.2122  0.2616  0.1820
10043SOL    HW233628   7.609   3.863  10.813 -0.2305 -3.0030 -1.2092
10044SOL     OW33629   6.412   6.032   5.383 -0.5569 -0.3739  0.1137
10044SOL    HW133630   6.350   5.959   5.381  1.7461 -2.4576  0.5843
10044SOL    HW233631   6.407   6.064   5.473 -1.1681 -0.2990  0.0606
10045SOL     OW33632   7.736   7.014  10.227  0.2251  0.1134 -0.1157
10045SOL    HW133633   7.730   7.104  10.194 -0.2121  0.5874  1.1573
10045SOL    HW233634   7.830   6.997  10.234  0.4050  1.5653  2.2710
10046SOL     OW33635   7.621   5.491   9.474 -0.0515 -0.0319 -0.4531
10046SOL    HW133636   7.696   5.481   9.415  1.0335  0.2120  0.8324
10046SOL    HW233637   7.545   5.490   9.416  0.9327 -0.3085 -1.8017
10047SOL     OW33638   6.424  10.735   3.523 -0.0214 -0.0595 -0.6127
10047SOL    HW133639   6.331  10.758   3.516  0.0531  0.6638  0.5008
10047SOL    HW233640   6.467  10.817   3.548  1.0685 -0.1663 -2.0127
10048SOL     OW33641   2.173   3.126   6.648 -0.4747  0.0772  0.2595
10048SOL    HW133642   2.188   3.034   6.624 -0.9441  0.1121 -0.1791
10048SOL    HW233643   2.176   3.126   6.744  0.7422 -0.1853  0.2495
10049SOL     OW33644   1.347   6.205   2.450 -0.0995 -0.2139 -0.4097
10049SOL    HW133645   1.268   6.153   2.435  0.7086 -0.8312 -3.1294
10049SOL    HW233646   1.318   6.279   2.503 -2.2261 -1.0821 -0.2627
10050SOL     OW33647   7.691   4.146   0.755 -0.2224 -0.0769  0.2683
10050SOL    HW133648   7.658   4.196   0.681 -0.6486 -1.0379 -0.2098
10050SOL    HW233649   7.770   4.104   0.723 -0.4880 -0.6160  0.2954
10051SOL     OW33650   6.130   6.841  10.019  0.1713  0.2377  0.2559
10051SOL    HW133651   6.046   6.841   9.972  0.7606 -1.6251 -0.9182
10051SOL    HW233652   6.150   6.933  10.032 -1.7624  0.7423  0.0299
10052SOL     OW33653   4.429   5.224   4.360 -0.2769  0.3591  0.2578
10052SOL    HW133654   4.448   5.264   4.275 -0.9727  1.0725  0.4295
10052SOL    HW233655   4.338   5.194   4.352  0.0174 -0.5916  0.3672
10053SOL     OW33656   4.613   5.103   3.868  0.0097 -0.1434  0.3658
10053SOL    HW133657   4.686   5.119   3.928  1.0317 -0.2300 -0.8377
10053SOL    HW233658   4.551   5.051   3.920  1.1473 -0.7468  1.1459
10054SOL     OW33659   2.959   8.974   0.184 -0.5124 -0.2580 -0.0539
10054SOL    HW133660   2.873   8.942   0.211 -0.2018  0.1058  1.4991
10054SOL    HW233661   3.013   8.964   0.262 -0.0791  2.8366  0.1522
10055SOL     OW33662   1.892   8.602   3.906 -0.2792 -0.1850 -0.1308
10055SOL    HW133663   1.816   8.577   3.958 -0.2383 -0.1773 -0.0680
10055SOL    HW233664   1.862   8.674   3.851 -0.1906  0.1131  0.2157
10056SOL     OW33665   9.854   5.650   4.907  0.4693  0.4754  0.1535
10056SOL    HW133666   9.860   5.561   4.943 -0.5324 -0.2447 -1.3514
10056SOL    HW233667   9.832   5.705   4.982  0.5477 -0.6401  1.0141
10057SOL     OW33668   2.637   5.448   0.502  0.1061 -0.1855  0.2319
10057SOL    HW133669   2.665   5.539   0.516  1.1945 -0.6099  0.9859
10057SOL    HW233670   2.568   5.454   0.436 -1.0475  1.3731  1.4896
10058SOL     OW33671   6.078   5.901  11.002 -0.1035  0.3399 -0.4492
10058SOL    HW133672   6.135   5.861  11.068 -2.3349 -0.7210  0.9524
10058SOL    HW233673   6.115   5.873  10.918  1.3252 -0.4320  0.4018
10059SOL     OW33674   7.411   6.423   0.199 -0.1469  0.0011 -0.3240
10059SOL    HW133675   7.482   6.486   0.191 -0.2853  0.1864 -0.1071
10059SOL    HW233676   7.334   6.469   0.167 -0.0801 -0.3670 -1.0348
10060SOL     OW33677   5.411   4.822   7.523 -0.9441 -0.4763  0.1341
10060SOL    HW133678   5.437   4.741   7.567 -1.2892 -0.1662  0.9302
10060SOL    HW233679   5.396   4.797   7.432  1.5935 -0.7760 -0.2678
10061SOL     OW33680  10.511   9.793   1.636 -0.6775 -0.0097  0.1614
10061SOL    HW133681  10.569   9.718   1.652 -0.1056  0.2965 -0.4516
10061SOL    HW233682  10.434   9.775   1.690 -0.6409 -1.1565 -0.1431
10062SOL     OW33683   2.231   5.545   5.649 -0.1569 -0.2017  0.6747
10062SOL    HW133684   2.221   5.482   5.577  1.9460  0.1004  0.0570
10062SOL    HW233685   2.216   5.630   5.609  1.2189 -0.0163  0.5216
10063SOL     OW33686  10.071   7.296   5.033 -0.3453  0.0013 -0.0591
10063SOL    HW133687  10.051   7.226   5.096 -0.0177  0.1162  0.1751
10063SOL    HW233688  10.031   7.374   5.071  0.2754  0.1709  0.2574
10064SOL     OW33689   3.468   8.134   7.066  0.5377 -0.0300  0.8356
10064SOL    HW133690   3.557   8.101   7.053  0.4838  0.4585 -1.1678
10064SOL    HW233691   3.414   8.055   7.076  0.6338 -0.6266 -2.2832
10065SOL     OW33692   9.427   0.284   8.210 -0.2732 -0.3239  0.3203
10065SOL    HW133693   9.346   0.318   8.173  0.0382 -1.0361 -1.0539
10065SOL    HW233694   9.482   0.362   8.223 -1.5221  0.3114  2.2864
10066SOL     OW33695   6.962   0.620   9.922 -0.0205  0.0604 -0.2481
10066SOL    HW133696   7.005   0.562   9.859 -0.4547  0.2627 -0.7332
10066SOL    HW233697   7.004   0.705   9.910  0.0722  0.0388 -0.0843
10067SOL     OW33698   9.704   7.474   9.380 -0.6647 -0.2969  0.3440
10067SOL    HW133699   9.762   7.468   9.456 -1.5068  0.5397  1.0906
10067SOL    HW233700   9.733   7.551   9.333 -0.2955 -0.6784 -0.0593
10068SOL     OW33701   7.262   1.314   0.003 -0.3631  0.3154  0.2349
10068SOL    HW133702   7.354   1.300  -0.018 -1.0062 -4.2166 -0.5360
10068SOL    HW233703   7.256   1.294   0.097 -0.6580  0.1722  0.1845
10069SOL     OW33704   0.589   8.795   4.757 -0.5777 -0.7916 -0.5057
10069SOL    HW133705   0.628   8.868   4.805  0.5468 -2.0616  0.5884
10069SOL    HW233706   0.503   8.827   4.731  0.1362  1.1461 -0.6433
10070SOL     OW33707   9.501   5.842   7.765 -0.1057  0.4878  0.1638
10070SOL    HW133708   9.420   5.793   7.772 -0.5236  0.6521 -2.4643
10070SOL    HW233709   9.563   5.781   7.724  1.0367  0.4806  1.7875
10071SOL     OW33710  10.080   8.670   4.078 -0.3421 -0.2669 -0.2164
10071SOL    HW133711  10.143   8.714   4.020 -1.2935 -2.0376 -2.7909
10071SOL    HW233712  10.013   8.736   4.095 -0.1011  0.2912 -1.2988
10072SOL     OW33713   7.169   5.209   3.990 -0.5644 -0.2166  0.3445
10072SOL    HW133714   7.088   5.237   4.031 -0.6323 -1.2063  0.9140
10072SOL    HW233715   7.225   5.287   3.990 -1.1291  0.1857  0.9132
10073SOL     OW33716   1.784   3.126   6.369  0.3157  0.0261 -0.2323
10073SOL    HW133717   1.878   3.143   6.384  0.1396  0.3141  0.5969
10073SOL    HW233718   1.761   3.061   6.435  0.2347 -1.0657 -1.3118
10074SOL     OW33719   2.434   4.479   2.151  0.5709 -0.8185 -0.8153
10074SOL    HW133720   2.415   4.451   2.061  0.3266 -0.4131 -0.8919
10074SOL    HW233721   2.411   4.404   2.205 -2.1029 -0.0929 -0.8110
10075SOL     OW33722   5.586   2.897   6.000  0.5128 -0.0986 -0.3366
10075SOL    HW133723   5.639   2.819   6.015  1.0677  0.1327 -1.0352
10075SOL    HW233724   5.615   2.929   5.915 -1.6964 -0.7421 -1.4129
10076SOL     OW33725   9.428   4.139   4.917 -0.2109 -0.1083  0.1636
10076SOL    HW133726   9.357   4.149   4.980 -1.6986  0.8718 -1.5402
10076SOL    HW233727   9.383   4.113   4.836  1.6461 -1.6900 -0.4272
10077SOL     OW33728   8.179   0.163   4.695 -0.5585 -0.1465 -0.1879
10077SOL    HW133729   8.118   0.122   4.634 -1.9329  2.1247 -0.4328
10077SOL    HW233730   8.210   0.241   4.650  0.4266  0.1928  1.0195
10078SOL     OW33731   4.755   5.492   0.826  0.0772 -0.3725 -0.3926
10078SOL    HW133732   4.818   5.531   0.765 -0.3201  1.0056  0.0252
10078SOL    HW233733   4.802   5.490   0.910 -0.3584  0.5177 -0.1132
10079SOL     OW33734   3.903   6.732   0.735 -0.1995 -0.4086  0.4376
10079SOL    HW133735   3.952   6.767   0.660  1.5674 -0.8040  1.3723
10079SOL    HW233736   3.834   6.678   0.695 -0.9909  1.5176 -0.9444
10080SOL     OW33737   0.156   7.699   7.437 -0.0231  0.2030  0.2786
10080SOL    HW133738   0.146   7.794   7.431  1.4223  0.3638  0.1024
10080SOL    HW233739   0.082   7.671   7.491 -0.4417  1.4287  0.3747
10081SOL     OW33740   4.981   2.106   5.122  0.3019 -0.0735  0.2199
10081SOL    HW133741   4.966   2.177   5.184  0.7796 -0.6939  1.0558
10081SOL    HW233742   5.058   2.134   5.072  0.7519 -0.1853  0.8363
10082SOL     OW33743   3.218   8.660   5.484  0.2973 -0.3680 -0.4416
10082SOL    HW133744   3.266   8.593   5.435  0.5382  0.9140 -2.0759
10082SOL    HW233745   3.128   8.629   5.485  0.3974 -0.7261 -1.1940
10083SOL     OW33746  10.027  10.932   0.763  0.0230  0.1495 -0.0082
10083SOL    HW133747  10.042  10.927   0.857 -1.4636  0.4485  0.2812
10083SOL    HW233748  10.021  11.026   0.745 -2.1851  0.0909  0.0960
10084SOL     OW33749   7.502   6.368   3.408  0.0082 -0.6439  0.1960
10084SOL    HW133750   7.527   6.397   3.496 -0.9809  0.7288  0.0562
10084SOL    HW233751   7.554   6.289   3.393  0.8613 -0.3926  1.6556
10085SOL     OW33752   6.875   1.966   1.784 -0.6984  0.4216 -0.1867
10085SOL    HW133753   6.901   1.894   1.842 -1.4052  0.0932 -0.2725
10085SOL    HW233754   6.915   1.943   1.700 -0.5283  0.3764 -0.0965
10086SOL     OW33755   9.172   6.106   3.616 -0.4875 -0.2845  0.2102
10086SOL    HW133756   9.195   6.148   3.533 -2.0576  0.9026  0.3364
10086SOL    HW233757   9.111   6.036   3.591 -0.5865 -0.2378  0.3205
10087SOL     OW33758   1.813   4.247   6.733 -0.3111  0.3422 -0.7872
10087SOL    HW133759   1.869   4.324   6.736 -0.6312  0.5635 -0.2763
10087SOL    HW233760   1.724   4.283   6.731 -0.5350  0.0016  1.1461
10088SOL     OW33761   8.158   0.530   6.046 -0.1826 -0.3458 -0.1254
10088SOL    HW133762   8.170   0.544   5.952 -0.3500  2.6465  0.1873
10088SOL    HW233763   8.066   0.504   6.055 -0.5791  0.7750 -0.7209
10089SOL     OW33764   6.976   7.325   4.118  0.2372  0.2862 -0.5601
10089SOL    HW133765   6.963   7.230   4.119 -0.2979  0.3281 -1.8967
10089SOL    HW233766   7.062   7.338   4.158  1.3726 -0.9692 -2.4624
10090SOL     OW33767   2.528   6.605   9.843  0.7223 -0.3765  0.5386
10090SOL    HW133768   2.616   6.637   9.820 -0.3727  2.1377 -0.5566
10090SOL    HW233769   2.518   6.628   9.935  0.6180  0.9240  0.2197
10091SOL     OW33770   7.429   2.124   5.134 -0.2956  0.9775  0.5679
10091SOL    HW133771   7.426   2.029   5.122  0.0166  1.0422 -0.0650
10091SOL    HW233772   7.386   2.139   5.219 -1.9906  0.4263 -0.1434
10092SOL     OW33773   3.077   1.768   3.011  0.2801  0.1448 -0.0866
10092SOL    HW133774   3.091   1.862   3.023  0.9227  0.1847 -1.0195
10092SOL    HW233775   2.992   1.761   2.967  0.4845  0.3409 -0.5257
10093SOL     OW33776  10.692  10.051   5.128  0.1638  0.6002 -0.2733
10093SOL    HW133777  10.657  10.046   5.039  0.5659 -1.1721 -0.3813
10093SOL    HW233778  10.637   9.990   5.178  2.2149 -1.2935 -0.1745
10094SOL     OW33779   7.573   4.888   7.507 -0.2872  0.1687 -0.4452
10094SOL    HW133780   7.579   4.872   7.601  0.9222 -2.2510 -0.8312
10094SOL    HW233781   7.590   4.982   7.497  1.4515  0.1637  1.6460
10095SOL     OW33782   5.441   1.373   0.200 -0.2108 -0.1831 -0.0497
10095SOL    HW133783   5.428   1.444   0.137 -0.2412 -0.7797 -0.7263
10095SOL    HW233784   5.454   1.418   0.284 -1.9085  0.5802 -0.1510
10096SOL     OW33785   8.760   4.847   7.929  0.3226  0.0693  0.2813
10096SOL    HW133786   8.813   4.888   7.998 -0.6841 -0.3318  1.3350
10096SOL    HW233787   8.678   4.825   7.973 -0.8229  0.8885 -1.3632
10097SOL     OW33788   8.542   7.288   4.248 -0.4152  0.3115  0.4219
10097SOL    HW133789   8.477   7.237   4.199  0.9268 -0.4127 -0.6900
10097SOL    HW233790   8.513   7.281   4.340 -1.7137 -0.2521 -0.0008
10098SOL     OW33791   1.664   1.942   8.420  0.2912 -0.3834 -0.0355
10098SOL    HW133792   1.712   1.862   8.401 -1.5254 -1.4186 -0.5018
10098SOL    HW233793   1.675   1.996   8.342 -0.0422 -0.9951 -0.5114
10099SOL     OW33794   3.818   2.474  10.418 -0.4513  0.2578  0.1500
10099SOL    HW133795   3.910   2.457  10.437 -0.1285  0.1831 -1.2978
10099SOL    HW233796   3.776   2.388  10.423 -0.2745  0.1637  0.0549
10100SOL     OW33797  10.801   4.476   8.750  0.1965  0.4364 -0.4657
10100SOL    HW133798  10.759   4.391   8.738  1.0797 -0.3142  1.3177
10100SOL    HW233799  10.728   4.539   8.755 -0.6104 -0.5440  0.4967
10101SOL     OW33800   4.246   2.373   0.238  0.5717 -0.0103  0.2903
10101SOL    HW133801   4.154   2.370   0.213  0.6119  1.3570 -0.0824
10101SOL    HW233802   4.248   2.328   0.323 -0.6832  1.1206  0.9631
10102SOL     OW33803   6.808   9.532   6.322 -0.0021  0.4510 -0.0464
10102SOL    HW133804   6.877   9.467   6.311 -1.7415 -1.9654  2.0560
10102SOL    HW233805   6.851   9.606   6.365  1.5160 -0.4913  0.1262
10103SOL     OW33806   3.357   3.117   4.355 -0.1095  0.7387  0.8564
10103SOL    HW133807   3.327   3.039   4.308  0.5854 -0.8187  2.8681
10103SOL    HW233808   3.411   3.083   4.426 -0.2902  3.0466  2.1871
10104SOL     OW33809   2.529   6.557   2.441  0.1112 -0.1203  0.1808
10104SOL    HW133810   2.547   6.651   2.435 -2.7708  0.4842 -0.8812
10104SOL    HW233811   2.539   6.536   2.534  1.3775  1.0823  0.3411
10105SOL     OW33812   1.702   7.454   8.084  0.2610  0.3346 -0.3453
10105SOL    HW133813   1.764   7.450   8.011  0.2008  0.8708 -0.4273
10105SOL    HW233814   1.746   7.507   8.150  0.9254 -1.3319  0.6152
10106SOL     OW33815  10.420   7.611   9.692  0.1040  0.3566 -0.0858
10106SOL    HW133816  10.400   7.690   9.743  1.0557  0.4280  0.1969
10106SOL    HW233817  10.493   7.636   9.636  0.9495 -0.5280  0.5770
10107SOL     OW33818  10.326   4.138   1.351  0.7502  0.1152 -1.0038
10107SOL    HW133819  10.385   4.188   1.407 -0.9837  0.7805  0.2982
10107SOL    HW233820  10.371   4.054   1.338  1.8170  0.4658  0.2346
10108SOL     OW33821   5.290  10.833   9.205  0.0171 -0.1462 -0.6061
10108SOL    HW133822   5.381  10.816   9.231 -0.3005 -0.4754  0.3521
10108SOL    HW233823   5.295  10.906   9.144  0.9277 -0.1369 -0.5289
10109SOL     OW33824   8.905   9.192   6.687  0.8342 -0.9474 -0.1233
10109SOL    HW133825   8.857   9.228   6.762 -1.6515  1.8698 -2.7858
10109SOL    HW233826   8.976   9.254   6.672 -0.9583  0.7823 -2.2020
10110SOL     OW33827   8.413   1.235   3.238  0.1941 -0.0197  0.0862
10110SOL    HW133828   8.470   1.309   3.257 -1.4328  1.2116  0.4507
10110SOL    HW233829   8.326   1.265   3.265 -0.3524 -2.5033  1.3420
10111SOL     OW33830   8.628   4.181   5.026 -0.7141 -0.6134  0.3876
10111SOL    HW133831   8.554   4.211   5.080 -0.3493 -0.0866  0.6018
10111SOL    HW233832   8.615   4.225   4.942 -0.0120  0.4322  0.7969
10112SOL     OW33833   7.244   2.777   8.470  0.1888  0.0503  0.0609
10112SOL    HW133834   7.340   2.774   8.477  0.0735  0.4266  2.8783
10112SOL    HW233835   7.214   2.709   8.530 -1.3283  1.0575  0.4950
10113SOL     OW33836   7.340   8.773   1.778  0.1044  0.4589  0.7524
10113SOL    HW133837   7.311   8.794   1.689 -0.0715  1.6354  1.0662
10113SOL    HW233838   7.318   8.681   1.789 -1.0653  0.6285  0.0179
10114SOL     OW33839  10.083   4.127  10.212 -0.5339  0.5992 -0.9229
10114SOL    HW133840  10.035   4.187  10.155 -1.6882  0.7492  0.1651
10114SOL    HW233841  10.017   4.094  10.273  0.6308  0.3264  0.2302
10115SOL     OW33842   7.226   0.419   4.235  0.0755 -0.3410 -0.4772
10115SOL    HW133843   7.239   0.513   4.224 -2.5008  0.0733 -0.5705
10115SOL    HW233844   7.266   0.381   4.157  1.6249  0.5865 -0.1851
10116SOL     OW33845   2.982   7.980   1.454 -0.2249 -0.1841 -0.3081
10116SOL    HW133846   2.898   7.939   1.434 -0.7556  1.7565 -2.6681
10116SOL    HW233847   2.963   8.040   1.527 -0.8721  0.0925 -0.6949
10117SOL     OW33848   3.743  10.616   8.411 -0.2696 -0.1570 -0.8238
10117SOL    HW133849   3.811  10.607   8.478 -0.0387  1.6712 -0.7587
10117SOL    HW233850   3.711  10.527   8.397  1.3146 -0.8915 -0.0033
10118SOL     OW33851   3.939   2.615   0.570  0.0894  0.3718 -0.4057
10118SOL    HW133852   4.034   2.614   0.559  0.0926  0.5354 -0.4045
10118SOL    HW233853   3.910   2.686   0.514 -0.2562 -1.0390 -2.0911
10119SOL     OW33854   6.386  10.156   7.180 -0.2046  0.4636 -0.2453
10119SOL    HW133855   6.475  10.147   7.212 -0.6337 -1.6831  0.5178
10119SOL    HW233856   6.347  10.225   7.234  0.0912 -0.7551  1.5771
10120SOL     OW33857   4.052   8.886   3.642 -0.1305  0.2461 -0.3098
10120SOL    HW133858   3.965   8.920   3.662 -0.3353 -1.2668  1.6844
10120SOL    HW233859   4.093   8.871   3.728  1.2355 -1.1944 -1.1473
10121SOL     OW33860  10.984   4.867   7.052 -0.0092 -0.4789 -0.2787
10121SOL    HW133861  10.909   4.834   7.103 -0.6317  0.6348 -0.4451
10121SOL    HW233862  11.007   4.950   7.093  0.4019 -0.2561 -0.9353
10122SOL     OW33863   2.203   8.849   9.476 -0.3393 -0.0251  0.3769
10122SOL    HW133864   2.232   8.819   9.390 -0.0708  1.7227 -0.1737
10122SOL    HW233865   2.117   8.887   9.461 -0.3609  0.1484  0.9175
10123SOL     OW33866   4.887   8.379   6.873  0.1383 -0.0450 -0.4942
10123SOL    HW133867   4.930   8.462   6.894  1.6910 -0.7220 -0.8429
10123SOL    HW233868   4.926   8.353   6.790  0.0418 -1.3728 -0.1335
10124SOL     OW33869   6.136  10.834   7.718  0.1407 -0.0615  0.1109
10124SOL    HW133870   6.045  10.804   7.730  1.0331 -2.4666  1.5136
10124SOL    HW233871   6.176  10.823   7.804  1.1112  3.6707  0.2720
10125SOL     OW33872   0.387   4.863   0.049 -0.7772 -0.1950 -0.7940
10125SOL    HW133873   0.433   4.931  -0.000 -1.2114  0.7290  0.0413
10125SOL    HW233874   0.403   4.783  -0.001  0.6434  0.3163 -1.2215
10126SOL     OW33875   0.823   9.050   2.884 -0.0040  0.0760  0.4169
10126SOL    HW133876   0.744   9.017   2.840 -0.2668  1.2617 -0.0468
10126SOL    HW233877   0.870   8.971   2.910 -1.6003 -0.6790  1.1938
10127SOL     OW33878   5.064   1.418   2.443  0.0429  0.3445 -0.2130
10127SOL    HW133879   5.069   1.483   2.373  1.8719  0.1008 -0.3453
10127SOL    HW233880   5.147   1.427   2.490  0.2536 -1.7326 -0.0929
10128SOL     OW33881   2.814   4.169   1.518  0.3761  0.8690  0.5888
10128SOL    HW133882   2.817   4.258   1.483 -0.2460  0.3651 -0.8155
10128SOL    HW233883   2.862   4.174   1.601  2.6119  1.9745 -0.6863
10129SOL     OW33884   9.365   9.409   9.204  0.4735  0.4136 -0.1851
10129SOL    HW133885   9.350   9.334   9.261  0.7125 -0.0285 -0.6909
10129SOL    HW233886   9.440   9.454   9.243 -0.2859  0.9694  0.6821
10130SOL     OW33887   6.677   0.382  10.929  0.4961 -0.2541  0.3617
10130SOL    HW133888   6.582   0.386  10.918  0.4327 -0.5608  0.7514
10130SOL    HW233889   6.697   0.448  10.996  0.8606  1.5113 -1.4175
10131SOL     OW33890   4.363   1.745   8.336 -0.0156  0.1371 -0.3714
10131SOL    HW133891   4.433   1.745   8.271  0.6194 -3.7099  0.0796
10131SOL    HW233892   4.285   1.716   8.288 -0.5160  1.1365 -0.1842
10132SOL     OW33893   4.855   7.158   5.304 -0.2663  0.0347 -0.4508
10132SOL    HW133894   4.837   7.121   5.391 -1.6338 -1.2602 -1.2347
10132SOL    HW233895   4.920   7.226   5.320  0.0716 -0.6730  1.4887
10133SOL     OW33896   1.688   9.096   4.619  0.6710  0.0273  0.4142
10133SOL    HW133897   1.760   9.084   4.557  1.0662 -0.8602  1.0249
10133SOL    HW233898   1.641   9.172   4.586 -0.2469 -1.4796 -2.0654
10134SOL     OW33899   5.928  10.664   0.535  0.0641 -1.4618 -0.2272
10134SOL    HW133900   5.951  10.754   0.513 -0.1465 -1.2265  0.5051
10134SOL    HW233901   6.009  10.626   0.569 -0.2361 -1.0829  0.9264
10135SOL     OW33902   3.009   9.401   9.729  0.9275 -0.1252  0.2364
10135SOL    HW133903   3.078   9.398   9.795  1.4042  0.3440 -0.2268
10135SOL    HW233904   3.050   9.363   9.651  0.3703 -0.6735  0.2022
10136SOL     OW33905   4.464  10.529   9.676 -0.3655 -0.4942 -0.0189
10136SOL    HW133906   4.544  10.551   9.630 -0.0800 -1.6278 -0.0985
10136SOL    HW233907   4.491  10.465   9.742 -1.4150 -1.9979 -0.9928
10137SOL     OW33908   3.118   8.431   9.694 -0.0445  0.1471 -0.3114
10137SOL    HW133909   3.185   8.480   9.647 -1.1824 -0.5785 -2.8283
10137SOL    HW233910   3.078   8.375   9.628 -2.8788  0.2600  1.1550
10138SOL     OW33911   8.549   4.311  10.413  0.2868  0.0127 -0.5103
10138SOL    HW133912   8.475   4.365  10.438  0.2324 -0.2865 -0.0121
10138SOL    HW233913   8.573   4.263  10.493  0.4818 -0.5237 -0.8777
10139SOL     OW33914   9.126   1.287   8.289 -0.2663  0.5036  0.8372
10139SOL    HW133915   9.038   1.256   8.273 -0.5299  0.6824  1.8538
10139SOL    HW233916   9.125   1.315   8.381  0.8601  0.4338  0.8859
10140SOL     OW33917   9.367   6.545   8.313  0.0221 -0.5793 -0.1744
10140SOL    HW133918   9.286   6.544   8.261 -0.0315  0.4566 -0.1121
10140SOL    HW233919   9.350   6.483   8.384 -1.2428  0.6201  0.6139
10141SOL     OW33920   4.331   4.313   4.083  0.0313 -0.6435  0.3806
10141SOL    HW133921   4.306   4.227   4.117 -1.8467 -0.1062  0.4610
10141SOL    HW233922   4.365   4.295   3.995  0.6727 -1.5539  0.7888
10142SOL     OW33923   1.982   2.163  10.213 -0.1534 -0.9722 -0.0015
10142SOL    HW133924   2.062   2.199  10.251 -0.3896 -0.2273 -0.2015
10142SOL    HW233925   1.927   2.143  10.289 -0.8944  1.1319  0.0808
10143SOL     OW33926   5.830  10.241   7.950 -0.1582 -0.0841  0.4508
10143SOL    HW133927   5.817  10.147   7.963 -3.1225  0.1578 -0.1028
10143SOL    HW233928   5.790  10.260   7.865  1.8999  1.4677 -0.2819
10144SOL     OW33929   0.533   6.150   2.735  0.2495  0.0804 -0.0689
10144SOL    HW133930   0.441   6.174   2.744  0.3630 -0.0302  1.7105
10144SOL    HW233931   0.568   6.212   2.671 -0.9411  0.4315 -0.4070
10145SOL     OW33932   5.340   9.233   4.496 -0.5222  0.2438 -0.2847
10145SOL    HW133933   5.283   9.157   4.504  0.1359 -0.4374 -1.7444
10145SOL    HW233934   5.281   9.305   4.475 -0.8536 -0.5276 -2.1924
10146SOL     OW33935   0.462   5.830   1.568  0.5791 -0.6985  0.2575
10146SOL    HW133936   0.368   5.817   1.558  0.3908 -0.6771  1.7457
10146SOL    HW233937   0.496   5.744   1.592  0.5301 -0.2209  2.2074
10147SOL     OW33938   5.124   3.353   9.237  0.4037 -0.2520 -0.0797
10147SOL    HW133939   5.125   3.447   9.258  1.5155 -0.5958  1.6145
10147SOL    HW233940   5.205   3.338   9.189  0.3182 -0.3682 -0.1851
10148SOL     OW33941   6.363   8.451  10.132 -0.2291 -0.4174  0.3569
10148SOL    HW133942   6.353   8.451  10.228 -2.0165  0.7106  0.2130
10148SOL    HW233943   6.409   8.533  10.114 -0.0882 -0.5260  0.2236
10149SOL     OW33944  10.667   2.424   5.194 -0.0013  0.3660  0.2216
10149SOL    HW133945  10.724   2.440   5.119 -0.9872  0.1124 -0.5974
10149SOL    HW233946  10.703   2.345   5.235  0.7086  0.6673  0.2063
10150SOL     OW33947   9.886   7.666   9.789 -0.2894 -0.4295 -0.4610
10150SOL    HW133948   9.887   7.579   9.830 -0.0866 -1.5843 -2.7456
10150SOL    HW233949   9.963   7.710   9.825 -1.0299 -0.6984  1.6134
10151SOL     OW33950   3.230   9.016   4.812  0.1399  0.3080  0.1619
10151SOL    HW133951   3.194   8.938   4.854  0.8572 -0.7957 -1.1833
10151SOL    HW233952   3.239   9.080   4.883  0.0743 -1.0137  1.4042
10152SOL     OW33953   7.497   5.457   0.557  0.0213 -0.5442 -0.6044
10152SOL    HW133954   7.460   5.543   0.537 -0.8387 -0.2523  1.8945
10152SOL    HW233955   7.538   5.428   0.475 -1.7576  1.1599 -2.1747
10153SOL     OW33956   6.713   7.409   9.053 -0.4929 -1.0723  0.0342
10153SOL    HW133957   6.776   7.394   8.982 -0.2012 -3.2779  0.6681
10153SOL    HW233958   6.628   7.397   9.012 -0.5639  1.5584 -0.7466
10154SOL     OW33959   8.618  10.782   4.099  0.4709 -0.1494 -0.2319
10154SOL    HW133960   8.537  10.829   4.076 -0.8931 -1.4855  1.5341
10154SOL    HW233961   8.604  10.693   4.065  0.6830 -0.7058  1.0971
10155SOL     OW33962   3.004   9.691   0.880  0.6622 -0.3045 -0.0568
10155SOL    HW133963   2.983   9.784   0.868 -1.5825 -0.5644  1.3517
10155SOL    HW233964   2.964   9.667   0.963  1.6682 -2.4283 -0.1121
10156SOL     OW33965   7.416   1.600  10.922  0.1667  0.2841 -0.5301
10156SOL    HW133966   7.453   1.513  10.909 -1.8826 -0.8118  0.5431
10156SOL    HW233967   7.329   1.595  10.883 -0.0382  1.8396 -0.3468
10157SOL     OW33968   9.318   3.350   3.091 -0.0417 -0.5555 -0.7409
10157SOL    HW133969   9.411   3.375   3.091 -0.1992  0.0800 -0.0133
10157SOL    HW233970   9.278   3.408   3.156 -1.2282  0.2238 -2.1022
10158SOL     OW33971   0.235   6.307  10.858  0.0913  0.1833 -0.1281
10158SOL    HW133972   0.214   6.305  10.764 -1.1926  0.0045  0.1339
10158SOL    HW233973   0.165   6.360  10.897  1.2069  1.1616  0.6055
10159SOL     OW33974   3.385   4.657   3.118  0.0469  0.1833  0.6501
10159SOL    HW133975   3.310   4.605   3.091  0.3297 -0.7004  1.4738
10159SOL    HW233976   3.456   4.593   3.128  0.3499  0.6804  1.8839
10160SOL     OW33977   9.766   0.898   3.044  0.3270  0.4101 -0.3113
10160SOL    HW133978   9.826   0.908   2.970 -0.5131  0.4336 -1.0066
10160SOL    HW233979   9.782   0.809   3.076 -0.1841 -0.0584 -1.3235
10161SOL     OW33980   6.321   5.908   7.782 -0.0081 -0.8462 -0.4810
10161SOL    HW133981   6.271   5.845   7.730 -1.0684  0.2181 -0.8230
10161SOL    HW233982   6.288   5.993   7.753  1.4892 -0.1263 -0.1457
10162SOL     OW33983   7.937   9.235   7.668 -0.3194  0.3786 -0.5581
10162SOL    HW133984   7.992   9.313   7.662 -1.5337  1.2057 -1.6034
10162SOL    HW233985   7.945   9.193   7.583 -1.6773  0.8201 -0.9406
10163SOL     OW33986   6.306   6.359   8.990  0.1838 -0.7273 -0.0991
10163SOL    HW133987   6.310   6.381   9.083 -0.9778  1.5181 -0.5170
10163SOL    HW233988   6.217   6.326   8.976 -1.3313  3.2716 -1.1410
10164SOL     OW33989   4.077   4.642   8.675  0.3434 -0.1054 -0.1597
10164SOL    HW133990   4.076   4.611   8.766 -0.8673  0.5553  0.0811
10164SOL    HW233991   4.116   4.729   8.680 -1.5445  0.7736  0.0661
10165SOL     OW33992   7.459   4.301  10.178  0.1311 -0.1458 -0.6631
10165SOL    HW133993   7.403   4.360  10.127 -0.9107 -0.0907  0.5054
10165SOL    HW233994   7.419   4.298  10.264  1.5689 -0.6441  0.0242
10166SOL     OW33995  10.511  10.816  10.041  0.9328 -0.1175 -0.2068
10166SOL    HW133996  10.488  10.906  10.021 -0.6936 -0.5790 -0.5854
10166SOL    HW233997  10.582  10.822  10.105  3.1242  1.4136 -2.6342
10167SOL     OW33998   3.412   9.838  10.144 -0.3168  0.2793 -0.8102
10167SOL    HW133999   3.465   9.784  10.203 -0.1954  0.8507 -0.3839
10167SOL    HW234000   3.338   9.867  10.197 -0.3830  0.5256 -1.0315
10168SOL     OW34001   6.942   3.610   9.945 -0.1549  0.2417  0.7732
10168SOL    HW134002   7.013   3.553   9.973  0.2915  0.1830 -0.4047
10168SOL    HW234003   6.961   3.694   9.986  0.6408  0.2367  0.4403
10169SOL     OW34004   4.241   3.658   7.172  0.0631  0.2135  0.5967
10169SOL    HW134005   4.311   3.612   7.127 -0.1992  1.2962 -0.9718
10169SOL    HW234006   4.272   3.667   7.262  0.8409 -1.4936  0.5372
10170SOL     OW34007   6.041   1.064   7.123  0.0071  0.6836 -0.8229
10170SOL    HW134008   5.965   1.038   7.175 -0.2192  1.5753 -0.6813
10170SOL    HW234009   6.113   1.067   7.186  0.7039 -2.2353 -1.3202
10171SOL     OW34010   7.757  10.877   0.879  0.0979  0.0926 -0.0048
10171SOL    HW134011   7.848  10.849   0.878  0.5976  1.5688  0.6895
10171SOL    HW234012   7.720  10.841   0.798  1.6043  0.4107 -0.8811
10172SOL     OW34013   0.241   7.500   1.763  0.0637  0.6600 -0.0512
10172SOL    HW134014   0.221   7.482   1.855  1.2143  1.6382  0.4127
10172SOL    HW234015   0.237   7.596   1.756  3.9847  0.9882  0.0264
10173SOL     OW34016   1.109   5.065   0.319 -0.8831  0.0343 -0.5395
10173SOL    HW134017   1.032   5.017   0.350 -0.3751 -0.5035 -0.0769
10173SOL    HW234018   1.184   5.015   0.352 -0.2629 -1.0008 -3.2223
10174SOL     OW34019   4.673   2.088  10.129 -0.4588 -0.1482 -0.5519
10174SOL    HW134020   4.762   2.057  10.143 -0.0880  1.0778 -0.1017
10174SOL    HW234021   4.618   2.015  10.157  0.3868 -1.6021 -2.4852
10175SOL     OW34022   7.300   5.691   8.119  0.0147  0.0808  0.2987
10175SOL    HW134023   7.256   5.735   8.192 -1.2837  0.4035 -0.6386
10175SOL    HW234024   7.286   5.749   8.044 -1.2562 -1.6109 -0.8530
10176SOL     OW34025   1.501  10.761   1.283  0.0974  0.1070 -0.6062
10176SOL    HW134026   1.539  10.817   1.351 -0.5186  0.3910 -0.4846
10176SOL    HW234027   1.573  10.744   1.223  0.2992  1.0485 -0.6559
10177SOL     OW34028   9.718   7.607   1.717  0.4815 -0.2214 -0.3072
10177SOL    HW134029   9.791   7.626   1.657 -0.5050 -0.9132 -1.7870
10177SOL    HW234030   9.674   7.692   1.728  0.5980 -0.1127 -0.6621
10178SOL     OW34031  10.533   3.174   6.238 -0.1277 -0.0846 -0.3193
10178SOL    HW134032  10.551   3.267   6.250  1.9061 -0.3786 -0.7232
10178SOL    HW234033  10.468   3.171   6.168 -0.3045  1.0293 -0.2162
10179SOL     OW34034   5.447  10.737   6.736  0.3811  1.1558  0.1662
10179SOL    HW134035   5.445  10.655   6.785 -0.7890  0.5672 -0.8122
10179SOL    HW234036   5.377  10.790   6.773  0.1494  1.1076 -0.1977
10180SOL     OW34037   7.426  10.781   8.952  0.0224 -0.2360 -0.1850
10180SOL    HW134038   7.417  10.754   9.044 -1.7963 -1.4188 -0.6519
10180SOL    HW234039   7.339  10.816   8.930  0.8448  1.3391 -1.0856
10181SOL     OW34040   4.240   9.985   8.902 -0.3504  0.3243 -0.5850
10181SOL    HW134041   4.189  10.064   8.885 -0.6709  0.5623  1.2639
10181SOL    HW234042   4.326  10.018   8.929 -0.4270  0.0489  0.0066
10182SOL     OW34043   5.854   3.889   9.550 -0.2677  0.0789  0.0444
10182SOL    HW134044   5.897   3.808   9.521  1.2236  0.8673 -0.0151
10182SOL    HW234045   5.788   3.906   9.483 -0.6156 -1.0864  0.0636
10183SOL     OW34046   2.399   7.331   2.080  0.2103 -0.3785  0.0104
10183SOL    HW134047   2.424   7.239   2.090 -0.2389 -0.3444  1.7905
10183SOL    HW234048   2.307   7.328   2.055 -0.3027 -0.4433  1.7507
10184SOL     OW34049   3.850   5.625  10.957 -0.3047  0.1663 -0.4187
10184SOL    HW134050   3.794   5.548  10.963  2.2028 -1.9004 -1.4962
10184SOL    HW234051   3.809   5.680  10.891 -1.1608 -1.1799 -1.0384
10185SOL     OW34052   9.197   3.148   6.223 -0.2576 -0.2057 -0.1940
10185SOL    HW134053   9.223   3.210   6.155  0.1810  1.3480  1.3037
10185SOL    HW234054   9.271   3.088   6.230 -0.6815 -0.9432 -1.6570
10186SOL     OW34055   9.060   0.624   3.525  0.3787  0.5776  0.3257
10186SOL    HW134056   9.006   0.619   3.446  0.8669 -2.3695  0.0658
10186SOL    HW234057   9.150   0.629   3.492  0.5537 -0.1573  0.6714
10187SOL     OW34058  10.306   7.902   6.750  0.3152  0.2406 -0.3808
10187SOL    HW134059  10.354   7.985   6.749 -0.3686  0.6420 -0.6761
10187SOL    HW234060  10.360   7.843   6.803  2.4500 -0.1159 -2.7655
10188SOL     OW34061   7.270   6.293  10.013 -0.5417  0.0199  0.2991
10188SOL    HW134062   7.297   6.321   9.925  0.5396  0.9939  0.8998
10188SOL    HW234063   7.352   6.279  10.059 -1.0474  1.4278  1.7140
10189SOL     OW34064   6.795   6.182   9.142 -0.0268 -0.2442  0.3395
10189SOL    HW134065   6.803   6.277   9.135 -0.9909  0.0046  2.0267
10189SOL    HW234066   6.707   6.162   9.109 -0.1012 -0.4417  0.6422
10190SOL     OW34067  10.622   3.005   2.658 -0.5320  0.3463 -0.7797
10190SOL    HW134068  10.574   3.073   2.610 -1.6644 -0.4659 -0.8529
10190SOL    HW234069  10.584   3.007   2.746  0.4278  0.7545 -0.3619
10191SOL     OW34070   9.025   4.474   0.184  0.4986  0.1964  0.0915
10191SOL    HW134071   8.989   4.489   0.097  0.1565  0.3567  0.2614
10191SOL    HW234072   8.951   4.481   0.243  0.1467 -2.7176  0.1687
10192SOL     OW34073   0.257   7.729   6.297 -0.5448  0.1422 -0.1213
10192SOL    HW134074   0.291   7.799   6.352 -2.2896 -0.0630  1.3587
10192SOL    HW234075   0.165   7.722   6.323 -1.1649 -0.7167 -2.3541
10193SOL     OW34076   4.385   8.964   2.124 -0.1238  0.3995  0.3212
10193SOL    HW134077   4.403   9.055   2.149  1.9902  0.0890  0.0763
10193SOL    HW234078   4.291   8.954   2.136 -0.4366  2.6816  0.1575
10194SOL     OW34079   5.408   0.127   0.377  0.3590 -0.0549 -0.2037
10194SOL    HW134080   5.373   0.050   0.422 -0.7917  0.6150  0.0912
10194SOL    HW234081   5.360   0.130   0.295 -1.6038  1.8061  0.9019
10195SOL     OW34082  10.651   3.680   9.549  0.0708  0.0631  0.4400
10195SOL    HW134083  10.596   3.630   9.489  0.7797 -2.9174  2.0766
10195SOL    HW234084  10.710   3.731   9.492 -0.6093 -1.0821 -1.3468
10196SOL     OW34085   5.515   7.738   1.698  0.3060 -0.5622 -0.0143
10196SOL    HW134086   5.459   7.794   1.644 -0.0600 -1.8401 -0.9906
10196SOL    HW234087   5.509   7.777   1.786 -2.4577 -0.8716  0.0218
10197SOL     OW34088   5.772   1.352   8.753 -0.0943 -0.3277 -0.2650
10197SOL    HW134089   5.767   1.262   8.785 -0.6828 -0.3012 -0.2717
10197SOL    HW234090   5.712   1.354   8.678  1.1517 -0.3453 -1.2914
10198SOL     OW34091  10.045   7.433   2.403  0.0640  0.4771  0.6245
10198SOL    HW134092   9.984   7.439   2.329  0.5771 -0.3648  0.1138
10198SOL    HW234093  10.132   7.439   2.363  0.3443  2.4272  1.4219
10199SOL     OW34094   9.565   7.392   1.756 -0.9071  0.3019  0.4111
10199SOL    HW134095   9.480   7.428   1.779 -0.7558  0.5778  0.5367
10199SOL    HW234096   9.622   7.468   1.744 -0.1503  0.0996  2.3262
10200SOL     OW34097   7.279   1.282   4.950  0.3586 -0.3967  0.5775
10200SOL    HW134098   7.279   1.264   5.044 -0.0007 -0.2858  0.5996
10200SOL    HW234099   7.198   1.331   4.935  1.2742  1.1354  0.5001
10201SOL     OW34100   3.902  10.243  10.459 -0.0619  0.6395  0.0007
10201SOL    HW134101   3.864  10.186  10.526 -0.7974  0.6818 -0.3727
10201SOL    HW234102   3.919  10.325  10.505  2.3788 -0.2908  0.9260
10202SOL     OW34103   1.915   6.386   3.847 -0.1909 -0.7935 -0.0666
10202SOL    HW134104   1.980   6.415   3.912 -1.5228  0.9484  0.5929
10202SOL    HW234105   1.952   6.306   3.809  0.8484 -1.6423  2.5244
10203SOL     OW34106   3.512   0.534   6.905 -0.2169  0.2613  0.5356
10203SOL    HW134107   3.565   0.461   6.937 -1.5626 -0.6373  0.8258
10203SOL    HW234108   3.443   0.544   6.971 -0.9406  0.7771 -0.2743
10204SOL     OW34109   5.632   0.259   7.166  0.1331  0.1714  0.3720
10204SOL    HW134110   5.723   0.241   7.142 -0.1235  0.5566 -0.9223
10204SOL    HW234111   5.635   0.271   7.261  0.8952 -3.0833  0.8816
10205SOL     OW34112   5.158   5.031   9.678 -0.3297  0.1198 -0.7752
10205SOL    HW134113   5.129   5.074   9.597 -1.8474 -2.3247 -1.6410
10205SOL    HW234114   5.188   4.945   9.650  1.2309 -0.0004  1.0498
10206SOL     OW34115  10.067   9.414   3.180 -0.1937  0.4874  0.0334
10206SOL    HW134116  10.138   9.469   3.211 -1.1490  2.3206 -0.8017
10206SOL    HW234117  10.044   9.359   3.254  3.5706 -1.9265 -0.3395
10207SOL     OW34118   3.043   0.616   0.718 -0.6124  0.2618 -0.3591
10207SOL    HW134119   3.110   0.603   0.785 -1.3448 -0.7654  0.2033
10207SOL    HW234120   2.978   0.673   0.760 -0.8144  0.0423 -0.3704
10208SOL     OW34121   0.864   2.670   1.994  0.2920 -0.5057  0.2296
10208SOL    HW134122   0.841   2.713   1.912  2.0626 -0.2176 -0.1508
10208SOL    HW234123   0.924   2.600   1.969  0.2599 -0.8985  1.2063
10209SOL     OW34124   6.249   1.126   7.336  0.4957  0.0868  0.3652
10209SOL    HW134125   6.323   1.084   7.292 -0.0336 -0.5000  0.0239
10209SOL    HW234126   6.190   1.054   7.357 -0.1124  0.5873  0.3893
10210SOL     OW34127   3.883   1.111   7.577  0.5028 -0.0876 -0.0599
10210SOL    HW134128   3.852   1.109   7.668  1.1244  0.2848  0.1670
10210SOL    HW234129   3.857   1.026   7.541 -0.8461  0.2287  0.0870
10211SOL     OW34130   9.858   1.526   6.265  0.4760  0.0810 -0.5543
10211SOL    HW134131   9.907   1.578   6.201 -0.2117 -1.1645 -2.1442
10211SOL    HW234132   9.895   1.438   6.258 -1.5280 -0.7337 -1.3313
10212SOL     OW34133   8.915   1.036   4.216 -0.4331 -0.2246  0.4711
10212SOL    HW134134   8.880   0.998   4.297 -1.1988 -2.1183 -0.6815
10212SOL    HW234135   8.840   1.081   4.177 -0.0211  0.8347  0.8550
10213SOL     OW34136   0.417   1.189   2.850  0.6941  0.1597  0.0287
10213SOL    HW134137   0.384   1.251   2.786  1.0091 -1.0794 -1.3768
10213SOL    HW234138   0.512   1.190   2.839  0.7556 -0.0198  0.5100
10214SOL     OW34139   7.082   7.140  10.230  0.2634  0.4322 -0.2604
10214SOL    HW134140   7.032   7.119  10.152 -0.6219  1.8690 -0.1253
10214SOL    HW234141   7.046   7.082  10.298  0.6367 -0.4081 -0.7720
10215SOL     OW34142   9.358   7.419  10.483 -0.4520  0.6260  0.5189
10215SOL    HW134143   9.328   7.334  10.450  0.6122  0.1857  0.6350
10215SOL    HW234144   9.451   7.421  10.462 -0.1697  1.1806  1.7584
10216SOL     OW34145  10.170  10.740   4.415 -0.4379 -0.2337 -0.1408
10216SOL    HW134146  10.248  10.695   4.382 -0.2663  0.2651 -0.4252
10216SOL    HW234147  10.098  10.683   4.390 -0.2024 -0.4704 -0.2870
10217SOL     OW34148  10.260   3.819   9.068  0.2859 -0.2140  0.0596
10217SOL    HW134149  10.326   3.794   9.133 -0.0631 -1.3015  0.0223
10217SOL    HW234150  10.239   3.910   9.088 -0.1676 -0.6678  1.7921
10218SOL     OW34151   5.066   9.194   2.665 -0.3843  0.0864  0.4316
10218SOL    HW134152   5.139   9.180   2.725  0.2011  0.0105 -0.2956
10218SOL    HW234153   5.005   9.123   2.685 -0.4241  0.3465  1.2716
10219SOL     OW34154   4.784   2.620   4.374  0.1733  0.2425  0.7096
10219SOL    HW134155   4.758   2.621   4.281 -2.9979  0.4705  1.4805
10219SOL    HW234156   4.877   2.596   4.372 -0.0348 -0.8790 -2.4548
10220SOL     OW34157   4.518   7.191   5.456 -0.5340 -0.3667  0.1595
10220SOL    HW134158   4.557   7.278   5.465 -0.9633 -0.0691 -0.7492
10220SOL    HW234159   4.570   7.135   5.514  0.5631  0.2375 -0.2170
10221SOL     OW34160   0.908   2.333   6.165  0.1859  0.0600 -0.3433
10221SOL    HW134161   0.935   2.398   6.101  0.4084 -1.0651 -1.4406
10221SOL    HW234162   0.988   2.285   6.186 -0.5803 -2.6594 -2.8814
10222SOL     OW34163   8.537   5.902  10.768 -0.1303 -0.6395 -0.0856
10222SOL    HW134164   8.517   5.914  10.675  0.0660 -0.8486 -0.1545
10222SOL    HW234165   8.451   5.892  10.810 -0.1752 -1.8114 -0.4186
10223SOL     OW34166   9.406   7.354  10.074  0.1183  0.3575  0.2219
10223SOL    HW134167   9.492   7.378  10.107 -0.6803  1.3283  1.6992
10223SOL    HW234168   9.376   7.433  10.028 -0.6516  0.6419  1.1769
10224SOL     OW34169   1.259   7.956   3.842 -0.0424 -0.0683 -0.3849
10224SOL    HW134170   1.183   7.983   3.790 -0.4685 -2.3606 -1.0612
10224SOL    HW234171   1.225   7.887   3.899  1.8090 -2.4692 -1.9727
10225SOL     OW34172   0.585   8.129   2.661 -0.3360  0.2314 -0.6383
10225SOL    HW134173   0.524   8.071   2.708 -2.1228  1.8897 -0.7607
10225SOL    HW234174   0.603   8.199   2.723  1.7600 -0.3757 -0.5079
10226SOL     OW34175   8.116   4.182   0.409 -0.2477 -0.1365  0.0091
10226SOL    HW134176   8.133   4.167   0.316  0.9772  0.2289  0.1591
10226SOL    HW234177   8.198   4.217   0.443 -0.8079  0.1112  1.1514
10227SOL     OW34178   1.551   2.818   2.931  0.1359  0.0109 -0.2482
10227SOL    HW134179   1.489   2.835   2.859  1.7754  0.4772 -1.6130
10227SOL    HW234180   1.505   2.847   3.010 -0.7875  1.8502 -1.4034
10228SOL     OW34181   8.930   1.258   6.462  0.1618 -0.0748 -0.4191
10228SOL    HW134182   8.860   1.210   6.418  1.5108 -2.1896 -0.4529
10228SOL    HW234183   8.886   1.326   6.511 -1.8833 -1.1072 -0.7168
10229SOL     OW34184   4.212   1.558   1.713  0.2004 -0.0136 -0.2095
10229SOL    HW134185   4.304   1.541   1.697  0.1020 -0.3455 -0.4365
10229SOL    HW234186   4.169   1.473   1.702 -0.1978  0.2345 -0.6212
10230SOL     OW34187   9.185   9.609   5.645 -0.5963 -0.4136  0.3303
10230SOL    HW134188   9.199   9.618   5.739 -0.6524 -1.8191  0.4839
10230SOL    HW234189   9.089   9.606   5.635 -0.7852  2.7796 -0.1146
10231SOL     OW34190   0.968  10.828   5.576  0.4447  0.8358  0.5467
10231SOL    HW134191   1.003  10.839   5.664  1.7251  1.6794 -0.0266
10231SOL    HW234192   0.940  10.916   5.550 -2.4840  0.1836  1.0642
10232SOL     OW34193   2.524   5.926  10.314  0.6475  0.2668  0.2676
10232SOL    HW134194   2.509   5.994  10.249  1.5984 -0.3336 -0.6037
10232SOL    HW234195   2.464   5.948  10.386 -0.3133  1.0175 -0.7349
10233SOL     OW34196   6.296   4.086   7.055  0.1253 -0.4498  0.1474
10233SOL    HW134197   6.321   4.151   7.121 -0.6123  0.4990 -0.4633
10233SOL    HW234198   6.374   4.076   7.000  0.7318 -1.2228  1.1228
10234SOL     OW34199  10.729   2.057   9.742  0.1164  0.8476 -0.1603
10234SOL    HW134200  10.669   2.110   9.689 -2.5390 -0.4641  1.3344
10234SOL    HW234201  10.702   2.073   9.832 -0.0457 -2.1015  0.4040
10235SOL     OW34202   1.518   0.652   5.534 -0.1555  0.1363  1.0455
10235SOL    HW134203   1.452   0.619   5.594  0.7352 -0.4636  1.7179
10235SOL    HW234204   1.531   0.581   5.471 -1.2906  0.8674 -0.0691
10236SOL     OW34205   7.401   7.269   6.912  0.2295  0.0108 -0.0474
10236SOL    HW134206   7.373   7.343   6.965 -0.7890 -0.1015 -0.4005
10236SOL    HW234207   7.360   7.284   6.827  0.4586 -0.6825 -0.2878
10237SOL     OW34208   2.345   1.441   2.259 -0.3379 -0.3955 -0.4939
10237SOL    HW134209   2.316   1.378   2.194  0.2888 -1.1707 -0.0372
10237SOL    HW234210   2.380   1.388   2.331  0.1684  0.4596 -0.0851
10238SOL     OW34211   0.157   6.290   4.036  0.0282  0.5018 -0.3060
10238SOL    HW134212   0.092   6.339   3.986 -1.3370 -0.5635  0.3621
10238SOL    HW234213   0.177   6.214   3.982  0.4025  0.6032 -0.3133
10239SOL     OW34214   0.954   9.572  10.981  0.0115 -0.1953 -0.2972
10239SOL    HW134215   0.972   9.486  10.943 -1.6440 -0.3565 -0.8273
10239SOL    HW234216   0.912   9.552  11.065  0.1238  0.0991 -0.1724
10240SOL     OW34217   6.562   5.314   7.620 -0.3253 -0.4124 -0.4434
10240SOL    HW134218   6.477   5.357   7.627  0.2796  1.3615 -2.7372
10240SOL    HW234219   6.622   5.373   7.665 -0.0669 -0.8542 -0.2036
10241SOL     OW34220   9.020   7.321   9.589  0.0281  0.0317  0.1078
10241SOL    HW134221   8.986   7.275   9.512  1.1374 -0.2040 -0.2514
10241SOL    HW234222   9.053   7.252   9.646  1.3093  0.3376 -0.2396
10242SOL     OW34223   1.567   3.182   0.824 -0.4416 -0.2392  0.1828
10242SOL    HW134224   1.647   3.157   0.870 -1.1300  0.1351  1.6461
10242SOL    HW234225   1.598   3.219   0.741  0.8961 -0.1303  0.6988
10243SOL     OW34226   1.970   3.460   5.630 -0.3400  0.3308  0.6288
10243SOL    HW134227   1.884   3.474   5.672  0.2116  1.7155  1.3918
10243SOL    HW234228   2.026   3.527   5.670  0.3973  1.3344 -1.8938
10244SOL     OW34229  10.573   5.176   6.171  0.1817  0.1298  0.1840
10244SOL    HW134230  10.598   5.255   6.122 -1.1212  0.4848  0.0240
10244SOL    HW234231  10.528   5.210   6.248 -1.2836 -0.4351 -0.3797
10245SOL     OW34232   9.396   8.971   4.917  0.2649 -0.1148  0.6643
10245SOL    HW134233   9.462   9.000   4.854 -1.4796  0.9081 -0.7761
10245SOL    HW234234   9.445   8.915   4.978  2.3264  0.0847 -0.6903
10246SOL     OW34235   8.253   2.957   5.107  0.0533  0.3177 -0.3830
10246SOL    HW134236   8.307   2.907   5.045  2.7884  1.2690  1.0684
10246SOL    HW234237   8.238   3.041   5.064 -2.4316 -0.7494 -1.7817
10247SOL     OW34238   5.068   3.720   2.190  0.5190  0.0025  0.1275
10247SOL    HW134239   5.050   3.682   2.276 -2.2424  1.6597  0.4185
10247SOL    HW234240   5.140   3.782   2.206 -0.0250  0.3641  1.2884
10248SOL     OW34241   2.998   8.675   3.643 -0.1978  0.3273  0.4664
10248SOL    HW134242   2.905   8.692   3.657  0.0919  3.1806 -0.3522
10248SOL    HW234243   3.002   8.622   3.563 -1.0973  0.6498  0.2031
10249SOL     OW34244  10.263   6.972   2.254 -0.2820  0.1594 -0.2570
10249SOL    HW134245  10.223   7.056   2.229 -1.0622 -0.4109 -0.9796
10249SOL    HW234246  10.232   6.910   2.187 -0.0676 -0.7981  0.5103
10250SOL     OW34247  10.158   6.659  10.169 -0.5603 -0.8449 -0.0997
10250SOL    HW134248  10.064   6.678  10.172 -0.5842 -0.9988  0.2353
10250SOL    HW234249  10.183   6.675  10.078 -0.9005 -0.7524 -0.1801
10251SOL     OW34250   8.139   8.762   7.417 -1.1737  0.4866  0.0645
10251SOL    HW134251   8.127   8.758   7.512 -0.9850 -1.5718  0.0426
10251SOL    HW234252   8.052   8.780   7.383 -1.2517  1.1978  0.6068
10252SOL     OW34253  10.290   2.449   9.359  0.4532 -0.4807  0.8336
10252SOL    HW134254  10.353   2.495   9.303 -0.6676 -0.3262 -0.3391
10252SOL    HW234255  10.266   2.513   9.426 -0.4480  0.3874 -0.2827
10253SOL     OW34256   1.882   7.648   2.201 -0.1157  0.2125  0.2430
10253SOL    HW134257   1.935   7.692   2.134  1.0603  0.9485  1.5923
10253SOL    HW234258   1.806   7.614   2.153 -0.9839  3.4752 -0.9890
10254SOL     OW34259   2.472   9.428   6.376  0.4467 -0.0301  1.0375
10254SOL    HW134260   2.454   9.521   6.360  0.8027  0.1324  1.5504
10254SOL    HW234261   2.389   9.392   6.408  0.0558 -0.0973  0.0151
10255SOL     OW34262   7.582   2.227  10.860  0.0798  0.0632  0.9395
10255SOL    HW134263   7.546   2.307  10.822 -0.3990 -0.0050  1.2481
10255SOL    HW234264   7.618   2.179  10.785  0.0526  0.4021  0.7075
10256SOL     OW34265  10.608   1.944   9.289 -0.1502  0.9391  0.2890
10256SOL    HW134266  10.544   1.934   9.359  0.2448  0.1541  0.5376
10256SOL    HW234267  10.567   1.903   9.213  0.5168 -0.6025  0.7348
10257SOL     OW34268   5.449   0.930   5.016 -0.4508  0.0955 -0.0197
10257SOL    HW134269   5.460   0.838   4.990 -2.4776  0.4584 -2.6098
10257SOL    HW234270   5.509   0.978   4.958 -0.3571  0.5069  0.4147
10258SOL     OW34271   9.920   4.378  10.781  0.3379  0.4531 -0.2027
10258SOL    HW134272   9.975   4.316  10.829 -1.1216 -0.5488  0.2285
10258SOL    HW234273   9.914   4.340  10.693 -0.3726  0.0743  0.0000
10259SOL     OW34274   6.042   7.197   4.279  0.0993 -0.0054 -0.6204
10259SOL    HW134275   6.034   7.103   4.265 -2.9085  0.1141 -0.2095
10259SOL    HW234276   6.051   7.234   4.191 -1.1946 -0.5254 -0.9898
10260SOL     OW34277   4.101   3.643   2.093  0.0981 -0.2439 -0.4284
10260SOL    HW134278   4.056   3.716   2.051 -0.6377 -0.7934 -0.6091
10260SOL    HW234279   4.177   3.626   2.037  0.4724  0.6117 -0.1853
10261SOL     OW34280   9.087   1.347   5.016  0.3261 -0.0296  0.3836
10261SOL    HW134281   9.056   1.289   4.946 -0.2120 -0.2566  0.8103
10261SOL    HW234282   9.047   1.431   4.996 -0.3041 -0.2392  0.7439
10262SOL     OW34283   0.860   7.064   8.699  0.2092  0.3017  0.4141
10262SOL    HW134284   0.765   7.056   8.710  0.4733 -0.7555  2.5951
10262SOL    HW234285   0.882   6.997   8.635 -0.5894  1.1100 -0.7399
10263SOL     OW34286  10.876   9.741   3.750 -0.0296 -0.6303 -0.0957
10263SOL    HW134287  10.794   9.752   3.702 -0.3320 -2.1446  0.0178
10263SOL    HW234288  10.933   9.692   3.690  1.1507  1.1615 -0.5202
10264SOL     OW34289   8.867   0.724   9.071  0.0506 -0.2672  0.4826
10264SOL    HW134290   8.834   0.688   8.989  0.4672  0.6115 -0.0781
10264SOL    HW234291   8.800   0.787   9.098 -1.6548 -2.7067  2.4617
10265SOL     OW34292   3.873   6.970   3.737  0.1242  0.3901  0.1575
10265SOL    HW134293   3.911   6.927   3.814  0.6511 -1.1232 -0.8944
10265SOL    HW234294   3.949   6.995   3.685 -0.2427  0.9383 -0.1214
10266SOL     OW34295   5.134   5.564   7.500 -0.3937 -0.5871 -0.3476
10266SOL    HW134296   5.122   5.635   7.436  0.5703 -1.2726 -1.3249
10266SOL    HW234297   5.051   5.560   7.547 -0.0951  1.9867  0.5834
10267SOL     OW34298  10.663   9.965   2.822  0.9529 -0.2066 -0.3457
10267SOL    HW134299  10.631   9.918   2.899  0.6666 -1.4708 -1.2132
10267SOL    HW234300  10.759   9.965   2.831  0.9620 -1.0815 -0.3990
10268SOL     OW34301   2.431   4.208   7.935 -0.6936  0.2851 -0.1658
10268SOL    HW134302   2.337   4.224   7.927 -1.1640 -0.4180  2.6964
10268SOL    HW234303   2.438   4.143   8.005  1.9556  0.6435 -0.0032
10269SOL     OW34304   5.336   8.276   8.967  0.3214  0.2961 -0.1985
10269SOL    HW134305   5.295   8.270   9.054  1.5181 -0.0500  0.3682
10269SOL    HW234306   5.332   8.187   8.933 -1.5172  0.7096 -1.1864
10270SOL     OW34307   5.664  10.999   0.405  0.0282 -0.1640  0.2796
10270SOL    HW134308   5.696  10.998   0.495 -0.5515  0.0640  0.4932
10270SOL    HW234309   5.585  11.053   0.408 -1.2100 -1.8633  0.0497
10271SOL     OW34310   0.450   9.493   6.045 -0.4308 -0.2747 -0.2585
10271SOL    HW134311   0.507   9.441   6.102 -0.0440  0.9372  0.5046
10271SOL    HW234312   0.496   9.496   5.961 -1.4393 -2.8440 -0.9747
10272SOL     OW34313   5.167   7.145   2.724 -0.1035 -0.0485 -0.8602
10272SOL    HW134314   5.075   7.153   2.750  0.1115  0.3073 -0.1676
10272SOL    HW234315   5.211   7.112   2.802  0.0403 -2.2617 -1.8126
10273SOL     OW34316   4.862   7.809   3.640  0.3793  0.4815 -0.0842
10273SOL    HW134317   4.944   7.763   3.627  0.1766  0.4551 -1.5342
10273SOL    HW234318   4.862   7.835   3.732  1.9596  0.4110 -0.0405
10274SOL     OW34319   8.648   9.000   2.852  0.5325  0.0901  0.0189
10274SOL    HW134320   8.737   8.967   2.839  0.1093 -1.1527  0.1762
10274SOL    HW234321   8.622   8.964   2.937 -0.2305  0.1905 -0.1678
10275SOL     OW34322   0.210   6.144   6.245 -0.1870 -0.2009  0.1214
10275SOL    HW134323   0.143   6.081   6.216 -1.2389  0.2499  1.4805
10275SOL    HW234324   0.293   6.101   6.225 -0.8797 -1.2009 -0.7214
10276SOL     OW34325   4.929   8.116   1.542 -0.2739 -0.0910 -0.0556
10276SOL    HW134326   4.943   8.029   1.503 -1.0439 -0.0571 -0.4241
10276SOL    HW234327   5.011   8.135   1.587 -0.1545 -1.0837  0.1713
10277SOL     OW34328   0.532   2.829   1.229 -0.4317  0.4951  0.1976
10277SOL    HW134329   0.549   2.794   1.142  0.7723  2.3519 -0.3703
10277SOL    HW234330   0.505   2.919   1.214 -0.4975  0.7616  1.7396
10278SOL     OW34331   0.686  10.257   6.246  0.8098 -0.0411 -0.2496
10278SOL    HW134332   0.677  10.165   6.270  0.6412 -0.3554 -1.4739
10278SOL    HW234333   0.647  10.264   6.159  0.7565  1.2060 -0.1506
10279SOL     OW34334   5.713  10.138   9.069 -0.1380 -0.1083 -0.5853
10279SOL    HW134335   5.737  10.046   9.070  0.1846 -0.0254  0.1537
10279SOL    HW234336   5.745  10.171   8.985  0.7173 -0.4153 -0.3865
10280SOL     OW34337   4.411   7.331   6.032 -0.2923  0.3823 -0.0557
10280SOL    HW134338   4.420   7.262   5.966  1.6336  1.8113 -1.4109
10280SOL    HW234339   4.381   7.407   5.982 -2.2334  0.6508  1.3857
10281SOL     OW34340   1.113  10.799  10.252  0.7458 -0.3226 -0.0559
10281SOL    HW134341   1.111  10.892  10.270 -0.8782 -0.5916  1.4289
10281SOL    HW234342   1.156  10.760  10.329 -1.8656 -1.0571  1.1492
10282SOL     OW34343   6.719   9.425   0.309  0.3051 -0.6587  0.1629
10282SOL    HW134344   6.667   9.433   0.228 -1.5345  1.8816  1.4490
10282SOL    HW234345   6.780   9.498   0.306  0.6237 -0.8899  0.8097
10283SOL     OW34346   0.822   4.632   6.847  0.4764  0.0949  0.1946
10283SOL    HW134347   0.764   4.617   6.772 -0.2698 -0.6623  0.9001
10283SOL    HW234348   0.878   4.705   6.820 -0.5569  0.6075 -0.6639
10284SOL     OW34349   2.919   3.002   4.585 -0.2637 -0.0407 -0.3351
10284SOL    HW134350   2.866   2.963   4.654  0.4732  0.1788  0.3646
10284SOL    HW234351   2.975   2.930   4.555  1.6963  0.6146  1.5353
10285SOL     OW34352   3.353   4.589   0.209  0.1171 -1.3153 -0.1699
10285SOL    HW134353   3.349   4.672   0.162  2.4976 -0.8256  0.3591
10285SOL    HW234354   3.332   4.523   0.143 -1.4035 -0.3480 -0.6945
10286SOL     OW34355   1.350  10.189   3.453  0.0807  0.0400 -0.4058
10286SOL    HW134356   1.397  10.226   3.377 -0.0572 -0.6595 -0.8382
10286SOL    HW234357   1.407  10.208   3.527 -0.8668  2.8870 -0.2725
10287SOL     OW34358   9.260   0.761   4.595 -0.3388  0.3240  0.3683
10287SOL    HW134359   9.213   0.803   4.523  2.6961  0.6231 -1.6333
10287SOL    HW234360   9.259   0.826   4.666  0.7163  2.1780 -1.2018
10288SOL     OW34361   8.575   2.577   3.161 -0.6766 -0.1938  0.3319
10288SOL    HW134362   8.591   2.630   3.083  0.2902 -1.5643 -0.4499
10288SOL    HW234363   8.539   2.495   3.127  1.7696 -1.6844  1.0660
10289SOL     OW34364  10.017  10.943   4.010 -0.0255 -0.0880 -0.3281
10289SOL    HW134365   9.987  10.914   4.097 -2.1921 -1.1662 -1.3579
10289SOL    HW234366  10.108  10.917   4.006  0.0684 -0.2150  1.5335
10290SOL     OW34367   0.047   4.000   7.719 -0.3997 -0.1514 -0.4811
10290SOL    HW134368   0.007   4.077   7.679 -0.2188  0.8511  1.2052
10290SOL    HW234369   0.139   4.005   7.694 -0.3982  0.1580 -0.4171
10291SOL     OW34370  10.667   5.226   4.306 -0.0690  0.7456 -0.2903
10291SOL    HW134371  10.704   5.139   4.323 -1.5482  0.5427  2.4030
10291SOL    HW234372  10.573   5.210   4.294 -0.3378  1.9412  0.0944
10292SOL     OW34373   9.768   2.639   9.096  0.2525 -0.0723  0.2186
10292SOL    HW134374   9.692   2.595   9.134  0.7282 -0.9620  0.1688
10292SOL    HW234375   9.736   2.725   9.071 -0.9181 -0.6815 -0.4522
10293SOL     OW34376   5.845   3.552   7.681  0.2269 -0.1715 -0.3739
10293SOL    HW134377   5.763   3.565   7.728  0.1009  0.7472 -0.8111
10293SOL    HW234378   5.903   3.510   7.744 -0.4587 -0.4720  0.0633
10294SOL     OW34379   2.277   3.483   5.681  0.1375 -0.2170 -0.0839
10294SOL    HW134380   2.318   3.423   5.744  0.9439  2.4712  2.1776
10294SOL    HW234381   2.337   3.485   5.607  1.1009 -0.6954  0.6599
10295SOL     OW34382   2.938   0.162   2.086 -0.4760  0.2109  0.7197
10295SOL    HW134383   2.964   0.166   2.178 -1.6408 -1.0654  1.1357
10295SOL    HW234384   2.894   0.078   2.077 -0.1184  0.1700 -1.0985
10296SOL     OW34385   2.712   9.895   1.683  0.2297  0.6598 -0.3381
10296SOL    HW134386   2.761   9.977   1.675  1.2271  0.5808  3.4118
10296SOL    HW234387   2.777   9.827   1.667  0.0777  0.5796 -0.6168
10297SOL     OW34388   8.632   4.897   3.743  0.6007 -0.2754  0.0666
10297SOL    HW134389   8.546   4.933   3.720  0.1675 -0.3096  1.5151
10297SOL    HW234390   8.623   4.803   3.728  0.5419 -0.2239 -0.2348
10298SOL     OW34391   8.747   3.809   7.338  0.2097 -0.2775  0.3418
10298SOL    HW134392   8.743   3.902   7.314  0.0772 -0.0431  1.2376
10298SOL    HW234393   8.673   3.769   7.292  0.6335 -0.0730 -0.5584
10299SOL     OW34394   4.746   7.441   6.484  0.3272  0.2007  0.1683
10299SOL    HW134395   4.761   7.456   6.578 -0.8968  0.6477  0.3161
10299SOL    HW234396   4.685   7.367   6.481  0.7068 -0.0959 -0.2962
10300SOL     OW34397   8.874   4.513   1.371 -0.0609 -0.0802 -0.9439
10300SOL    HW134398   8.936   4.447   1.404 -2.4446 -3.6240 -2.9269
10300SOL    HW234399   8.832   4.548   1.450  2.2833  0.2311  0.2445
10301SOL     OW34400  10.137   3.487   2.746 -0.2436  0.4720 -0.4455
10301SOL    HW134401  10.231   3.498   2.730 -0.4147  1.6234 -0.7736
10301SOL    HW234402  10.100   3.466   2.660 -0.2513 -0.3583 -0.2498
10302SOL     OW34403   9.424   7.716   1.206  0.7434 -0.0723  0.3341
10302SOL    HW134404   9.398   7.807   1.191  0.2752 -0.2830 -0.1795
10302SOL    HW234405   9.509   7.722   1.249 -0.3219  0.6459  2.4689
10303SOL     OW34406   3.139   8.106   6.148  0.2610  0.1994  0.0618
10303SOL    HW134407   3.101   8.188   6.180  1.5419  0.2482  1.5612
10303SOL    HW234408   3.225   8.131   6.115 -0.2571 -0.1928 -1.7464
10304SOL     OW34409   9.361   2.490   1.386  0.1210  0.0620 -0.9056
10304SOL    HW134410   9.326   2.479   1.475  2.5355 -1.8638 -0.0809
10304SOL    HW234411   9.391   2.581   1.383  0.4668  0.0166  0.4575
10305SOL     OW34412   8.713   2.232   1.548  0.1020  0.0691 -0.1017
10305SOL    HW134413   8.677   2.301   1.604  0.7131 -1.8149  2.9100
10305SOL    HW234414   8.793   2.269   1.511  0.2753  1.1049  1.2284
10306SOL     OW34415   1.803   7.141   0.749  0.3380  0.2701 -0.6233
10306SOL    HW134416   1.828   7.080   0.819 -1.2408 -0.7879 -0.9234
10306SOL    HW234417   1.866   7.124   0.679  0.6412 -0.1756 -0.2508
10307SOL     OW34418   4.854   2.474   2.120 -0.6669  1.0225  0.2049
10307SOL    HW134419   4.766   2.512   2.123 -1.4310 -0.5352 -1.0583
10307SOL    HW234420   4.870   2.445   2.210 -2.3738 -0.5978  0.0398
10308SOL     OW34421   6.632   5.263   0.772  0.0426 -0.8690  0.2486
10308SOL    HW134422   6.710   5.210   0.782  1.1315  0.7190  0.6090
10308SOL    HW234423   6.659   5.335   0.714 -1.3711 -0.7188 -0.2558
10309SOL     OW34424   9.686   1.261   5.039  0.2828 -0.0080  0.0561
10309SOL    HW134425   9.773   1.280   5.072  1.0932 -0.5547 -1.6572
10309SOL    HW234426   9.653   1.345   5.006  1.4099 -0.3042 -1.9943
10310SOL     OW34427   7.635   1.566   5.553  0.3272  0.4981  0.5019
10310SOL    HW134428   7.605   1.497   5.494 -1.8017  1.0386  0.8563
10310SOL    HW234429   7.684   1.626   5.497  0.1497 -0.0832 -0.2966
10311SOL     OW34430   1.082   0.847  10.751 -0.5352  0.7486 -0.6299
10311SOL    HW134431   1.088   0.927  10.803 -2.0582  1.4557 -1.4706
10311SOL    HW234432   1.045   0.782  10.811 -0.4872  1.0287 -0.2944
10312SOL     OW34433  10.636   8.517   1.927  0.2478 -0.0990  0.4886
10312SOL    HW134434  10.662   8.441   1.874  1.1701  0.6851 -0.2077
10312SOL    HW234435  10.669   8.498   2.014  0.0539 -0.7092  0.4378
10313SOL     OW34436   0.873   4.690   3.910 -1.0719 -0.0930  0.9434
10313SOL    HW134437   0.824   4.770   3.890  0.4921  1.3185  2.5074
10313SOL    HW234438   0.806   4.628   3.939 -1.9635  2.1207  4.0799
10314SOL     OW34439   8.672   3.565  10.034 -0.2669 -0.0092 -0.0191
10314SOL    HW134440   8.738   3.496  10.028 -0.3465  0.0079 -1.3072
10314SOL    HW234441   8.691   3.609  10.117  2.5539  1.2338 -1.2290
10315SOL     OW34442   1.313   9.128   8.132 -0.3549  0.1065  0.0998
10315SOL    HW134443   1.298   9.155   8.223  1.8370  0.4602  0.4183
10315SOL    HW234444   1.292   9.206   8.081 -1.3999 -0.0284  0.2923
10316SOL     OW34445   3.315   7.569   6.210 -0.1873 -0.0616 -0.0823
10316SOL    HW134446   3.320   7.493   6.152 -2.1058  0.5633 -1.1405
10316SOL    HW234447   3.253   7.628   6.168  0.2368  1.5237  1.3865
10317SOL     OW34448   1.509   4.007   1.075  0.0502  0.6105  0.1226
10317SOL    HW134449   1.585   4.062   1.091  0.5767 -0.1355  0.2486
10317SOL    HW234450   1.516   3.936   1.139  0.2167 -0.4305 -1.0129
10318SOL     OW34451   8.344   0.352   9.627 -0.1089  0.1240 -0.2239
10318SOL    HW134452   8.281   0.284   9.602  0.8467 -0.6221 -0.6464
10318SOL    HW234453   8.337   0.357   9.722  1.0902 -1.8857  0.0302
10319SOL     OW34454   4.405   0.753   9.260  0.5654 -0.0890 -0.3666
10319SOL    HW134455   4.358   0.837   9.262 -0.4490 -0.6497  0.5235
10319SOL    HW234456   4.492   0.773   9.295 -0.2304  0.2939  1.5285
10320SOL     OW34457   9.655   5.502   4.340  0.1756  0.1479  0.0429
10320SOL    HW134458   9.614   5.462   4.416 -1.7201 -1.6952 -1.8256
10320SOL    HW234459   9.722   5.440   4.313  1.1428  1.0014  0.4299
10321SOL     OW34460   7.888   4.796   3.918 -0.7627 -0.6250 -0.4785
10321SOL    HW134461   7.865   4.809   3.826 -3.3408 -0.4561  0.1101
10321SOL    HW234462   7.811   4.754   3.956 -0.7558  1.4157  2.0805
10322SOL     OW34463  10.115   6.151   7.157  0.1972 -0.6888  0.5448
10322SOL    HW134464  10.146   6.210   7.225  0.2354  0.4821 -0.4655
10322SOL    HW234465  10.190   6.093   7.141  0.7162 -0.0062  0.4519
10323SOL     OW34466  10.110   5.237   2.835  0.2243 -0.1335  0.3730
10323SOL    HW134467  10.025   5.228   2.791 -0.1607  2.5922  0.4104
10323SOL    HW234468  10.155   5.305   2.785  1.4521  0.1145  1.7724
10324SOL     OW34469   9.753   8.694   9.653 -0.2830 -0.0928 -0.7624
10324SOL    HW134470   9.767   8.782   9.689 -2.7454  0.6475 -1.4018
10324SOL    HW234471   9.782   8.635   9.723  1.2033  1.1921 -0.2238
10325SOL     OW34472   7.926   7.075   9.447 -0.2380  0.1468 -0.6436
10325SOL    HW134473   7.919   7.148   9.508 -0.5015 -0.6192  0.2801
10325SOL    HW234474   8.017   7.076   9.417  0.0675  0.1769  0.2517
10326SOL     OW34475   2.434   9.966   1.765  0.0401 -0.3531  0.3785
10326SOL    HW134476   2.429  10.035   1.832 -0.5744  1.4111 -1.3811
10326SOL    HW234477   2.527   9.955   1.749  0.1939 -0.7638  1.4560
10327SOL     OW34478   1.219   9.573   9.576 -0.0603  0.2388  0.0857
10327SOL    HW134479   1.181   9.486   9.574 -1.0235  0.6500  0.1663
10327SOL    HW234480   1.145   9.632   9.560  0.7766  0.9780 -1.3041
10328SOL     OW34481   3.439   3.624   1.209  0.2353  0.2189  0.0026
10328SOL    HW134482   3.530   3.617   1.179  0.7473  0.3819  1.4408
10328SOL    HW234483   3.387   3.619   1.129  1.3968 -1.8061 -0.7116
10329SOL     OW34484   7.331   6.412   2.678  0.1536  0.0448 -0.4083
10329SOL    HW134485   7.342   6.507   2.673 -0.4539  0.0929 -1.1379
10329SOL    HW234486   7.239   6.398   2.655  0.1015 -0.6865  0.2050
10330SOL     OW34487   5.026   7.041   5.831  0.2696 -0.6007 -0.4430
10330SOL    HW134488   4.963   7.023   5.762 -0.0660 -2.8829  0.3661
10330SOL    HW234489   5.000   6.983   5.903  0.4962  1.7939  1.7033
10331SOL     OW34490   7.449   9.048   0.371 -0.6825 -0.1578 -0.0918
10331SOL    HW134491   7.355   9.032   0.359 -0.3138 -2.9944  0.1937
10331SOL    HW234492   7.492   8.975   0.327  1.4893  1.5678 -1.0315
10332SOL     OW34493   4.766   0.073   8.328  0.0287  0.2003 -0.2641
10332SOL    HW134494   4.836   0.105   8.270  0.9964  0.5220  1.0230
10332SOL    HW234495   4.690   0.127   8.306 -0.3846 -1.2944 -2.8945
10333SOL     OW34496   9.586   8.294   7.809  0.4511  0.5846  0.1035
10333SOL    HW134497   9.641   8.219   7.786  0.4114  1.1113 -1.8157
10333SOL    HW234498   9.580   8.345   7.729 -1.9049  1.1361  0.5674
10334SOL     OW34499   0.306   7.702   0.445  0.1058  0.2506 -0.7271
10334SOL    HW134500   0.331   7.626   0.392 -1.4232  0.7539 -2.2372
10334SOL    HW234501   0.355   7.775   0.408 -0.8452  0.5725 -1.4043
10335SOL     OW34502   2.506   4.038   1.215  0.3543 -0.0792  0.7683
10335SOL    HW134503   2.592   4.070   1.188 -0.8430  2.0037 -0.8301
10335SOL    HW234504   2.462   4.013   1.133  0.0094 -2.9086  1.6749
10336SOL     OW34505   9.126   3.321   8.370  0.1738 -0.0130  0.2006
10336SOL    HW134506   9.138   3.248   8.310  1.8130 -0.8931  1.5398
10336SOL    HW234507   9.033   3.344   8.362 -0.3369 -2.1251 -0.3731
10337SOL     OW34508   7.035   1.958   4.044 -1.2224 -0.1175 -0.4217
10337SOL    HW134509   6.970   2.027   4.057  1.6351  2.7462 -0.2518
10337SOL    HW234510   7.040   1.913   4.128  0.1038  2.5963  1.0670
10338SOL     OW34511   3.460  10.301   2.375 -0.3885  0.0228 -0.3399
10338SOL    HW134512   3.418  10.220   2.405  0.3191 -0.5041 -0.7383
10338SOL    HW234513   3.531  10.271   2.317  0.2996  0.9054  0.0283
10339SOL     OW34514   6.961   1.622   3.944 -0.7185  0.3999  0.6572
10339SOL    HW134515   6.901   1.550   3.922  0.2095 -0.2707  0.2880
10339SOL    HW234516   6.936   1.693   3.885 -0.5601 -0.1878 -0.1262
10340SOL     OW34517   7.118   7.563   0.587  0.1506 -0.7723  0.7188
10340SOL    HW134518   7.209   7.592   0.588  0.0130 -0.2502 -0.5144
10340SOL    HW234519   7.100   7.540   0.678  1.3482 -0.3746  1.0815
10341SOL     OW34520   8.978   8.329   4.358 -0.2245  0.0113 -0.2717
10341SOL    HW134521   9.028   8.396   4.312  0.0814  0.5717  0.8428
10341SOL    HW234522   9.041   8.260   4.377 -0.1395  0.1910  0.1038
10342SOL     OW34523   0.954   3.972   9.597  0.2849 -0.7300  0.1812
10342SOL    HW134524   0.913   4.052   9.565  0.0746 -1.3156 -1.0561
10342SOL    HW234525   0.981   3.925   9.518  2.5701 -0.7904  0.9088
10343SOL     OW34526  10.421   4.390   2.711 -0.3420  0.3101  0.0452
10343SOL    HW134527  10.388   4.394   2.801 -0.6634  0.5294 -0.0804
10343SOL    HW234528  10.516   4.378   2.721 -0.4381 -0.2055  0.4100
10344SOL     OW34529   4.784   9.616  10.300 -0.3381  0.2037 -0.0291
10344SOL    HW134530   4.877   9.624  10.283 -0.8570  2.4319 -2.5126
10344SOL    HW234531   4.777   9.600  10.394  2.5221 -0.5354  0.1251
10345SOL     OW34532   4.155   6.133   2.872  0.5515  0.7588 -0.2081
10345SOL    HW134533   4.121   6.104   2.956  0.7793 -0.7566 -0.6193
10345SOL    HW234534   4.250   6.135   2.883  0.7006 -0.9665 -0.8513
10346SOL     OW34535   3.428   0.847   2.918  0.3607 -0.0935 -0.3586
10346SOL    HW134536   3.468   0.925   2.881  0.1148  0.0390 -0.3495
10346SOL    HW234537   3.353   0.829   2.862  0.5216 -0.4325 -0.4710
10347SOL     OW34538   2.158   7.265   7.873 -0.4992  0.1147  0.3090
10347SOL    HW134539   2.143   7.179   7.834 -1.6521  0.0587  0.8404
10347SOL    HW234540   2.142   7.327   7.802  2.9623 -0.1165 -0.8724
10348SOL     OW34541   3.210   8.574   0.234  0.1265 -0.2630  0.1551
10348SOL    HW134542   3.136   8.568   0.174  0.0066  2.3066 -0.0827
10348SOL    HW234543   3.185   8.520   0.309 -0.7176 -1.6891 -1.1200
10349SOL     OW34544   2.842   3.779   7.019  0.1441  0.0476 -0.5902
10349SOL    HW134545   2.836   3.846   6.951  2.0053 -0.2665 -1.1289
10349SOL    HW234546   2.913   3.809   7.076  0.5120 -1.0801 -0.4324
10350SOL     OW34547   5.837   8.205   9.589  0.4550  0.4276  0.4907
10350SOL    HW134548   5.782   8.229   9.663  0.3471  1.4821  0.0841
10350SOL    HW234549   5.794   8.129   9.551  0.5116 -0.1236  1.4974
10351SOL     OW34550   4.804   0.779   7.021 -0.2205  0.4222 -0.1197
10351SOL    HW134551   4.880   0.811   6.973  1.4070 -2.6279  0.1657
10351SOL    HW234552   4.739   0.849   7.012  2.9473  3.7729  0.6648
10352SOL     OW34553   3.388   8.631   7.609 -0.0235 -0.2657  0.0151
10352SOL    HW134554   3.396   8.709   7.553  1.8061 -0.4778 -0.0715
10352SOL    HW234555   3.344   8.567   7.553  0.1810  0.1003 -0.5841
10353SOL     OW34556   2.217   6.470   6.572 -0.2699  0.0568  0.0457
10353SOL    HW134557   2.281   6.487   6.503 -0.0336  0.3731  0.3371
10353SOL    HW234558   2.132   6.478   6.528 -0.1148 -0.2613 -0.3198
10354SOL     OW34559   2.250   6.107  10.854  0.5883  0.0499 -0.1019
10354SOL    HW134560   2.163   6.111  10.895 -0.4019 -2.4094 -1.7177
10354SOL    HW234561   2.277   6.016  10.867  1.7006  0.0814 -1.9772
10355SOL     OW34562   3.525   1.077   2.854  0.4493 -0.7295  0.1328
10355SOL    HW134563   3.511   1.171   2.842  1.4594 -0.6069 -0.2192
10355SOL    HW234564   3.597   1.071   2.916  1.0614 -1.2417 -0.6006
10356SOL     OW34565   6.510   3.352   5.886  0.0487 -0.0690 -0.2557
10356SOL    HW134566   6.574   3.384   5.950 -1.1614  2.1730 -0.0568
10356SOL    HW234567   6.475   3.272   5.926 -0.2900  0.9766  1.7030
10357SOL     OW34568   5.113   7.195   0.993  0.2146 -0.3657  0.2691
10357SOL    HW134569   5.099   7.170   1.085  0.1175 -2.5932 -0.3030
10357SOL    HW234570   5.206   7.177   0.978  0.2011 -0.1196 -0.1075
10358SOL     OW34571  10.391   6.744   3.380 -0.2808 -0.1357 -0.5232
10358SOL    HW134572  10.388   6.685   3.456  1.1126 -0.3596 -0.6248
10358SOL    HW234573  10.396   6.686   3.304 -1.2557  0.0974 -0.7830
10359SOL     OW34574   7.295   7.784   1.144  0.5224  0.1563  0.2084
10359SOL    HW134575   7.304   7.879   1.134 -2.4557  0.9843  3.5477
10359SOL    HW234576   7.207   7.765   1.111  0.8027 -1.3526  0.2728
10360SOL     OW34577   9.276   6.720   4.518 -0.2829 -0.0181  0.4617
10360SOL    HW134578   9.204   6.659   4.507  0.7923 -1.2868  0.2147
10360SOL    HW234579   9.304   6.708   4.609 -0.7636  0.9381  0.7556
10361SOL     OW34580   1.221   6.465   1.735  0.4899 -0.5708 -0.6179
10361SOL    HW134581   1.243   6.406   1.807  0.5919 -1.0786 -1.0564
10361SOL    HW234582   1.292   6.451   1.671  1.1734  0.9093 -0.2144
10362SOL     OW34583   6.008   0.913  10.164  0.1640 -0.3163 -0.4281
10362SOL    HW134584   5.919   0.947  10.169  0.3745  0.1668  0.1191
10362SOL    HW234585   6.003   0.842  10.100 -0.2253  0.9344 -1.8370
10363SOL     OW34586   4.840   6.178   9.439  0.0055 -0.2633 -0.2833
10363SOL    HW134587   4.892   6.112   9.485 -0.5519 -1.8891 -1.8816
10363SOL    HW234588   4.778   6.210   9.505  1.8333  0.4644  1.1737
10364SOL     OW34589   6.733   5.378   2.720 -1.1157 -0.6799  0.4810
10364SOL    HW134590   6.668   5.308   2.718 -1.3997 -0.4089 -0.7997
10364SOL    HW234591   6.782   5.368   2.638 -0.4773 -0.0023  0.7628
10365SOL     OW34592   3.537   7.111   0.725  0.3307 -0.1480 -0.2732
10365SOL    HW134593   3.572   7.058   0.796 -0.2021  0.6908  0.6343
10365SOL    HW234594   3.595   7.093   0.651  0.0955 -2.0710 -0.0391
10366SOL     OW34595   8.727   8.379   2.460  0.2199  0.4707  0.1787
10366SOL    HW134596   8.800   8.361   2.400  0.5585  2.1216  0.0368
10366SOL    HW234597   8.657   8.410   2.404 -0.2260 -0.0624  0.4324
10367SOL     OW34598   7.862   7.110  10.709  0.0836  0.7359  0.0034
10367SOL    HW134599   7.819   7.191  10.681 -1.3383  0.9699  2.5623
10367SOL    HW234600   7.906   7.078  10.631 -1.0861  2.8584 -1.6279
10368SOL     OW34601   4.337   0.262   4.736  0.2190  0.7474 -0.0718
10368SOL    HW134602   4.302   0.174   4.743  0.7598  0.4398 -1.0664
10368SOL    HW234603   4.430   0.253   4.758  0.9323  0.5340 -2.8332
10369SOL     OW34604   4.304   5.823   8.467  0.1403 -0.1014  0.1376
10369SOL    HW134605   4.344   5.768   8.535  0.9273 -0.6931 -0.7893
10369SOL    HW234606   4.211   5.822   8.488  0.2127 -1.3139  0.4873
10370SOL     OW34607   6.472   7.116   2.286 -0.7362 -0.2347  0.4435
10370SOL    HW134608   6.385   7.083   2.312 -1.1970 -0.7460 -1.6261
10370SOL    HW234609   6.471   7.115   2.191  1.5793 -0.2745  0.3672
10371SOL     OW34610   3.218   2.285   4.505  0.1051 -0.5649  0.3903
10371SOL    HW134611   3.222   2.208   4.449 -2.7629  0.7329 -1.8658
10371SOL    HW234612   3.275   2.349   4.464 -0.8617 -0.1062 -0.2866
10372SOL     OW34613   3.905   5.337   4.492  0.1355  0.1007 -0.4654
10372SOL    HW134614   3.859   5.390   4.426  1.8146  1.3176 -0.7375
10372SOL    HW234615   3.933   5.401   4.558 -2.3955 -1.2104  2.0830
10373SOL     OW34616   2.070   4.167   1.131 -0.1770 -0.0230  0.0451
10373SOL    HW134617   2.094   4.088   1.083 -1.3403  0.4542 -1.3824
10373SOL    HW234618   2.148   4.222   1.129  0.6250 -1.0764  1.0062
10374SOL     OW34619   8.443   2.690   8.665 -0.3199  0.0167 -0.1510
10374SOL    HW134620   8.417   2.606   8.626  0.0509  0.0973 -0.5741
10374SOL    HW234621   8.460   2.747   8.590  0.4162  0.1667  0.1246
10375SOL     OW34622   3.745   7.846   4.011 -0.2761 -0.3258 -0.1958
10375SOL    HW134623   3.782   7.758   4.011  1.1093  0.2163 -1.3529
10375SOL    HW234624   3.724   7.863   4.103  0.7420 -1.3447  0.2548
10376SOL     OW34625   4.345   5.770   3.076  0.1388  0.1760  0.2273
10376SOL    HW134626   4.429   5.746   3.116  0.6099 -1.1452 -1.4485
10376SOL    HW234627   4.286   5.699   3.101  0.1230 -0.0450 -0.4332
10377SOL     OW34628   8.517   7.222   8.044 -0.0667  0.3076 -0.0535
10377SOL    HW134629   8.591   7.276   8.073 -0.0982 -0.5668  1.7766
10377SOL    HW234630   8.504   7.247   7.952  1.6732  1.3950 -0.0529
10378SOL     OW34631   5.275   1.009   2.618 -0.0171 -0.0648  0.4266
10378SOL    HW134632   5.318   0.996   2.533  0.6090  0.7420  0.6024
10378SOL    HW234633   5.206   1.072   2.600 -1.1967 -1.3888  0.1375
10379SOL     OW34634   1.682   5.157   2.689 -0.4068  0.0574 -0.3745
10379SOL    HW134635   1.729   5.189   2.765 -1.5523  0.5612  0.1410
10379SOL    HW234636   1.603   5.115   2.724 -0.0094 -1.4273 -1.1688
10380SOL     OW34637   6.808   3.952   2.124  0.2921 -0.2404 -0.0113
10380SOL    HW134638   6.727   3.908   2.096 -1.7991  2.2399  1.6537
10380SOL    HW234639   6.844   3.989   2.044 -0.3546 -1.1769 -0.7599
10381SOL     OW34640  10.292   5.278   8.106 -0.4971 -0.0987 -0.3820
10381SOL    HW134641  10.263   5.205   8.160 -0.8940 -0.4540 -1.0554
10381SOL    HW234642  10.387   5.271   8.106 -0.5253 -0.5369 -0.3279
10382SOL     OW34643   4.815   8.995   6.705  0.5022 -0.7257 -0.2894
10382SOL    HW134644   4.730   8.977   6.744  0.2672  0.6800 -0.0724
10382SOL    HW234645   4.802   9.079   6.660  1.0800 -1.6999 -2.4115
10383SOL     OW34646   9.557   5.941   2.872 -0.8843 -0.3735 -0.5397
10383SOL    HW134647   9.592   5.923   2.784 -0.7749 -1.0704 -0.3614
10383SOL    HW234648   9.618   5.896   2.931 -0.7637  0.3768 -0.0830
10384SOL     OW34649   0.273   8.302  10.993  0.2042  0.6373  0.1449
10384SOL    HW134650   0.251   8.319  10.901 -0.8269 -0.3490  0.1936
10384SOL    HW234651   0.369   8.306  10.996  0.2349  1.0045 -0.9023
10385SOL     OW34652   7.706   3.532   9.846  0.1706 -0.5018  0.0034
10385SOL    HW134653   7.709   3.578   9.763 -2.0741  2.0171  1.1659
10385SOL    HW234654   7.721   3.440   9.824 -0.9494 -0.0100 -3.2312
10386SOL     OW34655   4.346   6.690   9.973 -0.5040 -0.0707 -0.0592
10386SOL    HW134656   4.365   6.629   9.902  1.2284 -0.6230  0.8427
10386SOL    HW234657   4.362   6.777   9.935 -0.5255 -0.3046 -0.6102
10387SOL     OW34658   9.478   7.863   7.682 -0.0417  0.8160 -0.1188
10387SOL    HW134659   9.457   7.877   7.590 -0.3990  0.9922 -0.0110
10387SOL    HW234660   9.396   7.833   7.721 -0.3863  2.4632  0.5014
10388SOL     OW34661  10.418   6.909   0.358  0.5603  0.3736  0.0579
10388SOL    HW134662  10.383   6.981   0.412  3.3029  1.1246  0.9808
10388SOL    HW234663  10.413   6.832   0.415  0.7880  0.5626  0.3371
10389SOL     OW34664   0.576   5.407   2.378  0.2287  0.0262 -0.3317
10389SOL    HW134665   0.626   5.342   2.428 -0.3160 -0.4360 -0.3746
10389SOL    HW234666   0.484   5.386   2.397  0.0482  1.9599  1.1506
10390SOL     OW34667   8.515   6.226  10.560  0.0924  0.2320  0.3202
10390SOL    HW134668   8.542   6.234  10.652 -1.4941 -0.0927  0.8425
10390SOL    HW234669   8.419   6.233  10.563 -0.0097 -0.2307 -1.2700
10391SOL     OW34670   4.668   6.638   0.580  0.0736  1.1653  0.2935
10391SOL    HW134671   4.691   6.637   0.673  1.4211  0.6382 -0.0074
10391SOL    HW234672   4.745   6.675   0.537 -1.1300  2.8413 -0.4995
10392SOL     OW34673   6.689   7.141   4.596  0.4134 -0.0996  0.3443
10392SOL    HW134674   6.634   7.142   4.518  1.0115 -0.5747 -0.0846
10392SOL    HW234675   6.659   7.064   4.645  2.6305 -2.1501 -1.3149
10393SOL     OW34676   9.256  10.787   8.022 -0.0524  0.3386  0.2321
10393SOL    HW134677   9.264  10.691   8.023  0.4510  0.3203 -1.8468
10393SOL    HW234678   9.169  10.804   8.057 -1.2450 -1.0706 -1.8435
10394SOL     OW34679   5.787   6.758   4.121 -0.5374  0.2525  0.3913
10394SOL    HW134680   5.709   6.746   4.174  0.6783 -0.6660  2.0695
10394SOL    HW234681   5.822   6.670   4.109 -0.3825  0.5282 -1.3437
10395SOL     OW34682   3.438  10.393   8.995 -0.0292 -0.5603 -0.2801
10395SOL    HW134683   3.407  10.385   8.904  0.6883 -1.4922 -0.4462
10395SOL    HW234684   3.483  10.311   9.013 -1.2884 -0.9277  1.3759
10396SOL     OW34685   4.147   5.108   5.523 -0.3707  0.0988 -0.1363
10396SOL    HW134686   4.106   5.045   5.581  0.2253 -1.3032 -1.1582
10396SOL    HW234687   4.078   5.135   5.463 -0.0507 -1.8267 -1.4970
10397SOL     OW34688   7.990   6.050   5.419 -0.1484 -0.1592  0.0213
10397SOL    HW134689   7.956   6.082   5.502  0.1044 -1.5870  0.7107
10397SOL    HW234690   7.912   6.042   5.363 -0.2411  1.3947 -0.1276
10398SOL     OW34691   9.785   4.369   4.279 -0.2672 -0.0846  0.1729
10398SOL    HW134692   9.771   4.286   4.324 -1.7588  1.0863  2.0251
10398SOL    HW234693   9.756   4.354   4.190 -0.6606 -1.5049  0.5238
10399SOL     OW34694   1.554   7.488   9.600  0.1449  0.7502  0.2489
10399SOL    HW134695   1.547   7.561   9.538  1.9891  0.8969  0.1472
10399SOL    HW234696   1.478   7.498   9.657 -0.2529  2.0984 -0.4598
10400SOL     OW34697   9.686  10.833   8.206 -0.3923  0.1033 -0.5440
10400SOL    HW134698   9.725  10.905   8.156  1.4825  0.0220  0.7060
10400SOL    HW234699   9.628  10.876   8.269  0.8629  0.5729  0.3237
10401SOL     OW34700   4.976   6.532   3.485  0.2386  0.1688  0.0238
10401SOL    HW134701   5.053   6.560   3.436  0.9465 -1.1770  0.3246
10401SOL    HW234702   5.011   6.482   3.559 -0.9323 -1.1756 -0.2806
10402SOL     OW34703   8.160   8.272   8.383 -0.2760 -0.7262 -0.6667
10402SOL    HW134704   8.244   8.316   8.368 -0.2294 -0.0710  1.2072
10402SOL    HW234705   8.095   8.342   8.375 -0.4186 -0.7692 -0.0128
10403SOL     OW34706   4.427   8.824   2.399 -0.1345  0.2160  0.1331
10403SOL    HW134707   4.348   8.878   2.408  0.1327  0.7403 -0.5906
10403SOL    HW234708   4.452   8.833   2.307 -1.5563 -3.2412 -0.7426
10404SOL     OW34709   8.302   7.489   7.386  0.5478  0.1151 -0.1132
10404SOL    HW134710   8.284   7.434   7.309  0.7681  0.6059 -0.5246
10404SOL    HW234711   8.216   7.499   7.428  0.4618 -0.3334 -0.1749
10405SOL     OW34712   8.586   6.616   2.967  0.4920  0.7285  0.0159
10405SOL    HW134713   8.644   6.541   2.957 -0.8890 -0.7563  2.3119
10405SOL    HW234714   8.643   6.686   2.997  1.9238  0.9303 -2.8052
10406SOL     OW34715   5.925   3.926   3.973  0.0243 -0.3811 -0.5733
10406SOL    HW134716   5.831   3.916   3.956 -0.0087 -0.7666 -0.1701
10406SOL    HW234717   5.930   3.958   4.063  0.3338 -2.1755  0.0928
10407SOL     OW34718   8.740  10.565   5.321  0.0863  0.7112  0.0192
10407SOL    HW134719   8.816  10.565   5.379 -1.0997  1.6111  1.6515
10407SOL    HW234720   8.751  10.487   5.266  1.5367  0.1448  1.0737
10408SOL     OW34721   1.222   2.523   2.650  0.1593  0.1361 -0.1192
10408SOL    HW134722   1.217   2.609   2.608 -0.8183 -0.4710 -1.2900
10408SOL    HW234723   1.130   2.500   2.668  0.1105 -1.9422 -2.5465
10409SOL     OW34724   2.993   8.424   1.131  0.1629  0.8293 -0.3509
10409SOL    HW134725   2.921   8.473   1.092 -0.8960  0.7090  1.3406
10409SOL    HW234726   2.971   8.419   1.224  0.7532 -1.9085 -0.2714
10410SOL     OW34727   0.946   6.837   7.013 -0.4735 -0.0036  0.2248
10410SOL    HW134728   1.013   6.786   7.057  0.0576  1.1835  0.8395
10410SOL    HW234729   0.972   6.835   6.920 -0.5714 -0.9729  0.2056
10411SOL     OW34730  10.779   3.375   3.358 -0.1773  0.3476 -0.1264
10411SOL    HW134731  10.728   3.451   3.388 -0.5328  0.4384 -0.9152
10411SOL    HW234732  10.768   3.376   3.263 -2.1837 -2.0727 -0.0053
10412SOL     OW34733   1.953   1.228   4.402 -0.2155  0.2142  0.2325
10412SOL    HW134734   1.895   1.274   4.341 -1.7959 -0.9985  0.7503
10412SOL    HW234735   1.899   1.157   4.437  1.1197 -0.0271  1.9125
10413SOL     OW34736   4.166   8.160   7.172  0.4054 -0.6383 -0.4931
10413SOL    HW134737   4.149   8.170   7.079  1.8609  0.8887 -0.6353
10413SOL    HW234738   4.252   8.119   7.177  1.0793  0.7817  0.1488
10414SOL     OW34739   2.623   2.856   8.978 -0.4703  0.1246  0.2834
10414SOL    HW134740   2.656   2.946   8.985  0.9888 -0.3147 -0.6196
10414SOL    HW234741   2.541   2.865   8.930 -0.1069  0.9380 -0.2153
10415SOL     OW34742   4.674   2.459  10.475 -0.2817  0.3293 -0.0897
10415SOL    HW134743   4.654   2.413  10.394 -2.0385  1.1644 -0.1577
10415SOL    HW234744   4.644   2.400  10.544  0.3673  0.0307 -0.0450
10416SOL     OW34745   8.606   9.758   9.265 -0.7422 -0.1225 -0.2481
10416SOL    HW134746   8.582   9.811   9.189  0.4303 -1.2239 -1.4578
10416SOL    HW234747   8.567   9.672   9.248 -0.5096 -0.3654  0.4123
10417SOL     OW34748   3.482   2.844   0.773  0.3060 -0.2965  0.3371
10417SOL    HW134749   3.551   2.808   0.718 -0.6469 -1.4476 -0.1671
10417SOL    HW234750   3.455   2.925   0.728  0.7044 -0.3259  0.0456
10418SOL     OW34751   3.811   7.347   6.457  0.0911 -0.6143  0.1834
10418SOL    HW134752   3.724   7.351   6.496  0.5237  1.7623  1.0772
10418SOL    HW234753   3.818   7.427   6.405  1.2160 -1.5094 -1.1166
10419SOL     OW34754   1.830   3.646   2.141  0.4065 -0.0191 -0.2779
10419SOL    HW134755   1.780   3.609   2.069 -1.3619  0.6570  0.5428
10419SOL    HW234756   1.766   3.698   2.191  1.3320 -1.1747  2.2889
10420SOL     OW34757   0.242   7.509   7.033 -0.3347  0.1967  0.1308
10420SOL    HW134758   0.180   7.498   6.961 -0.8063 -0.5228  0.6340
10420SOL    HW234759   0.300   7.432   7.026  1.3771  1.5054 -1.1409
10421SOL     OW34760   1.385   8.631   7.249 -0.3412  0.0934  0.2819
10421SOL    HW134761   1.407   8.538   7.241  0.5177  0.3605 -0.8328
10421SOL    HW234762   1.385   8.648   7.343 -1.5771 -1.2544  0.5776
10422SOL     OW34763   4.927   2.719   1.960 -0.1428  0.2532  0.9334
10422SOL    HW134764   4.862   2.727   1.889  0.4788 -0.1550  0.3068
10422SOL    HW234765   4.906   2.635   2.001  0.1730 -0.0255  0.5340
10423SOL     OW34766   8.318   7.919  10.273  0.3447 -0.4192 -0.0351
10423SOL    HW134767   8.225   7.909  10.290  0.2812  0.1786 -0.0238
10423SOL    HW234768   8.356   7.835  10.297  0.1006 -0.0126  1.9024
10424SOL     OW34769   0.322   9.361   1.443  0.6248 -0.2889  0.5947
10424SOL    HW134770   0.243   9.360   1.498 -0.1402  0.2359 -0.4645
10424SOL    HW234771   0.289   9.349   1.354  1.8862 -1.6611  0.2703
10425SOL     OW34772   5.077   9.440   2.546  0.1908  0.1651  0.0804
10425SOL    HW134773   5.077   9.349   2.577  3.2806 -0.6817 -1.9910
10425SOL    HW234774   5.118   9.489   2.618  2.5728 -0.9083 -0.4430
10426SOL     OW34775   9.536   6.550  10.121  0.3309 -0.1703  0.0029
10426SOL    HW134776   9.541   6.643  10.143  0.8377 -0.5238  1.4797
10426SOL    HW234777   9.515   6.548  10.028 -0.0567  1.4197  0.0441
10427SOL     OW34778   8.665   7.991   6.979  0.1181 -0.0124 -0.3969
10427SOL    HW134779   8.571   7.973   6.988  0.1551 -0.8069 -1.3777
10427SOL    HW234780   8.671   8.086   6.978 -0.9457  0.0984 -2.3989
10428SOL     OW34781  10.904   1.689   3.635 -0.2123  0.0448  0.2931
10428SOL    HW134782  10.905   1.682   3.539  0.4742 -1.1452  0.3786
10428SOL    HW234783  10.842   1.622   3.663 -0.2267  0.2281  0.6969
10429SOL     OW34784   6.244  11.005   8.544  0.1702  0.1894 -0.2989
10429SOL    HW134785   6.320  10.946   8.545  0.7333  0.8886  1.2444
10429SOL    HW234786   6.170  10.949   8.520  1.1348 -0.5170 -1.8222
10430SOL     OW34787   4.412   1.707   9.976 -0.1721 -0.6569 -0.1834
10430SOL    HW134788   4.426   1.762   9.899  0.6983 -1.3973 -0.5668
10430SOL    HW234789   4.318   1.713   9.994 -0.1112  0.8446 -0.2898
10431SOL     OW34790   5.291  10.613   2.200 -0.4274 -0.0011 -0.1617
10431SOL    HW134791   5.315  10.524   2.224  1.4494  0.6550  0.5215
10431SOL    HW234792   5.199  10.620   2.225 -0.8423 -1.9477 -0.9008
10432SOL     OW34793   0.212   7.355   6.581 -0.0592  0.5816  0.8876
10432SOL    HW134794   0.137   7.295   6.582  0.5193 -0.1691 -0.0674
10432SOL    HW234795   0.277   7.314   6.637 -0.6692  1.6962  2.4978
10433SOL     OW34796   9.244  10.764   3.012  0.4552  0.5214  0.5744
10433SOL    HW134797   9.161  10.739   2.973 -0.9475  3.1740  1.6103
10433SOL    HW234798   9.225  10.774   3.105  2.1768  0.3403  0.9806
10434SOL     OW34799   4.042   3.999   3.438  0.6044  0.4830  0.1952
10434SOL    HW134800   3.963   3.978   3.487  0.9136  0.4148  0.6680
10434SOL    HW234801   4.011   4.045   3.360  0.0759  0.1544  0.2091
10435SOL     OW34802   6.762   9.374   4.112  0.0504 -0.7267 -0.6475
10435SOL    HW134803   6.700   9.438   4.147 -1.2354 -1.0313 -2.2597
10435SOL    HW234804   6.716   9.290   4.116  0.5841 -1.0649 -1.3394
10436SOL     OW34805   0.342   6.717  10.176  0.2647  0.2431 -0.0772
10436SOL    HW134806   0.434   6.691  10.171  0.0159 -1.0829  1.3885
10436SOL    HW234807   0.334   6.789  10.114  2.8957  2.1673  1.6240
10437SOL     OW34808   8.160   9.768   0.596  0.0046  0.2946  0.2476
10437SOL    HW134809   8.175   9.709   0.670  0.9093 -1.0670 -0.9378
10437SOL    HW234810   8.239   9.758   0.542 -1.2928 -0.0169 -1.6948
10438SOL     OW34811   6.927   0.953   7.753 -0.5039  0.4676  0.0646
10438SOL    HW134812   6.875   0.890   7.703 -0.1935 -1.2227  1.7541
10438SOL    HW234813   6.896   1.038   7.723 -0.1071 -0.3841 -3.2005
10439SOL     OW34814   2.986   3.829   6.543 -0.4732 -0.3358  0.2881
10439SOL    HW134815   2.938   3.833   6.626  1.7485 -2.4521  1.8201
10439SOL    HW234816   3.043   3.906   6.544 -2.4995  1.2881 -0.7836
10440SOL     OW34817   8.530   5.000   2.917  0.6331  0.2533  0.4716
10440SOL    HW134818   8.484   5.020   2.999  1.0502  1.1271  0.5054
10440SOL    HW234819   8.474   5.037   2.849  0.0191 -0.9414  0.3048
10441SOL     OW34820   1.456   7.804   3.748 -0.0334  0.6205  0.1634
10441SOL    HW134821   1.381   7.746   3.756  0.3816  0.1867  1.0160
10441SOL    HW234822   1.430   7.884   3.795 -0.8818  1.4402 -1.6230
10442SOL     OW34823   5.454   3.902   9.343  0.4049  0.1419  0.1813
10442SOL    HW134824   5.389   3.964   9.310 -4.0013 -2.6910  2.5760
10442SOL    HW234825   5.497   3.869   9.264  0.1820  3.2455 -1.4165
10443SOL     OW34826   6.306  10.828   1.879  0.0402 -0.4225 -0.5293
10443SOL    HW134827   6.280  10.737   1.891  0.1257 -0.2763  0.9053
10443SOL    HW234828   6.389  10.823   1.831 -0.3468 -1.0476 -1.1617
10444SOL     OW34829   6.539   8.039   9.899  0.2049 -0.0504  0.6747
10444SOL    HW134830   6.630   8.042   9.869  0.5360 -1.7038  1.3968
10444SOL    HW234831   6.526   8.123   9.944  0.3473  1.5705 -2.1282
10445SOL     OW34832   4.355   7.772   3.820  0.1598  0.2736  0.0863
10445SOL    HW134833   4.376   7.782   3.913 -0.1774  0.0113  0.1920
10445SOL    HW234834   4.290   7.701   3.817 -0.1133  0.5332 -0.3082
10446SOL     OW34835   8.214   3.235   2.510  0.5480 -0.0812 -0.0514
10446SOL    HW134836   8.182   3.211   2.597  2.8772  0.4793  1.0419
10446SOL    HW234837   8.174   3.172   2.451 -2.1131  0.3027  1.2142
10447SOL     OW34838  10.197   2.554   5.694 -0.4438  0.7016  0.3494
10447SOL    HW134839  10.264   2.584   5.756  1.1114 -0.5863 -0.6206
10447SOL    HW234840  10.170   2.634   5.648  0.1125  1.3086  1.0419
10448SOL     OW34841  10.258   4.497   9.201 -0.2433 -0.1855  0.5428
10448SOL    HW134842  10.330   4.448   9.240  1.5043  0.1811 -1.9983
10448SOL    HW234843  10.187   4.490   9.266  0.8251 -3.6001  1.5927
10449SOL     OW34844   4.466   1.558   3.943  0.2338  0.0750  0.1815
10449SOL    HW134845   4.462   1.506   3.863  0.7502 -2.7926  1.8866
10449SOL    HW234846   4.557   1.552   3.972 -0.7655 -3.3821  3.5192
10450SOL     OW34847  10.603   7.931   5.505 -0.8789 -0.4059 -0.4983
10450SOL    HW134848  10.509   7.949   5.495 -0.8598 -0.9232 -1.9966
10450SOL    HW234849  10.609   7.835   5.501 -0.3555 -0.4123  0.3616
10451SOL     OW34850   1.715   2.859   4.193  0.5384 -0.1557  0.3086
10451SOL    HW134851   1.773   2.917   4.144  0.7310 -0.3333  0.3204
10451SOL    HW234852   1.649   2.832   4.130  1.0190 -0.7073  0.0259
10452SOL     OW34853   9.185   3.047  10.377  0.4089 -0.3104  0.2612
10452SOL    HW134854   9.140   3.107  10.318  0.3365 -0.0257  0.6062
10452SOL    HW234855   9.141   3.058  10.461  0.9751 -0.1963  0.5457
10453SOL     OW34856  10.905   8.848   0.525 -0.3494 -1.0252 -0.9054
10453SOL    HW134857  10.865   8.788   0.462 -0.4069  0.2133 -2.1042
10453SOL    HW234858  10.987   8.805   0.550 -1.4230 -2.6367  0.0382
10454SOL     OW34859   0.883   2.462   9.727  0.6310 -0.6497  0.3017
10454SOL    HW134860   0.815   2.515   9.769 -0.3547  0.3491 -2.3267
10454SOL    HW234861   0.957   2.521   9.718  0.2424 -0.3015 -0.8044
10455SOL     OW34862   1.132   4.050   9.333 -0.0465  0.2507  0.3222
10455SOL    HW134863   1.090   3.980   9.283  1.6165  0.2149 -1.1223
10455SOL    HW234864   1.091   4.131   9.301 -0.8739  0.0607  0.8715
10456SOL     OW34865   0.314   2.225   4.238 -0.0496  0.1659 -0.4272
10456SOL    HW134866   0.272   2.142   4.259  1.7820 -0.3321  1.7562
10456SOL    HW234867   0.243   2.282   4.211 -1.4393 -1.9086 -1.4433
10457SOL     OW34868   2.407   6.471   6.389  0.6109  0.4183 -0.5099
10457SOL    HW134869   2.490   6.499   6.350  0.7251 -0.0905 -0.6453
10457SOL    HW234870   2.392   6.384   6.352 -0.2463  0.7121 -0.8958
10458SOL     OW34871   1.310   5.053   2.033  0.1782  0.1468  0.0545
10458SOL    HW134872   1.254   5.063   2.111 -1.5595  2.2723 -1.3398
10458SOL    HW234873   1.387   5.107   2.052  0.1893 -0.0631  0.6411
10459SOL     OW34874   8.684   5.734   0.873  0.0422 -1.1007 -0.0440
10459SOL    HW134875   8.717   5.647   0.854  1.1580 -0.5839 -0.5766
10459SOL    HW234876   8.688   5.780   0.789  0.3453 -0.2682  0.4108
10460SOL     OW34877   3.789   5.057   2.383  0.1212 -0.1918  0.1586
10460SOL    HW134878   3.719   5.120   2.370  0.3251  0.0417  0.1954
10460SOL    HW234879   3.816   5.033   2.294  0.6095  0.4014  0.1399
10461SOL     OW34880   1.561   3.431   1.007 -0.4047 -0.7972 -0.2118
10461SOL    HW134881   1.505   3.373   0.956 -1.8785  0.2424  0.1572
10461SOL    HW234882   1.512   3.448   1.088  1.6949 -2.1064  1.4753
10462SOL     OW34883   7.576   0.063   7.121  0.2293 -0.0737  0.5737
10462SOL    HW134884   7.642   0.033   7.058  0.8939  0.8829  0.7860
10462SOL    HW234885   7.581  -0.000   7.193 -1.0018 -1.5567 -0.5896
10463SOL     OW34886   2.658   3.483   0.633 -0.4560 -0.1948 -0.4830
10463SOL    HW134887   2.605   3.493   0.712  1.0276 -0.4048  0.5831
10463SOL    HW234888   2.664   3.389   0.619  0.4715 -0.2287  0.0293
10464SOL     OW34889   4.466   0.478   3.419 -0.2639 -0.4685  0.0509
10464SOL    HW134890   4.383   0.522   3.435 -1.0898 -1.6718 -0.7783
10464SOL    HW234891   4.460   0.445   3.330  1.8872  1.0316 -0.7434
10465SOL     OW34892   4.092   6.887   9.643 -0.5427 -0.0057 -0.3202
10465SOL    HW134893   4.011   6.859   9.686 -0.1909 -1.6415 -0.6853
10465SOL    HW234894   4.073   6.977   9.614 -1.6848  0.1865  0.9163
10466SOL     OW34895   9.221   8.535   6.182 -0.2985 -0.4180  0.0336
10466SOL    HW134896   9.260   8.511   6.097  0.7116 -1.1490  0.6773
10466SOL    HW234897   9.246   8.464   6.241  1.1371  1.2522  1.5594
10467SOL     OW34898   3.903   9.028  10.284 -0.0290  0.1896 -0.4685
10467SOL    HW134899   3.845   8.977  10.227  0.4659  2.4586 -3.2356
10467SOL    HW234900   3.900   9.116  10.248  4.3776  0.6521 -0.2075
10468SOL     OW34901  10.832   3.335   5.796 -0.1020  0.3878  1.1020
10468SOL    HW134902  10.758   3.274   5.795  0.4817 -0.3596  2.0205
10468SOL    HW234903  10.861   3.336   5.887  2.1944 -0.7711  0.4669
10469SOL     OW34904   6.302   8.536   3.761  0.0580 -0.1738  0.1933
10469SOL    HW134905   6.270   8.473   3.697 -0.5378  2.0299 -1.8420
10469SOL    HW234906   6.394   8.514   3.773 -0.2175 -1.6095 -0.1976
10470SOL     OW34907  10.273   5.856  10.128  0.1266  0.0080  0.0772
10470SOL    HW134908  10.184   5.849  10.163 -0.0855 -0.9487 -0.6191
10470SOL    HW234909  10.305   5.766  10.126  1.5235  0.4314  1.3073
10471SOL     OW34910   6.116   2.559   1.531 -0.3739 -0.7407 -0.0129
10471SOL    HW134911   6.119   2.621   1.458  0.3456 -1.4322 -0.5913
10471SOL    HW234912   6.168   2.600   1.600 -0.1410 -0.5704 -0.2879
10472SOL     OW34913   0.840   6.205   0.144 -0.2949  0.7310 -1.0525
10472SOL    HW134914   0.929   6.209   0.181 -0.2957  0.0728 -0.9600
10472SOL    HW234915   0.840   6.270   0.074  0.1039  1.0943 -0.7219
10473SOL     OW34916   7.455   9.678   7.035  0.0485  0.0617  0.2012
10473SOL    HW134917   7.394   9.752   7.028  0.5903  0.5462  0.5479
10473SOL    HW234918   7.400   9.606   7.066 -0.2665  0.6168  0.9711
10474SOL     OW34919   6.767  10.531   2.378 -0.0641  0.1606 -0.4327
10474SOL    HW134920   6.822  10.575   2.443  1.9060 -0.7532 -1.4168
10474SOL    HW234921   6.678  10.539   2.413  0.6294  1.9141  1.0879
10475SOL     OW34922   0.994   9.666   4.844 -0.0560 -0.0708  0.2248
10475SOL    HW134923   1.058   9.596   4.861 -0.6062 -0.7080 -0.2483
10475SOL    HW234924   0.910   9.621   4.843 -0.4574  0.6696  0.2843
10476SOL     OW34925   0.361   5.057   4.048  0.4774  0.5888 -0.2108
10476SOL    HW134926   0.358   5.151   4.031  2.3027  0.8399  0.6150
10476SOL    HW234927   0.371   5.016   3.962 -1.1882  1.0640 -0.6578
10477SOL     OW34928   8.965   3.633   5.885 -0.0424 -0.2405  0.3253
10477SOL    HW134929   9.035   3.579   5.847  1.3178 -0.4918  2.9193
10477SOL    HW234930   8.919   3.669   5.810  1.8524 -1.4060 -1.5150
10478SOL     OW34931   6.533   3.742   7.952  0.1885  0.8813 -0.1997
10478SOL    HW134932   6.511   3.803   8.022  2.3185  0.5148  0.8668
10478SOL    HW234933   6.523   3.656   7.992  0.9951  0.6569 -0.4723
10479SOL     OW34934  10.837   8.556   1.569  0.0131 -0.1044  0.5320
10479SOL    HW134935  10.761   8.613   1.580  0.0901 -0.1023  1.0595
10479SOL    HW234936  10.895   8.580   1.641  1.1717  0.9234 -0.6958
10480SOL     OW34937   0.081   2.597   6.941  0.5347 -0.7936 -0.2932
10480SOL    HW134938   0.110   2.508   6.963 -3.5129 -1.9185  1.4659
10480SOL    HW234939   0.100   2.649   7.018  0.1891 -0.9055 -0.1303
10481SOL     OW34940   8.564   9.873   4.456  0.5074 -0.8889  0.0321
10481SOL    HW134941   8.559   9.813   4.381 -1.7213  0.7580 -1.2541
10481SOL    HW234942   8.491   9.848   4.512  0.0865  0.0569 -0.0831
10482SOL     OW34943   0.823   4.481   1.998  0.2965  1.1230 -0.7261
10482SOL    HW134944   0.811   4.393   2.032  0.2129  0.9934 -1.0869
10482SOL    HW234945   0.735   4.515   1.987  0.3411  1.4856  0.0092
10483SOL     OW34946   5.155   2.795   0.427 -0.6461  0.3122  0.6907
10483SOL    HW134947   5.092   2.772   0.495 -1.1720 -0.1578  0.0539
10483SOL    HW234948   5.137   2.734   0.356  0.8921 -0.2046  0.7049
10484SOL     OW34949   2.832   4.623   3.298  0.1919 -0.4729 -0.1086
10484SOL    HW134950   2.862   4.607   3.388 -0.7391 -2.5101 -0.1130
10484SOL    HW234951   2.770   4.696   3.306  0.1975 -0.5642  0.8842
10485SOL     OW34952   0.313  10.451   0.552  0.0684  0.3257 -0.4653
10485SOL    HW134953   0.402  10.436   0.583 -0.1485  0.3181  0.1566
10485SOL    HW234954   0.313  10.419   0.461  0.7571  0.5453 -0.5455
10486SOL     OW34955   1.108   2.587   0.826  0.3942  0.4368 -0.1772
10486SOL    HW134956   1.084   2.671   0.785 -1.3198  0.0417 -0.0432
10486SOL    HW234957   1.121   2.608   0.918 -1.1193  0.3951  0.0677
10487SOL     OW34958   5.159   6.826   3.287 -0.1389 -0.2359 -0.4777
10487SOL    HW134959   5.227   6.847   3.223  1.4267 -0.4480  1.0355
10487SOL    HW234960   5.143   6.908   3.333 -2.3039  0.2788 -2.0069
10488SOL     OW34961   3.357   0.700  10.900  0.3400 -0.1718 -0.2225
10488SOL    HW134962   3.389   0.677  10.988 -4.9508 -1.5201  1.7010
10488SOL    HW234963   3.328   0.790  10.908  1.9474  0.5045 -1.4391
10489SOL     OW34964   7.336   3.243   0.403 -0.2246  0.0892 -0.3478
10489SOL    HW134965   7.404   3.176   0.397 -0.6898 -0.3743 -0.5548
10489SOL    HW234966   7.380   3.319   0.442  0.1799 -0.5036  0.3657
10490SOL     OW34967   2.047   6.244   5.943  0.1520 -0.1613  0.4078
10490SOL    HW134968   2.067   6.192   5.865  0.3033 -0.5720  0.7223
10490SOL    HW234969   2.001   6.185   6.001  0.9798 -0.1697  1.0786
10491SOL     OW34970   1.753   2.548   4.582 -0.4584 -0.0992 -0.1586
10491SOL    HW134971   1.709   2.575   4.500  0.3190 -0.4010 -0.6840
10491SOL    HW234972   1.829   2.606   4.588 -0.6462  0.0830  0.4873
10492SOL     OW34973   5.696   3.791   1.578  0.1926  0.0056  0.1882
10492SOL    HW134974   5.787   3.798   1.607  0.2163  0.4907  0.0007
10492SOL    HW234975   5.644   3.828   1.649  0.1516 -0.1465  0.2375
10493SOL     OW34976   0.147   4.467   3.793 -0.0082  0.5504  0.1012
10493SOL    HW134977   0.192   4.509   3.867  0.9060  0.6863 -0.5172
10493SOL    HW234978   0.088   4.404   3.834  2.2212 -1.1495  0.9374
10494SOL     OW34979   5.966   8.157   8.477 -0.2051 -0.0732  0.5035
10494SOL    HW134980   5.992   8.080   8.528 -2.6962 -0.8600  0.7194
10494SOL    HW234981   6.043   8.178   8.424  0.4665 -2.9050  0.2012
10495SOL     OW34982   0.908   9.420   3.541 -0.0152 -0.3530 -0.5976
10495SOL    HW134983   1.000   9.424   3.565  0.3846  1.0056 -2.1910
10495SOL    HW234984   0.890   9.327   3.527  0.8421 -0.7223  0.6573
10496SOL     OW34985   6.035   6.267   1.208  0.0288 -0.3241 -0.1952
10496SOL    HW134986   6.092   6.323   1.155  0.0787 -1.5598 -1.5117
10496SOL    HW234987   6.080   6.259   1.292  0.5125  0.7740 -0.3336
10497SOL     OW34988  10.798   2.892   7.120 -0.2066  0.0912 -0.4342
10497SOL    HW134989  10.797   2.922   7.030 -1.0811  2.6620  0.3446
10497SOL    HW234990  10.709   2.858   7.135 -0.0636 -0.3282 -0.5293
10498SOL     OW34991   5.746   1.122   0.047  0.6713 -0.3057  0.2826
10498SOL    HW134992   5.712   1.210   0.066 -0.3576 -0.8317  0.9397
10498SOL    HW234993   5.703   1.065   0.110  0.3331 -1.4932 -0.9812
10499SOL     OW34994   9.198   3.820   2.076  0.3201  0.0596 -0.5936
10499SOL    HW134995   9.115   3.800   2.120  0.4099 -0.2691 -0.5716
10499SOL    HW234996   9.227   3.902   2.116 -0.3377  0.5503 -1.0874
10500SOL     OW34997   6.140   6.209   9.213 -0.6297  0.2704  0.1462
10500SOL    HW134998   6.083   6.153   9.161  1.2071 -0.4296 -1.2178
10500SOL    HW234999   6.223   6.162   9.217  1.3918  3.2898 -2.0361
10501SOL     OW35000  10.772   8.609   8.280 -0.4153  0.6450  0.2697
10501SOL    HW135001  10.834   8.650   8.221  1.6955 -2.2990  0.2202
10501SOL    HW235002  10.694   8.594   8.226  0.0505  1.4317 -0.6475
10502SOL     OW35003   9.850   1.869   3.466  0.1777 -0.3854  0.2033
10502SOL    HW135004   9.895   1.912   3.539  0.7366  0.5880 -0.6867
10502SOL    HW235005   9.915   1.864   3.396 -0.9932  0.8683 -1.0573
10503SOL     OW35006  10.223   6.324   0.256  0.0901  0.2079  0.2387
10503SOL    HW135007  10.223   6.388   0.327 -1.3658  0.9979 -0.4135
10503SOL    HW235008  10.304   6.275   0.267  0.8163  1.5788  1.2950
10504SOL     OW35009   0.063   2.712  10.811 -0.0978  0.2894 -0.4958
10504SOL    HW135010  -0.013   2.762  10.841 -0.3350 -0.7895  0.8360
10504SOL    HW235011   0.137   2.772  10.821 -0.5335  0.7638 -0.0547
10505SOL     OW35012   9.344   8.067   9.821  0.0488 -0.3781 -0.5163
10505SOL    HW135013   9.300   8.112   9.893 -1.2471  0.4401 -1.7430
10505SOL    HW235014   9.316   8.115   9.743  0.3172 -2.0437 -1.6958
10506SOL     OW35015   6.003   7.983   6.227  0.6194  0.5427  0.6089
10506SOL    HW135016   5.989   7.897   6.188 -0.3138 -0.1382  2.3577
10506SOL    HW235017   5.966   8.044   6.163  0.4383 -0.4102 -0.2228
10507SOL     OW35018   9.259   8.392   5.921  0.2860  0.2082 -0.1914
10507SOL    HW135019   9.342   8.410   5.877 -0.2723 -0.3156 -1.5112
10507SOL    HW235020   9.199   8.460   5.889 -0.3902 -0.7537 -1.0531
10508SOL     OW35021   8.900   4.780   0.353  0.1870 -0.4521  0.3441
10508SOL    HW135022   8.861   4.696   0.329  0.4521 -0.5516  0.2448
10508SOL    HW235023   8.835   4.823   0.409 -1.2280  0.5587 -1.9338
10509SOL     OW35024   7.049   9.809   2.672  0.1955 -0.4126 -0.1895
10509SOL    HW135025   7.047   9.902   2.693 -0.7948 -0.6714  1.0198
10509SOL    HW235026   6.972   9.773   2.717  0.7026 -1.8471 -0.4168
10510SOL     OW35027   0.302   8.317  10.039 -0.0936  0.0917 -0.1957
10510SOL    HW135028   0.264   8.393   9.995 -1.0947  0.0426  0.5541
10510SOL    HW235029   0.334   8.350  10.123 -1.4782 -0.4940  0.5859
10511SOL     OW35030   7.082   5.892  10.248  0.3230  0.3990 -0.5372
10511SOL    HW135031   7.072   5.973  10.199 -0.5186  1.4585  1.2970
10511SOL    HW235032   7.028   5.828  10.202  0.6740  0.9742 -1.7698
10512SOL     OW35033   0.976   3.903   2.311 -0.5230  0.2570 -0.2268
10512SOL    HW135034   0.980   3.852   2.230  1.9174 -1.3783  0.7697
10512SOL    HW235035   1.047   3.967   2.302  0.1388 -0.3007  0.7570
10513SOL     OW35036   4.207   5.412   7.001 -0.1132 -0.3624  0.0559
10513SOL    HW135037   4.151   5.340   6.972 -0.9449  0.8818 -1.5959
10513SOL    HW235038   4.145   5.478   7.033  0.5449  0.1592  0.2678
10514SOL     OW35039   3.807   6.948   9.707 -0.3682 -0.3450  0.6018
10514SOL    HW135040   3.818   7.023   9.766 -0.6268  0.8883 -0.8531
10514SOL    HW235041   3.808   6.986   9.620 -1.0555 -1.9966 -0.1657
10515SOL     OW35042   7.589   9.025   5.423  0.0644  0.9436  0.5182
10515SOL    HW135043   7.637   9.107   5.415  1.1415  0.4176  1.3099
10515SOL    HW235044   7.537   9.035   5.504 -1.4299  1.6171 -0.4784
10516SOL     OW35045   7.447   2.736  10.197 -0.3153  0.2918 -0.4396
10516SOL    HW135046   7.498   2.737  10.116 -1.5340  1.7491 -1.2458
10516SOL    HW235047   7.488   2.802  10.252 -0.1945  0.1298 -0.3358
10517SOL     OW35048   1.122   4.602   2.286 -0.5290  0.1934  0.5053
10517SOL    HW135049   1.196   4.625   2.230 -1.4765 -1.3630 -1.5275
10517SOL    HW235050   1.050   4.586   2.225 -2.4163  1.0513  2.3717
10518SOL     OW35051   4.176   1.804   8.956 -0.0786 -0.1940 -0.0044
10518SOL    HW135052   4.147   1.869   8.892 -1.0804 -0.3987  0.2154
10518SOL    HW235053   4.250   1.845   9.001  0.6303 -0.0443 -1.2689
10519SOL     OW35054   3.277   8.957   4.410 -0.7688  0.4192 -0.1016
10519SOL    HW135055   3.278   8.908   4.492  0.8577  1.4536  0.5715
10519SOL    HW235056   3.258   8.893   4.343 -1.4021 -0.5953  1.0159
10520SOL     OW35057   7.185   1.844   3.847  0.2391 -1.1656 -0.1649
10520SOL    HW135058   7.146   1.866   3.762 -0.2331  2.2294  0.7789
10520SOL    HW235059   7.141   1.902   3.909  3.3928 -0.5981  1.7429
10521SOL     OW35060   3.589   4.142   4.137 -0.5395  0.5644 -0.2035
10521SOL    HW135061   3.610   4.086   4.063 -0.7097  0.4856 -0.1926
10521SOL    HW235062   3.519   4.096   4.183  0.8190 -0.3177  1.0700
10522SOL     OW35063   4.768   1.049   1.130 -0.4728 -0.4955 -0.0333
10522SOL    HW135064   4.739   1.062   1.220 -0.4302  0.2764 -0.1275
10522SOL    HW235065   4.863   1.064   1.133 -0.9033  3.3229 -0.8485
10523SOL     OW35066   0.844   1.994   9.697  0.3850  0.7124 -0.1624
10523SOL    HW135067   0.860   2.053   9.770  1.3181  1.6086 -1.0525
10523SOL    HW235068   0.766   2.029   9.654 -0.7117 -0.3367  0.8740
10524SOL     OW35069   8.499   1.923   0.559  0.5733 -0.0598  0.3990
10524SOL    HW135070   8.534   1.980   0.491  0.3286 -1.0277 -0.5651
10524SOL    HW235071   8.406   1.944   0.564  0.3652 -0.7415 -0.3594
10525SOL     OW35072   7.098   9.530   9.802  0.0105  0.2051  0.0920
10525SOL    HW135073   7.167   9.594   9.788 -0.3933  1.5204  3.2289
10525SOL    HW235074   7.018   9.576   9.776  0.0090 -0.2590 -0.7593
10526SOL     OW35075   3.667   7.666   8.592  0.5159 -0.1012 -0.4446
10526SOL    HW135076   3.653   7.598   8.658 -0.8712  0.2720 -0.3267
10526SOL    HW235077   3.640   7.624   8.510  0.1346  0.1446 -0.4447
10527SOL     OW35078   4.857   1.599   0.811 -0.4437  0.6038  0.5053
10527SOL    HW135079   4.859   1.603   0.715 -1.3497  0.3120  0.4604
10527SOL    HW235080   4.945   1.572   0.836 -0.6203 -0.8371 -0.3304
10528SOL     OW35081   5.228   8.080  10.902 -0.1140 -0.7846 -0.1492
10528SOL    HW135082   5.290   8.061  10.973  0.3281  0.7749 -0.0945
10528SOL    HW235083   5.274   8.053  10.822  1.1110  1.2958 -0.2134
10529SOL     OW35084   4.711  10.811   9.921  0.3682  0.6523  0.5530
10529SOL    HW135085   4.770  10.753   9.873  0.0934  1.4311 -0.7614
10529SOL    HW235086   4.767  10.883   9.950  0.2284  0.9611  0.0533
10530SOL     OW35087   8.104   3.394   1.239  0.2188 -0.2888 -0.3506
10530SOL    HW135088   8.092   3.474   1.291 -0.9722  0.7067 -2.0396
10530SOL    HW235089   8.035   3.335   1.269 -0.8491  0.5065 -1.1124
10531SOL     OW35090   9.786  10.034   9.268  0.4950 -0.3382  0.5895
10531SOL    HW135091   9.840  10.066   9.195 -0.7164 -1.4529 -0.8880
10531SOL    HW235092   9.721   9.977   9.225 -0.7204 -0.4486  2.4915
10532SOL     OW35093   0.641   7.513  10.673  0.1180 -0.4489  0.4412
10532SOL    HW135094   0.642   7.421  10.702  0.6264 -0.2723  0.9982
10532SOL    HW235095   0.617   7.562  10.751  4.7144  0.3707  1.6303
10533SOL     OW35096   1.600   7.330   9.252  0.3334  0.7402 -0.3136
10533SOL    HW135097   1.525   7.318   9.309  1.1535 -1.7691  0.3545
10533SOL    HW235098   1.674   7.344   9.312  0.8301  0.4878 -0.8615
10534SOL     OW35099   8.598   4.039   8.150 -0.1201 -0.7357  0.2452
10534SOL    HW135100   8.598   3.944   8.159 -1.1768 -0.6903  0.9361
10534SOL    HW235101   8.519   4.067   8.195 -1.5984  0.2204 -2.6747
10535SOL     OW35102   0.768   6.746   9.378  0.0879 -0.3207 -0.0937
10535SOL    HW135103   0.718   6.823   9.355 -0.1417 -0.3239  0.3790
10535SOL    HW235104   0.853   6.759   9.337 -0.4397 -0.5295 -1.2805
10536SOL     OW35105   6.174   8.072   4.043 -0.2579  0.1966 -0.2939
10536SOL    HW135106   6.087   8.068   4.083  0.0021  0.7984  0.3493
10536SOL    HW235107   6.224   8.002   4.087 -0.6825 -0.7941 -1.3490
10537SOL     OW35108   0.909   5.925   5.896 -0.2577  0.2058 -0.2209
10537SOL    HW135109   0.882   6.010   5.931 -5.1916  0.1072 -2.9709
10537SOL    HW235110   0.852   5.862   5.939  1.0923 -1.3594 -0.6063
10538SOL     OW35111   9.121   8.182   4.683 -0.6661 -0.6253 -0.0167
10538SOL    HW135112   9.076   8.166   4.600 -0.5872  1.1291 -0.4515
10538SOL    HW235113   9.214   8.167   4.663 -0.3218  2.1505 -1.0320
10539SOL     OW35114   5.056   7.079   0.127  0.0282  0.0697 -0.0522
10539SOL    HW135115   5.116   7.052   0.057 -0.2137  0.5160 -0.4375
10539SOL    HW235116   5.044   7.000   0.180  0.2755 -0.2539 -0.4715
10540SOL     OW35117  10.679   2.839   6.499  0.2998 -0.1026 -0.0046
10540SOL    HW135118  10.588   2.865   6.515  0.0947 -0.4141 -0.6420
10540SOL    HW235119  10.722   2.919   6.470 -0.3819 -0.4639 -2.1856
10541SOL     OW35120   4.585   6.452   0.865 -0.1521  0.2824  0.1808
10541SOL    HW135121   4.670   6.467   0.906 -1.0989  2.7859  1.4430
10541SOL    HW235122   4.527   6.429   0.938 -0.3585 -3.0118 -0.8379
10542SOL     OW35123   7.829   5.820   3.484  0.4066 -0.3798  0.2187
10542SOL    HW135124   7.837   5.838   3.390  1.7437 -0.1780  0.3542
10542SOL    HW235125   7.799   5.903   3.521  0.6932 -0.2052  0.0685
10543SOL     OW35126  10.600  10.141   1.137 -0.0122  0.4079 -0.4597
10543SOL    HW135127  10.673  10.122   1.078  0.5198 -0.6794  0.5163
10543SOL    HW235128  10.642  10.176   1.216 -0.5418 -0.2396  0.1158
10544SOL     OW35129   2.074   2.298   0.681  0.1654 -0.1797 -0.2659
10544SOL    HW135130   2.070   2.266   0.591 -0.4723 -1.0675  0.0609
10544SOL    HW235131   2.096   2.391   0.673 -0.4504 -0.1163 -1.3631
10545SOL     OW35132   7.592   5.414   5.641  0.0445  0.2036 -0.3656
10545SOL    HW135133   7.497   5.419   5.653  0.0641 -0.7914  0.2637
10545SOL    HW235134   7.612   5.321   5.647  1.2154  0.5035  0.6683
10546SOL     OW35135   0.553   0.634   5.253  0.5064 -0.1276 -0.0235
10546SOL    HW135136   0.479   0.638   5.193  0.3833  2.5365  0.1768
10546SOL    HW235137   0.514   0.610   5.337 -0.0667  0.6129 -0.0626
10547SOL     OW35138   1.894   0.918   9.999  0.1192  0.2585  0.0745
10547SOL    HW135139   1.826   0.896  10.063  1.1227 -1.5481  0.6120
10547SOL    HW235140   1.868   0.869   9.920  0.2422  0.4177 -0.0647
10548SOL     OW35141   0.380   2.631   1.405  0.6149 -0.4928  0.2725
10548SOL    HW135142   0.291   2.651   1.375  0.6570 -0.2465  0.3040
10548SOL    HW235143   0.436   2.669   1.337  0.7777  2.0389  1.7098
10549SOL     OW35144   0.255   4.111   0.358  0.4718 -0.1976  0.1463
10549SOL    HW135145   0.241   4.095   0.452  0.8207 -1.7042 -0.0360
10549SOL    HW235146   0.349   4.096   0.346  0.8308  1.9530 -0.1072
10550SOL     OW35147   0.126  10.801   2.219  0.1622 -0.7468  0.2370
10550SOL    HW135148   0.060  10.867   2.241  1.2206  0.6715 -0.6829
10550SOL    HW235149   0.082  10.717   2.234 -1.9559  0.1361 -0.6830
10551SOL     OW35150   9.215   5.705   2.139 -0.2464 -0.2934 -0.0934
10551SOL    HW135151   9.259   5.728   2.057 -1.3236 -1.0091 -0.8977
10551SOL    HW235152   9.249   5.768   2.203 -0.1978  0.9920 -1.3363
10552SOL     OW35153   0.250   6.475   3.669 -0.0980  0.3334 -0.0315
10552SOL    HW135154   0.230   6.521   3.750  1.3960 -2.0893  1.8666
10552SOL    HW235155   0.325   6.523   3.633 -0.4259  1.1121  0.2895
10553SOL     OW35156   6.779   6.268   7.798  0.3279 -0.9490  0.5579
10553SOL    HW135157   6.803   6.195   7.740  1.3678 -1.3024  1.3885
10553SOL    HW235158   6.691   6.247   7.828 -0.6313 -0.2801 -1.5977
10554SOL     OW35159   3.740   7.882   1.769  0.3113 -0.3709  0.3766
10554SOL    HW135160   3.669   7.920   1.717  0.0924 -0.1781  0.8140
10554SOL    HW235161   3.718   7.904   1.859 -0.2000 -2.1046  0.7281
10555SOL     OW35162   5.072   9.764   2.587  0.5346 -0.3377  0.2439
10555SOL    HW135163   4.989   9.810   2.569  0.4976 -0.3948  0.2693
10555SOL    HW235164   5.057   9.719   2.670  0.5718 -0.3948  0.2198
10556SOL     OW35165   4.593   3.313   3.508 -0.5731 -0.2110  0.6585
10556SOL    HW135166   4.582   3.382   3.443 -0.0955 -0.6548  0.0981
10556SOL    HW235167   4.645   3.246   3.464 -2.4522 -1.7205  0.6165
10557SOL     OW35168   9.127  10.866   5.415  0.4585 -0.2792  0.2764
10557SOL    HW135169   9.040  10.906   5.419  0.3571 -0.3550 -0.7687
10557SOL    HW235170   9.130  10.823   5.330  0.9175 -1.7136  0.9831
10558SOL     OW35171   3.762   5.019  10.962 -0.1056  0.5190  0.0551
10558SOL    HW135172   3.829   4.952  10.966  0.5927  1.1992  0.0055
10558SOL    HW235173   3.693   4.981  10.908  0.1460 -0.2609  0.2665
10559SOL     OW35174   4.519   1.871  10.233 -0.0304 -0.4002 -0.2166
10559SOL    HW135175   4.548   1.836  10.317 -1.5859  0.6886  0.8318
10559SOL    HW235176   4.549   1.808  10.168  2.0293 -0.7970  1.0456
10560SOL     OW35177   6.922   0.399   7.675  0.0640  0.3935  0.1438
10560SOL    HW135178   6.865   0.336   7.719  2.0307 -0.9734  0.8527
10560SOL    HW235179   6.958   0.351   7.601 -0.6519  1.6512 -1.0672
10561SOL     OW35180   3.622   8.556   4.698 -0.0771  0.1258  0.0651
10561SOL    HW135181   3.704   8.539   4.744  0.9976  0.9389 -1.4881
10561SOL    HW235182   3.567   8.601   4.763  1.1853  0.7499  0.7249
10562SOL     OW35183  10.845   1.240  10.401 -0.0710  0.2916 -0.5983
10562SOL    HW135184  10.919   1.182  10.422 -1.6172 -1.8584 -0.7497
10562SOL    HW235185  10.803   1.257  10.485  1.3955  2.7857 -0.2904
10563SOL     OW35186   1.436   3.352   2.939  0.1174  0.1230 -0.7399
10563SOL    HW135187   1.345   3.342   2.913 -0.5035 -0.7945  1.5353
10563SOL    HW235188   1.465   3.264   2.963  1.1205  0.6318  0.0228
10564SOL     OW35189   9.661   7.013   7.845  0.0655  0.6257 -0.1261
10564SOL    HW135190   9.666   6.921   7.820 -1.5792  0.4465  0.0563
10564SOL    HW235191   9.716   7.059   7.782 -0.6502 -0.2722 -1.4610
10565SOL     OW35192   4.218   0.362   1.844  0.0420 -0.5677 -0.2434
10565SOL    HW135193   4.274   0.439   1.854  0.4052 -1.0069  1.3866
10565SOL    HW235194   4.193   0.362   1.752  2.2396 -0.0303 -0.8825
10566SOL     OW35195   8.240   9.168   3.390 -0.2551  0.3016 -0.0799
10566SOL    HW135196   8.278   9.096   3.442 -1.2427  0.3340  0.7164
10566SOL    HW235197   8.194   9.123   3.318  0.7476  0.2354 -0.6929
10567SOL     OW35198   3.832   2.983   9.354  0.1300  0.5761  0.1417
10567SOL    HW135199   3.767   2.916   9.373  0.2980  0.9766  2.3374
10567SOL    HW235200   3.784   3.051   9.308 -1.2734  1.2558  2.4482
10568SOL     OW35201   1.750   3.842   4.651 -0.3180  0.5286 -0.2723
10568SOL    HW135202   1.683   3.907   4.629  0.0249  0.7367 -0.7027
10568SOL    HW235203   1.799   3.829   4.570  0.8174  1.1325  0.3017
10569SOL     OW35204  10.482   0.147   1.280  0.6903  0.1103 -0.1511
10569SOL    HW135205  10.418   0.177   1.345 -0.3044  1.7589 -1.8067
10569SOL    HW235206  10.456   0.057   1.261 -0.5988  0.4584 -0.1372
10570SOL     OW35207   4.704   4.088   1.661 -0.0349 -0.2592 -0.5844
10570SOL    HW135208   4.762   4.044   1.599  1.2417  0.0900  0.3391
10570SOL    HW235209   4.757   4.156   1.701 -1.1269  0.1818  0.1761
10571SOL     OW35210   4.974   8.339   6.599  0.1846  0.4086 -0.0620
10571SOL    HW135211   4.879   8.350   6.589  0.1170  1.9287  1.6876
10571SOL    HW235212   5.007   8.428   6.610  1.5627 -0.2112  1.1349
10572SOL     OW35213   9.702   5.533   8.880 -0.4070  0.4607 -0.1135
10572SOL    HW135214   9.643   5.583   8.823  0.5587  1.4527 -0.2772
10572SOL    HW235215   9.656   5.450   8.896 -1.4066  0.8251 -1.0083
10573SOL     OW35216   6.546   2.514   8.135  0.3621 -0.0216  0.2915
10573SOL    HW135217   6.525   2.556   8.218  0.0468  1.1176 -0.3443
10573SOL    HW235218   6.461   2.491   8.098  0.4544  0.2850 -0.1160
10574SOL     OW35219   9.806   0.051   0.594 -0.3885 -0.3325 -0.0231
10574SOL    HW135220   9.886   0.073   0.546  0.0332 -0.3785  0.6489
10574SOL    HW235221   9.800  -0.044   0.589  1.3368 -0.6575  2.5926
10575SOL     OW35222   9.136   3.613   3.662  0.0784  0.0561  0.2511
10575SOL    HW135223   9.117   3.519   3.653  2.0426 -0.5213  1.6001
10575SOL    HW235224   9.102   3.652   3.581 -1.7647 -1.6274  0.1400
10576SOL     OW35225   6.561   4.598   9.855 -0.2010  0.8332 -0.0156
10576SOL    HW135226   6.608   4.537   9.910  0.1988 -1.3171 -2.5415
10576SOL    HW235227   6.477   4.555   9.837  0.8293 -0.1012 -3.4117
10577SOL     OW35228   9.782  10.103  10.988  0.2919 -0.2472 -0.2528
10577SOL    HW135229   9.860  10.116  11.042 -0.1851 -0.7064  0.5807
10577SOL    HW235230   9.775  10.008  10.980  0.1303 -0.1890 -0.7865
10578SOL     OW35231   0.317   7.336  10.915  0.2581 -0.0486 -0.6981
10578SOL    HW135232   0.287   7.287  10.839  0.7619 -0.2676 -0.7580
10578SOL    HW235233   0.321   7.427  10.885  0.0697 -0.0778 -0.8121
10579SOL     OW35234   0.160   5.645   5.241  0.1662 -0.0474 -0.2667
10579SOL    HW135235   0.243   5.649   5.288 -0.2030  0.5601  0.3672
10579SOL    HW235236   0.096   5.681   5.303 -0.4042  0.3848 -1.0831
10580SOL     OW35237   5.417   4.996   8.387 -0.1306 -0.1327 -0.7503
10580SOL    HW135238   5.367   5.020   8.309  0.0555  1.4079 -0.4254
10580SOL    HW235239   5.357   4.942   8.439 -0.4960 -0.5764 -1.6191
10581SOL     OW35240   0.336   7.693   0.922 -0.5963  0.4182 -0.1731
10581SOL    HW135241   0.262   7.753   0.932 -0.1281  0.9945 -0.1057
10581SOL    HW235242   0.355   7.695   0.828 -1.3735 -0.6051 -0.3730
10582SOL     OW35243   0.678   4.424   0.592  0.3128  0.1119 -0.4278
10582SOL    HW135244   0.646   4.334   0.585  0.6508 -0.1057  0.6589
10582SOL    HW235245   0.662   4.462   0.505 -0.6710 -0.7107 -0.6280
10583SOL     OW35246   6.450  10.129   9.998  0.5084  0.8053  0.0250
10583SOL    HW135247   6.532  10.085  10.019 -0.3841 -0.3858  1.2474
10583SOL    HW235248   6.475  10.201   9.940  2.2719 -0.1280 -0.4418
10584SOL     OW35249   4.171   7.303   7.573  0.0116  0.0111  0.5679
10584SOL    HW135250   4.227   7.282   7.498  1.2488 -1.0083  1.7310
10584SOL    HW235251   4.108   7.231   7.576  0.8459 -0.7112  1.3146
10585SOL     OW35252   2.364   6.783  10.261 -0.7331  0.4242 -0.5901
10585SOL    HW135253   2.315   6.737  10.329  0.2282  0.1791 -0.0446
10585SOL    HW235254   2.357   6.726  10.185 -0.9228  0.1808 -0.3932
10586SOL     OW35255   6.511   7.996   4.419  0.0670 -0.3146  0.0093
10586SOL    HW135256   6.544   7.966   4.334  0.2960 -0.6154  0.2022
10586SOL    HW235257   6.488   7.916   4.466 -1.5144 -0.0947 -0.3364
10587SOL     OW35258   0.705   5.427   9.167  0.2928  0.2513 -0.0955
10587SOL    HW135259   0.694   5.513   9.208 -1.5298  0.0777 -0.1375
10587SOL    HW235260   0.653   5.431   9.087 -0.8350 -1.2657  0.5049
10588SOL     OW35261   6.229  10.797   7.980 -0.0284  0.1549 -0.0860
10588SOL    HW135262   6.167  10.736   8.020 -1.4125  0.8805 -1.0243
10588SOL    HW235263   6.232  10.871   8.041  0.6440 -0.2767  0.4138
10589SOL     OW35264   1.988   5.325   5.590  0.1652  0.5902 -0.2313
10589SOL    HW135265   2.058   5.331   5.525  1.2934 -0.5490  0.8216
10589SOL    HW235266   1.940   5.407   5.581  0.3791  0.5524 -2.3617
10590SOL     OW35267  10.510  10.216   7.567  0.2615  0.2851  0.1907
10590SOL    HW135268  10.583  10.231   7.628 -0.5653 -0.2010  1.3443
10590SOL    HW235269  10.539  10.144   7.512  0.5324 -0.1354  0.8682
10591SOL     OW35270   5.245   7.478   5.701 -0.0814  0.6284 -0.2746
10591SOL    HW135271   5.216   7.486   5.792 -0.4060  1.5494 -0.4482
10591SOL    HW235272   5.322   7.421   5.706 -0.7578 -0.2614  0.4294
10592SOL     OW35273   7.970   8.776   4.680  0.0364  0.0024  1.0335
10592SOL    HW135274   7.930   8.783   4.767 -0.0793  2.3534  0.8391
10592SOL    HW235275   7.901   8.805   4.620  0.0582 -1.7423  0.0735
10593SOL     OW35276  10.373   2.422   4.659 -0.6020 -0.3281 -0.4195
10593SOL    HW135277  10.296   2.402   4.713  0.9102 -2.0283  1.2795
10593SOL    HW235278  10.446   2.423   4.721  0.6611  2.4390 -1.7714
10594SOL     OW35279   3.651   0.075   7.063  0.0936  0.2078  0.1074
10594SOL    HW135280   3.651   0.165   7.031  0.8906 -0.4110 -1.8013
10594SOL    HW235281   3.736   0.064   7.105 -0.0964  0.3996  0.5473
10595SOL     OW35282   2.608   6.672   4.492  0.0656 -0.1790 -0.3306
10595SOL    HW135283   2.558   6.632   4.564  0.4749 -0.0547  0.0256
10595SOL    HW235284   2.661   6.739   4.535 -0.6424  0.7753 -0.9263
10596SOL     OW35285   7.332   3.561   7.180 -0.1852 -0.5447 -0.2841
10596SOL    HW135286   7.314   3.521   7.095  0.2298 -1.1846 -0.0741
10596SOL    HW235287   7.374   3.644   7.159 -0.5200 -0.4766 -0.7089
10597SOL     OW35288   6.774   6.417   2.006  0.2990  0.5552  0.2898
10597SOL    HW135289   6.865   6.396   1.986  0.2399  1.4006 -0.9722
10597SOL    HW235290   6.752   6.489   1.947 -1.7984 -0.9550 -0.9333
10598SOL     OW35291   6.563   3.702   3.829  0.0920 -0.7990 -0.3205
10598SOL    HW135292   6.550   3.735   3.917  0.2409  0.3518 -0.7099
10598SOL    HW235293   6.477   3.670   3.801  0.0283 -1.0867  0.2021
10599SOL     OW35294   3.220   8.295   1.600 -0.1200  0.2410  0.3842
10599SOL    HW135295   3.137   8.264   1.638 -0.2528  0.6262  0.4138
10599SOL    HW235296   3.276   8.312   1.676 -0.7233  1.9788  0.4973
10600SOL     OW35297   8.283   4.766   7.455 -0.3824  0.2744  0.7334
10600SOL    HW135298   8.230   4.793   7.530 -1.1618  0.4670  0.1170
10600SOL    HW235299   8.359   4.723   7.494 -0.1343  1.5147  1.6780
10601SOL     OW35300   7.574   9.580   1.019  0.1335 -0.7510 -0.2375
10601SOL    HW135301   7.577   9.506   0.958 -0.3939 -1.3198  0.4161
10601SOL    HW235302   7.657   9.627   1.004  0.0353 -0.8949 -1.3589
10602SOL     OW35303   6.525   2.538   4.487  0.5134 -0.0293 -0.2321
10602SOL    HW135304   6.570   2.477   4.546  1.9856  0.7027 -0.5774
10602SOL    HW235305   6.546   2.507   4.400 -0.3813 -0.1782 -0.4102
10603SOL     OW35306   6.242   1.354   4.291  0.4423  0.6213  0.3428
10603SOL    HW135307   6.337   1.351   4.277  0.4739 -0.8842  0.6960
10603SOL    HW235308   6.215   1.436   4.251  2.1630  2.1188  2.0139
10604SOL     OW35309   8.596  10.414   1.846 -0.5414 -0.6147  0.0595
10604SOL    HW135310   8.599  10.356   1.770  1.5483  0.0592 -0.4557
10604SOL    HW235311   8.655  10.372   1.909 -1.8500 -0.8928  1.1421
10605SOL     OW35312   7.675   7.888   1.831  0.4689  0.1495  0.2872
10605SOL    HW135313   7.584   7.861   1.816  0.5570 -0.4005  0.7136
10605SOL    HW235314   7.668   7.966   1.886  0.2419  0.3922 -0.0817
10606SOL     OW35315   2.744   4.827  10.756 -0.8866  0.0617  0.2943
10606SOL    HW135316   2.668   4.884  10.765 -0.0703  1.1883  0.1724
10606SOL    HW235317   2.762   4.825  10.662 -0.1515  0.6211  0.4171
10607SOL     OW35318   3.630   9.217   7.399  0.1561  0.3433  0.2051
10607SOL    HW135319   3.600   9.251   7.483 -0.5417  0.9748 -0.2809
10607SOL    HW235320   3.606   9.285   7.336 -0.3266 -0.5930 -0.6556
10608SOL     OW35321   7.281   9.887   1.357  0.3775  0.4603 -0.4118
10608SOL    HW135322   7.353   9.884   1.294 -0.4025 -1.3587 -1.3012
10608SOL    HW235323   7.214   9.941   1.315 -0.5185 -1.5018 -1.6733
10609SOL     OW35324  10.106   8.520   9.501 -0.5626  0.0916  0.3107
10609SOL    HW135325  10.068   8.558   9.422 -1.1523  0.2716  0.6762
10609SOL    HW235326  10.103   8.425   9.485 -0.6537  0.1271  0.1106
10610SOL     OW35327   2.552   1.822  10.051 -0.3321  0.0131 -0.2292
10610SOL    HW135328   2.618   1.859   9.994 -0.4640 -0.5553 -0.7577
10610SOL    HW235329   2.557   1.874  10.131  0.6001  0.1083 -0.3451
10611SOL     OW35330   5.219   2.203   1.127 -0.2267  0.1153  0.0325
10611SOL    HW135331   5.286   2.170   1.068  0.4424 -2.2418  1.9232
10611SOL    HW235332   5.140   2.155   1.102  0.3079 -1.7177  1.5923
10612SOL     OW35333   3.104  10.079   2.788 -0.1277  0.1334  0.3028
10612SOL    HW135334   3.108  10.042   2.700 -1.1940  0.1279  0.2444
10612SOL    HW235335   3.176  10.036   2.836 -0.9956 -1.6464  0.1000
10613SOL     OW35336   2.622   6.429   0.008  0.0364  0.1554  0.3066
10613SOL    HW135337   2.611   6.521   0.033  0.1302  0.6374 -1.3095
10613SOL    HW235338   2.541   6.408  -0.039  1.3481  0.4948 -2.3217
10614SOL     OW35339   8.618   8.057   2.336  0.2689 -0.7212  0.3805
10614SOL    HW135340   8.655   8.069   2.423  0.1990 -1.0378  0.4545
10614SOL    HW235341   8.525   8.040   2.351  0.4274 -1.7267  0.3090
10615SOL     OW35342   6.073   1.371   7.623 -0.0097  0.0281 -0.4756
10615SOL    HW135343   6.002   1.320   7.663  0.5829  0.6187  1.4456
10615SOL    HW235344   6.143   1.369   7.688  1.1147  0.8390 -1.6335
10616SOL     OW35345   3.338   8.168   6.592 -0.2225  0.1459 -0.5427
10616SOL    HW135346   3.353   8.125   6.676 -0.5344 -1.7362 -1.4075
10616SOL    HW235347   3.248   8.144   6.570  0.3481 -0.6465 -2.1061
10617SOL     OW35348   3.688   1.969  10.277 -0.1214  0.0948  0.0073
10617SOL    HW135349   3.723   2.058  10.268 -0.2356  0.3879  1.9872
10617SOL    HW235350   3.765   1.914  10.290 -0.1547  0.2049  0.7139
10618SOL     OW35351   5.999   2.847   5.690 -0.1441  0.3100 -0.1279
10618SOL    HW135352   5.905   2.859   5.676  0.1578  2.7406 -0.3801
10618SOL    HW235353   6.040   2.925   5.652  2.2278 -1.7848 -2.2706
10619SOL     OW35354   3.841   7.145   3.338 -0.0343 -0.0839  0.6073
10619SOL    HW135355   3.827   7.162   3.431  1.5749  0.2316  0.8196
10619SOL    HW235356   3.877   7.057   3.333 -1.6537 -0.7489  0.1156
10620SOL     OW35357   7.998   4.027   1.364 -0.3355 -0.3402  0.0561
10620SOL    HW135358   8.008   3.948   1.418 -1.1161 -1.2415 -1.0520
10620SOL    HW235359   7.903   4.041   1.360 -0.1692  1.3769  1.1950
10621SOL     OW35360   2.549   2.447   9.038 -0.2531  0.3633  0.5788
10621SOL    HW135361   2.599   2.459   9.119  1.5660  0.5035 -0.4964
10621SOL    HW235362   2.457   2.447   9.065  0.3453 -1.6336  2.8938
10622SOL     OW35363  10.053   3.716   7.154  0.2829  0.8429 -0.6299
10622SOL    HW135364  10.020   3.765   7.079 -0.8988 -0.3704 -0.9405
10622SOL    HW235365   9.987   3.728   7.222  0.2517  0.1275 -0.5289
10623SOL     OW35366   8.315   9.219   1.684 -0.3003 -0.4569 -0.2502
10623SOL    HW135367   8.281   9.214   1.773 -0.4262  3.0325  0.0532
10623SOL    HW235368   8.241   9.195   1.628 -1.1366  0.1334  0.5704
10624SOL     OW35369   8.214   4.743   6.561  0.5972 -0.6397  0.3421
10624SOL    HW135370   8.201   4.752   6.656  1.5729 -0.2124  0.4406
10624SOL    HW235371   8.155   4.809   6.523  0.5340 -0.5076  0.6641
10625SOL     OW35372   6.829   2.705   8.598 -0.0918  0.0847  0.1374
10625SOL    HW135373   6.813   2.753   8.680 -0.6661  1.1774 -0.5893
10625SOL    HW235374   6.787   2.758   8.530  1.3553 -0.2019 -1.0320
10626SOL     OW35375  10.412   6.631   2.420 -0.2424 -0.5874 -0.2845
10626SOL    HW135376  10.455   6.664   2.499  0.4195  0.7643 -1.1679
10626SOL    HW235377  10.446   6.542   2.409 -0.0988 -0.6762  0.7521
10627SOL     OW35378   9.934   0.824   2.841 -0.1959  0.4044  0.3716
10627SOL    HW135379   9.937   0.892   2.773  1.6468  0.7915  0.7715
10627SOL    HW235380   9.907   0.745   2.794 -1.7877  1.2592 -0.2225
10628SOL     OW35381   5.113   5.961   8.443 -0.4571  0.4428 -0.4969
10628SOL    HW135382   5.070   5.984   8.525 -1.0071 -0.7708 -0.4265
10628SOL    HW235383   5.103   6.038   8.388  2.9053  2.6942  1.6518
10629SOL     OW35384   0.302   1.169   1.289 -0.0236  0.1232 -0.1837
10629SOL    HW135385   0.375   1.157   1.350  0.1070  0.9623 -0.1539
10629SOL    HW235386   0.330   1.242   1.234 -0.7599  0.3181 -0.3092
10630SOL     OW35387  10.940   2.900   2.802  0.0634 -0.6127 -0.4058
10630SOL    HW135388  11.026   2.876   2.768 -0.0611 -0.0286 -1.1583
10630SOL    HW235389  10.907   2.966   2.741 -1.1858 -1.2855 -0.5092
10631SOL     OW35390   1.081   3.067  10.037  0.0016 -0.5366  0.1628
10631SOL    HW135391   1.062   3.153  10.000 -3.7086 -1.0534  0.4250
10631SOL    HW235392   1.042   3.005   9.974  0.4016 -1.8635  1.1808
10632SOL     OW35393   0.544   4.975   6.700  0.6186 -0.0779 -0.0679
10632SOL    HW135394   0.569   4.922   6.776 -1.1948 -0.0106  0.6226
10632SOL    HW235395   0.568   5.064   6.724  1.0817 -0.2041 -0.0529
10633SOL     OW35396   1.043   8.412   4.130 -0.1207 -0.0431  0.2362
10633SOL    HW135397   1.092   8.379   4.204 -0.5202 -1.4485 -0.0932
10633SOL    HW235398   1.038   8.339   4.069 -0.6971  0.7534 -0.7203
10634SOL     OW35399   0.067   9.853   4.611 -0.1451  0.4237  0.3158
10634SOL    HW135400  -0.013   9.802   4.621 -0.1406 -0.0218 -1.5717
10634SOL    HW235401   0.037   9.939   4.580  0.0901  0.0929 -0.9094
10635SOL     OW35402   5.419   5.912   1.952 -0.3393 -0.0843 -0.3150
10635SOL    HW135403   5.348   5.849   1.950 -0.0318 -0.4310 -0.7074
10635SOL    HW235404   5.491   5.868   1.907 -0.2748  0.7303 -1.0386
10636SOL     OW35405   6.986   6.354   7.958  0.0150 -0.3905 -0.3323
10636SOL    HW135406   6.944   6.317   7.881 -0.5332 -0.1007 -0.1761
10636SOL    HW235407   6.934   6.431   7.979  0.2415 -0.3916  0.2528
10637SOL     OW35408   8.234  10.375   6.120  0.2569  0.5133  0.4051
10637SOL    HW135409   8.230  10.446   6.184 -1.2399  0.1165  0.7829
10637SOL    HW235410   8.152  10.328   6.131  0.5923 -0.4169 -0.8443
10638SOL     OW35411   2.482   5.905   4.647  0.8245  0.4667 -0.1302
10638SOL    HW135412   2.420   5.943   4.584  1.8677  0.2217 -1.3580
10638SOL    HW235413   2.487   5.813   4.622 -0.4498 -0.1929  1.7906
10639SOL     OW35414   3.318   1.717   2.897  0.0569  0.5823  0.3836
10639SOL    HW135415   3.234   1.723   2.942 -0.7628 -2.7410 -0.4676
10639SOL    HW235416   3.383   1.722   2.967 -1.0740 -1.2831  1.6331
10640SOL     OW35417   7.252   3.546   0.552  0.3111 -0.0743  0.3477
10640SOL    HW135418   7.252   3.473   0.613  0.7484 -0.2241  0.1683
10640SOL    HW235419   7.285   3.621   0.602  0.5930 -0.1776  0.3116
10641SOL     OW35420   3.417   0.145   0.474 -0.0617  0.0681  0.9788
10641SOL    HW135421   3.462   0.067   0.442  0.0831  0.2958  0.6213
10641SOL    HW235422   3.325   0.119   0.477 -0.2101  0.3097 -0.5009
10642SOL     OW35423   8.681   6.626   9.518  0.3612  0.3937  0.3976
10642SOL    HW135424   8.679   6.686   9.443  0.3940  1.2783  1.0972
10642SOL    HW235425   8.673   6.539   9.478 -1.8356  0.9349 -0.4997
10643SOL     OW35426   7.195   5.353   8.879 -0.0947 -0.3992 -0.4524
10643SOL    HW135427   7.264   5.417   8.859 -0.0949 -0.3435 -0.2744
10643SOL    HW235428   7.114   5.397   8.855 -0.0329 -0.6720 -1.1955
10644SOL     OW35429   8.566   8.887   2.084 -0.1582 -0.1783 -0.2815
10644SOL    HW135430   8.582   8.822   2.016  1.5373  0.1629 -0.2422
10644SOL    HW235431   8.595   8.845   2.165  0.3581  0.3818 -0.1674
10645SOL     OW35432   1.473   3.014   8.129 -0.6762 -0.4250 -0.2520
10645SOL    HW135433   1.438   3.097   8.161  0.3651  0.8106 -2.1220
10645SOL    HW235434   1.444   2.949   8.193 -1.0440  1.4450  1.5879
10646SOL     OW35435   0.779   7.402   0.490 -0.2031  0.6308 -0.0232
10646SOL    HW135436   0.792   7.403   0.585 -1.1023  1.6316  0.1121
10646SOL    HW235437   0.785   7.309   0.466 -0.9182  0.2514  1.1608
10647SOL     OW35438   7.379   0.814   6.241 -0.2565 -0.1267  0.1250
10647SOL    HW135439   7.352   0.883   6.301  1.4556  0.8121 -0.1279
10647SOL    HW235440   7.333   0.835   6.159  0.0092  0.5385  0.1405
10648SOL     OW35441   6.515   0.115  11.007  0.1030  0.0552  0.1341
10648SOL    HW135442   6.595   0.157  10.975  1.1576 -0.0108  2.5050
10648SOL    HW235443   6.454   0.187  11.020  0.6948  0.4413  0.8212
10649SOL     OW35444   9.356   0.583   1.788  0.3592 -0.2137  0.3792
10649SOL    HW135445   9.436   0.604   1.739 -0.5035 -0.1322 -1.0660
10649SOL    HW235446   9.287   0.628   1.740 -0.6518 -0.8828  1.1796
10650SOL     OW35447   6.133   1.927   7.433  0.0574 -0.0254  0.3325
10650SOL    HW135448   6.111   2.019   7.426 -1.5098 -0.3776  0.2859
10650SOL    HW235449   6.213   1.917   7.381  0.8223  1.4622  1.1432
10651SOL     OW35450   4.267   3.388  10.252  0.5535  0.1560 -0.3439
10651SOL    HW135451   4.261   3.311  10.195  1.3002  0.1315 -0.3995
10651SOL    HW235452   4.302   3.456  10.195 -1.2573  0.9042 -0.6298
10652SOL     OW35453   8.629  10.570   3.106 -0.0529 -0.3486  0.1388
10652SOL    HW135454   8.596  10.654   3.139 -1.5538 -1.0495  0.4644
10652SOL    HW235455   8.551  10.522   3.079  0.8396 -1.4036 -0.6555
10653SOL     OW35456   2.345   0.877   0.419 -0.1888 -0.2458  0.8442
10653SOL    HW135457   2.370   0.947   0.478  0.9700  0.6063 -0.5956
10653SOL    HW235458   2.399   0.802   0.444  0.5310  0.2102  0.6708
10654SOL     OW35459   3.022   1.196   2.483  0.1866 -0.0916 -0.0709
10654SOL    HW135460   3.047   1.288   2.483  2.4890 -0.6517  0.9733
10654SOL    HW235461   2.964   1.187   2.559 -0.1985  0.5027 -0.2820
10655SOL     OW35462   5.788   0.546   9.631 -0.0700  0.1505  0.2867
10655SOL    HW135463   5.836   0.618   9.590 -1.4668  2.0697  1.8414
10655SOL    HW235464   5.804   0.557   9.725 -1.3563 -0.7907  0.6418
10656SOL     OW35465   5.578   9.966   5.495 -0.3184 -0.0032 -0.0764
10656SOL    HW135466   5.644   9.911   5.452 -0.2155  0.2672 -0.2660
10656SOL    HW235467   5.623  10.049   5.510 -0.7266  0.2989 -0.5190
10657SOL     OW35468   9.317   1.033   7.251  0.1946  0.0335  0.4466
10657SOL    HW135469   9.391   1.044   7.191 -0.4825 -1.3166 -0.7115
10657SOL    HW235470   9.243   1.074   7.205 -0.4074 -1.3046  0.1659
10658SOL     OW35471   6.429   5.543   4.966  0.2128  0.3208 -0.6666
10658SOL    HW135472   6.426   5.592   4.884 -1.2730  0.5874 -0.4817
10658SOL    HW235473   6.373   5.593   5.026 -0.2112 -0.8462 -0.0581
10659SOL     OW35474   0.532   2.738   6.257  0.4510  0.4274 -0.1262
10659SOL    HW135475   0.458   2.679   6.238 -0.2170  1.2905 -0.2969
10659SOL    HW235476   0.499   2.825   6.234  0.8935  1.0698  1.5505
10660SOL     OW35477   2.153   0.498   2.684 -0.0791  0.1219  0.7586
10660SOL    HW135478   2.195   0.416   2.711  0.0975 -0.0458  0.0036
10660SOL    HW235479   2.068   0.471   2.650  0.6026  0.0528 -0.9709
10661SOL     OW35480   4.921   2.531  10.680 -0.0949  0.2015  0.2424
10661SOL    HW135481   4.915   2.551  10.773 -0.9812  1.1117  0.0076
10661SOL    HW235482   4.831   2.538  10.648  0.5772  3.1368 -1.3058
10662SOL     OW35483   2.673   2.847   8.495  0.0306  0.0761 -0.3444
10662SOL    HW135484   2.655   2.915   8.430  0.4916  0.6109  0.0828
10662SOL    HW235485   2.768   2.845   8.503  0.0081 -0.4161 -0.1387
10663SOL     OW35486   7.968   9.918   9.358  0.0113  0.2772 -0.0537
10663SOL    HW135487   7.931   9.864   9.427 -1.4181  0.2386 -0.8171
10663SOL    HW235488   7.919  10.000   9.362  0.3232  0.5017 -0.6328
10664SOL     OW35489   4.293   3.245   5.025 -0.6210 -0.1150 -0.5218
10664SOL    HW135490   4.325   3.155   5.027  0.4073  0.2387 -0.0512
10664SOL    HW235491   4.352   3.290   4.964 -1.1139  0.2539 -0.7395
10665SOL     OW35492  10.459   4.131   6.763  0.0871 -0.4234 -0.8101
10665SOL    HW135493  10.530   4.114   6.824  1.0514 -0.2335 -1.8430
10665SOL    HW235494  10.380   4.132   6.817  1.1168  2.0440  0.7996
10666SOL     OW35495   2.886   0.011   5.394  0.7526  0.1994 -0.0489
10666SOL    HW135496   2.906  -0.005   5.301  0.9767 -0.5662  0.1242
10666SOL    HW235497   2.971   0.021   5.435  0.6489  0.6125  0.0647
10667SOL     OW35498   4.304   1.802   4.386  0.0656  0.9327 -0.0773
10667SOL    HW135499   4.368   1.869   4.361 -0.6886  1.3478 -0.9619
10667SOL    HW235500   4.332   1.724   4.338  0.6738  0.7350  0.5863
10668SOL     OW35501   5.783   6.340   1.133  0.4111  0.0844  0.1411
10668SOL    HW135502   5.727   6.307   1.203 -1.7015  2.5137 -0.2789
10668SOL    HW235503   5.872   6.314   1.160 -0.3119  0.7037  3.6018
10669SOL     OW35504   0.655   7.066  10.420  0.2740  0.7132  0.1245
10669SOL    HW135505   0.579   7.088  10.474  0.9266  0.7192  1.0568
10669SOL    HW235506   0.691   6.987  10.460 -1.9881 -2.2696 -3.1107
10670SOL     OW35507   8.810   3.472   6.945 -0.3588  0.3413 -0.7191
10670SOL    HW135508   8.768   3.397   6.904 -1.3547  0.6675 -0.3152
10670SOL    HW235509   8.872   3.504   6.879  1.2456 -1.7598 -0.3186
10671SOL     OW35510   4.477  10.948   8.296  0.2987  0.2909  0.4907
10671SOL    HW135511   4.498  10.926   8.205  0.6904 -0.4133  0.7428
10671SOL    HW235512   4.500  11.040   8.304  2.1397 -0.1236  0.4025
10672SOL     OW35513   0.563   9.471   5.779  0.0334 -0.1705  0.1763
10672SOL    HW135514   0.589   9.385   5.811 -1.1498 -0.1140  1.3918
10672SOL    HW235515   0.540   9.456   5.687  1.9171 -0.6771 -0.2610
10673SOL     OW35516   6.767   1.898   6.353  0.4339 -0.0226  0.1763
10673SOL    HW135517   6.787   1.805   6.360  0.8245  0.1014  0.8172
10673SOL    HW235518   6.853   1.940   6.351  0.2817  0.2730 -1.0667
10674SOL     OW35519   5.123   0.278   7.338  0.3983 -0.2672 -0.2575
10674SOL    HW135520   5.203   0.299   7.289 -0.2593 -0.4911 -1.4483
10674SOL    HW235521   5.153   0.221   7.409  1.2894 -0.3893 -0.7150
10675SOL     OW35522   5.717   6.664   6.421 -0.0415  0.5860  0.2993
10675SOL    HW135523   5.790   6.727   6.423 -0.0087  0.5346  1.7184
10675SOL    HW235524   5.714   6.628   6.510 -1.2730 -0.0257  0.0292
10676SOL     OW35525   9.389   2.759   0.195 -0.1378 -0.5548  0.0996
10676SOL    HW135526   9.422   2.720   0.114  0.1616  0.1830 -0.1465
10676SOL    HW235527   9.465   2.761   0.253 -0.3449 -1.0567  0.3966
10677SOL     OW35528   0.459   1.685   7.337 -0.1019  0.1259 -0.0732
10677SOL    HW135529   0.520   1.684   7.263 -0.5200  1.3151 -0.4459
10677SOL    HW235530   0.511   1.652   7.411  0.7098  0.2128 -0.5894
10678SOL     OW35531   4.261   7.846   9.197 -0.0688 -1.1713 -0.5334
10678SOL    HW135532   4.331   7.856   9.262 -1.4550  1.8503  0.6844
10678SOL    HW235533   4.303   7.868   9.113  1.1515 -2.6683 -0.3622
10679SOL     OW35534   0.832   1.876   2.771 -0.3971  0.4669 -0.5877
10679SOL    HW135535   0.789   1.961   2.763  0.1398  0.6610 -1.6530
10679SOL    HW235536   0.762   1.817   2.801 -0.9613  1.1338 -0.5655
10680SOL     OW35537   0.494  10.183   3.964 -0.2147  0.2214 -0.5314
10680SOL    HW135538   0.528  10.163   3.877  0.6393  0.3013 -0.2237
10680SOL    HW235539   0.499  10.100   4.012 -0.3463  0.2610 -0.4469
10681SOL     OW35540   4.813   6.794   9.042 -0.4772  0.6738 -0.2536
10681SOL    HW135541   4.824   6.813   9.135 -0.1139  1.7875 -0.5140
10681SOL    HW235542   4.723   6.763   9.035 -0.5177  0.5974  0.4625
10682SOL     OW35543   3.571   2.300   5.238 -0.1583  0.1990  0.8063
10682SOL    HW135544   3.627   2.376   5.253 -1.1041  0.8516  1.0995
10682SOL    HW235545   3.615   2.228   5.284 -0.5755  1.1312  2.7658
10683SOL     OW35546   4.070   4.605   3.663  0.8560 -0.6642  0.2465
10683SOL    HW135547   4.050   4.525   3.616  1.7085 -0.9932  0.4192
10683SOL    HW235548   4.015   4.672   3.623 -0.5128 -1.5011  0.6782
10684SOL     OW35549   0.393   9.744   9.726 -0.5219 -0.4395  0.5388
10684SOL    HW135550   0.441   9.797   9.790 -1.9527  1.4181  0.1497
10684SOL    HW235551   0.341   9.807   9.677  0.0081 -1.8714 -2.0476
10685SOL     OW35552   3.233  10.015   3.661  0.5555  0.2697 -0.3307
10685SOL    HW135553   3.158  10.049   3.710  1.9739  0.9223  1.5023
10685SOL    HW235554   3.254   9.933   3.705  1.2952  0.3984 -0.4394
10686SOL     OW35555   8.004   3.796   5.307  0.5387  0.6669  0.4433
10686SOL    HW135556   8.019   3.887   5.283  0.3276  1.1054  1.9006
10686SOL    HW235557   8.070   3.777   5.374  0.4532 -0.1920  0.2986
10687SOL     OW35558   7.937   3.322   7.990  0.1703  0.5563 -0.0370
10687SOL    HW135559   7.893   3.278   8.063  0.0733  0.5836 -0.0784
10687SOL    HW235560   7.989   3.390   8.031 -1.1820  1.6839 -0.0925
10688SOL     OW35561   6.689   8.764   6.003 -0.3454 -0.8597 -0.0139
10688SOL    HW135562   6.668   8.803   6.088  0.8812  1.2007 -0.5818
10688SOL    HW235563   6.609   8.772   5.952 -0.7549 -1.1042  0.5736
10689SOL     OW35564   2.469   7.539   0.885  0.3621 -0.0110  0.4625
10689SOL    HW135565   2.453   7.611   0.824  0.4181 -0.7219 -0.4042
10689SOL    HW235566   2.558   7.553   0.916  0.0996  0.7344  0.9188
10690SOL     OW35567   8.195   7.113   6.406 -0.1862 -0.1852 -0.4820
10690SOL    HW135568   8.210   7.069   6.323 -0.6139 -0.1183 -0.5925
10690SOL    HW235569   8.108   7.085   6.434 -0.0317 -0.2346 -0.0431
10691SOL     OW35570   9.822   0.287   6.022 -0.0563  0.4134  0.0240
10691SOL    HW135571   9.847   0.375   5.993  2.1370 -0.3287 -0.5182
10691SOL    HW235572   9.752   0.262   5.962  2.6190 -0.0659 -3.2011
10692SOL     OW35573   6.344   7.307   4.766 -0.1650 -0.4654 -0.4574
10692SOL    HW135574   6.298   7.246   4.708 -1.3799  1.7120 -1.9537
10692SOL    HW235575   6.282   7.325   4.836  0.1074 -0.7650 -0.1356
10693SOL     OW35576   4.908   6.875   6.170 -0.0775  0.0507 -0.6167
10693SOL    HW135577   4.858   6.795   6.187  0.3690 -0.1557 -0.2482
10693SOL    HW235578   4.983   6.846   6.118  1.0451 -0.0709  1.0266
10694SOL     OW35579   9.227  10.845   2.418  0.2181 -0.0663 -0.3765
10694SOL    HW135580   9.316  10.837   2.452  0.8618  0.5634 -1.7981
10694SOL    HW235581   9.239  10.871   2.326 -1.4127 -1.0691 -0.9170
10695SOL     OW35582   8.289   9.873   6.194 -0.1080  0.3456 -0.5399
10695SOL    HW135583   8.315   9.965   6.185  1.0314  0.1423  0.3387
10695SOL    HW235584   8.370   9.824   6.182 -0.5491 -0.4951 -0.1874
10696SOL     OW35585   4.284   9.377   6.859  0.7333  0.4046 -0.5007
10696SOL    HW135586   4.361   9.322   6.875  1.4066  1.3424 -0.4712
10696SOL    HW235587   4.210   9.317   6.866  1.2787 -0.0670  1.8749
10697SOL     OW35588   1.242   7.961   4.343  0.3680 -0.1737 -0.0091
10697SOL    HW135589   1.322   8.011   4.323 -1.0189  1.4507 -1.8860
10697SOL    HW235590   1.253   7.878   4.295  0.8987  0.0753 -0.3285
10698SOL     OW35591   9.900   9.938   4.932 -0.2009 -0.2511  0.0445
10698SOL    HW135592   9.908   9.878   4.858 -2.7902 -0.5706 -0.0939
10698SOL    HW235593   9.860   9.885   5.001 -0.9582  0.8615  0.4985
10699SOL     OW35594  10.784   0.404  10.002 -0.5262  0.0716 -0.0239
10699SOL    HW135595  10.856   0.429  10.059 -0.7765 -0.5520  0.5803
10699SOL    HW235596  10.772   0.311  10.017 -0.2530 -0.2295 -1.5057
10700SOL     OW35597   2.320   4.443   2.767 -0.2653  0.7715 -0.1208
10700SOL    HW135598   2.304   4.447   2.672 -0.8803  1.0038 -0.0092
10700SOL    HW235599   2.233   4.441   2.806 -0.0131  1.1154  0.4666
10701SOL     OW35600   4.261  10.708   1.169  0.0768 -0.0722  0.4115
10701SOL    HW135601   4.336  10.650   1.185  1.0182  1.0868  0.3152
10701SOL    HW235602   4.225  10.725   1.255  0.4672  0.0781  0.5443
10702SOL     OW35603   4.561   7.458   3.947  0.0357 -0.3018  0.0146
10702SOL    HW135604   4.480   7.439   3.900 -1.0727  2.1184  0.7654
10702SOL    HW235605   4.539   7.444   4.039  1.6751 -3.3075  0.0927
10703SOL     OW35606   9.182   0.199   3.947 -0.5129  0.2522 -0.2867
10703SOL    HW135607   9.090   0.226   3.945 -0.3082  0.9906 -0.1371
10703SOL    HW235608   9.228   0.275   3.983 -0.2716 -1.3102  3.1530
10704SOL     OW35609   3.437   0.470   3.838  0.4917  0.4684  0.1463
10704SOL    HW135610   3.394   0.549   3.869  2.4918  1.4439  0.6294
10704SOL    HW235611   3.492   0.442   3.911  1.0167 -0.4594 -0.5725
10705SOL     OW35612   2.803   7.266   8.005 -0.5399 -0.1622  0.2529
10705SOL    HW135613   2.857   7.247   8.081 -1.0231  0.6959  0.8362
10705SOL    HW235614   2.743   7.191   7.998  0.9928 -1.3557 -0.6977
10706SOL     OW35615   5.678   2.968   3.982 -0.7030 -0.0589  0.0646
10706SOL    HW135616   5.716   2.892   3.939  1.2498  0.8588  0.0642
10706SOL    HW235617   5.646   2.935   4.066 -0.5273 -0.9913 -0.2305
10707SOL     OW35618   5.998   2.372   0.287 -0.1283  0.1192 -0.1181
10707SOL    HW135619   6.065   2.317   0.248 -0.6088 -0.0447 -0.7387
10707SOL    HW235620   5.929   2.376   0.221  0.4180  2.4772 -0.6294
10708SOL     OW35621  10.260   0.435   0.485 -0.4064  0.4014 -0.4251
10708SOL    HW135622  10.253   0.491   0.562  1.1368 -0.4725  0.4162
10708SOL    HW235623  10.176   0.388   0.482 -0.0221 -0.5572  1.5877
10709SOL     OW35624   1.192  10.006   2.439  0.0075 -0.1476  0.5894
10709SOL    HW135625   1.257   9.950   2.482  0.5300  0.9089  1.2288
10709SOL    HW235626   1.218  10.008   2.347 -0.2385 -1.2382  0.4853
10710SOL     OW35627   3.011   8.313   5.973  0.0548  0.2790  0.2023
10710SOL    HW135628   3.054   8.369   6.037  0.1659  1.5129 -0.8962
10710SOL    HW235629   3.070   8.313   5.897 -0.6886 -0.0342 -0.3971
10711SOL     OW35630   5.474   8.468   4.876  0.0400 -0.1717  0.4868
10711SOL    HW135631   5.558   8.514   4.886  0.1812 -0.4191  0.4445
10711SOL    HW235632   5.496   8.375   4.889 -0.6137 -0.0522  2.9533
10712SOL     OW35633   2.776   7.462   5.475 -0.0045 -0.0052  0.3126
10712SOL    HW135634   2.804   7.409   5.549  0.2527  1.7199  1.5147
10712SOL    HW235635   2.692   7.499   5.502  0.1654  0.7705 -0.1822
10713SOL     OW35636   3.105   4.658   7.324  0.3047 -0.3073  0.1331
10713SOL    HW135637   3.083   4.568   7.349  1.3457 -0.4885  0.4213
10713SOL    HW235638   3.071   4.666   7.235 -0.0497 -0.8920  0.2076
10714SOL     OW35639   9.798   6.598   5.183 -0.4606  0.5803  0.4044
10714SOL    HW135640   9.887   6.606   5.218 -0.0983 -0.8772 -0.1098
10714SOL    HW235641   9.806   6.533   5.113 -2.0382 -0.0217  0.7483
10715SOL     OW35642   9.126   7.842   0.636  0.4160 -0.1013  0.0232
10715SOL    HW135643   9.191   7.801   0.694  0.9199 -1.7676 -1.6346
10715SOL    HW235644   9.045   7.794   0.653  0.5046 -0.4286 -0.4720
10716SOL     OW35645   6.322   6.336   5.916  0.6493 -0.1791 -0.3059
10716SOL    HW135646   6.388   6.284   5.962  0.7345 -1.2710 -1.5703
10716SOL    HW235647   6.372   6.387   5.853  0.4830  0.8059  0.3511
10717SOL     OW35648  10.837   5.581  10.660 -0.3226  0.1428  0.1415
10717SOL    HW135649  10.782   5.578  10.738  0.2054 -0.9370  0.4889
10717SOL    HW235650  10.845   5.490  10.632 -1.8912  0.6131 -2.2006
10718SOL     OW35651   7.892   6.193   3.997  0.5320  0.2010  0.5596
10718SOL    HW135652   7.830   6.266   4.000 -0.5208 -0.6512  0.1371
10718SOL    HW235653   7.945   6.210   3.919 -1.6127 -0.9257 -1.2588
10719SOL     OW35654   5.037   2.611   3.999 -0.1766 -0.1637 -0.0406
10719SOL    HW135655   4.957   2.589   3.953  0.2761 -1.7234 -0.1341
10719SOL    HW235656   5.102   2.549   3.966  1.0758  1.0397  0.0495
10720SOL     OW35657   8.191   0.179   6.178  0.0764 -0.2245  0.4987
10720SOL    HW135658   8.247   0.250   6.209  0.3197 -0.5894  0.9059
10720SOL    HW235659   8.244   0.132   6.114 -0.5171  0.6839 -0.7095
10721SOL     OW35660   9.795   1.777   9.279  0.0222  0.4878 -0.0591
10721SOL    HW135661   9.708   1.793   9.245 -0.0890  2.0265  0.8271
10721SOL    HW235662   9.781   1.719   9.355 -0.5407  2.4061  1.3891
10722SOL     OW35663   7.754   7.284   0.023  0.1011 -0.1180 -0.1568
10722SOL    HW135664   7.711   7.350  -0.031 -0.8128 -2.7616 -3.0012
10722SOL    HW235665   7.843   7.317   0.036 -0.2806  1.6002 -1.5181
10723SOL     OW35666   9.437   7.075   7.996 -0.5062 -0.2604  1.0763
10723SOL    HW135667   9.368   7.022   7.955 -1.4051  1.8555 -0.3518
10723SOL    HW235668   9.517   7.049   7.951 -0.9977 -0.1239  0.0934
10724SOL     OW35669   3.590   5.716   0.653  0.4048 -0.1866  0.0349
10724SOL    HW135670   3.535   5.685   0.725 -1.2002  1.5715 -0.3484
10724SOL    HW235671   3.638   5.790   0.689 -0.6087  0.8807 -0.6896
10725SOL     OW35672   7.072   3.807   6.183  0.1744  0.3893  0.3264
10725SOL    HW135673   7.154   3.846   6.212  0.1734  0.4877  0.1996
10725SOL    HW235674   7.010   3.881   6.180  0.3824  0.5411 -0.7063
10726SOL     OW35675   6.446   8.429   5.770 -0.5019 -0.0564  0.0706
10726SOL    HW135676   6.445   8.429   5.675  0.1649 -1.3856  0.0382
10726SOL    HW235677   6.381   8.363   5.795  0.1921 -0.5905  0.5000
10727SOL     OW35678   9.262   3.100   8.617  0.3138 -0.0235 -0.1143
10727SOL    HW135679   9.189   3.143   8.572 -0.1989  0.6694  1.3391
10727SOL    HW235680   9.291   3.033   8.555 -2.2334 -1.0488 -0.3563
10728SOL     OW35681   7.176   8.332   3.016  0.4446  0.3297 -0.2340
10728SOL    HW135682   7.093   8.353   2.974  0.2827  1.0161  0.4095
10728SOL    HW235683   7.242   8.351   2.950  0.0967 -0.3348 -0.7944
10729SOL     OW35684   7.692   7.490   5.435 -0.9525 -0.6885  0.0274
10729SOL    HW135685   7.648   7.533   5.362 -0.6722 -0.9237 -0.2871
10729SOL    HW235686   7.670   7.543   5.511  0.5035  0.8296 -0.5420
10730SOL     OW35687   2.670   1.261  10.816  0.1320 -0.0757 -0.0986
10730SOL    HW135688   2.579   1.246  10.789 -0.0937 -1.5610  1.3353
10730SOL    HW235689   2.668   1.252  10.911  1.9783 -1.1761 -0.1349
10731SOL     OW35690   6.028   7.302  10.661  0.5777 -0.0493 -0.4609
10731SOL    HW135691   5.998   7.253  10.737 -0.1022 -1.2438 -1.4791
10731SOL    HW235692   6.044   7.390  10.695  2.6778 -1.1179  1.6105
10732SOL     OW35693   6.056   1.374   1.589  0.6317 -0.2674 -0.7643
10732SOL    HW135694   6.084   1.282   1.584  0.6028 -0.3808  0.7629
10732SOL    HW235695   6.030   1.386   1.680  0.1702  1.1373 -1.0624
10733SOL     OW35696   3.660   5.108   1.178 -0.0623 -0.3307  0.4493
10733SOL    HW135697   3.593   5.145   1.234  0.3625  0.1285  0.6562
10733SOL    HW235698   3.729   5.079   1.238 -0.0620 -0.7786  0.2381
10734SOL     OW35699   5.133   7.853   1.006  0.3869 -0.4170 -0.9424
10734SOL    HW135700   5.105   7.803   1.083  0.3776  0.1050 -0.5994
10734SOL    HW235701   5.093   7.939   1.018  0.4270 -0.3173 -1.5105
10735SOL     OW35702   1.814  10.675   5.167 -0.0252 -0.0674  0.3723
10735SOL    HW135703   1.794  10.696   5.258  1.8166  0.8567  0.6307
10735SOL    HW235704   1.757  10.732   5.116 -1.4758 -0.9947  0.9129
10736SOL     OW35705  10.950   8.794   5.921 -1.0588  0.1876  0.2718
10736SOL    HW135706  10.945   8.723   5.857 -0.1153  2.4048 -2.4790
10736SOL    HW235707  10.866   8.840   5.911 -1.4044 -0.1196  1.5720
10737SOL     OW35708   5.746   6.622   5.188 -0.2884  0.8377 -0.8483
10737SOL    HW135709   5.661   6.628   5.146 -1.2104  1.0662  0.9584
10737SOL    HW235710   5.754   6.530   5.214 -0.5853  1.0750  0.1274
10738SOL     OW35711   0.421  10.593   2.083 -0.1047 -0.0579 -0.1348
10738SOL    HW135712   0.501  10.546   2.108 -0.0816  0.3312  0.5558
10738SOL    HW235713   0.427  10.677   2.129 -0.9277 -0.0365 -0.0508
10739SOL     OW35714   2.982   8.531   0.069 -0.0568 -0.4419 -0.5014
10739SOL    HW135715   2.924   8.455   0.062 -2.3240  1.2825 -1.8127
10739SOL    HW235716   3.026   8.536  -0.016  0.3357 -0.4570 -0.3036
10740SOL     OW35717   4.330   2.588   9.922 -0.1700 -0.1986 -0.2118
10740SOL    HW135718   4.425   2.601   9.927 -0.2276  0.9131 -1.2584
10740SOL    HW235719   4.294   2.677   9.923 -1.4283 -0.6349  2.9873
10741SOL     OW35720   1.158   9.910   6.547 -0.4960 -0.2396 -0.1883
10741SOL    HW135721   1.076   9.880   6.507 -0.8507  0.6016 -0.1241
10741SOL    HW235722   1.131   9.982   6.604  0.5041  1.3559 -1.6300
10742SOL     OW35723   6.279   5.601   2.385  0.3130 -0.3653 -0.0030
10742SOL    HW135724   6.248   5.546   2.458  0.3389 -0.9077 -0.3989
10742SOL    HW235725   6.210   5.667   2.376  0.3398 -0.2503  0.5561
10743SOL     OW35726   3.327   6.459   2.796  0.3685 -0.0292  0.4933
10743SOL    HW135727   3.285   6.530   2.844 -0.8022 -0.6108  0.3473
10743SOL    HW235728   3.410   6.497   2.766  0.6272  0.6960  1.9985
10744SOL     OW35729   4.397   0.487   4.059 -0.0728  0.1575 -0.3466
10744SOL    HW135730   4.484   0.528   4.059  1.0420 -1.9439  1.7428
10744SOL    HW235731   4.343   0.545   4.006  2.2035  2.4204 -0.3891
10745SOL     OW35732   4.004   2.344   0.112 -0.0878 -0.2056 -0.4074
10745SOL    HW135733   3.959   2.421   0.148 -0.1450 -1.0877  1.5437
10745SOL    HW235734   3.971   2.336   0.023 -1.0486  1.2850 -0.2145
10746SOL     OW35735   4.774   0.842   8.576  0.0385  0.0854 -0.2971
10746SOL    HW135736   4.748   0.861   8.486 -2.7778  2.0684  0.7748
10746SOL    HW235737   4.793   0.928   8.613 -2.0932 -0.2389  1.8034
10747SOL     OW35738   7.910   7.811  10.647 -0.1510 -0.0820  0.1441
10747SOL    HW135739   7.851   7.875  10.607  0.7873  0.0568 -1.0874
10747SOL    HW235740   7.890   7.814  10.740  1.1506  3.4210  0.4436
10748SOL     OW35741  10.056   2.046   8.910  0.0123 -0.7558 -0.5208
10748SOL    HW135742  10.027   2.089   8.990  0.8994  0.1556 -0.6694
10748SOL    HW235743  10.151   2.040   8.919  0.0777 -1.0539 -1.3044
10749SOL     OW35744   2.648   3.399   4.819  0.4084  0.0397  0.2246
10749SOL    HW135745   2.574   3.384   4.760  0.5775  0.0106  0.0201
10749SOL    HW235746   2.664   3.493   4.814  0.3636  0.0510  0.2948
10750SOL     OW35747   4.182   4.289   1.507  0.4672  0.0100  0.3693
10750SOL    HW135748   4.235   4.368   1.522  1.6968 -0.1209 -2.6016
10750SOL    HW235749   4.246   4.221   1.485 -0.7620 -0.7086 -1.2137
10751SOL     OW35750  10.220   8.263   7.302 -0.3463 -0.4916 -0.3947
10751SOL    HW135751  10.160   8.337   7.297 -1.2590 -1.1726  0.1983
10751SOL    HW235752  10.165   8.189   7.325  0.9939 -0.7312  2.5337
10752SOL     OW35753   0.807   4.183   2.066  0.1025  0.5316 -1.3688
10752SOL    HW135754   0.806   4.131   1.985  1.8612 -1.9369  0.0261
10752SOL    HW235755   0.801   4.118   2.136  0.5420  2.3991  0.5179
10753SOL     OW35756   2.997   9.204   1.472 -0.5141  0.1345  0.5253
10753SOL    HW135757   3.026   9.283   1.517  1.2254 -1.0943  1.6980
10753SOL    HW235758   2.916   9.179   1.518 -0.7410  0.9060  0.5463
10754SOL     OW35759   3.332   1.141   0.888  0.3730  0.7037  0.1146
10754SOL    HW135760   3.254   1.101   0.925 -0.8572  1.9679 -0.9687
10754SOL    HW235761   3.351   1.214   0.947  0.1459  0.9728 -0.1408
10755SOL     OW35762   9.436   6.105   0.330  0.5107 -0.5235  0.3721
10755SOL    HW135763   9.508   6.116   0.393  2.7412 -2.2863 -1.6813
10755SOL    HW235764   9.425   6.010   0.323 -0.6761 -0.3197 -0.8454
10756SOL     OW35765   2.939   5.235   6.651 -0.3442 -0.0229  0.8879
10756SOL    HW135766   2.871   5.279   6.702  0.3042 -1.0013  2.6920
10756SOL    HW235767   2.895   5.160   6.611 -0.9290  0.9274 -0.2976
10757SOL     OW35768   5.186   4.534   6.359  0.3598  0.1977  0.0558
10757SOL    HW135769   5.093   4.547   6.379  0.1224  0.7395 -1.3018
10757SOL    HW235770   5.194   4.440   6.346 -0.5209  0.3486 -2.0515
10758SOL     OW35771   2.249   3.075   2.161  0.0445 -0.0454 -0.4275
10758SOL    HW135772   2.167   3.069   2.211  0.3521  0.6974  0.1785
10758SOL    HW235773   2.316   3.041   2.221  0.4642  1.1425 -0.2100
10759SOL     OW35774   5.056   2.619   4.386  0.7954  0.0684 -0.1268
10759SOL    HW135775   5.116   2.545   4.373  0.9756  0.1139  0.4322
10759SOL    HW235776   5.051   2.630   4.481 -1.3408 -0.9593 -0.0547
10760SOL     OW35777   5.550   7.560   4.026 -0.4759 -0.5397 -0.0630
10760SOL    HW135778   5.490   7.513   4.084  0.5169  0.1886  1.6264
10760SOL    HW235779   5.537   7.652   4.047  0.1739 -0.2769 -0.7534
10761SOL     OW35780   6.640   9.372   6.498 -0.3863 -0.3929  0.7365
10761SOL    HW135781   6.570   9.321   6.457 -0.7839  1.1679 -0.6319
10761SOL    HW235782   6.674   9.427   6.428  2.8824 -1.6846  1.0926
10762SOL     OW35783   0.073   5.390   9.521 -0.2342  0.3002  0.5881
10762SOL    HW135784   0.164   5.362   9.515 -0.0285  1.2480 -1.9223
10762SOL    HW235785   0.067   5.434   9.606  1.0782 -1.5431  1.6983
10763SOL     OW35786   0.914   2.232   8.819 -0.0928  0.6532 -0.0988
10763SOL    HW135787   0.834   2.269   8.859 -1.0283  0.2998 -1.5769
10763SOL    HW235788   0.937   2.295   8.751  0.5345  0.4231 -0.0993
10764SOL     OW35789   2.593   7.014   1.150  0.5534 -0.3337 -0.1997
10764SOL    HW135790   2.556   7.049   1.230  0.6028 -0.7705  0.0202
10764SOL    HW235791   2.652   6.944   1.179 -0.3156 -1.2907 -0.6722
10765SOL     OW35792  10.332   6.345   1.690  0.2556  0.8506 -0.5804
10765SOL    HW135793  10.248   6.316   1.726 -0.9346  1.2834 -2.8568
10765SOL    HW235794  10.397   6.292   1.736 -1.3250 -0.2637  0.4753
10766SOL     OW35795   3.629   9.183   6.718  1.1547 -0.1557 -0.7886
10766SOL    HW135796   3.622   9.192   6.813  1.7208 -0.4990 -0.7107
10766SOL    HW235797   3.540   9.198   6.686  1.4757  2.9926 -0.4798
10767SOL     OW35798   3.076   7.616   9.638 -0.2836 -0.1592 -0.0536
10767SOL    HW135799   3.046   7.542   9.586 -0.9790  0.8796 -1.1854
10767SOL    HW235800   3.149   7.653   9.588 -0.1617  0.1349  0.3323
10768SOL     OW35801   1.177   6.738   5.669 -0.0182 -0.1739  0.1826
10768SOL    HW135802   1.144   6.648   5.659  0.8295 -0.5218  0.4301
10768SOL    HW235803   1.250   6.743   5.608 -1.4642  1.0972 -1.5555
10769SOL     OW35804   1.587   5.470   5.567 -0.0952  0.1195 -0.0569
10769SOL    HW135805   1.636   5.542   5.605 -0.6649  0.1556  0.6464
10769SOL    HW235806   1.600   5.397   5.628  0.4424 -0.3681 -0.7351
10770SOL     OW35807   1.083   0.195   5.633  0.1740 -0.2505  0.3650
10770SOL    HW135808   1.021   0.268   5.646 -2.2331 -2.3453  1.6343
10770SOL    HW235809   1.080   0.178   5.539  0.1329  0.7433  0.1680
10771SOL     OW35810   1.063   5.994   0.346  0.2874  0.7291 -0.2512
10771SOL    HW135811   1.142   5.952   0.381 -0.3554 -0.9068 -0.6703
10771SOL    HW235812   1.064   5.973   0.253 -1.2337 -0.3282 -0.0546
10772SOL     OW35813   7.659   3.921   1.769  0.5096 -0.6235  0.5968
10772SOL    HW135814   7.621   3.937   1.856 -0.1715 -1.8623  0.5523
10772SOL    HW235815   7.667   3.826   1.763 -0.2086 -0.6214 -1.0059
10773SOL     OW35816   1.530   6.431   5.651 -0.0460  0.6295  0.3213
10773SOL    HW135817   1.477   6.351   5.658  1.3217 -0.3777 -0.3230
10773SOL    HW235818   1.593   6.424   5.723  0.8631  0.4950 -0.4701
10774SOL     OW35819   8.738   4.199   3.798  0.0216 -0.1018 -0.4159
10774SOL    HW135820   8.742   4.177   3.705 -0.7701  1.3319 -0.8118
10774SOL    HW235821   8.652   4.239   3.810  0.0332 -0.4330  0.9845
10775SOL     OW35822   1.800   9.641   0.270  0.7658  0.0968 -0.5070
10775SOL    HW135823   1.780   9.623   0.179 -2.0398 -0.4939  0.1487
10775SOL    HW235824   1.832   9.558   0.304 -1.1392 -0.5816 -0.2661
10776SOL     OW35825   6.919   3.871   2.766  0.2361 -0.1285  0.4645
10776SOL    HW135826   6.823   3.879   2.770  0.2276 -0.5797  1.3407
10776SOL    HW235827   6.945   3.847   2.855  1.0523 -1.1951 -0.0392
10777SOL     OW35828   2.449   5.668   0.141 -0.3603 -0.9130 -0.0469
10777SOL    HW135829   2.533   5.714   0.128 -1.5818  1.3957 -0.2509
10777SOL    HW235830   2.432   5.626   0.057  0.3874 -1.0838 -0.1278
10778SOL     OW35831   4.033  10.282   4.571 -0.1877  0.0214  0.2582
10778SOL    HW135832   4.076  10.211   4.619  0.7632 -1.0062 -2.0032
10778SOL    HW235833   4.102  10.320   4.517 -1.6100 -0.1728 -1.7798
10779SOL     OW35834   7.470   6.206   9.366 -0.1433  0.5523  0.1362
10779SOL    HW135835   7.475   6.279   9.304  0.3288  0.1628 -0.2813
10779SOL    HW235836   7.472   6.127   9.312 -2.7322  0.2100  0.4211
10780SOL     OW35837   4.923   9.910   4.087  0.0097 -0.2686 -0.4156
10780SOL    HW135838   4.833   9.937   4.106 -0.5213 -1.0868 -1.6737
10780SOL    HW235839   4.926   9.818   4.114  0.7914  0.0293  0.5827
10781SOL     OW35840   5.933   8.634   7.473 -0.8484  0.1973 -0.3625
10781SOL    HW135841   5.923   8.539   7.483  1.0018  0.0002 -0.0572
10781SOL    HW235842   5.989   8.644   7.397  0.5610  0.9381  0.7271
10782SOL     OW35843   5.404  10.207  10.093 -0.0640 -0.6696  0.3795
10782SOL    HW135844   5.399  10.256  10.011 -1.0819  0.4719  1.0954
10782SOL    HW235845   5.498  10.208  10.116  0.0662  0.0331 -0.1629
10783SOL     OW35846   2.760   5.101   1.772  0.4647  0.4667 -0.5080
10783SOL    HW135847   2.810   5.073   1.695  0.5679  0.7621 -0.5537
10783SOL    HW235848   2.822   5.156   1.821  0.8189 -0.7638  0.4543
10784SOL     OW35849  10.336   2.962   9.671  0.2414  0.4114  0.0173
10784SOL    HW135850  10.308   3.031   9.611  0.4010  1.4815  1.1410
10784SOL    HW235851  10.373   3.008   9.746  1.1098 -0.9107  0.4450
10785SOL     OW35852   9.175   5.108  10.579 -0.3116  0.4977  0.3223
10785SOL    HW135853   9.268   5.089  10.572 -0.4316 -0.2530  0.6371
10785SOL    HW235854   9.136   5.070  10.500 -0.6288 -1.1702  1.2176
10786SOL     OW35855   7.600   2.553   9.726 -0.0650 -0.0851  0.0534
10786SOL    HW135856   7.633   2.639   9.699 -2.6751  0.3020 -2.3444
10786SOL    HW235857   7.667   2.492   9.695  1.4833  0.9625  1.1485
10787SOL     OW35858   9.799   1.352   8.220 -0.1914  0.5683  0.1353
10787SOL    HW135859   9.747   1.403   8.282 -0.1428  1.3479 -0.4516
10787SOL    HW235860   9.751   1.359   8.138 -0.4641 -0.7855  0.1608
10788SOL     OW35861   2.185  10.794   8.351  0.2239  0.2757  0.4533
10788SOL    HW135862   2.255  10.758   8.296  0.7980 -0.2272  1.4949
10788SOL    HW235863   2.229  10.859   8.406 -0.1651  0.0910  0.9799
10789SOL     OW35864   9.191   7.555   9.324 -0.2697  0.1542 -0.1115
10789SOL    HW135865   9.248   7.627   9.297  0.5029 -0.1616  0.6416
10789SOL    HW235866   9.240   7.510   9.393 -1.0414 -0.6753 -0.0879
10790SOL     OW35867  10.649   5.398   7.925 -0.3028  0.4995 -0.1948
10790SOL    HW135868  10.695   5.457   7.985 -0.8077  0.7010  0.0006
10790SOL    HW235869  10.708   5.390   7.850 -0.6610  2.0735 -0.6788
10791SOL     OW35870   8.294   3.320   8.765 -0.1886 -0.2935  0.3458
10791SOL    HW135871   8.265   3.330   8.674  0.1582 -0.6334  0.1943
10791SOL    HW235872   8.389   3.309   8.759 -0.1718 -0.3931  0.7462
10792SOL     OW35873   9.796   6.859   5.815  0.2485  0.3605  0.3812
10792SOL    HW135874   9.885   6.849   5.781 -0.4392  1.5691 -1.9374
10792SOL    HW235875   9.740   6.841   5.740 -1.4775  0.2143  1.6593
10793SOL     OW35876   7.074   3.002   8.134 -0.0180  0.2606  0.2340
10793SOL    HW135877   7.035   2.994   8.047  1.2124 -1.5320 -0.2331
10793SOL    HW235878   7.099   2.912   8.156  1.9814  1.0332  1.3288
10794SOL     OW35879   6.826   1.202   3.317 -0.0323  0.0330 -0.1538
10794SOL    HW135880   6.830   1.144   3.241  0.2269  0.3772 -0.4013
10794SOL    HW235881   6.842   1.144   3.392  0.7902 -0.1238 -0.4395
10795SOL     OW35882   7.280   6.694  10.493  0.3068 -0.0638 -0.3102
10795SOL    HW135883   7.316   6.665  10.409  0.7377 -0.5420  0.0321
10795SOL    HW235884   7.186   6.698  10.478  0.4100  0.1534 -0.9069
10796SOL     OW35885   0.834   1.663  10.289 -0.2586 -0.1002 -0.3284
10796SOL    HW135886   0.883   1.647  10.208 -0.6740  1.0779 -0.8452
10796SOL    HW235887   0.814   1.757  10.286  0.4871  0.1576  1.5804
10797SOL     OW35888   8.477  10.106   5.824  0.0738 -0.5934  0.3572
10797SOL    HW135889   8.484  10.026   5.772  0.6252 -0.2706 -0.0751
10797SOL    HW235890   8.482  10.177   5.760  0.0239 -0.2047  0.7786
10798SOL     OW35891   5.816   9.854   1.908 -0.6475  0.2517 -0.0405
10798SOL    HW135892   5.750   9.921   1.891  0.0273  0.6666 -1.0775
10798SOL    HW235893   5.785   9.777   1.861  0.4912  0.9810 -2.1163
10799SOL     OW35894   7.174   6.249   3.061 -0.0557  0.1870 -0.5200
10799SOL    HW135895   7.259   6.282   3.090  0.8576 -2.4716  0.0790
10799SOL    HW235896   7.124   6.328   3.040  0.4655  2.3073  4.6901
10800SOL     OW35897   5.198   7.001   1.648  0.1016  0.0067 -0.3496
10800SOL    HW135898   5.173   7.092   1.660  0.6435  0.0001  1.0708
10800SOL    HW235899   5.117   6.957   1.623 -0.4083  0.6944  0.0455
10801SOL     OW35900  10.596   5.647   3.218 -0.3227  0.0990  0.1600
10801SOL    HW135901  10.623   5.637   3.127 -1.4648 -0.5290 -0.1244
10801SOL    HW235902  10.518   5.702   3.215 -1.1317 -0.9774  0.6154
10802SOL     OW35903   5.313   6.873   6.119 -0.4776  0.1228 -0.2088
10802SOL    HW135904   5.277   6.931   6.186  0.2591  0.5736 -0.1896
10802SOL    HW235905   5.335   6.792   6.165 -1.0245  0.0177 -0.1321
10803SOL     OW35906   4.836   0.097   3.522 -0.0381  0.1392 -0.0750
10803SOL    HW135907   4.814   0.119   3.612 -0.3380  0.0504 -0.1270
10803SOL    HW235908   4.894   0.168   3.493 -1.0472  0.8976 -0.2692
10804SOL     OW35909   9.334   1.873  10.397 -0.6996 -0.5371  0.3330
10804SOL    HW135910   9.309   1.821  10.473  0.0370  0.6648  1.4560
10804SOL    HW235911   9.421   1.906  10.419  0.6147 -2.1292 -2.1199
10805SOL     OW35912   7.236  10.746   2.536  0.6584  0.6962 -0.1073
10805SOL    HW135913   7.283  10.698   2.469  0.0596 -0.4530  0.2787
10805SOL    HW235914   7.279  10.721   2.618 -0.4513 -0.1792  0.2232
10806SOL     OW35915   4.127   7.176   8.326 -0.3816  0.0695  0.1831
10806SOL    HW135916   4.086   7.130   8.400 -0.7880  1.5889  0.9472
10806SOL    HW235917   4.208   7.127   8.309 -1.6699 -2.0351 -0.3043
10807SOL     OW35918   1.616   1.355   4.582  0.0589 -0.0160 -0.1726
10807SOL    HW135919   1.589   1.437   4.623 -0.8487  0.1429 -1.0611
10807SOL    HW235920   1.664   1.383   4.504  0.2518 -0.3426 -0.1724
10808SOL     OW35921   0.717   4.060  10.953 -0.2498 -0.1697 -0.4462
10808SOL    HW135922   0.791   4.080  10.896  0.0542  0.9534  0.3170
10808SOL    HW235923   0.706   3.965  10.946 -0.4906 -0.0322 -2.6861
10809SOL     OW35924   7.589   2.055   1.648  0.1633  0.3150  0.3132
10809SOL    HW135925   7.524   2.122   1.626 -1.0618 -1.1891 -0.9097
10809SOL    HW235926   7.646   2.051   1.571 -0.9346 -1.3198 -0.4615
10810SOL     OW35927   6.062   1.543   2.888  0.1643 -0.0815 -0.2700
10810SOL    HW135928   5.983   1.493   2.909  0.2459 -0.0962  0.0135
10810SOL    HW235929   6.105   1.493   2.820  1.0075 -1.1991  1.0233
10811SOL     OW35930   7.763   4.282   9.683  0.1088  0.1357 -0.2904
10811SOL    HW135931   7.673   4.297   9.714  0.0969  1.9393 -1.0556
10811SOL    HW235932   7.816   4.343   9.734  0.9787 -1.1738  0.4101
10812SOL     OW35933   0.243   4.019   1.891 -0.0448 -0.1196 -0.4387
10812SOL    HW135934   0.172   3.962   1.919  0.6250 -0.3816  0.7989
10812SOL    HW235935   0.200   4.087   1.839 -1.0940 -0.6953 -0.3478
10813SOL     OW35936   7.202   1.565   2.703  0.2050  0.3904 -0.2134
10813SOL    HW135937   7.192   1.521   2.787  0.3684  0.2130 -0.2870
10813SOL    HW235938   7.250   1.503   2.648  1.2519  1.0030 -0.0351
10814SOL     OW35939   8.287   6.049   1.612  0.4553 -0.2057  0.4437
10814SOL    HW135940   8.245   5.998   1.542 -0.6249  0.0870  0.8688
10814SOL    HW235941   8.215   6.087   1.661  1.2245  0.2903  1.2157
10815SOL     OW35942   1.528   7.648   0.681  0.0420  0.4245  0.3388
10815SOL    HW135943   1.554   7.718   0.621 -0.2908  0.0117 -0.2943
10815SOL    HW235944   1.437   7.630   0.658  0.4008 -0.8492 -0.1317
10816SOL     OW35945   1.125   9.914   1.421  0.1253 -0.0520  0.6413
10816SOL    HW135946   1.076   9.833   1.411  0.8910 -0.8045  2.5812
10816SOL    HW235947   1.059   9.978   1.448  0.0113 -0.8835  2.5090
10817SOL     OW35948   5.554   2.641   9.420 -1.1658 -0.8612  0.3565
10817SOL    HW135949   5.570   2.634   9.514 -0.9050 -0.7311  0.3235
10817SOL    HW235950   5.461   2.618   9.409 -1.0361 -1.4881  0.5699
10818SOL     OW35951   0.134   1.150   8.054  0.1188 -0.7541 -0.5021
10818SOL    HW135952   0.152   1.158   8.147 -0.1577  0.2320 -0.5308
10818SOL    HW235953   0.074   1.221   8.034  1.0731 -0.2472 -1.6609
10819SOL     OW35954   3.917   3.375   2.828 -0.1120  0.1519  0.3098
10819SOL    HW135955   3.979   3.439   2.792 -0.1203  1.5280  2.5545
10819SOL    HW235956   3.842   3.377   2.768  0.4154  1.3029 -0.3333
10820SOL     OW35957   5.527  10.336   9.451 -0.1279  0.2545 -0.5260
10820SOL    HW135958   5.620  10.353   9.469 -0.2708  0.0844  0.4003
10820SOL    HW235959   5.525  10.243   9.426 -0.3526 -0.4252  1.8399
10821SOL     OW35960   7.978   5.704   5.133 -0.1899  0.4187 -0.0268
10821SOL    HW135961   7.896   5.664   5.160 -0.9171  0.4704 -2.0155
10821SOL    HW235962   8.042   5.674   5.198 -1.5059 -0.6952  0.7993
10822SOL     OW35963  10.096   4.100   1.512  0.1776  0.3698  0.7677
10822SOL    HW135964  10.185   4.095   1.477 -0.4175  0.2493 -0.7695
10822SOL    HW235965  10.104   4.156   1.589  1.4671  0.8973  0.2722
10823SOL     OW35966   5.750   2.407   0.612 -0.0157 -0.0080  0.3609
10823SOL    HW135967   5.792   2.467   0.674  0.4385  1.6805 -1.4939
10823SOL    HW235968   5.710   2.464   0.546 -1.7499 -1.6998 -0.1463
10824SOL     OW35969   5.348  10.854   4.555 -0.2749  0.3348  0.1081
10824SOL    HW135970   5.289  10.921   4.590 -0.7763 -0.1217  0.1606
10824SOL    HW235971   5.335  10.779   4.613 -1.7463 -0.7255 -1.5081
10825SOL     OW35972   1.970   5.214   0.320 -0.1822 -0.2342  0.2792
10825SOL    HW135973   1.987   5.290   0.376  0.4302 -0.6800  0.7088
10825SOL    HW235974   2.009   5.140   0.367  0.9990 -0.5055 -1.0582
10826SOL     OW35975   9.324   5.518   3.831  0.4051 -0.0301  0.3529
10826SOL    HW135976   9.367   5.602   3.846  1.0219 -0.3220  0.2140
10826SOL    HW235977   9.251   5.517   3.893  0.7455  0.3569  0.7595
10827SOL     OW35978   0.632  10.889   2.018  0.4106 -0.3100  0.0263
10827SOL    HW135979   0.699  10.938   1.970  0.4973 -1.4978 -1.1553
10827SOL    HW235980   0.595  10.829   1.952 -3.7274  2.0581 -0.1503
10828SOL     OW35981   6.360   7.796  10.783 -0.0412 -0.6726 -0.4428
10828SOL    HW135982   6.401   7.812  10.698 -1.8764 -3.3822 -1.9993
10828SOL    HW235983   6.434   7.791  10.844  1.4904 -0.2990 -2.1543
10829SOL     OW35984   9.282   2.161   8.883 -0.3976 -0.1294 -0.3846
10829SOL    HW135985   9.212   2.154   8.947  1.2961 -0.3978  1.5581
10829SOL    HW235986   9.254   2.232   8.824 -2.4425 -0.5312  0.0414
10830SOL     OW35987   9.682   2.434   9.887  0.0504 -0.0838 -0.1673
10830SOL    HW135988   9.778   2.437   9.891  0.1307  1.8921 -1.8604
10830SOL    HW235989   9.663   2.347   9.851  0.9347 -1.8621  3.1696
10831SOL     OW35990   6.615   6.033   8.209 -0.2189 -0.2601  0.0316
10831SOL    HW135991   6.627   5.971   8.137  0.2753 -0.0658 -0.0608
10831SOL    HW235992   6.570   5.984   8.277 -1.7670 -0.1430 -0.8424
10832SOL     OW35993   0.047   8.669   1.365 -0.3306  0.6377 -0.1696
10832SOL    HW135994   0.101   8.607   1.415  0.5937  0.8900 -0.8242
10832SOL    HW235995  -0.033   8.621   1.346 -0.1651  0.0946  0.4575
10833SOL     OW35996   5.480   4.348   4.790 -0.0808  0.0051  0.2273
10833SOL    HW135997   5.460   4.313   4.877 -0.0109  1.4223  0.8471
10833SOL    HW235998   5.573   4.369   4.793 -0.0814  0.0771 -0.1853
10834SOL     OW35999   1.081   0.426   0.502 -0.2297  0.5125 -0.3502
10834SOL    HW136000   1.072   0.481   0.579  0.5601 -0.2311  0.3030
10834SOL    HW236001   0.992   0.402   0.479 -0.4134 -1.1070  1.7373
10835SOL     OW36002   9.321  10.259   0.347 -0.5484  0.2963  0.5407
10835SOL    HW136003   9.262  10.184   0.340  0.0273 -0.0501 -0.9920
10835SOL    HW236004   9.387  10.232   0.411  0.5111 -1.1483 -1.0806
10836SOL     OW36005  10.026   8.905   9.686  0.2749 -0.5503  0.1875
10836SOL    HW136006   9.995   8.908   9.776 -0.9352  0.9476 -0.2331
10836SOL    HW236007  10.074   8.822   9.679 -1.0338 -1.4882  1.7477
10837SOL     OW36008   4.480  10.014  10.155  0.5562 -0.0658 -0.2528
10837SOL    HW136009   4.434   9.992  10.074 -0.0435 -1.9849  0.5447
10837SOL    HW236010   4.505   9.929  10.192  0.8293  0.7625  1.5771
10838SOL     OW36011   8.127   4.587   9.049 -0.2464 -0.2958 -0.0456
10838SOL    HW136012   8.109   4.678   9.025  0.8494 -0.0154  0.1300
10838SOL    HW236013   8.108   4.537   8.969  0.0482  0.2042 -0.4366
10839SOL     OW36014   3.513   2.271   6.185 -0.1723 -0.0264 -0.6738
10839SOL    HW136015   3.598   2.254   6.226  0.1150  1.6806 -0.4748
10839SOL    HW236016   3.455   2.292   6.257 -0.5012 -0.2259 -0.8813
10840SOL     OW36017   3.371   4.867   8.689 -0.3536 -0.9041  0.5051
10840SOL    HW136018   3.387   4.931   8.620 -0.2973 -1.8756 -0.4106
10840SOL    HW236019   3.447   4.876   8.748  0.7294 -1.5572 -0.7421
10841SOL     OW36020   4.090   6.447   1.425  0.2698 -0.1206 -0.4345
10841SOL    HW136021   4.061   6.387   1.494  0.9844 -0.2058 -0.2059
10841SOL    HW236022   4.182   6.427   1.412  0.1895  0.0209 -1.2948
10842SOL     OW36023   2.577   4.617   0.248  0.0051  0.3926 -0.2431
10842SOL    HW136024   2.539   4.670   0.178 -1.1730 -0.3126 -0.1681
10842SOL    HW236025   2.501   4.591   0.302  0.6271 -0.8754  0.0458
10843SOL     OW36026  10.662   5.909   6.378 -0.5152  0.2166 -0.4757
10843SOL    HW136027  10.576   5.942   6.350 -0.4228 -1.2474 -2.7314
10843SOL    HW236028  10.667   5.821   6.340  2.1352  0.4037 -0.7040
10844SOL     OW36029   3.562   6.200   5.297 -0.3716  0.5157  0.1578
10844SOL    HW136030   3.613   6.184   5.218 -0.3060 -0.5017  0.3810
10844SOL    HW236031   3.482   6.242   5.266 -0.3759  0.0699 -0.4667
10845SOL     OW36032   0.292   4.999   8.437  0.0283  0.1748  0.0718
10845SOL    HW136033   0.284   5.010   8.532  0.7834 -0.9789  0.2873
10845SOL    HW236034   0.385   5.013   8.419 -0.0329 -0.0385 -0.4286
10846SOL     OW36035   4.768  10.888   4.686  0.1007 -0.2359  0.2993
10846SOL    HW136036   4.823  10.875   4.609 -0.5563 -0.4345 -0.1493
10846SOL    HW236037   4.802  10.827   4.750  1.1013  0.4203  0.4236
10847SOL     OW36038  10.001   9.345   5.456 -0.3869 -0.2020 -0.0840
10847SOL    HW136039  10.081   9.329   5.506 -1.0551 -0.6586  0.8707
10847SOL    HW236040   9.955   9.414   5.503 -0.4381  0.2454 -0.7714
10848SOL     OW36041   4.690   6.372   2.578 -0.1826  0.1596 -0.3617
10848SOL    HW136042   4.703   6.370   2.483  0.6138  0.2822 -0.2624
10848SOL    HW236043   4.626   6.303   2.595  0.1127 -0.2592 -0.9215
10849SOL     OW36044   1.719   6.034   0.958 -0.1421 -0.0974 -0.3199
10849SOL    HW136045   1.769   6.011   0.880  0.8458  2.4537 -0.5190
10849SOL    HW236046   1.650   6.093   0.926 -0.8788 -0.4801  0.5089
10850SOL     OW36047   8.912   9.364   5.698  0.3011  0.3332 -0.0689
10850SOL    HW136048   8.816   9.364   5.697  0.2951 -0.2770  0.5659
10850SOL    HW236049   8.936   9.433   5.636 -0.5406  0.0087 -0.7801
10851SOL     OW36050   1.057   2.212   5.113 -0.2856  0.0664  0.4336
10851SOL    HW136051   1.012   2.270   5.051 -0.8634  0.1626  0.9386
10851SOL    HW236052   0.995   2.201   5.185  0.9804  1.2078  1.7449
10852SOL     OW36053   8.830   6.249   6.431  0.4418  0.1948 -0.5689
10852SOL    HW136054   8.800   6.199   6.355  0.3763 -0.0290 -0.3971
10852SOL    HW236055   8.752   6.257   6.487  0.6606 -0.2743 -0.1833
10853SOL     OW36056   3.014   3.630   3.749  0.8402 -0.1141 -0.3204
10853SOL    HW136057   3.074   3.690   3.704 -0.7114  1.2239 -0.6945
10853SOL    HW236058   2.983   3.680   3.825  0.5430 -0.9503  0.1170
10854SOL     OW36059   5.315   7.921   1.648  0.1224 -0.2320 -0.1170
10854SOL    HW136060   5.259   7.934   1.572  0.2312 -0.5832 -0.2623
10854SOL    HW236061   5.336   8.009   1.679 -0.0773 -0.0926 -0.3805
10855SOL     OW36062   8.096   8.653   4.310 -0.1361 -0.4986  0.0835
10855SOL    HW136063   8.056   8.738   4.294  1.5351  0.4258  0.5901
10855SOL    HW236064   8.034   8.590   4.273 -1.2405  0.9393 -0.6190
10856SOL     OW36065   5.649   0.364   3.264 -0.7392  0.1679  0.0241
10856SOL    HW136066   5.620   0.339   3.177 -0.4291  1.1996 -0.3927
10856SOL    HW236067   5.619   0.454   3.275 -0.4680  0.1725  0.8417
10857SOL     OW36068   6.644   6.571   1.033 -0.2975  0.3498 -0.3640
10857SOL    HW136069   6.729   6.578   1.075 -0.0401  0.7043 -0.9313
10857SOL    HW236070   6.583   6.555   1.105  0.1132  1.0731  0.1622
10858SOL     OW36071   3.930   6.148   4.738  0.2645  0.1738  0.1774
10858SOL    HW136072   4.017   6.159   4.698 -0.0479  1.2761 -0.2338
10858SOL    HW236073   3.869   6.162   4.666 -0.2613 -0.5713  0.4746
10859SOL     OW36074   5.083   0.011   5.566  0.0417  0.1773 -0.1173
10859SOL    HW136075   5.036  -0.009   5.485  0.3951  1.6281 -0.7118
10859SOL    HW236076   5.114  -0.074   5.597 -2.2698 -0.7575 -0.1051
10860SOL     OW36077   9.725   6.053   6.529 -0.3108  0.3299  0.1299
10860SOL    HW136078   9.772   6.064   6.446  0.0611 -0.2438  0.2634
10860SOL    HW236079   9.766   6.117   6.588  0.9994 -0.8575  0.5359
10861SOL     OW36080   5.963   8.635   8.790 -0.0890  0.0900  0.2360
10861SOL    HW136081   5.949   8.542   8.769 -0.1629 -0.0134  0.7329
10861SOL    HW236082   5.894   8.656   8.853  0.7670  0.1083  1.1977
10862SOL     OW36083   0.429   1.414   1.229  0.3771  0.1899 -0.2320
10862SOL    HW136084   0.404   1.488   1.174  1.6682  0.0711 -1.0182
10862SOL    HW236085   0.488   1.452   1.295 -2.4275  0.6457  2.1953
10863SOL     OW36086   9.585   3.480   9.664 -0.5469  0.0386  0.2270
10863SOL    HW136087   9.613   3.484   9.756 -1.6639 -1.9469  0.7026
10863SOL    HW236088   9.666   3.471   9.615  0.1208  1.6989  0.9209
10864SOL     OW36089   1.806   9.167   2.538  0.1309 -0.3159 -0.3925
10864SOL    HW136090   1.869   9.228   2.576 -0.0666 -0.1301 -0.3615
10864SOL    HW236091   1.833   9.159   2.446  0.7773 -0.9768 -0.1545
10865SOL     OW36092   1.308   3.214   1.102 -0.0629 -0.5106  0.0752
10865SOL    HW136093   1.287   3.306   1.120 -0.3286 -0.2862 -1.2984
10865SOL    HW236094   1.387   3.197   1.153  0.5617  0.7818 -0.4268
10866SOL     OW36095   8.982   7.088   7.750 -0.4734 -0.0117  0.2515
10866SOL    HW136096   8.956   7.007   7.793  1.6358 -1.0698 -0.3508
10866SOL    HW236097   8.910   7.108   7.691  0.0000 -2.9096 -1.5058
10867SOL     OW36098   5.642   2.230   6.148 -0.0377 -0.4574 -0.4215
10867SOL    HW136099   5.633   2.285   6.071 -1.4388  2.0239  1.3891
10867SOL    HW236100   5.733   2.241   6.175 -0.1628  0.5630 -0.3856
10868SOL     OW36101   1.592   0.256   3.094  0.1279  0.4983  0.1405
10868SOL    HW136102   1.665   0.315   3.113  0.2717  1.2183 -2.3019
10868SOL    HW236103   1.525   0.313   3.056 -0.4203 -0.6272 -0.6310
10869SOL     OW36104   7.609   3.641   6.696 -0.2625 -0.5038 -0.2598
10869SOL    HW136105   7.630   3.661   6.787 -0.2744 -0.6188 -0.2321
10869SOL    HW236106   7.607   3.726   6.652 -2.5342 -0.1683  0.3254
10870SOL     OW36107   4.429   9.264   5.747  0.4286  0.0438  0.1973
10870SOL    HW136108   4.513   9.259   5.702  0.0447 -1.5596 -0.4018
10870SOL    HW236109   4.441   9.212   5.826  0.2609  0.5527  0.5608
10871SOL     OW36110   2.066   4.038   7.322  0.3252  0.1478  0.3734
10871SOL    HW136111   2.121   4.116   7.312 -0.3537  0.5696 -0.0693
10871SOL    HW236112   2.102   3.994   7.400 -0.2396  1.6961  1.5487
10872SOL     OW36113   3.983   9.515   4.684 -0.2135 -0.0289  0.1068
10872SOL    HW136114   3.939   9.456   4.745 -2.6449  1.1578 -0.3904
10872SOL    HW236115   3.983   9.468   4.601 -2.1971  0.6156 -0.3028
10873SOL     OW36116   5.718   1.317   4.427  0.2987 -0.3992  0.1042
10873SOL    HW136117   5.778   1.278   4.363  1.9486  0.4529  1.0755
10873SOL    HW236118   5.761   1.305   4.512 -1.7688 -1.3772  1.1006
10874SOL     OW36119   3.998   5.122   7.280 -0.0029  0.5982  0.6667
10874SOL    HW136120   4.042   5.169   7.351  0.6598 -0.4840  1.0006
10874SOL    HW236121   3.939   5.061   7.325 -1.1500  1.3621  0.2345
10875SOL     OW36122   1.177   6.889   0.689  0.1326 -0.3300 -0.3267
10875SOL    HW136123   1.270   6.870   0.689 -0.0762 -1.5701  1.3502
10875SOL    HW236124   1.166   6.957   0.623  2.2621  0.0925 -0.2989
10876SOL     OW36125   0.697   2.179   0.900 -0.0504  0.5336  0.1282
10876SOL    HW136126   0.730   2.267   0.886 -0.8765  0.7420 -0.6705
10876SOL    HW236127   0.609   2.191   0.936 -1.6152  0.1939 -3.1865
10877SOL     OW36128   8.597   1.847   6.690  0.2672  0.2832 -0.2934
10877SOL    HW136129   8.521   1.790   6.695 -0.8508  1.8275  2.0434
10877SOL    HW236130   8.566   1.926   6.646  1.0664  0.2135 -1.0274
10878SOL     OW36131   5.621   5.262   3.513 -0.0026 -0.1037  0.4129
10878SOL    HW136132   5.613   5.183   3.459 -1.6945  1.2696 -1.5342
10878SOL    HW236133   5.618   5.231   3.603 -2.5960 -2.1838 -0.2653
10879SOL     OW36134   3.000   3.650   8.169 -0.1654  0.0625 -0.6763
10879SOL    HW136135   2.972   3.693   8.251 -0.1577 -0.9086 -0.1513
10879SOL    HW236136   2.980   3.714   8.101  0.8741  1.3744  0.1810
10880SOL     OW36137   8.526   6.888   5.193 -0.3868  0.4373 -0.3130
10880SOL    HW136138   8.497   6.840   5.115 -2.6511  0.3652  0.4854
10880SOL    HW236139   8.522   6.823   5.263 -1.3366  1.2115  0.3790
10881SOL     OW36140   6.528   9.769   8.271 -0.7714  0.0140  0.1207
10881SOL    HW136141   6.519   9.737   8.181  1.3647 -2.4075  0.6603
10881SOL    HW236142   6.623   9.776   8.284 -1.0175  3.7441  1.1503
10882SOL     OW36143   6.402   8.415   6.422  0.1253 -0.1666 -0.0117
10882SOL    HW136144   6.448   8.399   6.505 -1.0018 -0.1648  0.6272
10882SOL    HW236145   6.325   8.358   6.425  0.3177 -0.5146 -1.2804
10883SOL     OW36146   4.561   1.029   9.022 -0.8135 -0.5938 -0.0989
10883SOL    HW136147   4.596   0.943   8.999  1.0534  0.3294 -1.0415
10883SOL    HW236148   4.511   1.056   8.946 -0.5680 -0.4562 -0.2146
10884SOL     OW36149   9.274   0.796   1.978  0.0938 -0.0375 -0.0552
10884SOL    HW136150   9.223   0.751   1.911 -0.6990 -0.4446  0.7930
10884SOL    HW236151   9.335   0.730   2.009  0.5418  0.1866 -0.4568
10885SOL     OW36152  10.175  10.738   5.250 -0.0080  0.0069  0.2202
10885SOL    HW136153  10.259  10.695   5.231 -1.4568 -3.0347  0.0012
10885SOL    HW236154  10.196  10.804   5.316  2.3971 -1.5707  1.1740
10886SOL     OW36155   9.028   6.461   3.665  0.5944  0.6384 -0.0144
10886SOL    HW136156   8.957   6.515   3.631 -0.6903 -0.6205  0.5394
10886SOL    HW236157   8.994   6.371   3.660  1.5402  0.1324  1.7144
10887SOL     OW36158   9.088   3.078   5.930  0.3227 -0.0109 -0.2051
10887SOL    HW136159   9.131   3.008   5.880  1.0661 -0.7010  1.3473
10887SOL    HW236160   8.995   3.065   5.913  0.5653  0.0824 -1.7731
10888SOL     OW36161   3.986  10.481   6.473 -0.1411 -0.1248 -0.0176
10888SOL    HW136162   4.074  10.515   6.489 -0.0774 -0.2398 -0.1228
10888SOL    HW236163   3.986  10.459   6.380 -0.2835 -0.1200 -0.0184
10889SOL     OW36164   0.631   1.908   7.866  0.0304 -0.5139  0.1941
10889SOL    HW136165   0.618   1.994   7.827 -1.3181 -1.2337 -1.0728
10889SOL    HW236166   0.712   1.916   7.916  0.2878  1.2923 -0.4388
10890SOL     OW36167   9.637   6.774   4.099  0.4307 -0.3972 -0.0108
10890SOL    HW136168   9.610   6.683   4.096  0.4695 -0.4229  0.3947
10890SOL    HW236169   9.727   6.772   4.133  0.7285 -0.2665 -0.7623
10891SOL     OW36170   7.868   4.846  11.003  0.1523 -0.2999  0.2629
10891SOL    HW136171   7.902   4.933  11.023  2.2779 -0.7176 -1.1870
10891SOL    HW236172   7.843   4.850  10.911 -1.7621 -0.6612  0.7260
10892SOL     OW36173   2.618   2.710   1.381 -0.5995  0.8525  0.1148
10892SOL    HW136174   2.674   2.768   1.331  2.8424 -1.4126  0.9966
10892SOL    HW236175   2.588   2.645   1.317 -1.1690  1.3270 -0.1071
10893SOL     OW36176   4.066   0.198  10.241 -0.2297 -0.6282  0.0620
10893SOL    HW136177   4.005   0.136  10.281 -1.2145  1.3011  1.7705
10893SOL    HW236178   4.056   0.278  10.293  1.3398  0.8199 -1.7125
10894SOL     OW36179   2.251  10.467   4.509 -0.2871 -0.6290  0.2455
10894SOL    HW136180   2.326  10.442   4.455  0.4394 -0.7996  1.3030
10894SOL    HW236181   2.230  10.389   4.559  0.7842  0.2325  2.1669
10895SOL     OW36182   8.858  10.003   3.747 -0.1012  0.5367  0.2931
10895SOL    HW136183   8.907   9.922   3.740 -0.1636  0.6109 -1.4883
10895SOL    HW236184   8.766   9.977   3.735 -0.1701  0.7980  0.2365
10896SOL     OW36185   8.020  10.138  10.975  0.3653  0.0582  0.1238
10896SOL    HW136186   7.944  10.196  10.986 -0.6663 -1.5004  1.5724
10896SOL    HW236187   7.991  10.074  10.910  1.3618  0.8629 -1.1675
10897SOL     OW36188   8.359   6.266  10.873 -0.4122 -0.0153  0.0229
10897SOL    HW136189   8.265   6.262  10.891 -0.5246 -0.8960 -0.6723
10897SOL    HW236190   8.389   6.175  10.880 -0.3231 -0.3651 -3.2755
10898SOL     OW36191   4.996   5.562   2.469 -0.0810 -0.3049 -0.3030
10898SOL    HW136192   5.070   5.593   2.416 -0.8214  2.7113  0.2438
10898SOL    HW236193   4.920   5.604   2.430 -1.0839 -0.7230  1.1335
10899SOL     OW36194   6.532   8.149   2.855 -0.4765 -0.4363 -0.4900
10899SOL    HW136195   6.518   8.240   2.880  0.0925 -0.7752  1.1718
10899SOL    HW236196   6.616   8.150   2.809  0.1861 -0.3054  0.6960
10900SOL     OW36197   5.463   1.807   5.591  0.2636 -0.7270  0.0808
10900SOL    HW136198   5.518   1.866   5.538  0.7899 -0.9749  0.3452
10900SOL    HW236199   5.374   1.835   5.572  0.4749 -0.3652 -0.4168
10901SOL     OW36200   0.976  10.466   7.131 -0.2847 -0.0938  1.3262
10901SOL    HW136201   0.972  10.394   7.069  0.3204  0.9631  0.0156
10901SOL    HW236202   0.976  10.424   7.217 -0.3332 -1.6202  0.6046
10902SOL     OW36203   8.949   7.360   5.219 -0.4878 -0.0048 -0.5045
10902SOL    HW136204   8.859   7.392   5.218  0.0036  1.6696  1.8066
10902SOL    HW236205   8.995   7.418   5.159 -0.5141  0.6546  0.1032
10903SOL     OW36206   3.609   5.620   5.485 -0.5389 -0.0183  0.3627
10903SOL    HW136207   3.626   5.715   5.483  0.7210 -0.2021  1.2085
10903SOL    HW236208   3.668   5.587   5.553 -0.8829 -1.4337 -0.0047
10904SOL     OW36209   7.438   9.836   1.095 -0.1836 -0.0075  0.1668
10904SOL    HW136210   7.356   9.858   1.050  0.1590 -1.0591 -1.0134
10904SOL    HW236211   7.439   9.741   1.099  1.5184 -0.0738 -0.8962
10905SOL     OW36212  10.186   5.409  10.010 -0.3019 -0.1965 -0.7775
10905SOL    HW136213  10.129   5.438  10.081  1.7615 -1.0253  1.3469
10905SOL    HW236214  10.134   5.342   9.964 -1.3794 -0.2627  0.4758
10906SOL     OW36215  10.870   4.409   5.636  0.6290 -0.2930  0.1575
10906SOL    HW136216  10.864   4.489   5.689  1.6352  0.1442 -0.3705
10906SOL    HW236217  10.809   4.425   5.563 -0.1593 -0.5698  0.7365
10907SOL     OW36218  10.449   2.073   9.659  0.6323  0.1672  0.3637
10907SOL    HW136219  10.461   1.992   9.609  0.3960 -0.0790  0.7006
10907SOL    HW236220  10.390   2.049   9.730 -1.3614  1.1692 -0.8569
10908SOL     OW36221   0.301   9.296   2.272  0.6218 -0.7962  0.2678
10908SOL    HW136222   0.327   9.282   2.363  0.5284  4.0867  1.3238
10908SOL    HW236223   0.206   9.287   2.272  0.7464 -2.3720  0.2038
10909SOL     OW36224   9.279   2.583   6.963 -0.3554  0.1395 -0.3418
10909SOL    HW136225   9.269   2.505   7.018 -0.5418 -0.4094 -1.1388
10909SOL    HW236226   9.308   2.651   7.024  0.0374 -0.6069  0.3300
10910SOL     OW36227   3.632   4.457   5.945 -0.3818  0.6115  0.2235
10910SOL    HW136228   3.621   4.551   5.954 -0.8004  0.4814  1.1526
10910SOL    HW236229   3.725   4.442   5.961 -0.8792  0.5080  3.7344
10911SOL     OW36230   4.903   9.384   3.978  0.5762  0.6783 -0.0997
10911SOL    HW136231   4.852   9.403   4.057  1.1660 -1.5686  0.9073
10911SOL    HW236232   4.841   9.394   3.906 -0.1914  1.9374  0.6883
10912SOL     OW36233   0.504   1.197   4.848  0.2402 -0.7398 -0.4869
10912SOL    HW136234   0.486   1.140   4.773 -1.1081 -0.8646 -0.0985
10912SOL    HW236235   0.513   1.285   4.810  0.3866 -0.9230 -0.8797
10913SOL     OW36236   0.435   6.928   1.699  0.3496 -0.2030  0.1836
10913SOL    HW136237   0.498   6.999   1.709 -0.2264  0.1320  1.8683
10913SOL    HW236238   0.440   6.880   1.782 -0.0789 -1.4683 -0.4892
10914SOL     OW36239   8.150   4.164   0.898  0.2281  0.3388  0.5118
10914SOL    HW136240   8.173   4.179   0.990 -0.7735  0.5433  0.7504
10914SOL    HW236241   8.231   4.177   0.850  0.3418  2.3589  1.1550
10915SOL     OW36242   4.734   4.822   6.158 -0.0165  0.3472 -0.2893
10915SOL    HW136243   4.772   4.878   6.225  0.5678 -0.0746 -0.2615
10915SOL    HW236244   4.796   4.749   6.149 -1.5259 -1.1356  0.7954
10916SOL     OW36245   6.070   6.148   4.058  0.1839  0.1052  0.0350
10916SOL    HW136246   6.084   6.127   4.151  2.1469  0.7257 -0.0846
10916SOL    HW236247   5.976   6.139   4.046 -0.0483 -0.5373  1.9564
10917SOL     OW36248   0.942   2.550   1.589 -0.1623  0.3617 -0.0745
10917SOL    HW136249   0.909   2.491   1.522 -0.5668  0.4689  0.0298
10917SOL    HW236250   1.036   2.556   1.572 -0.3284  0.7242 -0.8890
10918SOL     OW36251   1.576  10.133   2.128  0.5575 -0.1234 -0.5531
10918SOL    HW136252   1.556  10.048   2.167  0.1141  0.6060  0.8517
10918SOL    HW236253   1.550  10.124   2.036 -0.3379 -1.2022 -0.2090
10919SOL     OW36254   4.832   6.874   4.257  0.0719  0.1268  0.2193
10919SOL    HW136255   4.775   6.837   4.324  0.6370 -0.8954  0.1527
10919SOL    HW236256   4.919   6.873   4.296  0.7659 -2.3180 -1.1674
10920SOL     OW36257   0.559   7.751   0.176  0.3395 -0.1794  0.6858
10920SOL    HW136258   0.505   7.828   0.158  1.1150 -0.1696 -2.2433
10920SOL    HW236259   0.584   7.760   0.267 -1.0420  2.0828  0.9412
10921SOL     OW36260   8.320   6.455   5.848  0.1528 -0.0625  0.1062
10921SOL    HW136261   8.330   6.538   5.801 -0.5406 -0.0020  0.0467
10921SOL    HW236262   8.225   6.438   5.847  0.2022 -0.4418  0.8281
10922SOL     OW36263   7.821   6.411   1.258 -0.1791  0.8583 -0.2235
10922SOL    HW136264   7.774   6.451   1.331 -0.2527 -0.5013  0.4921
10922SOL    HW236265   7.754   6.397   1.191 -0.4482  0.5250  0.1165
10923SOL     OW36266   9.373   9.617   8.606  0.9039 -0.0247 -0.3910
10923SOL    HW136267   9.299   9.559   8.625 -0.5422  0.7260 -3.1183
10923SOL    HW236268   9.389   9.664   8.688 -1.9258  0.0490  0.2291
10924SOL     OW36269   2.044   7.750   9.065  0.3931  0.4389  0.6172
10924SOL    HW136270   2.088   7.726   9.146  0.8898 -0.8984 -0.0234
10924SOL    HW236271   2.102   7.814   9.024  1.0755 -0.2916  0.4318
10925SOL     OW36272  10.290   4.595   1.251  0.0277 -0.2861 -0.8769
10925SOL    HW136273  10.257   4.649   1.323  3.5869  2.3254 -0.9173
10925SOL    HW236274  10.215   4.541   1.225 -2.6121  1.6551  1.9683
10926SOL     OW36275   0.845   4.480   9.026 -0.3374 -0.0509 -0.2943
10926SOL    HW136276   0.918   4.521   9.072 -0.7596 -0.4879  0.7810
10926SOL    HW236277   0.885   4.439   8.950  0.6318 -0.7541  0.5735
10927SOL     OW36278   9.360  10.602   4.785  0.2222 -0.1764  0.8907
10927SOL    HW136279   9.298  10.644   4.725  0.7456 -2.4066 -1.3847
10927SOL    HW236280   9.430  10.667   4.797 -0.9079  1.0988  0.8132
10928SOL     OW36281   3.954   0.562   0.117  0.0879  0.3994 -0.1451
10928SOL    HW136282   3.913   0.625   0.059 -1.6409 -1.4642 -1.0552
10928SOL    HW236283   4.043   0.552   0.083 -0.4853  0.3173 -1.6967
10929SOL     OW36284   1.387   5.467   6.358  0.1631 -0.0361 -0.3835
10929SOL    HW136285   1.344   5.503   6.281  0.2471 -0.5369 -0.6701
10929SOL    HW236286   1.464   5.421   6.323  0.8062  0.6527  0.0968
10930SOL     OW36287   7.000   8.464   3.775  0.4329  0.2857 -0.7426
10930SOL    HW136288   7.012   8.469   3.680  0.5398  0.7419 -0.7081
10930SOL    HW236289   6.950   8.383   3.789 -1.5685  1.3248 -1.4012
10931SOL     OW36290   7.836   7.584   1.933 -0.2129  0.4934  0.1891
10931SOL    HW136291   7.751   7.563   1.893 -0.0754  0.7627 -0.2473
10931SOL    HW236292   7.884   7.631   1.865  0.3129  0.2888  0.4103
10932SOL     OW36293   7.197   9.719   9.203  0.7467  0.0781 -0.2528
10932SOL    HW136294   7.249   9.662   9.259  0.8357 -0.9109 -1.3116
10932SOL    HW236295   7.253   9.738   9.128  0.1176  0.1925 -0.7107
10933SOL     OW36296   0.494   1.135   3.557  0.2515 -0.2537 -0.3712
10933SOL    HW136297   0.418   1.193   3.553  0.6557  0.2226 -1.3190
10933SOL    HW236298   0.460   1.055   3.598 -0.3452  0.5638  0.7916
10934SOL     OW36299   9.575  10.743   1.528 -0.4079 -0.0921 -0.6074
10934SOL    HW136300   9.527  10.680   1.582 -0.5267 -0.6677 -1.3727
10934SOL    HW236301   9.507  10.786   1.476 -0.1360 -0.6639 -1.4465
10935SOL     OW36302   9.471  10.545   9.598  0.2828 -0.0263 -0.0604
10935SOL    HW136303   9.512  10.585   9.675  0.0322  0.9359 -0.4118
10935SOL    HW236304   9.454  10.619   9.539  2.7275 -0.9728 -2.1383
10936SOL     OW36305   3.335   9.968   1.057  0.1330  0.1179  0.3000
10936SOL    HW136306   3.308   9.917   1.133  1.3287  0.7004  1.1453
10936SOL    HW236307   3.339  10.058   1.089  2.1639  0.1844  0.0292
10937SOL     OW36308   2.242   6.702   2.194  0.2375  0.4980 -0.1462
10937SOL    HW136309   2.157   6.693   2.150 -0.1495 -1.1175  0.8415
10937SOL    HW236310   2.242   6.791   2.228 -1.1270  0.4909 -0.0605
10938SOL     OW36311   4.224   9.605   8.380 -0.2483  0.2472 -0.7373
10938SOL    HW136312   4.282   9.574   8.311 -1.9495 -3.2246 -0.8563
10938SOL    HW236313   4.282   9.621   8.455  1.2312  0.5970 -1.9197
10939SOL     OW36314   1.874   3.983   3.751  0.0005  0.0148 -0.4999
10939SOL    HW136315   1.970   3.991   3.745  0.0730  0.7752  0.9567
10939SOL    HW236316   1.858   3.972   3.845 -1.4609  2.3257 -0.4020
10940SOL     OW36317   9.818   0.728   0.722  0.1835 -0.3533 -0.0620
10940SOL    HW136318   9.768   0.746   0.801  0.5890  0.4919  0.0192
10940SOL    HW236319   9.755   0.742   0.651  0.1341  0.1144  0.0657
10941SOL     OW36320   9.439   9.705   1.033  0.3243 -0.3257  0.3063
10941SOL    HW136321   9.430   9.752   1.116  0.5656 -0.8062  0.6090
10941SOL    HW236322   9.383   9.753   0.971  0.1541  0.0407  0.7446
10942SOL     OW36323   3.068   8.830   2.659 -0.7874  0.1817 -1.4588
10942SOL    HW136324   3.124   8.757   2.633 -1.2911 -0.1527 -1.6060
10942SOL    HW236325   3.116   8.873   2.730  0.1198  0.4974 -2.2429
10943SOL     OW36326   7.794   2.360   0.967  0.2106  0.5375 -0.3443
10943SOL    HW136327   7.786   2.381   0.874  1.3424 -3.2729 -1.4729
10943SOL    HW236328   7.716   2.308   0.987  0.3601  0.6629  0.6373
10944SOL     OW36329   1.484   4.444  10.694 -0.0263 -0.1416  0.3772
10944SOL    HW136330   1.484   4.383  10.768 -2.1230 -1.6008 -0.7244
10944SOL    HW236331   1.453   4.391  10.620 -0.2880  1.8653 -1.0114
10945SOL     OW36332   7.552   5.427  10.040  0.6773 -0.2509 -0.0011
10945SOL    HW136333   7.459   5.417  10.059  0.4420  1.9528  0.3553
10945SOL    HW236334   7.556   5.436   9.944  0.4043  0.3662  0.0366
10946SOL     OW36335   1.573   6.575   4.453  0.4685  0.2248 -0.4653
10946SOL    HW136336   1.501   6.632   4.426  0.1334  0.0236 -0.0057
10946SOL    HW236337   1.652   6.623   4.429  0.1877  0.2111 -1.4820
10947SOL     OW36338   5.896   9.355   0.435  0.2350 -0.3488 -0.2414
10947SOL    HW136339   5.907   9.435   0.384  0.9135 -0.9523 -1.0850
10947SOL    HW236340   5.984   9.338   0.470 -0.1283 -0.1870  0.7584
10948SOL     OW36341   9.696   5.582   3.966 -0.2131  0.4127  0.0073
10948SOL    HW136342   9.721   5.671   3.939 -1.2818  0.8082  0.2607
10948SOL    HW236343   9.615   5.594   4.016 -1.2002 -0.8378 -1.2068
10949SOL     OW36344   9.639   3.072  10.486 -0.3127 -0.5079 -0.4036
10949SOL    HW136345   9.734   3.063  10.493 -0.2596  0.4222  0.0919
10949SOL    HW236346   9.625   3.160  10.452 -1.0048 -0.6383 -0.4768
10950SOL     OW36347   4.426   7.010   5.262  0.2760 -0.5471 -0.0620
10950SOL    HW136348   4.420   7.072   5.189  1.6655 -0.2253  0.0705
10950SOL    HW236349   4.443   7.064   5.339 -0.1740 -0.9671  0.3409
10951SOL     OW36350   4.243   7.481   7.354  0.7091 -0.7115 -0.1102
10951SOL    HW136351   4.168   7.447   7.304 -0.8711 -0.8102  2.1567
10951SOL    HW236352   4.224   7.575   7.364  0.2124 -0.9418  1.4525
10952SOL     OW36353   4.380   4.514   2.528 -0.6791 -0.1585 -0.2900
10952SOL    HW136354   4.423   4.514   2.613  0.3644  1.3050 -0.7720
10952SOL    HW236355   4.295   4.555   2.544  1.0557  4.1222 -0.5305
10953SOL     OW36356   4.155   6.576  10.153 -0.1468  0.0335  0.4467
10953SOL    HW136357   4.102   6.651  10.179  0.5321  0.6494  0.0832
10953SOL    HW236358   4.219   6.611  10.091 -0.3021 -0.9879 -0.3249
10954SOL     OW36359   7.787   9.941   2.929  0.3140  0.0856 -0.2862
10954SOL    HW136360   7.754   9.852   2.926  1.4431 -0.3233 -1.6778
10954SOL    HW236361   7.833   9.947   3.012 -0.8075 -0.2066  0.3848
10955SOL     OW36362   8.112   5.808   5.955 -0.3504  0.1229 -0.6349
10955SOL    HW136363   8.034   5.776   5.911  0.8901 -1.2853 -1.9118
10955SOL    HW236364   8.113   5.763   6.039 -2.4782  2.4668  0.7940
10956SOL     OW36365   6.189   9.306  10.345 -0.3288  0.3003 -0.8100
10956SOL    HW136366   6.281   9.329  10.329 -0.3627  1.7462  0.8483
10956SOL    HW236367   6.186   9.280  10.437 -1.3102 -1.4663 -1.2791
10957SOL     OW36368   5.107   9.421  10.498 -0.0849  0.4197 -0.0755
10957SOL    HW136369   5.031   9.400  10.444 -0.5726 -0.6448  0.9563
10957SOL    HW236370   5.081   9.501  10.545 -0.4480  0.2361  0.0413
10958SOL     OW36371  10.161   6.123   4.516  0.4640 -0.1736  0.1018
10958SOL    HW136372  10.085   6.100   4.461 -0.9914  3.0516  0.5554
10958SOL    HW236373  10.234   6.076   4.476 -1.3359 -1.5831 -1.7776
10959SOL     OW36374   6.025   5.433   6.224 -0.1863 -0.1530  0.2197
10959SOL    HW136375   6.083   5.443   6.300  0.3262  0.0953 -0.1991
10959SOL    HW236376   6.037   5.341   6.198 -1.5455 -0.7066  1.3684
10960SOL     OW36377   2.592  10.185  10.681  0.5705 -0.3970  0.1018
10960SOL    HW136378   2.559  10.266  10.717  1.9100  0.3788 -0.3302
10960SOL    HW236379   2.531  10.118  10.711  0.8651  0.3732  2.6638
10961SOL     OW36380   2.653   4.507   3.113  0.1856  0.4268  0.1339
10961SOL    HW136381   2.689   4.482   3.029  1.3453  1.3130  0.3468
10961SOL    HW236382   2.722   4.558   3.156 -0.1803 -0.4162  1.8336
10962SOL     OW36383   4.561   5.250   0.828 -0.1593  0.1293 -0.9869
10962SOL    HW136384   4.588   5.340   0.812 -0.4201  0.3173 -0.3822
10962SOL    HW236385   4.520   5.252   0.914 -0.0245 -0.5968 -0.8976
10963SOL     OW36386   6.950   7.280   1.010 -0.1167 -0.5114  0.0506
10963SOL    HW136387   6.934   7.205   0.954 -2.9275 -0.2748  0.3968
10963SOL    HW236388   6.967   7.242   1.097 -1.6469 -0.7887  0.2498
10964SOL     OW36389   2.759   2.251   5.261  0.2968  0.0964  0.9256
10964SOL    HW136390   2.738   2.193   5.187  1.2844 -0.5066  1.0997
10964SOL    HW236391   2.778   2.336   5.221 -1.8908  0.5420  0.7208
10965SOL     OW36392   8.835   9.002   8.221  0.5301  0.2271  0.0363
10965SOL    HW136393   8.912   8.956   8.188  0.7966 -0.6258  1.7398
10965SOL    HW236394   8.867   9.055   8.294 -0.5406 -0.5279  1.1014
10966SOL     OW36395   1.888   3.634   8.181 -0.2967 -0.4147  0.0152
10966SOL    HW136396   1.851   3.666   8.263 -0.4773  3.4129 -1.3686
10966SOL    HW236397   1.978   3.609   8.202 -0.4079  0.3025  1.4115
10967SOL     OW36398  10.125   6.574   9.222 -0.0155 -0.1502 -0.0537
10967SOL    HW136399  10.085   6.490   9.242 -0.0732 -0.1776 -0.2791
10967SOL    HW236400  10.216   6.565   9.251  0.0797 -0.4253 -0.4257
10968SOL     OW36401   9.075   3.318  10.715 -0.0941  0.5390 -0.2593
10968SOL    HW136402   9.086   3.284  10.804  1.3386  1.1403 -0.1767
10968SOL    HW236403   9.037   3.245  10.666 -5.3275  1.5236  1.7575
10969SOL     OW36404   3.864   5.080   1.347 -0.2157  0.0855  0.0414
10969SOL    HW136405   3.910   5.043   1.422 -1.5812 -1.3442  0.2250
10969SOL    HW236406   3.878   5.174   1.354  0.8129 -0.1343  1.3083
10970SOL     OW36407   3.836   2.935   4.942 -0.0267  0.3361  0.2011
10970SOL    HW136408   3.766   2.982   4.988 -0.7132 -0.1611 -0.3180
10970SOL    HW236409   3.903   2.921   5.009 -0.8830 -0.1141  0.9990
10971SOL     OW36410   1.907   1.752   2.526  0.2235 -0.3103 -0.1932
10971SOL    HW136411   1.984   1.789   2.484  0.1429  1.3564  1.0162
10971SOL    HW236412   1.897   1.665   2.487  0.0117  1.1289 -3.7537
10972SOL     OW36413   6.890   8.237   3.169 -0.6018 -0.6166  0.1443
10972SOL    HW136414   6.894   8.190   3.253  0.3577 -0.6159  0.1138
10972SOL    HW236415   6.878   8.168   3.104  2.4027 -1.0847 -0.0632
10973SOL     OW36416   7.384   1.102   9.861  0.2190  0.2662 -0.6785
10973SOL    HW136417   7.288   1.099   9.863  0.2461 -0.5901 -0.2360
10973SOL    HW236418   7.404   1.195   9.854 -0.6384  0.5477  0.2906
10974SOL     OW36419   8.961   5.377   6.579  0.1201  0.2120  0.2842
10974SOL    HW136420   8.871   5.407   6.592 -0.3028 -0.0199 -1.7309
10974SOL    HW236421   8.971   5.373   6.484  2.4523  0.7464  0.4525
10975SOL     OW36422   0.467   2.350   9.167 -0.5849  0.1227 -0.0776
10975SOL    HW136423   0.435   2.370   9.079 -0.5242 -1.7141 -0.5556
10975SOL    HW236424   0.480   2.436   9.208  0.0518  1.0518 -2.0852
10976SOL     OW36425   7.506   1.654   8.681 -0.1104 -0.8336  0.6603
10976SOL    HW136426   7.580   1.600   8.709  1.3718  0.1871 -1.0586
10976SOL    HW236427   7.500   1.637   8.587  0.1320  1.6141  0.1538
10977SOL     OW36428   8.169   3.467   0.018 -0.0078  0.0441  0.4416
10977SOL    HW136429   8.185   3.421  -0.065 -2.6808 -1.5299  0.6936
10977SOL    HW236430   8.179   3.400   0.085 -0.4343  0.6763  1.1541
10978SOL     OW36431   8.203   0.244   1.859 -0.0046  0.9627 -0.1481
10978SOL    HW136432   8.249   0.300   1.922 -0.0248 -0.2466  0.9941
10978SOL    HW236433   8.216   0.156   1.893 -2.9311  0.5339  0.0766
10979SOL     OW36434   2.818   5.501   7.814 -0.7523  0.0741 -0.2417
10979SOL    HW136435   2.743   5.558   7.793 -1.9500 -1.0034  0.9367
10979SOL    HW236436   2.814   5.431   7.749 -1.1010 -0.2612  0.1327
10980SOL     OW36437  10.711   2.803   9.987 -0.3829 -0.2915 -0.6416
10980SOL    HW136438  10.792   2.835   9.946  0.8279 -1.9283  0.3364
10980SOL    HW236439  10.684   2.729   9.933  0.1779 -1.2761  0.3635
10981SOL     OW36440   5.365   0.748   3.107 -0.3537 -0.2067 -0.0549
10981SOL    HW136441   5.370   0.782   3.018 -1.2788  0.6034  0.1889
10981SOL    HW236442   5.330   0.821   3.158  2.1626  0.1079  1.3917
10982SOL     OW36443   0.407   2.473   7.965  0.0858  0.0196  0.3508
10982SOL    HW136444   0.461   2.458   7.888  0.6911  0.1376  0.7444
10982SOL    HW236445   0.395   2.386   8.003  1.2132  0.1474  1.0541
10983SOL     OW36446  10.496   3.504   0.104  0.2595 -0.2977  0.1883
10983SOL    HW136447  10.546   3.422   0.105  1.1857  0.2066 -1.4727
10983SOL    HW236448  10.441   3.498   0.026  1.6545  1.3717 -1.0014
10984SOL     OW36449   4.137   9.387   1.845 -0.4588 -0.4604 -0.3412
10984SOL    HW136450   4.101   9.298   1.842  0.6488 -0.9422 -0.1272
10984SOL    HW236451   4.137   9.417   1.754  1.5694 -1.7254 -0.8313
10985SOL     OW36452   6.228   6.723  10.318 -0.0281 -0.1486  0.6080
10985SOL    HW136453   6.222   6.662  10.245  1.1169 -0.4369  0.7277
10985SOL    HW236454   6.263   6.670  10.390 -1.8873 -0.0667  1.6228
10986SOL     OW36455  10.141   9.826   7.350 -0.0135  0.0835 -0.3005
10986SOL    HW136456  10.124   9.746   7.401 -1.3077  0.0815 -0.7064
10986SOL    HW236457  10.085   9.818   7.273  1.8381  0.1324 -1.7216
10987SOL     OW36458   9.408   8.820   3.728  0.2848 -0.3055 -0.1675
10987SOL    HW136459   9.438   8.743   3.680 -0.1372 -1.8482  1.8890
10987SOL    HW236460   9.315   8.825   3.709  0.5831  0.6867 -1.5290
10988SOL     OW36461   7.294   9.459   0.625 -0.1803  0.4807  0.2235
10988SOL    HW136462   7.286   9.363   0.623  0.6685  0.4111 -1.5985
10988SOL    HW236463   7.210   9.489   0.659 -0.2027 -0.9138  1.5268
10989SOL     OW36464   4.757  10.233  10.803  0.5872  0.0925  0.3831
10989SOL    HW136465   4.671  10.199  10.782  0.7486 -0.7442  1.0112
10989SOL    HW236466   4.786  10.181  10.879  0.2891  2.5149  2.2804
10990SOL     OW36467   5.952   3.221   3.037 -0.1597 -0.7149  0.6506
10990SOL    HW136468   6.003   3.175   2.971 -0.0655 -0.7053  0.7161
10990SOL    HW236469   6.002   3.301   3.054 -0.4622 -0.4564  0.3401
10991SOL     OW36470  10.639   3.600   7.422  0.4544 -0.4993 -0.9682
10991SOL    HW136471  10.564   3.653   7.446  1.1873  0.4601 -0.7150
10991SOL    HW236472  10.635   3.524   7.480 -1.4776 -1.5779 -2.3821
10992SOL     OW36473   7.445   7.603  10.270 -0.0888  0.0695  0.3008
10992SOL    HW136474   7.350   7.599  10.281 -0.3631 -0.6815 -1.8162
10992SOL    HW236475   7.458   7.596  10.176  2.1301 -1.4573  0.6418
10993SOL     OW36476  10.952   2.490   1.221 -0.1583  1.1264  0.0929
10993SOL    HW136477  10.991   2.405   1.205 -1.2033  0.3885  1.2703
10993SOL    HW236478  10.909   2.512   1.139  0.3445  0.6491 -0.3059
10994SOL     OW36479   1.077   7.228   8.436  0.0843  0.5067  0.1919
10994SOL    HW136480   1.097   7.186   8.519  0.1929  0.7870  0.3076
10994SOL    HW236481   1.087   7.158   8.371 -1.5254 -0.1259  0.5745
10995SOL     OW36482   6.661   6.679   5.285 -0.7402  0.0934  0.0041
10995SOL    HW136483   6.732   6.694   5.348 -1.1086  0.4891  0.3363
10995SOL    HW236484   6.594   6.632   5.334 -0.2502 -1.2961 -0.6170
10996SOL     OW36485  10.257   6.979   5.697  0.6895 -0.2058 -0.0585
10996SOL    HW136486  10.256   7.030   5.777  1.0365 -0.8226  0.3480
10996SOL    HW236487  10.165   6.957   5.681  0.6539 -0.3481  0.3445
10997SOL     OW36488   7.678  10.938  10.337 -0.1819 -0.1034 -0.2882
10997SOL    HW136489   7.678  10.882  10.260 -1.3848  0.8647 -1.0297
10997SOL    HW236490   7.602  10.909  10.388 -0.3717  0.3595 -0.3041
10998SOL     OW36491   6.932  10.316   8.077 -0.6078 -0.4103  0.9093
10998SOL    HW136492   6.980  10.236   8.053 -0.4103 -0.5893  1.8551
10998SOL    HW236493   6.980  10.351   8.152  0.7173  1.9245 -0.9098
10999SOL     OW36494   5.929   4.601   3.392 -0.1334 -0.7989  0.0239
10999SOL    HW136495   6.013   4.597   3.346 -0.0450 -0.2722  0.1354
10999SOL    HW236496   5.865   4.623   3.323 -0.3204 -1.9742 -0.2168
11000SOL     OW36497   5.712   3.155   9.579  0.0781 -0.3561  0.1684
11000SOL    HW136498   5.803   3.166   9.606 -0.1761  1.1607  0.4923
11000SOL    HW236499   5.718   3.105   9.497  1.1245 -1.1228  0.6841
11001SOL     OW36500   4.333   7.024   2.107 -0.4602  0.0550 -0.1667
11001SOL    HW136501   4.279   6.976   2.045 -1.1011  0.2628  0.2280
11001SOL    HW236502   4.346   6.964   2.180 -0.5138  0.1558 -0.0733
11002SOL     OW36503   1.584   8.673   7.735  0.5329  0.1138 -0.2560
11002SOL    HW136504   1.666   8.669   7.783  0.3879  0.5022  0.0312
11002SOL    HW236505   1.578   8.764   7.705 -0.4302  0.4492  0.8669
11003SOL     OW36506   3.558   0.999   3.315  0.1941 -0.1373  0.0554
11003SOL    HW136507   3.634   0.944   3.294  1.5418  0.9876  1.7623
11003SOL    HW236508   3.484   0.949   3.282  1.4293 -2.5408  0.6200
11004SOL     OW36509   6.900   4.863   0.128  0.3002  0.1708  0.0496
11004SOL    HW136510   6.815   4.826   0.151  0.8832 -1.5577 -0.4097
11004SOL    HW236511   6.947   4.870   0.211  0.2984 -0.4671  0.1088
11005SOL     OW36512   2.487   7.041   3.700 -0.2714 -0.1979  0.7283
11005SOL    HW136513   2.474   7.134   3.683 -1.1523 -0.5376 -0.6712
11005SOL    HW236514   2.399   7.003   3.694  0.4160 -1.6275 -2.3988
11006SOL     OW36515   8.176   0.822   8.536 -0.5035  0.1809  0.3930
11006SOL    HW136516   8.200   0.907   8.572 -0.5044  0.5257 -0.3894
11006SOL    HW236517   8.215   0.758   8.596  1.4928  0.7211 -0.2558
11007SOL     OW36518   5.847   2.455   7.936  0.1971  0.2164  0.3706
11007SOL    HW136519   5.914   2.477   7.871  0.2995 -0.4733  0.2377
11007SOL    HW236520   5.795   2.535   7.944 -0.3480  0.0603 -1.2146
11008SOL     OW36521   2.087   5.618   0.808  0.1939  0.2423 -0.1992
11008SOL    HW136522   2.032   5.696   0.816 -0.8430 -0.4298 -0.4044
11008SOL    HW236523   2.026   5.550   0.778  1.3036 -0.3578 -1.1989
11009SOL     OW36524   4.904   9.380   9.274  0.0345  0.2140  0.3319
11009SOL    HW136525   4.812   9.402   9.294  0.1047  0.7241  0.1172
11009SOL    HW236526   4.952   9.460   9.296  0.2152  0.5374 -1.1300
11010SOL     OW36527   9.020   1.767   2.305  0.4558 -0.4016  0.6300
11010SOL    HW136528   8.969   1.812   2.373  0.8523 -1.8065  1.9225
11010SOL    HW236529   8.955   1.736   2.242 -0.0063  0.1452  0.8292
11011SOL     OW36530   2.133  10.011  10.733  0.8824  0.2852  0.3353
11011SOL    HW136531   2.091   9.969  10.809  0.0340  2.7175  1.2919
11011SOL    HW236532   2.227  10.004  10.752  0.6889  0.6994  1.5619
11012SOL     OW36533   4.883   2.883   5.407  0.0391 -0.3065 -0.4074
11012SOL    HW136534   4.830   2.865   5.329 -0.5499  0.9524 -0.3217
11012SOL    HW236535   4.828   2.853   5.480 -0.5284  0.8765 -0.3274
11013SOL     OW36536   3.795   7.251   0.652 -0.6260 -0.0852  0.1839
11013SOL    HW136537   3.703   7.240   0.678 -0.9057 -2.1325 -1.4072
11013SOL    HW236538   3.835   7.167   0.672  0.5528  0.3072 -0.4625
11014SOL     OW36539   5.625   1.920  10.254  0.8291  0.2475  0.7709
11014SOL    HW136540   5.560   1.866  10.208  0.4662  0.0370  1.5198
11014SOL    HW236541   5.707   1.901  10.210  0.4784  0.1037  0.1608
11015SOL     OW36542   3.688   1.657   5.709  0.5383  0.0702  0.3757
11015SOL    HW136543   3.613   1.599   5.722  1.3747 -1.0993  0.1589
11015SOL    HW236544   3.732   1.658   5.794  0.2937  0.7460  0.5008
11016SOL     OW36545   8.960   1.430   3.661 -0.0786 -0.1673 -0.2829
11016SOL    HW136546   9.052   1.410   3.641  0.2073 -0.4671  1.2098
11016SOL    HW236547   8.919   1.345   3.672 -0.0068 -0.0363  1.2094
11017SOL     OW36548   7.197   1.824   7.990 -0.4738 -0.6006  0.7113
11017SOL    HW136549   7.169   1.885   8.058  1.9349  1.0324  0.3687
11017SOL    HW236550   7.291   1.840   7.980 -0.3458 -2.2022 -1.5986
11018SOL     OW36551   0.522   3.508   0.661  0.1404 -0.4359  0.0993
11018SOL    HW136552   0.524   3.563   0.739 -0.3564  0.1527 -0.2943
11018SOL    HW236553   0.587   3.547   0.602 -2.6746  2.0320 -1.6594
11019SOL     OW36554   4.887   7.676   8.837 -0.0671 -0.1787  0.1677
11019SOL    HW136555   4.960   7.638   8.886 -0.4025  0.5695  1.3080
11019SOL    HW236556   4.835   7.602   8.810  0.4695 -0.6528  0.4047
11020SOL     OW36557   5.156   9.410   4.314 -0.2133 -0.0077 -0.3630
11020SOL    HW136558   5.136   9.367   4.231 -1.4561  2.0324 -1.2253
11020SOL    HW236559   5.074   9.405   4.363 -0.2602  0.9708 -0.3231
11021SOL     OW36560   3.241   2.317  10.715  0.1202  0.0446  0.1879
11021SOL    HW136561   3.263   2.323  10.622 -1.6377 -0.0229 -0.2648
11021SOL    HW236562   3.240   2.223  10.733 -0.6291  0.0059 -0.0212
11022SOL     OW36563   2.204   5.170   1.540  0.0333 -0.2778  0.6248
11022SOL    HW136564   2.278   5.229   1.557  0.5708 -1.2466  1.8572
11022SOL    HW236565   2.201   5.163   1.444 -0.5533  2.3021  0.3811
11023SOL     OW36566   4.558   5.107   8.381 -0.0958  0.3004  0.1533
11023SOL    HW136567   4.491   5.085   8.317  1.1693  0.1249 -1.1501
11023SOL    HW236568   4.515   5.094   8.466 -1.9038  0.8748 -0.6273
11024SOL     OW36569   6.202   9.907   3.881 -0.0755 -0.1155 -0.3515
11024SOL    HW136570   6.192   9.992   3.837 -0.5684 -1.6054 -3.3698
11024SOL    HW236571   6.114   9.870   3.884  0.2431 -0.8602  0.1972
11025SOL     OW36572  10.069   1.078  10.746  0.7842 -0.0537 -0.3077
11025SOL    HW136573  10.149   1.106  10.791  0.0541  1.2237  0.2665
11025SOL    HW236574  10.061   1.138  10.672  0.8576 -0.7898 -0.9122
11026SOL     OW36575   4.497   8.225  10.896  0.3724 -0.1664 -0.0255
11026SOL    HW136576   4.402   8.222  10.899  0.3908 -0.4853  0.3153
11026SOL    HW236577   4.517   8.280  10.820 -0.0866  1.3709  0.9146
11027SOL     OW36578   0.597   4.313   6.498 -0.0758  0.3324  0.6047
11027SOL    HW136579   0.656   4.261   6.443  0.9782  0.0663  1.9119
11027SOL    HW236580   0.622   4.289   6.588 -1.0291  1.5187  1.2069
11028SOL     OW36581   1.829   8.099   8.053 -0.0532  0.5264  0.1056
11028SOL    HW136582   1.875   8.167   8.101  0.2288 -1.5140  2.9551
11028SOL    HW236583   1.748   8.085   8.103 -0.0284 -1.3079 -0.3007
11029SOL     OW36584   2.314   7.158   5.950 -0.1475 -0.7485  0.0765
11029SOL    HW136585   2.260   7.142   6.027  0.7654  1.6764  1.3433
11029SOL    HW236586   2.271   7.232   5.907 -1.3079 -2.7816 -2.5014
11030SOL     OW36587   2.768   7.056   2.057 -0.0637 -0.1299  0.1270
11030SOL    HW136588   2.754   7.150   2.047 -0.9086 -0.3994 -1.5177
11030SOL    HW236589   2.858   7.042   2.028 -0.4467 -0.0187 -1.1601
11031SOL     OW36590  10.751   1.146   9.457  0.1133 -0.0434  0.0523
11031SOL    HW136591  10.768   1.052   9.452  2.3349  0.0833  2.6783
11031SOL    HW236592  10.797   1.183   9.381  1.5449 -0.9020  0.4615
11032SOL     OW36593   5.139  10.225  10.130 -0.1900 -0.0056 -0.1450
11032SOL    HW136594   5.233  10.236  10.112 -0.1057 -0.8677 -0.3149
11032SOL    HW236595   5.099  10.218  10.043 -0.0440 -2.2365 -0.0939
11033SOL     OW36596   8.783   4.099   4.147 -0.2028  0.2219 -0.1837
11033SOL    HW136597   8.872   4.097   4.112 -0.5634 -2.3417 -1.1889
11033SOL    HW236598   8.727   4.082   4.071 -1.3812 -0.3735  0.7791
11034SOL     OW36599   2.744   8.262   0.491 -0.1549  0.3187  0.1545
11034SOL    HW136600   2.694   8.232   0.568 -1.2730  1.2134 -0.2027
11034SOL    HW236601   2.825   8.210   0.494  0.1612  0.8470  2.3378
11035SOL     OW36602   6.982   7.816   4.745  0.0027  0.0077 -0.5335
11035SOL    HW136603   6.904   7.789   4.793  0.7854  0.4133  1.0133
11035SOL    HW236604   6.989   7.910   4.760 -0.7710  0.5470 -3.0467
11036SOL     OW36605   0.448   8.164   9.257  0.3524  0.6561  0.2568
11036SOL    HW136606   0.536   8.195   9.236  0.6115  0.6956  1.3204
11036SOL    HW236607   0.458   8.121   9.342 -0.6403  0.5959  0.3500
11037SOL     OW36608   0.750   4.774   8.675 -0.0691  0.0470 -0.0148
11037SOL    HW136609   0.676   4.774   8.736 -0.7290 -2.4065 -0.6807
11037SOL    HW236610   0.712   4.792   8.589  0.4834  1.0216 -0.0741
11038SOL     OW36611   1.390   3.240   6.940  0.8418 -0.4749 -0.1172
11038SOL    HW136612   1.366   3.329   6.965  0.7163 -0.3686 -0.6051
11038SOL    HW236613   1.364   3.186   7.014 -0.9404 -0.3768 -0.6294
11039SOL     OW36614   5.584   3.706   0.599 -0.6674 -0.3970 -0.1199
11039SOL    HW136615   5.552   3.793   0.622 -0.9270 -0.6714  0.5842
11039SOL    HW236616   5.545   3.687   0.514  1.0853  1.0530 -1.3239
11040SOL     OW36617  10.197   6.886   8.324  0.5562  0.1933 -0.5106
11040SOL    HW136618  10.172   6.793   8.325  1.1445  0.0340 -0.4481
11040SOL    HW236619  10.176   6.916   8.413 -0.1235  0.2565 -0.6865
11041SOL     OW36620   8.731   5.712   9.541 -0.3436  0.1665  0.3639
11041SOL    HW136621   8.636   5.712   9.533 -0.4913 -4.1985 -0.2166
11041SOL    HW236622   8.748   5.712   9.636 -0.9760  0.0046  0.4775
11042SOL     OW36623   0.417  10.859   4.545  0.6616  0.2712 -0.0406
11042SOL    HW136624   0.513  10.866   4.542  1.0686 -3.2339 -2.9113
11042SOL    HW236625   0.401  10.773   4.584 -1.2637  0.4550 -0.3513
11043SOL     OW36626  10.530   5.986   4.373  0.5151  0.8487  0.3208
11043SOL    HW136627  10.533   5.908   4.317 -0.2634  0.0125  1.3908
11043SOL    HW236628  10.597   5.970   4.439 -1.2141 -0.0994  1.9548
11044SOL     OW36629   9.080  10.100   4.048 -0.9209 -0.3112 -0.1322
11044SOL    HW136630   9.142  10.147   3.992  0.7470 -1.1385  0.9425
11044SOL    HW236631   8.997  10.147   4.036 -0.5051 -0.0928 -2.7892
11045SOL     OW36632  10.901   7.035  10.748 -0.0705  0.3060 -0.5143
11045SOL    HW136633  10.963   7.008  10.680 -0.1945 -2.2724  0.2910
11045SOL    HW236634  10.957   7.067  10.819  0.2370  0.0586 -0.6395
11046SOL     OW36635   8.040   4.999  10.704 -0.1774  0.2900  0.7714
11046SOL    HW136636   7.944   5.005  10.697 -0.1808 -0.4503  0.0207
11046SOL    HW236637   8.060   4.911  10.673  0.9682  1.2760 -1.4403
11047SOL     OW36638   7.368   6.563   7.803  0.7174  0.8310  0.5944
11047SOL    HW136639   7.440   6.520   7.755 -0.6054 -0.2708 -0.5024
11047SOL    HW236640   7.298   6.572   7.738 -0.4888  0.9925  1.8707
11048SOL     OW36641  10.751  10.056   0.554  0.2562 -0.4115 -0.2834
11048SOL    HW136642  10.660  10.037   0.580  0.1814 -0.8301 -0.8584
11048SOL    HW236643  10.762  10.012   0.470  0.6561  0.5331 -0.7458
11049SOL     OW36644   0.404   6.460   1.764  0.4928 -0.3354 -0.0310
11049SOL    HW136645   0.494   6.470   1.732  1.2140 -2.8423  1.0292
11049SOL    HW236646   0.353   6.441   1.685  0.9450  0.6166 -0.5736
11050SOL     OW36647   6.382   2.174   6.250  0.1744  0.8960  0.5696
11050SOL    HW136648   6.409   2.158   6.160 -0.1931 -0.3543  0.6688
11050SOL    HW236649   6.464   2.187   6.297  0.4493  0.2304  0.2919
11051SOL     OW36650   2.751   8.355   7.484  0.6133 -0.2636 -0.0722
11051SOL    HW136651   2.715   8.288   7.426  0.0245  0.1841 -0.2295
11051SOL    HW236652   2.839   8.371   7.451  1.0394 -1.4703  0.3982
11052SOL     OW36653  10.811   6.766   4.213  0.7342  1.0438  0.3683
11052SOL    HW136654  10.826   6.676   4.182 -1.9739  0.3089  0.9254
11052SOL    HW236655  10.861   6.771   4.295  1.8771  0.4839 -0.2600
11053SOL     OW36656   0.247   1.682   8.169  0.3343  0.1632 -0.5317
11053SOL    HW136657   0.207   1.707   8.086  1.0356 -2.2553 -1.6874
11053SOL    HW236658   0.341   1.678   8.150  0.3912 -1.6668 -0.0284
11054SOL     OW36659   9.764   4.540   4.973 -0.3926  0.3008  0.1908
11054SOL    HW136660   9.839   4.493   4.937 -0.4751 -0.3281  0.8217
11054SOL    HW236661   9.694   4.475   4.978 -0.5157  0.4950  1.0631
11055SOL     OW36662   5.647   3.622   5.831  0.2864 -0.0040 -0.3065
11055SOL    HW136663   5.725   3.612   5.886  0.9978  1.2064 -1.0708
11055SOL    HW236664   5.586   3.672   5.886  0.1978 -0.5734  0.1276
11056SOL     OW36665   1.869   5.860   2.272  0.0259 -0.2644 -0.0154
11056SOL    HW136666   1.877   5.930   2.207  0.3494  0.8586  1.1961
11056SOL    HW236667   1.922   5.789   2.236 -0.1521  0.1639 -1.1820
11057SOL     OW36668   3.801   1.439  10.912 -0.2638  0.4249  0.0468
11057SOL    HW136669   3.795   1.416  11.004 -1.9834  2.1962  0.4266
11057SOL    HW236670   3.895   1.432  10.892  0.0817 -0.4580  1.7678
11058SOL     OW36671   5.241   3.843   2.784  0.4763  0.1412 -0.1755
11058SOL    HW136672   5.192   3.779   2.734  0.7379  0.3807 -0.7454
11058SOL    HW236673   5.181   3.872   2.853 -0.0714  0.1982 -0.6757
11059SOL     OW36674   7.869   6.948   6.166  0.4520 -0.2583  0.1437
11059SOL    HW136675   7.920   6.868   6.176 -0.7577 -1.3610 -1.7123
11059SOL    HW236676   7.900   6.986   6.084  2.4373  2.3820  1.9567
11060SOL     OW36677   8.752   9.333   1.854 -0.2276 -0.0704 -0.0011
11060SOL    HW136678   8.771   9.283   1.774 -2.4087  0.0301 -0.6411
11060SOL    HW236679   8.718   9.269   1.915 -2.0595  0.4065 -0.4677
11061SOL     OW36680   5.860   2.834   6.623  0.3096  0.3943  0.8360
11061SOL    HW136681   5.782   2.887   6.640 -0.3758 -0.2717 -0.1365
11061SOL    HW236682   5.929   2.898   6.605 -0.1976  0.9692  0.9155
11062SOL     OW36683   0.705   0.266   6.227 -0.3913 -0.7566 -0.4821
11062SOL    HW136684   0.747   0.238   6.308  0.2868  0.8202 -0.2556
11062SOL    HW236685   0.709   0.189   6.170 -1.5235 -2.1315  1.1857
11063SOL     OW36686   0.306   9.370  10.553  0.2632  0.1871  0.2020
11063SOL    HW136687   0.371   9.305  10.526  0.9234  0.7004  0.5069
11063SOL    HW236688   0.305   9.365  10.649 -1.1223 -0.7289  0.1614
11064SOL     OW36689   3.843   0.562   5.800  0.0620  0.4098 -0.0688
11064SOL    HW136690   3.864   0.652   5.774  0.6474 -0.2624 -2.0925
11064SOL    HW236691   3.922   0.513   5.782 -0.5229 -0.6772  0.2451
11065SOL     OW36692   7.157   8.452   6.588 -0.4560  0.1044 -0.6271
11065SOL    HW136693   7.062   8.449   6.580 -0.3700 -2.6328 -1.5023
11065SOL    HW236694   7.177   8.392   6.660  0.5757  1.9842  0.7484
11066SOL     OW36695  10.127   7.128   1.724 -0.2970  0.2197 -0.0603
11066SOL    HW136696  10.117   7.137   1.819  1.3805  0.3779  0.1319
11066SOL    HW236697  10.181   7.050   1.713  0.5092  0.8538 -0.8031
11067SOL     OW36698   3.459   1.232   8.153 -0.3501 -0.6459 -0.1591
11067SOL    HW136699   3.395   1.166   8.179 -0.2792 -0.6213  0.0884
11067SOL    HW236700   3.474   1.283   8.233 -0.2678 -0.4459 -0.3007
11068SOL     OW36701   7.778   1.012  10.289 -0.2997  0.4301  0.2714
11068SOL    HW136702   7.743   1.063  10.362 -0.2195 -0.6315  1.0659
11068SOL    HW236703   7.870   1.039  10.283 -0.5271  1.1561 -0.0033
11069SOL     OW36704   4.745   5.175  10.813  0.6179  0.1118 -0.0346
11069SOL    HW136705   4.744   5.141  10.903 -0.5202 -1.1980 -0.4968
11069SOL    HW236706   4.673   5.238  10.811  1.2693  0.8832  0.2113
11070SOL     OW36707   9.220   4.671  10.654  0.1201 -0.0894 -0.0008
11070SOL    HW136708   9.157   4.601  10.671  0.3712  0.1270  2.1528
11070SOL    HW236709   9.202   4.698  10.564 -1.2274 -1.6480 -0.2571
11071SOL     OW36710   7.055  10.066   8.002 -0.0501  0.2582 -0.0556
11071SOL    HW136711   7.125  10.008   7.972  1.2196  2.1259 -0.9467
11071SOL    HW236712   6.976  10.012   8.001  1.2135 -1.6835  0.1236
11072SOL     OW36713  10.901   0.370   3.740 -0.3423 -0.4745 -0.0921
11072SOL    HW136714  10.972   0.428   3.712 -1.0259  0.4889  0.1233
11072SOL    HW236715  10.915   0.360   3.834  0.4218 -1.5879 -0.3010
11073SOL     OW36716   3.177  10.062   6.564 -0.4767 -0.1719 -0.1049
11073SOL    HW136717   3.139  10.144   6.593 -1.0830 -0.3207 -0.4556
11073SOL    HW236718   3.103  10.001   6.562 -0.0688 -0.6764 -0.0264
11074SOL     OW36719   6.063   2.375   0.644  0.1293  0.6124 -0.2190
11074SOL    HW136720   6.092   2.286   0.626 -0.0366  0.4437  0.3353
11074SOL    HW236721   5.980   2.365   0.690  2.1884  0.7906  4.1339
11075SOL     OW36722   9.786   9.334   0.007 -1.1291 -0.1625 -0.4531
11075SOL    HW136723   9.693   9.329   0.029 -1.2477 -3.3464 -1.1420
11075SOL    HW236724   9.824   9.254   0.045  1.6081  1.5899  0.7876
11076SOL     OW36725  10.467   2.229  10.772  0.5049  0.1693 -0.2246
11076SOL    HW136726  10.504   2.167  10.835 -2.1300  1.0692  2.4131
11076SOL    HW236727  10.527   2.304  10.774  0.5677  0.1037  1.0894
11077SOL     OW36728   2.023   3.251  10.536 -0.0388 -0.2518 -0.0241
11077SOL    HW136729   2.100   3.195  10.524 -0.5411 -0.8021 -0.8525
11077SOL    HW236730   2.005   3.248  10.630  0.1438 -1.2329 -0.0116
11078SOL     OW36731   9.124   0.662   9.124  0.2972  0.0516  0.1909
11078SOL    HW136732   9.038   0.699   9.103 -0.5719 -2.0585 -0.3022
11078SOL    HW236733   9.181   0.693   9.055 -0.4507  0.2787 -0.3437
11079SOL     OW36734   4.770   1.900   6.824 -0.1757 -0.1385 -0.0456
11079SOL    HW136735   4.858   1.862   6.823  0.6738  1.5673  1.9099
11079SOL    HW236736   4.784   1.993   6.844 -2.4510  0.0234  1.1408
11080SOL     OW36737   9.752   4.210   8.109  0.4921  0.0039 -0.1995
11080SOL    HW136738   9.790   4.287   8.067 -0.0709 -1.0011 -2.6867
11080SOL    HW236739   9.750   4.143   8.040 -5.6018 -0.1376 -0.3873
11081SOL     OW36740   0.563   7.737   3.457  0.4987  0.1741  0.2195
11081SOL    HW136741   0.512   7.674   3.507  0.8095 -0.1031  0.1906
11081SOL    HW236742   0.643   7.690   3.433  0.2270  0.2054 -0.7860
11082SOL     OW36743   6.956  10.688   7.605 -0.4180  0.1013 -0.5294
11082SOL    HW136744   6.878  10.738   7.628 -0.1618  0.5561 -0.6382
11082SOL    HW236745   6.976  10.715   7.515  1.0491  1.5366  0.1845
11083SOL     OW36746   7.113   6.210   0.165 -0.5149 -0.3004 -0.5475
11083SOL    HW136747   7.083   6.295   0.132 -1.4848 -0.2189  0.4826
11083SOL    HW236748   7.065   6.146   0.112 -1.9540 -0.1712  0.5292
11084SOL     OW36749   3.578   8.332   0.787  0.0193  0.0063  0.5960
11084SOL    HW136750   3.648   8.398   0.790 -0.1779  0.1744  2.6422
11084SOL    HW236751   3.617   8.259   0.739  1.9496 -0.2323  2.3894
11085SOL     OW36752   1.330   3.215   3.760  0.4662 -0.1815  0.0312
11085SOL    HW136753   1.245   3.176   3.741  1.2249 -1.5130 -0.7484
11085SOL    HW236754   1.393   3.158   3.716  1.7249  1.1351  0.0583
11086SOL     OW36755   3.722   8.523   2.417 -0.1233  0.1272  0.1634
11086SOL    HW136756   3.816   8.516   2.432  0.5120  1.2468 -2.7848
11086SOL    HW236757   3.699   8.610   2.450 -0.5419 -0.7728  2.4254
11087SOL     OW36758   6.132   2.902   3.199  0.2011  0.5169  0.0532
11087SOL    HW136759   6.039   2.926   3.203  0.3871  1.4957  5.7736
11087SOL    HW236760   6.178   2.984   3.216  2.1523 -0.1904 -1.4812
11088SOL     OW36761   1.317  10.693   5.874  0.0337  0.1635 -0.5867
11088SOL    HW136762   1.333  10.784   5.900  0.1074 -0.0054 -0.0408
11088SOL    HW236763   1.247  10.699   5.809 -0.8384  0.4996  0.3710
11089SOL     OW36764   5.339   2.654  10.626 -0.2321 -0.2355  0.3071
11089SOL    HW136765   5.422   2.634  10.669 -0.2869  0.7400  0.9020
11089SOL    HW236766   5.328   2.585  10.562 -0.2558 -1.8914  2.0038
11090SOL     OW36767  10.671   7.708   0.723 -0.2404  0.0674 -0.3756
11090SOL    HW136768  10.687   7.801   0.739 -2.4470  0.0512  2.7099
11090SOL    HW236769  10.624   7.705   0.640 -1.0087  1.8142 -0.0335
11091SOL     OW36770   1.060   3.446   0.370  0.3520 -0.0719  0.5586
11091SOL    HW136771   1.043   3.531   0.411 -0.0514 -0.3544  0.9846
11091SOL    HW236772   1.150   3.426   0.395  1.6603  1.7258 -2.2288
11092SOL     OW36773  10.016   7.911   1.662 -0.0625 -0.5287  0.0417
11092SOL    HW136774  10.030   7.944   1.751 -0.8481 -0.8056  0.2801
11092SOL    HW236775  10.099   7.926   1.617  0.3003 -0.2658  0.7850
11093SOL     OW36776   9.054   8.974   6.685 -0.8392  0.1580  0.3571
11093SOL    HW136777   8.978   9.032   6.686 -0.0779  1.2741 -1.3266
11093SOL    HW236778   9.110   9.006   6.755 -1.7386 -0.4770  1.4030
11094SOL     OW36779  10.262   3.014   4.902  0.0550  0.2813  0.3988
11094SOL    HW136780  10.330   3.015   4.970  1.0289  2.8006 -0.4964
11094SOL    HW236781  10.302   2.966   4.830  0.0298 -0.1453  0.6672
11095SOL     OW36782  10.054   6.259   1.076  0.2560  0.3597  0.3480
11095SOL    HW136783  10.146   6.284   1.083  0.0070  1.5914 -0.4507
11095SOL    HW236784  10.006   6.331   1.116 -0.3775 -0.3276  0.8656
11096SOL     OW36785   1.991   7.123   4.931  0.2292 -0.3867 -0.3275
11096SOL    HW136786   1.960   7.049   4.983  0.2983  0.1646  0.5238
11096SOL    HW236787   1.913   7.179   4.923  0.8168  0.7599  1.3864
11097SOL     OW36788   9.554   3.431   2.584 -0.6131  0.3523  0.2596
11097SOL    HW136789   9.628   3.455   2.641  0.6986  0.5808 -1.4644
11097SOL    HW236790   9.514   3.514   2.560  0.4535  0.4756 -1.1989
11098SOL     OW36791   9.807   8.961   3.453 -0.3451 -0.1566  0.3160
11098SOL    HW136792   9.815   8.914   3.536 -0.3512 -1.9378 -0.6373
11098SOL    HW236793   9.896   8.963   3.418 -0.7244 -1.9165 -0.8860
11099SOL     OW36794   4.182   7.386   5.290 -0.1898 -0.2552  0.4070
11099SOL    HW136795   4.165   7.418   5.201  0.3681 -1.3654 -0.1280
11099SOL    HW236796   4.277   7.384   5.297 -0.1839 -1.9111  0.3365
11100SOL     OW36797   0.409  10.126   2.601  0.0093  0.2016  0.1803
11100SOL    HW136798   0.447  10.068   2.667 -0.5418  0.6635  0.9248
11100SOL    HW236799   0.382  10.204   2.651 -3.7199 -0.8553  0.1027
11101SOL     OW36800   2.292   3.760  10.289  0.1150  0.0219  0.1238
11101SOL    HW136801   2.213   3.711  10.312  0.6704 -1.3015 -0.6699
11101SOL    HW236802   2.283   3.777  10.195  1.0694 -0.7142 -0.1086
11102SOL     OW36803   2.518   6.110  10.083  0.2386  0.2606 -0.7442
11102SOL    HW136804   2.469   6.070  10.012 -0.4509  0.2850 -0.2887
11102SOL    HW236805   2.573   6.177  10.040 -0.7923  0.8601 -1.1584
11103SOL     OW36806   0.174   3.536   4.721 -0.2002 -0.3194 -0.1831
11103SOL    HW136807   0.088   3.579   4.721 -0.6757 -1.2146  0.8354
11103SOL    HW236808   0.197   3.531   4.814  1.5386  1.0061 -0.5018
11104SOL     OW36809   8.627   3.126   2.548 -0.0836  0.4044  0.3366
11104SOL    HW136810   8.553   3.147   2.491  0.9243  1.8524 -0.4954
11104SOL    HW236811   8.617   3.184   2.623  0.3437  0.8087  0.0882
11105SOL     OW36812   6.913   0.267   1.702 -0.6044 -0.1918  0.2719
11105SOL    HW136813   6.834   0.248   1.753 -0.5599  0.0689  0.4403
11105SOL    HW236814   6.885   0.331   1.637 -0.5994 -0.3236  0.1393
11106SOL     OW36815   6.466   2.513   8.952 -0.4255 -0.2064  0.0752
11106SOL    HW136816   6.461   2.424   8.917  1.3569 -0.3226  0.0468
11106SOL    HW236817   6.554   2.520   8.988  0.5044  2.4242 -2.3373
11107SOL     OW36818   3.641   6.004  10.159 -0.0406  0.4341  0.0854
11107SOL    HW136819   3.563   5.956  10.133  0.3552  0.5156 -1.2984
11107SOL    HW236820   3.628   6.021  10.253 -0.9514 -0.8880  0.2246
11108SOL     OW36821   7.847   9.018   4.908  0.4299 -0.1045  0.1660
11108SOL    HW136822   7.787   9.071   4.960  0.0902  0.1426 -0.4768
11108SOL    HW236823   7.793   8.945   4.876 -0.2946  1.5557 -2.7201
11109SOL     OW36824   5.587   2.725   0.902 -0.4822 -0.1046 -0.1260
11109SOL    HW136825   5.626   2.659   0.959 -0.7035 -0.1891 -0.0745
11109SOL    HW236826   5.606   2.808   0.946 -0.3142 -0.1422 -0.1276
11110SOL     OW36827   3.432   2.837   7.540  0.3339  0.1590  0.1123
11110SOL    HW136828   3.422   2.841   7.445 -1.3786  1.0653  0.2902
11110SOL    HW236829   3.385   2.757   7.565  0.3802  0.1742  0.2474
11111SOL     OW36830   5.055   7.209   6.531  0.2894 -0.7396  0.0539
11111SOL    HW136831   5.150   7.198   6.525  0.0968 -1.5279 -2.6539
11111SOL    HW236832   5.041   7.302   6.511  0.4822 -0.4633  1.1029
11112SOL     OW36833   1.346   5.544   5.762  0.6362  0.1203 -0.1231
11112SOL    HW136834   1.380   5.571   5.677  1.9741 -0.1579  0.2992
11112SOL    HW236835   1.348   5.448   5.760  0.1426  0.1011  0.0247
11113SOL     OW36836   4.075  10.477   4.250 -0.1600 -0.6781  0.0947
11113SOL    HW136837   4.112  10.534   4.183  0.1657  0.1865  0.9901
11113SOL    HW236838   4.150  10.440   4.296 -0.3841 -0.3822  0.7109
11114SOL     OW36839   5.738  10.731   4.169  0.4809 -0.6419 -0.6943
11114SOL    HW136840   5.809  10.793   4.154 -0.0753  0.0195 -0.6205
11114SOL    HW236841   5.755  10.696   4.257  0.9604 -0.8307 -0.8558
11115SOL     OW36842   6.605   8.919   0.172  0.5579 -0.1055 -0.4390
11115SOL    HW136843   6.627   9.008   0.200  0.6350 -0.7577  1.7297
11115SOL    HW236844   6.510   8.913   0.182  0.6406 -0.4919  0.1294
11116SOL     OW36845   9.020   5.070   1.910 -0.0898 -0.3921 -0.7619
11116SOL    HW136846   8.997   5.037   1.824 -0.2178 -0.7791 -0.5827
11116SOL    HW236847   9.103   5.028   1.931  0.3858  0.3812 -1.0666
11117SOL     OW36848   8.586   9.343   9.830  0.2886 -0.2972  0.1798
11117SOL    HW136849   8.507   9.391   9.805 -0.0234 -0.2774  1.1719
11117SOL    HW236850   8.640   9.344   9.751 -0.7049 -0.3316 -0.5243
11118SOL     OW36851   9.265   2.467   3.255  0.4747 -0.0435 -0.8704
11118SOL    HW136852   9.312   2.418   3.188 -0.0849 -0.1595 -1.1907
11118SOL    HW236853   9.227   2.541   3.208 -1.5040 -1.1240 -1.1262
11119SOL     OW36854  10.533   5.243  10.298  0.1386  0.1207  0.4536
11119SOL    HW136855  10.531   5.217  10.205  1.7659 -0.1395  0.4572
11119SOL    HW236856  10.532   5.338  10.296  0.5110  0.1231  0.1412
11120SOL     OW36857   9.458   8.919  10.461  0.1518 -0.2577 -0.0012
11120SOL    HW136858   9.374   8.925  10.508 -0.6327  1.0050 -1.4919
11120SOL    HW236859   9.434   8.903  10.370  1.3659  2.6735 -0.9440
11121SOL     OW36860   4.575   4.978   9.255 -0.1248 -0.7035  0.0502
11121SOL    HW136861   4.653   5.034   9.259 -0.3796 -0.3576  0.2347
11121SOL    HW236862   4.504   5.038   9.233 -0.5065 -0.8490  0.8403
11122SOL     OW36863   0.888   9.374   2.902 -0.7627  0.0769  0.2222
11122SOL    HW136864   0.887   9.425   2.983 -1.3629  0.0380  0.2386
11122SOL    HW236865   0.796   9.359   2.881 -0.6878  1.5271 -1.3701
11123SOL     OW36866   9.666   5.058   0.962  0.0919  0.1137 -0.4909
11123SOL    HW136867   9.649   4.964   0.963  0.2940  0.0792 -0.2960
11123SOL    HW236868   9.761   5.066   0.961  0.1074  0.2954 -2.2192
11124SOL     OW36869   8.736   3.761   4.074 -0.0282 -0.0020  0.4157
11124SOL    HW136870   8.753   3.839   4.022  0.2177 -0.8868 -0.8809
11124SOL    HW236871   8.681   3.706   4.018  0.2457 -1.0000  1.0931
11125SOL     OW36872   4.697   2.058   8.110  0.2058 -0.6394  0.9804
11125SOL    HW136873   4.728   2.135   8.064  3.2157 -1.7742  0.9206
11125SOL    HW236874   4.654   2.092   8.188 -1.8186  1.1554 -0.7673
11126SOL     OW36875   8.586   3.880   2.833 -0.1138 -0.1747 -0.0111
11126SOL    HW136876   8.607   3.961   2.786 -1.1909 -1.4919 -2.9799
11126SOL    HW236877   8.495   3.893   2.863  0.0058  0.0226  0.2716
11127SOL     OW36878   5.576   3.591   3.431 -0.4596 -0.0564  0.1415
11127SOL    HW136879   5.529   3.566   3.510 -2.6848  1.8650 -0.4530
11127SOL    HW236880   5.652   3.640   3.464  0.0291 -1.4084  1.0989
11128SOL     OW36881   7.812   2.101   0.384 -0.3277  0.1680 -0.4445
11128SOL    HW136882   7.729   2.091   0.337  0.2568 -0.5171 -1.3607
11128SOL    HW236883   7.795   2.170   0.448 -2.1686 -1.1716  0.6363
11129SOL     OW36884   6.689   0.005   1.983  0.0142 -0.4525 -0.1350
11129SOL    HW136885   6.713  -0.060   2.049  2.1837 -0.2883 -0.6776
11129SOL    HW236886   6.719  -0.032   1.900  0.2858  0.7368 -0.5972
11130SOL     OW36887   2.292   2.901   5.296  0.4986  0.1365  0.9105
11130SOL    HW136888   2.377   2.925   5.258 -0.2640  1.4631 -0.0877
11130SOL    HW236889   2.282   2.808   5.277  1.5429  0.0691  0.6480
11131SOL     OW36890   7.711   3.700   8.687 -0.0435  0.5228 -0.2689
11131SOL    HW136891   7.682   3.755   8.760  1.1847 -0.6304  1.1747
11131SOL    HW236892   7.648   3.627   8.686 -0.3803  0.8153 -0.7370
11132SOL     OW36893   6.229   7.466   4.087  0.0554  0.0115  0.4730
11132SOL    HW136894   6.217   7.373   4.069  0.1511 -0.1965  1.4318
11132SOL    HW236895   6.153   7.490   4.140  0.7032  0.1648  1.3480
11133SOL     OW36896   1.296   9.821   0.296  0.5253  0.4593 -0.7450
11133SOL    HW136897   1.262   9.808   0.207 -1.1850 -0.0800 -0.0480
11133SOL    HW236898   1.342   9.740   0.316  1.1409  0.6812 -1.2108
11134SOL     OW36899  10.858   7.902   8.032  0.2357  0.5461  0.1547
11134SOL    HW136900  10.952   7.918   8.044  0.5120 -0.7415 -0.1601
11134SOL    HW236901  10.851   7.807   8.026 -1.1854  0.5801  0.9072
11135SOL     OW36902  10.019   4.160   1.109  0.1780  0.3553 -0.1058
11135SOL    HW136903   9.934   4.202   1.103  0.3137  0.4424 -2.2704
11135SOL    HW236904  10.077   4.228   1.142 -0.3633  0.6594  0.2317
11136SOL     OW36905   2.677   6.757   5.900  0.7519  0.0811 -0.5248
11136SOL    HW136906   2.739   6.810   5.850  1.0275  1.1609  0.8767
11136SOL    HW236907   2.610   6.819   5.927  1.6157  0.0169  2.0282
11137SOL     OW36908  10.197   3.708   3.887  0.4473  0.8316  0.1263
11137SOL    HW136909  10.242   3.652   3.950 -0.7238 -0.3765 -0.0591
11137SOL    HW236910  10.213   3.667   3.802  3.0901  3.1389 -0.6487
11138SOL     OW36911   1.841   8.074   4.530  0.1464  0.3397  0.0208
11138SOL    HW136912   1.779   8.148   4.525 -0.8924 -0.4669  0.5405
11138SOL    HW236913   1.800   8.013   4.591  0.4912 -1.1342 -1.1684
11139SOL     OW36914   0.897   4.850   7.874 -0.2328 -0.9178 -0.2684
11139SOL    HW136915   0.965   4.835   7.808  1.3804  1.0566  0.8433
11139SOL    HW236916   0.942   4.839   7.957 -1.4906 -0.3999  0.5026
11140SOL     OW36917   6.536   3.201   5.661  0.4261 -0.0723 -0.3667
11140SOL    HW136918   6.631   3.191   5.653  0.2950 -0.7570 -1.2539
11140SOL    HW236919   6.524   3.263   5.733  1.5535  0.2528 -0.4434
11141SOL     OW36920   1.441   9.015   5.738  0.4844  0.1274 -0.2211
11141SOL    HW136921   1.518   8.969   5.703  1.7320 -0.7008  3.2159
11141SOL    HW236922   1.478   9.088   5.789 -1.2910  2.4945 -2.0704
11142SOL     OW36923   0.145   6.026   4.609 -0.0973  0.0966  0.3055
11142SOL    HW136924   0.169   6.021   4.517 -1.1169  1.3818 -0.0583
11142SOL    HW236925   0.148   6.119   4.630  0.8717 -0.2302  1.8013
11143SOL     OW36926   1.753   3.380   2.354  0.0863  0.3229  0.8562
11143SOL    HW136927   1.671   3.393   2.401 -0.7159 -0.3757 -0.2854
11143SOL    HW236928   1.773   3.465   2.314 -1.2156  0.0076 -0.5610
11144SOL     OW36929  10.417   6.656   0.832  0.0981 -0.0549  0.0749
11144SOL    HW136930  10.362   6.730   0.808  0.3920  0.2491  0.3243
11144SOL    HW236931  10.357   6.593   0.871  0.0486  0.6672  1.2321
11145SOL     OW36932   8.830   2.488   3.132 -0.1507 -0.6849  0.5589
11145SOL    HW136933   8.752   2.541   3.149 -0.3695 -0.7799 -0.1385
11145SOL    HW236934   8.828   2.471   3.038  0.1352 -1.5907  0.7062
11146SOL     OW36935   9.826   9.528   4.413  0.3785  0.1468 -0.1221
11146SOL    HW136936   9.751   9.496   4.464  0.5767  0.3058  0.2753
11146SOL    HW236937   9.894   9.462   4.429 -0.5055 -1.5335 -2.7152
11147SOL     OW36938   7.446   2.485   0.898 -0.0917  0.3885  0.1697
11147SOL    HW136939   7.419   2.533   0.819  1.9029 -0.4048 -1.0868
11147SOL    HW236940   7.523   2.534   0.930  0.1297 -0.2532  0.6325
11148SOL     OW36941   5.025   3.355   2.717  0.4749  0.2143  0.1548
11148SOL    HW136942   5.050   3.272   2.675  3.1738  0.3541  1.2803
11148SOL    HW236943   5.025   3.335   2.811 -3.3891  0.4336  0.3451
11149SOL     OW36944   5.426   3.363   7.583  0.0471  0.3802 -0.4648
11149SOL    HW136945   5.365   3.357   7.510  0.2699 -0.0678 -0.6177
11149SOL    HW236946   5.415   3.281   7.631  0.5706  0.2675 -0.5292
11150SOL     OW36947   2.660   3.874   7.200 -0.6482 -0.0187 -0.1057
11150SOL    HW136948   2.722   3.847   7.132 -0.6943  1.7253 -0.8684
11150SOL    HW236949   2.690   3.960   7.227 -0.6016 -0.6794  2.1652
11151SOL     OW36950   1.709   3.061   0.137  0.0391 -0.5654 -0.3622
11151SOL    HW136951   1.766   3.004   0.188 -0.2225 -0.3645  0.1630
11151SOL    HW236952   1.621   3.046   0.174 -0.0696 -0.0287 -0.4018
11152SOL     OW36953   8.362   7.127   4.118 -0.0625 -0.2393 -0.1608
11152SOL    HW136954   8.388   7.046   4.075  0.1030 -0.0300 -0.4600
11152SOL    HW236955   8.290   7.102   4.176 -0.1396 -0.5622 -0.3963
11153SOL     OW36956   4.899   6.627   7.073  0.1293  0.7778 -0.1607
11153SOL    HW136957   4.851   6.593   7.149  0.1437 -0.5946 -0.7300
11153SOL    HW236958   4.983   6.580   7.075  0.3892  1.2097 -0.6598
11154SOL     OW36959   1.371   5.177   4.723  0.0103  0.1739 -0.6300
11154SOL    HW136960   1.432   5.141   4.659 -0.9074 -0.3709 -1.2206
11154SOL    HW236961   1.323   5.101   4.756 -0.6041  0.6247 -0.4525
11155SOL     OW36962  10.498   1.943   3.052 -0.4000  0.2818 -0.1265
11155SOL    HW136963  10.581   1.981   3.025 -0.7451  1.0044 -0.2037
11155SOL    HW236964  10.483   1.979   3.140 -0.8695  0.5600 -0.3165
11156SOL     OW36965  10.691   5.680   5.335  0.3675 -0.5754 -0.0848
11156SOL    HW136966  10.619   5.685   5.397  0.2663 -0.0105 -0.2423
11156SOL    HW236967  10.662   5.732   5.259  0.8952 -0.4154 -0.1876
11157SOL     OW36968   6.348   7.581   5.510 -0.2109 -0.0536 -0.4293
11157SOL    HW136969   6.421   7.533   5.471 -1.0521 -0.2509 -1.8215
11157SOL    HW236970   6.331   7.653   5.449 -0.2647  0.8444  0.6120
11158SOL     OW36971   8.977   4.536   8.785  0.6460  0.0378 -0.8644
11158SOL    HW136972   9.033   4.458   8.777  0.9591  0.4333 -3.2666
11158SOL    HW236973   8.951   4.556   8.696  1.1120  3.1036 -0.4223
11159SOL     OW36974   7.918   9.988   8.750  0.9122 -0.4726 -0.1105
11159SOL    HW136975   7.834   9.984   8.796  1.8567 -0.4632  1.7173
11159SOL    HW236976   7.932   9.899   8.719 -0.2077 -0.2576 -1.2995
11160SOL     OW36977   4.441  10.371   8.164  0.1656 -0.0320  0.1186
11160SOL    HW136978   4.356  10.408   8.186  0.0418 -0.5948  0.6010
11160SOL    HW236979   4.421  10.291   8.116  0.4327  0.7162 -1.2981
11161SOL     OW36980   7.277  10.572   4.753 -0.2367 -0.0850  0.3046
11161SOL    HW136981   7.243  10.596   4.839 -1.9984 -0.2768 -0.3017
11161SOL    HW236982   7.285  10.656   4.706  2.0443  0.1858  1.0522
11162SOL     OW36983   4.222   3.638   8.537 -0.1041  0.0019  0.1539
11162SOL    HW136984   4.283   3.652   8.610 -1.1170 -0.5924  1.1448
11162SOL    HW236985   4.168   3.564   8.565 -1.3510  0.5844 -0.6423
11163SOL     OW36986   6.172   2.565   9.662 -0.0085 -0.6085 -0.4095
11163SOL    HW136987   6.082   2.579   9.694  0.3714 -0.9271  0.8558
11163SOL    HW236988   6.227   2.608   9.727  0.9344 -3.4387  0.8470
11164SOL     OW36989   9.180   0.254   8.645 -0.4890  0.7525  0.5191
11164SOL    HW136990   9.230   0.172   8.648 -1.7793 -0.0547  0.8077
11164SOL    HW236991   9.198   0.296   8.729  1.2654  1.4686 -0.1691
11165SOL     OW36992   0.470   4.519   6.378  0.3638 -0.2654 -0.0307
11165SOL    HW136993   0.542   4.562   6.332 -0.2571 -0.0115 -0.7647
11165SOL    HW236994   0.506   4.434   6.403  1.7915  0.8365  1.9347
11166SOL     OW36995   0.513   2.907   3.564 -0.4163 -0.3926  0.6993
11166SOL    HW136996   0.441   2.848   3.584  0.8509 -1.9114  0.9384
11166SOL    HW236997   0.591   2.851   3.561  0.5500  0.9256 -1.0979
11167SOL     OW36998   2.635   1.758   5.861  0.0995  0.5576  0.3167
11167SOL    HW136999   2.543   1.783   5.859  0.0231  0.2922  0.4884
11167SOL    HW237000   2.682   1.835   5.829  0.0090  1.6114  2.5906
11168SOL     OW37001   7.396   1.717   1.153 -0.2126 -0.3453 -0.3764
11168SOL    HW137002   7.327   1.780   1.133  0.7365  0.1403 -2.4526
11168SOL    HW237003   7.468   1.770   1.188 -0.5087 -0.7137  0.8244
11169SOL     OW37004   5.256   2.980   0.931  0.0833 -0.2953 -0.1585
11169SOL    HW137005   5.251   2.945   1.019  0.9233 -1.6302 -0.6119
11169SOL    HW237006   5.247   2.903   0.874 -3.9748  0.8147 -1.3971
11170SOL     OW37007   8.675   0.769   7.175  0.5687  0.5896  0.1731
11170SOL    HW137008   8.609   0.831   7.144  2.0063  1.6235 -0.9782
11170SOL    HW237009   8.640   0.736   7.258 -1.5537  0.7714 -0.5923
11171SOL     OW37010   4.689   0.371   1.577  0.0788  0.0397  0.2810
11171SOL    HW137011   4.613   0.422   1.548 -1.0837 -1.0471  1.2751
11171SOL    HW237012   4.689   0.383   1.672  0.7984 -0.4682  0.3445
11172SOL     OW37013   0.846   8.849   2.602  0.1779  0.2960 -0.0181
11172SOL    HW137014   0.751   8.861   2.590  0.3376 -0.4338 -2.9767
11172SOL    HW237015   0.864   8.763   2.563  1.9977  0.1099  1.1119
11173SOL     OW37016  10.417   0.574   5.245 -0.1077  0.5316 -0.5207
11173SOL    HW137017  10.497   0.523   5.244  1.8364  3.3028  0.6404
11173SOL    HW237018  10.392   0.579   5.338  0.9083  3.1302 -0.2827
11174SOL     OW37019   6.841   3.591   6.213 -0.3015 -0.2153 -0.1008
11174SOL    HW137020   6.901   3.517   6.214  1.1020  0.8973 -0.0605
11174SOL    HW237021   6.860   3.637   6.131  0.0030  1.0148  0.6323
11175SOL     OW37022   5.873   4.911   2.425  0.5391  0.0726  0.8452
11175SOL    HW137023   5.934   4.983   2.407  0.1694  0.3178  0.5511
11175SOL    HW237024   5.789   4.942   2.389  0.7662 -1.2383 -0.9407
11176SOL     OW37025   1.630   8.229   0.210 -0.0912  0.3604 -0.1784
11176SOL    HW137026   1.709   8.194   0.170  0.1286  1.7301 -1.0019
11176SOL    HW237027   1.648   8.226   0.304  0.3646 -0.6264 -0.2840
11177SOL     OW37028   6.244   9.794   7.913  0.0383 -0.1925  0.3462
11177SOL    HW137029   6.338   9.774   7.915  0.0153 -0.2209  1.1573
11177SOL    HW237030   6.239   9.877   7.864  0.4916 -0.1590  0.3517
11178SOL     OW37031   2.659   4.131   0.203  0.6448  0.4730 -0.3966
11178SOL    HW137032   2.734   4.087   0.164  1.1690  0.5208  0.5298
11178SOL    HW237033   2.652   4.095   0.291 -0.6451  0.2152 -0.5832
11179SOL     OW37034   0.837  10.561   8.445  0.4275  0.3824  0.0087
11179SOL    HW137035   0.777  10.492   8.417  1.1214 -0.2591  0.0839
11179SOL    HW237036   0.833  10.626   8.375 -1.9501  1.4019  0.9639
11180SOL     OW37037  10.848   2.811   8.762  0.0029 -0.3114  0.1882
11180SOL    HW137038  10.842   2.906   8.764 -1.4160 -0.3860  0.8926
11180SOL    HW237039  10.841   2.789   8.669 -0.7222  0.2364  0.0985
11181SOL     OW37040   5.218  10.313   6.729 -0.2947 -0.0384  0.6476
11181SOL    HW137041   5.127  10.316   6.757  0.1105 -0.0800  2.0446
11181SOL    HW237042   5.245  10.223   6.747  0.2168  0.1600  0.8720
11182SOL     OW37043   4.598   5.399   8.386  0.0646  0.3681  0.2104
11182SOL    HW137044   4.663   5.404   8.316 -0.0124  2.0916  0.2217
11182SOL    HW237045   4.569   5.308   8.385  0.9861  0.0543 -1.1484
11183SOL     OW37046   4.741   7.155   0.218  0.2817 -0.2708  0.2616
11183SOL    HW137047   4.678   7.114   0.159 -0.3622 -1.7312  1.8890
11183SOL    HW237048   4.826   7.138   0.177 -0.1797 -0.7980 -0.5110
11184SOL     OW37049   6.780   6.631  10.522  0.2105  0.0552 -0.9132
11184SOL    HW137050   6.701   6.658  10.569 -0.2602  2.4246 -2.8427
11184SOL    HW237051   6.757   6.640  10.429  3.1299  2.3543 -1.5784
11185SOL     OW37052   1.479   7.250   7.956 -0.0273  0.0392  0.5135
11185SOL    HW137053   1.394   7.257   7.912 -0.6039 -2.5461  1.0642
11185SOL    HW237054   1.481   7.161   7.991  2.2088  0.6001  2.0299
11186SOL     OW37055   3.843   9.237   8.524 -0.2461  0.2046 -0.0053
11186SOL    HW137056   3.765   9.183   8.514  0.0128 -0.2912  0.5957
11186SOL    HW237057   3.813   9.312   8.576 -1.0997  1.7485 -2.5459
11187SOL     OW37058   2.604   6.231   7.438 -0.0826  0.3613  0.3264
11187SOL    HW137059   2.516   6.214   7.471 -1.0337  1.4402 -1.4688
11187SOL    HW237060   2.662   6.204   7.509 -1.9482  2.2310  2.7501
11188SOL     OW37061   0.894   3.251   0.493  0.8511 -0.0278  0.5019
11188SOL    HW137062   0.931   3.333   0.461  0.9234  0.2329  1.2371
11188SOL    HW237063   0.883   3.197   0.414 -0.7249  1.2804 -0.2385
11189SOL     OW37064   7.487   9.761   3.616 -0.2619 -0.2713  0.0513
11189SOL    HW137065   7.479   9.856   3.617 -0.7126 -0.3082  0.1276
11189SOL    HW237066   7.403   9.730   3.580  0.1415 -0.6108 -0.6110
11190SOL     OW37067   3.758   3.668   7.301  0.6145  0.3749 -0.1908
11190SOL    HW137068   3.772   3.760   7.326  1.1222  0.7104 -1.6123
11190SOL    HW237069   3.734   3.672   7.209 -0.8154 -0.8343  0.0947
11191SOL     OW37070   4.281   9.761   8.614  0.8013 -0.6214  0.4538
11191SOL    HW137071   4.376   9.767   8.624  0.9393 -0.7868 -0.6756
11191SOL    HW237072   4.253   9.852   8.604  0.8972 -0.6134  0.2626
11192SOL     OW37073   3.749   0.306   4.499  0.8066  0.0365 -0.3330
11192SOL    HW137074   3.714   0.217   4.491 -0.4417  0.3307  1.2161
11192SOL    HW237075   3.743   0.325   4.593  0.1466  2.0957 -0.7307
11193SOL     OW37076   2.547   2.984   7.687  0.3050  0.4536  0.7147
11193SOL    HW137077   2.591   3.030   7.615  1.1608  0.1407  1.0305
11193SOL    HW237078   2.458   3.020   7.687  0.2809  0.4242 -0.5261
11194SOL     OW37079   4.223  10.988   3.076  0.7840  0.3647 -1.2893
11194SOL    HW137080   4.257  10.899   3.060  0.3915  0.2370 -1.4329
11194SOL    HW237081   4.273  11.043   3.017  1.1684  0.2689 -1.0597
11195SOL     OW37082   8.148   6.114   8.298  0.4826 -0.2614 -0.2893
11195SOL    HW137083   8.176   6.059   8.372  0.9126 -1.1582 -1.0977
11195SOL    HW237084   8.098   6.185   8.339  0.2302 -1.0443  0.8207
11196SOL     OW37085   8.592   8.704   3.149  0.3696  0.1488  0.0210
11196SOL    HW137086   8.566   8.612   3.148  0.2996  0.1668  0.2777
11196SOL    HW237087   8.541   8.743   3.220 -0.7325  0.7171 -1.0450
11197SOL     OW37088   2.882   6.137   4.486 -0.4180 -0.5272  0.3912
11197SOL    HW137089   2.866   6.043   4.483  3.0566 -1.3189  1.2701
11197SOL    HW237090   2.807   6.177   4.442 -2.3601 -3.6244  0.6306
11198SOL     OW37091   1.812  10.137   0.523  0.2423  0.0830  0.4748
11198SOL    HW137092   1.797  10.222   0.565 -2.7686 -0.6018  1.0576
11198SOL    HW237093   1.789  10.073   0.591 -0.3173 -1.1297 -0.8245
11199SOL     OW37094   3.122   9.251   5.256 -0.1368  0.2440  0.0731
11199SOL    HW137095   3.140   9.339   5.222  0.0313  0.2367  0.1425
11199SOL    HW237096   3.169   9.193   5.196 -0.3379  0.1947 -0.0363
11200SOL     OW37097   4.369   2.108  10.983  0.1114  0.7130 -0.1808
11200SOL    HW137098   4.374   2.057  11.063  1.0411 -1.4385 -1.5289
11200SOL    HW237099   4.297   2.069  10.933  1.5264 -0.0749 -1.7112
11201SOL     OW37100   3.088   4.791   3.389 -0.2132 -0.6068  0.2140
11201SOL    HW137101   3.028   4.803   3.463 -2.0246 -0.5417 -1.1763
11201SOL    HW237102   3.055   4.714   3.343  0.3674 -0.1868 -0.9609
11202SOL     OW37103   2.007   5.352   1.016  0.1810  0.2770  0.1482
11202SOL    HW137104   1.960   5.402   1.082  0.3428 -1.4537  1.6481
11202SOL    HW237105   2.075   5.305   1.065 -0.2261 -1.7186 -1.0808
11203SOL     OW37106   0.739   9.321   1.408 -0.5050 -0.2896 -0.1212
11203SOL    HW137107   0.724   9.388   1.475 -2.4559 -0.4422 -0.3237
11203SOL    HW237108   0.716   9.238   1.452  0.7681 -0.7120 -0.2169
11204SOL     OW37109   9.102   9.204  10.224  0.3203 -0.1377  0.2070
11204SOL    HW137110   9.016   9.184  10.262  0.3689 -0.5830  0.0747
11204SOL    HW237111   9.134   9.277  10.278 -0.1396  0.0400  0.2534
11205SOL     OW37112   7.544   4.516   8.904  0.0144 -0.3307 -0.8039
11205SOL    HW137113   7.462   4.471   8.886  0.6178 -1.3631 -1.0135
11205SOL    HW237114   7.518   4.590   8.960 -1.1502 -0.1770 -1.5032
11206SOL     OW37115   8.509   5.389   4.946  0.1041  0.4324 -0.2482
11206SOL    HW137116   8.451   5.392   4.870 -1.8373 -1.0619  1.0522
11206SOL    HW237117   8.583   5.336   4.918 -0.3879  0.2393 -1.2254
11207SOL     OW37118   3.610   7.179   6.182  0.3174  0.3596 -0.0185
11207SOL    HW137119   3.615   7.098   6.132  0.4064 -0.8307  1.8271
11207SOL    HW237120   3.641   7.246   6.122 -2.6479 -0.4036 -2.6797
11208SOL     OW37121   0.380   6.033   1.866 -0.0572  0.2129  0.0952
11208SOL    HW137122   0.385   5.954   1.811 -0.2568  0.7091 -0.6561
11208SOL    HW237123   0.471   6.055   1.885  0.0138  0.0128 -0.0123
11209SOL     OW37124   6.071   7.459   5.278  0.1135 -0.0006 -0.7572
11209SOL    HW137125   6.133   7.405   5.227 -0.0264 -1.9786  1.0269
11209SOL    HW237126   5.987   7.415   5.267 -0.0591 -0.0117  0.5273
11210SOL     OW37127   1.459   0.161   3.726 -0.0445  0.4431 -0.6659
11210SOL    HW137128   1.378   0.114   3.706 -0.1878 -0.6862  2.0810
11210SOL    HW237129   1.522   0.128   3.662 -1.0109 -0.9088 -0.9837
11211SOL     OW37130   1.358   3.516   7.298  0.1393  0.5550  0.4459
11211SOL    HW137131   1.325   3.606   7.292  2.0680  1.3432  1.0246
11211SOL    HW237132   1.341   3.490   7.388 -0.5546  0.2609  0.2387
11212SOL     OW37133   2.032   6.138   3.727 -0.2920  0.2926 -0.1283
11212SOL    HW137134   2.102   6.087   3.768 -0.2122  1.1954  0.9100
11212SOL    HW237135   2.073   6.178   3.650 -0.0062 -0.1763 -0.2213
11213SOL     OW37136  10.499   8.724   0.303 -0.0669 -0.1397  0.4769
11213SOL    HW137137  10.588   8.731   0.337  0.0881 -0.4844  0.1533
11213SOL    HW237138  10.508   8.672   0.223 -0.4685  0.3926  0.0780
11214SOL     OW37139   7.404   9.364   6.847 -0.1585  0.4701  0.1692
11214SOL    HW137140   7.382   9.285   6.797  1.1173 -0.1959  0.6050
11214SOL    HW237141   7.334   9.372   6.911 -0.0848 -0.5875  0.4074
11215SOL     OW37142   0.047   3.461   0.657  0.1755  0.5478  0.1150
11215SOL    HW137143   0.137   3.466   0.624  0.2279  1.1730  0.3310
11215SOL    HW237144   0.028   3.550   0.688 -0.0444  0.1115  1.2918
11216SOL     OW37145   7.354   5.364  10.896 -0.6218  0.0573 -0.1715
11216SOL    HW137146   7.409   5.287  10.909 -0.2208  0.0329 -1.8571
11216SOL    HW237147   7.369   5.417  10.974  1.2791 -0.2719 -0.2694
11217SOL     OW37148   7.615  10.908   6.085  0.8113 -0.0900 -0.0989
11217SOL    HW137149   7.621  10.956   6.003  1.2973 -0.3430 -0.2094
11217SOL    HW237150   7.521  10.887   6.093  0.8152 -0.3964 -0.7778
11218SOL     OW37151   3.441   4.052   0.702 -0.0914  0.8158 -0.6362
11218SOL    HW137152   3.479   4.055   0.614  0.6648  2.2947 -0.2953
11218SOL    HW237153   3.355   4.093   0.692  0.1534  1.3432 -0.6283
11219SOL     OW37154   7.707  10.473  10.162 -0.4149  0.2341 -0.4500
11219SOL    HW137155   7.761  10.455  10.240 -2.0054  0.1346  0.6756
11219SOL    HW237156   7.770  10.504  10.096  1.0695 -0.3009  0.6522
11220SOL     OW37157   8.995   6.498   2.189 -0.1090 -0.0424  0.7184
11220SOL    HW137158   9.053   6.431   2.224 -0.8189 -0.7489  0.5813
11220SOL    HW237159   8.950   6.456   2.116 -0.8574  0.4431  0.8759
11221SOL     OW37160   1.449   8.566   7.944  0.1400  0.2777  0.3010
11221SOL    HW137161   1.488   8.487   7.983 -0.3889 -1.1065 -1.7876
11221SOL    HW237162   1.508   8.588   7.872 -0.7735  0.5655 -0.3823
11222SOL     OW37163   9.537   7.557   4.048  0.3663  0.1848  0.4686
11222SOL    HW137164   9.604   7.488   4.052  1.2906  1.0750  0.5985
11222SOL    HW237165   9.458   7.515   4.084  0.9982 -0.7051  0.8598
11223SOL     OW37166   8.358   7.226   5.592  0.3835  0.3598  0.0991
11223SOL    HW137167   8.421   7.197   5.658  0.3336 -1.0601 -0.4321
11223SOL    HW237168   8.288   7.161   5.596  0.3951  0.2298 -1.3426
11224SOL     OW37169   0.996   6.956  10.265 -0.0923 -0.1757  0.4336
11224SOL    HW137170   0.913   7.004  10.258 -0.5194 -0.7364  1.5013
11224SOL    HW237171   1.058   7.022  10.295 -0.2620  0.1291  0.1276
11225SOL     OW37172   8.051   2.105   8.327 -0.2053 -0.1936 -0.1456
11225SOL    HW137173   7.994   2.069   8.395  1.6691 -3.8642 -0.2948
11225SOL    HW237174   8.139   2.104   8.365  0.4357  0.8157 -1.5129
11226SOL     OW37175  10.779   3.373   9.401  0.0333 -0.3266  0.3236
11226SOL    HW137176  10.874   3.383   9.403 -0.0625  0.5812  0.8246
11226SOL    HW237177  10.757   3.333   9.485 -0.0031 -0.8741  0.0606
11227SOL     OW37178   4.822   1.503  10.629 -0.3206 -0.1230 -0.5230
11227SOL    HW137179   4.906   1.474  10.594 -0.2352  2.1321 -2.3924
11227SOL    HW237180   4.760   1.436  10.599  0.4816 -0.7370 -0.8559
11228SOL     OW37181   4.503   3.172   8.415  0.0641 -0.1466  0.1055
11228SOL    HW137182   4.409   3.183   8.432 -0.3323 -1.5796 -0.9128
11228SOL    HW237183   4.506   3.123   8.333  1.7639  1.9318 -1.1629
11229SOL     OW37184   1.708   6.579   6.543  0.1510 -0.1632  0.0027
11229SOL    HW137185   1.668   6.562   6.457  1.6083 -2.0103 -0.3831
11229SOL    HW237186   1.673   6.664   6.570  1.6004  1.8007 -3.6163
11230SOL     OW37187   0.171   7.347   7.758 -0.0351  0.6609 -0.2723
11230SOL    HW137188   0.253   7.373   7.801  0.4832 -2.1425  0.6579
11230SOL    HW237189   0.199   7.288   7.688 -1.1490  2.1319 -2.0583
11231SOL     OW37190   3.998   6.492   1.913  0.8142  0.1915 -0.0976
11231SOL    HW137191   3.961   6.488   2.001  0.2070  0.1032 -0.3475
11231SOL    HW237192   4.044   6.409   1.902  0.0842 -0.2092 -0.2001
11232SOL     OW37193   8.550  10.809   9.100  0.1637 -0.1897 -0.6088
11232SOL    HW137194   8.628  10.754   9.108  0.2584 -0.1860 -1.3880
11232SOL    HW237195   8.552  10.839   9.009 -0.1153  0.7654 -0.3079
11233SOL     OW37196   9.419   5.181   8.216  0.0454  0.2125 -0.3777
11233SOL    HW137197   9.504   5.218   8.194  0.9186 -1.5613 -0.1204
11233SOL    HW237198   9.376   5.249   8.268  1.4827  0.9538 -0.1083
11234SOL     OW37199   8.288   4.365   9.400  0.4192  0.2354 -0.1246
11234SOL    HW137200   8.335   4.427   9.455  0.5893  0.3761 -0.4239
11234SOL    HW237201   8.213   4.338   9.452  1.1610 -0.4635  0.6124
11235SOL     OW37202   0.714   6.290  10.839 -0.6389 -0.5343 -0.0104
11235SOL    HW137203   0.672   6.363  10.795 -2.8927 -1.8559 -0.1817
11235SOL    HW237204   0.783   6.331  10.892 -1.1475  1.5677 -0.8566
11236SOL     OW37205  10.679  10.872   2.387  0.0626  0.2863  0.4849
11236SOL    HW137206  10.587  10.896   2.400 -0.4675 -1.5719  0.4105
11236SOL    HW237207  10.706  10.921   2.309 -2.2607 -2.5069 -2.3043
11237SOL     OW37208   7.962   9.250   8.388  0.5952  0.1904  0.1740
11237SOL    HW137209   7.972   9.157   8.406 -1.0540 -0.0776 -0.1157
11237SOL    HW237210   8.028   9.269   8.322  0.7771 -0.8248  0.0453
11238SOL     OW37211   0.265   3.478  10.168 -0.4377 -0.2530  0.1330
11238SOL    HW137212   0.292   3.552  10.223  2.3633 -1.6001  0.7282
11238SOL    HW237213   0.194   3.436  10.218  0.1957  0.1321  1.4084
11239SOL     OW37214   3.617   9.435   6.520 -0.0446  0.2837 -0.5080
11239SOL    HW137215   3.698   9.385   6.518 -0.9550 -1.2904 -0.3397
11239SOL    HW237216   3.607   9.461   6.612  0.8580  1.5735 -0.7458
11240SOL     OW37217  10.250   8.356   5.932  0.0392  0.1482  0.6551
11240SOL    HW137218  10.261   8.261   5.937 -0.0331  0.0491 -0.7619
11240SOL    HW237219  10.157   8.370   5.948 -0.2463 -0.1663 -0.6504
11241SOL     OW37220   1.432   6.476  10.238  0.4611 -0.0398 -0.9375
11241SOL    HW137221   1.419   6.498  10.146  2.4817  1.1717 -1.0125
11241SOL    HW237222   1.471   6.555  10.276  1.1923 -1.0713  0.5676
11242SOL     OW37223  10.114   2.987   1.697 -0.6561 -0.2604  0.3719
11242SOL    HW137224  10.183   3.053   1.694 -1.6981  0.8450 -1.5597
11242SOL    HW237225  10.051   3.021   1.761 -0.2916 -0.3435  0.7764
11243SOL     OW37226   3.604   6.942   3.668 -0.5291  0.1175  0.0103
11243SOL    HW137227   3.633   6.897   3.589 -0.5081 -0.5474  0.3932
11243SOL    HW237228   3.686   6.970   3.711 -0.4977 -0.5175  0.3707
11244SOL     OW37229   5.683   7.973   9.459 -0.1712 -0.4245  0.1022
11244SOL    HW137230   5.631   7.904   9.419 -1.4959  0.1691  0.7615
11244SOL    HW237231   5.626   8.050   9.461 -0.4301 -0.5296  3.5635
11245SOL     OW37232   6.924   8.021   2.249  0.2171 -0.4398  0.0899
11245SOL    HW137233   7.015   8.004   2.226  0.0757 -1.1630  0.0383
11245SOL    HW237234   6.879   7.939   2.229 -0.2905 -0.3730  0.9268
11246SOL     OW37235   3.822   4.736  10.677  0.2705  0.1046 -1.0325
11246SOL    HW137236   3.744   4.721  10.623 -1.0027  0.0342  0.7148
11246SOL    HW237237   3.863   4.650  10.685  0.7781  0.2107 -2.2780
11247SOL     OW37238   8.460   8.857   1.445 -0.2430 -0.0285 -0.3147
11247SOL    HW137239   8.486   8.854   1.537 -1.0424 -1.4476 -0.0942
11247SOL    HW237240   8.534   8.821   1.397 -0.0730  0.1212 -0.1628
11248SOL     OW37241   7.012   5.852   2.481  0.4484  0.0497  0.0572
11248SOL    HW137242   6.964   5.817   2.557  1.2046 -1.1559  0.0125
11248SOL    HW237243   7.076   5.784   2.461  1.6892  1.2929 -0.3377
11249SOL     OW37244   9.809   2.369   8.160  0.2670 -0.4801 -0.4037
11249SOL    HW137245   9.731   2.400   8.205  0.9367 -0.9585  1.1497
11249SOL    HW237246   9.805   2.412   8.074 -1.1022  0.3902  0.0502
11250SOL     OW37247   6.327   5.382   8.197  0.3311  0.0432 -0.0773
11250SOL    HW137248   6.346   5.360   8.288  0.4538 -0.4434 -0.2167
11250SOL    HW237249   6.242   5.343   8.180 -0.7504  2.0314  0.4782
11251SOL     OW37250   5.236   6.326   7.333  0.4874  0.3020 -0.2406
11251SOL    HW137251   5.309   6.385   7.314  0.4056  0.6618  0.5497
11251SOL    HW237252   5.264   6.276   7.410  0.6166 -0.8123 -0.9778
11252SOL     OW37253   7.111   1.027   3.345 -0.2117 -0.3723 -0.1903
11252SOL    HW137254   7.033   1.025   3.402 -0.6720 -0.1974 -0.8000
11252SOL    HW237255   7.152   1.112   3.364 -0.8593  0.0788 -0.7551
11253SOL     OW37256   2.896   9.625   6.154 -0.4064  0.0976  0.0511
11253SOL    HW137257   2.901   9.585   6.241 -3.0990  2.1641  1.2813
11253SOL    HW237258   2.830   9.575   6.107  0.2486 -0.3231 -0.4444
11254SOL     OW37259   5.825  10.086   2.264 -0.2999 -0.1626  0.0025
11254SOL    HW137260   5.828   9.998   2.227  1.2344 -0.2454  0.2775
11254SOL    HW237261   5.735  10.115   2.249 -0.1311 -0.7264 -2.5069
11255SOL     OW37262   8.594   4.243   4.773  0.2171 -0.3044  0.5958
11255SOL    HW137263   8.511   4.201   4.751  1.3465 -1.7843 -1.0859
11255SOL    HW237264   8.602   4.314   4.709  0.7756 -0.9155 -0.0277
11256SOL     OW37265   6.848   5.592   0.115  0.1708 -0.4336  0.0812
11256SOL    HW137266   6.783   5.654   0.081 -0.0446 -0.5529  0.2745
11256SOL    HW237267   6.897   5.643   0.180 -1.6637 -1.1300  2.1544
11257SOL     OW37268   9.274   2.919   0.575  0.2645  0.3102 -0.4107
11257SOL    HW137269   9.203   2.857   0.558 -0.4529  0.4699  1.7043
11257SOL    HW237270   9.306   2.897   0.663  1.5736  1.4521 -0.5458
11258SOL     OW37271   8.993   0.738   1.885 -0.2514  0.0937  0.0468
11258SOL    HW137272   9.000   0.833   1.873 -0.3250  0.0020 -0.7663
11258SOL    HW237273   8.982   0.727   1.979 -2.0183  1.0106  0.0025
11259SOL     OW37274   9.501   5.965   1.955 -0.2471  0.6844 -0.0397
11259SOL    HW137275   9.499   6.042   1.899 -0.1603  0.9050  0.2591
11259SOL    HW237276   9.460   5.896   1.903  0.1461  0.7964 -0.5050
11260SOL     OW37277   8.978  10.927   7.989  0.1452 -0.0467 -0.1840
11260SOL    HW137278   8.892  10.962   8.010 -0.0798 -1.0966  0.7617
11260SOL    HW237279   8.968  10.832   7.997  1.8855 -0.1155  1.9872
11261SOL     OW37280   5.300   0.211   7.141 -0.1117 -0.1761  0.0563
11261SOL    HW137281   5.304   0.116   7.142 -0.7722 -0.2099  0.9663
11261SOL    HW237282   5.386   0.239   7.174 -0.1986 -0.4742  0.5434
11262SOL     OW37283   0.413   2.523   8.908  0.6594 -0.0042 -0.1594
11262SOL    HW137284   0.361   2.603   8.913 -0.6707 -0.8943  0.5824
11262SOL    HW237285   0.350   2.454   8.887  1.3601 -1.2637  1.6727
11263SOL     OW37286   3.229   5.927   2.277 -0.1164 -0.1192 -0.6451
11263SOL    HW137287   3.220   5.963   2.365 -0.0855 -1.6980  0.0418
11263SOL    HW237288   3.321   5.943   2.254 -0.4842  1.6326 -1.0429
11264SOL     OW37289   7.414   5.209   2.862 -0.2011  0.3588  0.1010
11264SOL    HW137290   7.384   5.299   2.873 -1.1961  0.0812 -0.3202
11264SOL    HW237291   7.507   5.213   2.885  0.6152  2.1375 -2.9060
11265SOL     OW37292  10.208   6.954   6.197  0.2819 -0.2517 -0.2543
11265SOL    HW137293  10.129   6.974   6.148  0.5458  1.3248 -0.0772
11265SOL    HW237294  10.269   6.920   6.131 -0.4253 -1.2369 -0.4304
11266SOL     OW37295   4.357   5.454   3.521 -0.2883 -0.0736 -0.2598
11266SOL    HW137296   4.295   5.473   3.450 -1.9122 -1.0776  0.8156
11266SOL    HW237297   4.302   5.451   3.599  1.4523  0.9172  1.0515
11267SOL     OW37298   6.060   5.011   5.689  0.3228  0.5050 -0.2656
11267SOL    HW137299   6.003   4.935   5.703 -0.5949  1.3809  0.9920
11267SOL    HW237300   6.144   4.986   5.727  1.1403 -1.1117 -2.8574
11268SOL     OW37301   2.240   1.772   1.357  0.3315 -0.4654 -0.8608
11268SOL    HW137302   2.333   1.788   1.373  0.7817 -2.5006 -1.1140
11268SOL    HW237303   2.201   1.767   1.444  0.3942  0.6109 -0.7565
11269SOL     OW37304   8.995   7.005   1.970  0.1542 -0.0899  0.3216
11269SOL    HW137305   9.066   6.992   2.033 -0.3637 -0.2685  0.8703
11269SOL    HW237306   8.934   7.064   2.014  0.2267  0.5145 -0.3668
11270SOL     OW37307   0.126   5.238  10.683  0.5483 -0.0465 -0.0234
11270SOL    HW137308   0.033   5.262  10.676  0.9163  1.6919  0.4118
11270SOL    HW237309   0.169   5.290  10.615  1.4906  1.0986  1.3799
11271SOL     OW37310   6.493   3.803   2.498 -0.4436  0.1622  0.3611
11271SOL    HW137311   6.477   3.715   2.466  1.5915  0.3061 -1.2449
11271SOL    HW237312   6.424   3.857   2.459  0.7277 -0.0454 -2.1294
11272SOL     OW37313   1.749   4.618   6.315  0.1936 -0.1798 -0.4737
11272SOL    HW137314   1.786   4.551   6.373 -1.6403 -0.0837  0.8802
11272SOL    HW237315   1.779   4.701   6.352  1.7507 -0.1486 -1.6580
11273SOL     OW37316   9.054   5.651   1.482 -0.0021  0.2962 -0.1185
11273SOL    HW137317   9.102   5.590   1.425 -1.5317 -2.0331  0.9328
11273SOL    HW237318   9.122   5.697   1.531  1.2192 -1.8151  0.2696
11274SOL     OW37319   0.004   1.554   9.925  0.3140  0.0271 -0.0992
11274SOL    HW137320  -0.084   1.515   9.928  0.4000 -0.1018  1.5147
11274SOL    HW237321   0.016   1.579   9.833 -1.1469 -0.5476 -0.4736
11275SOL     OW37322   9.595   2.500   5.598 -0.0504  0.2763  0.2267
11275SOL    HW137323   9.522   2.463   5.549 -0.7451  0.3317  1.1805
11275SOL    HW237324   9.562   2.506   5.688  0.8595  1.0439  0.5202
11276SOL     OW37325   0.883   4.421   6.475  0.5396 -0.3544  0.2133
11276SOL    HW137326   0.932   4.400   6.555 -0.9847  0.1824  1.3352
11276SOL    HW237327   0.889   4.516   6.467  0.1541 -0.3401  0.0662
11277SOL     OW37328   9.795   6.553   8.516 -0.1262 -0.3598  0.2629
11277SOL    HW137329   9.732   6.570   8.586 -1.1159 -1.1805 -0.3970
11277SOL    HW237330   9.744   6.508   8.448  0.3243  1.9956 -1.8142
11278SOL     OW37331   2.593   1.949   1.746  0.5372  0.5540 -0.1144
11278SOL    HW137332   2.587   1.867   1.795  0.6104  0.0698 -0.8799
11278SOL    HW237333   2.686   1.959   1.726  0.5220  0.7926 -0.0636
11279SOL     OW37334   6.783   2.693   8.272  0.3919 -0.7029  0.4038
11279SOL    HW137335   6.694   2.671   8.300  0.8214 -2.0134  0.8218
11279SOL    HW237336   6.773   2.721   8.181 -0.3799 -1.5129  0.2192
11280SOL     OW37337   3.437   4.295   8.917  0.2596  0.0997 -0.1531
11280SOL    HW137338   3.417   4.384   8.888  1.3280  0.5749  0.5085
11280SOL    HW237339   3.368   4.275   8.981 -0.7072 -0.0470 -1.2056
11281SOL     OW37340   6.706   0.476   2.826  0.2988  0.6532 -0.4151
11281SOL    HW137341   6.721   0.499   2.918  1.7500 -0.0440 -0.4505
11281SOL    HW237342   6.630   0.418   2.828  1.5611 -1.0796  0.6296
11282SOL     OW37343   7.237   6.191   4.728  0.5273  0.3696 -0.1240
11282SOL    HW137344   7.149   6.225   4.747  0.6294 -0.0858  1.3124
11282SOL    HW237345   7.295   6.242   4.785  0.8886 -0.9339  0.7245
11283SOL     OW37346   0.055  10.928   6.025 -0.3464  0.5511 -0.4527
11283SOL    HW137347  -0.004  10.948   6.097 -0.7384  0.0736 -0.6352
11283SOL    HW237348   0.085  11.013   5.994 -2.2641  0.8996 -1.4578
11284SOL     OW37349   5.190   1.084   2.948  0.2928 -0.4262  0.0198
11284SOL    HW137350   5.108   1.076   2.899 -0.7297 -0.3512  1.6051
11284SOL    HW237351   5.233   0.999   2.938 -0.2612 -0.6645 -0.3882
11285SOL     OW37352   7.178   1.925   5.497  0.0450 -0.4698  0.0515
11285SOL    HW137353   7.100   1.964   5.539  0.0422  0.3466 -0.6817
11285SOL    HW237354   7.251   1.955   5.551  0.0284  0.4619 -0.4214
11286SOL     OW37355   9.620   1.857   5.336  0.3867  0.6429 -0.3293
11286SOL    HW137356   9.685   1.804   5.382  1.4605  1.0138 -1.3847
11286SOL    HW237357   9.569   1.795   5.285  0.3071  0.4145  0.0266
11287SOL     OW37358   6.376   4.785  10.239 -0.4009  0.0846  0.3266
11287SOL    HW137359   6.395   4.866  10.287  0.0990  0.3839 -0.3626
11287SOL    HW237360   6.404   4.803  10.149 -2.3977 -0.0427 -0.3825
11288SOL     OW37361   5.115   1.631   0.890  0.3751 -0.1019 -0.1920
11288SOL    HW137362   5.117   1.722   0.860  1.4724 -0.3653 -1.0071
11288SOL    HW237363   5.178   1.628   0.962 -1.3889  0.2697  1.4164
11289SOL     OW37364   6.035   3.362   2.433  0.3026  0.2894  0.1706
11289SOL    HW137365   6.003   3.439   2.480 -0.7542  1.3326 -2.1167
11289SOL    HW237366   5.985   3.289   2.470 -1.5717  1.2858 -0.2658
11290SOL     OW37367   8.160   4.897   7.638  0.6552  0.0093 -0.3677
11290SOL    HW137368   8.210   4.894   7.720  0.9653 -1.0376 -0.5817
11290SOL    HW237369   8.114   4.981   7.642  1.2373  0.3106  0.5372
11291SOL     OW37370   0.043   1.435  10.322 -0.0904 -0.0826 -0.1515
11291SOL    HW137371   0.037   1.529  10.339  0.8338 -0.3300  1.7648
11291SOL    HW237372  -0.028   1.397  10.373 -0.2951 -0.4549 -0.7100
11292SOL     OW37373   8.480   3.532   7.818 -0.3093 -0.3289 -0.2675
11292SOL    HW137374   8.513   3.448   7.851  1.2042  0.8076  1.3706
11292SOL    HW237375   8.501   3.532   7.725  0.5136 -1.4156 -0.1016
11293SOL     OW37376   2.106   8.670   5.111 -0.1914 -0.1471  0.3139
11293SOL    HW137377   2.059   8.610   5.052  0.5215 -1.6880  1.2598
11293SOL    HW237378   2.139   8.739   5.053 -1.8006 -0.1391 -0.6704
11294SOL     OW37379   4.454  10.802   7.169  0.5863 -0.0969  0.2613
11294SOL    HW137380   4.491  10.791   7.081  0.4009  1.6994 -0.0789
11294SOL    HW237381   4.460  10.896   7.185  1.7693 -0.5207  2.7039
11295SOL     OW37382   4.492   8.425   1.848 -0.3428 -0.7575 -0.4673
11295SOL    HW137383   4.469   8.412   1.756 -2.7648 -0.4868  0.0167
11295SOL    HW237384   4.423   8.379   1.896  0.3281 -0.0764  1.2236
11296SOL     OW37385   3.897   8.106   5.634  0.2961  0.7681  0.1385
11296SOL    HW137386   3.851   8.109   5.718  2.8546  1.6763  1.6323
11296SOL    HW237387   3.873   8.188   5.591 -1.2958  0.1470 -0.2259
11297SOL     OW37388   9.210   4.210   3.514 -0.2677  0.5250  0.0767
11297SOL    HW137389   9.298   4.217   3.550 -0.4663 -0.6564  0.8542
11297SOL    HW237390   9.204   4.120   3.482 -1.2255  0.5599  0.1265
11298SOL     OW37391   7.158   1.443   4.628  0.8855 -0.3300  0.2569
11298SOL    HW137392   7.156   1.499   4.705 -0.7076 -0.3275  0.2545
11298SOL    HW237393   7.123   1.498   4.558  0.4434 -0.9307 -0.0045
11299SOL     OW37394   8.300   0.776  10.403 -0.8727  0.3794  0.3572
11299SOL    HW137395   8.281   0.851  10.458 -0.6117  1.0041 -0.3884
11299SOL    HW237396   8.218   0.759  10.356 -0.8499  0.3777  0.3177
11300SOL     OW37397   5.182   5.732   6.676  0.0439  0.2314 -0.2077
11300SOL    HW137398   5.123   5.776   6.737 -1.6695  0.8655 -2.1679
11300SOL    HW237399   5.213   5.655   6.723 -0.9761  0.8147  1.5156
11301SOL     OW37400   8.302   3.660   9.284 -0.6060 -0.2355  0.0457
11301SOL    HW137401   8.317   3.750   9.255 -0.0420  0.0408  1.1722
11301SOL    HW237402   8.307   3.608   9.203  0.8772  0.5284 -0.3796
11302SOL     OW37403   3.449   5.354   6.694  0.3940 -0.1984 -0.2186
11302SOL    HW137404   3.463   5.320   6.606 -1.0755 -0.2787 -0.4446
11302SOL    HW237405   3.434   5.448   6.682  0.1313 -0.2194 -0.0804
11303SOL     OW37406   2.200   4.793   8.160 -0.3338  0.2246  0.4655
11303SOL    HW137407   2.145   4.779   8.083 -1.3557 -0.2063  1.2518
11303SOL    HW237408   2.233   4.706   8.183 -1.0715  0.1386  1.2558
11304SOL     OW37409   8.201   7.123   8.507 -0.0440 -0.1436  0.5593
11304SOL    HW137410   8.178   7.055   8.444 -0.0967  0.5225 -0.1627
11304SOL    HW237411   8.168   7.204   8.468  2.2414  0.6614  0.1278
11305SOL     OW37412   0.704   9.576   9.975 -0.0311 -0.1814  0.0126
11305SOL    HW137413   0.651   9.655   9.985 -1.4704 -1.2912  1.9634
11305SOL    HW237414   0.758   9.592   9.897 -1.0282  2.2567 -0.2528
11306SOL     OW37415   2.368   0.680   3.924 -0.4121  0.2931 -0.4175
11306SOL    HW137416   2.338   0.609   3.981  0.5339  0.3154  0.1264
11306SOL    HW237417   2.431   0.728   3.978 -0.1374  0.8226 -1.2068
11307SOL     OW37418   9.290   8.795   5.676  0.1920 -0.6214  0.2447
11307SOL    HW137419   9.251   8.880   5.657 -0.4183 -0.4974  1.8893
11307SOL    HW237420   9.322   8.764   5.592 -0.7931  0.6273 -0.6289
11308SOL     OW37421  10.673  10.780   3.696 -0.4632  0.2525 -0.6016
11308SOL    HW137422  10.679  10.868   3.734 -0.6946  0.6629 -1.4969
11308SOL    HW237423  10.581  10.772   3.669 -0.0511  0.4410 -2.1491
11309SOL     OW37424   4.825   0.487   2.947  0.0462  0.0245  0.2060
11309SOL    HW137425   4.897   0.550   2.956 -0.0116  0.3290 -1.1295
11309SOL    HW237426   4.814   0.477   2.852 -2.4630  0.9369  0.3099
11310SOL     OW37427   3.220   9.832   3.321 -0.0183 -0.6231 -0.2002
11310SOL    HW137428   3.186   9.745   3.302 -0.0113 -0.7617  0.4190
11310SOL    HW237429   3.286   9.819   3.389 -0.2656 -0.0969  0.1539
11311SOL     OW37430   6.531   5.738   4.111  0.2251  0.0595 -0.4176
11311SOL    HW137431   6.553   5.826   4.140  2.0871 -0.6112  0.4147
11311SOL    HW237432   6.444   5.721   4.149  0.1747  1.2544  0.0474
11312SOL     OW37433   4.379   8.242   6.889  0.3033  0.1731 -0.3970
11312SOL    HW137434   4.286   8.260   6.893  0.5785  1.7689 -0.5757
11312SOL    HW237435   4.397   8.190   6.968 -0.5738  0.5887  0.0875
11313SOL     OW37436   3.713   8.096   0.598  0.4880  0.9145 -0.4605
11313SOL    HW137437   3.639   8.120   0.544  0.7863 -0.1568 -1.3839
11313SOL    HW237438   3.689   8.011   0.636  0.9721  0.8676 -0.2462
11314SOL     OW37439   2.986   9.129   6.038 -0.1115 -0.0911 -0.1439
11314SOL    HW137440   3.064   9.132   5.982  0.8406  2.0755  1.1762
11314SOL    HW237441   2.925   9.190   5.996 -0.9213 -1.3266 -0.8386
11315SOL     OW37442   4.912   4.567   7.376 -0.2176  0.1113 -0.4448
11315SOL    HW137443   4.985   4.530   7.426  0.0624  1.6649  0.3567
11315SOL    HW237444   4.834   4.541   7.425 -0.1364 -0.5681 -0.6609
11316SOL     OW37445   6.435   3.042   5.076  0.3459 -0.4619  0.1762
11316SOL    HW137446   6.395   2.971   5.025 -0.2969  0.2416 -0.3090
11316SOL    HW237447   6.383   3.046   5.156 -1.9979  1.8168 -1.3128
11317SOL     OW37448   3.117   9.829  10.920  0.2693 -0.6996  0.7737
11317SOL    HW137449   3.140   9.914  10.883 -1.4388 -0.8754 -0.8824
11317SOL    HW237450   3.085   9.849  11.008  0.5843  0.2823  0.6756
11318SOL     OW37451   2.774   9.039   4.614 -0.2649  0.0254  0.1229
11318SOL    HW137452   2.790   8.947   4.635 -0.9285 -0.0763  0.2155
11318SOL    HW237453   2.719   9.037   4.536 -0.0441  0.3479 -0.0425
11319SOL     OW37454   8.337   0.713   2.611 -0.2269  0.4184  0.4589
11319SOL    HW137455   8.321   0.668   2.694 -0.4124 -0.1609  0.1229
11319SOL    HW237456   8.421   0.757   2.623  2.2589 -3.5084 -0.5675
11320SOL     OW37457   8.287   6.427   8.394 -0.5595  0.0849  0.2372
11320SOL    HW137458   8.262   6.464   8.309  0.2158  0.5960  0.2226
11320SOL    HW237459   8.334   6.497   8.438  1.3825 -1.0047  0.0210
11321SOL     OW37460   7.575   9.696   8.197  0.2813  0.2382  0.1283
11321SOL    HW137461   7.641   9.743   8.145  0.7757  1.0539  1.4406
11321SOL    HW237462   7.623   9.624   8.237 -0.5842 -1.8563 -2.3044
11322SOL     OW37463  10.811   7.827   1.253 -0.2073  0.2898  0.2923
11322SOL    HW137464  10.886   7.776   1.285 -1.0181 -1.0620  0.1174
11322SOL    HW237465  10.737   7.794   1.303 -0.8131  1.1480 -0.0091
11323SOL     OW37466  10.207   8.425   0.337 -0.2230  0.2087  0.1716
11323SOL    HW137467  10.170   8.503   0.295  1.9637  1.1226 -0.2239
11323SOL    HW237468  10.142   8.356   0.322 -2.3108  1.9720  0.6950
11324SOL     OW37469   9.788   3.759   4.612  0.2093  0.0986  0.2158
11324SOL    HW137470   9.863   3.770   4.553  0.7556  1.6684  1.1485
11324SOL    HW237471   9.819   3.697   4.678 -0.3509 -1.5451 -1.0084
11325SOL     OW37472   1.603   3.387   7.278  0.0095 -0.2115 -0.1638
11325SOL    HW137473   1.519   3.433   7.280 -0.8088 -1.6722  0.7341
11325SOL    HW237474   1.623   3.377   7.185  0.0026  1.5192 -0.3907
11326SOL     OW37475   9.553   1.951   5.054 -0.3507 -0.0422 -0.2847
11326SOL    HW137476   9.570   2.030   5.004 -0.7463 -0.2005 -0.6748
11326SOL    HW237477   9.590   1.968   5.141 -1.2091  0.9135 -0.0915
11327SOL     OW37478  10.028   7.216   8.611 -0.1877 -0.2057 -0.8318
11327SOL    HW137479   9.986   7.265   8.540  0.0270 -0.3669 -1.0754
11327SOL    HW237480  10.049   7.281   8.677 -1.9977 -0.2985 -0.1191
11328SOL     OW37481   3.780   6.551  10.126 -0.0007 -0.1880 -0.1066
11328SOL    HW137482   3.842   6.624  10.136 -0.1799  0.3970 -2.5780
11328SOL    HW237483   3.794   6.496  10.203  1.9170  1.1562  0.5666
11329SOL     OW37484   9.824   1.148   3.139 -0.0506  0.4323 -0.4460
11329SOL    HW137485   9.814   1.059   3.108  0.6268  0.4025 -0.5835
11329SOL    HW237486   9.880   1.141   3.216 -0.8101  0.6318  0.1502
11330SOL     OW37487   5.768  10.492   9.438  0.6760  0.0255  0.1570
11330SOL    HW137488   5.836  10.554   9.413  1.2122 -0.7764 -0.4376
11330SOL    HW237489   5.801  10.407   9.409  0.3366 -0.6685  1.6765
11331SOL     OW37490   8.494   3.904   4.861 -0.0542 -0.5571  0.3584
11331SOL    HW137491   8.430   3.957   4.909  0.3193  0.0805  0.1646
11331SOL    HW237492   8.573   3.958   4.860  0.4931 -1.3416  0.6013
11332SOL     OW37493   0.868   1.123   2.330 -0.4136  0.6976  0.7795
11332SOL    HW137494   0.877   1.113   2.424  0.3379 -1.8986  0.5196
11332SOL    HW237495   0.868   1.033   2.296 -0.9600  1.5340 -1.6749
11333SOL     OW37496   7.671   1.617   6.493  0.1513 -0.4245  0.3941
11333SOL    HW137497   7.758   1.583   6.513  0.1734 -0.2622  0.5791
11333SOL    HW237498   7.666   1.700   6.541  0.2280  0.0061 -0.3321
11334SOL     OW37499   2.962   1.957   3.301  0.2340  0.2278 -0.2171
11334SOL    HW137500   2.907   1.879   3.310  0.2237  0.2299 -0.2584
11334SOL    HW237501   3.032   1.946   3.366 -0.0373  0.4154  0.1067
11335SOL     OW37502   0.100   8.844   5.613 -0.6879  0.3808 -0.3510
11335SOL    HW137503   0.050   8.885   5.543 -1.3711  0.9503  0.4566
11335SOL    HW237504   0.071   8.752   5.612 -3.1658  1.0542  1.2618
11336SOL     OW37505   3.769   5.543   4.337  0.1584  0.0664  0.6256
11336SOL    HW137506   3.856   5.583   4.340  0.9839 -1.5608 -0.3535
11336SOL    HW237507   3.709   5.618   4.342  1.6002  1.3602 -0.3411
11337SOL     OW37508   7.746   1.233   8.612 -0.2046  0.1382  0.5412
11337SOL    HW137509   7.746   1.149   8.566  2.3089 -0.1690  0.9368
11337SOL    HW237510   7.766   1.210   8.703 -1.9018  1.0002  1.1702
11338SOL     OW37511   8.797   3.525   1.298  0.3715  0.0163  0.6323
11338SOL    HW137512   8.757   3.473   1.228  0.5634 -1.0196  1.2669
11338SOL    HW237513   8.881   3.482   1.314  0.4799  0.4469  1.2544
11339SOL     OW37514  10.548   8.358   5.589 -0.2815 -0.9359 -0.2701
11339SOL    HW137515  10.551   8.386   5.681  1.2478  1.3240 -0.9326
11339SOL    HW237516  10.630   8.311   5.576  0.9019  1.2154 -1.1157
11340SOL     OW37517   1.132  10.215   9.900  0.6047 -0.3337  0.4284
11340SOL    HW137518   1.043  10.250   9.903  1.1969  1.5490 -1.4593
11340SOL    HW237519   1.121  10.121   9.916 -2.1446 -0.6856 -2.4902
11341SOL     OW37520   7.299   3.095   1.920  0.0346 -0.2631  0.1606
11341SOL    HW137521   7.289   3.000   1.928  0.4225 -0.2221  1.2945
11341SOL    HW237522   7.230   3.121   1.859 -0.7675 -1.1514  0.6534
11342SOL     OW37523   2.114   9.420   4.578  0.8975  0.3739  0.3222
11342SOL    HW137524   2.129   9.340   4.527  0.9164 -0.9926  2.3783
11342SOL    HW237525   2.025   9.410   4.612  1.8117 -0.1132  2.7615
11343SOL     OW37526   0.728   3.320   0.694 -0.0533 -0.0764  0.1265
11343SOL    HW137527   0.655   3.380   0.680  0.1754  0.6038  1.6171
11343SOL    HW237528   0.764   3.305   0.606 -0.8138  1.0823 -0.4118
11344SOL     OW37529  10.585   9.739  10.115  0.2796  0.1087 -0.1461
11344SOL    HW137530  10.661   9.785  10.079  0.7454  0.8586  1.6478
11344SOL    HW237531  10.510   9.793  10.091  0.6432  0.9142  0.4896
11345SOL     OW37532   6.828   0.958  10.967  0.2444 -0.4780 -0.0469
11345SOL    HW137533   6.909   1.004  10.945 -0.7355  0.3064 -2.3680
11345SOL    HW237534   6.821   0.888  10.901 -1.5580  0.2743 -0.7300
11346SOL     OW37535   7.061   1.235   8.903 -0.1384  0.1985 -0.1749
11346SOL    HW137536   7.151   1.210   8.882 -0.4483  0.5303 -2.0334
11346SOL    HW237537   7.011   1.154   8.891 -0.3849  0.4932 -1.1887
11347SOL     OW37538   3.724   9.448   8.670  0.0302  0.0585 -0.8347
11347SOL    HW137539   3.709   9.369   8.721  0.5884 -0.5259 -1.5511
11347SOL    HW237540   3.698   9.520   8.728 -2.2626 -0.7088 -0.8020
11348SOL     OW37541   8.175   8.585  10.790 -0.0711  0.6453  0.7598
11348SOL    HW137542   8.087   8.623  10.780  0.3087  1.3652  0.0769
11348SOL    HW237543   8.173   8.505  10.738 -0.4188  0.5047  0.9890
11349SOL     OW37544   3.517   7.257   6.425 -0.2749 -0.0334 -0.7795
11349SOL    HW137545   3.576   7.228   6.355  2.8765  2.2533  0.7143
11349SOL    HW237546   3.518   7.186   6.489 -0.0106 -0.4737 -1.2672
11350SOL     OW37547   9.583   2.605   3.483 -0.6626  0.6339  0.0655
11350SOL    HW137548   9.678   2.614   3.482 -0.5153 -0.7168  0.6457
11350SOL    HW237549   9.567   2.511   3.483 -2.0138  0.8322 -0.4387
11351SOL     OW37550  10.458   0.411  10.192  0.1841  0.0642  0.3247
11351SOL    HW137551  10.535   0.429  10.245  0.7920 -0.6520 -0.2951
11351SOL    HW237552  10.475   0.325  10.152 -1.4034 -0.6269  1.0276
11352SOL     OW37553   0.067   2.341   8.116 -0.3668  0.1244  0.2303
11352SOL    HW137554   0.053   2.277   8.186 -0.1490  0.1276  0.2785
11352SOL    HW237555   0.162   2.350   8.111 -0.2636 -1.3228 -1.3782
11353SOL     OW37556   9.594   2.363   3.300  0.3863 -0.4897 -0.1284
11353SOL    HW137557   9.538   2.355   3.377  0.1729  1.1697 -0.0714
11353SOL    HW237558   9.635   2.277   3.291  1.8294 -0.2562  2.9233
11354SOL     OW37559   1.438   5.774   6.281 -0.1291  0.1158 -0.6145
11354SOL    HW137560   1.461   5.739   6.196  0.9659 -0.2341 -0.1873
11354SOL    HW237561   1.349   5.809   6.270 -0.0010  0.0595 -1.8756
11355SOL     OW37562   7.625   2.634   2.547  0.2834  0.7001  0.1323
11355SOL    HW137563   7.548   2.658   2.495  0.0718  0.0221  0.1267
11355SOL    HW237564   7.690   2.701   2.525  0.2656  0.3248 -1.1723
11356SOL     OW37565   2.044   0.757   5.929 -0.0942  0.4036 -0.1409
11356SOL    HW137566   2.058   0.775   6.022  1.2363 -0.9517 -0.0392
11356SOL    HW237567   2.102   0.818   5.884  0.8962 -0.3893  0.0238
11357SOL     OW37568   5.223   0.327   0.458  0.0622 -0.1120 -0.4264
11357SOL    HW137569   5.277   0.251   0.478 -0.0916 -0.6704 -1.9617
11357SOL    HW237570   5.133   0.294   0.458 -0.2629  0.6620  1.4347
11358SOL     OW37571   0.297   2.528   1.655 -0.3929  0.0532 -0.3735
11358SOL    HW137572   0.303   2.434   1.638 -0.0505  0.0042  0.0023
11358SOL    HW237573   0.315   2.569   1.571 -1.4819 -0.2298 -0.7621
11359SOL     OW37574   3.930   9.842   7.596  0.0769  0.1536 -0.1999
11359SOL    HW137575   4.020   9.827   7.568 -0.2416 -0.0788 -1.1085
11359SOL    HW237576   3.877   9.833   7.517 -0.9984 -1.8686  0.6726
11360SOL     OW37577   3.070   4.211   5.728 -0.3325 -0.2897  0.2512
11360SOL    HW137578   3.165   4.217   5.742 -0.4167  0.1176  0.6650
11360SOL    HW237579   3.034   4.202   5.817 -0.7134  0.0116  0.1276
11361SOL     OW37580   7.602   7.993   9.849 -0.0607 -0.0828 -0.0060
11361SOL    HW137581   7.626   7.901   9.836  0.9374  0.1279  0.2955
11361SOL    HW237582   7.528   8.006   9.790  0.5908 -0.7441 -1.0072
11362SOL     OW37583   8.792   4.117   8.521 -0.1646 -0.0493  0.1590
11362SOL    HW137584   8.869   4.163   8.486 -0.1472 -0.4283 -0.3011
11362SOL    HW237585   8.727   4.186   8.534  0.0040  0.1658 -0.1329
11363SOL     OW37586   6.282   9.930   1.051  0.0119 -0.6478 -0.1621
11363SOL    HW137587   6.361   9.966   1.010  0.1615  1.6530  1.9068
11363SOL    HW237588   6.210   9.974   1.007 -0.0371 -1.1068 -0.5539
11364SOL     OW37589   2.764   5.399   1.490  1.0407  0.0179  0.5307
11364SOL    HW137590   2.829   5.470   1.486  1.0595  0.0690  1.6684
11364SOL    HW237591   2.811   5.325   1.528  0.6734 -0.2309  0.5004
11365SOL     OW37592   2.729   2.801   4.769  0.3919  0.2758  0.0729
11365SOL    HW137593   2.662   2.766   4.828  0.3799  1.7268  0.9518
11365SOL    HW237594   2.743   2.731   4.705 -0.5540 -0.8117  1.0145
11366SOL     OW37595   1.601   3.186   3.447 -0.1527 -0.2809  0.1676
11366SOL    HW137596   1.688   3.163   3.415 -0.4665 -1.7511  0.3184
11366SOL    HW237597   1.580   3.269   3.402  0.6587 -0.7463 -1.1230
11367SOL     OW37598   3.109   6.499   4.269 -0.0405  0.1337  0.3781
11367SOL    HW137599   3.062   6.436   4.214 -1.9278 -0.4055  2.4663
11367SOL    HW237600   3.040   6.545   4.318  1.3088  3.2837 -0.4195
11368SOL     OW37601   0.441   5.083   5.733 -0.3477  0.2372  0.8952
11368SOL    HW137602   0.526   5.068   5.689  0.1303 -1.4833  2.2949
11368SOL    HW237603   0.420   4.999   5.773 -3.1856  0.3572 -0.1102
11369SOL     OW37604   8.530   1.629  10.460  0.9378 -0.0144  0.4301
11369SOL    HW137605   8.576   1.553  10.495  0.9570  0.1170  0.6956
11369SOL    HW237606   8.481   1.596  10.385 -2.0162 -1.1068  2.6704
11370SOL     OW37607   6.103   0.269   6.564  1.0385 -0.0009  0.7795
11370SOL    HW137608   6.063   0.239   6.483  0.9846  0.5879  0.5837
11370SOL    HW237609   6.118   0.189   6.615  1.6788 -0.4435 -0.0817
11371SOL     OW37610   9.825   8.718   7.125 -0.1496  0.1027 -0.4032
11371SOL    HW137611   9.748   8.678   7.086 -0.1022 -1.1565  0.7110
11371SOL    HW237612   9.831   8.804   7.085 -1.3655 -0.2912 -1.4809
11372SOL     OW37613   1.885   3.274   6.857 -0.0150 -0.8729 -0.3570
11372SOL    HW137614   1.830   3.246   6.931  1.5683  0.5505  1.4660
11372SOL    HW237615   1.974   3.254   6.885  0.7756  1.4110 -1.0713
11373SOL     OW37616   6.404   6.753   3.298 -0.2564 -0.0817  0.0791
11373SOL    HW137617   6.329   6.811   3.311 -1.7345 -1.7990 -0.3619
11373SOL    HW237618   6.479   6.801   3.332 -1.7415  1.2318  1.6095
11374SOL     OW37619   3.242   5.900   8.443  0.1954 -0.1725  0.2141
11374SOL    HW137620   3.295   5.904   8.522  0.7087  0.1432 -0.1408
11374SOL    HW237621   3.281   5.829   8.392  0.7512  0.5614 -0.3870
11375SOL     OW37622   0.685   3.768   2.662  0.0129 -0.8587  0.0715
11375SOL    HW137623   0.633   3.731   2.733  0.5682 -0.7522  0.5391
11375SOL    HW237624   0.693   3.697   2.598  0.9987 -1.5488  0.9206
11376SOL     OW37625   7.610   1.427   1.782  0.3608  0.0013  0.6332
11376SOL    HW137626   7.573   1.465   1.702  0.0001 -2.8545 -0.6833
11376SOL    HW237627   7.545   1.444   1.849 -0.1527  0.9183 -0.0736
11377SOL     OW37628  10.246   3.706   5.152  0.1199 -0.1552 -0.3556
11377SOL    HW137629  10.168   3.671   5.107  0.0406 -0.9085  0.3533
11377SOL    HW237630  10.284   3.767   5.089 -1.4368  0.7758 -0.4551
11378SOL     OW37631   6.236   5.304   4.986 -0.0084 -0.0202  0.6692
11378SOL    HW137632   6.300   5.375   4.972  1.8260 -1.5953  0.6301
11378SOL    HW237633   6.166   5.345   5.037  0.6675  1.9722  0.1016
11379SOL     OW37634   9.475   0.115   4.038 -0.2228 -0.5877 -0.9296
11379SOL    HW137635   9.500   0.188   3.982  0.2421  1.4054  1.6491
11379SOL    HW237636   9.383   0.130   4.058 -0.1517 -0.7337 -0.4601
11380SOL     OW37637   3.035   5.015   5.565  0.3884 -0.6750 -0.0019
11380SOL    HW137638   3.096   5.006   5.492  2.3199 -2.1802  1.6603
11380SOL    HW237639   3.063   5.095   5.610 -0.6282  0.1035 -0.7036
11381SOL     OW37640   0.185   7.147   0.496 -0.4550 -0.1172  0.4490
11381SOL    HW137641   0.110   7.108   0.452 -0.4259 -0.9637  1.1210
11381SOL    HW237642   0.173   7.126   0.588  0.5380 -0.1656  0.5851
11382SOL     OW37643  10.579   3.922   7.658  0.0920 -0.2875  0.2144
11382SOL    HW137644  10.620   3.966   7.583 -0.7697 -1.7442 -1.1795
11382SOL    HW237645  10.650   3.914   7.722  0.5854  1.9507  0.0265
11383SOL     OW37646   1.280   2.926   3.891 -0.9050 -0.4225 -0.2147
11383SOL    HW137647   1.347   2.900   3.955 -0.1598  0.6310 -0.5420
11383SOL    HW237648   1.300   3.017   3.871 -1.8043 -0.4074 -1.1203
11384SOL     OW37649   8.850   6.614   6.125  0.0765 -0.1404 -0.1083
11384SOL    HW137650   8.896   6.557   6.187  0.6738  0.5206  0.0660
11384SOL    HW237651   8.773   6.563   6.099 -0.0432 -0.5474  0.9650
11385SOL     OW37652   0.368   2.552   7.009 -0.1727  0.2080  0.0009
11385SOL    HW137653   0.411   2.628   6.970  1.2294 -0.1384  0.7738
11385SOL    HW237654   0.392   2.556   7.101  0.1503 -1.2916  0.0083
11386SOL     OW37655   9.325   9.598   2.190 -0.1757  0.3146 -0.1614
11386SOL    HW137656   9.265   9.524   2.178 -0.4040  0.4663  0.0408
11386SOL    HW237657   9.386   9.569   2.257 -0.1402  0.2338 -0.2285
11387SOL     OW37658   7.558   5.827   3.132  0.6070 -0.0899  0.6563
11387SOL    HW137659   7.552   5.863   3.043 -0.1647 -3.0919 -0.6384
11387SOL    HW237660   7.652   5.811   3.145  0.6716 -0.1378  0.1529
11388SOL     OW37661   2.679   6.361   1.664 -0.8504 -0.0584  0.0627
11388SOL    HW137662   2.674   6.397   1.753  0.0404  0.5085 -0.1031
11388SOL    HW237663   2.588   6.357   1.635 -1.0204  2.2450  0.0481
11389SOL     OW37664  10.143   1.494   9.141 -0.0556  0.1827  0.4231
11389SOL    HW137665  10.225   1.462   9.104 -0.7414 -0.4906 -0.5562
11389SOL    HW237666  10.152   1.589   9.140 -0.1118  0.1981 -1.6584
11390SOL     OW37667   3.969   1.708   4.513  0.3527 -0.1335  0.4198
11390SOL    HW137668   4.006   1.658   4.586 -0.8610 -1.6156  0.0733
11390SOL    HW237669   4.018   1.679   4.436 -0.2826 -0.7392  0.2337
11391SOL     OW37670   0.231   1.343  10.553 -0.1149  0.4308 -0.6672
11391SOL    HW137671   0.259   1.366  10.464  0.5443 -1.1464 -0.8900
11391SOL    HW237672   0.152   1.291  10.540 -0.2822  0.5874 -0.2870
11392SOL     OW37673   7.482   3.495   8.644 -0.1913  0.1446 -0.5423
11392SOL    HW137674   7.447   3.485   8.556 -0.8789  1.5230 -0.4487
11392SOL    HW237675   7.409   3.474   8.702  0.8796 -3.2755 -0.1458
11393SOL     OW37676   4.018   0.666   7.591  0.2798 -0.2789 -0.9635
11393SOL    HW137677   3.934   0.622   7.602  0.4041 -0.2511  0.2200
11393SOL    HW237678   4.081   0.610   7.637  0.9585 -0.4122 -2.0159
11394SOL     OW37679   1.342   7.379  10.372 -0.1814  0.2946  0.5255
11394SOL    HW137680   1.346   7.400  10.465  0.0253  1.2023  0.3184
11394SOL    HW237681   1.432   7.392  10.340  0.3682 -2.4489  0.6860
11395SOL     OW37682  10.226   0.599   0.704  0.5907 -0.1130  0.4777
11395SOL    HW137683  10.135   0.626   0.715  0.9414  1.2248  0.1888
11395SOL    HW237684  10.261   0.597   0.793  0.3186 -0.5694  0.5843
11396SOL     OW37685  10.994   2.169   6.397 -0.3969 -0.3903  0.1679
11396SOL    HW137686  10.940   2.119   6.458 -0.8411 -1.3329 -0.9558
11396SOL    HW237687  10.936   2.236   6.362 -1.2659 -2.1107 -1.9001
11397SOL     OW37688   6.877  10.113   4.699 -0.7826 -0.0728  0.1824
11397SOL    HW137689   6.861  10.115   4.793  0.2058  0.0983  0.3578
11397SOL    HW237690   6.963  10.153   4.688  0.5581 -2.8702 -0.4744
11398SOL     OW37691   9.139  10.454   8.242 -0.7192 -0.6026 -0.3613
11398SOL    HW137692   9.060  10.401   8.255 -0.7302 -0.5945 -0.3976
11398SOL    HW237693   9.200  10.423   8.309 -2.1445  2.1846  2.5150
11399SOL     OW37694   5.623   5.731   2.590 -0.2832 -0.4477  0.1217
11399SOL    HW137695   5.706   5.694   2.560  0.1827 -0.7448  1.6786
11399SOL    HW237696   5.594   5.787   2.518  1.7311  0.3838 -0.1133
11400SOL     OW37697   2.529   5.645   5.761 -0.5824  0.1093  0.5408
11400SOL    HW137698   2.522   5.596   5.680 -1.8639  0.0087  0.6888
11400SOL    HW237699   2.440   5.679   5.776  0.4291  3.4585 -0.1691
11401SOL     OW37700   5.961   7.125  10.883  0.4743 -0.2274 -0.2722
11401SOL    HW137701   5.966   7.202  10.939 -0.1176 -0.8230  0.6294
11401SOL    HW237702   6.051   7.095  10.875  0.4390 -0.9294  1.5313
11402SOL     OW37703  10.029   6.227   4.737  0.5696  0.2577  0.6050
11402SOL    HW137704  10.042   6.211   4.643  1.1444  0.5659  0.6307
11402SOL    HW237705   9.935   6.243   4.745  0.2279 -1.3818  0.3324
11403SOL     OW37706  10.967   0.468  10.185  0.5640 -0.3389 -0.0390
11403SOL    HW137707  10.943   0.445  10.275 -0.7026 -0.0822 -0.2807
11403SOL    HW237708  11.062   0.467  10.183  0.5929 -1.7506  0.9432
11404SOL     OW37709  10.765   9.740   5.016  0.3045 -0.3717 -0.6423
11404SOL    HW137710  10.720   9.656   5.023  0.1506 -0.3230 -1.0514
11404SOL    HW237711  10.804   9.753   5.103 -1.2032  0.0199  0.0024
11405SOL     OW37712   1.198   7.108   6.148 -0.3287  0.2609  0.2155
11405SOL    HW137713   1.133   7.177   6.159 -0.8387 -0.0325 -0.8703
11405SOL    HW237714   1.282   7.153   6.153 -0.3972  0.3466  4.1724
11406SOL     OW37715   1.644   4.960   7.114  0.4693  0.5000  0.0279
11406SOL    HW137716   1.608   5.023   7.051  1.0742  1.4398  0.6109
11406SOL    HW237717   1.632   4.875   7.072  0.3058  1.0610 -1.0903
11407SOL     OW37718  10.301  10.440   9.822 -0.3379  0.1089  0.5937
11407SOL    HW137719  10.357  10.447   9.899  0.5053  0.8748 -0.0657
11407SOL    HW237720  10.224  10.492   9.844  0.1916  0.8748  0.6791
11408SOL     OW37721   6.038   5.421   5.122 -0.3954  0.2864 -0.0014
11408SOL    HW137722   5.980   5.353   5.156 -0.3524 -0.1789 -0.8237
11408SOL    HW237723   5.979   5.489   5.091 -0.4174  1.6046  2.6681
11409SOL     OW37724  10.406   9.797   3.330  0.3430  0.1837  0.7058
11409SOL    HW137725  10.488   9.846   3.334  1.2378 -1.2540  4.0626
11409SOL    HW237726  10.355   9.830   3.404 -0.5021 -1.4354  0.8905
11410SOL     OW37727   6.980  10.852   2.357 -0.2150  0.3781 -0.1959
11410SOL    HW137728   7.052  10.856   2.420 -0.7445 -1.2862  0.5929
11410SOL    HW237729   7.012  10.793   2.288 -0.4296  0.4889 -0.3904
11411SOL     OW37730   6.164   7.311  10.399  0.2749  0.2787  0.0111
11411SOL    HW137731   6.133   7.280  10.485  0.4006 -1.5698 -0.5726
11411SOL    HW237732   6.243   7.260  10.383  0.5565  1.0061 -0.9779
11412SOL     OW37733   4.161   4.367   1.175  0.5915  0.4104  0.0320
11412SOL    HW137734   4.096   4.339   1.240  0.6727  1.6316  0.6720
11412SOL    HW237735   4.174   4.460   1.193 -0.2566  1.1042 -2.4803
11413SOL     OW37736   6.130   9.380   9.175 -0.4835  0.1112 -0.2508
11413SOL    HW137737   6.168   9.447   9.231 -1.5150  1.4619 -1.1167
11413SOL    HW237738   6.159   9.404   9.086 -2.3090  0.4693 -0.7762
11414SOL     OW37739   9.395   0.257   4.872  0.0879 -0.4228  0.3521
11414SOL    HW137740   9.374   0.347   4.848  0.6412 -0.5203 -0.5409
11414SOL    HW237741   9.472   0.235   4.819  0.6895 -1.0213  1.4267
11415SOL     OW37742   7.895   1.175   6.862 -0.5301  0.2260  0.0688
11415SOL    HW137743   7.988   1.193   6.851 -0.5977  0.7003  0.2358
11415SOL    HW237744   7.881   1.090   6.819  0.3428 -0.7774  1.6822
11416SOL     OW37745   5.376   7.855   8.187  0.2862 -0.1448  0.1379
11416SOL    HW137746   5.454   7.819   8.145  1.0277 -0.6251  1.8625
11416SOL    HW237747   5.321   7.780   8.207 -0.9330  0.2257 -1.5359
11417SOL     OW37748   9.866   2.398   7.498  0.0295  0.4888 -1.2002
11417SOL    HW137749   9.780   2.372   7.463  0.6169  0.3124 -2.5929
11417SOL    HW237750   9.891   2.326   7.556 -0.5799  0.3552 -1.0932
11418SOL     OW37751   7.349   7.744   5.916 -0.5593  0.3754  0.0695
11418SOL    HW137752   7.414   7.684   5.952 -0.1234  0.1310 -1.0837
11418SOL    HW237753   7.323   7.705   5.832 -1.0928  1.2208 -0.1799
11419SOL     OW37754   2.942   4.132   4.342  0.2726 -0.1821  0.2916
11419SOL    HW137755   3.002   4.138   4.268 -1.2052 -0.3102 -0.9558
11419SOL    HW237756   2.937   4.038   4.362 -0.2138 -0.2665 -0.2107
11420SOL     OW37757   7.112   6.490   4.450  0.3551  0.3379  0.6675
11420SOL    HW137758   7.206   6.481   4.432  0.3262 -1.3402  1.1138
11420SOL    HW237759   7.107   6.550   4.525  0.8933  2.1840 -0.7157
11421SOL     OW37760   2.927   5.266   3.636 -0.1776 -0.5496  0.1295
11421SOL    HW137761   2.879   5.186   3.662  0.2548 -0.2424  2.0309
11421SOL    HW237762   3.019   5.240   3.638 -0.1203 -0.4846 -1.1174
11422SOL     OW37763   3.804   5.575   2.988 -0.2913 -0.3621 -0.3378
11422SOL    HW137764   3.719   5.611   3.015  0.2194  0.4211  0.2638
11422SOL    HW237765   3.844   5.645   2.937  0.9215  0.1447  1.2462
11423SOL     OW37766   1.940  10.167   2.012  0.4514  0.6164  0.4081
11423SOL    HW137767   1.863  10.213   1.977 -0.4383  0.4539  2.0372
11423SOL    HW237768   2.009  10.234   2.012  0.1888  0.9102 -0.5959
11424SOL     OW37769   5.943   0.640   4.550 -0.4564 -0.4489 -0.4952
11424SOL    HW137770   5.893   0.559   4.561  0.1361 -0.7414  0.1192
11424SOL    HW237771   5.884   0.709   4.579 -0.8397 -0.6911 -0.6874
11425SOL     OW37772   2.359   1.586   0.333  0.1908 -0.6073  0.1165
11425SOL    HW137773   2.333   1.553   0.419 -2.1869  0.8910  0.0665
11425SOL    HW237774   2.350   1.681   0.340 -2.4239 -0.5284 -2.4105
11426SOL     OW37775  10.051   6.525   5.994 -0.7331 -0.2741 -0.2553
11426SOL    HW137776   9.963   6.528   6.032  0.4898 -1.4099  3.0148
11426SOL    HW237777  10.055   6.440   5.951 -1.7380  0.4962 -1.9538
11427SOL     OW37778   8.538   9.918   0.927  0.4291 -0.4158  0.6335
11427SOL    HW137779   8.473   9.853   0.954  1.8237 -2.0861  0.1529
11427SOL    HW237780   8.503   9.954   0.845 -0.9930  0.4642  1.5702
11428SOL     OW37781   6.747   0.847   7.252  0.4381  0.1008 -0.8099
11428SOL    HW137782   6.803   0.774   7.280  1.1275  0.5177 -1.0593
11428SOL    HW237783   6.757   0.912   7.322  1.3576  0.7295 -1.5054
11429SOL     OW37784   7.036   0.366   2.991 -0.6747  0.2182 -0.6891
11429SOL    HW137785   6.965   0.330   3.044 -0.6220 -0.3250 -0.9695
11429SOL    HW237786   7.033   0.460   3.005 -1.2500  0.1651 -0.4515
11430SOL     OW37787   9.541   2.508   6.873 -0.2711  0.1430 -0.5759
11430SOL    HW137788   9.535   2.559   6.793 -2.7289  2.3822  0.8657
11430SOL    HW237789   9.450   2.497   6.901  0.4657 -1.2087  1.5062
11431SOL     OW37790   6.602   3.710   9.387 -0.4941  0.3908  0.0283
11431SOL    HW137791   6.507   3.721   9.390 -0.6896 -0.9548 -0.6438
11431SOL    HW237792   6.629   3.756   9.308 -0.7706 -0.4204 -0.5420
11432SOL     OW37793   4.587   6.404   3.586 -0.1597 -0.1387 -0.1068
11432SOL    HW137794   4.493   6.424   3.586 -0.3587 -1.0371 -0.0948
11432SOL    HW237795   4.594   6.318   3.628  0.7005  0.0323  0.1332
11433SOL     OW37796   3.845   8.366   5.494  0.2234  0.3233  0.4912
11433SOL    HW137797   3.914   8.411   5.543 -0.5796  2.2929 -0.0780
11433SOL    HW237798   3.874   8.368   5.403 -0.8571  1.8005  0.1485
11434SOL     OW37799   5.306   4.180   4.666  0.5472  0.5214 -0.8479
11434SOL    HW137800   5.369   4.235   4.711 -1.3378  0.8789  1.5856
11434SOL    HW237801   5.347   4.093   4.664  1.8613  1.1216 -1.0727
11435SOL     OW37802   1.021   4.950   6.114  0.3075  0.1977 -0.5374
11435SOL    HW137803   1.108   4.944   6.075  0.0951  0.4441 -1.0551
11435SOL    HW237804   0.976   4.870   6.088  0.5552 -0.1872  0.1843
11436SOL     OW37805   1.150   3.567  10.383 -0.3583  0.0045  0.5284
11436SOL    HW137806   1.231   3.546  10.428  0.1873  1.8193  0.4822
11436SOL    HW237807   1.141   3.499  10.316  0.9220 -0.4225  0.7638
11437SOL     OW37808   3.438   9.558   4.283  0.1387  0.2141  0.0160
11437SOL    HW137809   3.457   9.585   4.373 -2.9761 -0.7992  1.1276
11437SOL    HW237810   3.496   9.484   4.268  1.1755  0.8018  0.9279
11438SOL     OW37811   2.082   9.365   5.115  0.4333 -0.0038 -0.2668
11438SOL    HW137812   2.052   9.388   5.203  1.0816 -0.2213  0.0215
11438SOL    HW237813   2.101   9.271   5.120  1.4148  0.1789 -0.3441
11439SOL     OW37814   0.541   0.467   4.673  0.1029 -0.3063 -0.6665
11439SOL    HW137815   0.552   0.401   4.742 -0.8059  0.0624 -0.1509
11439SOL    HW237816   0.577   0.547   4.711 -1.7906  0.2706  0.0092
11440SOL     OW37817   2.328   4.013   0.046 -0.3660 -0.4299 -0.2572
11440SOL    HW137818   2.378   4.090   0.019 -0.8006  0.3494  1.0530
11440SOL    HW237819   2.319   4.022   0.141 -1.2038 -1.6313 -0.1941
11441SOL     OW37820  10.703   3.924   4.626  0.5766 -0.6129 -0.1067
11441SOL    HW137821  10.645   3.977   4.571 -0.4795 -1.7505 -0.1466
11441SOL    HW237822  10.656   3.841   4.636  1.3532 -0.8994  1.4341
11442SOL     OW37823   9.227   2.766   4.117  0.3207 -0.6594 -0.2898
11442SOL    HW137824   9.273   2.687   4.091  0.6517 -0.9606  1.1590
11442SOL    HW237825   9.224   2.819   4.037  5.4442  0.5498 -0.0257
11443SOL     OW37826   9.662   8.049   1.515 -0.0814  0.1900 -0.0973
11443SOL    HW137827   9.653   8.144   1.510 -0.2105  0.1221 -1.4967
11443SOL    HW237828   9.653   8.019   1.425 -1.1306 -1.2618  0.4497
11444SOL     OW37829   3.368   5.927   0.976 -0.2092 -0.5073 -0.2099
11444SOL    HW137830   3.322   5.876   0.909  0.0105  0.8104 -1.4025
11444SOL    HW237831   3.448   5.878   0.993 -0.7580 -1.4018 -0.1146
11445SOL     OW37832   2.169   4.431   8.728 -0.5603  0.0808 -0.1951
11445SOL    HW137833   2.257   4.461   8.751 -0.5127  1.0512 -1.5261
11445SOL    HW237834   2.159   4.347   8.773  0.3391  0.8134  1.4577
11446SOL     OW37835   6.919   6.349   1.224  0.7541  0.4270  0.1443
11446SOL    HW137836   6.836   6.303   1.218  0.9833  0.0306  0.0224
11446SOL    HW237837   6.978   6.301   1.166  1.2897  0.2140  0.8516
11447SOL     OW37838   8.993   7.594  10.905 -0.2883 -0.4191 -0.1551
11447SOL    HW137839   8.969   7.684  10.883 -0.4186  0.0060  1.6120
11447SOL    HW237840   9.016   7.597  10.997  3.3693 -1.4653 -0.8727
11448SOL     OW37841   4.773   0.243   5.162  0.2415  0.5965  0.2228
11448SOL    HW137842   4.760   0.150   5.143  0.3910  0.5896  0.1495
11448SOL    HW237843   4.687   0.275   5.187  0.3121  0.3049  0.8383
11449SOL     OW37844   9.579   0.531   5.214  0.2152  0.2947 -0.7106
11449SOL    HW137845   9.520   0.456   5.211 -0.2628  0.6692 -0.6750
11449SOL    HW237846   9.603   0.546   5.122  0.7730 -0.2553 -0.6666
11450SOL     OW37847   4.975   2.916   0.929  0.3710 -0.2089 -0.1112
11450SOL    HW137848   5.039   2.986   0.937  0.2455 -0.3055  2.2428
11450SOL    HW237849   5.023   2.844   0.888  1.2535  0.3134 -0.0204
11451SOL     OW37850   8.123   9.048   8.921 -0.2557 -0.0461 -0.0793
11451SOL    HW137851   8.089   8.988   8.855 -2.1896  0.8663  0.0247
11451SOL    HW237852   8.059   9.044   8.992 -1.1736  3.0094 -0.5812
11452SOL     OW37853   1.736   8.423   7.692 -0.0116  0.2551 -0.1891
11452SOL    HW137854   1.763   8.333   7.711 -0.1391  0.2748  0.0852
11452SOL    HW237855   1.762   8.473   7.770 -0.5964  0.3224 -0.0312
11453SOL     OW37856   2.893   8.406   2.900  0.0852 -0.2867 -0.8004
11453SOL    HW137857   2.943   8.326   2.913 -0.4555 -0.8922 -2.2386
11453SOL    HW237858   2.958   8.471   2.871  0.3759 -0.4712 -0.5593
11454SOL     OW37859   0.728   0.327   4.963 -0.1012  0.2033  0.2665
11454SOL    HW137860   0.656   0.369   5.010  1.5412  0.5591  2.6747
11454SOL    HW237861   0.796   0.395   4.959  0.5973 -0.5236 -0.8021
11455SOL     OW37862   6.777   0.122   6.174 -0.8374  0.3536  0.1317
11455SOL    HW137863   6.719   0.050   6.200  0.2444 -0.0092  1.7519
11455SOL    HW237864   6.794   0.169   6.255  0.0639  1.2428 -0.5494
11456SOL     OW37865   5.734   6.306   2.604 -0.2411 -0.2742 -0.2156
11456SOL    HW137866   5.782   6.247   2.546  1.5768  1.3938 -0.5249
11456SOL    HW237867   5.732   6.261   2.688 -0.5686 -1.5775 -0.9051
11457SOL     OW37868   8.340   6.297   3.136  0.3907  0.0613 -0.1798
11457SOL    HW137869   8.311   6.387   3.129 -3.0809 -0.9694 -0.6186
11457SOL    HW237870   8.351   6.282   3.230 -0.5014  0.5162  0.0013
11458SOL     OW37871   1.212   8.319   2.513  0.0217 -0.2523  0.8024
11458SOL    HW137872   1.186   8.393   2.458  0.9078 -1.3362 -1.1923
11458SOL    HW237873   1.293   8.347   2.555  1.7866 -0.8261 -1.8903
11459SOL     OW37874   7.848   6.470   9.021 -0.2269  0.5711  0.2579
11459SOL    HW137875   7.886   6.463   8.933 -0.7278 -1.8148  0.1582
11459SOL    HW237876   7.762   6.429   9.013  0.4231 -1.3894  2.2069
11460SOL     OW37877  10.478   1.178   9.237 -0.7095 -0.0254  0.2991
11460SOL    HW137878  10.480   1.225   9.321 -0.2457 -0.7735  0.7196
11460SOL    HW237879  10.467   1.086   9.262 -0.1855 -0.2959 -0.4545
11461SOL     OW37880   2.525   1.939   0.222 -0.1086 -0.9295  0.0418
11461SOL    HW137881   2.513   1.906   0.311  2.1972  0.8434  1.1170
11461SOL    HW237882   2.436   1.946   0.186 -1.1880 -0.6830  2.5973
11462SOL     OW37883   9.391   8.639   8.967  0.5230  0.6852  0.0675
11462SOL    HW137884   9.412   8.732   8.957 -0.5116  0.8313 -1.0168
11462SOL    HW237885   9.296   8.636   8.961  0.4732 -0.3503  1.0950
11463SOL     OW37886   9.166   3.992  10.237  0.1791  0.0391 -0.0887
11463SOL    HW137887   9.084   3.977  10.284 -0.2852 -0.3226 -0.9923
11463SOL    HW237888   9.232   3.945  10.289 -0.1106  0.6342  0.8407
11464SOL     OW37889   6.520   1.375   5.553 -0.1166  0.1492 -0.0796
11464SOL    HW137890   6.482   1.384   5.641  1.1372  1.1889  0.3926
11464SOL    HW237891   6.522   1.465   5.519 -0.3075 -0.2119 -1.0485
11465SOL     OW37892   5.817   6.037   7.693  0.9223 -0.2364 -0.7126
11465SOL    HW137893   5.849   6.001   7.610  2.2023  0.7431 -0.6849
11465SOL    HW237894   5.808   6.131   7.676 -1.1409 -0.3417 -0.4233
11466SOL     OW37895   8.690   7.692   1.537  0.8210 -0.0149 -0.3437
11466SOL    HW137896   8.686   7.775   1.584 -0.6086 -0.3030  0.0895
11466SOL    HW237897   8.709   7.716   1.447 -2.2498  1.0727 -0.8180
11467SOL     OW37898  10.815   8.959   4.242 -0.0900  0.1316  0.1595
11467SOL    HW137899  10.892   9.006   4.274  0.3312 -0.5783  0.2040
11467SOL    HW237900  10.843   8.868   4.234 -1.2139 -0.3561  1.2379
11468SOL     OW37901   4.412  10.943   6.822  0.6366  0.2342 -0.3032
11468SOL    HW137902   4.388  10.860   6.782 -0.1815 -0.2771  1.1622
11468SOL    HW237903   4.484  10.920   6.882  0.4772  0.6019  0.0318
11469SOL     OW37904   8.332   2.501  10.087 -0.1849  0.0850  0.0411
11469SOL    HW137905   8.425   2.493  10.067 -0.2334 -2.4485  0.4387
11469SOL    HW237906   8.296   2.554  10.016  1.0457 -1.6140 -1.9640
11470SOL     OW37907   5.993   9.498   6.624  0.1147  0.3162  0.0165
11470SOL    HW137908   5.958   9.534   6.705 -1.5387  0.1113 -0.5498
11470SOL    HW237909   5.931   9.429   6.600  0.3232  0.6412 -1.6135
11471SOL     OW37910   1.485   1.197   1.529  0.0741  0.3459 -0.3547
11471SOL    HW137911   1.506   1.217   1.437  1.2325 -1.7623 -0.5983
11471SOL    HW237912   1.399   1.156   1.525  0.4447 -0.4380 -0.6289
11472SOL     OW37913   6.068   2.954  10.496 -0.2997 -0.3355  0.2914
11472SOL    HW137914   6.153   2.912  10.487  1.0662  2.2691 -0.1387
11472SOL    HW237915   6.087   3.038  10.539 -2.0639  1.8665 -2.7847
11473SOL     OW37916   0.220   9.792   4.887 -0.2487  0.0659  0.1507
11473SOL    HW137917   0.314   9.796   4.871 -0.2957 -2.1101 -1.1159
11473SOL    HW237918   0.183   9.765   4.802 -1.7982 -0.9342  1.0943
11474SOL     OW37919   9.234   1.747   6.177  0.1179  0.0598 -0.1735
11474SOL    HW137920   9.173   1.730   6.249 -0.0976 -0.2824 -0.4316
11474SOL    HW237921   9.278   1.663   6.163 -1.2983 -0.4578 -1.7920
11475SOL     OW37922   0.465   7.259   8.536 -0.0662 -0.3226  0.0953
11475SOL    HW137923   0.446   7.260   8.442 -0.0793  1.1872  0.0939
11475SOL    HW237924   0.538   7.197   8.545  0.3914  0.0264 -1.0095
11476SOL     OW37925   0.285   3.605   5.317 -0.0294 -0.1579  0.3081
11476SOL    HW137926   0.197   3.632   5.344 -0.2371 -0.2345 -0.2838
11476SOL    HW237927   0.315   3.675   5.259  0.2555 -0.1931  0.4110
11477SOL     OW37928   1.174   3.337   7.163 -0.0776 -0.5911  0.1273
11477SOL    HW137929   1.217   3.255   7.184  0.6308  0.2417  2.1948
11477SOL    HW237930   1.223   3.403   7.212 -1.6536  0.8355 -0.1210
11478SOL     OW37931   7.505   1.371   9.864  0.7665  0.1640  0.2927
11478SOL    HW137932   7.493   1.428   9.941  0.8756  1.8734 -0.9031
11478SOL    HW237933   7.503   1.431   9.790 -1.1355 -1.6392 -1.2194
11479SOL     OW37934   5.207   5.924   5.841 -0.2149 -0.0171  0.1663
11479SOL    HW137935   5.178   5.864   5.773 -0.2993 -2.8953  2.5361
11479SOL    HW237936   5.126   5.955   5.882 -0.1560  1.5216 -0.7795
11480SOL     OW37937   5.232   4.271   6.319  0.2555  0.0778 -0.0189
11480SOL    HW137938   5.171   4.232   6.257  0.0676 -0.4262  0.4787
11480SOL    HW237939   5.318   4.235   6.296 -0.1030 -1.8027  1.3253
11481SOL     OW37940   6.751   8.701   9.053 -0.5933  0.0730  0.5849
11481SOL    HW137941   6.746   8.795   9.033 -0.2418 -0.3268 -1.6721
11481SOL    HW237942   6.694   8.660   8.988 -1.8914 -1.2282  2.4460
11482SOL     OW37943   4.929   4.828   1.512  0.5368 -0.3847  0.1240
11482SOL    HW137944   4.957   4.896   1.573  1.7140 -0.8481  0.1236
11482SOL    HW237945   5.002   4.766   1.510  0.7513 -0.1478 -2.1195
11483SOL     OW37946   2.891   4.994   3.568 -0.2212  0.5371  0.2108
11483SOL    HW137947   2.801   5.000   3.537 -0.3113 -1.8204 -0.1662
11483SOL    HW237948   2.891   4.921   3.630  1.4427  0.3722  0.0727
11484SOL     OW37949   1.527   3.859   9.016 -0.7734  0.0185 -0.9842
11484SOL    HW137950   1.476   3.908   9.080 -2.0343 -1.3597 -0.8856
11484SOL    HW237951   1.491   3.770   9.019  2.1809 -1.2907 -0.2861
11485SOL     OW37952   1.000   6.477   9.558 -0.0741 -0.1358  0.1198
11485SOL    HW137953   0.914   6.489   9.518 -0.2384 -0.5039  0.3551
11485SOL    HW237954   1.016   6.558   9.606  0.1397  0.3227 -0.7113
11486SOL     OW37955  10.782  10.429   9.785 -0.3224 -0.2276  0.4032
11486SOL    HW137956  10.775  10.489   9.859  1.7802  0.4646  0.1200
11486SOL    HW237957  10.773  10.485   9.708  1.0771 -0.3113  0.1444
11487SOL     OW37958   4.318   2.410   8.001  0.1849  0.3996  0.0492
11487SOL    HW137959   4.406   2.393   8.034  0.4968  0.3828 -0.7619
11487SOL    HW237960   4.325   2.493   7.953 -0.8303  1.7626  2.1052
11488SOL     OW37961   9.224  10.434   9.593  0.1713 -0.1491 -0.5356
11488SOL    HW137962   9.315  10.451   9.567  0.2374  1.6723  0.6889
11488SOL    HW237963   9.230  10.360   9.653  0.7210 -0.6733 -1.2281
11489SOL     OW37964   1.863   0.122   3.518  0.1215 -0.1200 -0.6999
11489SOL    HW137965   1.922   0.103   3.445  0.5742 -0.4715 -0.2518
11489SOL    HW237966   1.907   0.084   3.594 -1.4231 -1.8244 -0.5996
11490SOL     OW37967   3.604   8.870   9.361 -0.6423 -0.3338  0.1555
11490SOL    HW137968   3.692   8.883   9.325 -1.3792  0.1237 -1.5364
11490SOL    HW237969   3.598   8.775   9.373  0.4017 -0.2971  1.1884
11491SOL     OW37970   2.318   8.893   8.872 -0.0302 -0.2048  0.1218
11491SOL    HW137971   2.346   8.802   8.882  1.2084  0.1524  0.1002
11491SOL    HW237972   2.258   8.907   8.945 -0.2840 -1.0506  0.0902
11492SOL     OW37973   3.591   1.611   7.031 -0.6506  0.3640  0.0310
11492SOL    HW137974   3.603   1.517   7.014 -1.2040  0.2289  0.3269
11492SOL    HW237975   3.675   1.641   7.063 -0.4384 -0.0118 -0.1624
11493SOL     OW37976   1.794   4.690   0.722 -0.1732  0.4784  0.6228
11493SOL    HW137977   1.808   4.721   0.633 -1.2570  0.7338  0.5236
11493SOL    HW237978   1.882   4.677   0.758  0.3081  2.2465  0.1816
11494SOL     OW37979   5.159   1.486   3.798  0.6189 -0.9064  0.5736
11494SOL    HW137980   5.202   1.435   3.867  0.9937 -1.4256 -0.0339
11494SOL    HW237981   5.175   1.578   3.822  1.7199 -1.0883  0.5809
11495SOL     OW37982   3.642   7.950   3.271  0.3296 -0.0674 -0.1302
11495SOL    HW137983   3.659   7.981   3.182  0.6235 -1.3643 -0.5450
11495SOL    HW237984   3.547   7.939   3.275  0.3717 -0.6380 -0.5182
11496SOL     OW37985   3.843   8.356   8.688 -0.2529  0.3481 -0.4914
11496SOL    HW137986   3.900   8.432   8.676  0.4626 -0.1940 -0.5852
11496SOL    HW237987   3.896   8.294   8.738 -0.4269 -0.5416 -1.3932
11497SOL     OW37988  10.467   1.412   1.888 -0.5111 -0.3517 -0.6388
11497SOL    HW137989  10.506   1.343   1.941 -0.4146  0.9838  1.1152
11497SOL    HW237990  10.532   1.482   1.889 -1.7335  0.8159 -0.0378
11498SOL     OW37991   7.119   4.130   0.266  0.6415  0.5571  0.4180
11498SOL    HW137992   7.101   4.039   0.291 -0.0485  0.5339 -0.1515
11498SOL    HW237993   7.033   4.170   0.256  0.8787  0.6937 -1.4320
11499SOL     OW37994   3.247   8.272   2.165  0.3051  0.7348  0.6515
11499SOL    HW137995   3.341   8.257   2.180  0.3382  0.1168 -0.1121
11499SOL    HW237996   3.243   8.316   2.080 -0.0696  1.3257  0.9667
11500SOL     OW37997   6.738   8.073   3.738  0.6650  0.1183 -0.0352
11500SOL    HW137998   6.689   8.101   3.660  1.6873  1.2569 -0.3100
11500SOL    HW237999   6.742   7.978   3.731  1.7402  0.2505 -2.0338
11501SOL     OW38000   8.788   3.388   6.078 -0.3655 -0.4405 -0.2045
11501SOL    HW138001   8.868   3.417   6.034 -1.1282 -0.6065 -1.7661
11501SOL    HW238002   8.818   3.321   6.139  0.6673 -0.6757 -0.9351
11502SOL     OW38003   8.420   4.424   3.596  0.4076  0.4720  0.1080
11502SOL    HW138004   8.475   4.472   3.658  0.3817  2.2332 -1.1723
11502SOL    HW238005   8.344   4.480   3.582  0.7511  0.4775 -2.0446
11503SOL     OW38006   4.458   8.334   7.862 -0.2944 -0.2284  0.2644
11503SOL    HW138007   4.386   8.294   7.911 -1.4068  2.2028  0.7191
11503SOL    HW238008   4.462   8.424   7.893  1.5970  0.2881 -1.2818
11504SOL     OW38009   7.668   0.692   9.555 -0.3199 -0.0358 -0.0627
11504SOL    HW138010   7.660   0.611   9.504  0.6409 -0.4397  0.4056
11504SOL    HW238011   7.650   0.666   9.645 -1.6428  0.6044 -0.1161
11505SOL     OW38012   8.462   6.460   5.546  0.0377  0.3721 -0.9573
11505SOL    HW138013   8.523   6.495   5.611 -0.5597 -0.9669  0.3720
11505SOL    HW238014   8.510   6.387   5.505 -0.9461 -1.3832  0.8356
11506SOL     OW38015   0.021   5.623   3.804 -0.1077  0.1708 -0.5722
11506SOL    HW138016   0.015   5.583   3.717  1.3699 -0.5476 -0.3768
11506SOL    HW238017   0.084   5.694   3.794  1.5468 -1.1026  0.2761
11507SOL     OW38018   0.875   8.301   3.908  0.4113  0.6262 -0.6007
11507SOL    HW138019   0.850   8.390   3.935 -0.1633  0.7500 -1.5172
11507SOL    HW238020   0.970   8.301   3.911  0.4051  1.1638 -0.2382
11508SOL     OW38021   0.941   4.708   6.038 -0.4979  0.3895  0.1060
11508SOL    HW138022   0.866   4.649   6.026 -0.5807  0.6122 -0.5237
11508SOL    HW238023   0.993   4.697   5.958 -0.9017  1.7186 -0.3739
11509SOL     OW38024   4.714   2.484   9.864 -0.1019 -0.6266 -0.8377
11509SOL    HW138025   4.684   2.393   9.869  0.3589 -0.7579 -0.4368
11509SOL    HW238026   4.686   2.523   9.946 -1.5056 -0.0191 -1.5588
11510SOL     OW38027   4.235   7.051   0.082 -0.2877  0.3537  0.0258
11510SOL    HW138028   4.213   7.131   0.130 -1.0022  0.2344 -0.0861
11510SOL    HW238029   4.215   6.980   0.143 -0.5579  0.2286 -0.2040
11511SOL     OW38030   1.780   5.395  10.250 -0.2748  0.4801 -0.2375
11511SOL    HW138031   1.685   5.394  10.264 -0.0987 -0.1226  1.0240
11511SOL    HW238032   1.790   5.398  10.154 -1.5670 -1.9984 -0.5301
11512SOL     OW38033   6.408   5.625   8.249  0.4352  0.0103 -0.0202
11512SOL    HW138034   6.359   5.547   8.223  1.7226 -0.9395  0.2865
11512SOL    HW238035   6.357   5.698   8.214 -0.8074 -0.9540 -0.3139
11513SOL     OW38036   4.938   7.528   3.588 -0.4164  0.4967 -0.2644
11513SOL    HW138037   4.971   7.461   3.528  0.5713 -0.3904  1.2150
11513SOL    HW238038   4.858   7.489   3.625 -0.4846  0.6313 -0.2689
11514SOL     OW38039   1.901  10.914   8.541 -0.3958  0.1101 -0.1313
11514SOL    HW138040   1.884  10.925   8.448  0.4960 -0.4077 -0.3743
11514SOL    HW238041   1.914  11.003   8.574 -2.4953  0.4390 -0.1124
11515SOL     OW38042  10.235   2.462   1.301 -0.0613 -0.1997 -0.0972
11515SOL    HW138043  10.321   2.456   1.259  0.2248 -0.7051  0.5489
11515SOL    HW238044  10.250   2.433   1.391 -1.1606 -1.5277 -0.3061
11516SOL     OW38045  10.346   4.987   7.516  0.6703  0.4896  0.2035
11516SOL    HW138046  10.305   5.057   7.466  0.0220  0.7015  0.9976
11516SOL    HW238047  10.438   4.988   7.490  0.7584  1.9220  0.5414
11517SOL     OW38048   5.732   0.987  10.212  0.0159 -0.6084  0.2733
11517SOL    HW138049   5.646   0.960  10.180 -0.2869 -2.0555  2.1267
11517SOL    HW238050   5.714   1.067  10.262 -0.1455 -0.5684  0.1526
11518SOL     OW38051   4.861   5.050   2.380 -0.0244  0.2173 -0.2542
11518SOL    HW138052   4.821   4.991   2.315  0.3067  0.0523 -0.3087
11518SOL    HW238053   4.836   5.138   2.350  0.3359  0.1562 -0.7484
11519SOL     OW38054   6.964   2.687   3.132  0.5597  0.3031  0.4503
11519SOL    HW138055   6.995   2.598   3.146  0.7094  0.3881  0.6515
11519SOL    HW238056   6.868   2.679   3.129  0.5782  0.1200  0.3443
11520SOL     OW38057   3.325   1.116   0.616 -0.3232  0.0532 -0.3505
11520SOL    HW138058   3.244   1.166   0.605 -0.5618 -0.3342 -0.3724
11520SOL    HW238059   3.336   1.109   0.711 -0.4795 -0.1583 -0.3482
11521SOL     OW38060   1.171   9.491   3.608 -0.2130 -0.1036  0.3832
11521SOL    HW138061   1.263   9.506   3.628 -0.1925 -0.2679  0.4110
11521SOL    HW238062   1.124   9.552   3.664 -0.0549  1.1922 -0.8270
11522SOL     OW38063   5.863   3.837   0.097 -0.2522  0.1652 -0.1536
11522SOL    HW138064   5.897   3.889   0.024 -0.8782 -0.3217 -0.8160
11522SOL    HW238065   5.920   3.760   0.100  0.2955  0.5849  0.4294
11523SOL     OW38066   4.543   1.602   2.668  0.4439  0.6494  0.3546
11523SOL    HW138067   4.574   1.682   2.627  0.4485  0.7143  0.4849
11523SOL    HW238068   4.522   1.627   2.758 -1.5858  0.9877 -0.1624
11524SOL     OW38069   1.891   9.867   2.606  0.2880 -0.0083  0.0272
11524SOL    HW138070   1.952   9.864   2.679  1.8489  0.7248 -1.1883
11524SOL    HW238071   1.830   9.938   2.629 -0.1346 -0.7465  1.2485
11525SOL     OW38072   4.416   1.281   4.179  0.5419  0.4064 -0.3224
11525SOL    HW138073   4.472   1.266   4.103 -0.6478 -2.5856 -0.7897
11525SOL    HW238074   4.471   1.259   4.255  0.6749 -0.2787 -0.6118
11526SOL     OW38075   7.447   1.493   3.038  0.0130  0.2735 -0.6083
11526SOL    HW138076   7.425   1.568   2.984 -0.7132 -1.2653 -2.5820
11526SOL    HW238077   7.535   1.467   3.010  0.5325  0.7515  0.5271
11527SOL     OW38078   6.431   4.892   0.391 -0.0822  0.0875  0.0268
11527SOL    HW138079   6.429   4.812   0.445  2.6823 -1.2654 -1.6674
11527SOL    HW238080   6.518   4.928   0.404  0.2084  0.4520 -2.4043
11528SOL     OW38081  10.222   6.955   4.946  0.2470 -0.0722 -0.0579
11528SOL    HW138082  10.151   6.940   5.009  0.7827  0.5618  0.7108
11528SOL    HW238083  10.177   6.985   4.867 -0.3292  0.6686  0.5313
11529SOL     OW38084   0.141   7.934   4.449  0.0461  0.2750 -0.3054
11529SOL    HW138085   0.160   7.869   4.516 -0.8905  0.2381 -0.0632
11529SOL    HW238086   0.227   7.969   4.424  0.5080 -0.6477 -0.0450
11530SOL     OW38087   1.127   9.939   3.985 -0.7848 -0.0066 -0.0938
11530SOL    HW138088   1.174   9.932   3.902  1.1864 -1.8791  1.0756
11530SOL    HW238089   1.135   9.852   4.024 -1.3779  0.9026  2.1892
11531SOL     OW38090   8.474   4.478   4.407 -0.1582 -0.0731  0.0937
11531SOL    HW138091   8.536   4.526   4.461  0.4603 -0.0404 -0.6330
11531SOL    HW238092   8.478   4.388   4.440  0.8910 -0.2482 -0.4761
11532SOL     OW38093   9.508   0.248   2.348  0.0211 -0.6592  0.2749
11532SOL    HW138094   9.544   0.314   2.408 -1.0064 -0.1956  0.4092
11532SOL    HW238095   9.582   0.191   2.328  0.7085 -0.0197  0.9100
11533SOL     OW38096   8.339   0.210   7.093  0.3158  0.6205  0.2085
11533SOL    HW138097   8.308   0.201   7.183 -0.9204 -1.7385 -0.3685
11533SOL    HW238098   8.430   0.241   7.102  0.3776  0.0004  2.2709
11534SOL     OW38099   1.482   3.618   3.772 -0.3642 -0.3890  0.3346
11534SOL    HW138100   1.539   3.558   3.821 -0.4108 -3.2053 -2.7116
11534SOL    HW238101   1.542   3.681   3.733  0.3087 -1.3039 -0.1527
11535SOL     OW38102  10.282   3.817   0.094  0.2240 -0.5311 -0.1416
11535SOL    HW138103  10.331   3.835   0.014  0.8732  0.5787  0.4857
11535SOL    HW238104  10.260   3.724   0.088 -1.1368 -0.1506 -2.3601
11536SOL     OW38105   0.136  10.498   8.947  0.6411  0.2238 -0.2543
11536SOL    HW138106   0.207  10.481   8.884 -2.1515 -1.5756 -3.2309
11536SOL    HW238107   0.068  10.541   8.895 -2.0285 -1.7594  1.3444
11537SOL     OW38108   6.391   1.184   8.711  0.0601 -0.5319  0.1891
11537SOL    HW138109   6.303   1.167   8.744  0.2282 -1.2845  0.2779
11537SOL    HW238110   6.424   1.097   8.686  0.5796 -0.1933 -0.3290
11538SOL     OW38111   2.466   2.569   4.749 -0.5152  0.1698 -0.7560
11538SOL    HW138112   2.484   2.503   4.683  0.2843 -2.8507  2.2170
11538SOL    HW238113   2.375   2.555   4.774 -0.5184  0.6187 -0.5067
11539SOL     OW38114   9.089   5.605   9.076  0.2025 -0.4451 -0.9147
11539SOL    HW138115   9.017   5.658   9.111 -0.1706 -1.7314  0.3880
11539SOL    HW238116   9.065   5.588   8.985 -0.0180  0.9833 -1.1481
11540SOL     OW38117   4.413   0.268   3.615 -0.3316 -0.7147  0.3107
11540SOL    HW138118   4.348   0.337   3.621 -0.8873 -1.1177 -0.8177
11540SOL    HW238119   4.483   0.304   3.561  1.0316  0.1673  2.5187
11541SOL     OW38120   2.334   5.687   0.690  0.1778  0.2226  0.7942
11541SOL    HW138121   2.324   5.672   0.595  0.4421  1.8195  0.4929
11541SOL    HW238122   2.250   5.661   0.727  0.1004 -0.4989  0.1391
11542SOL     OW38123   5.911   8.364  10.601 -0.0235  0.1452  0.4917
11542SOL    HW138124   5.833   8.326  10.560  0.2488  1.1926 -1.0858
11542SOL    HW238125   5.977   8.295  10.593 -0.5351 -0.4467  1.1246
11543SOL     OW38126   9.758   1.016   1.296  0.2555 -0.0592 -0.4965
11543SOL    HW138127   9.798   0.937   1.332  0.4667  1.2536  2.3996
11543SOL    HW238128   9.664   0.996   1.293  0.3953 -0.7154 -0.7233
11544SOL     OW38129  10.755   7.403   1.017  0.1526  0.0709  0.0228
11544SOL    HW138130  10.777   7.390   1.109  0.0914  2.8678  0.5120
11544SOL    HW238131  10.839   7.411   0.972  0.1777 -0.8035 -0.0949
11545SOL     OW38132   1.949   5.981   3.442  0.0854  0.4620 -0.5156
11545SOL    HW138133   2.009   6.055   3.442  1.3413 -0.5336 -0.8743
11545SOL    HW238134   1.969   5.933   3.362 -1.2061  0.1087 -0.6563
11546SOL     OW38135   0.901   9.628   9.800  0.9704  0.3180  0.2528
11546SOL    HW138136   0.920   9.660   9.712  1.3802  1.6289  0.7905
11546SOL    HW238137   0.959   9.552   9.811  0.0040 -0.6575 -1.0385
11547SOL     OW38138   7.637   6.457   3.693  0.0819 -0.2168 -0.3985
11547SOL    HW138139   7.615   6.405   3.771  0.7025  1.1102  0.7196
11547SOL    HW238140   7.646   6.546   3.727  1.1771  0.2625 -1.8795
11548SOL     OW38141   9.364   8.187   2.706  0.3786 -0.2236  0.3390
11548SOL    HW138142   9.382   8.195   2.613 -1.7525  2.0266  0.0320
11548SOL    HW238143   9.438   8.230   2.749  0.0879  1.1450 -0.4672
11549SOL     OW38144   1.694   4.793   4.747  0.5731  0.2540  0.5433
11549SOL    HW138145   1.675   4.867   4.805  0.2153 -0.2322  1.0650
11549SOL    HW238146   1.630   4.801   4.676 -0.3979 -0.3285  1.3270
11550SOL     OW38147   8.358   0.875   4.197 -0.4593  0.1724 -0.5782
11550SOL    HW138148   8.298   0.935   4.153 -1.1086 -0.7574 -0.9936
11550SOL    HW238149   8.444   0.897   4.161 -0.4383  1.8555  0.3881
11551SOL     OW38150   6.037   7.769  10.150 -0.0164 -0.4055  0.2167
11551SOL    HW138151   6.084   7.760  10.232  1.7116  0.4867 -0.6239
11551SOL    HW238152   6.072   7.699  10.094 -1.1662 -1.0016  0.2123
11552SOL     OW38153   6.493   5.595   1.190  0.5546 -0.5715 -0.2627
11552SOL    HW138154   6.478   5.667   1.128  0.8203 -1.0914 -0.9500
11552SOL    HW238155   6.475   5.516   1.139  0.9437 -1.0187  0.2807
11553SOL     OW38156   9.037   3.327   9.178 -0.6742 -0.3195  0.5116
11553SOL    HW138157   9.044   3.418   9.206 -0.0029  0.0305 -0.7396
11553SOL    HW238158   8.979   3.329   9.102 -0.1943 -0.8483  0.1199
11554SOL     OW38159   6.709  10.708   8.250 -0.0854  0.2285  0.2011
11554SOL    HW138160   6.730  10.794   8.213 -1.1054  0.0419 -0.8911
11554SOL    HW238161   6.721  10.647   8.177  0.5859 -0.5545  0.9514
11555SOL     OW38162   7.082   5.060   2.197  0.1274  0.4488  0.0436
11555SOL    HW138163   7.090   5.034   2.105 -1.3398  1.8883 -0.5473
11555SOL    HW238164   7.126   5.146   2.201  0.0371  0.4705  0.6562
11556SOL     OW38165   3.819   9.886   7.360 -0.5557 -0.2721 -0.2520
11556SOL    HW138166   3.726   9.897   7.345 -0.8524 -2.0866  0.0219
11556SOL    HW238167   3.850   9.972   7.387 -2.4991 -0.0230  1.4223
11557SOL     OW38168  10.952   0.351   4.579  0.2378  0.9149 -0.3757
11557SOL    HW138169  11.037   0.390   4.564  0.5472 -0.1777 -1.7252
11557SOL    HW238170  10.906   0.360   4.495 -0.0637 -0.5768 -0.4111
11558SOL     OW38171   9.697   8.056   1.960 -0.4099  0.2690 -0.1054
11558SOL    HW138172   9.758   8.017   2.023 -1.3206 -1.3706 -0.1756
11558SOL    HW238173   9.681   7.986   1.897 -0.5189  1.4698 -1.4329
11559SOL     OW38174   1.720   9.848   4.769  0.1333  0.3687  0.4543
11559SOL    HW138175   1.675   9.931   4.784 -0.6678  0.0379 -0.0700
11559SOL    HW238176   1.721   9.806   4.856 -2.2604 -0.4357  0.1528
11560SOL     OW38177   6.395   0.709  10.038 -0.3596  0.4511  1.0352
11560SOL    HW138178   6.443   0.669   9.965 -0.7402  1.6243  0.0958
11560SOL    HW238179   6.463   0.729  10.102  0.2582  0.9818  0.2486
11561SOL     OW38180   0.038   8.310   5.312 -0.1312  0.5803  0.0225
11561SOL    HW138181   0.123   8.297   5.353 -0.0501 -1.1264 -0.5808
11561SOL    HW238182   0.058   8.322   5.219 -0.5503 -0.0142 -0.1480
11562SOL     OW38183   4.386   8.443   8.838 -0.5760  0.2153  0.5250
11562SOL    HW138184   4.323   8.512   8.858 -2.7373 -0.7673 -2.1400
11562SOL    HW238185   4.442   8.480   8.771 -0.4216  0.0568  0.5655
11563SOL     OW38186   5.451   7.007   1.754 -0.3649 -0.0584 -0.5873
11563SOL    HW138187   5.375   6.996   1.696 -1.0588 -1.4657  0.5186
11563SOL    HW238188   5.433   6.949   1.828  1.5375  0.0011 -0.0257
11564SOL     OW38189  10.852   3.528   8.444 -0.5081  0.2459 -0.3477
11564SOL    HW138190  10.783   3.584   8.407  2.6735  2.9276 -2.8415
11564SOL    HW238191  10.855   3.452   8.386 -0.2520  0.9880 -1.3346
11565SOL     OW38192   0.616   5.466   5.387  0.2061  0.0758 -0.3069
11565SOL    HW138193   0.657   5.418   5.316  1.5195  1.0946 -0.2730
11565SOL    HW238194   0.689   5.501   5.438 -0.7102  0.4897  0.7808
11566SOL     OW38195  11.005   8.233  10.861 -0.0417 -0.5071 -0.0651
11566SOL    HW138196  11.067   8.188  10.919 -0.4183 -1.8965 -0.7049
11566SOL    HW238197  11.060   8.288  10.805  0.6125 -1.6734 -0.5833
11567SOL     OW38198   2.364   5.608   1.602  0.0305 -0.0342  0.4347
11567SOL    HW138199   2.376   5.625   1.696 -0.0890  1.1309  0.2508
11567SOL    HW238200   2.335   5.692   1.566  0.1224 -0.4589 -0.6580
11568SOL     OW38201   8.577   3.070   3.728 -0.7159  0.5608 -0.5810
11568SOL    HW138202   8.669   3.050   3.711 -0.6358 -0.5252  0.9694
11568SOL    HW238203   8.577   3.161   3.759 -0.1425  0.4953 -0.3936
11569SOL     OW38204   8.604   6.100   3.621  0.3857  0.0289 -0.2426
11569SOL    HW138205   8.610   6.053   3.537  0.4946  1.3133 -0.9833
11569SOL    HW238206   8.556   6.179   3.600  1.7581  1.1282  0.5692
11570SOL     OW38207   8.082   4.146   1.750  0.5126 -0.3499  0.0870
11570SOL    HW138208   8.108   4.174   1.838 -1.8348 -2.7019  1.6909
11570SOL    HW238209   7.989   4.126   1.758  0.9494 -4.0530 -1.9412
11571SOL     OW38210   5.881   2.660   2.204 -0.3126  0.6482 -0.3807
11571SOL    HW138211   5.907   2.573   2.236  0.8953  0.0151 -2.8875
11571SOL    HW238212   5.865   2.648   2.111  1.8497  3.4983 -1.2452
11572SOL     OW38213   5.089   9.575   2.800 -0.9378  0.3379 -0.6462
11572SOL    HW138214   5.026   9.513   2.837 -1.9771  1.6299 -0.1758
11572SOL    HW238215   5.152   9.590   2.871 -0.2635 -0.6884 -1.0007
11573SOL     OW38216   9.450   8.557   1.636 -0.2326  0.2041 -0.5859
11573SOL    HW138217   9.435   8.574   1.543  1.8529  1.0324 -0.8105
11573SOL    HW238218   9.388   8.486   1.657 -0.8344  0.0777 -2.5485
11574SOL     OW38219   1.989   2.504   2.607  0.1348  0.1312 -0.3962
11574SOL    HW138220   1.902   2.486   2.571 -0.7278 -0.0776  1.6655
11574SOL    HW238221   1.990   2.599   2.618 -1.0546 -0.0803  2.2953
11575SOL     OW38222   8.832   9.851   5.808  0.7078 -0.0862  0.3886
11575SOL    HW138223   8.804   9.841   5.717 -0.0226  0.5549  0.5331
11575SOL    HW238224   8.896   9.922   5.806 -0.4520  0.9904  0.5828
11576SOL     OW38225   9.025   7.692   6.459 -0.0345 -0.3256 -0.2697
11576SOL    HW138226   8.965   7.699   6.534  0.7374 -0.9361  0.4216
11576SOL    HW238227   9.039   7.783   6.431  0.0460 -0.0509  0.6411
11577SOL     OW38228   7.221   8.254   1.870  0.2505 -0.5949 -0.5417
11577SOL    HW138229   7.133   8.282   1.897  0.1604 -2.2974  1.1423
11577SOL    HW238230   7.225   8.162   1.894  2.6361 -0.4631 -0.2140
11578SOL     OW38231   5.054   8.925   5.978  0.2931 -0.0069  0.1036
11578SOL    HW138232   5.131   8.964   6.020 -0.1937  0.8258  0.2602
11578SOL    HW238233   4.994   8.906   6.051 -0.0986  0.3906 -0.1111
11579SOL     OW38234   6.063   1.399   6.857  0.1096 -0.3121 -0.1395
11579SOL    HW138235   6.039   1.306   6.856 -2.6325  0.3151 -1.0825
11579SOL    HW238236   6.099   1.414   6.945 -2.3768 -1.6350  1.2143
11580SOL     OW38237   1.010   7.944   9.148  0.2327  0.0929 -0.0376
11580SOL    HW138238   1.056   8.013   9.195  1.0013 -0.4368  0.0098
11580SOL    HW238239   1.028   7.865   9.199 -0.6325 -0.1546 -0.0918
11581SOL     OW38240   3.042  10.396   1.796  0.1270  0.1468  0.5388
11581SOL    HW138241   3.111  10.333   1.776  0.1645 -0.0012  1.1068
11581SOL    HW238242   3.020  10.436   1.712  0.0749 -0.6540  0.1589
11582SOL     OW38243   4.105   4.571  10.209 -0.2865 -0.3328 -0.6214
11582SOL    HW138244   4.099   4.579  10.114 -0.3824 -0.8290 -0.6581
11582SOL    HW238245   4.193   4.602  10.231 -0.1031 -0.6410 -0.9177
11583SOL     OW38246   9.575   9.896   2.862  0.4077  0.1882 -0.0120
11583SOL    HW138247   9.544   9.854   2.781 -0.2819 -1.2112  0.9344
11583SOL    HW238248   9.648   9.840   2.891 -1.0470 -0.9331  1.7041
11584SOL     OW38249   0.966   0.384   4.563  0.7748 -0.2030 -1.0229
11584SOL    HW138250   0.998   0.317   4.503  0.4876  0.7279 -2.2702
11584SOL    HW238251   0.893   0.343   4.608 -0.2448 -0.3613 -2.7193
11585SOL     OW38252   8.223   3.188   7.760 -0.8019 -0.2681 -0.5790
11585SOL    HW138253   8.134   3.172   7.731 -1.4769  1.1533  0.5557
11585SOL    HW238254   8.222   3.279   7.791  1.3008  0.1229 -1.4916
11586SOL     OW38255   9.078   9.659   4.399 -0.2949  0.3470 -0.0799
11586SOL    HW138256   9.163   9.670   4.441  0.3690 -0.4831 -1.1394
11586SOL    HW238257   9.015   9.689   4.464  0.8678  2.3138  0.2105
11587SOL     OW38258   7.383   7.245   1.346  0.2275 -0.0442  0.0693
11587SOL    HW138259   7.414   7.307   1.280  0.5597 -0.2112  0.0670
11587SOL    HW238260   7.463   7.208   1.384  0.0645  0.8745  1.3565
11588SOL     OW38261   6.637   8.865   9.425 -0.1675  0.0339  0.1824
11588SOL    HW138262   6.545   8.855   9.401 -0.0680  1.6784 -1.1133
11588SOL    HW238263   6.680   8.894   9.344  1.6109 -1.2156  0.6157
11589SOL     OW38264   5.243  10.601   0.109  0.3879  0.1620 -0.3535
11589SOL    HW138265   5.216  10.684   0.150  0.9753  0.0828  0.2034
11589SOL    HW238266   5.317  10.625   0.053  0.0100  0.1553 -0.8631
11590SOL     OW38267   7.843   8.778   3.841 -0.3037  0.1775 -0.1410
11590SOL    HW138268   7.867   8.755   3.930 -1.7848 -0.6591  0.0818
11590SOL    HW238269   7.754   8.813   3.848 -0.5519 -0.1471 -1.3087
11591SOL     OW38270  10.411   0.567   2.447 -0.0974 -0.2660  0.2151
11591SOL    HW138271  10.423   0.650   2.400  0.7228 -0.1175  0.6627
11591SOL    HW238272  10.327   0.576   2.491  0.6066  0.9090  1.3831
11592SOL     OW38273   8.910   7.235   1.257  0.4337 -0.6837  0.1467
11592SOL    HW138274   8.887   7.274   1.342 -0.2591 -1.6669  0.4281
11592SOL    HW238275   8.828   7.196   1.226  0.9616 -1.3479 -0.4297
11593SOL     OW38276  10.864   5.351   3.982  0.5438  0.1712  0.6108
11593SOL    HW138277  10.908   5.424   4.026 -1.2383  1.8551 -0.2229
11593SOL    HW238278  10.927   5.319   3.919  1.6454  0.4873  1.5269
11594SOL     OW38279   9.282   3.936  10.483 -0.0041 -0.2598 -0.4957
11594SOL    HW138280   9.263   4.029  10.472  0.8964  0.0283  0.2539
11594SOL    HW238281   9.196   3.894  10.487 -0.4410  0.6571  0.0956
11595SOL     OW38282   3.760   2.944   8.842  0.0545 -0.3266 -0.0492
11595SOL    HW138283   3.775   2.891   8.764 -0.1640 -0.3035 -0.1093
11595SOL    HW238284   3.700   2.891   8.895  0.3785 -0.4403  0.2044
11596SOL     OW38285   3.234   1.113   8.502 -0.2208  0.7243 -0.4547
11596SOL    HW138286   3.215   1.144   8.590  0.2321 -0.8067  0.2130
11596SOL    HW238287   3.310   1.164   8.474 -0.1158  0.9359  0.2039
11597SOL     OW38288   6.350   4.166   3.737 -0.8290 -0.4892 -0.2638
11597SOL    HW138289   6.329   4.259   3.745  0.0370 -0.2803 -0.3802
11597SOL    HW238290   6.433   4.156   3.784 -1.2902 -1.3483  0.3917
11598SOL     OW38291   2.420   4.734   0.974 -0.5137 -0.2388  0.1518
11598SOL    HW138292   2.340   4.750   1.023  0.0977  0.6150  0.8968
11598SOL    HW238293   2.394   4.673   0.904 -1.4323 -1.3419  1.4099
11599SOL     OW38294   0.513   6.365  10.123  0.2850  0.3721  0.4354
11599SOL    HW138295   0.543   6.456  10.121 -0.2091  0.5422 -1.6730
11599SOL    HW238296   0.442   6.365  10.187 -0.3048  1.7027 -0.1600
11600SOL     OW38297   5.373   9.769   8.771 -0.2205 -0.6507  0.3152
11600SOL    HW138298   5.353   9.862   8.777  0.1617 -0.2443 -3.0516
11600SOL    HW238299   5.446   9.756   8.832  1.6493  1.9185 -1.1879
11601SOL     OW38300   0.813   3.731   6.705  0.1976  0.0041  0.1150
11601SOL    HW138301   0.776   3.678   6.776  0.8091  0.2609  0.6356
11601SOL    HW238302   0.880   3.784   6.748  0.7444 -0.0123 -0.7065
11602SOL     OW38303   2.269   6.458   4.277  0.0648  0.1841 -0.1367
11602SOL    HW138304   2.250   6.550   4.258  0.6941 -0.1262 -2.4652
11602SOL    HW238305   2.238   6.410   4.201 -0.2616 -1.5794  1.0321
11603SOL     OW38306  10.796   5.757   3.918  0.2534 -0.0421  0.4715
11603SOL    HW138307  10.835   5.814   3.984  0.6376 -1.4022  1.4628
11603SOL    HW238308  10.866   5.745   3.853  1.0778 -1.3653  1.5473
11604SOL     OW38309   1.903   5.926   9.866 -0.2731  0.0144  0.1420
11604SOL    HW138310   1.891   5.851   9.807 -1.1380 -1.0616  1.6174
11604SOL    HW238311   1.825   5.980   9.851  0.6629  1.0219 -1.4017
11605SOL     OW38312   9.696   4.091   7.079 -0.6304  0.0665  0.7965
11605SOL    HW138313   9.618   4.118   7.127 -1.7172 -2.3217  0.5301
11605SOL    HW238314   9.678   4.000   7.054  2.8710 -1.1358  2.0679
11606SOL     OW38315   8.568  10.520   3.968 -0.2202 -0.2301  0.0298
11606SOL    HW138316   8.597  10.483   3.885  0.0049 -1.1792  0.5191
11606SOL    HW238317   8.523  10.448   4.012  0.2767  0.0552  1.0282
11607SOL     OW38318   4.469  10.914  10.051  0.4593  0.1650  0.0663
11607SOL    HW138319   4.536  10.861  10.009  0.4897 -0.3066  0.6962
11607SOL    HW238320   4.462  10.879  10.139  1.0355  1.7236  0.7700
11608SOL     OW38321   6.823   5.700  10.712  0.3488  0.1771  0.3097
11608SOL    HW138322   6.789   5.743  10.791  0.0386 -0.3656  0.4788
11608SOL    HW238323   6.907   5.743  10.696  0.6161  0.0126  1.1919
11609SOL     OW38324   0.103   6.503   8.688 -0.6159 -0.0661 -0.3735
11609SOL    HW138325   0.192   6.477   8.665  0.4664  2.7769  0.3158
11609SOL    HW238326   0.052   6.484   8.610  0.8089 -0.6951 -1.1901
11610SOL     OW38327   9.598  10.105   8.526  0.1595 -0.3504  0.2446
11610SOL    HW138328   9.651  10.049   8.582 -0.6670  0.4381  1.8793
11610SOL    HW238329   9.591  10.187   8.574 -0.5727  0.3767 -1.0454
11611SOL     OW38330   7.058   8.938  10.570  0.0742 -0.5243  0.0183
11611SOL    HW138331   6.982   8.987  10.601  0.4821  0.0857  0.0894
11611SOL    HW238332   7.118   9.006  10.539  0.9426 -0.9367  0.7523
11612SOL     OW38333   9.040  10.087   9.797 -0.2018 -0.7001  0.2327
11612SOL    HW138334   8.952  10.102   9.832  0.2738 -0.1756  1.2594
11612SOL    HW238335   9.038   9.996   9.767 -0.9767 -0.8205  0.6189
11613SOL     OW38336   8.924   3.786  10.872 -0.0046 -0.6403 -0.2457
11613SOL    HW138337   8.879   3.725  10.812  0.4888 -1.5396  0.2731
11613SOL    HW238338   9.017   3.764  10.862  0.1145 -0.5014  0.5357
11614SOL     OW38339   7.108   8.092   6.310  0.1281 -0.1146  0.3200
11614SOL    HW138340   7.164   8.149   6.363 -0.3096  1.7629 -1.1720
11614SOL    HW238341   7.170   8.038   6.261  0.5820  0.2522  0.4782
11615SOL     OW38342   9.617   7.615   7.816 -0.3343 -0.2663  0.4159
11615SOL    HW138343   9.595   7.605   7.909 -0.6772  0.8533  0.4673
11615SOL    HW238344   9.532   7.629   7.773  0.0240  2.2576  0.3708
11616SOL     OW38345   7.587   5.252   7.114 -0.1172 -0.1113  0.2482
11616SOL    HW138346   7.592   5.322   7.049  1.0577  0.6192  1.0830
11616SOL    HW238347   7.628   5.177   7.072 -0.3793  0.0197 -0.2519
11617SOL     OW38348  10.760   6.239   5.769  0.3391  0.1948  0.1054
11617SOL    HW138349  10.693   6.171   5.759 -0.0451  0.8063 -1.6711
11617SOL    HW238350  10.771   6.246   5.864 -1.4372 -0.5658  0.4201
11618SOL     OW38351   6.229  10.824   3.832  0.7493  0.3416 -0.1497
11618SOL    HW138352   6.212  10.846   3.741 -1.8199  0.8439  0.3794
11618SOL    HW238353   6.272  10.738   3.828  0.7728  0.4033 -1.8254
11619SOL     OW38354   8.057   6.484   5.775 -0.1676 -0.7392  0.2567
11619SOL    HW138355   8.033   6.500   5.684  1.0796  2.7773  0.4102
11619SOL    HW238356   7.975   6.490   5.823 -0.7080 -1.7830 -0.4904
11620SOL     OW38357   8.125   2.654   8.336 -0.0841 -0.0357 -0.6246
11620SOL    HW138358   8.098   2.630   8.425  0.7513 -0.0756 -0.3675
11620SOL    HW238359   8.084   2.588   8.280 -0.7683  0.0938 -0.2926
11621SOL     OW38360   3.000   4.120   6.034 -0.0651  0.1456 -0.6016
11621SOL    HW138361   3.047   4.202   6.018  0.3484  0.4818  1.9931
11621SOL    HW238362   2.942   4.140   6.108  0.8014 -2.1564  0.8011
11622SOL     OW38363   3.687   1.978   2.179 -0.4211  0.5748 -0.2117
11622SOL    HW138364   3.646   1.913   2.236 -0.6329 -0.6046 -1.6246
11622SOL    HW238365   3.772   1.996   2.219 -1.4642  1.5241  1.6712
11623SOL     OW38366   6.641   5.755   0.067  0.0213  0.3035  0.0433
11623SOL    HW138367   6.581   5.780   0.137 -1.2441 -1.6461 -0.2639
11623SOL    HW238368   6.588   5.763  -0.013 -0.9024 -3.9506 -0.0265
11624SOL     OW38369   1.002   0.327   5.190  0.1825  0.0352  0.1312
11624SOL    HW138370   0.920   0.373   5.174 -0.7173 -1.5972 -0.2410
11624SOL    HW238371   1.018   0.276   5.111 -0.3911 -2.4170  1.4627
11625SOL     OW38372   0.877   5.819   8.540 -0.3832  0.2542  0.2216
11625SOL    HW138373   0.936   5.790   8.608 -1.5275 -0.3636  0.9862
11625SOL    HW238374   0.790   5.812   8.579 -1.0197  0.4876 -1.0877
11626SOL     OW38375   2.210   4.809   5.834 -0.7029  0.1626  0.6069
11626SOL    HW138376   2.155   4.880   5.869  2.1732  2.8000  0.2676
11626SOL    HW238377   2.253   4.772   5.911 -2.9448 -2.1102  0.9091
11627SOL     OW38378   4.487   1.216   0.502 -0.0003 -0.6749 -0.0327
11627SOL    HW138379   4.565   1.235   0.450  0.0877 -0.7882  0.0587
11627SOL    HW238380   4.512   1.143   0.558  0.0960 -0.1669  0.5945
11628SOL     OW38381   9.674   6.178   8.428 -0.9824 -0.1137 -0.1369
11628SOL    HW138382   9.645   6.247   8.369  0.6158  0.1796 -0.6164
11628SOL    HW238383   9.761   6.205   8.457 -1.5719 -0.4000  2.1370
11629SOL     OW38384   2.674   3.870  10.789  0.5452  0.4587 -0.1588
11629SOL    HW138385   2.769   3.864  10.796  0.3968 -1.0659  1.2137
11629SOL    HW238386   2.643   3.863  10.880 -0.9361 -1.0314 -0.7333
11630SOL     OW38387   2.803   8.034   2.670 -0.5159 -0.3172 -0.4662
11630SOL    HW138388   2.722   8.006   2.627 -1.3788  0.8495  0.3314
11630SOL    HW238389   2.816   8.123   2.640  0.2652 -0.3638 -0.2755
11631SOL     OW38390   8.144   1.065   1.714 -0.6756  0.3196 -0.1486
11631SOL    HW138391   8.065   1.012   1.703  0.3641 -1.4771  0.5688
11631SOL    HW238392   8.195   1.048   1.635  0.8649 -2.0036  1.2398
11632SOL     OW38393   2.015   6.626   1.146  0.0994 -0.1396 -0.5707
11632SOL    HW138394   1.946   6.626   1.079  0.4716 -0.0849 -0.9557
11632SOL    HW238395   2.060   6.542   1.134 -0.0410 -0.2755 -0.1690
11633SOL     OW38396   3.760   1.799   1.924 -0.4662 -0.3534 -0.9054
11633SOL    HW138397   3.797   1.887   1.915  0.1074 -0.3338  1.1976
11633SOL    HW238398   3.829   1.740   1.892 -0.7090 -0.0829 -1.9658
11634SOL     OW38399   7.723   7.626   0.528  0.1776 -0.5181 -0.2409
11634SOL    HW138400   7.817   7.605   0.525 -0.4540 -3.6872 -0.5735
11634SOL    HW238401   7.679   7.541   0.527 -2.7677  0.8947 -1.2380
11635SOL     OW38402   6.437   2.423   8.508  0.1746 -0.3795  0.3116
11635SOL    HW138403   6.436   2.336   8.548  0.1021 -0.1370  0.8488
11635SOL    HW238404   6.358   2.425   8.453 -0.3265 -0.3367  1.0136
11636SOL     OW38405   7.905   3.728   4.386  0.5604 -0.1762  0.0413
11636SOL    HW138406   7.812   3.719   4.407  0.2681 -1.7351 -1.6532
11636SOL    HW238407   7.910   3.806   4.331 -0.2079 -1.4107 -1.9002
11637SOL     OW38408   8.699  10.275   2.063  0.3366 -0.0564 -0.2211
11637SOL    HW138409   8.706  10.322   2.146 -0.9548 -2.9914  1.7053
11637SOL    HW238410   8.605  10.257   2.053  0.2990  1.1197 -2.9531
11638SOL     OW38411   7.322   1.207   0.547 -0.5035  0.4319  0.2416
11638SOL    HW138412   7.245   1.252   0.581 -0.4665  2.3536 -1.9787
11638SOL    HW238413   7.396   1.261   0.575 -0.2926  0.6765 -0.7447
11639SOL     OW38414   9.090   8.201  10.596 -0.1770 -0.5638  0.0110
11639SOL    HW138415   9.156   8.195  10.527 -0.2758 -2.3348  0.0346
11639SOL    HW238416   9.013   8.156  10.561 -0.7506 -0.1326  0.6841
11640SOL     OW38417   5.017   8.789   0.941  0.8624 -0.4048 -0.3271
11640SOL    HW138418   4.998   8.866   0.994  0.3125  0.2350 -1.4210
11640SOL    HW238419   4.945   8.729   0.960  1.0457 -0.4703  0.1782
11641SOL     OW38420   2.494   9.929   1.247  0.0327  0.1172  0.0679
11641SOL    HW138421   2.511  10.023   1.249 -0.2403  0.4432 -4.0893
11641SOL    HW238422   2.578   9.889   1.271  0.8348  1.4563 -0.4130
11642SOL     OW38423   6.965   6.105   6.866 -0.2373  0.2830  0.0763
11642SOL    HW138424   6.926   6.025   6.903 -1.5073  0.6380 -0.4300
11642SOL    HW238425   6.961   6.169   6.937  1.4451 -0.2850  0.7133
11643SOL     OW38426   3.902   1.075   8.567  0.2987 -0.3074 -0.1782
11643SOL    HW138427   3.945   0.989   8.561 -1.0439 -1.3583  3.0763
11643SOL    HW238428   3.968   1.131   8.607  0.5037 -0.3380 -0.4642
11644SOL     OW38429   3.761  10.412   6.607  0.0121 -0.1690 -0.1876
11644SOL    HW138430   3.837  10.440   6.555  1.2562 -1.8914  0.5939
11644SOL    HW238431   3.789  10.424   6.698 -0.9069 -0.2222  0.1099
11645SOL     OW38432   7.559   6.032   2.085  0.5446  0.0513  0.8178
11645SOL    HW138433   7.586   5.946   2.053 -1.0375  0.4935 -1.9920
11645SOL    HW238434   7.641   6.076   2.107  1.7415 -0.7783 -1.6142
11646SOL     OW38435   1.324   2.875   8.613 -0.0754  0.0340 -0.1567
11646SOL    HW138436   1.345   2.795   8.662 -0.5473  0.6612  1.1259
11646SOL    HW238437   1.335   2.945   8.678 -2.8193  0.7166 -0.3368
11647SOL     OW38438   0.218   2.659   2.438  0.0655  0.4132 -0.4962
11647SOL    HW138439   0.263   2.708   2.370 -0.0262  2.1670  0.6593
11647SOL    HW238440   0.289   2.623   2.493  0.1167 -0.3473 -1.0386
11648SOL     OW38441   3.351   7.932   9.737 -0.0079 -0.1644 -0.4085
11648SOL    HW138442   3.406   8.006   9.761 -2.4728  1.8372 -0.4034
11648SOL    HW238443   3.262   7.961   9.759 -1.2560 -2.5012 -1.9564
11649SOL     OW38444   3.109   8.694   9.833 -0.1260  1.1202  0.4143
11649SOL    HW138445   3.091   8.600   9.839  1.5952  0.6458 -1.1385
11649SOL    HW238446   3.049   8.725   9.764  0.5297  0.7983 -0.3099
11650SOL     OW38447   7.010   0.101   9.780  0.0401 -0.2313  0.4657
11650SOL    HW138448   6.977   0.115   9.868 -1.1612  0.3146 -0.0400
11650SOL    HW238449   6.932   0.107   9.724  0.8553  0.0056 -0.6839
11651SOL     OW38450   9.177   4.452   5.281 -0.4475  0.4002  0.0728
11651SOL    HW138451   9.099   4.481   5.329 -1.5852 -0.0125 -1.4153
11651SOL    HW238452   9.223   4.533   5.260 -1.0128  0.7398  0.1161
11652SOL     OW38453   2.942   8.128  10.647  0.7024  0.1799 -0.7434
11652SOL    HW138454   2.918   8.037  10.666  0.8108  0.5552  1.3222
11652SOL    HW238455   3.007   8.121  10.577  0.0624 -1.2589 -1.2449
11653SOL     OW38456   4.714   9.531   2.795 -0.4437  0.4663 -0.1816
11653SOL    HW138457   4.632   9.490   2.824  0.4381 -2.5136 -1.5159
11653SOL    HW238458   4.770   9.529   2.872 -0.4677 -0.8023 -0.1807
11654SOL     OW38459   6.319   4.040   0.406  0.2557 -0.0719 -0.1696
11654SOL    HW138460   6.329   4.069   0.497  0.1044  1.1038 -0.5017
11654SOL    HW238461   6.318   3.945   0.411 -0.8875 -0.0335  1.1930
11655SOL     OW38462   1.639   4.340   8.024  0.4160 -0.0384 -0.6777
11655SOL    HW138463   1.669   4.430   8.024 -0.3622  0.2331 -0.7653
11655SOL    HW238464   1.544   4.346   8.014  0.2826 -0.8438 -0.0769
11656SOL     OW38465   9.705  10.879   6.534  0.2702 -0.1051  0.0716
11656SOL    HW138466   9.710  10.973   6.519  1.4565 -0.3599 -1.3988
11656SOL    HW238467   9.701  10.841   6.446  2.6754 -1.5596  0.4971
11657SOL     OW38468   4.607   7.100  10.988  0.3742 -0.0378  0.2169
11657SOL    HW138469   4.574   7.144  10.910  0.3594  1.8338  1.2331
11657SOL    HW238470   4.701   7.092  10.972  0.8349  2.7574  1.0508
11658SOL     OW38471   5.331   5.672   0.529 -0.0909 -0.2649 -0.1201
11658SOL    HW138472   5.259   5.710   0.479  0.0203  1.0641  0.6797
11658SOL    HW238473   5.410   5.707   0.488 -0.0145  2.0419  1.7925
11659SOL     OW38474   8.114   5.142   2.656 -0.1758 -0.0980  0.1508
11659SOL    HW138475   8.099   5.201   2.583 -2.4348  0.1830  0.7614
11659SOL    HW238476   8.059   5.065   2.637  0.0452 -0.4865  1.0093
11660SOL     OW38477   8.122   9.053   4.899 -0.0271  0.1021  0.5484
11660SOL    HW138478   8.129   9.106   4.978 -0.4493 -0.2827  0.8532
11660SOL    HW238479   8.028   9.049   4.881 -0.0405 -0.9140  0.7927
11661SOL     OW38480   4.933   6.296   7.736  0.3355  0.4353 -0.5143
11661SOL    HW138481   4.981   6.214   7.751 -0.1400  0.3068  0.3576
11661SOL    HW238482   4.989   6.346   7.676  1.1857 -0.0322 -0.1257
11662SOL     OW38483   1.297   2.297   7.978 -0.6659 -0.1078 -0.1694
11662SOL    HW138484   1.348   2.376   7.957 -0.3272 -0.2438  0.1345
11662SOL    HW238485   1.323   2.275   8.067 -1.0886 -0.3127 -0.0956
11663SOL     OW38486   5.512   8.630   0.817 -0.1542  0.1669 -0.0109
11663SOL    HW138487   5.581   8.694   0.803  0.9588 -0.9095  0.3965
11663SOL    HW238488   5.536   8.584   0.897 -0.9002 -0.7786 -0.2922
11664SOL     OW38489   3.852   5.225   5.340  0.0861  0.2432 -0.5743
11664SOL    HW138490   3.840   5.162   5.269 -1.0725 -0.4090  0.1637
11664SOL    HW238491   3.775   5.282   5.335 -0.6371 -0.5620  0.8735
11665SOL     OW38492  10.331   5.249   6.352  0.0317 -0.3538  0.3144
11665SOL    HW138493  10.377   5.181   6.400  1.9401  0.4388 -0.2891
11665SOL    HW238494  10.279   5.202   6.287  1.7044 -1.2526 -0.4260
11666SOL     OW38495   0.057   0.336   6.162  0.6353 -0.6846  0.0334
11666SOL    HW138496  -0.029   0.365   6.193  1.0873 -1.0518  1.7569
11666SOL    HW238497   0.118   0.401   6.196  1.1235 -0.8114 -0.5770
11667SOL     OW38498   8.767   1.758  10.849 -0.3554 -0.4040 -0.1507
11667SOL    HW138499   8.800   1.841  10.884  0.9382 -0.5448 -0.9610
11667SOL    HW238500   8.672   1.764  10.857 -0.2821  1.1653 -0.2151
11668SOL     OW38501   1.990   3.882   7.848 -0.4202 -0.2852 -0.5555
11668SOL    HW138502   2.063   3.885   7.909 -0.3701  2.3022 -0.6262
11668SOL    HW238503   1.912   3.878   7.904 -0.3050 -2.4929 -0.4739
11669SOL     OW38504   0.177   5.809   1.614 -0.0998 -0.0513  0.3865
11669SOL    HW138505   0.101   5.803   1.672 -0.4167 -1.1514 -0.1037
11669SOL    HW238506   0.141   5.799   1.526  0.5259  0.2514  0.0851
11670SOL     OW38507   7.655   0.890  10.642  0.3753 -0.2970  0.1031
11670SOL    HW138508   7.709   0.811  10.643  2.4550  1.0425  1.4799
11670SOL    HW238509   7.566   0.858  10.631  1.1237 -2.8377  0.7600
11671SOL     OW38510   9.649   1.675  10.141  0.4271 -0.2587 -0.0164
11671SOL    HW138511   9.585   1.727  10.092  1.9840  1.8300  0.0270
11671SOL    HW238512   9.596   1.621  10.201 -1.3703 -0.7451 -1.9297
11672SOL     OW38513   1.299   8.780   9.433 -0.3154 -0.3639  0.4427
11672SOL    HW138514   1.349   8.702   9.456  1.5877  0.8527  0.6950
11672SOL    HW238515   1.224   8.779   9.492  1.1742 -0.5626  2.4582
11673SOL     OW38516   8.705   6.860   0.840 -0.2263 -0.4276 -0.3890
11673SOL    HW138517   8.655   6.938   0.813 -0.0724 -0.0772  0.3342
11673SOL    HW238518   8.648   6.786   0.815 -0.4109 -0.0908 -0.9974
11674SOL     OW38519   7.826   9.434  10.029  0.2080  0.1353 -0.1155
11674SOL    HW138520   7.750   9.487  10.053 -1.1063 -1.1959 -1.1318
11674SOL    HW238521   7.887   9.444  10.102 -1.2363  0.7170  1.0574
11675SOL     OW38522  10.165   3.475   4.400  0.3391 -0.7912 -0.0024
11675SOL    HW138523  10.118   3.557   4.386  1.5443  0.2186  1.6153
11675SOL    HW238524  10.229   3.471   4.329  0.0919 -0.4887 -0.2425
11676SOL     OW38525  10.538   4.033   0.781  0.1023 -0.2138 -0.3625
11676SOL    HW138526  10.546   4.117   0.736 -1.7842 -0.2721 -0.8821
11676SOL    HW238527  10.474   4.049   0.851  2.1357 -0.4158  1.6734
11677SOL     OW38528   3.425   2.171   7.113  0.4998 -0.7099 -0.4192
11677SOL    HW138529   3.406   2.083   7.080 -0.4799 -0.2735 -1.0695
11677SOL    HW238530   3.519   2.171   7.128  0.1699 -2.7739  2.3385
11678SOL     OW38531   8.694   7.445   8.832 -0.4363 -0.0907 -0.1549
11678SOL    HW138532   8.612   7.491   8.817  0.5501  2.6609  1.9875
11678SOL    HW238533   8.700   7.436   8.927  0.9086 -1.9263 -0.3519
11679SOL     OW38534   6.836  10.133   0.332  0.5267 -0.8356  0.1538
11679SOL    HW138535   6.882  10.186   0.266 -0.0431 -0.3536  0.1298
11679SOL    HW238536   6.758  10.102   0.286  0.3232 -0.8164  0.4879
11680SOL     OW38537   7.440   7.297   4.318 -0.0398  0.7783  0.0838
11680SOL    HW138538   7.446   7.364   4.387 -1.0140  1.0649 -0.0984
11680SOL    HW238539   7.528   7.259   4.314  0.0837  0.8835  1.3563
11681SOL     OW38540  10.573   4.995   7.376 -0.0798 -0.3495  0.5177
11681SOL    HW138541  10.631   5.028   7.446 -0.0576  1.4884 -0.3012
11681SOL    HW238542  10.585   5.057   7.304 -2.9767  0.0432  0.2608
11682SOL     OW38543   0.629   7.593   8.184  0.1923 -0.1420  0.4763
11682SOL    HW138544   0.622   7.585   8.279  1.8358  2.0482  0.8552
11682SOL    HW238545   0.697   7.530   8.159 -1.1618 -1.6865  0.5028
11683SOL     OW38546  10.988   7.929   3.295  0.1337  0.2614 -0.0835
11683SOL    HW138547  10.902   7.947   3.258  0.0677  0.7674  0.2926
11683SOL    HW238548  10.973   7.860   3.359  0.0568  0.1458 -0.2272
11684SOL     OW38549   4.343   8.445   7.147  0.4403  0.7099 -0.0936
11684SOL    HW138550   4.280   8.463   7.077 -0.6416  0.9737  0.9090
11684SOL    HW238551   4.293   8.458   7.228  1.3842 -0.5272  0.7275
11685SOL     OW38552   2.601   4.845   4.270 -0.4747  0.3937 -0.1488
11685SOL    HW138553   2.651   4.876   4.345 -3.3094 -0.7520  2.4192
11685SOL    HW238554   2.663   4.793   4.219  1.5566  1.1962  1.4016
11686SOL     OW38555   8.040   1.491   2.360 -0.0665 -0.0299 -0.3870
11686SOL    HW138556   8.026   1.435   2.437  0.3815 -0.4476 -0.6088
11686SOL    HW238557   8.132   1.515   2.364  0.0455 -0.3443 -0.9881
11687SOL     OW38558   5.955   6.309   7.203  0.4335 -0.3763  0.4235
11687SOL    HW138559   5.985   6.319   7.294  1.2307  0.9082  0.0403
11687SOL    HW238560   6.010   6.369   7.153 -0.1135 -0.9462 -0.8968
11688SOL     OW38561   8.411   6.870   9.537  0.0859  0.1190 -0.3645
11688SOL    HW138562   8.467   6.844   9.463 -0.4571 -0.4758 -0.5714
11688SOL    HW238563   8.335   6.911   9.496 -0.1057  0.0042 -0.1275
11689SOL     OW38564   6.421   3.360   4.424 -0.1322 -0.5225  0.4466
11689SOL    HW138565   6.433   3.373   4.518 -0.7413  1.4411  0.3066
11689SOL    HW238566   6.392   3.446   4.392  0.5698 -1.0088 -1.6182
11690SOL     OW38567   7.144   1.835   0.302  0.6047 -0.6430  0.7206
11690SOL    HW138568   7.123   1.748   0.337 -0.5615 -0.0353  1.5818
11690SOL    HW238569   7.185   1.881   0.376 -1.0723  0.3621  1.0642
11691SOL     OW38570   5.633   5.952  10.645 -0.0348  0.1009 -0.0472
11691SOL    HW138571   5.565   5.929  10.708  0.0894  0.7709  0.3336
11691SOL    HW238572   5.618   6.044  10.625 -0.9486 -0.4211 -2.0726
11692SOL     OW38573   9.922   4.618   5.458 -0.1648  0.5221  0.0433
11692SOL    HW138574  10.001   4.587   5.413  0.8143  0.5436  1.6903
11692SOL    HW238575   9.850   4.591   5.401  0.8492 -1.9511 -0.1623
11693SOL     OW38576   7.061   8.502   4.873 -0.2234  0.4866 -0.1301
11693SOL    HW138577   7.021   8.476   4.790 -1.6541  1.9070  0.0661
11693SOL    HW238578   6.991   8.492   4.938  0.2110  1.4546  0.5108
11694SOL     OW38579   2.705   8.488   1.133  0.3536  0.3588 -0.0361
11694SOL    HW138580   2.697   8.459   1.224 -1.1034  2.1109  0.4555
11694SOL    HW238581   2.700   8.583   1.138  1.3480  0.5426 -1.8760
11695SOL     OW38582   4.210   0.607  10.800 -0.3964 -0.6780  0.2214
11695SOL    HW138583   4.203   0.580  10.892  0.9784 -1.0481  0.2361
11695SOL    HW238584   4.282   0.670  10.799  0.0831 -1.2320 -0.7211
11696SOL     OW38585   9.146   9.613   9.954  0.3664 -0.2528  0.1674
11696SOL    HW138586   9.060   9.589   9.919 -0.2865  1.1965  0.6546
11696SOL    HW238587   9.189   9.661   9.884 -0.2302  1.1140  0.6927
11697SOL     OW38588   8.835   5.268   4.212 -0.4384 -0.2538  0.5149
11697SOL    HW138589   8.760   5.220   4.244 -1.8869 -0.1649 -2.4414
11697SOL    HW238590   8.909   5.208   4.223 -0.9765 -0.5723  2.8926
11698SOL     OW38591   5.914   6.911   4.786 -0.4864 -0.3460  0.3211
11698SOL    HW138592   5.859   6.975   4.741  2.2097  0.9083 -1.4367
11698SOL    HW238593   5.857   6.835   4.799 -3.2352  1.6413  0.7190
11699SOL     OW38594   1.651   2.103   4.200 -0.0151  0.0617  0.6327
11699SOL    HW138595   1.615   2.019   4.175 -0.1620  0.8112 -1.9840
11699SOL    HW238596   1.713   2.083   4.270  0.3427 -2.3000 -0.2678
11700SOL     OW38597   9.158   4.651   8.495 -0.0464  0.3369  0.4025
11700SOL    HW138598   9.207   4.651   8.413 -0.5431 -1.8620  0.0596
11700SOL    HW238599   9.106   4.732   8.492  0.4247  0.6054 -1.1400
11701SOL     OW38600   3.777  10.173  10.976 -0.0009 -0.9363 -0.0783
11701SOL    HW138601   3.774  10.175  10.880  0.0676  0.2135 -0.0718
11701SOL    HW238602   3.716  10.104  11.000 -0.0038 -1.2583 -0.9550
11702SOL     OW38603   6.022   8.727   6.902 -0.0265  0.3034  0.0991
11702SOL    HW138604   6.036   8.642   6.862  1.5881 -0.8838  2.8789
11702SOL    HW238605   5.989   8.707   6.990 -2.5848  2.6878 -0.1974
11703SOL     OW38606   3.660   0.039   9.271 -0.6199  0.1624  0.7234
11703SOL    HW138607   3.706   0.072   9.349  1.2162  1.0747 -0.6570
11703SOL    HW238608   3.714  -0.035   9.241 -0.9903  0.1731  0.0147
11704SOL     OW38609   7.997   2.546   6.475  0.4516 -0.2678  0.3891
11704SOL    HW138610   7.956   2.516   6.394  2.3113 -0.4177 -0.5398
11704SOL    HW238611   7.971   2.481   6.541 -2.3291  0.6642  0.3408
11705SOL     OW38612   2.262   1.357   9.764  0.4010 -0.1480  0.0498
11705SOL    HW138613   2.211   1.422   9.716 -0.2944 -1.1949 -0.6633
11705SOL    HW238614   2.220   1.352   9.850  1.0105  0.9715  0.4312
11706SOL     OW38615   9.651   8.425   6.800  0.2189  0.4332 -0.2425
11706SOL    HW138616   9.738   8.466   6.796  0.8440 -0.7338  0.6706
11706SOL    HW238617   9.658   8.349   6.742 -0.6008  0.9792 -1.1017
11707SOL     OW38618   2.311   7.448   2.609  0.0297  0.2136  0.1728
11707SOL    HW138619   2.373   7.427   2.540  0.9449  2.5921  0.1554
11707SOL    HW238620   2.364   7.450   2.689 -0.9271 -2.0754  0.9301
11708SOL     OW38621   1.614   8.927   6.727  0.3639  0.1623  0.4023
11708SOL    HW138622   1.606   8.951   6.634  0.8049  0.3904  0.4223
11708SOL    HW238623   1.617   9.011   6.773 -2.1385  0.0908  0.8544
11709SOL     OW38624   4.527   8.107   5.335  0.7065  0.0046 -0.7382
11709SOL    HW138625   4.452   8.050   5.323 -0.7234  1.9943 -2.0211
11709SOL    HW238626   4.511   8.152   5.417 -0.4556  1.6432 -1.8021
11710SOL     OW38627   1.793   1.102   5.217  0.5029 -0.4800  0.2467
11710SOL    HW138628   1.822   1.106   5.126  1.0796 -1.4827  0.3765
11710SOL    HW238629   1.701   1.128   5.213  0.7667  0.4080 -0.4879
11711SOL     OW38630   4.224   9.910   1.994 -0.2572  0.6113  0.5566
11711SOL    HW138631   4.314   9.918   1.964 -0.8154  1.7355 -0.9648
11711SOL    HW238632   4.230   9.886   2.086  1.5949  2.3633  0.9350
11712SOL     OW38633   9.947   2.916   4.083 -0.3979 -0.1622 -0.1356
11712SOL    HW138634   9.884   2.847   4.061 -0.8572 -0.7427  2.5604
11712SOL    HW238635   9.899   2.998   4.072 -0.7776 -0.4456 -0.6184
11713SOL     OW38636   9.158   5.267  11.005  0.2988  0.4505 -0.2278
11713SOL    HW138637   9.158   5.325  10.928 -0.8029 -0.6170 -1.0621
11713SOL    HW238638   9.115   5.319  11.073 -0.1097  0.8552 -0.7826
11714SOL     OW38639   6.955   8.263   8.298  0.0207 -0.2198  0.1446
11714SOL    HW138640   6.904   8.281   8.220  1.5403 -0.6313 -0.9857
11714SOL    HW238641   6.891   8.230   8.362 -1.3760  0.9540 -0.6032
11715SOL     OW38642  10.828   4.108   3.018 -0.3627  0.0627  0.5271
11715SOL    HW138643  10.845   4.156   2.937 -3.0483 -2.1351 -1.5280
11715SOL    HW238644  10.874   4.158   3.085  1.7241  2.2025 -2.2402
11716SOL     OW38645   1.541   1.358  10.178 -0.0582 -0.1936  0.3947
11716SOL    HW138646   1.519   1.342  10.270 -1.7787 -0.0838  0.0278
11716SOL    HW238647   1.618   1.415  10.182  0.3163 -0.7517  1.7547
11717SOL     OW38648   3.655   2.278   0.999  0.4972 -0.0542 -0.2787
11717SOL    HW138649   3.702   2.343   1.051 -0.8193  0.1253  0.7354
11717SOL    HW238650   3.624   2.214   1.062 -0.9180  0.0248 -0.8615
11718SOL     OW38651   9.358  10.842   1.392 -0.3184 -0.3116 -0.1518
11718SOL    HW138652   9.351  10.845   1.296 -1.8186  1.2691 -0.0539
11718SOL    HW238653   9.359  10.934   1.418  1.5004 -0.7021  1.2976
11719SOL     OW38654   9.671   3.133   8.407  0.0517  0.2836  0.8721
11719SOL    HW138655   9.587   3.178   8.398 -1.0815 -1.9632 -0.5512
11719SOL    HW238656   9.704   3.126   8.317  0.6502 -0.8761  1.1730
11720SOL     OW38657   9.003   7.756   3.507  0.5922 -0.2162 -0.8177
11720SOL    HW138658   9.031   7.822   3.444 -0.1165  0.3449 -0.5642
11720SOL    HW238659   9.027   7.792   3.592  2.0258 -1.2080 -0.7734
11721SOL     OW38660   3.069   6.668  10.643  0.2977  0.6529 -0.4113
11721SOL    HW138661   3.118   6.587  10.655 -0.0086  0.2541 -1.6581
11721SOL    HW238662   3.094   6.723  10.717 -0.1135 -0.8698  0.9147
11722SOL     OW38663   2.568   8.494   2.760 -0.6551  0.0545  0.1304
11722SOL    HW138664   2.609   8.429   2.703  0.7767 -0.1693  1.3445
11722SOL    HW238665   2.574   8.576   2.711  0.6711 -0.1024 -0.0115
11723SOL     OW38666  10.636   8.666   5.353 -0.3839  0.5733 -0.6822
11723SOL    HW138667  10.728   8.666   5.380 -0.8685  0.5414  1.1056
11723SOL    HW238668  10.634   8.611   5.275  0.7606 -1.5296  0.6601
11724SOL     OW38669   7.568   3.118   9.927  0.1249 -0.0941 -0.1946
11724SOL    HW138670   7.546   3.051   9.862 -0.2085  2.6848 -3.2468
11724SOL    HW238671   7.485   3.162   9.945  0.6245  0.6982  0.2315
11725SOL     OW38672   6.496   5.558   7.988 -0.0645 -0.2069  0.3443
11725SOL    HW138673   6.436   5.539   7.916 -2.2407  0.5448  1.8647
11725SOL    HW238674   6.481   5.488   8.051  0.7507 -0.0490  0.7263
11726SOL     OW38675   9.324   4.471   1.725 -0.2248  0.4107 -0.2045
11726SOL    HW138676   9.353   4.539   1.786  1.7879  0.9360 -1.6604
11726SOL    HW238677   9.296   4.399   1.781  2.9818  0.2588  1.4231
11727SOL     OW38678   0.132   6.070   9.698  0.2225  0.0181  0.5653
11727SOL    HW138679   0.127   6.016   9.619 -1.0599  0.3175  0.4155
11727SOL    HW238680   0.199   6.135   9.678  3.1818 -2.5096  1.4274
11728SOL     OW38681   4.163   0.727   5.587  0.2931 -0.1076  0.0218
11728SOL    HW138682   4.132   0.636   5.592  1.2223 -0.4378 -0.0039
11728SOL    HW238683   4.087   0.776   5.557 -0.7428 -0.5929  1.6709
11729SOL     OW38684   1.243   5.393  10.392  0.8797  0.5765 -0.2325
11729SOL    HW138685   1.209   5.475  10.428 -1.8101 -0.2735 -0.6431
11729SOL    HW238686   1.223   5.327  10.458 -0.1841 -0.2866 -1.3549
11730SOL     OW38687   6.185   0.034   1.772  0.3941 -0.6037 -0.4139
11730SOL    HW138688   6.214  -0.044   1.820  0.4769 -0.6509 -0.5386
11730SOL    HW238689   6.090   0.026   1.768  0.3581 -0.4330  0.0236
11731SOL     OW38690  10.306   6.515   1.262  0.0967  0.1458  0.4370
11731SOL    HW138691  10.400   6.528   1.246  0.0079 -0.7555 -1.0005
11731SOL    HW238692  10.271   6.487   1.178 -1.6355  1.2164  0.7424
11732SOL     OW38693   8.979   5.493   7.080 -0.4075  0.2197 -0.2170
11732SOL    HW138694   9.020   5.564   7.031  0.1132  0.5501  0.6712
11732SOL    HW238695   8.948   5.535   7.160 -1.5849 -0.2347 -0.4236
11733SOL     OW38696   4.349   8.279   9.060 -0.4834  0.0021 -0.1793
11733SOL    HW138697   4.380   8.350   9.116  0.0413 -0.3011 -0.0745
11733SOL    HW238698   4.354   8.313   8.971 -1.4828  0.5470 -0.0413
11734SOL     OW38699   2.822   2.665   6.439 -0.1331  0.2574  0.5072
11734SOL    HW138700   2.918   2.660   6.441 -0.1734 -0.6214  1.0284
11734SOL    HW238701   2.799   2.700   6.525 -0.3521 -1.6197  1.2582
11735SOL     OW38702   6.538   7.990   7.498 -0.3294  0.5133  0.4075
11735SOL    HW138703   6.587   7.909   7.484  0.2129  1.2410 -2.4259
11735SOL    HW238704   6.480   7.997   7.422 -0.4316  2.7109  0.6199
11736SOL     OW38705   3.311   5.511   0.405 -0.2189  0.3126 -0.3390
11736SOL    HW138706   3.325   5.417   0.419 -0.1188  0.4398  0.4646
11736SOL    HW238707   3.236   5.532   0.461 -1.8733  0.2262 -2.3936
11737SOL     OW38708   4.938   6.675  10.448 -0.0273 -0.4095 -0.2906
11737SOL    HW138709   5.023   6.650  10.411 -0.2758  0.2182 -1.3209
11737SOL    HW238710   4.886   6.703  10.373 -0.4399  1.2255  0.5488
11738SOL     OW38711   9.262   1.937   5.992  0.0503 -0.1648  0.3017
11738SOL    HW138712   9.237   1.864   6.049 -0.4484 -0.1169  0.1494
11738SOL    HW238713   9.220   2.014   6.032 -0.5518 -0.1772 -0.2857
11739SOL     OW38714   2.866   6.473   5.289 -0.3814 -0.3028 -0.3414
11739SOL    HW138715   2.939   6.423   5.325 -0.4320 -0.8237 -0.9654
11739SOL    HW238716   2.812   6.493   5.366 -1.0192 -2.2783 -0.2167
11740SOL     OW38717   3.862   6.861   3.365 -0.2990 -0.3401 -0.0546
11740SOL    HW138718   3.930   6.811   3.411  1.4497  0.8165 -1.2277
11740SOL    HW238719   3.781   6.841   3.412  0.8782 -1.6388  1.5434
11741SOL     OW38720   2.046   6.864   8.862 -0.3854 -0.0499  0.1649
11741SOL    HW138721   1.969   6.836   8.912 -0.1445  0.8671  1.0811
11741SOL    HW238722   2.077   6.942   8.907  0.9666 -0.2756 -0.3208
11742SOL     OW38723   5.745   8.719   3.832  0.3417  0.2220 -0.7589
11742SOL    HW138724   5.675   8.667   3.792  0.9825 -1.4756  0.2323
11742SOL    HW238725   5.823   8.698   3.781  1.3198 -2.4844  1.5540
11743SOL     OW38726   6.732   9.274   9.589  0.9500 -0.5681 -0.1559
11743SOL    HW138727   6.667   9.314   9.647 -1.1113 -4.0215  0.1967
11743SOL    HW238728   6.749   9.341   9.522 -1.3795  1.2398  0.9052
11744SOL     OW38729   3.175   3.309  10.779  0.2511 -0.0942  0.2850
11744SOL    HW138730   3.108   3.376  10.792 -0.0200 -0.0809 -1.0090
11744SOL    HW238731   3.251   3.341  10.826 -0.6658 -0.1649  1.8824
11745SOL     OW38732   7.156  10.119   5.276 -0.1134 -0.1548  0.8485
11745SOL    HW138733   7.146  10.205   5.317 -0.4102  0.6619 -0.8527
11745SOL    HW238734   7.071  10.078   5.286 -1.5441  1.6477 -2.2949
11746SOL     OW38735   6.569   9.872   8.643  0.5741  0.0886  0.5517
11746SOL    HW138736   6.517   9.883   8.563  1.2503  1.3574  0.2572
11746SOL    HW238737   6.526   9.929   8.707  2.3356  2.3040 -0.0942
11747SOL     OW38738   8.892   4.060   8.963 -0.3127 -0.1969 -0.1676
11747SOL    HW138739   8.813   4.053   9.017 -1.1983 -1.8939 -1.5550
11747SOL    HW238740   8.962   4.079   9.025 -1.6974  0.7208  1.1923
11748SOL     OW38741   7.896   3.150   6.385 -0.8587  0.8324 -0.4110
11748SOL    HW138742   7.961   3.219   6.399  0.8329  0.0999 -3.6628
11748SOL    HW238743   7.920   3.082   6.448 -0.3885  1.7706  0.4699
11749SOL     OW38744   0.473   8.335   8.625  0.7497 -0.0079 -0.7778
11749SOL    HW138745   0.394   8.366   8.670  0.2355 -0.0714 -1.6241
11749SOL    HW238746   0.468   8.240   8.632 -0.3252 -0.1248 -2.5753
11750SOL     OW38747   1.561   5.414   0.152 -0.4479  0.1823  0.2658
11750SOL    HW138748   1.525   5.486   0.101  0.1261 -1.6160 -2.9584
11750SOL    HW238749   1.656   5.422   0.142 -0.3890 -2.0888 -2.0094
11751SOL     OW38750   7.308   3.549   3.313  0.1689  0.0804 -0.3434
11751SOL    HW138751   7.288   3.633   3.353 -0.3519  0.2928 -1.0409
11751SOL    HW238752   7.223   3.516   3.283  0.4536 -0.4132 -0.6183
11752SOL     OW38753   0.978  10.461   5.580  0.1118 -0.6129  0.3426
11752SOL    HW138754   0.994  10.372   5.546  0.1748 -0.7315  0.6752
11752SOL    HW238755   0.988  10.518   5.504  1.0017 -0.7996  0.3055
11753SOL     OW38756   8.626   7.684   1.176 -0.7512 -0.0555  0.6317
11753SOL    HW138757   8.645   7.661   1.085  1.5117  1.7252  0.5552
11753SOL    HW238758   8.709   7.671   1.222 -1.3806  0.7732  2.0666
11754SOL     OW38759  10.898   9.085   4.669 -0.1438 -0.2816  0.4884
11754SOL    HW138760  10.816   9.107   4.712 -0.1461 -1.1565  0.9526
11754SOL    HW238761  10.884   8.997   4.634  0.9526 -0.9154  1.5473
11755SOL     OW38762   7.415   7.376   9.476 -0.2205  0.3060 -0.8655
11755SOL    HW138763   7.333   7.370   9.426 -0.6392  2.1606 -0.4875
11755SOL    HW238764   7.387   7.368   9.568 -0.1205  1.7802 -0.6870
11756SOL     OW38765   2.148   2.721   8.064  0.2843  0.4491 -0.2453
11756SOL    HW138766   2.095   2.641   8.073  0.5876  0.4086  1.6952
11756SOL    HW238767   2.126   2.755   7.978  1.1871 -2.4707 -1.7825
11757SOL     OW38768   5.851   9.873   9.075  0.5196  0.4505 -0.3609
11757SOL    HW138769   5.942   9.844   9.071  0.7329  1.0813 -0.1161
11757SOL    HW238770   5.836   9.892   9.168 -0.4573 -1.5111 -0.0490
11758SOL     OW38771   4.427   0.831   2.671 -0.7524 -0.2832 -0.3660
11758SOL    HW138772   4.521   0.846   2.682 -1.0213  0.8879  0.5821
11758SOL    HW238773   4.410   0.852   2.579 -0.1504 -0.1267 -0.4460
11759SOL     OW38774   7.722   0.693   4.334 -0.5819  0.4456 -0.5790
11759SOL    HW138775   7.722   0.748   4.413  0.3838  0.1562 -0.3528
11759SOL    HW238776   7.662   0.736   4.274  0.2843  1.8596 -0.4683
11760SOL     OW38777   7.938   6.348   6.190 -0.1273 -0.4160  0.3949
11760SOL    HW138778   8.019   6.398   6.197 -0.4948  0.5085 -1.4350
11760SOL    HW238779   7.883   6.381   6.261  0.9681 -0.8669  1.4870
11761SOL     OW38780   4.382   1.393   0.263 -0.4116  0.1002  0.2082
11761SOL    HW138781   4.364   1.369   0.353  1.0016  1.1925  0.8257
11761SOL    HW238782   4.446   1.464   0.269  0.3486 -0.3589 -1.6751
11762SOL     OW38783   8.730   0.331   1.193 -0.0747  0.4275  0.5805
11762SOL    HW138784   8.762   0.241   1.192  1.7789  0.9920 -2.1210
11762SOL    HW238785   8.690   0.341   1.279  0.7810 -2.5646  1.4609
11763SOL     OW38786   7.722   0.511   8.640 -0.4806 -0.1492  0.4468
11763SOL    HW138787   7.677   0.485   8.560  0.4220 -1.3574  0.2904
11763SOL    HW238788   7.777   0.435   8.661  0.0977  0.5739  1.6147
11764SOL     OW38789   3.187   2.693   8.162 -0.3989 -0.4110 -0.0561
11764SOL    HW138790   3.264   2.706   8.218 -0.9406 -0.3267  0.6917
11764SOL    HW238791   3.212   2.729   8.077  1.0558 -2.0281 -0.3788
11765SOL     OW38792  10.009  10.564   9.765 -0.1800 -0.2778 -0.5793
11765SOL    HW138793  10.047  10.651   9.777  1.2395 -0.8367 -0.8240
11765SOL    HW238794   9.964  10.546   9.848  1.7227 -0.3445  0.4813
11766SOL     OW38795   8.823   3.657   9.771  0.3243 -0.2839  0.3786
11766SOL    HW138796   8.749   3.705   9.734  0.3129 -1.0496 -0.6411
11766SOL    HW238797   8.795   3.634   9.860 -1.1776 -1.5912 -0.3852
11767SOL     OW38798   6.411   0.424   0.295  0.2955 -0.0747  0.1285
11767SOL    HW138799   6.366   0.502   0.262  2.5767  1.7369  1.0339
11767SOL    HW238800   6.349   0.385   0.357 -1.8201 -0.3944 -2.0171
11768SOL     OW38801   3.093   5.644   5.526 -0.5716 -0.1191 -0.0417
11768SOL    HW138802   3.083   5.729   5.570 -2.8097 -0.2928 -0.1210
11768SOL    HW238803   3.067   5.661   5.436  1.9466 -0.2618 -0.8907
11769SOL     OW38804   5.474   7.218  10.717  0.2443 -0.0621 -0.0508
11769SOL    HW138805   5.379   7.205  10.720  0.1273  0.0420 -1.9476
11769SOL    HW238806   5.510   7.138  10.756 -0.6215 -0.3456  0.1899
11770SOL     OW38807   7.588   7.333   7.330 -0.9707  0.5137 -0.3309
11770SOL    HW138808   7.565   7.267   7.264 -1.3631  1.0327 -0.7243
11770SOL    HW238809   7.507   7.345   7.380 -0.4002 -0.6134  0.9140
11771SOL     OW38810   4.122   2.307   1.878  0.2737  0.8263  0.3706
11771SOL    HW138811   4.153   2.384   1.927 -2.1265  1.9394  0.2633
11771SOL    HW238812   4.038   2.334   1.841  0.7145 -0.8997 -2.1544
11772SOL     OW38813   8.494   4.581   6.186  0.2462  0.4284  0.1701
11772SOL    HW138814   8.566   4.517   6.186 -0.2790 -0.1720 -0.1629
11772SOL    HW238815   8.501   4.624   6.271  2.3440  1.9390 -0.6712
11773SOL     OW38816   7.337   3.628   9.880 -0.1389 -0.6554  0.2350
11773SOL    HW138817   7.264   3.584   9.923  0.3872 -0.8617  0.9298
11773SOL    HW238818   7.349   3.710   9.928 -0.9044  0.1329 -0.8528
11774SOL     OW38819   9.494   8.214   8.958 -0.0129  0.2826  0.2808
11774SOL    HW138820   9.508   8.195   8.866  0.7757 -1.2647  0.6793
11774SOL    HW238821   9.409   8.174   8.979  1.2143 -2.2555  0.8921
11775SOL     OW38822   9.846   4.192   5.739 -0.3134  0.7196 -0.1930
11775SOL    HW138823   9.761   4.202   5.782 -1.1994  0.4113 -1.8027
11775SOL    HW238824   9.874   4.103   5.763 -1.1219  0.2949 -0.7579
11776SOL     OW38825   3.342   8.832   0.755 -0.0607 -0.4385 -0.0526
11776SOL    HW138826   3.352   8.737   0.747 -0.0578 -0.4870  0.4815
11776SOL    HW238827   3.291   8.844   0.835 -0.1885  0.0058 -0.1983
11777SOL     OW38828   3.532   5.329   3.738  0.0533 -0.0743 -0.1575
11777SOL    HW138829   3.547   5.251   3.793  0.8101  1.2282  1.5741
11777SOL    HW238830   3.597   5.392   3.769  0.6174  0.6981 -2.7049
11778SOL     OW38831   4.033   1.243   5.961 -0.0774  0.8086 -0.0498
11778SOL    HW138832   3.982   1.174   5.918 -0.2522  1.2563 -0.5725
11778SOL    HW238833   4.110   1.197   5.996 -0.3540  0.2939 -0.0966
11779SOL     OW38834  10.091   1.382   6.074 -0.2440 -0.4217 -0.2995
11779SOL    HW138835  10.129   1.440   6.140  0.7663 -0.0513 -1.1929
11779SOL    HW238836  10.164   1.355   6.019 -1.1278 -0.3753 -1.5469
11780SOL     OW38837   3.662   0.967   8.950 -0.3433  0.2103  0.9354
11780SOL    HW138838   3.723   1.038   8.968  0.5620 -0.4430  0.5228
11780SOL    HW238839   3.656   0.964   8.854 -0.1070 -0.4802  0.9371
11781SOL     OW38840   7.326  10.237   1.252  0.0845 -0.0828  0.2955
11781SOL    HW138841   7.284  10.305   1.306 -0.9689 -0.1337 -0.4269
11781SOL    HW238842   7.300  10.258   1.163 -0.8370 -1.8280  0.1094
11782SOL     OW38843  10.450   9.610   5.645  0.8286 -0.4478 -0.3071
11782SOL    HW138844  10.394   9.566   5.708  1.4158 -0.2088  0.3934
11782SOL    HW238845  10.514   9.657   5.698  1.1791 -0.0356 -1.0742
11783SOL     OW38846   3.872   9.940   6.977 -0.3031  0.0500 -0.0678
11783SOL    HW138847   3.831   9.883   6.912 -1.3565  1.1796 -0.4266
11783SOL    HW238848   3.931   9.996   6.926 -0.0209 -0.0552  0.1433
11784SOL     OW38849   2.821   5.073   5.183 -0.3279  0.8108 -0.0635
11784SOL    HW138850   2.816   5.157   5.229 -2.3995  0.9240 -0.4341
11784SOL    HW238851   2.774   5.087   5.101 -1.8329 -1.0415  0.4215
11785SOL     OW38852   4.641   9.460   9.176  0.1611 -0.0725  0.4173
11785SOL    HW138853   4.638   9.553   9.199 -2.0509  0.1623 -0.4976
11785SOL    HW238854   4.717   9.451   9.119  0.5887  1.0949  0.7693
11786SOL     OW38855   0.816   8.831   0.906  0.6581  0.3850 -0.1880
11786SOL    HW138856   0.740   8.862   0.955  1.8353  0.4327  1.6926
11786SOL    HW238857   0.780   8.770   0.842 -0.8002 -1.3037  2.0973
11787SOL     OW38858   6.830   1.710   2.402 -0.6075  0.1236  0.4885
11787SOL    HW138859   6.878   1.790   2.424 -0.4783  0.4475 -0.8635
11787SOL    HW238860   6.897   1.643   2.394 -0.7995 -0.3455  2.4716
11788SOL     OW38861   1.526   0.255   5.306  0.1532 -0.2741  0.0009
11788SOL    HW138862   1.466   0.183   5.326  1.0379 -1.4343 -1.3130
11788SOL    HW238863   1.611   0.225   5.338  0.1799  1.1701  1.4520
11789SOL     OW38864   0.912   0.358   1.366  0.6457  0.3221  0.1560
11789SOL    HW138865   0.878   0.441   1.332  0.5879  0.1524 -0.2106
11789SOL    HW238866   0.852   0.292   1.330  1.0732  0.0637 -0.0851
11790SOL     OW38867   6.655   7.678   9.195 -0.2568 -0.1625 -0.1113
11790SOL    HW138868   6.721   7.667   9.263 -0.6081  0.1296  0.2869
11790SOL    HW238869   6.664   7.601   9.139  0.3398 -0.1791  0.0030
11791SOL     OW38870   0.020   9.319   0.914 -0.4205 -0.1896  0.2756
11791SOL    HW138871  -0.020   9.278   0.991 -0.0030  1.6647  1.5525
11791SOL    HW238872   0.077   9.252   0.878 -3.3780 -2.4129 -0.6996
11792SOL     OW38873   5.644   2.177   5.763  1.1003 -0.5685 -0.2354
11792SOL    HW138874   5.677   2.252   5.813 -0.2356 -0.9798  1.3165
11792SOL    HW238875   5.657   2.202   5.671 -0.0160  1.9088  0.2050
11793SOL     OW38876   1.149   6.021  10.573  0.4131 -0.0136  0.0187
11793SOL    HW138877   1.189   6.080  10.509 -1.3355 -0.3687 -1.4919
11793SOL    HW238878   1.222   5.994  10.630  1.9823  0.5970 -1.5981
11794SOL     OW38879   5.672   0.431   7.980  0.3649 -0.6114 -0.0482
11794SOL    HW138880   5.726   0.372   8.032  0.2597 -0.1421  0.6034
11794SOL    HW238881   5.626   0.373   7.918  0.8549 -1.1174  0.0471
11795SOL     OW38882   0.250   8.505   8.706  0.2694 -0.4546  0.3288
11795SOL    HW138883   0.156   8.516   8.700  0.2599  0.5676  1.7652
11795SOL    HW238884   0.286   8.565   8.640 -0.0861 -1.7995 -1.1259
11796SOL     OW38885   8.455   3.679   3.445 -0.2760  0.0777  0.0522
11796SOL    HW138886   8.461   3.701   3.352  0.0867  1.4002  0.3659
11796SOL    HW238887   8.402   3.749   3.482 -1.0143 -0.8213  0.7377
11797SOL     OW38888  10.821   4.724   9.851 -0.4680  0.3080  0.2803
11797SOL    HW138889  10.730   4.748   9.833 -0.6209 -0.1790  0.3919
11797SOL    HW238890  10.830   4.736   9.946 -0.2926  0.7657  0.2068
11798SOL     OW38891   9.098   2.166   2.845  0.2707 -0.5622  0.0235
11798SOL    HW138892   9.118   2.075   2.825 -0.4636 -0.5803 -0.6508
11798SOL    HW238893   9.026   2.161   2.908  0.5354 -0.4459  0.3422
11799SOL     OW38894  10.285   2.433   0.406  0.4949  0.3020  0.2020
11799SOL    HW138895  10.220   2.467   0.467  1.9831 -0.0545  2.0896
11799SOL    HW238896  10.369   2.461   0.442  1.4372  1.2332 -2.4541
11800SOL     OW38897  10.700   7.223   1.982 -0.9699 -0.1590  0.3340
11800SOL    HW138898  10.687   7.138   2.025 -1.7335  0.0113  0.4641
11800SOL    HW238899  10.785   7.215   1.939 -0.3504 -0.4725  1.5480
11801SOL     OW38900  10.358   3.018   4.466 -0.9572 -0.2004 -0.2730
11801SOL    HW138901  10.307   3.085   4.513  0.5934  0.8421  0.0073
11801SOL    HW238902  10.377   2.952   4.533 -0.9345 -0.0027 -0.0818
11802SOL     OW38903   3.162   1.143   6.883  0.0830  0.0884 -0.6092
11802SOL    HW138904   3.191   1.081   6.816  0.3023  0.6038 -0.9915
11802SOL    HW238905   3.221   1.128   6.957 -0.1381 -0.4542 -0.5351
11803SOL     OW38906   3.571  10.017   2.555 -0.4195  0.2201 -0.2852
11803SOL    HW138907   3.512  10.022   2.480 -0.0691  2.7882 -0.4909
11803SOL    HW238908   3.626  10.096   2.547  1.3722 -0.7962  1.2488
11804SOL     OW38909   7.151   8.580  10.771  0.4992 -0.5960  0.3653
11804SOL    HW138910   7.057   8.566  10.783  0.4915 -1.0061 -0.1164
11804SOL    HW238911   7.158   8.628  10.689  0.7849 -2.1618 -0.5781
11805SOL     OW38912   5.500   6.128   2.093  0.1709  0.1369 -0.3384
11805SOL    HW138913   5.478   6.069   2.021  1.1989  0.0339 -0.5785
11805SOL    HW238914   5.595   6.140   2.087  0.1654  0.7383  0.5324
11806SOL     OW38915   7.524   3.059   8.305  0.0250  0.5017 -0.1739
11806SOL    HW138916   7.434   3.076   8.276  0.4155  0.8803 -1.2331
11806SOL    HW238917   7.525   2.967   8.330 -1.4015  1.1708  2.8131
11807SOL     OW38918   3.824   4.951   6.347 -0.0691 -0.2343 -0.0955
11807SOL    HW138919   3.791   4.949   6.436  2.3722  0.8209  0.9062
11807SOL    HW238920   3.817   5.042   6.320 -1.3341 -0.6432 -1.2372
11808SOL     OW38921   2.161   5.809   8.007 -0.2103  0.1669 -0.0320
11808SOL    HW138922   2.216   5.733   8.027  2.8014  2.5630  1.6038
11808SOL    HW238923   2.144   5.850   8.091  0.0883  2.4557 -1.0118
11809SOL     OW38924   6.081   8.850   3.916 -0.9889 -0.1638  0.3059
11809SOL    HW138925   6.130   8.797   3.978 -2.0263 -0.4030  0.9462
11809SOL    HW238926   6.030   8.787   3.865 -0.2815  0.0430 -0.6900
11810SOL     OW38927   0.995   0.181   9.730  0.4126  0.0283  0.3370
11810SOL    HW138928   1.082   0.146   9.709 -0.4742 -1.3174 -1.4714
11810SOL    HW238929   0.954   0.113   9.783  0.2256  0.3428  0.5974
11811SOL     OW38930   6.386   3.704   1.865 -0.4130  0.3719 -0.1751
11811SOL    HW138931   6.387   3.619   1.908 -1.0984  1.0816  1.3412
11811SOL    HW238932   6.336   3.690   1.785  3.6622 -1.7722 -2.6811
11812SOL     OW38933   6.503   1.118   2.019 -0.7426 -0.1717 -0.5101
11812SOL    HW138934   6.499   1.073   1.935 -1.4764 -0.5486 -0.2823
11812SOL    HW238935   6.566   1.067   2.071  0.3144  0.5214 -1.0864
11813SOL     OW38936   1.136   9.165   8.871  0.1336  0.0473  0.1441
11813SOL    HW138937   1.205   9.098   8.871 -0.2560 -0.4510  2.6909
11813SOL    HW238938   1.106   9.169   8.962 -1.4339  2.1008 -0.3842
11814SOL     OW38939   3.786   5.272   1.682  0.1666  0.3782 -1.0125
11814SOL    HW138940   3.732   5.302   1.755  0.8854 -2.5180  0.8739
11814SOL    HW238941   3.725   5.227   1.624  0.1481 -0.7199 -0.1616
11815SOL     OW38942   0.488   6.239   9.641 -0.0854  0.3994 -0.5668
11815SOL    HW138943   0.487   6.207   9.551 -2.7767  0.4631 -0.6416
11815SOL    HW238944   0.546   6.315   9.640  1.1387 -0.5098 -1.8704
11816SOL     OW38945   8.216   9.025   7.863  0.3915  0.0914 -0.1991
11816SOL    HW138946   8.215   9.014   7.958 -0.3477  0.8636 -0.1066
11816SOL    HW238947   8.270   9.103   7.849 -0.0227  0.3534 -0.3580
11817SOL     OW38948   7.585   0.030   5.825 -0.4167  0.8291  0.1006
11817SOL    HW138949   7.499   0.069   5.805  0.3708  1.8170 -1.5905
11817SOL    HW238950   7.641   0.057   5.752  0.3726 -3.0743 -0.9410
11818SOL     OW38951   7.470   1.623   7.261 -0.0856  0.2821 -0.5083
11818SOL    HW138952   7.429   1.670   7.333 -0.7375  0.4464 -0.9793
11818SOL    HW238953   7.474   1.688   7.190 -0.0401 -0.0733 -0.8303
11819SOL     OW38954   2.493   1.946   5.462 -0.3065  0.2566 -0.3264
11819SOL    HW138955   2.569   1.889   5.468 -0.3559  0.3218  1.5500
11819SOL    HW238956   2.528   2.034   5.474 -0.2159  0.7312 -3.3079
11820SOL     OW38957   2.391   1.321  11.007 -0.0687  0.2272  0.2987
11820SOL    HW138958   2.433   1.249  11.054 -1.0157 -0.0772  0.7051
11820SOL    HW238959   2.446   1.397  11.025 -0.2387  0.0525  1.6554
11821SOL     OW38960   5.977   7.308  10.194 -0.1211  0.1770  0.1863
11821SOL    HW138961   6.043   7.328  10.261 -0.5832 -0.5374  0.8762
11821SOL    HW238962   5.894   7.322  10.239 -0.4431 -0.9827 -0.0263
11822SOL     OW38963   9.548   9.215   2.134  0.7710  0.2554  0.0104
11822SOL    HW138964   9.452   9.217   2.137  0.6833 -1.4536 -0.3866
11822SOL    HW238965   9.571   9.287   2.075 -0.3465 -0.0169 -0.7986
11823SOL     OW38966   9.521   8.061   6.963  0.2386  0.3505  0.1637
11823SOL    HW138967   9.500   8.049   6.871  0.9310 -0.0417  0.0535
11823SOL    HW238968   9.455   8.009   7.010  1.1691 -1.2086 -0.1910
11824SOL     OW38969   0.054   2.023   4.810 -0.7319  0.0025  0.3654
11824SOL    HW138970  -0.034   1.990   4.791 -0.6780  0.3134 -0.4884
11824SOL    HW238971   0.075   1.988   4.896 -1.4643 -0.5499  0.3294
11825SOL     OW38972   7.304   0.337  10.502 -0.1161  0.3101  0.0398
11825SOL    HW138973   7.393   0.301  10.508 -0.2510 -0.5000 -1.8112
11825SOL    HW238974   7.292   0.355  10.408 -2.4760 -1.2155 -0.0429
11826SOL     OW38975   0.878   5.839   3.085 -0.4371  0.4831 -0.1019
11826SOL    HW138976   0.852   5.870   2.999  0.0034 -0.0539 -0.4316
11826SOL    HW238977   0.801   5.856   3.141 -1.8302 -1.7618 -1.2130
11827SOL     OW38978   8.284   9.047   2.989 -0.0461  0.0318  0.1344
11827SOL    HW138979   8.212   9.041   2.926 -0.5272 -1.9735  0.7900
11827SOL    HW238980   8.242   9.047   3.075  0.6746 -1.6711  0.5440
11828SOL     OW38981   7.563   8.980   4.668  0.0191  0.3706 -0.6646
11828SOL    HW138982   7.570   9.010   4.758 -0.5185 -1.2276 -0.0512
11828SOL    HW238983   7.475   8.942   4.662  1.1198 -2.4005 -0.8943
11829SOL     OW38984   8.737   0.348   7.639 -0.0131  0.2998 -0.2592
11829SOL    HW138985   8.660   0.293   7.658  0.3943  0.2761  1.5069
11829SOL    HW238986   8.807   0.310   7.692  0.8669  1.1826 -0.7586
11830SOL     OW38987   4.621   7.248   5.142  0.0133 -0.5507  0.3750
11830SOL    HW138988   4.658   7.335   5.127 -0.3518 -0.3133  0.8348
11830SOL    HW238989   4.688   7.202   5.192  0.0109 -0.3832  0.5296
11831SOL     OW38990   0.345   4.692   9.775  0.4562  0.3363  0.1900
11831SOL    HW138991   0.250   4.704   9.772  0.3411 -0.4103  0.5623
11831SOL    HW238992   0.357   4.600   9.799  1.2561  1.0775  3.0969
11832SOL     OW38993  10.207   8.960   9.219  0.4182 -0.2680 -0.1272
11832SOL    HW138994  10.124   8.998   9.245  0.0344 -0.1850 -1.3909
11832SOL    HW238995  10.186   8.907   9.142  1.4550 -0.5846 -0.2061
11833SOL     OW38996   6.522  10.663   5.736 -0.1811  0.9586 -0.3959
11833SOL    HW138997   6.464  10.664   5.660  0.5097 -1.1148 -0.9958
11833SOL    HW238998   6.548  10.572   5.746  1.0527  1.4470  1.3433
11834SOL     OW38999   5.077   7.302   5.352 -0.1928  0.1308 -0.3092
11834SOL    HW139000   5.135   7.375   5.369  0.9408 -1.2951  2.7551
11834SOL    HW239001   5.136   7.227   5.341 -1.2776 -1.2083  2.0897
11835SOL     OW39002   6.819   0.628   9.543 -0.1731 -0.4127 -0.1112
11835SOL    HW139003   6.809   0.563   9.473  0.9961  0.9344 -1.6136
11835SOL    HW239004   6.731   0.640   9.578 -0.6294 -1.8166 -0.7006
11836SOL     OW39005   7.781   9.171  10.042  0.2938  0.0719 -0.0770
11836SOL    HW139006   7.688   9.162  10.021 -0.1694  0.1083  1.7374
11836SOL    HW239007   7.796   9.266  10.043  0.4766  0.0528 -0.8489
11837SOL     OW39008   5.731   2.909   3.414  0.0276 -0.0372 -0.3151
11837SOL    HW139009   5.753   2.948   3.329 -0.4379  0.2053 -0.3270
11837SOL    HW239010   5.734   2.983   3.475 -1.1153  0.0730 -0.3802
11838SOL     OW39011   8.544   8.266   3.498  0.1520  0.4224  0.0565
11838SOL    HW139012   8.559   8.178   3.533  0.8930  1.0978  1.5199
11838SOL    HW239013   8.473   8.301   3.551 -0.5160  0.5478 -0.8811
11839SOL     OW39014   1.568   7.674   3.403 -0.5342  0.0961  0.3444
11839SOL    HW139015   1.560   7.591   3.450  0.3101 -1.3195 -1.8654
11839SOL    HW239016   1.529   7.657   3.318  1.6223  1.2231 -0.9715
11840SOL     OW39017  10.482   6.972   5.023  0.1927  0.6434 -0.4771
11840SOL    HW139018  10.398   6.948   4.985 -0.2873 -0.2536  1.0638
11840SOL    HW239019  10.537   6.895   5.009  0.0993  0.4209  0.3737
11841SOL     OW39020   5.774   9.586   1.089  0.5085 -0.0009  0.7119
11841SOL    HW139021   5.826   9.667   1.088  0.7737 -0.1052 -2.1573
11841SOL    HW239022   5.684   9.616   1.074  0.4537 -0.1445  0.7592
11842SOL     OW39023   6.073   0.144   7.616  0.0264  0.1708  0.1262
11842SOL    HW139024   6.111   0.073   7.669 -0.1841  0.5312  0.7721
11842SOL    HW239025   5.986   0.157   7.653  0.4473  1.4755  0.7086
11843SOL     OW39026   0.766   9.619   1.037 -0.0326 -0.1718 -0.3102
11843SOL    HW139027   0.780   9.708   1.005 -1.2845 -0.9568 -3.4123
11843SOL    HW239028   0.759   9.629   1.132  3.2892  2.4846 -0.1676
11844SOL     OW39029   2.256   8.825  10.124  0.3268 -0.2272  0.0196
11844SOL    HW139030   2.200   8.896  10.157  1.5452 -0.2575  2.3891
11844SOL    HW239031   2.342   8.866  10.114  0.6989 -1.0131 -0.0653
11845SOL     OW39032   9.609   6.822   1.525 -0.0997 -0.0943  0.1012
11845SOL    HW139033   9.668   6.863   1.461  1.1347  0.6921  1.6597
11845SOL    HW239034   9.667   6.794   1.596 -1.2929 -1.9200  0.4111
11846SOL     OW39035   4.736  10.523   3.476 -0.2849  0.4083 -0.5908
11846SOL    HW139036   4.788  10.449   3.507 -0.5156  0.9394  1.2301
11846SOL    HW239037   4.795  10.598   3.482 -0.3225  0.5169 -1.5472
11847SOL     OW39038  10.828   1.665   1.139 -0.3716  0.9253  0.3214
11847SOL    HW139039  10.829   1.621   1.224 -0.2050 -2.9191 -1.4362
11847SOL    HW239040  10.920   1.684   1.121 -0.1514 -0.2557  0.1267
11848SOL     OW39041   5.267   9.471  10.306 -0.1949 -0.0869  0.1575
11848SOL    HW139042   5.224   9.549  10.272 -1.6416 -1.2632 -0.8418
11848SOL    HW239043   5.229   9.458  10.393  0.8432  0.8914  0.7815
11849SOL     OW39044   5.480   1.368   4.248  0.5158 -0.3964  0.0158
11849SOL    HW139045   5.457   1.446   4.300 -1.0353  1.0165 -2.6073
11849SOL    HW239046   5.573   1.356   4.265  1.3847  3.4191 -1.0802
11850SOL     OW39047   1.454  10.195   3.704  0.2937 -0.1809  0.0333
11850SOL    HW139048   1.537  10.152   3.726  0.3804 -0.4073 -0.6846
11850SOL    HW239049   1.469  10.288   3.719  0.8158 -0.1784 -0.4755
11851SOL     OW39050   2.695   1.252   1.261 -0.2290  0.0326  0.1279
11851SOL    HW139051   2.697   1.195   1.338  2.1437  0.3788  0.3962
11851SOL    HW239052   2.628   1.317   1.282 -0.1995 -0.3622  1.5509
11852SOL     OW39053   1.622   8.854   5.627 -0.1764  0.0662 -0.2628
11852SOL    HW139054   1.598   8.764   5.606 -0.1287  0.0443 -0.2231
11852SOL    HW239055   1.695   8.874   5.568  2.1615 -1.0852  2.0727
11853SOL     OW39056   7.776   3.404   6.082  0.5927 -0.2746  0.2832
11853SOL    HW139057   7.697   3.429   6.131 -0.1441 -1.6134 -0.1718
11853SOL    HW239058   7.820   3.488   6.065 -0.0667  0.3892  1.6213
11854SOL     OW39059   2.941   9.683   2.249 -0.0952  0.3127 -0.1667
11854SOL    HW139060   2.969   9.774   2.241  2.3751 -0.2912  0.5420
11854SOL    HW239061   2.909   9.675   2.339  2.7994 -0.1484  0.9507
11855SOL     OW39062   0.400   6.404   1.277 -0.2756  0.6749  0.0393
11855SOL    HW139063   0.355   6.424   1.359 -1.9136 -2.1867 -0.0191
11855SOL    HW239064   0.352   6.330   1.241  1.9128  0.2493 -2.2970
11856SOL     OW39065   1.271   5.233   5.356 -0.3252  0.3077 -0.1948
11856SOL    HW139066   1.175   5.232   5.349 -0.3341 -0.3738 -0.0080
11856SOL    HW239067   1.294   5.325   5.344 -1.0175  0.5086 -0.0517
11857SOL     OW39068   5.904   7.448   4.937 -0.5102  0.5154 -0.3524
11857SOL    HW139069   5.858   7.487   5.012  1.4455  1.4188  0.4346
11857SOL    HW239070   5.957   7.378   4.976  0.0600  0.5967 -0.9808
11858SOL     OW39071   2.596   2.744   2.361  0.3229  0.0617  0.0065
11858SOL    HW139072   2.594   2.655   2.397 -0.9367  0.1083  0.0957
11858SOL    HW239073   2.656   2.738   2.287  1.1140 -0.5949  0.6898
11859SOL     OW39074   8.748   9.245   7.213  0.2359  0.2783  0.5616
11859SOL    HW139075   8.779   9.277   7.128  1.4621 -0.6975  0.6217
11859SOL    HW239076   8.711   9.159   7.193 -0.1816  0.3709  0.9155
11860SOL     OW39077   4.035   4.860   1.871 -0.2793  0.9174 -0.1190
11860SOL    HW139078   3.951   4.884   1.910 -0.7151 -0.2190 -0.3116
11860SOL    HW239079   4.090   4.833   1.945 -0.6645  0.0297 -0.1459
11861SOL     OW39080  10.724   3.728   0.768  0.3730  0.7287 -0.1965
11861SOL    HW139081  10.690   3.763   0.851 -0.3752 -0.0328 -0.1671
11861SOL    HW239082  10.669   3.652   0.750  0.3675  1.0244 -1.5300
11862SOL     OW39083   6.794   1.417   3.529 -0.5125 -0.6243 -0.3535
11862SOL    HW139084   6.768   1.367   3.451 -1.9304 -2.2064  1.0524
11862SOL    HW239085   6.859   1.362   3.573  0.5574  0.4298 -0.5684
11863SOL     OW39086   5.579   8.984   9.462  0.3550 -0.5288 -0.2158
11863SOL    HW139087   5.633   9.023   9.530 -0.1790  0.2174 -0.2054
11863SOL    HW239088   5.490   8.985   9.497  0.4091 -2.5632  0.1350
11864SOL     OW39089  10.886   7.043   8.103  0.5729  0.1290 -0.7318
11864SOL    HW139090  10.907   7.046   8.010  0.6038 -0.0607 -0.7323
11864SOL    HW239091  10.798   7.005   8.106  0.6651 -0.0842 -0.6724
11865SOL     OW39092   6.828   9.846   1.234 -0.8936  0.0765 -0.0687
11865SOL    HW139093   6.742   9.881   1.258 -0.5088  1.4872 -0.6377
11865SOL    HW239094   6.811   9.755   1.209 -2.0957  0.1188  0.5506
11866SOL     OW39095   4.398   5.619   8.001 -0.1653  0.4584  0.1837
11866SOL    HW139096   4.352   5.562   8.063 -1.6574  1.3697 -0.0152
11866SOL    HW239097   4.374   5.585   7.915  0.5235  0.2172  0.0856
11867SOL     OW39098   9.425   3.268   7.611  0.6899 -0.0060  0.3220
11867SOL    HW139099   9.343   3.312   7.633  0.6540  0.4746 -0.7251
11867SOL    HW239100   9.440   3.289   7.519  0.2238 -2.9492 -0.4962
11868SOL     OW39101   8.898   3.116   2.584  0.3800  0.5815 -0.2874
11868SOL    HW139102   8.929   3.186   2.642  0.4348  0.7322 -0.4986
11868SOL    HW239103   8.806   3.137   2.568  0.8489  1.6679 -1.8651
11869SOL     OW39104   6.964   5.968   1.428  0.4008  0.2067  0.4760
11869SOL    HW139105   6.989   5.884   1.467 -1.3308 -0.3783  0.4102
11869SOL    HW239106   6.965   5.951   1.333 -1.4742 -0.2742  0.4874
11870SOL     OW39107   7.910   9.335   7.323  0.1677 -0.3100  0.5391
11870SOL    HW139108   7.930   9.262   7.382  2.1600 -2.0493 -2.0952
11870SOL    HW239109   7.844   9.301   7.264 -0.8486  0.9860  0.8627
11871SOL     OW39110   5.342   1.911   9.112 -0.8785  0.0717 -0.0006
11871SOL    HW139111   5.315   1.820   9.107  0.3003 -0.4002  1.4716
11871SOL    HW239112   5.260   1.960   9.121 -1.5401 -0.7819 -1.1713
11872SOL     OW39113   3.102   3.598   5.395 -0.0116  0.2871 -0.2932
11872SOL    HW139114   3.060   3.668   5.345 -0.2121 -0.9590 -1.9479
11872SOL    HW239115   3.070   3.517   5.354 -0.6643 -0.8438  2.2579
11873SOL     OW39116   0.182   2.819  10.450 -0.4434  1.2693  0.1027
11873SOL    HW139117   0.233   2.876  10.507  0.9668  0.6974 -0.5348
11873SOL    HW239118   0.230   2.819  10.367  0.7820 -2.2979  0.6093
11874SOL     OW39119   3.746   4.009   9.166 -0.1373 -0.3792  0.1342
11874SOL    HW139120   3.658   4.049   9.167  0.7627  1.7792  2.0095
11874SOL    HW239121   3.786   4.042   9.086 -0.1020  1.0110  0.6863
11875SOL     OW39122   6.056   5.787   2.697 -0.1148 -0.3831 -0.6864
11875SOL    HW139123   6.097   5.701   2.705  3.4114  1.1198 -0.7729
11875SOL    HW239124   6.062   5.808   2.603 -0.2829  0.2232 -0.5664
11876SOL     OW39125  10.019   5.014   0.299  0.2292 -0.3491 -0.8298
11876SOL    HW139126  10.043   5.107   0.290 -1.2232  0.2058  0.5311
11876SOL    HW239127  10.082   4.979   0.362 -0.9617  0.5087  0.9271
11877SOL     OW39128   8.190  10.548   9.255  0.2497  0.1303  0.3809
11877SOL    HW139129   8.275  10.531   9.297  1.3545  0.2655 -1.6504
11877SOL    HW239130   8.164  10.464   9.218 -0.5180  0.0952  0.9835
11878SOL     OW39131   1.365   4.085   8.754 -0.2062 -0.0635 -0.5250
11878SOL    HW139132   1.327   4.098   8.840 -0.9829  1.6628 -1.0742
11878SOL    HW239133   1.356   4.170   8.711  0.0782 -0.8957 -2.3328
11879SOL     OW39134   0.719   6.474   9.427  0.0795  0.0808 -0.0808
11879SOL    HW139135   0.764   6.426   9.358 -2.5837 -0.9381 -1.2140
11879SOL    HW239136   0.708   6.563   9.393 -1.0577 -0.3705 -0.9425
11880SOL     OW39137   1.013   9.660   0.258  0.1561 -0.6717  0.0922
11880SOL    HW139138   1.007   9.755   0.269  0.4401 -0.5746 -0.6056
11880SOL    HW239139   1.098   9.645   0.218 -0.9899 -0.9738 -2.4239
11881SOL     OW39140   2.928  10.570   6.367  0.4842  0.2669  0.0097
11881SOL    HW139141   2.993  10.506   6.396  0.8012 -0.7530 -2.6436
11881SOL    HW239142   2.962  10.654   6.399  1.5654 -0.5519  1.1339
11882SOL     OW39143   2.780   9.032   3.329  0.0537 -0.0651  0.2166
11882SOL    HW139144   2.864   8.986   3.324  0.6930  1.0804 -0.0170
11882SOL    HW239145   2.714   8.963   3.319  0.9618 -0.9923  0.4509
11883SOL     OW39146   1.564   2.399  10.115 -0.1049  0.5634 -0.4823
11883SOL    HW139147   1.533   2.327  10.169 -2.2665  1.4028 -0.5107
11883SOL    HW239148   1.587   2.359  10.031  0.2304 -0.2914  0.0104
11884SOL     OW39149   5.641   0.843   3.941 -0.0028 -0.0434  0.0072
11884SOL    HW139150   5.634   0.937   3.957 -0.8248  0.0143 -0.6354
11884SOL    HW239151   5.683   0.809   4.020  0.6320  0.9059  0.0993
11885SOL     OW39152   2.124   4.610   7.494  0.4918  0.0276  0.0494
11885SOL    HW139153   2.203   4.653   7.461  0.7289 -0.3611  0.1095
11885SOL    HW239154   2.126   4.523   7.455 -0.6887  0.5007 -1.1805
11886SOL     OW39155   9.197   1.723  10.580  0.1987  0.3902 -0.0534
11886SOL    HW139156   9.137   1.767  10.641 -0.4259 -3.0025  2.0221
11886SOL    HW239157   9.140   1.675  10.520  0.8509 -0.0349 -0.3458
11887SOL     OW39158   7.172   5.852   1.697  1.0070  0.1207  1.1747
11887SOL    HW139159   7.138   5.941   1.694 -1.2969 -0.6505 -2.9786
11887SOL    HW239160   7.141   5.818   1.781 -0.0337  2.5187  1.8448
11888SOL     OW39161   7.203   2.910  10.262  0.1419 -0.1542 -0.0900
11888SOL    HW139162   7.179   2.856  10.187  0.4923  2.2527 -2.0526
11888SOL    HW239163   7.294   2.884  10.281  0.3759 -0.1315 -1.1266
11889SOL     OW39164   7.171   8.128   3.212  0.8058 -0.1305 -0.3924
11889SOL    HW139165   7.162   8.196   3.145  1.2326  0.6483  0.3296
11889SOL    HW239166   7.212   8.172   3.286 -0.0291 -0.8771  0.5451
11890SOL     OW39167   4.450  10.133   4.807 -0.0912 -0.2943  0.3121
11890SOL    HW139168   4.436  10.215   4.853 -2.0261 -0.0035 -0.6705
11890SOL    HW239169   4.362  10.105   4.781  0.6310 -2.0791 -0.3838
11891SOL     OW39170   9.641   8.713  10.977  0.1827 -0.3137 -0.1469
11891SOL    HW139171   9.597   8.718  10.892 -1.1988 -1.4548  0.4449
11891SOL    HW239172   9.569   8.710  11.041  1.1336 -1.4659  0.9268
11892SOL     OW39173   9.388   8.691   2.516 -0.0685  0.0472  0.4299
11892SOL    HW139174   9.301   8.728   2.500 -0.0121  0.4086  0.9507
11892SOL    HW239175   9.388   8.608   2.468 -0.7819 -0.0670  0.6200
11893SOL     OW39176   1.460   4.311   7.622 -0.5528 -0.1000  0.5261
11893SOL    HW139177   1.456   4.362   7.541 -1.0088 -2.2173 -0.8660
11893SOL    HW239178   1.388   4.345   7.676  0.0690  1.6748  0.2964
11894SOL     OW39179  10.619   0.622   0.469  0.3914  0.0603  0.0181
11894SOL    HW139180  10.627   0.675   0.390 -0.5849  0.2575  0.0376
11894SOL    HW239181  10.553   0.668   0.522  0.0452 -0.7896  0.3464
11895SOL     OW39182   2.750   1.614   0.773  0.0731 -0.8296  0.4075
11895SOL    HW139183   2.710   1.653   0.851 -2.0459  0.3017 -1.1411
11895SOL    HW239184   2.818   1.677   0.747  1.3409 -1.5975  1.7199
11896SOL     OW39185   1.313  10.432  10.524  0.2673 -0.1128  0.1715
11896SOL    HW139186   1.325  10.346  10.483  1.3573 -0.3143  0.8644
11896SOL    HW239187   1.231  10.424  10.573 -0.3115 -0.3220 -0.7987
11897SOL     OW39188   8.005   3.923   3.719  0.3684 -0.0919 -0.0364
11897SOL    HW139189   7.937   3.920   3.652 -0.1351  1.3028  0.3703
11897SOL    HW239190   8.081   3.960   3.674  0.4304 -0.3822 -0.1655
11898SOL     OW39191   9.626   8.514   8.304  0.1483  0.0506 -0.6499
11898SOL    HW139192   9.702   8.543   8.253  1.2355 -1.8255 -0.2093
11898SOL    HW239193   9.655   8.520   8.395 -0.6922  0.4873 -0.4025
11899SOL     OW39194   7.683   2.015   9.840  0.0315 -0.5988  0.2016
11899SOL    HW139195   7.724   1.961   9.906  1.4521 -1.2986 -1.1931
11899SOL    HW239196   7.742   2.089   9.829 -1.4760  0.8898  1.4926
11900SOL     OW39197   4.462   4.174   0.581 -0.4870  0.6053 -0.1768
11900SOL    HW139198   4.476   4.242   0.515  3.2682 -0.5100 -0.7880
11900SOL    HW239199   4.506   4.206   0.659  0.8981 -0.8103 -0.3213
11901SOL     OW39200   8.021   5.380   6.486  0.0321  0.1725  0.3765
11901SOL    HW139201   8.033   5.405   6.577  1.2544  1.8364 -0.1659
11901SOL    HW239202   8.073   5.300   6.475 -0.3146 -0.1668  1.1790
11902SOL     OW39203   9.583   4.900   6.091  0.3693 -0.0627  0.6393
11902SOL    HW139204   9.675   4.876   6.079  0.8832  1.0955  1.9524
11902SOL    HW239205   9.535   4.842   6.032  2.1557  1.4322 -2.5530
11903SOL     OW39206   6.858   1.937   2.563 -0.0501  0.3518 -0.2045
11903SOL    HW139207   6.938   1.923   2.615  0.6886 -0.0055 -1.4029
11903SOL    HW239208   6.808   2.001   2.614  0.7943  0.2624  0.7829
11904SOL     OW39209   2.422   5.372   7.973  0.8882 -0.0049  0.3147
11904SOL    HW139210   2.389   5.460   7.989 -0.5543 -0.4172 -0.2049
11904SOL    HW239211   2.431   5.334   8.060 -1.4471 -0.3343  0.4795
11905SOL     OW39212   5.609   2.402   3.814 -0.2166 -0.2606  0.0192
11905SOL    HW139213   5.686   2.419   3.760 -0.2429  0.3044  0.1513
11905SOL    HW239214   5.575   2.318   3.782 -0.0988 -0.0461 -0.6786
11906SOL     OW39215  10.883   2.335   9.846 -0.3866 -0.4143  0.1520
11906SOL    HW139216  10.953   2.399   9.840  0.9203 -1.5974  1.7693
11906SOL    HW239217  10.876   2.299   9.758  1.5694 -0.7742  0.0999
11907SOL     OW39218   9.994   0.309   6.488  0.2285  0.4746  0.4358
11907SOL    HW139219   9.924   0.372   6.505 -1.6486 -1.1923 -0.6668
11907SOL    HW239220   9.968   0.230   6.536  0.4719 -0.6978 -1.2573
11908SOL     OW39221   5.851   0.304   8.429  0.3083  0.6344  0.3530
11908SOL    HW139222   5.929   0.358   8.416  1.5983 -1.2875 -0.3585
11908SOL    HW239223   5.793   0.358   8.483  1.3904  2.7991 -0.5212
11909SOL     OW39224   8.724   5.624   1.249 -0.1899  0.0206 -0.1642
11909SOL    HW139225   8.792   5.581   1.197  1.4923  1.0673  1.0524
11909SOL    HW239226   8.677   5.678   1.186 -0.3423 -1.2042 -1.1485
11910SOL     OW39227   5.381   1.215   8.239 -0.0162 -0.1431 -0.0386
11910SOL    HW139228   5.429   1.289   8.201 -2.6991  1.9503  0.3191
11910SOL    HW239229   5.364   1.242   8.329 -1.0293 -1.2302  0.1145
11911SOL     OW39230   6.564   6.195   8.980  0.2806  0.4250 -0.1989
11911SOL    HW139231   6.625   6.256   8.939  1.6393 -0.9451 -0.3217
11911SOL    HW239232   6.489   6.249   9.006  0.3110  1.7285 -2.5077
11912SOL     OW39233  10.518   7.715   6.849  0.5716 -0.1770  0.5540
11912SOL    HW139234  10.521   7.755   6.937 -0.4755  0.3970  0.3485
11912SOL    HW239235  10.589   7.651   6.849 -0.2340 -1.1458  2.2960
11913SOL     OW39236   5.325   3.099   9.444  0.6509 -0.1031 -0.2612
11913SOL    HW139237   5.345   3.020   9.495  3.4768  1.3857  1.2301
11913SOL    HW239238   5.330   3.070   9.353 -0.3486 -2.0086  0.2374
11914SOL     OW39239   4.379   0.658   8.479  0.0384  0.3193 -0.2517
11914SOL    HW139240   4.467   0.628   8.459 -0.7260 -1.7556 -0.6872
11914SOL    HW239241   4.364   0.732   8.419  1.6211  1.0260  0.1805
11915SOL     OW39242   7.040   8.966   8.121 -0.9694  0.6693  0.0681
11915SOL    HW139243   6.974   8.935   8.184  1.2386  0.3928  2.3967
11915SOL    HW239244   7.006   8.939   8.036 -3.5520  0.0083  1.2008
11916SOL     OW39245   9.439   9.758   8.854 -0.2918 -0.0358  0.4551
11916SOL    HW139246   9.473   9.797   8.934  1.2528 -0.2918 -0.0407
11916SOL    HW239247   9.358   9.806   8.836 -2.1432 -1.6810  3.5520
11917SOL     OW39248   5.797   7.751   9.169  0.7117 -0.4550  0.2424
11917SOL    HW139249   5.805   7.680   9.233 -0.9046 -0.6885  0.2329
11917SOL    HW239250   5.710   7.789   9.186  0.1731 -0.6029 -1.8791
11918SOL     OW39251   8.661  10.784   2.052 -0.5073 -0.4167  0.4511
11918SOL    HW139252   8.618  10.800   2.136 -1.6983 -1.6318  0.1070
11918SOL    HW239253   8.748  10.823   2.062 -0.1085 -1.7097  2.7413
11919SOL     OW39254  10.590   3.444  10.792 -0.8038 -0.5822  0.5228
11919SOL    HW139255  10.629   3.409  10.713 -0.3754  1.0128 -0.0162
11919SOL    HW239256  10.505   3.400  10.799 -0.6371 -1.0925 -0.5405
11920SOL     OW39257   4.522   4.672   4.840 -0.0165  0.3193  0.2398
11920SOL    HW139258   4.448   4.722   4.807 -1.5112 -0.8866  1.5857
11920SOL    HW239259   4.540   4.607   4.772  0.9152  1.6154 -0.8090
11921SOL     OW39260   3.173   1.329   9.843 -0.2267  1.0552  0.9158
11921SOL    HW139261   3.259   1.336   9.802  0.2561  0.0745  1.7183
11921SOL    HW239262   3.139   1.244   9.814 -0.0970  0.5778  2.1107
11922SOL     OW39263   3.804   3.026   6.197  0.0271 -0.2493  0.4424
11922SOL    HW139264   3.716   3.003   6.168  0.3778 -2.0658  0.7012
11922SOL    HW239265   3.832   2.952   6.251  2.1104 -0.2355 -0.5088
11923SOL     OW39266   5.475   7.302   5.633 -0.1330 -0.5430  0.5180
11923SOL    HW139267   5.456   7.218   5.675  0.2606 -0.9017 -0.0082
11923SOL    HW239268   5.543   7.282   5.569 -0.8559 -0.0346 -0.4317
11924SOL     OW39269  10.510   6.028   8.594 -0.2227  0.6045  0.2152
11924SOL    HW139270  10.537   6.076   8.673 -0.9647  0.3689  0.6113
11924SOL    HW239271  10.428   5.986   8.617  1.1263 -2.1575  0.3994
11925SOL     OW39272   2.846   5.001   9.646  0.2855 -0.0606  0.4289
11925SOL    HW139273   2.849   5.093   9.619 -0.6566  0.3587  1.6676
11925SOL    HW239274   2.757   4.988   9.679  0.4361 -1.4020  0.3788
11926SOL     OW39275   6.086   4.676   1.570 -0.2222  0.1566 -0.0667
11926SOL    HW139276   6.094   4.588   1.607  1.0057  0.8136  1.3483
11926SOL    HW239277   6.143   4.676   1.493 -0.2741 -0.2896 -0.1069
11927SOL     OW39278   0.236   6.576   8.976  0.2373  0.1069 -0.3496
11927SOL    HW139279   0.202   6.608   8.892  0.6136  0.1769 -0.4786
11927SOL    HW239280   0.243   6.653   9.031  1.4758  0.3140 -0.7768
11928SOL     OW39281   1.611   5.896   8.951 -0.5534  0.2725  0.0165
11928SOL    HW139282   1.521   5.865   8.944 -1.4094  1.8660  2.5274
11928SOL    HW239283   1.605   5.991   8.941  0.2075  0.8463  3.4682
11929SOL     OW39284   6.364   7.725   4.405  0.0829  0.4828 -0.4280
11929SOL    HW139285   6.302   7.772   4.461  0.2814 -0.5933  0.7205
11929SOL    HW239286   6.422   7.679   4.465  0.2021 -0.8508 -1.5055
11930SOL     OW39287   7.893   8.530   7.627 -0.2116 -0.5970 -0.1825
11930SOL    HW139288   7.987   8.541   7.645 -0.2836 -1.7778  1.0658
11930SOL    HW239289   7.886   8.541   7.532  0.9891  0.7370 -0.1544
11931SOL     OW39290   6.740   8.902   0.789  0.6598  0.5085  0.3110
11931SOL    HW139291   6.663   8.846   0.779 -0.3558  1.9010 -0.0654
11931SOL    HW239292   6.712   8.973   0.847  1.1797  1.8207 -0.9668
11932SOL     OW39293   7.697   1.698  10.721  0.5177 -0.2907 -0.0277
11932SOL    HW139294   7.606   1.702  10.751  0.4307  0.4543 -0.3595
11932SOL    HW239295   7.691   1.712  10.626  0.8901 -1.3723 -0.2210
11933SOL     OW39296   3.326  10.696   4.342  0.4371  0.1643 -0.4008
11933SOL    HW139297   3.399  10.640   4.316 -0.2307  0.0435 -2.1449
11933SOL    HW239298   3.262  10.636   4.380  0.4277 -0.0312 -0.7165
11934SOL     OW39299   9.779   9.983   7.974 -0.1573  0.0567 -0.5640
11934SOL    HW139300   9.733   9.927   7.911 -1.7173  1.4251 -0.7206
11934SOL    HW239301   9.855  10.015   7.927 -0.9770  0.5841 -1.5766
11935SOL     OW39302   6.548   2.836   7.820 -0.3664  0.1084  0.3667
11935SOL    HW139303   6.519   2.921   7.788 -1.2468 -0.3749 -0.1699
11935SOL    HW239304   6.468   2.784   7.826  0.3816 -1.3352 -1.3160
11936SOL     OW39305   4.106   1.492   3.883 -0.0595  0.7229  0.5686
11936SOL    HW139306   4.062   1.447   3.811  2.4024  1.4343 -1.5230
11936SOL    HW239307   4.034   1.528   3.936 -2.0148  0.7496 -1.9000
11937SOL     OW39308   4.041   0.047   8.746 -0.0415  0.0774 -0.2022
11937SOL    HW139309   4.070  -0.044   8.743 -1.0897 -0.2488 -2.9871
11937SOL    HW239310   4.048   0.077   8.656 -1.4416  2.2124  0.3415
11938SOL     OW39311   5.860   8.159   6.039 -0.1522 -0.3700  0.1703
11938SOL    HW139312   5.851   8.085   5.978 -0.8693 -0.2819  0.1531
11938SOL    HW239313   5.888   8.232   5.984 -0.8526 -0.2762 -0.0724
11939SOL     OW39314   5.793   4.813   5.237 -0.1871  0.5929 -0.3304
11939SOL    HW139315   5.817   4.820   5.145  0.4173 -0.8488 -0.2981
11939SOL    HW239316   5.876   4.802   5.283 -0.5160  0.8719  0.3454
11940SOL     OW39317   4.549   0.571   7.888  0.3919 -0.0779  0.1212
11940SOL    HW139318   4.582   0.545   7.802  0.4387  0.5354 -0.0462
11940SOL    HW239319   4.521   0.661   7.877  0.6093  0.0769  0.8067
11941SOL     OW39320   8.027   0.826   6.167  0.1694 -0.6423 -0.0837
11941SOL    HW139321   8.107   0.809   6.116  1.2225  1.0719  0.9157
11941SOL    HW239322   7.994   0.909   6.133 -0.1063 -0.3749  0.8106
11942SOL     OW39323   3.035   6.200   4.721  0.1303 -0.2043  0.4500
11942SOL    HW139324   2.984   6.156   4.654  1.1449  0.1752 -0.5984
11942SOL    HW239325   3.038   6.292   4.694  1.7092 -0.2888  0.2432
11943SOL     OW39326   3.011   9.767   8.552 -0.0060  0.3779 -0.1695
11943SOL    HW139327   2.921   9.742   8.534  0.2135  0.3084 -1.2792
11943SOL    HW239328   3.048   9.694   8.601 -1.2093  1.4528  2.5422
11944SOL     OW39329   5.946   9.386   8.829  0.4036 -0.0939 -0.4535
11944SOL    HW139330   5.969   9.294   8.817 -0.1955 -0.3506  0.2504
11944SOL    HW239331   6.029   9.429   8.849  0.4060 -0.8869  1.4325
11945SOL     OW39332   9.748   5.257   0.616 -0.4660  0.4794  0.5338
11945SOL    HW139333   9.816   5.244   0.682  0.4405  1.7163 -0.1177
11945SOL    HW239334   9.695   5.177   0.619  0.9523 -0.4636  1.1377
11946SOL     OW39335   8.272   4.472   5.799  0.0916 -0.1261 -0.3147
11946SOL    HW139336   8.353   4.421   5.800  0.9095  1.1145 -1.0739
11946SOL    HW239337   8.292   4.548   5.854 -0.8522 -0.2387  0.1905
11947SOL     OW39338  10.203   5.841   1.633  0.1085  0.1417 -0.7304
11947SOL    HW139339  10.247   5.902   1.691  1.0899 -0.5989 -0.6760
11947SOL    HW239340  10.172   5.771   1.690  0.5322 -0.2828 -1.0139
11948SOL     OW39341   0.334   5.839   2.398  0.0715 -0.1628 -0.7264
11948SOL    HW139342   0.270   5.768   2.401 -1.6029  1.2835  1.0420
11948SOL    HW239343   0.400   5.815   2.464 -0.8188  0.1524  0.3147
11949SOL     OW39344   2.235  10.386   3.207  0.8217  0.2832  0.1098
11949SOL    HW139345   2.194  10.457   3.158 -1.7183 -2.0351 -1.4203
11949SOL    HW239346   2.233  10.416   3.298  1.4204  2.7987 -0.6260
11950SOL     OW39347   1.799   9.989   7.349  0.1497  0.0300  0.4828
11950SOL    HW139348   1.806   9.986   7.254  3.7177  0.9632  0.5340
11950SOL    HW239349   1.864   9.925   7.380 -0.3520  0.3243  2.2695
11951SOL     OW39350   0.291   2.834   1.721 -0.3972 -0.3672  1.0341
11951SOL    HW139351   0.293   2.740   1.701 -1.3591 -0.5885  1.8870
11951SOL    HW239352   0.292   2.837   1.817  0.6595  0.5390  1.0174
11952SOL     OW39353   9.721   0.839   5.454 -0.4884 -0.5458 -0.1006
11952SOL    HW139354   9.653   0.772   5.462 -0.5534 -0.9114 -2.7281
11952SOL    HW239355   9.729   0.853   5.360  1.1310  1.5270  0.2803
11953SOL     OW39356   0.028   6.208   8.711 -0.0151  0.1117 -0.2780
11953SOL    HW139357   0.104   6.266   8.701  0.4255 -0.3219  0.4438
11953SOL    HW239358   0.042   6.139   8.647 -0.4770  0.7192 -1.0533
11954SOL     OW39359   4.982   7.657   7.041  0.1147 -0.2512 -0.2960
11954SOL    HW139360   4.979   7.749   7.065 -0.9940 -0.1418 -0.7942
11954SOL    HW239361   4.937   7.653   6.956  1.2219 -1.0738 -0.8639
11955SOL     OW39362   5.349   7.833   8.598  0.0241 -0.5184 -0.9345
11955SOL    HW139363   5.382   7.922   8.592 -0.0795 -0.4879 -1.0591
11955SOL    HW239364   5.276   7.839   8.660  1.7822 -1.0325  1.2906
11956SOL     OW39365   0.644   7.257   7.519  0.5008 -0.3229  0.5318
11956SOL    HW139366   0.575   7.311   7.481 -1.4221 -2.3843  0.8615
11956SOL    HW239367   0.688   7.313   7.582  1.2531  2.0190 -1.8966
11957SOL     OW39368  10.166   2.029  10.982 -0.1185  0.5605 -0.3773
11957SOL    HW139369  10.095   2.058  11.040 -1.1763 -2.2538 -0.0813
11957SOL    HW239370  10.122   2.011  10.899  0.3184 -0.6301 -0.3720
11958SOL     OW39371   0.646   5.556   0.089  0.5430 -0.3672  0.0184
11958SOL    HW139372   0.730   5.599   0.081 -0.4070  1.6145  0.0512
11958SOL    HW239373   0.609   5.591   0.170 -0.9418 -0.0169 -0.7723
11959SOL     OW39374   5.610   3.602   7.817  0.2381 -0.2044 -0.3151
11959SOL    HW139375   5.650   3.666   7.875  0.3533 -0.8890  0.3732
11959SOL    HW239376   5.565   3.655   7.750  0.6860  0.5789 -0.0074
11960SOL     OW39377   6.091   4.673   7.750 -0.0686  0.7158 -0.4949
11960SOL    HW139378   6.071   4.690   7.842 -0.0938 -0.6243 -0.2233
11960SOL    HW239379   6.011   4.635   7.715  0.6846 -1.0471 -0.4120
11961SOL     OW39380   5.051   4.004   8.141  0.2016  0.8209  0.5333
11961SOL    HW139381   5.113   4.013   8.214 -0.2298  0.7704  0.9077
11961SOL    HW239382   5.001   4.086   8.143 -0.5294  0.3650  0.9630
11962SOL     OW39383   5.672   1.838   6.895 -0.6765 -0.5142 -0.2177
11962SOL    HW139384   5.689   1.745   6.910 -1.0337 -0.4138  0.8923
11962SOL    HW239385   5.736   1.883   6.951  0.8216 -0.0326 -2.1897
11963SOL     OW39386   6.868   3.034   4.756 -0.7992 -0.1301  0.2439
11963SOL    HW139387   6.859   2.959   4.815 -2.3454  0.1615  0.4084
11963SOL    HW239388   6.948   3.015   4.706 -1.8674 -2.5983 -0.6993
11964SOL     OW39389   1.340  10.871   8.440 -0.3225  0.7721  0.7210
11964SOL    HW139390   1.313  10.821   8.363  0.0901  0.9321  0.4688
11964SOL    HW239391   1.422  10.913   8.414 -1.3664  2.7530  0.4060
11965SOL     OW39392  10.746   1.589   1.411 -0.1953  0.4145  0.3333
11965SOL    HW139393  10.822   1.615   1.462 -0.6748 -0.0307  1.2860
11965SOL    HW239394  10.736   1.496   1.427 -1.6330  0.6853  1.1757
11966SOL     OW39395   2.958   8.886   6.189  0.7802 -0.3516  0.4762
11966SOL    HW139396   3.023   8.846   6.131 -0.6462  1.0937 -2.2910
11966SOL    HW239397   2.956   8.978   6.164  1.7614  1.0144  4.5654
11967SOL     OW39398   4.437   1.144   7.270 -0.4675 -0.1277  0.0638
11967SOL    HW139399   4.366   1.207   7.257 -0.5331 -0.1246  0.4264
11967SOL    HW239400   4.516   1.198   7.275 -0.8378  0.2798  3.6517
11968SOL     OW39401   6.552   1.010   1.331  0.3050  0.1523  0.0244
11968SOL    HW139402   6.495   0.936   1.351  0.0157  0.4532  0.3187
11968SOL    HW239403   6.606   1.020   1.409 -0.8851  1.3843  0.7293
11969SOL     OW39404   7.831   4.406   8.014 -0.5386 -0.4892 -0.4148
11969SOL    HW139405   7.898   4.459   8.058 -0.8071 -0.8950  0.5165
11969SOL    HW239406   7.750   4.455   8.026 -0.4128  0.0551 -1.6355
11970SOL     OW39407   7.956   1.810   3.000  0.1311  0.6759 -0.0693
11970SOL    HW139408   7.905   1.891   2.992  0.6192  0.8631 -1.6270
11970SOL    HW239409   7.968   1.781   2.909  1.1123 -0.4244  0.3968
11971SOL     OW39410   3.612   8.115  10.152  0.5083 -0.2435 -0.4113
11971SOL    HW139411   3.572   8.202  10.153 -0.5141 -0.6748 -1.2000
11971SOL    HW239412   3.641   8.104  10.061 -1.9228 -1.7932 -1.0913
11972SOL     OW39413   5.402   7.167   4.192  0.1987 -0.1679 -0.1512
11972SOL    HW139414   5.480   7.172   4.137  0.9101 -0.7540  0.7944
11972SOL    HW239415   5.369   7.257   4.194  1.2228  0.2116 -0.0182
11973SOL     OW39416   8.388  10.995   8.568 -0.3312 -0.4407 -0.3001
11973SOL    HW139417   8.434  10.978   8.486 -0.4256 -0.8479 -0.2727
11973SOL    HW239418   8.375  11.090   8.570  2.0645 -0.0690  0.5187
11974SOL     OW39419   1.922   4.560   4.898  0.0076 -0.1060  0.4802
11974SOL    HW139420   1.906   4.654   4.898 -2.5015 -0.4573 -1.1386
11974SOL    HW239421   1.837   4.520   4.879  0.7709 -2.7875  2.0299
11975SOL     OW39422   5.719   9.813   8.522  0.0732  0.3778  0.3314
11975SOL    HW139423   5.680   9.730   8.551  0.3224  0.2806  0.3897
11975SOL    HW239424   5.781   9.787   8.454 -1.2277  0.6818 -1.0438
11976SOL     OW39425   0.207  10.168   0.007 -0.0896  0.6422  0.0088
11976SOL    HW139426   0.203  10.076   0.036  4.0930  0.3405  0.2432
11976SOL    HW239427   0.230  10.217   0.086  3.0609  0.9904 -0.9757
11977SOL     OW39428   1.985   8.039  10.938 -0.4252 -0.2815  0.2373
11977SOL    HW139429   1.971   8.108  10.873  0.8628 -0.7476 -0.5698
11977SOL    HW239430   2.067   8.062  10.980 -0.9058 -0.3575  1.2552
11978SOL     OW39431   1.492   4.600   8.514 -0.4932 -0.4903  0.3382
11978SOL    HW139432   1.440   4.613   8.593 -1.1946 -2.1174  0.1882
11978SOL    HW239433   1.579   4.575   8.546  0.0166  1.4242  0.5787
11979SOL     OW39434   5.020   4.834  10.372  0.1143  0.3686 -0.2059
11979SOL    HW139435   4.956   4.769  10.400  1.0247  0.6111  2.8106
11979SOL    HW239436   5.002   4.847  10.279 -0.1304 -4.1044 -0.9977
11980SOL     OW39437   7.463   3.238   2.753  0.4152 -0.2969  0.2069
11980SOL    HW139438   7.471   3.143   2.742 -0.4525 -0.5370  1.4803
11980SOL    HW239439   7.551   3.271   2.735  0.2116 -1.0608 -2.5922
11981SOL     OW39440  10.813   6.947   4.006 -0.1520 -0.5852 -0.0319
11981SOL    HW139441  10.792   6.890   4.080 -3.0691 -0.7492 -0.8406
11981SOL    HW239442  10.762   6.910   3.933 -1.5356  2.5205 -0.7932
11982SOL     OW39443   4.952   8.708   7.887 -0.0678  0.5118 -0.3396
11982SOL    HW139444   5.004   8.784   7.914 -0.5599  0.3798  1.0221
11982SOL    HW239445   4.960   8.707   7.791  1.6815  1.0234 -0.2323
11983SOL     OW39446   8.029  10.431   4.573  0.6162  0.3533 -0.1739
11983SOL    HW139447   8.124  10.430   4.564  0.5744  0.2663 -0.6472
11983SOL    HW239448   7.997  10.446   4.484  0.1975  0.8460  0.0583
11984SOL     OW39449   3.494   4.320   2.367 -0.3910 -0.2823 -0.1741
11984SOL    HW139450   3.469   4.231   2.341 -1.4704 -0.4352  1.2723
11984SOL    HW239451   3.479   4.372   2.288 -1.1692 -1.1446 -0.6225
11985SOL     OW39452  10.832   7.322   0.022 -0.2540 -0.1058 -0.1877
11985SOL    HW139453  10.878   7.327  -0.062  0.1085  1.6875  0.0854
11985SOL    HW239454  10.901   7.306   0.086 -0.3063  0.1972 -0.0532
11986SOL     OW39455   1.698   8.880   2.825 -0.9376  0.7105 -0.1152
11986SOL    HW139456   1.611   8.910   2.798 -1.5875 -0.8102  0.1824
11986SOL    HW239457   1.728   8.826   2.753 -1.3614 -0.8487  0.8329
11987SOL     OW39458  10.618   6.294   7.756  0.0437  0.0189  0.4066
11987SOL    HW139459  10.549   6.326   7.814 -0.0730  0.6667 -0.0746
11987SOL    HW239460  10.698   6.298   7.808 -0.1005  0.3639  0.6073
11988SOL     OW39461   9.899   0.034   1.483  0.3667  0.2954 -0.2260
11988SOL    HW139462   9.951   0.035   1.403  0.8885  0.9367  0.1059
11988SOL    HW239463   9.826   0.093   1.465 -0.8789 -1.4243 -1.0736
11989SOL     OW39464  10.808   3.963   9.052  0.4131  0.4463 -0.3887
11989SOL    HW139465  10.864   3.919   9.116 -0.7732 -1.5401 -0.6066
11989SOL    HW239466  10.745   4.012   9.104 -0.5877 -1.2079  0.0253
11990SOL     OW39467   5.915   5.431   3.936 -0.0353 -0.1821  0.4899
11990SOL    HW139468   5.979   5.482   3.887 -0.6543  0.9318  0.8235
11990SOL    HW239469   5.836   5.434   3.883  0.0248 -1.1625  0.3129
11991SOL     OW39470   6.564  10.722   9.111  0.0445  0.0314 -0.0938
11991SOL    HW139471   6.503  10.794   9.099  1.4593  1.6498  1.6224
11991SOL    HW239472   6.623  10.727   9.036 -1.1272 -0.7088 -1.0755
11992SOL     OW39473  10.092   3.597  10.129 -0.0001  0.2740  0.4124
11992SOL    HW139474  10.078   3.508  10.097 -0.0275  0.1053  0.9019
11992SOL    HW239475  10.163   3.631  10.074  1.1757 -0.6175  1.3153
11993SOL     OW39476   7.184   4.756   2.076 -0.4071  0.3705 -0.2806
11993SOL    HW139477   7.112   4.743   2.016 -1.0738 -1.0697  0.7668
11993SOL    HW239478   7.192   4.673   2.123  0.4068  1.2529  1.2512
11994SOL     OW39479   4.500   2.628   2.608  0.0261 -0.2574 -0.7514
11994SOL    HW139480   4.474   2.539   2.585  0.1641 -0.1792 -1.2223
11994SOL    HW239481   4.589   2.620   2.642  1.1792  0.0179 -3.4431
11995SOL     OW39482  10.734   8.914   9.534  0.1981  0.5849  0.1555
11995SOL    HW139483  10.650   8.941   9.570 -0.4144 -0.4993 -0.3855
11995SOL    HW239484  10.776   8.865   9.606 -0.7927 -1.1170 -0.3536
11996SOL     OW39485   1.125   7.099   0.259  0.3050 -0.7541  0.0789
11996SOL    HW139486   1.209   7.144   0.268  0.1482 -0.3921 -0.2216
11996SOL    HW239487   1.070   7.137   0.327 -0.3780  0.8173 -1.2636
11997SOL     OW39488   8.126   6.569   7.440  0.0768 -0.6314  0.1646
11997SOL    HW139489   8.051   6.514   7.463  0.2214 -0.1814  1.8334
11997SOL    HW239490   8.195   6.506   7.418 -0.3636 -1.0746  0.0171
11998SOL     OW39491   0.963   0.879   0.679  0.5170  0.7232 -0.1694
11998SOL    HW139492   0.881   0.924   0.698 -0.1481 -0.3171 -0.5043
11998SOL    HW239493   1.014   0.886   0.760 -0.1963  0.7312  0.2797
11999SOL     OW39494   2.376   4.658   7.355  0.1097 -0.0766 -0.2952
11999SOL    HW139495   2.461   4.627   7.389  0.2150 -0.2638 -0.7297
11999SOL    HW239496   2.371   4.749   7.385 -0.0468 -0.3909  0.6942
12000SOL     OW39497   6.279   8.959   6.945  0.4309 -0.0874 -0.2734
12000SOL    HW139498   6.224   8.887   6.974  1.0990 -0.0233  1.2364
12000SOL    HW239499   6.283   8.950   6.850 -0.7657 -1.0961 -0.2449
12001SOL     OW39500   9.067   1.402   0.603  0.1873 -0.2011 -0.4561
12001SOL    HW139501   9.020   1.486   0.599 -0.4405 -0.4737  0.7261
12001SOL    HW239502   9.000   1.338   0.628  0.5788 -1.1385 -1.6801
12002SOL     OW39503  10.400   2.952   8.966  0.9015 -0.4173  0.7148
12002SOL    HW139504  10.491   2.981   8.970  0.6471  0.3750  1.0568
12002SOL    HW239505  10.379   2.926   9.056 -0.1129  2.3591  1.3892
12003SOL     OW39506   8.490   4.592   2.300 -0.0385 -0.1003 -0.3155
12003SOL    HW139507   8.481   4.526   2.232 -0.4700 -0.7562  0.3596
12003SOL    HW239508   8.552   4.655   2.265  0.4114 -0.8880 -0.9598
12004SOL     OW39509   8.568   3.628   9.238 -0.0703  0.0128 -0.0707
12004SOL    HW139510   8.629   3.623   9.311  0.4853  0.4469 -0.4900
12004SOL    HW239511   8.485   3.596   9.273  0.7383 -2.0417  0.1082
12005SOL     OW39512   8.593   8.568   8.494 -0.1497 -0.0994  0.4328
12005SOL    HW139513   8.641   8.608   8.422 -0.5872  0.4524  0.4424
12005SOL    HW239514   8.513   8.534   8.455 -0.6534  0.7013  0.7462
12006SOL     OW39515   1.478   8.758   0.988  0.0255  0.4484  0.0541
12006SOL    HW139516   1.383   8.748   0.993  0.0934 -1.3531 -1.3382
12006SOL    HW239517   1.513   8.671   1.007  1.3370  0.7526 -0.8107
12007SOL     OW39518   7.679  10.386   2.116  0.5436 -0.9959  0.5566
12007SOL    HW139519   7.598  10.363   2.072  1.1907 -0.3879 -1.0308
12007SOL    HW239520   7.685  10.481   2.107  1.6106 -1.0703  0.3120
12008SOL     OW39521  10.400  10.364   5.171  0.0730  0.2523  0.1365
12008SOL    HW139522  10.494  10.360   5.153 -0.3044 -0.6046 -1.8917
12008SOL    HW239523  10.363  10.289   5.124 -1.6730  0.7470  0.6407
12009SOL     OW39524  10.225   5.316   1.006 -0.5918  0.2036 -0.4085
12009SOL    HW139525  10.246   5.355   1.091  1.1177  0.6578 -0.9971
12009SOL    HW239526  10.292   5.249   0.993 -0.6270  0.3655 -1.5338
12010SOL     OW39527   7.870   8.297   2.342 -0.1072 -1.0060 -0.0164
12010SOL    HW139528   7.798   8.246   2.379 -0.0334 -0.3344  1.0986
12010SOL    HW239529   7.831   8.342   2.267 -0.8449 -0.7213  0.5187
12011SOL     OW39530   8.586   9.453   6.937  0.0452  0.1808 -0.1529
12011SOL    HW139531   8.537   9.519   6.889 -0.6890 -0.5232 -0.3920
12011SOL    HW239532   8.530   9.431   7.011  1.0616  1.0934  0.9377
12012SOL     OW39533   5.938   1.779   6.752  0.1628  0.1011  0.4504
12012SOL    HW139534   5.926   1.703   6.695 -3.1146  0.1968  0.8407
12012SOL    HW239535   5.860   1.781   6.808  0.7892  2.9558  1.4311
12013SOL     OW39536   8.348   9.385   7.487  0.1647  0.1546 -0.2737
12013SOL    HW139537   8.301   9.420   7.411  0.5244  0.7551 -0.2312
12013SOL    HW239538   8.408   9.456   7.512 -0.0486  0.0223  0.6492
12014SOL     OW39539   9.148   8.489   6.699 -0.0811 -0.2118 -0.7026
12014SOL    HW139540   9.137   8.556   6.631  1.0934 -1.5511 -2.2832
12014SOL    HW239541   9.219   8.521   6.754 -0.5287  0.5337 -0.5522
12015SOL     OW39542   4.580   7.717   5.293 -0.1038 -0.5429 -0.1777
12015SOL    HW139543   4.530   7.690   5.370 -0.6121 -0.2497 -0.3951
12015SOL    HW239544   4.634   7.790   5.323 -0.9186  0.1260 -0.2788
12016SOL     OW39545   9.206   1.813   7.655  0.0696  0.7573  0.1428
12016SOL    HW139546   9.263   1.856   7.591  1.5864 -0.9739  0.2500
12016SOL    HW239547   9.229   1.721   7.649 -0.6858  0.3858  2.2694
12017SOL     OW39548   4.933   7.558   3.302  0.0014 -0.0221  0.0314
12017SOL    HW139549   4.954   7.606   3.382  1.0089 -0.2483 -0.0795
12017SOL    HW239550   5.017   7.549   3.257 -0.4201 -0.5916 -0.6627
12018SOL     OW39551   2.208   9.634   7.812  0.9314  0.1422 -0.5928
12018SOL    HW139552   2.208   9.594   7.725  0.3356 -1.2280 -0.0071
12018SOL    HW239553   2.174   9.565   7.869 -1.2220  1.8501  0.3371
12019SOL     OW39554   8.981   9.031   3.560  0.0299  0.2098 -0.5217
12019SOL    HW139555   8.893   9.061   3.534  0.4810  1.2318 -0.9359
12019SOL    HW239556   9.014   8.986   3.482  0.2435  0.6962 -0.7200
12020SOL     OW39557   8.669   0.254   4.603 -0.4477  0.7275 -0.3532
12020SOL    HW139558   8.721   0.280   4.527 -1.3772  1.2002 -0.8426
12020SOL    HW239559   8.583   0.232   4.567 -0.0628 -2.0628  0.1557
12021SOL     OW39560   0.020   4.454   8.555  0.3171  0.0221  0.1925
12021SOL    HW139561  -0.033   4.490   8.626 -0.3609  0.6309 -0.5919
12021SOL    HW239562   0.060   4.531   8.514 -1.2941 -0.0167 -1.6236
12022SOL     OW39563   1.524   1.241   0.145  1.0380  0.8547  0.0907
12022SOL    HW139564   1.464   1.298   0.097 -1.0329 -0.8067  0.5636
12022SOL    HW239565   1.468   1.173   0.182  3.1391 -0.3336  1.2699
12023SOL     OW39566   2.554   6.129   5.426 -0.0321 -0.2056  0.1721
12023SOL    HW139567   2.536   6.219   5.455  1.4539  0.3274 -0.4469
12023SOL    HW239568   2.566   6.079   5.506 -0.8339  0.1439  0.5242
12024SOL     OW39569   1.388   7.428   3.463  0.7795 -0.5404 -0.3038
12024SOL    HW139570   1.305   7.402   3.422  0.7526  0.1908 -0.7466
12024SOL    HW239571   1.363   7.458   3.550  0.6331 -0.7284 -0.2803
12025SOL     OW39572   9.279   6.985   9.042  0.3326 -0.6334 -0.2247
12025SOL    HW139573   9.369   6.958   9.027  0.2611 -0.8798 -0.2329
12025SOL    HW239574   9.265   6.971   9.136  0.7492  0.8102  0.0758
12026SOL     OW39575   3.160   5.125   9.027 -0.2835  0.2392  0.0609
12026SOL    HW139576   3.212   5.133   8.947 -0.4950  2.3761  0.0882
12026SOL    HW239577   3.086   5.070   9.002  0.1756  0.0476 -0.9249
12027SOL     OW39578   0.413   7.319   6.958 -0.3669 -0.3059  0.0774
12027SOL    HW139579   0.415   7.231   6.997  1.9999 -0.7007 -0.8134
12027SOL    HW239580   0.377   7.305   6.870 -0.8738 -0.2152  0.2654
12028SOL     OW39581   0.975   9.808   9.076 -0.3284  0.1961 -0.3984
12028SOL    HW139582   1.067   9.812   9.053  0.6610 -0.1625  2.9332
12028SOL    HW239583   0.959   9.887   9.127 -1.3731 -0.5385  0.4814
12029SOL     OW39584   7.943   6.489   1.855  0.4484 -0.1814  0.1127
12029SOL    HW139585   7.894   6.488   1.937  1.8927 -1.6580  1.0176
12029SOL    HW239586   8.017   6.546   1.872  1.1671 -1.0909  0.1309
12030SOL     OW39587   6.189   2.798   5.872  0.1545 -0.1283  0.3352
12030SOL    HW139588   6.102   2.797   5.833  0.2960 -1.0849  0.0364
12030SOL    HW239589   6.247   2.825   5.801 -0.0277  1.8561  0.8656
12031SOL     OW39590   4.702   3.772   6.371  0.1250 -0.3402 -0.7607
12031SOL    HW139591   4.732   3.849   6.418 -0.9537  0.4640 -1.3465
12031SOL    HW239592   4.629   3.803   6.317 -0.5022 -1.8243 -0.8185
12032SOL     OW39593   3.184   6.983   6.151 -0.1008 -0.1419 -0.1917
12032SOL    HW139594   3.209   7.047   6.083 -1.3554 -1.1933 -1.7336
12032SOL    HW239595   3.137   7.035   6.216 -1.0747  0.5799 -1.4057
12033SOL     OW39596   3.660   8.253   0.076 -0.3726 -0.1658  0.0437
12033SOL    HW139597   3.731   8.247   0.012 -2.4447 -0.4583 -2.4052
12033SOL    HW239598   3.620   8.339   0.059 -2.2094 -1.0727 -0.5723
12034SOL     OW39599  10.413   9.417   7.409 -0.2531  0.1746 -0.3045
12034SOL    HW139600  10.448   9.405   7.321 -1.1154 -1.7068 -0.4445
12034SOL    HW239601  10.479   9.378   7.466 -1.2491 -1.7951 -0.4326
12035SOL     OW39602   1.925   2.032   4.969 -0.3328  0.2187  0.3352
12035SOL    HW139603   1.927   2.099   4.900  0.0179  0.2060  0.3325
12035SOL    HW239604   1.965   1.955   4.930 -3.5322 -1.0565 -0.7408
12036SOL     OW39605   5.457   7.002   5.939 -0.6616 -0.6606 -0.3100
12036SOL    HW139606   5.409   6.934   5.987 -0.2901 -0.4314  0.4084
12036SOL    HW239607   5.491   6.957   5.862 -1.0549 -1.1068 -0.2328
12037SOL     OW39608   2.373   5.921   1.320 -0.2544  0.5276  0.2441
12037SOL    HW139609   2.331   5.838   1.295 -1.5467  0.8874  1.1558
12037SOL    HW239610   2.363   5.976   1.242  0.5333 -0.1164 -0.3372
12038SOL     OW39611   7.961   9.484  10.279 -0.0066 -0.2641 -0.5462
12038SOL    HW139612   7.910   9.424  10.335 -0.8193  0.7905 -0.1266
12038SOL    HW239613   8.050   9.450  10.284 -0.3939 -1.2777 -0.0952
12039SOL     OW39614   9.113   5.723   4.203 -0.0691 -0.2180 -0.0498
12039SOL    HW139615   9.042   5.738   4.266  0.0769 -0.5307  0.1915
12039SOL    HW239616   9.170   5.798   4.213  0.4480 -0.7201  0.8683
12040SOL     OW39617   7.041   7.530   1.351 -0.2443 -0.5233  0.1193
12040SOL    HW139618   7.027   7.443   1.389 -0.3689 -0.0747  1.1399
12040SOL    HW239619   6.952   7.563   1.334 -0.1842 -0.8841 -0.9840
12041SOL     OW39620  10.095   0.012   9.456  0.5174  0.4040 -0.4496
12041SOL    HW139621  10.184   0.024   9.488  0.4974  1.6132 -0.8119
12041SOL    HW239622  10.040   0.060   9.518  0.1554  0.0083 -0.4581
12042SOL     OW39623   0.665   1.605   3.266  0.6254 -0.3179  0.0994
12042SOL    HW139624   0.734   1.599   3.200 -0.1015  0.7452 -0.7879
12042SOL    HW239625   0.617   1.523   3.258  1.3441 -0.7648  0.2453
12043SOL     OW39626   7.771   8.839   9.871  0.2629 -0.9429  0.4548
12043SOL    HW139627   7.715   8.833   9.793  0.3112 -2.3126  0.4883
12043SOL    HW239628   7.854   8.801   9.843  1.3113  1.3085  0.3349
12044SOL     OW39629   9.783  10.549   5.169  0.2994  0.4537  0.6262
12044SOL    HW139630   9.774  10.496   5.090  0.4558  0.3242  0.6932
12044SOL    HW239631   9.748  10.635   5.145 -0.9978 -0.0013  0.8639
12045SOL     OW39632   5.981   2.455   5.894  0.8358  0.1766  0.0008
12045SOL    HW139633   5.897   2.423   5.860 -0.0153  1.6546  0.5763
12045SOL    HW239634   5.979   2.433   5.988 -0.0602  2.3144  0.5552
12046SOL     OW39635  10.186   9.765   6.333 -0.1112  0.6956  0.4348
12046SOL    HW139636  10.130   9.775   6.410 -0.3339 -0.7143  0.4827
12046SOL    HW239637  10.268   9.729   6.367 -0.9979 -2.1718 -0.1635
12047SOL     OW39638   8.054   8.716  10.568 -0.5128  0.4426 -0.5962
12047SOL    HW139639   8.025   8.795  10.522  0.4194  2.7234  2.4009
12047SOL    HW239640   8.146   8.706  10.541 -0.8683 -0.1716 -1.6261
12048SOL     OW39641  10.159   2.528   3.603  0.0228 -0.3487 -0.5576
12048SOL    HW139642  10.096   2.522   3.674  0.4249  0.5314 -0.0983
12048SOL    HW239643  10.159   2.621   3.579 -1.7916 -0.9615 -3.2996
12049SOL     OW39644   4.212   0.821   3.749 -0.8651  0.2703 -0.1579
12049SOL    HW139645   4.304   0.818   3.721 -1.3678 -0.7204 -1.8591
12049SOL    HW239646   4.179   0.904   3.714 -0.5021  0.8757  0.9066
12050SOL     OW39647   5.429   4.825  10.675 -0.2800 -0.1806  0.2092
12050SOL    HW139648   5.385   4.842  10.591  1.1862  2.1585 -0.1630
12050SOL    HW239649   5.419   4.730  10.688 -2.5175 -0.2567 -1.4493
12051SOL     OW39650   4.424   4.823   6.089  0.1850  0.0071  0.3862
12051SOL    HW139651   4.443   4.730   6.074  0.4521  0.1762 -0.4072
12051SOL    HW239652   4.509   4.863   6.106  0.3099  0.3864 -0.9717
12052SOL     OW39653   0.888   7.214   6.314 -0.1758  0.1718 -0.3127
12052SOL    HW139654   0.925   7.136   6.272  0.1697  0.8239 -1.2495
12052SOL    HW239655   0.794   7.200   6.310 -0.1645  0.3291 -1.5572
12053SOL     OW39656   9.994   8.919   1.821  0.1657 -0.2952  0.1858
12053SOL    HW139657   9.957   8.870   1.746 -0.4064  0.6159 -0.1424
12053SOL    HW239658  10.055   8.981   1.781  0.9636 -0.7891  0.6122
12054SOL     OW39659   4.303   2.914   3.701  0.4193 -0.4819 -0.5881
12054SOL    HW139660   4.326   2.966   3.625  1.1943 -1.2064 -0.8628
12054SOL    HW239661   4.379   2.919   3.759 -0.2003  0.1418  0.1926
12055SOL     OW39662   1.918   6.459   6.171 -0.0275 -0.2181  0.2938
12055SOL    HW139663   2.006   6.463   6.134  0.7990 -0.6404  2.0869
12055SOL    HW239664   1.874   6.537   6.137  0.3148 -1.0626 -2.2726
12056SOL     OW39665   2.582   0.098   8.020 -0.5588  0.1496 -0.1552
12056SOL    HW139666   2.551   0.014   7.987 -0.8758  0.8497 -1.6828
12056SOL    HW239667   2.675   0.083   8.037 -0.6845 -0.6048 -0.0528
12057SOL     OW39668   5.762   5.633  10.929  0.5586 -0.2855 -0.3356
12057SOL    HW139669   5.795   5.664  10.844  1.6577 -2.1318 -0.6301
12057SOL    HW239670   5.839   5.595  10.972 -0.3021 -0.7385  0.8407
12058SOL     OW39671   9.607   3.019   2.116 -0.1552 -0.0171  0.3812
12058SOL    HW139672   9.595   3.027   2.022 -0.2793  0.0870  0.4059
12058SOL    HW239673   9.622   2.926   2.131 -2.5335 -0.4269  0.5417
12059SOL     OW39674   7.494   7.797   2.481  0.0105 -0.2326  0.4677
12059SOL    HW139675   7.568   7.743   2.509  0.9209 -0.2569 -1.8186
12059SOL    HW239676   7.492   7.868   2.545  1.3866 -0.7717  1.1647
12060SOL     OW39677   2.217   7.231   9.373  0.6385 -0.2113  0.4779
12060SOL    HW139678   2.313   7.232   9.369  0.6372 -0.3414  0.4407
12060SOL    HW239679   2.197   7.216   9.466  0.6535 -0.4092  0.4495
12061SOL     OW39680   2.700   1.547   2.789  0.2853  0.2693 -0.1169
12061SOL    HW139681   2.606   1.564   2.786  0.0190 -0.5493  1.9411
12061SOL    HW239682   2.709   1.470   2.845  2.2116  0.7389  0.3164
12062SOL     OW39683   8.389   5.008   3.181 -0.6639 -0.5562  0.1689
12062SOL    HW139684   8.300   5.033   3.154 -0.5314 -1.0658 -0.7757
12062SOL    HW239685   8.376   4.959   3.262 -1.3330 -1.2252 -0.3166
12063SOL     OW39686   3.108   5.994   5.199 -0.3009  0.7623  0.3034
12063SOL    HW139687   3.073   6.078   5.229  0.8201  0.9201  1.2353
12063SOL    HW239688   3.080   5.988   5.108 -0.8107  1.9169  0.3594
12064SOL     OW39689   3.671   4.173   0.190  0.4608  0.1870 -0.1160
12064SOL    HW139690   3.649   4.081   0.202 -1.8450  0.5977 -0.6707
12064SOL    HW239691   3.759   4.173   0.152 -0.0628 -1.8424 -1.4526
12065SOL     OW39692   1.358   8.243  10.925 -0.3153  0.4758  0.0489
12065SOL    HW139693   1.391   8.155  10.946  0.0121  1.0009  1.8711
12065SOL    HW239694   1.276   8.227  10.880 -0.1819 -0.7786  0.2107
12066SOL     OW39695   0.234   9.938   5.956 -0.3221 -0.1818  0.4779
12066SOL    HW139696   0.246   9.860   6.010  0.1455 -1.3384 -1.2267
12066SOL    HW239697   0.318   9.985   5.963 -0.4682 -0.0151  1.1959
12067SOL     OW39698   4.205   8.625   7.316 -0.0630  0.4653 -0.5024
12067SOL    HW139699   4.136   8.601   7.378  0.7387 -0.0883  0.1956
12067SOL    HW239700   4.258   8.690   7.363  1.2769 -0.8718 -0.1050
12068SOL     OW39701  10.770  10.574   6.428  1.0176 -0.2706 -0.0379
12068SOL    HW139702  10.707  10.509   6.396  1.2501 -0.1803 -0.6896
12068SOL    HW239703  10.845  10.522   6.459  0.9717 -0.3340 -0.0331
12069SOL     OW39704   3.677   5.620   2.308 -0.0299  0.1739 -0.3591
12069SOL    HW139705   3.709   5.647   2.221 -0.5322  0.6342 -0.4076
12069SOL    HW239706   3.752   5.633   2.366  0.3089 -0.1311 -0.7194
12070SOL     OW39707  10.293   1.968   9.869 -0.2427  0.2586 -0.5593
12070SOL    HW139708  10.299   1.877   9.895  1.8557  0.5514  0.1828
12070SOL    HW239709  10.216   2.002   9.915 -1.0512 -1.1187 -0.8678
12071SOL     OW39710   6.011   6.909  10.654  0.1443 -0.4285  0.7647
12071SOL    HW139711   5.974   6.996  10.671  1.6747  0.2784  0.6798
12071SOL    HW239712   5.938   6.858  10.619 -0.2663  1.5667 -1.5780
12072SOL     OW39713   9.617   1.811   9.056  0.2788 -0.3842  0.2364
12072SOL    HW139714   9.609   1.822   8.961  1.4390 -2.1772 -0.1157
12072SOL    HW239715   9.535   1.770   9.083  0.6530 -1.5526 -0.3173
12073SOL     OW39716   0.608   3.737   2.145 -0.1165  0.0212 -0.4756
12073SOL    HW139717   0.531   3.793   2.152 -0.9321 -1.1091 -0.0793
12073SOL    HW239718   0.681   3.794   2.167 -1.0569  0.6258  1.3490
12074SOL     OW39719   8.185  10.062   9.391  0.0651 -0.5802  0.1800
12074SOL    HW139720   8.115   9.999   9.378 -0.9693  0.7164 -0.8517
12074SOL    HW239721   8.143  10.147   9.381  1.7315  0.2439 -0.2036
12075SOL     OW39722   0.407   4.628   7.597 -0.7936 -0.5402  0.1802
12075SOL    HW139723   0.459   4.698   7.636 -2.2744  0.0287  1.1952
12075SOL    HW239724   0.472   4.567   7.562  0.5304  0.6985  0.4055
12076SOL     OW39725  10.147   4.367   4.385  0.0279 -0.3658 -0.6421
12076SOL    HW139726  10.196   4.421   4.447 -2.1945 -0.5899  1.4383
12076SOL    HW239727  10.099   4.430   4.332 -0.7188 -0.2062  0.1966
12077SOL     OW39728   5.421   9.701  10.960 -0.2756 -0.2375 -1.0369
12077SOL    HW139729   5.455   9.791  10.962  1.5170 -0.8815 -0.9485
12077SOL    HW239730   5.380   9.693  10.873 -0.2601  0.5830 -1.1292
12078SOL     OW39731   7.238   2.416   8.480 -0.2703  0.2086 -0.0913
12078SOL    HW139732   7.185   2.472   8.537  0.0642  0.0624  0.3632
12078SOL    HW239733   7.323   2.411   8.524 -0.1516 -0.2686 -0.3768
12079SOL     OW39734   8.549   7.414   3.621  0.2953 -0.2568  0.5372
12079SOL    HW139735   8.620   7.475   3.639  0.8060 -0.3697 -0.9676
12079SOL    HW239736   8.586   7.328   3.641  0.2082 -0.2341  0.8053
12080SOL     OW39737  10.277   3.242   6.827 -0.4782  0.1509  0.3432
12080SOL    HW139738  10.279   3.271   6.918  1.5535 -0.0985  0.4395
12080SOL    HW239739  10.286   3.323   6.776 -3.1298  0.4694  0.2301
12081SOL     OW39740   7.883   3.230  10.885  0.3198 -0.0217 -0.4117
12081SOL    HW139741   7.936   3.261  10.812 -0.1059 -0.3419 -0.8584
12081SOL    HW239742   7.870   3.308  10.939  0.7844  0.1770 -0.5749
12082SOL     OW39743   5.968  10.493   3.848 -0.4648 -0.3720  0.6694
12082SOL    HW139744   6.061  10.510   3.860  0.1431 -1.5595 -1.7130
12082SOL    HW239745   5.953  10.510   3.755 -2.6472 -0.2266  0.9941
12083SOL     OW39746   5.955   3.391   2.800 -0.0214  0.2317 -0.1313
12083SOL    HW139747   5.919   3.359   2.717  3.4109 -0.2024 -1.5914
12083SOL    HW239748   5.922   3.481   2.807  1.3817  1.1056 -3.2101
12084SOL     OW39749   2.797   2.601   0.760  0.5106  0.2027 -0.4549
12084SOL    HW139750   2.836   2.606   0.672 -1.0882  2.2561 -1.1361
12084SOL    HW239751   2.717   2.652   0.753  0.3220  0.3924  2.2197
12085SOL     OW39752   1.336   6.264   4.184  0.2333  0.4780 -0.6217
12085SOL    HW139753   1.367   6.235   4.098  1.2810  0.0295 -0.1133
12085SOL    HW239754   1.414   6.300   4.226 -0.3785  1.1405 -0.0393
12086SOL     OW39755  10.481   3.086  10.374  0.5789  0.3148 -0.2983
12086SOL    HW139756  10.535   3.162  10.351  1.2763 -0.1055 -0.0694
12086SOL    HW239757  10.502   3.020  10.308 -0.0717  0.3240 -0.5325
12087SOL     OW39758  10.345   9.084  10.724  0.0171 -0.1418  0.0364
12087SOL    HW139759  10.256   9.109  10.746 -0.9975 -0.2782 -3.3109
12087SOL    HW239760  10.341   8.989  10.713  0.9785 -0.3528  1.3214
12088SOL     OW39761   8.278   5.139   8.251  0.2791 -0.5544 -0.2452
12088SOL    HW139762   8.272   5.207   8.183 -0.4395  0.1801  0.5288
12088SOL    HW239763   8.235   5.178   8.327  0.5431 -1.5987  0.4506
12089SOL     OW39764   4.980   4.944  10.766 -0.0182 -0.5202 -0.4993
12089SOL    HW139765   4.942   4.909  10.685  1.6030  0.1496 -1.5967
12089SOL    HW239766   4.938   5.029  10.778 -0.7032 -0.8795 -0.2768
12090SOL     OW39767   9.081   6.055   7.472  0.4790 -0.2321  0.7369
12090SOL    HW139768   9.073   6.008   7.555  0.2981  0.7746  1.3086
12090SOL    HW239769   9.023   6.131   7.483  0.5915  0.0009 -0.2484
12091SOL     OW39770   7.338   7.691   7.479  0.1781  0.1764  0.5267
12091SOL    HW139771   7.364   7.691   7.571  0.2764 -4.6105  0.7502
12091SOL    HW239772   7.421   7.687   7.431  0.0939 -0.5166  0.4320
12092SOL     OW39773   0.570   8.216   6.078 -0.5240 -0.2897  0.0290
12092SOL    HW139774   0.619   8.299   6.069  0.9769 -0.8986  1.8670
12092SOL    HW239775   0.606   8.160   6.010  0.1124 -0.1384  0.2259
12093SOL     OW39776   7.052   1.813   2.750 -0.1334  0.3244 -0.1840
12093SOL    HW139777   7.106   1.739   2.724 -1.2087 -0.3763 -0.4538
12093SOL    HW239778   7.112   1.870   2.799  1.0954  0.0727 -1.3398
12094SOL     OW39779   6.038   7.028   9.336  0.2290  0.4595  0.0882
12094SOL    HW139780   6.042   7.122   9.353 -1.4912  0.7284 -0.7272
12094SOL    HW239781   5.990   7.021   9.253  0.5349 -1.1317  0.0138
12095SOL     OW39782   9.466   3.670   6.640 -0.7245 -0.3218  0.8719
12095SOL    HW139783   9.465   3.599   6.705  0.5874  0.8798  2.2885
12095SOL    HW239784   9.408   3.737   6.677 -0.8839 -0.1001  0.2309
12096SOL     OW39785   3.067  10.999   2.448 -0.0223 -0.6314 -0.2113
12096SOL    HW139786   3.041  11.034   2.534 -0.6635  0.5478 -0.8525
12096SOL    HW239787   3.080  11.077   2.394  1.0350 -1.3343 -1.0215
12097SOL     OW39788   9.173   6.027   4.510  0.7841  0.4419 -0.1734
12097SOL    HW139789   9.144   5.961   4.573 -0.9467  0.1852 -1.1800
12097SOL    HW239790   9.180   6.108   4.562 -1.1779  0.3662  0.2774
12098SOL     OW39791   6.536   4.897   2.589 -0.3616 -0.2165 -0.4784
12098SOL    HW139792   6.581   4.922   2.509  0.4008 -1.3144 -0.4179
12098SOL    HW239793   6.540   4.801   2.590  0.1927 -0.2121  1.1603
12099SOL     OW39794   8.378   5.729   5.760 -0.0813 -0.2893 -0.2843
12099SOL    HW139795   8.408   5.819   5.773 -2.5602  0.9337 -2.1711
12099SOL    HW239796   8.332   5.708   5.842  0.0285  0.3778 -0.0435
12100SOL     OW39797   2.921   7.399   4.269 -0.3170 -0.2566  0.1338
12100SOL    HW139798   2.835   7.409   4.309 -1.0138 -1.3868 -1.0002
12100SOL    HW239799   2.967   7.337   4.326 -1.0390 -1.2939 -0.3778
12101SOL     OW39800   3.032  10.243   4.600  0.2843  0.0218  0.1391
12101SOL    HW139801   2.963  10.290   4.552  1.1179  0.0630 -1.0601
12101SOL    HW239802   3.018  10.151   4.577  2.4390  0.2721 -2.6517
12102SOL     OW39803   3.050   4.369   8.381  0.4854  0.2904 -0.2193
12102SOL    HW139804   3.089   4.396   8.298  0.9718  0.3346  0.0195
12102SOL    HW239805   2.969   4.420   8.388  2.0272  2.8448  0.8779
12103SOL     OW39806   3.691   4.269   7.027  0.4801 -0.5885 -0.0256
12103SOL    HW139807   3.701   4.336   6.959 -0.7094  1.3675  1.6124
12103SOL    HW239808   3.596   4.267   7.044  0.9097  0.8866  3.2752
12104SOL     OW39809   8.982   6.134  10.746  0.8653 -0.1249  0.1632
12104SOL    HW139810   9.006   6.045  10.774 -0.0298 -0.0691  1.1446
12104SOL    HW239811   8.975   6.127  10.651 -0.7608 -1.5266  0.3331
12105SOL     OW39812   4.080  10.560   4.843 -0.3610 -0.0026  0.2373
12105SOL    HW139813   4.115  10.499   4.908 -1.5860 -0.4970  0.4834
12105SOL    HW239814   3.999  10.518   4.813 -0.0703  0.4342 -1.2793
12106SOL     OW39815   3.278  10.145   8.714 -0.4008 -0.5294  0.1278
12106SOL    HW139816   3.317  10.233   8.725  1.3528 -1.2208 -0.1771
12106SOL    HW239817   3.344  10.086   8.751 -1.6950 -1.7206  0.5953
12107SOL     OW39818   9.574  10.428   6.401  0.5045  0.5735 -0.1986
12107SOL    HW139819   9.534  10.509   6.369 -0.2753 -0.0211 -0.7519
12107SOL    HW239820   9.507  10.361   6.388  1.6848 -0.4676 -1.2509
12108SOL     OW39821   8.974   4.046   9.643  0.7391  0.2515 -0.3185
12108SOL    HW139822   8.957   3.990   9.567  1.2544  0.6920 -0.7783
12108SOL    HW239823   9.064   4.025   9.668  1.0042  0.9876 -0.6133
12109SOL     OW39824   6.444   2.008   9.744 -0.2568  0.1510  0.0397
12109SOL    HW139825   6.437   1.912   9.751 -1.0179  0.1643 -0.4400
12109SOL    HW239826   6.356   2.040   9.764  0.1365  0.7929  0.7913
12110SOL     OW39827   8.238   7.484   5.485  0.0368  0.0332  0.6835
12110SOL    HW139828   8.276   7.400   5.514  0.4744  0.4986  1.4906
12110SOL    HW239829   8.218   7.470   5.392 -0.2147 -1.0786  0.8942
12111SOL     OW39830   2.979   0.069   3.633  0.1902 -0.4683 -0.6516
12111SOL    HW139831   2.962   0.162   3.616  0.3412 -0.1575  0.7502
12111SOL    HW239832   2.940   0.023   3.558 -2.9172  0.4912  0.2166
12112SOL     OW39833  10.191   2.500   2.935  0.6293  0.5584  0.2078
12112SOL    HW139834  10.135   2.558   2.883 -0.0281  0.5036  0.8313
12112SOL    HW239835  10.232   2.558   2.999  0.4231  0.4256  0.4607
12113SOL     OW39836   9.907   7.184   4.448  0.2943  0.6241  0.3091
12113SOL    HW139837   9.928   7.151   4.361 -0.8108  1.1250 -0.1597
12113SOL    HW239838   9.840   7.125   4.482  1.8531 -0.5500  1.5198
12114SOL     OW39839   7.951   4.425   5.863 -0.3106 -0.2894  0.1451
12114SOL    HW139840   7.900   4.345   5.849  1.0918 -1.1905  0.0025
12114SOL    HW239841   8.038   4.405   5.827  0.5458  0.7186  1.5498
12115SOL     OW39842   8.920   5.722   2.452  0.0076 -0.5858  0.3590
12115SOL    HW139843   8.925   5.626   2.459  0.4448 -0.6208 -0.3506
12115SOL    HW239844   8.829   5.739   2.429  0.1688 -0.9087 -0.5542
12116SOL     OW39845   7.206   8.359   8.360  0.4456  0.5914  0.4319
12116SOL    HW139846   7.127   8.320   8.323  0.8347 -1.1484  1.3542
12116SOL    HW239847   7.234   8.423   8.294 -0.0090 -0.9541 -1.3298
12117SOL     OW39848   3.025   2.704   3.319 -0.1263  0.1119  0.1654
12117SOL    HW139849   2.994   2.693   3.408 -0.3704  2.3028  0.3840
12117SOL    HW239850   3.116   2.733   3.328 -0.1978  0.4951 -0.2830
12118SOL     OW39851   7.625   6.683   6.166 -0.2182 -0.1197 -0.3546
12118SOL    HW139852   7.671   6.761   6.135  0.4706 -0.9985 -1.6319
12118SOL    HW239853   7.565   6.660   6.095  0.3278 -1.3261 -0.4610
12119SOL     OW39854   7.560   8.363   1.565  0.1455  0.1949  0.3715
12119SOL    HW139855   7.529   8.322   1.646 -0.0814 -0.4172 -0.0166
12119SOL    HW239856   7.481   8.398   1.524  0.1992  0.1291  0.2106
12120SOL     OW39857   7.373   2.829   5.955 -0.7817  0.3869  0.1428
12120SOL    HW139858   7.345   2.871   6.037  0.2858 -0.3658  0.9194
12120SOL    HW239859   7.468   2.835   5.957 -0.7175 -0.2520 -0.7165
12121SOL     OW39860   8.477   0.605   6.110  0.2050 -0.4164  0.3400
12121SOL    HW139861   8.503   0.588   6.020  1.0250 -4.5623  1.1757
12121SOL    HW239862   8.382   0.615   6.106  0.2649 -0.2065 -0.9871
12122SOL     OW39863   5.937  10.878   6.874 -0.0232 -0.1168  0.7642
12122SOL    HW139864   5.843  10.860   6.867  0.1367 -1.0050  0.7617
12122SOL    HW239865   5.945  10.938   6.948 -0.8285  1.9545 -0.7191
12123SOL     OW39866   4.005   7.054   7.486  0.2095 -0.6014  0.3127
12123SOL    HW139867   4.042   6.967   7.500  1.1479 -0.2978 -0.2618
12123SOL    HW239868   4.027   7.076   7.396 -1.3274 -0.3778 -0.0457
12124SOL     OW39869   6.598   8.425   4.061  0.5400 -0.3088  0.1561
12124SOL    HW139870   6.538   8.402   4.132 -0.1085 -0.9423 -0.5755
12124SOL    HW239871   6.578   8.362   3.992  1.0402  0.4052 -0.6532
12125SOL     OW39872   6.432   5.345   1.413  0.4168 -0.0170 -0.2260
12125SOL    HW139873   6.476   5.264   1.441 -0.4701 -0.2758  0.4541
12125SOL    HW239874   6.495   5.414   1.436  1.3187 -0.5086 -1.1021
12126SOL     OW39875   0.439   5.591   3.461 -0.8259 -0.5360 -0.0688
12126SOL    HW139876   0.513   5.592   3.401 -0.6711  0.2631  0.1291
12126SOL    HW239877   0.375   5.533   3.419  0.0662 -1.5670 -0.0370
12127SOL     OW39878   7.634   0.208  10.332  0.4492  0.1402  0.1559
12127SOL    HW139879   7.651   0.114  10.333  0.4677  0.1467  0.4974
12127SOL    HW239880   7.629   0.233  10.424 -0.0497  0.3845  0.0687
12128SOL     OW39881   7.211   8.660   9.868  0.7992  0.3727 -0.0758
12128SOL    HW139882   7.304   8.666   9.891  0.5482  1.7091  0.6813
12128SOL    HW239883   7.207   8.691   9.777  0.9263  1.9336  0.4095
12129SOL     OW39884   0.602   6.025   5.928 -0.4920  0.7775  0.1935
12129SOL    HW139885   0.592   6.048   5.835  0.1240 -0.5791 -0.2382
12129SOL    HW239886   0.684   6.068   5.954  0.3684 -0.3938 -0.4594
12130SOL     OW39887   5.345   7.396   6.383 -0.0079 -0.0456  0.1584
12130SOL    HW139888   5.329   7.322   6.440 -1.2414 -0.0875 -0.2163
12130SOL    HW239889   5.267   7.451   6.392  1.2320  1.6382  1.0534
12131SOL     OW39890   5.363   1.790   5.862  0.1665 -0.0821 -0.4294
12131SOL    HW139891   5.435   1.787   5.799 -0.8037  2.6988 -1.8243
12131SOL    HW239892   5.403   1.820   5.943  0.6517  1.3959 -1.1779
12132SOL     OW39893   8.555   9.533   4.876  0.6719 -0.5884 -0.7476
12132SOL    HW139894   8.629   9.512   4.819  1.0323 -1.1687 -0.0825
12132SOL    HW239895   8.594   9.544   4.962  0.1314  0.3082 -0.6097
12133SOL     OW39896   0.231   3.312   2.904 -0.1515  0.0622  0.0671
12133SOL    HW139897   0.233   3.321   2.809 -1.4501  0.5471  0.0658
12133SOL    HW239898   0.154   3.362   2.931  0.9604  1.0943  1.5021
12134SOL     OW39899   8.405   6.128   2.922  0.2112  0.6209 -0.1650
12134SOL    HW139900   8.331   6.149   2.865 -1.2969 -1.0870  1.0355
12134SOL    HW239901   8.399   6.191   2.994 -2.0869 -1.3551  1.5457
12135SOL     OW39902   4.439   6.760   1.523 -0.0904 -0.1063  0.1824
12135SOL    HW139903   4.406   6.790   1.439  1.4759 -0.7328 -0.6976
12135SOL    HW239904   4.534   6.765   1.515  0.1358  2.3513  2.8470
12136SOL     OW39905   7.370   6.466   8.494  0.0040  0.1653 -0.2839
12136SOL    HW139906   7.357   6.522   8.418  1.5799  1.0165  0.0284
12136SOL    HW239907   7.416   6.522   8.557  0.5636 -1.1395  0.4959
12137SOL     OW39908   9.884  10.001   3.105  0.9104  0.6540  0.2286
12137SOL    HW139909   9.933   9.922   3.128  0.8633  1.0708  1.8667
12137SOL    HW239910   9.813  10.003   3.169  0.4149  1.5723 -0.3462
12138SOL     OW39911   0.810  10.285   0.388  0.3069 -0.6332 -0.4802
12138SOL    HW139912   0.882  10.222   0.377  0.3689 -0.8813  1.1413
12138SOL    HW239913   0.825  10.324   0.474  0.4374  1.8673 -1.5523
12139SOL     OW39914   7.010   9.423   1.345  0.3133 -0.7424 -0.2786
12139SOL    HW139915   6.929   9.402   1.392  1.5142 -1.0839  1.7671
12139SOL    HW239916   6.987   9.416   1.252 -2.7604  2.0526  0.0775
12140SOL     OW39917  10.262   8.149   2.293  1.2663 -0.3283 -0.1507
12140SOL    HW139918  10.341   8.178   2.337 -0.2232  0.6543  2.0268
12140SOL    HW239919  10.269   8.053   2.291  2.4554 -0.2516  0.0362
12141SOL     OW39920  10.176  10.556  10.666 -0.7740  0.0900  0.1498
12141SOL    HW139921  10.165  10.470  10.706 -0.2079  0.7094  1.6963
12141SOL    HW239922  10.104  10.563  10.603 -0.5801 -1.6617 -0.3097
12142SOL     OW39923   8.998   1.833   9.731 -0.4942  0.5461  0.0118
12142SOL    HW139924   8.903   1.843   9.724 -0.6007  0.4065  1.0367
12142SOL    HW239925   9.010   1.779   9.809  0.4276  0.5828 -0.0987
12143SOL     OW39926   0.590   8.175   2.392  0.3264  0.4386  0.2938
12143SOL    HW139927   0.586   8.141   2.481  0.0132  0.1351  0.1672
12143SOL    HW239928   0.557   8.104   2.337  2.2026 -0.0615 -0.2656
12144SOL     OW39929   5.546   6.653   8.461  0.2313  0.4616 -0.4179
12144SOL    HW139930   5.451   6.652   8.447  0.1105  0.9654  0.3378
12144SOL    HW239931   5.582   6.683   8.377 -0.1182 -1.7236 -1.4263
12145SOL     OW39932   6.096   4.171   0.798 -0.2932  0.0011 -0.1835
12145SOL    HW139933   6.060   4.251   0.838 -0.6379 -0.6552  0.8534
12145SOL    HW239934   6.021   4.133   0.751 -0.1302  0.2794 -0.6728
12146SOL     OW39935   3.689  10.784   2.249  0.0575 -0.0867  0.0329
12146SOL    HW139936   3.604  10.750   2.277  0.2330 -0.4576  0.1098
12146SOL    HW239937   3.737  10.800   2.330 -0.0047  0.3055 -0.0022
12147SOL     OW39938   8.817   4.781   8.427 -0.5978  0.2225  0.1102
12147SOL    HW139939   8.868   4.837   8.369  2.1042 -0.2826  1.8047
12147SOL    HW239940   8.818   4.827   8.511 -1.2148 -0.7755  0.6775
12148SOL     OW39941  10.212   7.339   5.755 -0.2231 -0.6799 -0.4364
12148SOL    HW139942  10.232   7.267   5.814 -1.4201 -0.0417  0.7946
12148SOL    HW239943  10.135   7.381   5.793 -0.8348 -0.0378 -2.2725
12149SOL     OW39944   7.163   8.722  10.176 -0.1014  0.0999 -0.4700
12149SOL    HW139945   7.242   8.668  10.183 -0.0050  0.0235 -1.9637
12149SOL    HW239946   7.183   8.800  10.227  0.3601 -0.5536  0.3908
12150SOL     OW39947   3.124   9.623   9.340 -0.0985 -0.1475 -0.0575
12150SOL    HW139948   3.105   9.657   9.428 -1.8461 -1.3794  0.0822
12150SOL    HW239949   3.205   9.668   9.315 -1.4879  3.0253  0.6462
12151SOL     OW39950   5.508   2.427   7.763  0.4064 -0.8993 -0.7298
12151SOL    HW139951   5.541   2.467   7.683  1.9723  0.3843  0.4803
12151SOL    HW239952   5.430   2.478   7.784  0.7940 -0.2867 -0.7168
12152SOL     OW39953   2.978   4.664   1.735 -0.1454  0.7607 -0.4736
12152SOL    HW139954   3.001   4.731   1.670 -0.2804  0.6522 -0.6324
12152SOL    HW239955   3.062   4.626   1.760 -0.2119 -0.2607 -1.7210
12153SOL     OW39956  10.462   1.232   5.946  0.3095  0.4697 -0.8785
12153SOL    HW139957  10.469   1.276   5.861  0.1600  2.3729  0.0243
12153SOL    HW239958  10.527   1.277   6.001  0.2348 -0.5618  0.0813
12154SOL     OW39959   6.806   1.372   3.117  0.2790  0.0738 -0.0334
12154SOL    HW139960   6.745   1.430   3.161 -0.5619 -0.8099  0.0137
12154SOL    HW239961   6.817   1.299   3.178  2.0060  0.5738  0.2978
12155SOL     OW39962   6.287   1.063   2.917 -0.2579  0.1944 -0.3302
12155SOL    HW139963   6.321   0.975   2.935 -1.7904 -0.3915 -0.1215
12155SOL    HW239964   6.269   1.100   3.003 -0.4280  0.3743 -0.4421
12156SOL     OW39965   4.881   6.190   0.255 -0.2182  0.2138 -0.5280
12156SOL    HW139966   4.853   6.107   0.215  2.1872  0.1901 -2.3992
12156SOL    HW239967   4.906   6.245   0.181  0.0701  1.9259  0.7808
12157SOL     OW39968  10.837   2.036   7.306 -0.2692 -0.0131 -0.1329
12157SOL    HW139969  10.877   2.032   7.219  0.8554 -0.5447  0.3842
12157SOL    HW239970  10.828   2.130   7.324  0.7808  0.1328 -0.2701
12158SOL     OW39971   8.895   3.044   4.102 -1.0217  0.3966 -0.8032
12158SOL    HW139972   8.964   3.107   4.080  0.3384 -0.8304 -0.1938
12158SOL    HW239973   8.887   3.050   4.197 -0.5880 -0.6303 -0.6910
12159SOL     OW39974   3.648   6.530   4.166  0.0690 -0.0527  0.0995
12159SOL    HW139975   3.607   6.538   4.080  0.5314  0.3872 -0.0812
12159SOL    HW239976   3.640   6.437   4.188 -0.7693 -0.0296 -0.0590
12160SOL     OW39977   1.507   7.571   2.618  0.2299  0.4597 -0.1230
12160SOL    HW139978   1.478   7.646   2.565  0.6338  1.8070  1.4925
12160SOL    HW239979   1.594   7.595   2.648  0.3879 -0.7007  0.4105
12161SOL     OW39980   9.195   9.849   3.372  0.7345 -0.1298 -0.2835
12161SOL    HW139981   9.153   9.911   3.431 -0.6827 -0.7178 -0.6183
12161SOL    HW239982   9.261   9.805   3.425 -1.4732 -1.6896  1.3486
12162SOL     OW39983   6.590   5.083   4.179 -0.1960  0.1036  0.4015
12162SOL    HW139984   6.545   5.031   4.246 -1.1021  0.9074  0.4303
12162SOL    HW239985   6.604   5.021   4.107 -0.8093 -0.3188  0.6320
12163SOL     OW39986   5.661   8.863   6.828  0.7247  0.3939 -0.0152
12163SOL    HW139987   5.684   8.843   6.919 -1.1186 -1.0978  0.1830
12163SOL    HW239988   5.659   8.779   6.784 -0.7509  0.8227 -0.8312
12164SOL     OW39989   4.024  10.899   8.438  0.0351 -0.2743  0.8880
12164SOL    HW139990   4.017  10.851   8.355 -1.6568 -0.3639  1.0452
12164SOL    HW239991   4.103  10.864   8.479  1.0144 -0.1213 -0.7364
12165SOL     OW39992   6.306   4.448   1.190  0.0385 -0.7501 -0.2032
12165SOL    HW139993   6.353   4.365   1.197  0.8392 -0.3123 -0.3264
12165SOL    HW239994   6.324   4.480   1.101 -0.4231 -0.5318 -0.2271
12166SOL     OW39995   9.677   3.576  10.704  0.0972  0.6566  0.4533
12166SOL    HW139996   9.632   3.502  10.744  0.4932  0.5372  0.6778
12166SOL    HW239997   9.606   3.633  10.672 -0.2033 -0.0977 -0.2560
12167SOL     OW39998   1.968   0.431   4.830  0.1862  0.3124 -0.4631
12167SOL    HW139999   2.058   0.399   4.831 -0.7680 -2.9382 -2.9178
12167SOL    HW240000   1.955   0.462   4.740 -0.9898  1.4315  0.0648
12168SOL     OW40001   9.551   5.120   1.912 -0.4201  0.2762  0.7383
12168SOL    HW140002   9.595   5.111   1.996  1.4326  1.7123  0.0115
12168SOL    HW240003   9.589   5.051   1.857 -0.1057  0.6120  0.5246
12169SOL     OW40004   8.485   5.354   6.382  0.1889 -0.3118  0.0844
12169SOL    HW140005   8.435   5.363   6.462  2.2675 -0.6041  1.4980
12169SOL    HW240006   8.522   5.266   6.387  1.6245  0.2335 -0.3791
12170SOL     OW40007   8.184   0.893   5.305 -0.1068 -0.0610  0.5847
12170SOL    HW140008   8.190   0.864   5.396 -0.2238 -0.5206  0.4472
12170SOL    HW240009   8.204   0.815   5.254  1.5224  0.5422  0.2197
12171SOL     OW40010   7.813   2.604   8.612  0.0776 -0.1229 -0.2144
12171SOL    HW140011   7.826   2.698   8.597  0.4836 -0.1728 -0.2073
12171SOL    HW240012   7.795   2.597   8.705 -0.9810  0.0457 -0.4038
12172SOL     OW40013   6.782   4.773   9.335 -0.4447 -0.8283 -0.3545
12172SOL    HW140014   6.724   4.712   9.382 -1.1155 -0.4652 -0.7033
12172SOL    HW240015   6.788   4.736   9.247  1.5789 -2.0409  0.2184
12173SOL     OW40016   6.051   5.698   9.538 -0.2643 -0.3469  0.6987
12173SOL    HW140017   6.113   5.701   9.611  1.7715  1.0321 -0.9672
12173SOL    HW240018   6.014   5.786   9.534  0.7623  0.0535 -0.7865
12174SOL     OW40019   6.709   4.636  10.926 -0.8034  0.3143  0.5121
12174SOL    HW140020   6.701   4.669  10.836  0.1035 -0.7879  0.0022
12174SOL    HW240021   6.630   4.585  10.940  0.0235 -1.3245 -0.4815
12175SOL     OW40022   4.499  10.479   3.952  0.0812 -0.0808 -0.0839
12175SOL    HW140023   4.507  10.490   3.858 -3.5397 -0.1625 -0.5589
12175SOL    HW240024   4.526  10.563   3.989  1.1241  0.0941 -1.1881
12176SOL     OW40025   1.361  10.984   4.316  0.0072 -0.1699  0.5568
12176SOL    HW140026   1.420  11.059   4.318  1.2183 -1.1045  0.7493
12176SOL    HW240027   1.291  11.011   4.255  1.7443  0.1508 -1.4358
12177SOL     OW40028   6.214   2.939   2.810 -0.7450 -0.0642 -0.0823
12177SOL    HW140029   6.126   2.913   2.835 -0.8097  0.4928  0.2995
12177SOL    HW240030   6.211   3.035   2.806 -0.3487 -0.0701 -0.7857
12178SOL     OW40031   6.875   4.695   4.013 -0.5119 -0.0330 -0.3589
12178SOL    HW140032   6.816   4.718   4.085 -3.5284  0.6500 -2.8322
12178SOL    HW240033   6.854   4.603   3.994  0.7847 -0.4306  0.0465
12179SOL     OW40034   4.128   6.600   2.694  0.4680 -0.2167  0.1594
12179SOL    HW140035   4.130   6.664   2.766 -0.1556 -0.2826  0.2423
12179SOL    HW240036   4.218   6.595   2.664  0.8656 -0.6820  1.3770
12180SOL     OW40037   6.519   9.470   0.873  0.0806 -0.2170  0.8063
12180SOL    HW140038   6.601   9.443   0.832 -0.5587 -0.7435 -0.1541
12180SOL    HW240039   6.543   9.543   0.930  1.1843 -0.2625  0.4091
12181SOL     OW40040   5.044   2.599   4.640 -0.1688  0.6844 -0.1357
12181SOL    HW140041   5.084   2.660   4.702  1.0825 -1.0008  0.8135
12181SOL    HW240042   4.975   2.556   4.691 -0.5410  0.7563 -0.5702
12182SOL     OW40043   4.893  10.990   6.608 -0.4787  0.5000 -0.1455
12182SOL    HW140044   4.834  10.945   6.669 -0.6118 -0.4255 -0.9255
12182SOL    HW240045   4.902  11.079   6.643  1.2584 -0.6095  2.4821
12183SOL     OW40046   7.642   6.364   1.083  0.1994 -0.8254 -0.4295
12183SOL    HW140047   7.624   6.408   1.000 -0.0525  0.4844  0.2899
12183SOL    HW240048   7.561   6.317   1.103 -0.4069  0.3628 -0.0303
12184SOL     OW40049   4.632   2.641   6.655 -0.2793 -0.4456 -0.1861
12184SOL    HW140050   4.661   2.730   6.678 -0.9329 -0.3464  0.2776
12184SOL    HW240051   4.712   2.596   6.630  0.2024  0.0007  0.5037
12185SOL     OW40052   6.428   7.378   9.057 -0.8107  0.4616  0.4331
12185SOL    HW140053   6.464   7.329   9.131  0.8559  2.2443  0.8870
12185SOL    HW240054   6.407   7.464   9.094 -0.5538  1.1780 -1.0197
12186SOL     OW40055   3.896   1.024   5.583  0.0058  0.0570  0.1831
12186SOL    HW140056   3.979   1.070   5.596  0.2152 -0.6940  1.6431
12186SOL    HW240057   3.913   0.963   5.512  0.6408  0.0444  0.3466
12187SOL     OW40058   8.164   5.608   7.103 -0.1113 -0.0917 -0.7088
12187SOL    HW140059   8.117   5.618   7.185 -1.5140 -1.4625 -1.2995
12187SOL    HW240060   8.152   5.692   7.058 -0.0581  0.3591  0.1007
12188SOL     OW40061  10.516   2.704   7.392  0.3061 -0.2222  0.6913
12188SOL    HW140062  10.482   2.668   7.473 -0.3724 -0.0645  0.4803
12188SOL    HW240063  10.493   2.639   7.325  2.1520 -1.0770  0.8215
12189SOL     OW40064   0.477  10.694   6.910  0.0106  0.4785 -0.0576
12189SOL    HW140065   0.388  10.667   6.886  0.5482  0.5738 -2.4796
12189SOL    HW240066   0.528  10.677   6.831  2.1517  0.4905  1.2573
12190SOL     OW40067  10.571   9.682   3.605  0.0501  0.2371  0.0641
12190SOL    HW140068  10.489   9.716   3.568 -0.7339  0.0787  1.5939
12190SOL    HW240069  10.617   9.760   3.636  1.4724  0.5611 -2.5680
12191SOL     OW40070   8.125   0.007   8.334 -0.1625  0.2263 -0.0222
12191SOL    HW140071   8.052  -0.036   8.378 -0.5139  0.1655 -0.6431
12191SOL    HW240072   8.163   0.063   8.400 -0.4125 -0.1798  0.4773
12192SOL     OW40073   1.497   7.644   0.970 -0.0525 -0.0116  0.2532
12192SOL    HW140074   1.501   7.559   1.013  0.7375 -0.5744 -0.8830
12192SOL    HW240075   1.499   7.624   0.876  0.3935  1.2650 -0.0360
12193SOL     OW40076   1.328   3.532   6.965  0.1770  0.5239  0.4856
12193SOL    HW140077   1.301   3.546   7.056 -0.6998  1.6220  0.0824
12193SOL    HW240078   1.271   3.589   6.914 -1.4790 -2.2628 -1.0541
12194SOL     OW40079   1.165   5.530   4.989 -0.0154 -0.3719 -0.0775
12194SOL    HW140080   1.236   5.466   5.000  2.2464  2.1871  1.2806
12194SOL    HW240081   1.103   5.509   5.058  1.1497 -0.5616  0.9431
12195SOL     OW40082   9.737   8.452   4.035  0.2508  0.4816  0.4778
12195SOL    HW140083   9.828   8.445   4.006  0.3966  1.2796  0.7397
12195SOL    HW240084   9.727   8.379   4.097 -0.0223 -1.1599 -1.3775
12196SOL     OW40085   3.547   1.829   0.389  0.6022  0.1558 -0.0818
12196SOL    HW140086   3.621   1.807   0.331  0.4234  0.8579 -0.5934
12196SOL    HW240087   3.562   1.921   0.412 -0.5233  0.5371 -0.8244
12197SOL     OW40088   3.648   4.614   9.459  0.0631  0.0281 -0.3953
12197SOL    HW140089   3.591   4.621   9.536 -0.9799 -0.6972 -1.0714
12197SOL    HW240090   3.671   4.705   9.438 -0.7294  0.3317 -0.0131
12198SOL     OW40091   7.373   1.859   5.095 -0.2032  0.1397 -0.0939
12198SOL    HW140092   7.341   1.871   5.006  1.7159  0.1237 -0.8397
12198SOL    HW240093   7.324   1.785   5.129 -0.0658 -0.6742 -1.6085
12199SOL     OW40094   7.577   0.607   7.021  0.6151  0.4190 -0.5008
12199SOL    HW140095   7.490   0.644   7.002  1.4086  0.8817 -3.8045
12199SOL    HW240096   7.616   0.670   7.081 -0.9834  0.6681  0.3410
12200SOL     OW40097   5.035   8.893   8.245  0.0848  0.1726 -0.4056
12200SOL    HW140098   5.105   8.833   8.270 -0.1079  0.3325  0.5423
12200SOL    HW240099   5.008   8.935   8.327 -0.3937  0.8969 -0.9214
12201SOL     OW40100   6.546   9.424   3.471 -0.0625  0.2807  0.0719
12201SOL    HW140101   6.453   9.417   3.492 -0.0057 -0.1556  0.2004
12201SOL    HW240102   6.549   9.475   3.390 -0.6067 -1.7850 -1.3378
12202SOL     OW40103  10.934   2.983   7.823 -0.0482  0.0941  0.2029
12202SOL    HW140104  10.915   2.895   7.790 -0.7208  0.1251  0.4878
12202SOL    HW240105  10.852   3.012   7.863  0.9167 -0.2337  2.5819
12203SOL     OW40106   1.631  10.368   3.537  0.7013 -0.3008 -0.5788
12203SOL    HW140107   1.692  10.312   3.586  0.5855 -0.0730 -0.1679
12203SOL    HW240108   1.608  10.316   3.460 -0.1392 -1.2409  0.2583
12204SOL     OW40109   8.445   5.029  10.624 -0.3526 -0.3616  0.1647
12204SOL    HW140110   8.444   4.940  10.588 -0.1570 -0.5486  0.6097
12204SOL    HW240111   8.536   5.044  10.648 -0.6075 -0.5529  1.3197
12205SOL     OW40112  10.940  10.945   1.022 -0.5836  0.2858 -0.0685
12205SOL    HW140113  10.904  11.021   0.977 -0.3525  0.5630  0.2123
12205SOL    HW240114  10.951  10.974   1.113  1.5513  0.6271 -0.3972
12206SOL     OW40115   9.233   4.788   3.648  0.3333  0.3874 -0.1006
12206SOL    HW140116   9.206   4.874   3.680  0.5014  0.5284 -0.3262
12206SOL    HW240117   9.323   4.779   3.680  0.2562  0.2221  0.0667
12207SOL     OW40118   1.387   3.786   6.104  0.3815  0.4238 -0.3100
12207SOL    HW140119   1.471   3.763   6.064  0.1418 -1.0213 -0.0465
12207SOL    HW240120   1.410   3.849   6.173  1.3435 -0.3929  0.1546
12208SOL     OW40121   1.702   1.887   5.100  0.1734  0.5008  0.3019
12208SOL    HW140122   1.777   1.943   5.079 -0.0077  0.8133  0.4761
12208SOL    HW240123   1.688   1.835   5.021  0.7395  0.2495  0.3658
12209SOL     OW40124   1.832   4.520   6.596  0.1936  0.2838 -0.7758
12209SOL    HW140125   1.913   4.508   6.546 -0.0771 -2.5064 -0.7272
12209SOL    HW240126   1.860   4.553   6.681  1.4993 -1.8188 -0.3185
12210SOL     OW40127   4.775   4.186   5.366 -0.0603  0.0039  0.2308
12210SOL    HW140128   4.700   4.201   5.309  0.1995  0.2740 -0.0432
12210SOL    HW240129   4.761   4.098   5.402 -0.5222  0.0669  0.2079
12211SOL     OW40130   8.318   2.080   7.737 -0.0441  0.1193  0.0538
12211SOL    HW140131   8.307   2.099   7.644  4.0261 -0.6280 -0.7482
12211SOL    HW240132   8.297   1.987   7.745  1.7532 -0.3729 -0.6349
12212SOL     OW40133   4.374   0.699   1.147 -0.2399  0.2750  0.5147
12212SOL    HW140134   4.402   0.777   1.193 -1.1641  0.4353  0.8175
12212SOL    HW240135   4.441   0.685   1.080  0.3480  0.8570  0.9773
12213SOL     OW40136   6.372   2.750   8.838  0.1143  0.0656 -0.6007
12213SOL    HW140137   6.387   2.655   8.837 -1.0750 -0.1954  1.4154
12213SOL    HW240138   6.454   2.786   8.871 -0.5142 -0.6096  1.9335
12214SOL     OW40139   9.634  10.195   4.643  0.5199  0.1915 -0.4749
12214SOL    HW140140   9.700  10.233   4.702 -0.0426  1.3525 -0.5707
12214SOL    HW240141   9.563  10.258   4.643  0.0493 -0.3167 -1.5712
12215SOL     OW40142   9.706   4.359   8.999  0.0366 -0.0996  0.0148
12215SOL    HW140143   9.665   4.378   8.915  1.1157 -0.4288 -0.5988
12215SOL    HW240144   9.787   4.409   8.998  0.6121 -1.0113  0.3751
12216SOL     OW40145   6.060  10.059   0.872 -0.3017  0.5004  0.1676
12216SOL    HW140146   6.057  10.127   0.805 -0.9465  0.3477  0.0397
12216SOL    HW240147   5.968  10.044   0.895 -0.1470 -0.1760  0.3500
12217SOL     OW40148   7.430   7.352   2.792  0.1204 -0.2789  0.4354
12217SOL    HW140149   7.421   7.264   2.755  0.8192 -0.3177  0.3499
12217SOL    HW240150   7.485   7.340   2.869  2.1365  0.3922 -0.8174
12218SOL     OW40151   7.614   7.768   4.511 -0.4707 -0.2136 -0.1515
12218SOL    HW140152   7.567   7.806   4.584 -1.3565  0.7136 -1.1674
12218SOL    HW240153   7.631   7.841   4.452 -0.3043 -1.0334 -1.1514
12219SOL     OW40154   8.658   7.435   9.096  0.4029 -0.0983 -0.0765
12219SOL    HW140155   8.697   7.521   9.113  2.8429 -0.7865 -1.6498
12219SOL    HW240156   8.564   7.452   9.087  0.7507  2.2868  0.2845
12220SOL     OW40157   6.831   1.273   9.821  0.4891  0.1204  0.0640
12220SOL    HW140158   6.912   1.321   9.842  1.4582 -0.0456 -2.9324
12220SOL    HW240159   6.770   1.341   9.792  0.3524 -0.0239  0.0162
12221SOL     OW40160   7.509   8.306  10.287  0.0973  0.0890 -0.3053
12221SOL    HW140161   7.547   8.228  10.246  1.1867  0.3193  0.2377
12221SOL    HW240162   7.536   8.300  10.378  0.5254  1.2969 -0.3368
12222SOL     OW40163   7.763   1.979   3.911  0.7727 -0.0330 -0.2871
12222SOL    HW140164   7.677   1.964   3.874  1.1188 -0.5151 -0.9064
12222SOL    HW240165   7.786   1.896   3.954  0.6335  0.3207  0.5024
12223SOL     OW40166  10.305   9.213   0.526  0.3779  0.0900  0.1845
12223SOL    HW140167  10.212   9.236   0.531 -0.0416 -1.4615 -0.0410
12223SOL    HW240168  10.310   9.124   0.561  1.5327 -0.4464 -1.2587
12224SOL     OW40169   6.562   9.621   8.530 -0.2010 -0.1617  0.4210
12224SOL    HW140170   6.528   9.658   8.448  1.9806 -1.1531 -1.0528
12224SOL    HW240171   6.583   9.697   8.584 -0.0999  0.5853 -0.6406
12225SOL     OW40172   5.617   5.184   1.793 -0.4036  0.0710 -0.2878
12225SOL    HW140173   5.525   5.196   1.771 -0.2261  0.3692 -0.8999
12225SOL    HW240174   5.630   5.090   1.797 -0.8785  0.0347  0.4198
12226SOL     OW40175   4.446   1.319   8.199  0.0823 -0.2155 -0.7594
12226SOL    HW140176   4.375   1.362   8.151 -2.0853 -2.0043  0.6250
12226SOL    HW240177   4.460   1.373   8.276  0.8276  0.5763 -1.4366
12227SOL     OW40178   0.161   0.495   3.724 -0.1020 -0.1600  0.0257
12227SOL    HW140179   0.212   0.555   3.778  1.2226 -0.3513 -0.9680
12227SOL    HW240180   0.118   0.551   3.660  0.8611 -0.2041 -0.6857
12228SOL     OW40181   8.802   1.187   9.714  0.2025  0.1079  0.0540
12228SOL    HW140182   8.867   1.192   9.785 -0.1319 -0.3138  0.4025
12228SOL    HW240183   8.765   1.275   9.709 -1.1841 -0.3183  1.7861
12229SOL     OW40184   4.588   8.033   5.622 -0.0844 -0.4966  0.0179
12229SOL    HW140185   4.621   8.064   5.706  0.8572 -1.2421 -0.0557
12229SOL    HW240186   4.499   8.067   5.617  0.8944  2.3036 -0.1423
12230SOL     OW40187   4.064   0.087   6.135  0.3511  0.2393 -0.5778
12230SOL    HW140188   4.083   0.013   6.077  1.0807 -0.9213  1.0708
12230SOL    HW240189   4.150   0.114   6.168 -0.0534  0.9101 -0.0561
12231SOL     OW40190   4.407   0.461   1.277 -0.3632 -0.9741 -0.3683
12231SOL    HW140191   4.436   0.464   1.368 -3.3676 -2.2493  0.7253
12231SOL    HW240192   4.365   0.546   1.263  0.4745 -0.6100 -0.7372
12232SOL     OW40193   2.770   9.156   2.277  0.4902 -0.5130 -0.2025
12232SOL    HW140194   2.773   9.077   2.222  0.9835 -0.9574  0.4466
12232SOL    HW240195   2.860   9.187   2.279  0.6518 -0.9930  1.0365
12233SOL     OW40196   7.360   4.390   9.193 -0.1319  0.3367  0.2352
12233SOL    HW140197   7.280   4.411   9.239  0.4659  0.2972  1.3190
12233SOL    HW240198   7.362   4.294   9.190 -0.0154  0.3339  0.4045
12234SOL     OW40199   5.385   3.894   5.341  0.3673  0.4304  0.5394
12234SOL    HW140200   5.438   3.968   5.370 -0.9160  1.1680  1.1198
12234SOL    HW240201   5.433   3.817   5.371  2.2305  0.9614 -0.9375
12235SOL     OW40202   1.720   4.864   6.715 -0.5508  0.1393 -0.7265
12235SOL    HW140203   1.625   4.865   6.728 -0.3146 -0.4082  1.5219
12235SOL    HW240204   1.742   4.954   6.689 -1.5902  0.5150 -0.3459
12236SOL     OW40205  10.621   7.902   7.928  0.2832  0.1290  0.3090
12236SOL    HW140206  10.634   7.887   7.834  0.4254  0.0414  0.3433
12236SOL    HW240207  10.709   7.898   7.965  0.3514  1.1727  0.2966
12237SOL     OW40208   9.063   9.224   6.237  0.2291 -0.4631 -0.0656
12237SOL    HW140209   8.975   9.189   6.223 -0.7265  1.8474 -0.3477
12237SOL    HW240210   9.099   9.172   6.308 -1.2846 -1.5987 -0.0918
12238SOL     OW40211   6.826   5.939   5.051  0.0024 -0.9031 -0.3518
12238SOL    HW140212   6.738   5.967   5.028  0.1849 -0.1103 -0.1165
12238SOL    HW240213   6.884   6.003   5.009  0.3908 -0.2437  1.0946
12239SOL     OW40214   9.105   0.742   5.740  0.3195  0.0470  0.2938
12239SOL    HW140215   9.113   0.775   5.650  0.7754  0.5187  0.4988
12239SOL    HW240216   9.059   0.813   5.786  0.9960  0.2503  0.6622
12240SOL     OW40217   5.743   6.094   9.703  0.3448  0.5335 -0.3863
12240SOL    HW140218   5.700   6.088   9.789 -0.6222  0.4192 -0.8608
12240SOL    HW240219   5.786   6.180   9.704  2.0856 -0.2805  0.9655
12241SOL     OW40220  10.907   7.449   2.122 -0.1183 -0.1127  0.5291
12241SOL    HW140221  10.899   7.429   2.028 -1.1400 -1.6106  0.8899
12241SOL    HW240222  10.890   7.543   2.128 -0.5430 -0.0893 -0.7522
12242SOL     OW40223   1.074   7.780   2.066  0.5078 -0.6447 -0.9487
12242SOL    HW140224   0.998   7.816   2.021 -0.3559  0.8338  1.5400
12242SOL    HW240225   1.038   7.723   2.134  1.5889  0.1177  0.3032
12243SOL     OW40226   4.679   6.586   8.637 -0.1437 -0.0878  0.1953
12243SOL    HW140227   4.622   6.619   8.706  0.2571  0.2257  0.3822
12243SOL    HW240228   4.730   6.662   8.610  0.7738 -0.5366  0.6185
12244SOL     OW40229   3.190   4.930   2.727 -0.1310  0.0488 -0.4335
12244SOL    HW140230   3.163   4.937   2.636  1.5354  0.2534 -0.9399
12244SOL    HW240231   3.152   4.847   2.757 -1.5809  0.4790 -0.9604
12245SOL     OW40232   2.824   7.619   6.619  0.1181  0.3581 -0.3389
12245SOL    HW140233   2.816   7.696   6.674  0.0488  2.0826 -2.6199
12245SOL    HW240234   2.890   7.642   6.554 -0.4867 -1.1996 -1.5851
12246SOL     OW40235   5.522   4.031   0.015 -0.1206  0.9204  0.2988
12246SOL    HW140236   5.561   4.052   0.099 -2.0793  2.0203  1.0023
12246SOL    HW240237   5.571   4.083  -0.048  0.2938  1.3805  0.9899
12247SOL     OW40238   5.717   0.220  10.623  0.0403  0.3906  0.1011
12247SOL    HW140239   5.789   0.186  10.568 -1.3685 -1.4731 -0.7056
12247SOL    HW240240   5.682   0.143  10.667 -2.4996  0.9304 -0.7824
12248SOL     OW40241   3.527   5.180   4.672 -0.0889  0.2233  0.1951
12248SOL    HW140242   3.537   5.255   4.613  1.3415  1.0429  1.3841
12248SOL    HW240243   3.530   5.219   4.760 -1.0153 -1.0741  0.8334
12249SOL     OW40244   5.743   5.438   0.618 -0.5318  0.1833  0.0469
12249SOL    HW140245   5.699   5.468   0.698  0.5941  0.8689  0.4315
12249SOL    HW240246   5.773   5.519   0.576 -0.6798 -0.2049 -0.8180
12250SOL     OW40247   2.932  10.563   2.598 -0.3097  0.0633 -0.2922
12250SOL    HW140248   2.973  10.608   2.672 -0.2030 -1.4749  0.6267
12250SOL    HW240249   3.005  10.541   2.540  0.3467 -2.7990  1.4111
12251SOL     OW40250   4.953   0.374   9.290  0.1722  0.1806 -1.0593
12251SOL    HW140251   4.993   0.302   9.240 -0.1297 -1.5138  1.0106
12251SOL    HW240252   5.028   0.425   9.321  0.6539 -1.2477  0.2772
12252SOL     OW40253   5.870   8.279   6.530 -0.1143  0.2207 -0.2075
12252SOL    HW140254   5.843   8.214   6.594  0.5347  0.1488  0.0030
12252SOL    HW240255   5.821   8.257   6.450  0.2303 -0.6296 -0.1886
12253SOL     OW40256   8.210   6.705   2.195  0.0255 -0.6704  0.4488
12253SOL    HW140257   8.231   6.793   2.162  2.5068 -1.6026 -0.6220
12253SOL    HW240258   8.219   6.713   2.290  1.6132 -0.0498  0.2785
12254SOL     OW40259   5.362   4.761   7.244  0.7314  0.3215  0.0183
12254SOL    HW140260   5.319   4.686   7.283  0.4831  0.7775  0.6473
12254SOL    HW240261   5.293   4.826   7.232  1.2208  1.0939  1.1231
12255SOL     OW40262   8.567   9.973  10.117 -0.1650 -0.3695 -0.4153
12255SOL    HW140263   8.473   9.968  10.098 -0.4099 -0.2479  0.6823
12255SOL    HW240264   8.588  10.066  10.110 -0.0886 -0.4162 -0.8165
12256SOL     OW40265   0.779   9.337   5.451  0.4085  0.0308  0.1542
12256SOL    HW140266   0.831   9.406   5.408 -1.6282  1.2849 -0.4485
12256SOL    HW240267   0.820   9.255   5.423  1.1611  0.9113 -1.5025
12257SOL     OW40268  10.364   4.915   2.340  0.1766  0.1975 -0.0524
12257SOL    HW140269  10.309   4.841   2.365  1.1763 -0.0690  1.5207
12257SOL    HW240270  10.319   4.956   2.266 -2.5354  0.4471  1.6157
12258SOL     OW40271   9.603   9.526   7.450  0.3847  0.0729  0.3685
12258SOL    HW140272   9.642   9.453   7.497  0.9391 -0.9378 -1.5333
12258SOL    HW240273   9.514   9.497   7.429  0.2980  0.3098  0.4057
12259SOL     OW40274   9.967   9.113   5.734 -0.2068  0.1383 -0.6571
12259SOL    HW140275   9.916   9.175   5.787 -1.1223 -0.8599 -0.3373
12259SOL    HW240276   9.905   9.080   5.669  0.0674 -0.9717 -0.3720
12260SOL     OW40277   3.791   9.277   4.746 -0.1291  0.1866  0.4981
12260SOL    HW140278   3.762   9.190   4.719  0.1934  0.5016 -0.9349
12260SOL    HW240279   3.872   9.261   4.795 -0.1379 -0.3213  0.3545
12261SOL     OW40280   3.284   4.499   4.033 -0.2873 -0.0397  0.4411
12261SOL    HW140281   3.191   4.504   4.052 -0.1809 -0.2762  1.0663
12261SOL    HW240282   3.307   4.407   4.047 -0.2978 -0.3588 -1.4163
12262SOL     OW40283   2.617   6.853   3.897  0.0231 -0.2431  0.1382
12262SOL    HW140284   2.550   6.917   3.873  0.6078  1.3552  2.4153
12262SOL    HW240285   2.699   6.902   3.894  0.7535 -1.4266  0.1110
12263SOL     OW40286   7.947   4.065   6.061 -0.2129 -0.1452 -0.1150
12263SOL    HW140287   7.896   3.996   6.104  0.9161 -1.0453 -0.1594
12263SOL    HW240288   8.024   4.076   6.118  0.9441 -0.8424 -1.4786
12264SOL     OW40289   3.653   2.135   5.983  0.0667  0.4374 -0.4046
12264SOL    HW140290   3.596   2.180   6.045  0.9458 -0.4277  1.0795
12264SOL    HW240291   3.679   2.204   5.921 -1.2937  1.1900 -0.1795
12265SOL     OW40292   7.856   0.216   5.902 -0.0864  0.0679  0.1856
12265SOL    HW140293   7.799   0.172   5.840  2.2801 -0.9219 -1.4511
12265SOL    HW240294   7.910   0.274   5.848  1.1436  0.1871  1.4885
12266SOL     OW40295   0.942   2.076   3.574  0.5239  0.1291 -0.1193
12266SOL    HW140296   0.950   1.993   3.529  1.2153 -0.6359  1.3469
12266SOL    HW240297   0.945   2.054   3.667  0.3569  1.7501  0.3138
12267SOL     OW40298   0.740   2.919   7.106  0.8506  0.3385  0.1299
12267SOL    HW140299   0.737   2.998   7.052 -0.5462 -0.2707 -0.7327
12267SOL    HW240300   0.725   2.950   7.195  2.1659  1.2358  0.0717
12268SOL     OW40301   7.333   9.427   1.662 -0.4961  0.1499 -0.3032
12268SOL    HW140302   7.280   9.492   1.614 -0.7619  0.9192  0.9974
12268SOL    HW240303   7.293   9.343   1.639 -0.9521  0.5386 -1.0017
12269SOL     OW40304   4.883   8.202   5.040  0.1601  0.4090  0.3726
12269SOL    HW140305   4.834   8.175   5.117 -0.3346  0.8492  0.2230
12269SOL    HW240306   4.868   8.132   4.976  0.9690 -0.1912  0.8345
12270SOL     OW40307   5.530   9.731  10.500 -0.5933 -0.1717  0.3576
12270SOL    HW140308   5.498   9.790  10.432 -1.2087 -1.9993 -1.0151
12270SOL    HW240309   5.454   9.716  10.557 -0.4154  0.3882  0.7521
12271SOL     OW40310   2.177   2.803   1.248 -0.4625  0.9170 -0.1140
12271SOL    HW140311   2.244   2.812   1.316  1.1424  1.2483 -1.6422
12271SOL    HW240312   2.098   2.776   1.294  1.5773 -3.2407  1.4424
12272SOL     OW40313  10.161   5.565   0.363  0.0770  0.2872 -0.0438
12272SOL    HW140314  10.157   5.475   0.330  1.2036 -0.2727  1.2665
12272SOL    HW240315  10.254   5.588   0.361  0.0642  0.6312  1.6281
12273SOL     OW40316   4.864   1.804   2.798 -0.1758 -0.1511 -0.1278
12273SOL    HW140317   4.933   1.773   2.856 -0.1759  2.0456  1.1733
12273SOL    HW240318   4.865   1.744   2.724  1.5288 -1.5566  0.9652
12274SOL     OW40319   4.679   2.381   5.972 -0.1059  0.6342  0.2761
12274SOL    HW140320   4.689   2.437   6.049  0.6050  0.9533 -0.0421
12274SOL    HW240321   4.730   2.302   5.994  0.2607  0.8074  0.0595
12275SOL     OW40322   0.660   0.205   9.484 -0.2788 -0.4201 -0.0537
12275SOL    HW140323   0.694   0.156   9.409 -0.2613  0.4133 -0.6019
12275SOL    HW240324   0.566   0.187   9.484 -0.0727 -1.5870  0.6096
12276SOL     OW40325   5.926   5.429   6.919  0.4455 -0.3378 -0.3327
12276SOL    HW140326   6.012   5.391   6.931  0.7384  0.7713  1.5867
12276SOL    HW240327   5.867   5.354   6.909  1.4192 -1.1565 -0.0534
12277SOL     OW40328   3.097   5.555   7.760  0.1259  0.1180 -0.0206
12277SOL    HW140329   3.006   5.560   7.732  1.0555 -0.3128 -3.5189
12277SOL    HW240330   3.097   5.490   7.831 -2.1357 -0.6226 -0.6362
12278SOL     OW40331   9.740   9.101   1.009  0.1765 -0.8039 -0.0087
12278SOL    HW140332   9.767   9.162   0.940  0.8431 -0.8342  0.2188
12278SOL    HW240333   9.719   9.020   0.962 -2.3349  0.0572 -0.5031
12279SOL     OW40334   0.217   9.510   7.491 -0.3375 -0.5455 -0.1196
12279SOL    HW140335   0.274   9.518   7.414 -0.6581  0.5886 -0.2585
12279SOL    HW240336   0.128   9.508   7.455 -0.4131 -2.5114  0.0804
12280SOL     OW40337   1.186   8.023   7.451 -0.0216 -0.2057 -0.1115
12280SOL    HW140338   1.253   7.956   7.461 -1.1612 -1.2516  0.8941
12280SOL    HW240339   1.209   8.069   7.370  1.2197 -1.2990 -0.4110
12281SOL     OW40340   4.714   9.783   9.958  0.4942  0.2179 -0.2727
12281SOL    HW140341   4.716   9.876   9.937 -0.5830 -0.0180 -1.5815
12281SOL    HW240342   4.779   9.744   9.900  0.5117  0.0738 -0.1572
12282SOL     OW40343   2.162   2.557   7.514 -0.0583 -0.1589  0.0243
12282SOL    HW140344   2.229   2.616   7.480 -0.6047 -0.6931 -2.1472
12282SOL    HW240345   2.210   2.478   7.540  0.3819  0.2484  0.4494
12283SOL     OW40346   4.096   9.886  10.305  0.5757  0.0581 -0.3423
12283SOL    HW140347   4.080   9.886  10.400 -1.4733 -0.0771 -0.6318
12283SOL    HW240348   4.104   9.793  10.283 -0.1611  0.0126 -0.4515
12284SOL     OW40349   5.096   0.640   7.904  0.0582 -0.4662  0.1042
12284SOL    HW140350   5.048   0.568   7.945 -0.4613  0.0585  0.4177
12284SOL    HW240351   5.029   0.697   7.867  0.4218  0.3993  0.7512
12285SOL     OW40352   7.437   2.746   4.487  0.1054  0.1230  0.5816
12285SOL    HW140353   7.397   2.712   4.567  0.2706  0.6141  0.8775
12285SOL    HW240354   7.451   2.669   4.432 -0.3332 -0.1745  0.8796
12286SOL     OW40355   8.929   8.092   3.566  0.4005  0.0345 -0.2810
12286SOL    HW140356   8.950   8.026   3.501 -1.8890 -1.0409 -0.0364
12286SOL    HW240357   8.919   8.174   3.516  2.7558  0.1438 -0.6505
12287SOL     OW40358   0.147   3.694   1.891  0.2461  0.2991 -0.5839
12287SOL    HW140359   0.114   3.667   1.805 -0.1977  1.2846 -0.7435
12287SOL    HW240360   0.068   3.706   1.944  0.5605 -1.4859  0.3604
12288SOL     OW40361   8.369   5.362   3.183  0.5429 -0.5689 -0.5452
12288SOL    HW140362   8.370   5.331   3.092 -0.6444  1.1500 -1.2000
12288SOL    HW240363   8.337   5.287   3.233 -0.5674 -0.9983 -1.8193
12289SOL     OW40364  10.940   8.115   2.814  0.0283  0.3164 -0.1202
12289SOL    HW140365  10.875   8.182   2.794  1.3168  1.9187  0.8161
12289SOL    HW240366  10.917   8.083   2.901 -0.2757 -0.1010 -0.3484
12290SOL     OW40367   7.067   7.499   9.621 -0.0894  0.0949  0.9573
12290SOL    HW140368   7.134   7.432   9.609  0.2393  0.2923  1.6619
12290SOL    HW240369   7.005   7.461   9.683 -0.2608  0.1827  0.8412
12291SOL     OW40370   4.535   9.121   1.112  0.5453  0.0581 -0.1880
12291SOL    HW140371   4.491   9.121   1.197 -1.6376  1.4087 -1.2365
12291SOL    HW240372   4.593   9.197   1.115  0.1742  0.3397 -0.0365
12292SOL     OW40373   5.466   8.969   2.684 -0.1976 -0.0693  0.1274
12292SOL    HW140374   5.415   8.889   2.692 -0.4690  0.2559  2.1655
12292SOL    HW240375   5.521   8.971   2.762  2.0664  0.2361 -1.3792
12293SOL     OW40376   6.739   9.343   3.649  0.0933  0.2294 -0.1589
12293SOL    HW140377   6.684   9.381   3.581 -0.6891  1.1305  0.9331
12293SOL    HW240378   6.680   9.331   3.724  1.2883  0.9562  0.9489
12294SOL     OW40379   0.965   5.543   3.108 -0.7065 -0.2688 -0.6138
12294SOL    HW140380   0.874   5.561   3.130  0.3982  0.7799  4.7191
12294SOL    HW240381   1.015   5.604   3.163  3.2451 -1.0396 -2.9818
12295SOL     OW40382   3.885  10.541   7.840  0.2623  0.4728 -1.2541
12295SOL    HW140383   3.972  10.578   7.827  0.9582 -1.1503 -1.4046
12295SOL    HW240384   3.834  10.575   7.767  0.8550  1.1418 -1.3716
12296SOL     OW40385   1.551   1.511  10.889 -0.3358 -0.2717  0.0325
12296SOL    HW140386   1.565   1.591  10.939 -0.3396 -1.0663  1.3856
12296SOL    HW240387   1.538   1.540  10.799 -3.1369  1.5254  0.8522
12297SOL     OW40388   1.469   9.897  10.555  0.3824  0.8095 -0.0295
12297SOL    HW140389   1.414   9.822  10.578  0.6982  0.7349  0.4739
12297SOL    HW240390   1.538   9.860  10.500  0.8035  0.6483  0.5961
12298SOL     OW40391   7.993   5.533   0.128  0.0597 -0.1910 -0.4928
12298SOL    HW140392   8.027   5.612   0.087 -0.0174  1.1866  1.9529
12298SOL    HW240393   8.047   5.462   0.092  1.4854  1.2012 -1.2076
12299SOL     OW40394   1.022   9.574   9.270 -0.1360  0.2951  0.0406
12299SOL    HW140395   1.026   9.626   9.189  0.2439  2.0163  1.1269
12299SOL    HW240396   1.004   9.637   9.339 -1.6367 -1.2831  1.2061
12300SOL     OW40397   0.670   4.718   0.796  0.2140 -0.0291  0.1062
12300SOL    HW140398   0.590   4.669   0.818  0.4407 -0.0924  0.8170
12300SOL    HW240399   0.638   4.805   0.773 -0.1695 -0.4336 -0.9300
12301SOL     OW40400   4.916   0.121   4.678  0.2641 -0.6844 -0.2548
12301SOL    HW140401   4.866   0.039   4.671  0.6869 -0.8879 -0.8871
12301SOL    HW240402   4.919   0.138   4.772 -0.1121 -1.2167 -0.1383
12302SOL     OW40403  10.951   6.112   5.199  0.2401  0.0193  0.4949
12302SOL    HW140404  10.944   6.095   5.105 -1.2075 -1.1618  0.7764
12302SOL    HW240405  10.933   6.027   5.240 -1.1194  0.9288  1.8701
12303SOL     OW40406   8.869   3.676   8.717  0.1789  0.3347  0.2345
12303SOL    HW140407   8.824   3.679   8.802 -1.5884  0.4523 -0.6545
12303SOL    HW240408   8.854   3.762   8.678 -1.0624 -0.4472 -1.1390
12304SOL     OW40409   6.372  10.139   0.521 -0.0305 -0.2653  0.1291
12304SOL    HW140410   6.411  10.052   0.530  1.6173 -0.1565 -4.0340
12304SOL    HW240411   6.279  10.122   0.503  0.1367 -1.0944  0.0142
12305SOL     OW40412   7.048   4.447   1.397  0.6934 -0.1030 -0.3558
12305SOL    HW140413   7.016   4.359   1.377  0.6206 -0.4537  1.2231
12305SOL    HW240414   6.975   4.490   1.441  0.9373  0.5465 -0.5711
12306SOL     OW40415   6.505   3.392   3.728  0.0257  0.3277  0.5780
12306SOL    HW140416   6.593   3.408   3.763 -0.0414 -0.6655  1.2421
12306SOL    HW240417   6.450   3.455   3.774  0.2459  0.3057  0.8808
12307SOL     OW40418   4.546   0.028   3.658  0.6126 -0.3261 -0.0504
12307SOL    HW140419   4.539   0.013   3.753 -1.1618 -0.6458 -0.1929
12307SOL    HW240420   4.488   0.102   3.641 -1.0959 -1.8460 -1.2030
12308SOL     OW40421   2.887   9.689   1.702 -0.7729 -0.0174  0.0156
12308SOL    HW140422   2.958   9.688   1.766 -0.2818  0.1957 -0.5136
12308SOL    HW240423   2.895   9.605   1.656 -0.1567  0.4631 -0.7874
12309SOL     OW40424   0.723   6.973   3.608  0.5633  0.0225  0.3387
12309SOL    HW140425   0.675   6.916   3.548 -0.5329  0.4143  0.8136
12309SOL    HW240426   0.700   6.941   3.695  0.4829  0.7644  0.5982
12310SOL     OW40427   4.024   8.111   1.549 -0.4351  0.1253  0.0967
12310SOL    HW140428   4.034   8.034   1.606 -1.5917  0.3007  0.5538
12310SOL    HW240429   3.938   8.100   1.509  0.4674 -0.1459 -1.8770
12311SOL     OW40430   7.891   7.157   4.486 -0.0177 -0.4680  0.0068
12311SOL    HW140431   7.936   7.106   4.554 -0.7578 -0.1042  0.7875
12311SOL    HW240432   7.945   7.235   4.474 -0.4746  0.0165  1.0131
12312SOL     OW40433   0.485   2.129   1.396 -0.5344 -0.1790 -0.0405
12312SOL    HW140434   0.518   2.151   1.483 -1.8028  1.7040  0.0339
12312SOL    HW240435   0.563   2.103   1.346  0.3971 -0.0113  1.2885
12313SOL     OW40436   9.333   4.719   1.409 -0.0745 -0.1764 -0.0799
12313SOL    HW140437   9.241   4.708   1.384 -0.3159 -2.9138  1.6141
12313SOL    HW240438   9.333   4.797   1.465 -1.4821 -0.4551  0.3480
12314SOL     OW40439   5.797   0.967   1.187  0.5242  0.1358  0.2265
12314SOL    HW140440   5.795   0.980   1.282 -1.7813  0.2805  0.2156
12314SOL    HW240441   5.887   0.943   1.168  0.7433 -1.3417  2.6708
12315SOL     OW40442   9.476   0.565   3.733 -0.9116  0.8103 -0.0963
12315SOL    HW140443   9.502   0.526   3.650  1.1233  0.0951  0.8131
12315SOL    HW240444   9.394   0.610   3.714 -2.2149 -1.9833 -1.7421
12316SOL     OW40445   1.391   8.057   9.231 -0.0903 -0.2805 -0.0170
12316SOL    HW140446   1.482   8.087   9.221  0.0562 -0.8592 -0.4764
12316SOL    HW240447   1.359   8.105   9.307  0.4666  0.2535 -0.1040
12317SOL     OW40448   0.256   6.496   3.129 -0.5350  0.0767 -0.2419
12317SOL    HW140449   0.189   6.534   3.072 -0.8050  0.4079  0.2920
12317SOL    HW240450   0.227   6.515   3.218  1.9648  3.3658  0.0679
12318SOL     OW40451   2.448  10.598   7.530 -0.3534 -0.3746 -0.4050
12318SOL    HW140452   2.523  10.651   7.502  0.7973 -1.7548 -0.0639
12318SOL    HW240453   2.402  10.577   7.449  0.8657 -1.2880 -0.8878
12319SOL     OW40454   5.795   9.533   7.896 -0.1663 -0.4914 -0.2454
12319SOL    HW140455   5.784   9.598   7.826 -0.5867  1.1288  1.2532
12319SOL    HW240456   5.884   9.501   7.884  0.2284  0.7197 -0.7752
12320SOL     OW40457   6.263   8.829   4.123  0.3276 -0.5351 -0.2530
12320SOL    HW140458   6.274   8.772   4.199 -1.1861 -0.6965 -0.1247
12320SOL    HW240459   6.344   8.818   4.073  1.3319 -0.4745  1.2754
12321SOL     OW40460   6.928  10.242   2.577 -0.3083 -0.3469  0.4430
12321SOL    HW140461   6.882  10.315   2.534 -1.2700 -0.9760  0.3818
12321SOL    HW240462   6.906  10.166   2.525  2.3890 -0.4139 -0.7433
12322SOL     OW40463   1.035   3.813   3.061  0.4351  0.0024 -0.8675
12322SOL    HW140464   1.008   3.725   3.087  0.0701  0.0600 -1.0473
12322SOL    HW240465   1.119   3.827   3.106 -0.8339  0.6570  1.4512
12323SOL     OW40466   0.963   3.138   0.786 -0.1996  0.3254  0.0261
12323SOL    HW140467   0.924   3.199   0.724 -2.9221 -0.5887  0.6680
12323SOL    HW240468   0.960   3.053   0.742 -1.5385 -0.2171  1.0769
12324SOL     OW40469  10.459   0.712   4.702  0.6623 -0.0224  0.3864
12324SOL    HW140470  10.435   0.752   4.786  3.4294 -1.6762  2.1393
12324SOL    HW240471  10.472   0.619   4.722  1.0050 -0.5684 -2.0142
12325SOL     OW40472   5.409   6.144   7.506 -0.3128  0.8097 -0.0332
12325SOL    HW140473   5.413   6.049   7.519 -0.3002  1.0409  1.9614
12325SOL    HW240474   5.491   6.165   7.462  0.1697 -0.0063  0.4311
12326SOL     OW40475   0.344   1.660   2.670 -0.0316 -0.3499  0.7403
12326SOL    HW140476   0.311   1.583   2.716 -0.8748 -0.0863  0.5866
12326SOL    HW240477   0.326   1.642   2.578 -1.1971  0.4801  0.7928
12327SOL     OW40478   3.764   3.856   4.472 -0.4200 -0.7229 -0.2151
12327SOL    HW140479   3.816   3.870   4.551 -1.4473  2.3017  0.0836
12327SOL    HW240480   3.681   3.820   4.504 -0.9862  0.8652  0.2459
12328SOL     OW40481   4.275   4.917  10.128  0.2220  0.8326  0.3982
12328SOL    HW140482   4.272   4.838  10.075  0.7438  2.6128 -2.5293
12328SOL    HW240483   4.368   4.934  10.142  0.2251  1.9444 -0.7659
12329SOL     OW40484   5.449   0.718   8.927 -0.2115  0.4764 -0.4078
12329SOL    HW140485   5.481   0.633   8.897 -0.8092  0.4446 -0.9742
12329SOL    HW240486   5.382   0.742   8.863 -0.6571  0.9731  0.2378
12330SOL     OW40487   4.740   8.569   5.110 -0.1436 -0.1348  0.3749
12330SOL    HW140488   4.687   8.498   5.074  1.6233 -1.5287  0.4104
12330SOL    HW240489   4.696   8.593   5.191 -1.6474 -0.0572 -0.4290
12331SOL     OW40490  10.920  10.026  10.201 -0.0569  0.0787  0.4721
12331SOL    HW140491  10.887   9.978  10.125 -0.2510 -0.6917  1.0254
12331SOL    HW240492  10.943   9.958  10.264  1.2025  0.6664  0.6699
12332SOL     OW40493   5.770   0.975   2.699  0.1496  0.2229 -0.1170
12332SOL    HW140494   5.764   0.995   2.606  0.0347  1.2536  0.1010
12332SOL    HW240495   5.863   0.982   2.720  0.3285 -1.1058 -0.3719
12333SOL     OW40496   3.466   4.621   8.332 -0.3874 -0.3244  0.1770
12333SOL    HW140497   3.423   4.597   8.250 -0.2796  2.2407 -0.7253
12333SOL    HW240498   3.420   4.572   8.400 -1.2728 -1.5809 -1.2770
12334SOL     OW40499   4.217   0.383   2.138  0.3306  0.2976 -0.7664
12334SOL    HW140500   4.197   0.400   2.046  2.9758  1.8988 -1.1426
12334SOL    HW240501   4.184   0.460   2.184 -2.1010 -1.0387 -0.0954
12335SOL     OW40502   0.446   3.797   0.427  0.6894 -0.3164  0.4225
12335SOL    HW140503   0.514   3.845   0.381  1.3793 -0.4263  1.3037
12335SOL    HW240504   0.429   3.720   0.372 -0.3433  0.8320 -0.9351
12336SOL     OW40505   9.878   3.820   1.206 -0.1657 -0.3720  0.1005
12336SOL    HW140506   9.863   3.859   1.292  3.9338  0.1583  0.7964
12336SOL    HW240507   9.844   3.884   1.144 -0.6332  0.5743  1.3024
12337SOL     OW40508   7.709   5.553   0.125 -0.1396  0.2291  0.0887
12337SOL    HW140509   7.676   5.466   0.146  1.0656 -0.3688 -0.4130
12337SOL    HW240510   7.804   5.544   0.125  0.0152  0.9189 -2.4380
12338SOL     OW40511   5.834   1.360   2.122  0.0930  0.0885 -0.6799
12338SOL    HW140512   5.833   1.323   2.211 -1.0888 -1.8605 -1.4422
12338SOL    HW240513   5.895   1.434   2.128  0.6427 -0.4577  1.5648
12339SOL     OW40514   2.837   6.986   6.852  0.8827  0.0825  0.2972
12339SOL    HW140515   2.842   7.041   6.931  2.0092  1.6215 -0.7851
12339SOL    HW240516   2.745   6.986   6.828  0.8761  1.7212  0.2151
12340SOL     OW40517   1.292   9.217   7.723  0.2952 -0.2229  0.2735
12340SOL    HW140518   1.281   9.247   7.633  1.6436 -1.1406 -0.2225
12340SOL    HW240519   1.383   9.190   7.729  0.2249 -0.2380  1.9126
12341SOL     OW40520   7.071   5.290   5.682 -0.4461 -0.1831  0.2472
12341SOL    HW140521   7.055   5.369   5.733 -2.0834 -1.0485  1.1894
12341SOL    HW240522   7.031   5.220   5.734  1.9209 -1.8322  0.0074
12342SOL     OW40523  10.345   8.202   4.864  0.0270 -0.7426 -0.0147
12342SOL    HW140524  10.262   8.205   4.913 -0.2450 -0.8934 -0.4578
12342SOL    HW240525  10.388   8.285   4.886 -0.1074 -0.7926  0.4516
12343SOL     OW40526   9.186   9.679   1.284 -0.7265  1.0624 -0.0837
12343SOL    HW140527   9.265   9.732   1.275 -0.9228  1.1298 -1.6506
12343SOL    HW240528   9.115   9.743   1.293 -0.6825  1.0079  0.7586
12344SOL     OW40529   5.464   0.079   5.969 -0.1679 -0.7375 -0.0699
12344SOL    HW140530   5.450   0.080   5.874 -0.8412  1.1273  0.0108
12344SOL    HW240531   5.440   0.167   5.998 -0.2654 -1.3567  1.8824
12345SOL     OW40532   4.291   9.701   2.967  0.1399  0.2109  0.2401
12345SOL    HW140533   4.345   9.621   2.961  0.5662  0.5895 -1.4189
12345SOL    HW240534   4.349   9.765   3.008  0.2667  0.0463  0.3216
12346SOL     OW40535   5.773   9.128   9.696  0.1776  0.3472 -0.0497
12346SOL    HW140536   5.763   9.195   9.763 -1.0246 -0.6826  0.8477
12346SOL    HW240537   5.797   9.049   9.745 -0.9819 -0.4918 -0.7841
12347SOL     OW40538   0.806   6.419  10.558 -0.4150 -0.0489  0.7885
12347SOL    HW140539   0.748   6.361  10.507 -0.0612  0.8828 -0.7270
12347SOL    HW240540   0.893   6.403  10.523 -0.0002 -0.0693  1.7848
12348SOL     OW40541   3.910   4.312   2.303  0.4021  0.3157 -0.4933
12348SOL    HW140542   3.978   4.259   2.344  0.4675 -0.0273 -1.0325
12348SOL    HW240543   3.873   4.255   2.235 -2.2601 -0.5649  1.4900
12349SOL     OW40544   9.619  10.413   0.616  0.4788  0.2854 -0.0109
12349SOL    HW140545   9.707  10.379   0.627  0.2581  0.2135  1.6986
12349SOL    HW240546   9.571  10.383   0.693 -1.2200 -0.1715 -1.1754
12350SOL     OW40547   4.360   3.349   6.293  0.5075 -0.4249  0.1908
12350SOL    HW140548   4.342   3.441   6.313  1.6372 -0.4288  1.3253
12350SOL    HW240549   4.280   3.303   6.318  0.1723  0.1637  0.2179
12351SOL     OW40550   2.794   1.674   9.308 -0.4573  0.4409 -0.0871
12351SOL    HW140551   2.842   1.727   9.372 -0.6538  0.1172  0.3335
12351SOL    HW240552   2.704   1.674   9.340 -0.3910 -0.4810  0.1610
12352SOL     OW40553   5.878   5.242   7.559 -0.2473  0.4913  0.3326
12352SOL    HW140554   5.929   5.189   7.498  1.8340  0.5589  1.9010
12352SOL    HW240555   5.810   5.282   7.505 -0.1723 -1.5521 -1.3985
12353SOL     OW40556  10.053   3.489   9.683 -0.4938  0.2297 -0.1897
12353SOL    HW140557   9.985   3.435   9.644  1.0877 -0.4287 -2.1871
12353SOL    HW240558  10.091   3.538   9.610  2.2152 -0.6134  0.5153
12354SOL     OW40559   0.727   2.644   6.470  0.2283 -0.3404  0.1210
12354SOL    HW140560   0.794   2.660   6.403 -0.6986  0.1126 -0.7275
12354SOL    HW240561   0.646   2.678   6.432 -0.3258 -0.0438  1.4970
12355SOL     OW40562   8.194   3.786   9.656  0.5613 -0.0174  0.1811
12355SOL    HW140563   8.245   3.790   9.737  0.7578  1.6292  0.0124
12355SOL    HW240564   8.175   3.877   9.635 -1.9896 -0.5460 -0.0898
12356SOL     OW40565   6.913   3.029  10.936 -0.7861  0.0436  0.1717
12356SOL    HW140566   6.939   3.081  11.012  0.4886 -0.8369  0.3643
12356SOL    HW240567   6.978   3.050  10.870 -1.2164 -0.0814 -0.2992
12357SOL     OW40568   8.482   9.133   1.484 -0.2548 -0.5213 -0.7601
12357SOL    HW140569   8.422   9.176   1.545 -1.9488 -0.0477 -2.6213
12357SOL    HW240570   8.460   9.040   1.489 -1.2513 -0.3418 -1.4799
12358SOL     OW40571   3.780   1.946   9.089 -0.1117  0.1162  0.2110
12358SOL    HW140572   3.807   2.027   9.045  0.1010  0.5337  1.0990
12358SOL    HW240573   3.691   1.964   9.120  0.3924  0.4555  1.4849
12359SOL     OW40574   8.035  10.740   1.019 -0.1089  0.4512 -0.0414
12359SOL    HW140575   8.042  10.807   0.951 -2.0279 -0.7274 -1.5206
12359SOL    HW240576   8.058  10.658   0.974 -0.9190 -0.2926  0.8655
12360SOL     OW40577   0.453   3.162   0.741  0.0519  0.0571 -0.2712
12360SOL    HW140578   0.384   3.124   0.794 -1.0424  0.7826 -1.1437
12360SOL    HW240579   0.526   3.175   0.801 -0.5705 -0.6781  0.6653
12361SOL     OW40580   5.288   9.070   8.431  0.0438 -0.1060 -0.1303
12361SOL    HW140581   5.216   9.023   8.473  1.6588 -0.4081  2.4905
12361SOL    HW240582   5.367   9.024   8.459  1.3969  1.3156 -1.4107
12362SOL     OW40583  10.911   5.302   2.385  0.6764 -0.1401  0.3145
12362SOL    HW140584  10.909   5.361   2.460  0.9639  1.1684 -0.6660
12362SOL    HW240585  10.841   5.239   2.401 -1.1370  1.7983  0.3579
12363SOL     OW40586   2.404   1.488   0.657 -0.4062 -0.0991 -0.3802
12363SOL    HW140587   2.327   1.452   0.701  0.0111 -0.1359  0.3495
12363SOL    HW240588   2.406   1.580   0.684 -0.1902 -0.1011 -0.3833
12364SOL     OW40589   7.042   7.655   5.045  0.4661 -0.2065  0.1302
12364SOL    HW140590   7.137   7.656   5.053  0.3564 -1.3964  2.5654
12364SOL    HW240591   7.020   7.743   5.015  2.4031 -0.6165 -2.9064
12365SOL     OW40592   7.873   6.440   8.588 -0.0361 -0.5662 -0.2114
12365SOL    HW140593   7.948   6.380   8.592  1.3216  1.1341  2.4952
12365SOL    HW240594   7.822   6.419   8.666 -0.2168  0.8689  0.0857
12366SOL     OW40595   9.914   2.596   0.612  0.5514 -0.0820 -0.3322
12366SOL    HW140596  10.003   2.584   0.647  1.1147 -0.7693 -1.8808
12366SOL    HW240597   9.904   2.525   0.548 -1.6487 -0.8550  0.7665
12367SOL     OW40598   2.159   4.266   7.919 -0.1926 -0.4375  0.3374
12367SOL    HW140599   2.159   4.224   8.005 -0.8666  1.2742  1.2208
12367SOL    HW240600   2.099   4.340   7.928 -0.6548 -0.4915 -1.7659
12368SOL     OW40601   6.807   7.378   6.865  0.6347 -0.0559  0.0335
12368SOL    HW140602   6.811   7.287   6.895  0.3050  0.7349  2.7406
12368SOL    HW240603   6.849   7.377   6.779  1.9352 -2.5147  0.6067
12369SOL     OW40604   7.264   7.634   9.961  0.8329  0.0549  0.0518
12369SOL    HW140605   7.253   7.681   9.878 -0.4082  0.1076  0.2272
12369SOL    HW240606   7.297   7.700  10.022 -0.9220  0.7340  0.3059
12370SOL     OW40607   6.849   4.526   0.891  0.0496 -0.4874 -0.4040
12370SOL    HW140608   6.866   4.432   0.883  0.8629 -0.1849 -3.3533
12370SOL    HW240609   6.931   4.567   0.862 -1.0055  1.1053 -1.2515
12371SOL     OW40610   4.087   6.462   3.408  0.2404  0.6729 -0.2642
12371SOL    HW140611   4.143   6.397   3.364 -0.4779 -2.4864  3.0405
12371SOL    HW240612   4.009   6.466   3.354  0.6600 -0.5700 -0.9981
12372SOL     OW40613   7.791   6.350  10.495 -0.3715 -0.1486 -0.0328
12372SOL    HW140614   7.717   6.348  10.434 -1.2929 -0.0351  1.0414
12372SOL    HW240615   7.829   6.437  10.484 -0.3513 -0.2320 -0.6503
12373SOL     OW40616  10.495   5.458   6.278  0.0365 -0.6860 -0.1329
12373SOL    HW140617  10.450   5.393   6.332 -0.0198 -0.1889  0.4340
12373SOL    HW240618  10.466   5.543   6.314  1.9317 -0.3444  0.6925
12374SOL     OW40619   7.465   5.226   8.955  0.5878  0.3831 -0.7126
12374SOL    HW140620   7.544   5.265   8.918  1.0466 -1.3192 -1.6313
12374SOL    HW240621   7.394   5.281   8.922  1.1418 -0.0209 -2.7419
12375SOL     OW40622   4.342   9.394   3.889  0.0684  0.3734  0.0533
12375SOL    HW140623   4.303   9.311   3.917 -0.8233  0.9032  0.4412
12375SOL    HW240624   4.334   9.393   3.794  0.4347 -0.1650  0.0272
12376SOL     OW40625   5.770   1.450   2.992 -0.1994 -0.3674 -0.0260
12376SOL    HW140626   5.693   1.394   2.987  0.8105 -1.6615 -1.9280
12376SOL    HW240627   5.821   1.415   3.065 -0.1499 -1.1969 -0.4516
12377SOL     OW40628   3.080  10.250   2.410 -0.7993 -0.5627 -0.1722
12377SOL    HW140629   3.143  10.256   2.482  0.4772  0.5008 -1.3138
12377SOL    HW240630   3.134  10.248   2.331 -2.1757  2.2622 -1.3225
12378SOL     OW40631   8.561   0.312   1.965  0.0087  0.7036  0.4283
12378SOL    HW140632   8.530   0.222   1.966  0.9928  0.3027 -1.2761
12378SOL    HW240633   8.570   0.336   2.058  0.3366 -1.1644  0.9117
12379SOL     OW40634   9.371   6.402   9.016  0.4344 -1.1358 -0.2696
12379SOL    HW140635   9.346   6.340   9.085 -0.5096 -1.5496 -0.9515
12379SOL    HW240636   9.303   6.391   8.949  0.4708  0.3643 -0.5802
12380SOL     OW40637   3.878   0.290   7.295  0.8585  0.0545  0.3759
12380SOL    HW140638   3.922   0.278   7.380 -0.1986 -2.6763  0.6366
12380SOL    HW240639   3.797   0.337   7.317  1.7352  1.6101  0.4503
12381SOL     OW40640   8.494   1.999   4.331  0.3536  0.0385  0.4003
12381SOL    HW140641   8.541   1.929   4.378 -0.1459  0.7857  2.0762
12381SOL    HW240642   8.412   1.958   4.305  0.3647 -0.2162  0.7491
12382SOL     OW40643  10.530   4.784   0.656 -0.0912  0.4242 -0.4156
12382SOL    HW140644  10.519   4.703   0.707 -1.6537  0.9660  0.1596
12382SOL    HW240645  10.456   4.785   0.596  0.4027  1.0172 -1.0259
12383SOL     OW40646   7.681   5.585   9.030 -0.0907 -0.0048 -1.0674
12383SOL    HW140647   7.713   5.521   8.966 -1.8591  0.4729 -2.5141
12383SOL    HW240648   7.639   5.653   8.977  1.6013  2.3660  0.3953
12384SOL     OW40649   7.250   8.287   7.495  0.1893 -0.8235  0.0109
12384SOL    HW140650   7.157   8.286   7.517  0.3041  1.2604  0.8944
12384SOL    HW240651   7.252   8.275   7.400 -1.0686 -0.0932 -0.1417
12385SOL     OW40652   7.236   0.389   6.847  0.0051 -0.6987 -0.4649
12385SOL    HW140653   7.184   0.333   6.790  2.5749 -1.7420 -1.8974
12385SOL    HW240654   7.296   0.330   6.891  0.3537  0.5318  0.7880
12386SOL     OW40655   3.217   8.414   7.512 -0.2054  0.3578 -0.1450
12386SOL    HW140656   3.142   8.445   7.462  2.0043  1.2050 -3.2272
12386SOL    HW240657   3.240   8.330   7.472  1.1921  0.6802 -0.0584
12387SOL     OW40658   5.231   9.545   3.036 -0.0181 -0.5559 -0.0170
12387SOL    HW140659   5.319   9.529   3.070 -0.5573 -2.3003  0.6464
12387SOL    HW240660   5.174   9.493   3.092 -1.3896 -0.1453 -0.9890
12388SOL     OW40661   6.464   1.987   6.610  0.0281 -1.2971  0.8265
12388SOL    HW140662   6.406   1.936   6.554 -0.2914  0.5377 -0.5876
12388SOL    HW240663   6.407   2.025   6.676 -0.6045  1.0109 -0.9246
12389SOL     OW40664  10.214   5.289   7.447  0.6289 -0.1729  0.6329
12389SOL    HW140665  10.150   5.263   7.513 -2.3977  1.8929 -1.2348
12389SOL    HW240666  10.246   5.374   7.477 -1.3747  1.1716 -0.7750
12390SOL     OW40667   1.743   6.892   5.749 -0.5478 -0.4375  0.3821
12390SOL    HW140668   1.827   6.847   5.741 -1.2320 -1.6340 -0.4036
12390SOL    HW240669   1.678   6.825   5.730 -1.5660  1.2005 -2.5870
12391SOL     OW40670   2.177   8.922   8.169  0.0180 -0.4211  0.5667
12391SOL    HW140671   2.201   8.864   8.241 -1.0928  0.9179  2.0825
12391SOL    HW240672   2.086   8.900   8.149 -0.2380  0.3959  0.7857
12392SOL     OW40673   3.921   9.674   9.562 -0.7845  0.7627 -0.2727
12392SOL    HW140674   3.898   9.593   9.607 -0.0124  0.1700 -0.9103
12392SOL    HW240675   3.894   9.660   9.471 -0.1512  0.9956 -0.5037
12393SOL     OW40676   9.847   1.377  10.281  0.5179 -0.0985 -0.0868
12393SOL    HW140677   9.797   1.417  10.352 -0.0855 -1.1441  0.0892
12393SOL    HW240678   9.786   1.317  10.238  0.5553  1.2126 -2.1342
12394SOL     OW40679   8.544  10.502   1.198 -0.5933  0.3691 -0.4685
12394SOL    HW140680   8.549  10.416   1.157 -2.6636 -0.4197  0.7859
12394SOL    HW240681   8.531  10.563   1.126 -0.8929 -0.5859 -1.2385
12395SOL     OW40682   9.386   4.016   0.879  0.4703  0.1985 -0.2318
12395SOL    HW140683   9.369   3.949   0.813  2.1787 -1.1929  0.6540
12395SOL    HW240684   9.357   3.977   0.961  1.7567  0.3974  0.3368
12396SOL     OW40685   9.689   4.202   0.496 -0.3307 -0.1911 -0.5333
12396SOL    HW140686   9.703   4.115   0.459  0.0122 -0.0334 -0.7763
12396SOL    HW240687   9.738   4.261   0.439 -0.2019  0.1109 -0.1209
12397SOL     OW40688   0.415   4.765   1.630 -0.5043 -0.0095 -0.1730
12397SOL    HW140689   0.352   4.813   1.685  0.8748  0.5727  0.9465
12397SOL    HW240690   0.418   4.814   1.548 -1.6983 -0.2128 -0.3659
12398SOL     OW40691   1.134   7.654   5.308 -0.6650 -0.1024  0.0544
12398SOL    HW140692   1.114   7.618   5.394  0.3245 -0.0126  0.3385
12398SOL    HW240693   1.085   7.736   5.304 -0.5785 -0.0212  0.6055
12399SOL     OW40694   7.945   8.963   5.286 -0.0917  0.1427 -0.3074
12399SOL    HW140695   7.984   9.035   5.237 -0.4655  1.5468  1.3717
12399SOL    HW240696   7.953   8.989   5.378  0.9616 -2.5704  0.4757
12400SOL     OW40697   2.736   2.971   3.115 -0.2462 -0.4153 -0.0564
12400SOL    HW140698   2.733   2.877   3.133  0.1593 -1.3150 -3.7652
12400SOL    HW240699   2.777   3.009   3.193 -2.5916 -2.8908  2.6042
12401SOL     OW40700   9.932   8.784   0.931 -0.2026 -0.4402 -0.2871
12401SOL    HW140701   9.902   8.697   0.959  1.6191 -1.3538 -0.9515
12401SOL    HW240702   9.970   8.769   0.844  1.7415  0.6370  0.3065
12402SOL     OW40703   6.483   7.826   3.076 -0.6437  0.3714 -0.8235
12402SOL    HW140704   6.545   7.834   3.003 -0.6144  3.4932 -0.5929
12402SOL    HW240705   6.400   7.804   3.034 -0.3829  0.9757 -1.6870
12403SOL     OW40706   6.622   9.180   7.475  0.5134  0.0854  0.4287
12403SOL    HW140707   6.573   9.135   7.543 -1.1142  0.0088 -0.7291
12403SOL    HW240708   6.714   9.162   7.495  0.2191  1.4764  3.5494
12404SOL     OW40709   3.730   5.818  10.595  0.8200  0.4984 -0.1465
12404SOL    HW140710   3.708   5.767  10.517 -0.8728  0.7039  0.1687
12404SOL    HW240711   3.702   5.907  10.574  0.2159  0.5262  0.7417
12405SOL     OW40712  10.041   0.119   5.359 -0.1521  0.4543  0.1041
12405SOL    HW140713   9.956   0.145   5.394  0.0122 -0.0987  0.9475
12405SOL    HW240714  10.089   0.201   5.350  0.2342  0.5489  2.3978
12406SOL     OW40715   4.110   8.219   0.757  0.3777  0.5768 -0.0556
12406SOL    HW140716   4.063   8.140   0.782  3.6033 -0.8190  2.2127
12406SOL    HW240717   4.119   8.269   0.838  2.2178  1.0841 -0.5242
12407SOL     OW40718   8.084   7.831  10.385  0.0351  0.2924  0.0424
12407SOL    HW140719   8.002   7.862  10.425 -0.1467 -0.2899  0.1346
12407SOL    HW240720   8.119   7.768  10.448 -0.3287 -0.7449 -0.7598
12408SOL     OW40721   0.705   0.091   0.410  0.5406 -0.0291 -0.2290
12408SOL    HW140722   0.788   0.078   0.457  1.6643  1.1511 -1.7721
12408SOL    HW240723   0.656   0.010   0.425  1.3896 -0.2316  1.8138
12409SOL     OW40724   6.041   8.156  11.008 -0.0894 -0.2913  0.9222
12409SOL    HW140725   6.056   8.208  10.930 -1.4384 -0.2122  0.6836
12409SOL    HW240726   5.999   8.216  11.070 -2.5475 -1.2451  0.3055
12410SOL     OW40727   0.077   9.697   3.114  0.3753 -0.2420  0.0925
12410SOL    HW140728   0.113   9.608   3.117  1.0147  0.0132  0.3425
12410SOL    HW240729   0.124   9.743   3.184 -1.6587 -0.3311  1.5884
12411SOL     OW40730   7.938   8.032   3.539 -0.3164 -0.1561  0.0545
12411SOL    HW140731   8.007   8.096   3.521 -0.5073 -0.4741 -2.0316
12411SOL    HW240732   7.915   8.047   3.631 -0.1041  2.5484 -0.2469
12412SOL     OW40733   9.102  10.036   3.545  0.4769  0.6361 -0.3398
12412SOL    HW140734   9.015  10.074   3.558 -0.2111 -1.1536  0.6429
12412SOL    HW240735   9.138  10.027   3.633  0.5937 -0.9548 -0.5170
12413SOL     OW40736   6.711   9.171   6.713  0.1936 -0.8421 -0.1263
12413SOL    HW140737   6.630   9.131   6.685 -0.1277 -0.7585  0.6518
12413SOL    HW240738   6.721   9.248   6.656  0.1622 -1.3043 -0.7681
12414SOL     OW40739   2.460   4.307   0.161  0.4808  0.0156  0.3665
12414SOL    HW140740   2.540   4.261   0.187  1.2782  1.2853  0.2102
12414SOL    HW240741   2.418   4.331   0.243  0.0121 -1.0397  0.4518
12415SOL     OW40742   9.941   5.721   0.472 -0.0885 -0.0179  0.0225
12415SOL    HW140743  10.021   5.675   0.446 -0.1065 -0.2088  0.3047
12415SOL    HW240744   9.971   5.809   0.495 -0.1897  0.4724 -1.5385
12416SOL     OW40745   7.315   7.082   7.919  0.3632 -0.1631 -0.2116
12416SOL    HW140746   7.321   6.987   7.928 -0.9830 -0.1195  1.6055
12416SOL    HW240747   7.277   7.095   7.832  2.5284 -1.1477 -1.4058
12417SOL     OW40748   5.226   3.121   3.642  0.1933 -0.2359  0.1584
12417SOL    HW140749   5.274   3.126   3.560  1.0812 -1.9239  0.5420
12417SOL    HW240750   5.182   3.206   3.649  1.3086  0.5029 -1.3035
12418SOL     OW40751   0.177   3.398   7.636 -0.5939 -0.0909 -0.2030
12418SOL    HW140752   0.243   3.355   7.582  3.3467  0.0930  3.8526
12418SOL    HW240753   0.211   3.486   7.651 -0.8796 -0.3906  3.0846
12419SOL     OW40754   2.785   2.249   4.433  0.0596  0.8755 -0.8414
12419SOL    HW140755   2.702   2.274   4.474 -0.2438 -0.2406 -0.7282
12419SOL    HW240756   2.762   2.225   4.343 -0.1316 -1.3515 -0.2721
12420SOL     OW40757   6.569   4.422   1.645  0.3059 -0.1252 -0.2128
12420SOL    HW140758   6.561   4.514   1.669  1.1844 -0.4053  1.3062
12420SOL    HW240759   6.605   4.423   1.556 -1.8757  0.9684 -1.1357
12421SOL     OW40760   3.897   2.382   5.969 -0.0070  0.0044  0.3662
12421SOL    HW140761   3.966   2.316   5.975 -0.1554 -0.1762  0.1071
12421SOL    HW240762   3.846   2.357   5.892 -0.2931  0.2042  0.4869
12422SOL     OW40763   2.371   5.947   9.200  0.2506 -0.7696  0.5059
12422SOL    HW140764   2.457   5.914   9.174  0.2586 -0.0996 -0.3324
12422SOL    HW240765   2.374   5.947   9.296  1.6223  0.3665  0.4933
12423SOL     OW40766   9.772  10.957   1.205 -0.4550  0.0684 -0.0070
12423SOL    HW140767   9.863  10.956   1.174 -1.1324  0.2895 -2.1798
12423SOL    HW240768   9.754  10.866   1.230  0.1804 -0.0911 -0.1210
12424SOL     OW40769   3.402   0.384   1.686  0.5144  0.2344  0.8463
12424SOL    HW140770   3.331   0.422   1.635  1.0796  0.2538  0.0436
12424SOL    HW240771   3.367   0.376   1.775 -0.2293  0.9179  0.6243
12425SOL     OW40772   9.594   2.900   9.220  0.2732 -0.3341  0.1349
12425SOL    HW140773   9.533   2.927   9.288 -2.3892 -1.0912 -1.7562
12425SOL    HW240774   9.572   2.955   9.144  2.5454 -0.0794 -0.4110
12426SOL     OW40775   6.162   5.407   1.295  0.1889  0.0339 -0.2704
12426SOL    HW140776   6.220   5.334   1.273  2.9068  1.7350  0.7503
12426SOL    HW240777   6.111   5.422   1.215  1.2417 -1.4796 -1.2822
12427SOL     OW40778   4.981   1.275   5.327 -0.1816  0.2412 -0.3789
12427SOL    HW140779   4.948   1.359   5.296  1.1308  0.5788 -0.9193
12427SOL    HW240780   4.981   1.218   5.250 -1.1557 -0.3043  0.0036
12428SOL     OW40781   0.793   3.087   0.291  0.0782 -0.4280 -0.3737
12428SOL    HW140782   0.714   3.128   0.256 -0.8945 -0.9058  1.1380
12428SOL    HW240783   0.841   3.057   0.215 -0.7045  0.7535 -1.3756
12429SOL     OW40784   8.480   0.797   8.018  0.2547  0.0961  0.3210
12429SOL    HW140785   8.457   0.885   7.987  1.4600  0.3624  0.1420
12429SOL    HW240786   8.489   0.806   8.112 -0.0072  0.0698  0.3495
12430SOL     OW40787   5.834   7.577   4.007 -0.1234  0.2168  0.2219
12430SOL    HW140788   5.748   7.554   4.043  0.7309 -1.7180  1.1248
12430SOL    HW240789   5.844   7.520   3.931  0.3192  0.4955  0.0705
12431SOL     OW40790   3.891   6.495   3.176 -0.0003  0.1681 -0.7322
12431SOL    HW140791   3.803   6.525   3.201 -0.2351 -0.1286 -1.1985
12431SOL    HW240792   3.935   6.575   3.146 -0.3525  0.1974 -1.1856
12432SOL     OW40793   6.497   6.120   7.837  0.7778  0.0357 -0.6794
12432SOL    HW140794   6.464   6.030   7.846  3.3481 -0.8620  0.8865
12432SOL    HW240795   6.507   6.131   7.742  0.7852 -1.4741 -0.8902
12433SOL     OW40796   2.630   5.202   5.774  0.0976 -0.0040 -0.7994
12433SOL    HW140797   2.571   5.259   5.725 -0.8379 -0.1279  0.1558
12433SOL    HW240798   2.580   5.122   5.789 -1.1487  1.3105  3.4599
12434SOL     OW40799   9.294   8.810   7.988 -0.0371 -0.1228  0.4332
12434SOL    HW140800   9.306   8.901   7.961 -2.0044 -0.4236 -1.7700
12434SOL    HW240801   9.314   8.758   7.910  2.7235 -1.8270  2.0857
12435SOL     OW40802  10.747   2.059   7.727 -0.2171  0.7499  0.0481
12435SOL    HW140803  10.698   2.029   7.650  0.8184  0.0407 -0.3601
12435SOL    HW240804  10.839   2.044   7.704  0.1993  1.9861  0.8223
12436SOL     OW40805   6.880   3.314   8.875  0.3974  0.2008  0.0873
12436SOL    HW140806   6.810   3.354   8.824 -0.8753 -1.4270  0.5066
12436SOL    HW240807   6.903   3.235   8.827 -0.5648 -1.1691  1.8023
12437SOL     OW40808   9.310   3.925   1.143  0.9576 -0.2921  0.2884
12437SOL    HW140809   9.361   3.891   1.217  0.1495 -0.1338  0.9376
12437SOL    HW240810   9.222   3.939   1.179  0.0929 -1.7707 -1.1347
12438SOL     OW40811   6.843  10.187   3.795  0.1536  0.4591  0.2696
12438SOL    HW140812   6.869  10.246   3.724  2.0049 -0.3760  0.1747
12438SOL    HW240813   6.847  10.241   3.874 -1.4097  1.2667 -0.1741
12439SOL     OW40814  10.662   5.889  10.310  0.2029  0.6290 -0.3407
12439SOL    HW140815  10.735   5.908  10.370 -0.2142  1.6501 -0.1375
12439SOL    HW240816  10.703   5.846  10.235  0.7276 -0.7193  0.6950
12440SOL     OW40817   4.338   2.484   1.780 -0.3165 -0.1152  0.1213
12440SOL    HW140818   4.374   2.535   1.707 -0.3822  2.0966  1.5361
12440SOL    HW240819   4.244   2.494   1.772 -0.2970  1.0895  1.0919
12441SOL     OW40820   2.011   3.617   0.993  0.2906  0.0525 -0.4649
12441SOL    HW140821   1.929   3.568   0.993 -0.8899  1.7751  2.3331
12441SOL    HW240822   2.057   3.586   1.072  0.8678  1.3400 -0.2705
12442SOL     OW40823   8.640   6.855   8.972 -0.0884 -0.4298 -0.0904
12442SOL    HW140824   8.728   6.889   8.956  0.0886 -0.3682  0.9723
12442SOL    HW240825   8.635   6.843   9.066 -0.3982 -2.7477 -0.3501
12443SOL     OW40826   5.484   3.334   9.522  0.4211 -0.1954  0.1949
12443SOL    HW140827   5.570   3.312   9.558  1.3780  0.5151 -1.5607
12443SOL    HW240828   5.487   3.304   9.432 -1.3371 -0.5022  0.2076
12444SOL     OW40829   0.282   6.664   0.721  0.5494  0.4630 -0.4366
12444SOL    HW140830   0.349   6.598   0.742  1.2919  0.5424 -2.3638
12444SOL    HW240831   0.253   6.641   0.633 -2.6925 -0.1180  0.6724
12445SOL     OW40832   3.581   5.791  10.822  0.0064 -0.2099 -0.0943
12445SOL    HW140833   3.528   5.712  10.806 -0.7865  0.2938 -0.0186
12445SOL    HW240834   3.633   5.801  10.742 -0.3098 -0.4920 -0.3435
12446SOL     OW40835   3.440   0.319   6.486  0.4201  0.1841 -0.0313
12446SOL    HW140836   3.405   0.233   6.508 -1.3051  0.3081 -1.9438
12446SOL    HW240837   3.527   0.301   6.450 -0.6155 -1.0232 -2.1022
12447SOL     OW40838   4.543   9.820   7.695  0.2862  0.3722 -0.0413
12447SOL    HW140839   4.570   9.802   7.605  0.2427  1.9022 -0.3920
12447SOL    HW240840   4.447   9.817   7.693  0.3010 -0.2608  0.1104
12448SOL     OW40841   6.239   2.848   0.791 -0.0761  0.4118  0.0529
12448SOL    HW140842   6.303   2.778   0.806  1.2951  1.8003  0.9751
12448SOL    HW240843   6.284   2.911   0.735 -1.0798  0.8434 -0.3001
12449SOL     OW40844   7.013   7.924   3.229  0.1421  0.3944  0.1410
12449SOL    HW140845   6.935   7.938   3.175  0.5179  0.5163 -0.3682
12449SOL    HW240846   7.069   7.999   3.211  0.4056  0.2746  0.4612
12450SOL     OW40847   1.766   2.421  10.505 -0.2655 -0.7201 -0.3039
12450SOL    HW140848   1.837   2.483  10.526 -0.7000 -0.4233  0.3241
12450SOL    HW240849   1.720   2.463  10.432 -0.2473 -0.5502 -0.2197
12451SOL     OW40850   8.362   0.113   1.609  0.7313  0.0652 -0.5325
12451SOL    HW140851   8.301   0.146   1.542  0.6063  0.9457 -0.0065
12451SOL    HW240852   8.313   0.120   1.691  1.3075  0.1672 -0.1902
12452SOL     OW40853   9.729   6.801   6.374  0.3264  0.1720 -0.3388
12452SOL    HW140854   9.643   6.824   6.409 -0.3332 -3.2544  0.7237
12452SOL    HW240855   9.721   6.708   6.351  3.4856 -0.0291 -1.0588
12453SOL     OW40856   0.109   3.440   6.978  0.3053 -0.3211 -0.7905
12453SOL    HW140857   0.182   3.450   7.040 -0.1154 -0.4833 -0.2606
12453SOL    HW240858   0.053   3.374   7.018 -0.9482  0.9235 -0.3998
12454SOL     OW40859   0.258   3.839   9.628 -0.1274 -0.4886 -0.0286
12454SOL    HW140860   0.307   3.897   9.686 -0.0547 -2.0591  1.5548
12454SOL    HW240861   0.319   3.818   9.558 -0.2370  1.4874 -0.7950
12455SOL     OW40862   8.265   0.477   7.297 -0.3306  0.3926  0.1998
12455SOL    HW140863   8.200   0.544   7.322 -0.4188 -0.4793  2.5104
12455SOL    HW240864   8.344   0.502   7.344  0.0323 -0.3704 -0.0016
12456SOL     OW40865  11.007   3.732   0.727  0.1924  0.0093  0.2835
12456SOL    HW140866  10.915   3.740   0.752  0.5685  1.9069  1.2491
12456SOL    HW240867  11.017   3.793   0.653  1.3412  2.5514  2.3636
12457SOL     OW40868   0.189  10.158   4.121 -0.8826 -0.5025  0.5141
12457SOL    HW140869   0.264  10.165   4.179 -0.9193 -0.3441  0.5426
12457SOL    HW240870   0.181  10.064   4.104 -0.2718 -0.4592 -0.0306
12458SOL     OW40871   8.710   2.900   3.990  0.0918  0.0626 -0.0007
12458SOL    HW140872   8.773   2.943   4.048 -0.6268 -0.1900  0.9853
12458SOL    HW240873   8.625   2.917   4.030 -0.5004  0.5562 -1.4121
12459SOL     OW40874   2.106   4.918   4.113 -0.2968  0.0218 -0.5551
12459SOL    HW140875   2.134   4.991   4.058  0.4111 -0.2599 -0.5785
12459SOL    HW240876   2.174   4.911   4.180 -0.3239 -0.6580 -0.5942
12460SOL     OW40877   5.455   0.369   7.355  0.2862  0.4940 -0.0995
12460SOL    HW140878   5.457   0.284   7.399 -0.5163 -0.1980 -1.3215
12460SOL    HW240879   5.468   0.433   7.425 -0.5118 -0.5651  1.0729
12461SOL     OW40880   3.742   6.547   9.643  0.5938 -0.5341  0.3505
12461SOL    HW140881   3.709   6.552   9.732  1.5780  1.1086  0.6617
12461SOL    HW240882   3.836   6.533   9.653  1.2238  2.4471 -0.2680
12462SOL     OW40883   4.082   4.583   5.832 -0.0155  0.0126  0.1547
12462SOL    HW140884   4.051   4.648   5.896 -0.3464 -0.5758  0.6101
12462SOL    HW240885   4.125   4.635   5.764  1.0169  0.6147  1.2188
12463SOL     OW40886  10.916   7.967   0.759  0.0030 -0.1259  0.1469
12463SOL    HW140887  10.982   7.906   0.725 -0.7204 -1.8497  1.6979
12463SOL    HW240888  10.871   7.998   0.680  0.7852 -1.1312 -0.7425
12464SOL     OW40889   4.720   2.305   7.974  0.0905 -0.0803  0.3047
12464SOL    HW140890   4.650   2.352   8.019 -0.7727 -0.3727 -0.6829
12464SOL    HW240891   4.783   2.372   7.949  0.5902  0.0832  1.9156
12465SOL     OW40892   8.547   4.541   9.573 -0.4607 -0.3022 -0.0052
12465SOL    HW140893   8.492   4.617   9.593  0.1982  0.0371  0.5761
12465SOL    HW240894   8.518   4.473   9.634 -0.8108 -0.4114 -0.2859
12466SOL     OW40895   8.401   8.083   8.202 -0.1845 -0.4147 -0.7572
12466SOL    HW140896   8.433   8.037   8.124  1.3011 -1.6280  0.4791
12466SOL    HW240897   8.481   8.112   8.247 -1.0385  1.2669 -0.2420
12467SOL     OW40898   9.586   8.501   3.207  0.0324  0.3105  0.0434
12467SOL    HW140899   9.545   8.587   3.216  0.5588  0.7068 -1.1583
12467SOL    HW240900   9.644   8.494   3.283 -0.7571  0.5893  0.6823
12468SOL     OW40901  10.060   6.359   6.300  0.1229  0.6553 -0.3182
12468SOL    HW140902  10.079   6.419   6.227 -0.2197  1.0464 -0.0959
12468SOL    HW240903   9.974   6.323   6.278  0.9480 -0.8808 -1.1763
12469SOL     OW40904   6.107   7.740  10.420  0.5817 -0.0800  0.2505
12469SOL    HW140905   6.127   7.793  10.497  1.8580 -1.4682  0.9146
12469SOL    HW240906   6.029   7.691  10.444  0.2038  0.4483  0.1390
12470SOL     OW40907   4.998   7.963   4.398 -0.7719 -0.0215 -0.4296
12470SOL    HW140908   5.003   8.003   4.484 -2.6330  1.7201 -1.0542
12470SOL    HW240909   5.076   7.993   4.352  1.1799 -2.3574  1.0789
12471SOL     OW40910   3.921   3.442   5.023 -0.4976  0.2013 -0.1955
12471SOL    HW140911   3.933   3.511   4.958  0.0497  0.6875  0.4022
12471SOL    HW240912   3.827   3.433   5.032 -0.5756  0.8280 -0.3363
12472SOL     OW40913   3.397   8.813   1.626  0.4974 -0.0342  0.2104
12472SOL    HW140914   3.358   8.884   1.577 -1.9436 -1.5777 -0.2787
12472SOL    HW240915   3.330   8.745   1.627  2.3840 -2.0203  1.3543
12473SOL     OW40916   6.257   5.836   5.762 -0.1474  0.0580  0.0189
12473SOL    HW140917   6.197   5.896   5.719 -0.4265 -1.4433 -1.8192
12473SOL    HW240918   6.248   5.754   5.714  1.3678 -1.0177  1.4339
12474SOL     OW40919  10.058   8.632   7.759  0.3994  0.1317  0.5348
12474SOL    HW140920   9.983   8.607   7.813 -1.3774  1.7515 -1.0409
12474SOL    HW240921  10.066   8.561   7.696 -0.3051  0.2968  0.2478
12475SOL     OW40922   7.311   3.908   5.036 -0.2967 -0.2559  0.5575
12475SOL    HW140923   7.339   3.944   5.120 -0.8104 -0.6360  0.8923
12475SOL    HW240924   7.300   3.985   4.980  1.0362 -0.0612  0.5170
12476SOL     OW40925  10.898   4.637   1.104 -0.6078  0.0567  0.2994
12476SOL    HW140926  10.927   4.588   1.028 -2.6824 -0.3373 -0.2997
12476SOL    HW240927  10.843   4.575   1.153 -1.1699  1.0022  0.8976
12477SOL     OW40928   8.197   8.367   9.124 -0.6733  0.0317  0.0607
12477SOL    HW140929   8.239   8.448   9.095  0.4187 -1.0007 -1.3477
12477SOL    HW240930   8.164   8.388   9.212  1.2043  1.4454  0.5049
12478SOL     OW40931   3.897   1.882   0.310 -0.1237  0.2614 -0.2961
12478SOL    HW140932   3.896   1.875   0.406  1.5876 -0.9746 -0.3128
12478SOL    HW240933   3.936   1.968   0.293 -0.3043  0.4304  0.1144
12479SOL     OW40934   4.003   6.853   2.432  0.1001  0.7134  0.2114
12479SOL    HW140935   3.958   6.918   2.486  1.2624  0.9377  0.9577
12479SOL    HW240936   3.977   6.769   2.469 -0.4144  0.7908  0.0429
12480SOL     OW40937   2.596   7.553   6.783  0.4259 -0.4464  0.8390
12480SOL    HW140938   2.610   7.548   6.688  0.0711  1.0753  0.6780
12480SOL    HW240939   2.603   7.462   6.813  3.4266 -0.6931 -0.2087
12481SOL     OW40940   3.707   6.674   7.507 -0.2002  0.0585 -0.1557
12481SOL    HW140941   3.647   6.748   7.496 -0.8907 -0.5675 -0.5973
12481SOL    HW240942   3.784   6.713   7.550 -0.3880  1.1122 -0.7408
12482SOL     OW40943   5.665   2.252   7.887 -0.1092  0.4461  0.0496
12482SOL    HW140944   5.740   2.302   7.921 -1.0922  1.4254  0.8388
12482SOL    HW240945   5.605   2.319   7.854 -1.4888 -0.2087  1.1883
12483SOL     OW40946   3.877   5.944   2.570  1.1305  0.0241 -0.2222
12483SOL    HW140947   3.943   6.013   2.573  1.0507  0.1128 -0.5030
12483SOL    HW240948   3.837   5.953   2.484 -0.6952  1.3113  0.6974
12484SOL     OW40949   2.441   4.230  10.917 -0.5008 -0.0049  0.0417
12484SOL    HW140950   2.440   4.264  11.007 -0.1756  0.8224 -0.2593
12484SOL    HW240951   2.372   4.279  10.872 -2.3958 -2.1341  0.4226
12485SOL     OW40952   3.952   4.009  10.390  0.1393  0.4231 -0.1960
12485SOL    HW140953   3.929   3.922  10.358  0.8164 -0.5355  1.7339
12485SOL    HW240954   3.962   3.998  10.484 -1.0532  2.9106  0.3141
12486SOL     OW40955   7.958   9.721   7.844 -0.3956 -0.7221 -0.2692
12486SOL    HW140956   7.999   9.641   7.874  1.0844  0.8375  2.1325
12486SOL    HW240957   7.864   9.704   7.851 -0.1057 -1.7593  1.6467
12487SOL     OW40958   3.116   2.324   1.847 -0.0544  0.1241  0.4483
12487SOL    HW140959   3.059   2.303   1.921 -0.9051  0.6021 -0.0599
12487SOL    HW240960   3.071   2.396   1.802  0.2834 -0.3902 -0.7334
12488SOL     OW40961   1.473  10.100   2.551 -0.2534  0.1726  0.2304
12488SOL    HW140962   1.471  10.037   2.478  0.2727 -0.4467  0.7364
12488SOL    HW240963   1.418  10.061   2.618 -0.6449  0.6882  0.2138
12489SOL     OW40964  10.898   1.740   8.621 -1.0209 -0.0368 -0.3590
12489SOL    HW140965  10.898   1.753   8.526 -1.5310 -1.3761 -0.5632
12489SOL    HW240966  10.921   1.826   8.657  2.4556 -0.1972 -1.7913
12490SOL     OW40967   3.010   7.158   2.359  0.1575  0.1026  0.1920
12490SOL    HW140968   3.047   7.076   2.391 -1.8915 -1.1069 -0.3434
12490SOL    HW240969   2.917   7.140   2.348 -0.1655  2.1562 -1.0600
12491SOL     OW40970  10.801   2.666   0.586 -0.0127 -0.2924 -0.1954
12491SOL    HW140971  10.775   2.751   0.552  0.0279 -0.7606 -1.4275
12491SOL    HW240972  10.782   2.605   0.515  1.6892 -1.0468 -0.0437
12492SOL     OW40973   9.175   7.984   2.726  0.7586 -0.2054  0.9016
12492SOL    HW140974   9.248   8.044   2.709  0.1316  0.2265 -0.4053
12492SOL    HW240975   9.097   8.037   2.711  0.1737 -0.9167  1.3523
12493SOL     OW40976   4.255   3.486   8.816 -0.2790 -0.0270  0.4667
12493SOL    HW140977   4.339   3.522   8.788  0.5813 -1.1203  1.5322
12493SOL    HW240978   4.199   3.563   8.827  0.5586  0.7129 -0.2945
12494SOL     OW40979   2.878   5.235   2.699  0.2326  0.5495  0.4022
12494SOL    HW140980   2.810   5.193   2.753 -0.0007  1.1653  0.5951
12494SOL    HW240981   2.888   5.176   2.624 -0.5604  0.4766  0.3432
12495SOL     OW40982  10.142   7.729   8.139  0.1091  0.6394  0.5280
12495SOL    HW140983  10.130   7.639   8.169 -1.5161  1.1274  1.5043
12495SOL    HW240984  10.236   7.739   8.129  0.3156 -1.1809  0.3209
12496SOL     OW40985   1.332   6.910   6.597 -0.7810  0.5025  0.4813
12496SOL    HW140986   1.272   6.876   6.663 -1.9173  0.1410 -0.7084
12496SOL    HW240987   1.300   6.998   6.578 -1.1428  0.1830 -0.4023
12497SOL     OW40988  10.256   7.260   3.168 -0.2919 -0.2145  0.1774
12497SOL    HW140989  10.275   7.191   3.104 -3.1277 -0.0570 -0.9842
12497SOL    HW240990  10.214   7.214   3.241 -0.9482  0.0760 -0.0048
12498SOL     OW40991   9.250   4.471   9.879  0.1594  0.0220 -0.3270
12498SOL    HW140992   9.196   4.473   9.801  1.5961  1.0262 -1.3657
12498SOL    HW240993   9.198   4.424   9.944 -1.1701 -0.6247 -1.8017
12499SOL     OW40994   6.718   0.060   7.367  0.1398 -0.0218  0.4988
12499SOL    HW140995   6.699   0.064   7.274 -0.9437 -0.0726  0.7100
12499SOL    HW240996   6.760   0.144   7.387 -1.6465  0.9528  0.3910
12500SOL     OW40997   3.101  10.256  10.148  0.0251 -0.3041  0.0334
12500SOL    HW140998   3.143  10.233  10.065  2.8471 -2.5395  1.8948
12500SOL    HW240999   3.038  10.186  10.164 -0.7676  0.3102 -0.3587
12501SOL     OW41000   6.592   3.860   0.425 -0.2764  0.3698 -0.0224
12501SOL    HW141001   6.608   3.886   0.515 -0.8000 -0.7725  0.4291
12501SOL    HW241002   6.506   3.817   0.427 -0.0210 -0.2242 -0.9314
12502SOL     OW41003   5.545   7.350   6.186 -0.4911  0.2645  0.6541
12502SOL    HW141004   5.549   7.410   6.111  2.5843  0.4201  0.8427
12502SOL    HW241005   5.485   7.394   6.247 -0.4355  1.8066 -0.3294
12503SOL     OW41006   5.966   8.042   7.167  0.8067 -0.0213 -0.0194
12503SOL    HW141007   6.025   7.968   7.156  0.8697 -0.0723  0.6406
12503SOL    HW241008   5.893   8.008   7.218 -0.4120 -0.2746 -1.8320
12504SOL     OW41009   5.933   3.319   1.196  0.0918  0.4235 -0.3264
12504SOL    HW141010   5.862   3.378   1.172 -0.1702  0.1303 -0.2859
12504SOL    HW241011   5.939   3.259   1.121  0.3848  0.5306 -0.3874
12505SOL     OW41012   4.682  10.969   0.870  0.6512  0.2619  0.3053
12505SOL    HW141013   4.597  10.935   0.896  0.8527 -0.2288  0.3321
12505SOL    HW241014   4.662  11.037   0.806  0.2414  0.1026  0.2608
12506SOL     OW41015   4.410   9.500   4.217  0.1432  0.2362 -0.6706
12506SOL    HW141016   4.486   9.454   4.183 -0.7085 -1.6126 -0.2391
12506SOL    HW241017   4.336   9.444   4.194 -0.8433  0.8387  0.8571
12507SOL     OW41018  10.405   2.956   2.151  0.3584 -0.2670 -0.0910
12507SOL    HW141019  10.485   2.909   2.125  0.1125 -0.5487 -0.3367
12507SOL    HW241020  10.388   3.016   2.080 -0.2444 -0.9523 -0.5385
12508SOL     OW41021   1.332   5.931   0.438  0.3739  0.0927 -0.2434
12508SOL    HW141022   1.315   5.922   0.532 -2.7260 -1.1876 -0.8307
12508SOL    HW241023   1.423   5.903   0.427  1.4399  1.9804  2.5384
12509SOL     OW41024  10.350   7.221   4.290 -0.0893  0.1756 -0.2453
12509SOL    HW141025  10.434   7.250   4.325  0.4250 -1.2524 -0.2460
12509SOL    HW241026  10.285   7.262   4.347  0.6589  0.0649  0.7104
12510SOL     OW41027   0.564   9.961   9.957 -0.3740  0.2647  0.3718
12510SOL    HW141028   0.537   9.891  10.017  0.3417  0.0900  0.5007
12510SOL    HW241029   0.659   9.961   9.963 -0.2638 -0.0427 -1.0863
12511SOL     OW41030   1.696   7.810   7.904 -0.2473 -0.0307 -0.0053
12511SOL    HW141031   1.636   7.853   7.843 -1.2473 -0.3897  0.6923
12511SOL    HW241032   1.766   7.775   7.849 -0.6342  0.4646 -0.8278
12512SOL     OW41033   9.008   3.706   3.926  0.2118 -0.4719 -0.4318
12512SOL    HW141034   9.072   3.722   3.856  0.6635  1.0178  0.2710
12512SOL    HW241035   8.965   3.624   3.901 -0.5370  0.6267 -3.1435
12513SOL     OW41036   9.469   1.740   0.215 -0.9167  0.0123  0.1770
12513SOL    HW141037   9.452   1.655   0.256 -1.1851 -0.5023 -0.9722
12513SOL    HW241038   9.547   1.726   0.162 -0.7454  0.5944  0.2656
12514SOL     OW41039   7.535   4.675   5.770  0.1452 -0.6299 -0.3887
12514SOL    HW141040   7.497   4.758   5.743 -1.2817 -1.1530 -0.0726
12514SOL    HW241041   7.620   4.698   5.808  0.5687  0.4885 -1.8855
12515SOL     OW41042   8.966   8.477   3.955 -0.0377  0.2120  0.0055
12515SOL    HW141043   8.980   8.519   3.871  2.4919  1.0027  0.7374
12515SOL    HW241044   8.985   8.544   4.020 -3.2091  0.0231  1.3260
12516SOL     OW41045   1.752   6.105   0.235  0.4383 -0.3272  0.1678
12516SOL    HW141046   1.831   6.134   0.281  0.6728 -1.6950  0.6749
12516SOL    HW241047   1.733   6.177   0.174  1.8582  0.1974  0.2814
12517SOL     OW41048   7.733   1.380   6.015 -0.3395  0.1702 -0.4972
12517SOL    HW141049   7.742   1.444   6.085  0.1828 -2.0229  1.6039
12517SOL    HW241050   7.823   1.358   5.990 -0.4540 -0.8415 -0.0697
12518SOL     OW41051   7.124   7.137   1.752 -0.4672  0.5428  0.0414
12518SOL    HW141052   7.112   7.044   1.731 -0.8116  0.5785  0.0808
12518SOL    HW241053   7.135   7.180   1.667 -0.8940  0.5480 -0.0135
12519SOL     OW41054   0.423   5.607   3.968 -0.2807 -0.2079  0.1280
12519SOL    HW141055   0.365   5.631   4.040 -0.3984  2.7755 -0.8226
12519SOL    HW241056   0.462   5.690   3.940  1.5967 -1.6115 -1.6803
12520SOL     OW41057   4.832   3.482   6.643 -0.0016 -0.2877 -0.4090
12520SOL    HW141058   4.786   3.562   6.671 -1.8572 -1.3563 -0.2095
12520SOL    HW241059   4.872   3.506   6.560 -3.4492 -0.0154 -2.1975
12521SOL     OW41060   3.767   9.053   7.832  1.1344 -0.3904 -0.0081
12521SOL    HW141061   3.852   9.017   7.857  1.1744  0.7593  1.6887
12521SOL    HW241062   3.778   9.148   7.841 -0.8320 -0.2692  2.2668
12522SOL     OW41063   5.124   2.374   0.831 -0.0379 -0.3395  0.3215
12522SOL    HW141064   5.199   2.317   0.811  1.1415  1.0549  0.5760
12522SOL    HW241065   5.048   2.319   0.817  1.0363 -1.8570  0.1539
12523SOL     OW41066   9.988   6.103   6.065  0.3624 -0.8056  0.4971
12523SOL    HW141067   9.962   6.167   5.999 -1.7991 -0.6036  1.4510
12523SOL    HW241068   9.960   6.019   6.030  2.0194 -1.1223 -0.1687
12524SOL     OW41069   7.785   9.169  10.718  0.0781 -0.1292 -0.3987
12524SOL    HW141070   7.879   9.156  10.728  0.2219  1.1382  0.0360
12524SOL    HW241071   7.747   9.081  10.726  1.2376 -0.6866 -0.8822
12525SOL     OW41072   1.084   8.853   7.663  0.4770 -0.1684  0.4415
12525SOL    HW141073   1.141   8.796   7.715  0.6938 -0.1643  0.2111
12525SOL    HW241074   1.125   8.855   7.576  1.3052  1.5350  0.8423
12526SOL     OW41075   3.002   7.978   1.758 -0.0482  0.0655  0.0813
12526SOL    HW141076   2.937   7.909   1.763 -0.2380  0.2994  3.3202
12526SOL    HW241077   3.084   7.933   1.739 -0.5992 -0.6490 -0.6565
12527SOL     OW41078   7.540   9.750   6.765  0.2210 -0.0597  0.6413
12527SOL    HW141079   7.513   9.683   6.828 -1.2325  0.3206  0.4586
12527SOL    HW241080   7.479   9.822   6.780 -1.0498 -0.4549 -2.0444
12528SOL     OW41081   3.941   0.352   0.773  0.1853 -0.0188  0.0344
12528SOL    HW141082   3.918   0.325   0.862  0.0662  0.2438  0.0861
12528SOL    HW241083   3.935   0.272   0.721 -1.3404  0.1100 -0.0481
12529SOL     OW41084   9.177   0.988   2.204 -0.1381  0.1348 -0.1100
12529SOL    HW141085   9.170   0.944   2.289  1.0893 -0.2259 -0.1806
12529SOL    HW241086   9.087   0.989   2.170 -0.3900 -1.1976  0.4470
12530SOL     OW41087   1.203   8.726  10.176  0.0049  0.2178 -0.2282
12530SOL    HW141088   1.240   8.812  10.156  0.6562 -0.1097 -0.4553
12530SOL    HW241089   1.269   8.663  10.145 -0.5518 -0.3677 -0.2515
12531SOL     OW41090   4.079   8.379   7.797  0.1771 -0.7287 -0.3134
12531SOL    HW141091   4.139   8.448   7.770 -1.2804  0.6249 -0.2659
12531SOL    HW241092   4.127   8.329   7.863  2.4531 -1.8252 -2.6562
12532SOL     OW41093   2.961   9.010   4.050  0.2300 -0.3012 -0.0353
12532SOL    HW141094   2.915   8.947   4.106 -0.0839  0.5159  0.6339
12532SOL    HW241095   2.941   8.980   3.961  1.2777 -2.0023  0.2511
12533SOL     OW41096   9.662   5.863   0.050  1.1535  0.0976  0.7265
12533SOL    HW141097   9.656   5.783   0.103  1.9869  1.4488  2.9993
12533SOL    HW241098   9.750   5.860   0.013  0.0617 -1.6377 -2.1377
12534SOL     OW41099   2.369   1.170   1.749  0.2348 -0.4227  0.3148
12534SOL    HW141100   2.311   1.202   1.818 -0.7743  2.0798 -1.5207
12534SOL    HW241101   2.317   1.103   1.704 -2.2776  2.9817 -2.4144
12535SOL     OW41102   5.558   8.207   3.861  0.3833 -0.1170  0.2934
12535SOL    HW141103   5.619   8.265   3.814  0.4160 -0.8419 -0.5708
12535SOL    HW241104   5.546   8.250   3.946  1.7890  0.2562  0.3388
12536SOL     OW41105   3.006   7.665   4.276 -0.1658  0.1801 -0.2973
12536SOL    HW141106   3.011   7.669   4.371  4.7101 -0.8667 -0.2327
12536SOL    HW241107   2.984   7.574   4.256  0.6823 -0.0749 -0.1018
12537SOL     OW41108   5.764   2.963   4.450 -0.7780  0.0471  0.1144
12537SOL    HW141109   5.802   2.914   4.523 -1.1980 -1.0846 -0.3901
12537SOL    HW241110   5.816   3.043   4.445  0.2901 -0.5814  0.6535
12538SOL     OW41111   8.313   1.969   0.964  0.5623 -0.1907 -0.5088
12538SOL    HW141112   8.256   1.899   0.995 -0.5510  0.6751 -0.5241
12538SOL    HW241113   8.382   1.924   0.914 -0.5241 -1.2242 -1.1276
12539SOL     OW41114   0.928   8.543   4.549 -0.0846  0.1936 -0.3651
12539SOL    HW141115   0.835   8.530   4.566  0.3130 -1.3871  0.8730
12539SOL    HW241116   0.949   8.627   4.591 -0.5861 -0.3366  0.9987
12540SOL     OW41117   8.812   2.815   4.712 -0.5704  0.7069  0.5132
12540SOL    HW141118   8.758   2.750   4.667 -0.6480 -0.2450  1.9220
12540SOL    HW241119   8.902   2.790   4.690 -0.6198  1.9721 -1.3920
12541SOL     OW41120   0.371   7.991   4.376  0.3016 -0.4377 -0.0033
12541SOL    HW141121   0.456   8.021   4.344  1.4493 -0.5583  2.6674
12541SOL    HW241122   0.349   7.917   4.319  1.8171 -0.1800 -0.9906
12542SOL     OW41123   8.383   2.214   5.743  0.2185  0.0582  0.3101
12542SOL    HW141124   8.421   2.247   5.662  0.2495 -1.8116 -0.4828
12542SOL    HW241125   8.433   2.135   5.763  0.1089  0.4015  2.0841
12543SOL     OW41126   8.104   7.558   3.246  0.8252  0.1093 -0.3179
12543SOL    HW141127   8.045   7.633   3.232  0.3001 -0.2271  0.0501
12543SOL    HW241128   8.045   7.483   3.250  1.2193 -0.1494  0.7292
12544SOL     OW41129   6.761   7.946   6.430  0.2466 -0.6568 -0.5754
12544SOL    HW141130   6.825   7.971   6.497 -0.2703  0.4687 -0.4788
12544SOL    HW241131   6.802   7.873   6.383  0.9151 -0.9994  0.5070
12545SOL     OW41132   9.601   4.331   5.035 -0.0339  0.1501  0.3134
12545SOL    HW141133   9.558   4.276   4.970  0.0091 -0.3116  0.6754
12545SOL    HW241134   9.534   4.348   5.101  0.2464 -0.3384  0.7335
12546SOL     OW41135  10.005   7.335   8.096 -0.0576  0.0381  0.5496
12546SOL    HW141136   9.919   7.310   8.129 -0.0506 -0.7050  0.0413
12546SOL    HW241137  10.057   7.255   8.101  1.2475  0.9401  2.7529
12547SOL     OW41138   6.829   3.065   8.230  0.1664 -0.1426 -0.3880
12547SOL    HW141139   6.921   3.049   8.210  0.3229  1.3125 -0.9703
12547SOL    HW241140   6.830   3.115   8.312  0.0238  1.3213 -1.2431
12548SOL     OW41141   9.358   7.798   6.534  0.1730  0.3797 -0.6347
12548SOL    HW141142   9.334   7.859   6.464 -0.6535  1.2383  0.3763
12548SOL    HW241143   9.364   7.713   6.490  0.6078  1.0456 -1.9237
12549SOL     OW41144   9.211  10.272   3.417 -0.0098 -0.3786 -0.6631
12549SOL    HW141145   9.172  10.190   3.448 -1.5083  1.4565  2.8993
12549SOL    HW241146   9.176  10.283   3.329 -1.2247 -2.6776 -0.5540
12550SOL     OW41147   2.243   1.060   1.193  0.1190  0.2061 -0.2594
12550SOL    HW141148   2.338   1.048   1.194  0.1738  0.6274 -0.0081
12550SOL    HW241149   2.221   1.069   1.100  0.0815 -1.6551 -0.4577
12551SOL     OW41150   4.185   7.849   7.027 -0.2769  0.2510 -0.3997
12551SOL    HW141151   4.275   7.869   7.054  0.0971  1.1977 -2.1932
12551SOL    HW241152   4.134   7.857   7.107  1.2946 -0.9198  0.7995
12552SOL     OW41153   6.371   7.615   9.175  0.3295 -0.1094  0.1681
12552SOL    HW141154   6.436   7.682   9.195  0.7402 -0.1863 -0.8635
12552SOL    HW241155   6.288   7.653   9.203  0.2313  1.8178 -2.4447
12553SOL     OW41156   2.723   7.398   1.348 -0.2355 -0.4633 -0.0727
12553SOL    HW141157   2.648   7.409   1.289 -2.3312 -2.2404  2.0662
12553SOL    HW241158   2.714   7.310   1.383  1.7893 -0.0515  1.7321
12554SOL     OW41159   5.818   8.733   4.246  0.3660  0.9191  0.3265
12554SOL    HW141160   5.890   8.683   4.284  0.2144  2.2602  2.5638
12554SOL    HW241161   5.817   8.815   4.295 -0.6523  2.3202 -1.8458
12555SOL     OW41162   9.227   2.007   4.416 -0.3575  0.2678 -0.0239
12555SOL    HW141163   9.309   2.039   4.455 -0.9456  0.4241  1.1332
12555SOL    HW241164   9.159   2.059   4.458 -1.0987 -0.3030 -0.5029
12556SOL     OW41165   2.489   8.170   1.518  0.5605  0.1130 -0.0389
12556SOL    HW141166   2.498   8.140   1.608 -1.0741 -3.0312 -0.7674
12556SOL    HW241167   2.419   8.236   1.521  0.5761  0.0888  0.9868
12557SOL     OW41168   4.773   0.679   6.392  0.1886 -0.2930 -0.5844
12557SOL    HW141169   4.767   0.753   6.332  1.2621 -0.2600 -0.6648
12557SOL    HW241170   4.705   0.618   6.362  0.0327  0.1702 -1.1877
12558SOL     OW41171   8.359   3.127   8.016  0.1646  0.0681  0.0246
12558SOL    HW141172   8.420   3.054   8.005 -0.0877 -0.0508 -0.6583
12558SOL    HW241173   8.338   3.154   7.926 -1.4281 -0.4186  0.2215
12559SOL     OW41174   4.088   0.836   0.924  0.2968 -0.2537  0.3642
12559SOL    HW141175   4.101   0.742   0.919  2.1140 -0.1007  1.1790
12559SOL    HW241176   4.084   0.855   1.018 -1.8876  0.2941  0.1991
12560SOL     OW41177   8.830   3.444   7.512 -0.0883  0.6193  0.4098
12560SOL    HW141178   8.852   3.360   7.471 -0.6550  0.0432  1.2566
12560SOL    HW241179   8.735   3.443   7.517 -0.0981  1.3529  0.3649
12561SOL     OW41180   8.213   6.691  10.369  0.1191  0.1544  0.1891
12561SOL    HW141181   8.266   6.690  10.448  1.3284 -3.2086 -0.4941
12561SOL    HW241182   8.220   6.602  10.334 -3.4179  0.4241 -1.7033
12562SOL     OW41183   1.053  10.732   2.108  0.0026 -0.2018 -0.0615
12562SOL    HW141184   1.108  10.804   2.075 -0.1870 -0.0125  0.0324
12562SOL    HW241185   1.075  10.658   2.052 -0.3331  0.1236 -0.6372
12563SOL     OW41186   0.452   5.162   4.626  0.2626 -0.4349 -0.3514
12563SOL    HW141187   0.449   5.113   4.544  0.5177  0.6549 -1.0293
12563SOL    HW241188   0.498   5.104   4.687  2.7500 -0.0940 -1.7974
12564SOL     OW41189  10.820   0.438   6.193  0.8731  0.4402  0.6275
12564SOL    HW141190  10.729   0.410   6.199  1.2671 -0.8982  0.5801
12564SOL    HW241191  10.826   0.481   6.108  1.0547 -2.5945 -1.0434
12565SOL     OW41192   1.323   7.602   2.342 -0.3456  0.0078  0.3670
12565SOL    HW141193   1.346   7.514   2.371 -0.6120  0.2788  1.4397
12565SOL    HW241194   1.231   7.596   2.318 -0.6469  0.2118  1.4109
12566SOL     OW41195   4.436   8.756   9.734  0.0217  0.4078  0.2615
12566SOL    HW141196   4.452   8.679   9.679 -1.2312  0.1605  0.2217
12566SOL    HW241197   4.350   8.741   9.772  0.3945  1.1014  1.4392
12567SOL     OW41198   6.309   7.535  10.322 -0.3241 -0.0053 -0.1195
12567SOL    HW141199   6.254   7.598  10.369  0.7968 -0.3221  1.6930
12567SOL    HW241200   6.261   7.453  10.326  0.2464 -0.2990  1.5244
12568SOL     OW41201  10.536   8.032   4.739 -0.1862 -0.0218 -0.9462
12568SOL    HW141202  10.492   8.103   4.784  0.8164  0.8553 -1.3051
12568SOL    HW241203  10.626   8.062   4.728 -0.0615 -0.7708 -2.2960
12569SOL     OW41204   9.846   7.938   9.025 -0.0309 -0.1159 -0.6831
12569SOL    HW141205   9.873   7.909   9.111 -1.1949 -0.3045 -0.3594
12569SOL    HW241206   9.843   8.033   9.031 -1.8298 -0.1782  0.0684
12570SOL     OW41207   4.580   5.536   4.971 -0.1410 -0.5764  0.3323
12570SOL    HW141208   4.487   5.534   4.951  0.3428 -0.9427 -2.1888
12570SOL    HW241209   4.585   5.517   5.065 -2.5022 -2.1906  0.2154
12571SOL     OW41210   0.360  10.730   0.668 -0.2711 -0.4971  0.3129
12571SOL    HW141211   0.276  10.762   0.703 -1.2697 -2.3403 -0.2714
12571SOL    HW241212   0.354  10.635   0.675  1.0759 -0.7395 -1.3196
12572SOL     OW41213   7.389   2.549   6.164 -0.1139  0.3370  0.6055
12572SOL    HW141214   7.396   2.537   6.070 -0.6773  0.3257  0.5579
12572SOL    HW241215   7.394   2.461   6.200 -1.4610  0.1706  0.4596
12573SOL     OW41216   2.516   8.247   6.389  0.1683 -0.5842  0.1256
12573SOL    HW141217   2.492   8.340   6.392 -1.0635 -0.8749  0.0355
12573SOL    HW241218   2.600   8.242   6.434  0.1237  0.5354  0.3697
12574SOL     OW41219   7.793   9.929   0.203 -0.1893  0.3887  0.2730
12574SOL    HW141220   7.846   9.854   0.231 -1.6491 -1.7720 -2.2310
12574SOL    HW241221   7.846  10.006   0.225  2.2832 -1.4516  1.1950
12575SOL     OW41222   2.088   5.626   3.358 -0.0300  0.0137  0.4970
12575SOL    HW141223   2.017   5.671   3.312 -1.2811 -0.2796  2.0224
12575SOL    HW241224   2.094   5.671   3.442 -0.5850 -1.9056  1.6361
12576SOL     OW41225   3.622   2.631   8.000 -0.0365  0.8490 -0.2818
12576SOL    HW141226   3.546   2.580   8.029  0.6280  0.2323  0.3922
12576SOL    HW241227   3.689   2.614   8.066  0.3335  2.2906 -0.2620
12577SOL     OW41228   7.273   3.223   2.217 -0.7410 -0.2703  0.2672
12577SOL    HW141229   7.209   3.163   2.255 -1.8657  0.6902 -0.0544
12577SOL    HW241230   7.295   3.184   2.133 -1.9837  0.0908 -0.2437
12578SOL     OW41231   0.801   8.050   6.296 -0.1593  0.0128 -0.3098
12578SOL    HW141232   0.824   8.143   6.301 -0.6442  0.1206 -0.0324
12578SOL    HW241233   0.880   8.008   6.262  0.0651  0.5259 -0.4373
12579SOL     OW41234   2.045   1.566   1.278  0.0452 -0.1924 -0.2623
12579SOL    HW141235   2.096   1.486   1.261  0.0915 -0.2139 -0.0226
12579SOL    HW241236   2.108   1.628   1.314  0.1576  0.1863 -1.0816
12580SOL     OW41237   7.287   5.919   5.385  0.4480  0.4958 -1.0235
12580SOL    HW141238   7.224   5.929   5.456  1.1181  1.6573 -0.5464
12580SOL    HW241239   7.354   5.860   5.420 -0.5899 -1.1588 -1.7179
12581SOL     OW41240   6.275   2.266   1.364  0.3062 -0.4705  0.8424
12581SOL    HW141241   6.286   2.182   1.408  1.0703 -0.6571  0.3122
12581SOL    HW241242   6.331   2.326   1.412  0.9291 -0.6129  0.3069
12582SOL     OW41243   1.495   7.462   0.276 -0.6247  0.0137 -0.4853
12582SOL    HW141244   1.562   7.423   0.219 -0.4104 -2.3687  1.2501
12582SOL    HW241245   1.544   7.514   0.339 -0.5450 -0.2431 -0.3324
12583SOL     OW41246   9.865   0.279   9.911  0.2239  0.1373 -0.4790
12583SOL    HW141247   9.902   0.318   9.833 -1.1245  0.4335 -1.0035
12583SOL    HW241248   9.920   0.202   9.928  1.1640  0.6592 -1.0875
12584SOL     OW41249   9.322   9.362   7.644  0.1905  0.0632  0.2406
12584SOL    HW141250   9.332   9.413   7.724 -0.6166  0.2558  0.2343
12584SOL    HW241251   9.327   9.271   7.673 -1.7333  0.0855  0.7967
12585SOL     OW41252   5.408   7.773   3.713 -0.5396 -0.2298  0.2909
12585SOL    HW141253   5.497   7.762   3.745  0.0208  1.4542 -0.6072
12585SOL    HW241254   5.359   7.701   3.754  0.6770  0.2697  2.7939
12586SOL     OW41255   3.346   4.198   3.518  0.0807  0.6081  0.2656
12586SOL    HW141256   3.322   4.290   3.512  0.9764  0.9622  1.7228
12586SOL    HW241257   3.352   4.180   3.612  0.3067 -0.8314  0.0060
12587SOL     OW41258   5.634   6.888  10.200 -1.0052  0.3343 -0.1564
12587SOL    HW141259   5.573   6.817  10.181  1.3693 -1.8726 -0.0553
12587SOL    HW241260   5.598   6.931  10.278 -2.0589 -1.3124  0.3005
12588SOL     OW41261   7.669   6.600  10.017  0.2503  0.2954  0.4619
12588SOL    HW141262   7.654   6.530   9.954 -1.7729  1.4069 -0.3690
12588SOL    HW241263   7.592   6.598  10.074  1.2983  0.3313  1.9335
12589SOL     OW41264  10.099   6.832   2.069 -0.1051  0.0468 -0.1816
12589SOL    HW141265  10.038   6.899   2.038 -2.7005 -1.7132  0.7731
12589SOL    HW241266  10.137   6.796   1.988 -2.0721 -0.2889 -1.0253
12590SOL     OW41267   1.174   5.834   7.206  0.3272  0.6689  0.5107
12590SOL    HW141268   1.111   5.777   7.162  0.4012 -0.1856  1.4611
12590SOL    HW241269   1.195   5.901   7.141  1.7320 -1.4831 -1.4211
12591SOL     OW41270   6.509   9.728   5.738  0.0342  0.2717 -0.2197
12591SOL    HW141271   6.534   9.790   5.670  1.5147 -0.8883 -0.8048
12591SOL    HW241272   6.554   9.647   5.714 -3.5070 -1.7839 -0.7535
12592SOL     OW41273   2.176   4.006   1.650 -0.6037 -0.1558 -0.5020
12592SOL    HW141274   2.170   4.094   1.685 -0.0974 -0.4191  0.2891
12592SOL    HW241275   2.270   3.991   1.639 -0.7279 -0.1804 -1.7649
12593SOL     OW41276   7.513  10.258   5.854 -0.1363 -0.3308 -0.8978
12593SOL    HW141277   7.475  10.194   5.914 -0.8147  0.7828 -0.1170
12593SOL    HW241278   7.561  10.318   5.909 -1.1590  0.9844 -1.3838
12594SOL     OW41279  10.233   9.912   8.352  0.2831  0.0392  0.5731
12594SOL    HW141280  10.186   9.886   8.431  0.7992 -1.1510  0.5076
12594SOL    HW241281  10.276   9.995   8.375 -0.8860  0.5451  0.9958
12595SOL     OW41282   5.365   9.425  10.690 -0.1005  0.3910  0.1009
12595SOL    HW141283   5.361   9.520  10.683  1.7241  0.5671  0.8741
12595SOL    HW241284   5.274   9.396  10.681 -0.9399  2.3302  1.5842
12596SOL     OW41285   0.639   2.730   8.942  0.2077  0.0381 -0.1806
12596SOL    HW141286   0.593   2.813   8.952 -0.4251 -0.2127 -0.9565
12596SOL    HW241287   0.586   2.680   8.880  0.0754 -1.3098  0.9734
12597SOL     OW41288   3.942   0.244   7.978 -0.1547  0.2083  0.0488
12597SOL    HW141289   3.972   0.227   8.067 -0.3976 -0.2941  0.0385
12597SOL    HW241290   3.937   0.157   7.938  1.7140  0.5428 -1.0214
12598SOL     OW41291   9.299   5.335   2.752  0.1903  0.1976 -0.0878
12598SOL    HW141292   9.327   5.360   2.840  1.3623 -0.2881 -0.3023
12598SOL    HW241293   9.238   5.403   2.726 -0.0687  0.4173  1.0520
12599SOL     OW41294   3.792  10.645   4.318  0.1249  0.1904 -0.2095
12599SOL    HW141295   3.837  10.575   4.270  0.5582 -0.3962  1.0334
12599SOL    HW241296   3.862  10.694   4.361 -0.2957  0.4602  0.1743
12600SOL     OW41297   7.432   2.937   0.365  0.1261 -0.3640 -0.2744
12600SOL    HW141298   7.366   2.901   0.306  0.0600 -0.6007 -0.0610
12600SOL    HW241299   7.433   2.876   0.439 -0.1449  0.1937  0.1962
12601SOL     OW41300   7.232   9.966  10.456 -0.0525  0.0989  0.7052
12601SOL    HW141301   7.258   9.877  10.482  0.2207 -0.0891 -0.1895
12601SOL    HW241302   7.268  10.022  10.526  1.8507 -0.2694  0.0890
12602SOL     OW41303   5.996   0.640   2.624  0.0089  0.1079 -0.8714
12602SOL    HW141304   5.994   0.663   2.531 -1.2577  0.4943 -0.7746
12602SOL    HW241305   5.956   0.553   2.627 -2.2520  1.0745 -0.4866
12603SOL     OW41306   7.421   8.442   7.090  0.0851  0.3087  0.1679
12603SOL    HW141307   7.442   8.523   7.044  0.0728  2.2243  3.2741
12603SOL    HW241308   7.330   8.424   7.067  0.1973  0.9373 -0.8203
12604SOL     OW41309   3.997   4.972   2.553  0.1682  0.8198 -0.6236
12604SOL    HW141310   3.923   4.988   2.494  0.3256  0.0803 -1.0207
12604SOL    HW241311   3.974   4.892   2.599  0.9764  0.2700 -1.1529
12605SOL     OW41312  10.135  10.198   9.952 -0.4887  0.1035  0.5138
12605SOL    HW141313  10.191  10.232  10.021  0.0095 -0.0741  0.1991
12605SOL    HW241314  10.060  10.258   9.950  0.1588  0.9065  0.2646
12606SOL     OW41315   4.202   8.578   7.676 -0.3261 -0.3707  0.2704
12606SOL    HW141316   4.223   8.656   7.728 -1.9257  0.8518 -0.8283
12606SOL    HW241317   4.288   8.545   7.648  0.4325  0.4536  1.5180
12607SOL     OW41318   0.868   6.115   4.150  0.0413 -0.0626  0.0188
12607SOL    HW141319   0.845   6.189   4.206 -0.5429 -1.4752  1.7395
12607SOL    HW241320   0.962   6.124   4.136 -0.2710  1.8636 -1.1631
12608SOL     OW41321   4.715   5.212   1.294  0.1686  0.5943  0.7065
12608SOL    HW141322   4.666   5.290   1.267  1.9055  1.6579  0.5073
12608SOL    HW241323   4.720   5.218   1.389  2.1083  1.9079  0.5662
12609SOL     OW41324   2.946   2.711   7.088 -0.0804  0.4907  0.0669
12609SOL    HW141325   2.926   2.786   7.033 -1.8517  0.4227  0.5450
12609SOL    HW241326   3.011   2.661   7.039  0.1212  1.6312 -0.8656
12610SOL     OW41327   9.144   4.370   1.256 -0.0273  0.5180 -0.3174
12610SOL    HW141328   9.218   4.427   1.279 -1.4239  2.0919  0.4842
12610SOL    HW241329   9.090   4.368   1.335 -0.5963 -1.0171 -0.7219
12611SOL     OW41330   5.439   1.467   6.752  0.2100 -0.8925  0.5539
12611SOL    HW141331   5.439   1.483   6.847  0.5826 -0.4179  0.4780
12611SOL    HW241332   5.518   1.510   6.721 -0.0020 -0.8998 -0.0008
12612SOL     OW41333   1.909   7.102   9.584 -0.2502 -0.0481 -0.9462
12612SOL    HW141334   1.854   7.148   9.648  0.1767 -0.3426 -0.3542
12612SOL    HW241335   1.988   7.155   9.579 -0.1253 -0.2351 -0.9377
12613SOL     OW41336   9.602   9.987   3.995 -0.5724  0.1159 -0.2981
12613SOL    HW141337   9.623  10.077   3.968 -0.8018  0.8933  1.8993
12613SOL    HW241338   9.563   9.997   4.082  1.9231 -2.3140  1.2441
12614SOL     OW41339  10.220   9.297   2.178  0.4305 -0.3863  0.0658
12614SOL    HW141340  10.283   9.303   2.106  1.1787  0.6047  0.7743
12614SOL    HW241341  10.267   9.251   2.247 -0.0606 -0.7523  0.1586
12615SOL     OW41342   0.076   4.249   4.818 -0.3649  0.0200  0.1680
12615SOL    HW141343   0.097   4.253   4.911  0.8405 -0.0188 -0.0883
12615SOL    HW241344  -0.001   4.192   4.813 -0.6670  0.3225  1.1660
12616SOL     OW41345   6.224   5.826  10.300  0.0270  0.3496 -0.1439
12616SOL    HW141346   6.298   5.882  10.325  0.5155 -0.4130  0.1653
12616SOL    HW241347   6.264   5.740  10.284 -0.5860  0.2807 -1.4466
12617SOL     OW41348  10.304   6.136   9.419 -0.0026  0.4156 -0.1188
12617SOL    HW141349  10.342   6.222   9.400 -0.9638  0.5086 -1.7435
12617SOL    HW241350  10.256   6.149   9.501  0.4268  1.2367  0.0139
12618SOL     OW41351   3.235   2.526  10.910 -0.2902 -0.1475  0.2473
12618SOL    HW141352   3.229   2.452  10.850 -2.3411 -0.0816  0.3003
12618SOL    HW241353   3.179   2.593  10.872 -1.7187 -0.1247  2.2069
12619SOL     OW41354   7.180   7.613  10.238  0.0510  0.2078 -0.1270
12619SOL    HW141355   7.167   7.624  10.144  0.2004 -1.0451 -0.3136
12619SOL    HW241356   7.186   7.518  10.251 -2.7702  0.1371  1.5241
12620SOL     OW41357   0.404   1.754   5.475 -0.2325  0.4195 -0.3294
12620SOL    HW141358   0.483   1.768   5.423  0.4480  0.1947  0.6303
12620SOL    HW241359   0.353   1.835   5.463  1.3218  1.6847  1.0607
12621SOL     OW41360   0.972   4.373   9.833  0.4220  0.5706  0.4097
12621SOL    HW141361   0.921   4.454   9.836  0.7254  0.7701  0.2549
12621SOL    HW241362   0.914   4.306   9.870 -0.6270  0.4355 -1.3712
12622SOL     OW41363   5.450   7.485   2.879  0.2276  0.1902  0.4005
12622SOL    HW141364   5.477   7.447   2.795 -3.3228  0.4810 -1.0314
12622SOL    HW241365   5.397   7.417   2.920  0.6967  0.6117  1.7613
12623SOL     OW41366   8.321  10.039   4.161 -0.0533 -0.2455 -0.1675
12623SOL    HW141367   8.286   9.974   4.223  1.2559 -0.9174 -0.0925
12623SOL    HW241368   8.357   9.986   4.090  0.2138  0.4443 -0.5506
12624SOL     OW41369   8.934   4.067  10.767 -0.2756 -0.2307 -0.2868
12624SOL    HW141370   8.954   3.979  10.799  1.1147 -0.1842 -0.9831
12624SOL    HW241371   8.847   4.085  10.802 -1.0563 -2.2897 -0.9792
12625SOL     OW41372   2.386   8.210   1.116  0.6522  0.3587  0.6263
12625SOL    HW141373   2.464   8.264   1.104  0.8651 -0.2808 -1.2430
12625SOL    HW241374   2.391   8.145   1.046 -1.6766  0.4698  0.2815
12626SOL     OW41375   2.349   4.863   8.449  0.6858 -0.3483  0.4830
12626SOL    HW141376   2.368   4.952   8.420 -0.8894 -0.0598  0.2524
12626SOL    HW241377   2.336   4.814   8.367 -0.2768 -0.3493  0.6263
12627SOL     OW41378   8.732   0.894  10.661  0.2614  0.0685 -0.3050
12627SOL    HW141379   8.792   0.942  10.718  0.4603 -0.3594 -0.1492
12627SOL    HW241380   8.672   0.849  10.721 -0.8468  1.2635 -0.4669
12628SOL     OW41381  10.868   5.214   1.070  0.1964 -0.4910  0.2497
12628SOL    HW141382  10.926   5.143   1.097  2.0998 -0.7252 -3.6468
12628SOL    HW241383  10.908   5.293   1.108  0.6500 -1.0755  1.0037
12629SOL     OW41384   1.901   9.846   3.370 -0.2349 -0.6553  0.5902
12629SOL    HW141385   1.952   9.927   3.362 -0.1462 -0.7417  0.2835
12629SOL    HW241386   1.935   9.805   3.450 -1.8170  0.6972  2.0619
12630SOL     OW41387   9.224   5.711   7.343 -0.5395  0.1593  0.3058
12630SOL    HW141388   9.130   5.707   7.324 -0.7069 -1.2560  1.2913
12630SOL    HW241389   9.256   5.784   7.290 -2.0994  0.3410 -0.4417
12631SOL     OW41390   1.371   2.280   1.188 -0.4620 -0.8519  0.1290
12631SOL    HW141391   1.406   2.303   1.273  1.6376 -0.8343 -0.6929
12631SOL    HW241392   1.395   2.353   1.131 -0.6421 -1.4787 -0.7764
12632SOL     OW41393   8.290   6.488   2.622 -0.6580 -0.2751 -0.5025
12632SOL    HW141394   8.308   6.424   2.553  0.4994  0.2401 -0.6905
12632SOL    HW241395   8.246   6.438   2.690 -1.7265 -0.8205 -1.5453
12633SOL     OW41396   1.758   6.268   1.710 -0.5792 -0.5995 -0.2660
12633SOL    HW141397   1.850   6.252   1.728 -0.8260 -1.6088  0.1790
12633SOL    HW241398   1.750   6.260   1.615 -0.1875 -0.3735 -0.3189
12634SOL     OW41399   3.882   2.794   4.506 -0.5232  0.0224 -0.7777
12634SOL    HW141400   3.805   2.840   4.538 -0.7938 -0.2561 -1.0118
12634SOL    HW241401   3.850   2.705   4.487 -0.1285 -0.1165 -0.8011
12635SOL     OW41402   4.307   4.230   0.026  0.0360  0.4381  0.2289
12635SOL    HW141403   4.383   4.225  -0.032 -0.3328  0.7415 -0.2947
12635SOL    HW241404   4.314   4.316   0.067  1.3066 -0.4937  2.0814
12636SOL     OW41405   6.915   4.360   0.242  0.0327 -0.4404  0.2497
12636SOL    HW141406   6.908   4.416   0.320  0.6697  0.6081 -0.4130
12636SOL    HW241407   6.940   4.420   0.172 -1.1999 -1.2470 -0.9303
12637SOL     OW41408   6.077   3.619   3.684 -1.2212  0.0618 -0.2058
12637SOL    HW141409   6.056   3.704   3.721  0.9782  0.0724  1.1777
12637SOL    HW241410   6.101   3.638   3.593 -0.0604  1.0554  0.2803
12638SOL     OW41411  10.019   9.763   6.557 -0.1379  0.2659 -0.4720
12638SOL    HW141412   9.953   9.819   6.515 -1.6434 -0.4648  0.8339
12638SOL    HW241413   9.969   9.690   6.592  1.2742  0.0493  1.1751
12639SOL     OW41414   2.840   9.971   6.957  0.2853 -0.2377  0.0201
12639SOL    HW141415   2.785   9.946   7.031  1.6465 -0.6830  0.9119
12639SOL    HW241416   2.848   9.892   6.905  1.6850 -0.7606  0.9636
12640SOL     OW41417   6.169   8.357  10.793  0.3486  0.1374 -0.0046
12640SOL    HW141418   6.259   8.334  10.817  1.1562  1.7088 -1.2748
12640SOL    HW241419   6.170   8.358  10.697 -0.5333  1.8948 -0.0350
12641SOL     OW41420   3.928   6.231   4.085 -0.5346 -0.1748  0.5254
12641SOL    HW141421   3.968   6.305   4.039  0.5354 -1.1778 -0.2448
12641SOL    HW241422   3.857   6.202   4.028 -0.2411 -0.4210  0.2824
12642SOL     OW41423  10.274   0.020   0.990  0.3752  0.4355  0.3498
12642SOL    HW141424  10.347  -0.006   1.047  1.2639  1.6191 -0.1963
12642SOL    HW241425  10.246   0.105   1.025 -1.1914 -0.2968  0.9440
12643SOL     OW41426   2.624   4.353   3.783  0.5051 -0.4825 -0.3944
12643SOL    HW141427   2.582   4.346   3.869  0.8064  0.1800 -0.1897
12643SOL    HW241428   2.690   4.283   3.784  1.2044  0.1639  0.3196
12644SOL     OW41429   1.473   3.086   4.258 -0.3047 -0.4008 -0.0865
12644SOL    HW141430   1.428   3.145   4.198 -0.5859 -0.1834  0.3320
12644SOL    HW241431   1.556   3.066   4.215 -0.5862 -0.3983 -0.6308
12645SOL     OW41432   0.397   4.519   6.668 -1.3198 -0.3355 -0.2417
12645SOL    HW141433   0.367   4.598   6.624  1.0718 -0.1079 -1.5897
12645SOL    HW241434   0.404   4.453   6.599  0.3552 -0.6148  0.1430
12646SOL     OW41435   0.905   8.269  10.092 -0.4897 -0.4250 -0.1460
12646SOL    HW141436   0.824   8.280  10.142  0.9684 -1.4998  2.6461
12646SOL    HW241437   0.946   8.191  10.130  2.7919  1.2008 -0.0644
12647SOL     OW41438   8.275   0.881   7.268  0.3781 -0.4154 -0.0684
12647SOL    HW141439   8.252   0.969   7.238  0.3491  0.1943  1.6078
12647SOL    HW241440   8.198   0.852   7.317  1.3726 -0.2349  1.6986
12648SOL     OW41441   9.645   9.751   4.633 -0.4392  0.1009  0.2403
12648SOL    HW141442   9.602   9.691   4.694  0.2593 -1.5747 -0.8353
12648SOL    HW241443   9.657   9.699   4.554  1.9786  1.0457 -0.0845
12649SOL     OW41444   8.020   2.982   2.563 -0.7084 -0.1200 -0.3452
12649SOL    HW141445   8.107   2.948   2.539  0.1256  0.3475  1.8219
12649SOL    HW241446   8.015   2.970   2.657 -2.4550  1.1785 -0.2405
12650SOL     OW41447   5.590   8.298   4.123 -0.2079  0.1238 -0.1420
12650SOL    HW141448   5.638   8.381   4.118 -0.5244  0.3188 -0.0405
12650SOL    HW241449   5.617   8.260   4.206 -1.5067  1.0627  0.7733
12651SOL     OW41450   5.248   8.511   4.352 -0.2340  0.8386  0.4613
12651SOL    HW141451   5.333   8.502   4.395 -0.5895 -0.2541  0.9936
12651SOL    HW241452   5.195   8.561   4.414 -0.7581 -0.7686  1.3714
12652SOL     OW41453   9.614   7.627   0.797  0.0028  0.2933 -0.5564
12652SOL    HW141454   9.566   7.650   0.877  2.1277 -1.5690  1.3989
12652SOL    HW241455   9.556   7.566   0.752 -0.7052  0.3748  0.2062
12653SOL     OW41456   8.904   3.205   1.944 -0.1685 -0.6722  0.0025
12653SOL    HW141457   8.826   3.175   1.991 -0.5156  2.2558  1.5417
12653SOL    HW241458   8.871   3.272   1.884  1.1276  0.9202  0.9794
12654SOL     OW41459   8.158   3.521   5.492  0.7060 -0.4583  0.2453
12654SOL    HW141460   8.104   3.486   5.422  1.0553 -2.4082  0.8938
12654SOL    HW241461   8.223   3.575   5.448  0.2871 -0.8140 -0.8317
12655SOL     OW41462   3.650   1.044   4.539  0.1707  0.1919 -0.2884
12655SOL    HW141463   3.563   1.083   4.540  0.4246  0.7751 -0.2281
12655SOL    HW241464   3.699   1.093   4.605  0.2790 -0.7814  0.3787
12656SOL     OW41465   7.021   3.535   4.696  0.0480 -0.1298 -0.5301
12656SOL    HW141466   6.988   3.475   4.763 -0.0323 -0.6632 -1.0322
12656SOL    HW241467   7.018   3.621   4.737  0.3199 -0.4875  0.2660
12657SOL     OW41468   4.790   6.821   5.511 -0.0155 -0.1195 -0.3449
12657SOL    HW141469   4.701   6.812   5.543 -0.2990 -1.1787 -1.3813
12657SOL    HW241470   4.843   6.771   5.573 -0.2894 -0.4285 -0.3579
12658SOL     OW41471   4.707   1.420   3.436  0.6128 -0.2105  0.1952
12658SOL    HW141472   4.705   1.422   3.532  1.3607 -1.4006  0.2619
12658SOL    HW241473   4.767   1.490   3.412  0.9359 -0.3281  0.6373
12659SOL     OW41474   7.737   0.597   3.022  0.3130 -0.7263 -0.7842
12659SOL    HW141475   7.655   0.569   3.061  0.1719  0.3890 -0.2520
12659SOL    HW241476   7.740   0.553   2.938 -0.9303 -0.6069 -0.9025
12660SOL     OW41477   2.938   7.607   8.662 -0.0041 -0.5667 -0.2759
12660SOL    HW141478   2.873   7.637   8.725  0.2704 -0.0956 -0.2143
12660SOL    HW241479   2.899   7.623   8.577  0.6252  1.1098 -0.2767
12661SOL     OW41480  10.664   1.186   9.704  0.0579 -0.2597  0.1977
12661SOL    HW141481  10.708   1.113   9.746  0.0838 -0.0211  0.5923
12661SOL    HW241482  10.708   1.196   9.619  0.0353 -0.7138  0.1331
12662SOL     OW41483   1.038   8.409   9.856  0.0569 -0.3796  0.1506
12662SOL    HW141484   0.991   8.362   9.925  0.8346 -1.2629  0.0973
12662SOL    HW241485   1.104   8.347   9.825  0.2129  0.2724 -0.8783
12663SOL     OW41486   4.590   7.143   9.260  0.4982 -0.0750 -0.1529
12663SOL    HW141487   4.675   7.112   9.229  0.8377 -0.6177  1.2033
12663SOL    HW241488   4.535   7.064   9.263  0.5579 -0.0952  0.8182
12664SOL     OW41489   5.539   3.339   6.118  0.0838  0.5644  0.4941
12664SOL    HW141490   5.454   3.323   6.077  0.2888  1.2622 -0.2276
12664SOL    HW241491   5.554   3.262   6.173 -1.2035  0.6246  0.9600
12665SOL     OW41492   4.280   5.497   0.322  0.4144  0.1215 -0.2941
12665SOL    HW141493   4.230   5.561   0.373 -0.2716 -0.5585 -0.0901
12665SOL    HW241494   4.236   5.494   0.237 -0.1101 -0.7021 -0.0137
12666SOL     OW41495   1.889   9.939   7.084 -0.0076  0.5087 -0.7408
12666SOL    HW141496   1.915   9.855   7.046  0.4464 -0.8845  2.3509
12666SOL    HW241497   1.972   9.983   7.103 -0.2416  2.0283 -2.8750
12667SOL     OW41498   5.222   6.676   0.605 -0.0185  0.2225  0.0451
12667SOL    HW141499   5.273   6.600   0.630 -1.0480 -0.9258 -1.1985
12667SOL    HW241500   5.287   6.735   0.565  0.7367 -0.0945  0.7607
12668SOL     OW41501   8.221   2.021   6.581 -0.0522  0.3615 -0.2782
12668SOL    HW141502   8.217   2.071   6.662  0.9263  0.7379 -0.4596
12668SOL    HW241503   8.138   2.041   6.536 -1.8226 -1.8128  1.7368
12669SOL     OW41504  10.650   1.360  10.900  0.1108  0.6285 -0.4869
12669SOL    HW141505  10.742   1.343  10.876  0.0918  2.2247 -1.8967
12669SOL    HW241506  10.627   1.438  10.850 -1.6417  1.0267  0.8578
12670SOL     OW41507   8.586   5.254   9.819 -0.2280  0.4467  0.8122
12670SOL    HW141508   8.501   5.218   9.793 -0.0830  0.0854  0.8343
12670SOL    HW241509   8.649   5.186   9.795  0.5162  2.1053 -2.5358
12671SOL     OW41510   7.084   0.058   2.797  0.0415 -0.4318  0.2569
12671SOL    HW141511   7.125   0.046   2.712  0.2525  1.8109 -0.0118
12671SOL    HW241512   7.005   0.108   2.779 -1.1628 -1.9290  1.1479
12672SOL     OW41513   2.967   2.977   5.648 -0.5131 -0.3504  0.0433
12672SOL    HW141514   3.015   3.031   5.711 -0.0451 -1.4288  0.6349
12672SOL    HW241515   2.879   2.968   5.685 -0.3407 -0.6893  0.3787
12673SOL     OW41516   4.192   1.223   0.721  0.3278 -0.4225 -0.2404
12673SOL    HW141517   4.109   1.234   0.768  1.5097 -0.8687  2.1112
12673SOL    HW241518   4.259   1.246   0.785  2.1165 -2.0383 -1.4136
12674SOL     OW41519  10.231   8.123   4.620 -0.1232  0.5780 -0.2084
12674SOL    HW141520  10.200   8.032   4.621 -0.3072  0.6421  0.3719
12674SOL    HW241521  10.269   8.136   4.707  1.5221  0.5085 -0.8852
12675SOL     OW41522   5.926   0.680   3.220  0.4547 -0.2247  0.1771
12675SOL    HW141523   5.899   0.600   3.266  0.8784 -0.5630 -0.1492
12675SOL    HW241524   5.875   0.750   3.261 -2.4524 -1.0570 -1.7313
12676SOL     OW41525   1.235   8.059   2.505 -0.2755 -0.2940 -0.1457
12676SOL    HW141526   1.164   7.998   2.483  1.3689 -2.1001 -0.7889
12676SOL    HW241527   1.199   8.146   2.487 -1.5545 -1.2684 -2.8883
12677SOL     OW41528   8.515   5.158   7.762 -0.3910  0.3950 -0.1939
12677SOL    HW141529   8.492   5.199   7.679  0.2906  0.9097 -0.1340
12677SOL    HW241530   8.451   5.087   7.772 -1.2027  1.0512 -0.5895
12678SOL     OW41531  10.024   3.604   1.622 -0.8730 -0.0286  0.0889
12678SOL    HW141532  10.086   3.555   1.676  0.7485  1.5607 -0.2534
12678SOL    HW241533   9.948   3.617   1.680  0.7665  1.5453  2.0679
12679SOL     OW41534   1.904   2.194   5.363  0.4103 -0.3792  0.3529
12679SOL    HW141535   1.851   2.156   5.433  0.9630 -1.0457  0.4220
12679SOL    HW241536   1.994   2.184   5.393  0.6082  0.2124 -0.0227
12680SOL     OW41537   5.517   0.766   4.717  0.4693 -0.2625  0.0998
12680SOL    HW141538   5.426   0.736   4.713  0.2987  0.2968 -0.1537
12680SOL    HW241539   5.517   0.850   4.672  1.0454 -0.0974  0.4032
12681SOL     OW41540   8.026  10.126   0.927  0.0690  0.7992  0.1014
12681SOL    HW141541   7.951  10.103   0.982 -0.4952  2.1269 -0.0837
12681SOL    HW241542   8.009  10.082   0.843 -0.5291  1.1299  0.0438
12682SOL     OW41543   8.736   5.676   5.861 -0.4121  0.0008 -0.5612
12682SOL    HW141544   8.705   5.766   5.857  2.1175  1.1770  2.6621
12682SOL    HW241545   8.665   5.629   5.906 -0.9718  0.7550 -0.6259
12683SOL     OW41546   5.688   5.766   8.190 -0.2502  0.0333 -0.1889
12683SOL    HW141547   5.713   5.765   8.283 -1.8162  0.1360  0.2709
12683SOL    HW241548   5.694   5.675   8.163 -0.8473 -0.1700  0.3348
12684SOL     OW41549   7.567   8.831   7.107  0.4647  0.5900  0.2689
12684SOL    HW141550   7.602   8.818   7.195 -0.9409  0.7169  0.8707
12684SOL    HW241551   7.512   8.909   7.115  0.7984  0.9595 -0.8771
12685SOL     OW41552   8.301   9.088   1.250  0.3206 -0.4229  0.4072
12685SOL    HW141553   8.283   9.128   1.165 -2.0526  1.3549  1.6677
12685SOL    HW241554   8.386   9.125   1.276 -1.0277  2.6836  0.7871
12686SOL     OW41555   9.550   3.289   4.230 -0.1713 -0.2560 -0.2162
12686SOL    HW141556   9.610   3.243   4.172  2.2742  2.6917 -0.3221
12686SOL    HW241557   9.564   3.249   4.316  1.5811 -0.0596 -0.3738
12687SOL     OW41558   0.257   3.450   9.871 -0.0201  0.4382 -0.2041
12687SOL    HW141559   0.246   3.475   9.963  0.1405 -0.3475  0.0317
12687SOL    HW241560   0.212   3.519   9.822 -0.2966  0.7422  0.4678
12688SOL     OW41561   6.803   2.316   7.241 -0.4515 -0.2259 -0.0102
12688SOL    HW141562   6.767   2.318   7.329 -1.5382 -1.1749 -0.4086
12688SOL    HW241563   6.773   2.397   7.201  1.0946  0.8231  0.8538
12689SOL     OW41564   4.867   6.253  10.248 -0.1985 -0.2266  0.3272
12689SOL    HW141565   4.814   6.197  10.306 -0.3401 -0.0002  0.4197
12689SOL    HW241566   4.828   6.340  10.259 -1.5205 -0.5139 -1.6037
12690SOL     OW41567   2.533   7.908   9.035  0.1057 -0.2356  0.1167
12690SOL    HW141568   2.615   7.948   9.064  0.1527  1.4131 -2.1184
12690SOL    HW241569   2.526   7.829   9.089  0.8641  1.8004  3.5376
12691SOL     OW41570   7.238   7.833   7.177 -0.1861  0.2922 -0.4458
12691SOL    HW141571   7.214   7.798   7.091  0.9900 -0.7353 -0.3909
12691SOL    HW241572   7.315   7.782   7.203 -0.1191  1.0375  0.9276
12692SOL     OW41573   0.163   8.112   0.465 -0.3526 -0.0723  0.1238
12692SOL    HW141574   0.118   8.028   0.477 -1.6178  0.7234  1.1025
12692SOL    HW241575   0.184   8.114   0.371 -0.1830 -1.5276  0.0990
12693SOL     OW41576   3.012  10.297   7.403  0.5180 -0.1880  0.2771
12693SOL    HW141577   3.073  10.341   7.462 -1.7070  2.6712  0.6879
12693SOL    HW241578   3.038  10.326   7.315  0.4165  0.1975  0.3699
12694SOL     OW41579   7.276   7.173   0.936  0.4119  0.4836 -0.3985
12694SOL    HW141580   7.215   7.235   0.976  1.0330  0.5399  0.4841
12694SOL    HW241581   7.357   7.224   0.925  1.4849 -0.5890  1.9055
12695SOL     OW41582   0.791   2.719   9.836 -0.9329  0.4411 -0.1979
12695SOL    HW141583   0.740   2.764   9.903  2.4754  1.4784  1.9887
12695SOL    HW241584   0.842   2.789   9.795  1.1814 -0.8289  0.1437
12696SOL     OW41585   4.363   3.145   9.864 -0.1335  0.2553  0.1336
12696SOL    HW141586   4.412   3.220   9.898  0.0066 -0.4618  1.6030
12696SOL    HW241587   4.430   3.083   9.836 -0.2402  0.9909 -1.9514
12697SOL     OW41588   6.671   3.777   1.583  0.0908  0.0327  0.3243
12697SOL    HW141589   6.693   3.705   1.525  0.6168  1.0451 -0.7682
12697SOL    HW241590   6.711   3.753   1.667  2.7933  0.3799 -0.7764
12698SOL     OW41591   2.770   2.904   1.265 -0.3152  0.4118 -0.5075
12698SOL    HW141592   2.758   2.942   1.178 -1.4985  3.0609  0.6851
12698SOL    HW241593   2.848   2.948   1.299  0.2226 -0.7094 -0.2658
12699SOL     OW41594   4.670   8.559   4.593 -0.5731  0.0844  0.0176
12699SOL    HW141595   4.574   8.563   4.590 -0.5648  1.0269  0.7250
12699SOL    HW241596   4.694   8.604   4.673  0.3311 -2.9957  1.6349
12700SOL     OW41597   2.986   1.816   7.928  0.3568  0.2767 -0.1126
12700SOL    HW141598   2.892   1.800   7.940  0.4990 -0.8139 -0.2995
12700SOL    HW241599   3.028   1.754   7.988  0.9540  1.4582  0.7106
12701SOL     OW41600   8.505   0.514   0.159 -0.5360  0.0427 -0.0004
12701SOL    HW141601   8.599   0.524   0.171 -0.4632  0.5457 -0.8596
12701SOL    HW241602   8.491   0.419   0.156  0.0042 -0.0348 -0.2392
12702SOL     OW41603  10.041  10.621   7.346  0.5433 -0.4929  0.2649
12702SOL    HW141604  10.053  10.639   7.253  2.1578 -2.0448  0.1111
12702SOL    HW241605  10.000  10.535   7.349  0.6237 -0.5116  0.9789
12703SOL     OW41606   2.718   3.871   9.764  0.0220 -0.5052  0.2921
12703SOL    HW141607   2.656   3.855   9.693  0.1558  0.5650 -0.0793
12703SOL    HW241608   2.738   3.964   9.757  2.0458 -0.9201  0.0948
12704SOL     OW41609   7.589   2.898   4.938 -0.5633 -0.3872  0.7723
12704SOL    HW141610   7.639   2.824   4.972 -0.4695  0.7358  3.2815
12704SOL    HW241611   7.654   2.952   4.893 -0.5164 -1.4472 -0.4896
12705SOL     OW41612   2.571   5.502   3.466 -0.5381  0.6484 -0.4513
12705SOL    HW141613   2.489   5.537   3.500 -0.1794  1.2298 -0.1669
12705SOL    HW241614   2.639   5.559   3.503 -0.1072  1.0855 -1.8407
12706SOL     OW41615   3.681   0.086   7.445 -0.3328 -0.5855 -0.1607
12706SOL    HW141616   3.699   0.007   7.394 -1.3410 -0.1973 -1.1792
12706SOL    HW241617   3.718   0.158   7.392 -0.9179 -0.2314 -0.1042
12707SOL     OW41618   9.256   7.241   6.086 -0.2643  0.1377  0.5787
12707SOL    HW141619   9.205   7.176   6.038 -0.2345 -0.4549  1.3367
12707SOL    HW241620   9.282   7.197   6.166  1.1683  0.5421  0.3569
12708SOL     OW41621   1.757   3.716   2.501 -0.3992  0.1768  0.4519
12708SOL    HW141622   1.696   3.741   2.431 -0.3282 -0.1541  0.2669
12708SOL    HW241623   1.826   3.782   2.498 -0.4021  0.1706  0.2143
12709SOL     OW41624   2.907   6.249   6.754  0.4827  0.3779  1.0611
12709SOL    HW141625   2.856   6.224   6.831 -1.1116 -0.1439 -0.1120
12709SOL    HW241626   2.884   6.184   6.687  4.0487 -1.0061  0.9119
12710SOL     OW41627   2.361   5.079   8.289 -0.0759  0.0901 -0.3296
12710SOL    HW141628   2.283   5.130   8.307  0.7565  1.0996  0.5904
12710SOL    HW241629   2.346   5.041   8.202 -1.0187  1.3337 -0.7369
12711SOL     OW41630   4.212   7.694   6.482 -0.2317  0.1619  0.0940
12711SOL    HW141631   4.230   7.600   6.494  0.3442  0.3204  0.5370
12711SOL    HW241632   4.201   7.705   6.388  0.6342 -0.1974 -0.0598
12712SOL     OW41633   4.338   0.578   2.746 -0.9018  0.0521 -0.0415
12712SOL    HW141634   4.401   0.638   2.707  0.4463 -1.1058  0.3012
12712SOL    HW241635   4.339   0.600   2.840  1.4671 -2.0672  0.5179
12713SOL     OW41636   1.400   7.779   7.724  0.1480  0.0549  0.1570
12713SOL    HW141637   1.432   7.804   7.637 -0.4885 -0.6518 -0.2932
12713SOL    HW241638   1.307   7.762   7.711 -0.2294  1.1910  1.2573
12714SOL     OW41639   5.526   4.604   8.505  0.2847 -0.1300 -0.7259
12714SOL    HW141640   5.599   4.652   8.465 -0.1987  1.8521  0.5870
12714SOL    HW241641   5.565   4.561   8.581 -0.1241  2.3724  1.0182
12715SOL     OW41642  10.340  10.923   1.255 -0.3286 -0.0546  0.0363
12715SOL    HW141643  10.358  10.829   1.246  0.0163  0.1976 -3.4392
12715SOL    HW241644  10.248  10.927   1.280 -0.9331 -1.4076 -1.7149
12716SOL     OW41645   6.783   9.290   5.527 -0.6988  0.1372 -0.0912
12716SOL    HW141646   6.859   9.242   5.562  0.2093  1.7433  0.2650
12716SOL    HW241647   6.741   9.229   5.467  1.2524 -0.6097 -0.7804
12717SOL     OW41648   1.143   7.174   5.040  0.3301 -0.2509 -0.0068
12717SOL    HW141649   1.099   7.217   5.113  0.9019  0.3129  0.0221
12717SOL    HW241650   1.187   7.099   5.079  0.9245  0.2480  0.3010
12718SOL     OW41651   4.767   0.791   2.938 -0.2928 -0.2092 -0.3884
12718SOL    HW141652   4.755   0.698   2.953 -0.1399 -0.2429 -0.4732
12718SOL    HW241653   4.857   0.808   2.966  0.3057 -0.4465 -2.0914
12719SOL     OW41654   5.028   6.637   0.415 -0.0817 -0.0197 -0.8406
12719SOL    HW141655   5.006   6.546   0.437  0.7698  0.1552  0.9197
12719SOL    HW241656   5.089   6.664   0.484 -0.8472  2.1197 -0.9376
12720SOL     OW41657  10.471   3.376   4.592 -0.0906  0.1655 -0.7585
12720SOL    HW141658  10.529   3.352   4.664 -0.7801  0.7721  0.0302
12720SOL    HW241659  10.400   3.312   4.596 -0.1729  0.2511 -0.8348
12721SOL     OW41660  10.525   8.875   6.932  0.1627  0.1270 -0.5525
12721SOL    HW141661  10.553   8.878   7.024  0.7875  1.9087 -0.7816
12721SOL    HW241662  10.601   8.841   6.885 -0.0066 -0.3584 -0.4878
12722SOL     OW41663   6.533   7.914   9.387  0.6910  0.0938  0.0168
12722SOL    HW141664   6.557   7.824   9.366 -1.0671 -0.5804  0.6686
12722SOL    HW241665   6.497   7.909   9.476 -0.1247  1.2896 -0.2142
12723SOL     OW41666  10.370   0.622   0.975 -0.3609 -0.2704 -0.2491
12723SOL    HW141667  10.342   0.676   1.049  0.2632 -0.1058 -0.1230
12723SOL    HW241668  10.445   0.668   0.939 -1.3720  0.2603 -1.7366
12724SOL     OW41669  10.099   0.552   0.256 -0.1388  0.5456  0.3645
12724SOL    HW141670  10.036   0.623   0.251  0.1153  0.8975  1.8450
12724SOL    HW241671  10.053   0.481   0.301 -0.4062 -0.2734 -1.1345
12725SOL     OW41672   8.501   1.145   9.933  0.3054 -0.7043 -0.6168
12725SOL    HW141673   8.556   1.071   9.909 -0.2448 -1.4983  0.5041
12725SOL    HW241674   8.445   1.112  10.003 -0.7705  0.4277 -0.8976
12726SOL     OW41675   4.014   3.761   4.610  0.4127  0.4743 -0.2917
12726SOL    HW141676   4.090   3.810   4.580  1.5074  0.0958  1.7248
12726SOL    HW241677   3.958   3.826   4.652  1.1048  0.2908  0.9521
12727SOL     OW41678   7.392   4.232   0.864 -0.4035  0.0326  0.4093
12727SOL    HW141679   7.432   4.197   0.785 -0.3755  0.4498  0.2378
12727SOL    HW241680   7.458   4.219   0.932  0.5185  1.7584 -0.0960
12728SOL     OW41681   1.264   1.091   1.340 -0.1673 -0.4036  0.1049
12728SOL    HW141682   1.215   1.081   1.258  1.1636 -0.3134 -0.7458
12728SOL    HW241683   1.294   1.002   1.360 -0.2721 -0.3828  0.3515
12729SOL     OW41684  10.551   4.859   6.861 -0.2540 -0.7777  0.4156
12729SOL    HW141685  10.473   4.835   6.811  0.0041  0.2810 -0.5289
12729SOL    HW241686  10.524   4.937   6.911  0.6631  0.6884 -1.2668
12730SOL     OW41687   7.643   4.757   1.605  0.2465 -0.2629  0.6265
12730SOL    HW141688   7.737   4.747   1.590  0.5953  1.0457  1.6820
12730SOL    HW241689   7.608   4.783   1.520  0.9976  0.1821  0.4438
12731SOL     OW41690   2.706   3.358  10.112 -0.0601 -0.1457 -0.5533
12731SOL    HW141691   2.681   3.445  10.080  0.7686  0.3859  0.2089
12731SOL    HW241692   2.667   3.353  10.199  2.1399  0.5751  0.5294
12732SOL     OW41693   6.613   8.319   0.659 -0.2801  0.0573 -0.3472
12732SOL    HW141694   6.586   8.288   0.572  0.4058 -1.2753 -0.1177
12732SOL    HW241695   6.708   8.332   0.651 -0.1241 -0.5735  0.3252
12733SOL     OW41696   1.425   4.749   6.794 -0.2677 -0.1363  0.5018
12733SOL    HW141697   1.420   4.674   6.734 -0.8473 -0.4707  0.9467
12733SOL    HW241698   1.348   4.739   6.850 -0.1454  0.5927  0.8092
12734SOL     OW41699  10.988   0.592   1.400  0.6547 -0.0817  0.1879
12734SOL    HW141700  10.973   0.508   1.444  0.5315  0.8965  2.1059
12734SOL    HW241701  10.933   0.654   1.447  0.6685  1.0770 -1.2639
12735SOL     OW41702   4.166   0.738   5.913  0.5201  0.2386 -0.5684
12735SOL    HW141703   4.080   0.741   5.956  0.4317  1.8352 -0.7926
12735SOL    HW241704   4.228   0.752   5.984  0.5024  0.5963 -0.6215
12736SOL     OW41705   1.564   4.486   0.516 -0.0404  0.0991 -0.0004
12736SOL    HW141706   1.520   4.513   0.597 -0.0603  0.5331 -0.1562
12736SOL    HW241707   1.536   4.396   0.503 -1.9497  0.7605 -0.8150
12737SOL     OW41708   2.020   2.197   4.494 -0.3152 -0.0265  0.0131
12737SOL    HW141709   1.967   2.248   4.555 -1.4111 -0.3360 -0.6485
12737SOL    HW241710   2.090   2.257   4.467 -0.5951  0.5528  0.5390
12738SOL     OW41711   2.946   7.065   6.599  0.0784 -0.1184 -0.2246
12738SOL    HW141712   2.912   7.052   6.687  5.1671  3.0573  2.7114
12738SOL    HW241713   2.898   7.141   6.565 -1.4281 -0.9300  0.0060
12739SOL     OW41714   9.999   9.908   0.861  0.6721 -0.2050 -0.1596
12739SOL    HW141715  10.039   9.849   0.798  1.1909  0.1786 -0.2028
12739SOL    HW241716  10.071   9.930   0.921 -0.1597 -1.7438  1.4814
12740SOL     OW41717   4.908   5.218   4.380  0.2736 -0.1579  0.7193
12740SOL    HW141718   4.925   5.300   4.426 -0.1797 -0.1057  0.7967
12740SOL    HW241719   4.957   5.152   4.431  1.8994  0.2645 -0.2169
12741SOL     OW41720   8.148   8.307   0.311 -0.4249 -0.0158  0.2332
12741SOL    HW141721   8.143   8.321   0.217  0.4012  2.5813  0.5137
12741SOL    HW241722   8.128   8.392   0.349 -2.0444 -1.2904  2.4887
12742SOL     OW41723   9.319   0.411   4.050 -0.0327 -0.2773  0.3607
12742SOL    HW141724   9.361   0.426   4.135 -1.4867  3.0972  0.6897
12742SOL    HW241725   9.390   0.411   3.987  0.9124 -0.6493  1.4004
12743SOL     OW41726  10.857   4.400   3.004  0.4457 -0.8000 -0.5546
12743SOL    HW141727  10.795   4.350   2.951  1.0156 -2.4512  0.2787
12743SOL    HW241728  10.943   4.380   2.966  0.6251  0.3253 -0.7979
12744SOL     OW41729   8.514   8.310   2.709 -0.2033  0.1993  0.4902
12744SOL    HW141730   8.424   8.326   2.740 -0.1322  0.8799  0.3503
12744SOL    HW241731   8.529   8.378   2.644 -0.4425 -1.3556 -1.2741
12745SOL     OW41732   1.781   2.458   2.441  0.0950 -0.4189 -0.3104
12745SOL    HW141733   1.762   2.501   2.358  0.8574 -2.2334 -1.4843
12745SOL    HW241734   1.700   2.415   2.465  0.3288 -1.2794 -1.0118
12746SOL     OW41735   0.078   0.911   9.278  0.3794 -0.4054  0.8147
12746SOL    HW141736  -0.013   0.932   9.256  0.5383 -0.4973  0.0644
12746SOL    HW241737   0.097   0.966   9.354  0.1157  0.6128  0.1585
12747SOL     OW41738   9.495   2.893   2.892 -0.4588  0.4280  0.3382
12747SOL    HW141739   9.542   2.822   2.936  1.3010  0.9871 -0.5581
12747SOL    HW241740   9.535   2.973   2.925 -0.8880  0.9354 -0.3433
12748SOL     OW41741   8.314   8.554   0.108  0.3330  0.4755 -0.0954
12748SOL    HW141742   8.251   8.495   0.067  1.3001  0.2047 -1.2323
12748SOL    HW241743   8.274   8.577   0.192 -1.0473 -0.0737 -0.5763
12749SOL     OW41744   8.834   1.052   9.015  0.2858 -0.1936 -0.4001
12749SOL    HW141745   8.781   0.985   9.059  1.0367 -0.6759 -0.2165
12749SOL    HW241746   8.916   1.053   9.064  0.3388  0.7690 -0.4937
12750SOL     OW41747   7.719   0.644   5.538  0.4698  0.1850 -0.3518
12750SOL    HW141748   7.664   0.664   5.462 -0.6811  1.2990  0.7261
12750SOL    HW241749   7.762   0.727   5.559  1.6543 -0.3853 -0.4416
12751SOL     OW41750   4.817   2.517   7.132  0.5703  0.1261  0.4956
12751SOL    HW141751   4.839   2.564   7.051  0.8148  1.3204  1.2235
12751SOL    HW241752   4.902   2.494   7.170  0.4514 -0.6781  0.2792
12752SOL     OW41753   3.368   9.157   6.591  0.3124 -0.4489 -0.1615
12752SOL    HW141754   3.306   9.181   6.660 -0.6645  0.6274 -1.3563
12752SOL    HW241755   3.364   9.230   6.529 -0.0596 -2.0588 -2.1591
12753SOL     OW41756   1.449   4.681  10.373  0.2537  0.7260 -0.1908
12753SOL    HW141757   1.354   4.685  10.368  0.1493  1.7145  1.7129
12753SOL    HW241758   1.479   4.710  10.286 -1.1414 -0.5601 -1.1547
12754SOL     OW41759   8.472   3.014   9.078 -0.3588  0.8849 -0.1381
12754SOL    HW141760   8.479   2.918   9.085 -0.9810  0.9536  1.9960
12754SOL    HW241761   8.392   3.029   9.028 -0.7034  0.2707  0.2137
12755SOL     OW41762  10.799   9.070   3.036 -0.5275 -0.0086  0.5150
12755SOL    HW141763  10.715   9.070   2.989 -1.5307  0.4766  2.1893
12755SOL    HW241764  10.811   8.980   3.065 -0.7758  0.0263  0.7395
12756SOL     OW41765   8.316  10.456   5.864  0.4299 -0.1293  0.1708
12756SOL    HW141766   8.275  10.424   5.945  0.2971 -0.0238  0.1457
12756SOL    HW241767   8.282  10.399   5.796  0.2596  0.0101  0.1384
12757SOL     OW41768   3.300   7.024   7.586 -0.2722 -0.4013  0.5698
12757SOL    HW141769   3.264   7.011   7.674  0.9425 -1.4841  0.9263
12757SOL    HW241770   3.252   6.961   7.532  0.7567 -1.5685  0.9714
12758SOL     OW41771   8.577   6.747   6.969 -0.0280  0.2854  0.0351
12758SOL    HW141772   8.637   6.759   6.896 -0.1781  0.4848 -0.0540
12758SOL    HW241773   8.599   6.817   7.030  1.2015 -0.8232  0.9297
12759SOL     OW41774   4.151   3.403   0.112 -0.5702  0.0325 -0.1324
12759SOL    HW141775   4.203   3.446   0.045  0.7099 -1.9592 -0.4871
12759SOL    HW241776   4.201   3.325   0.137 -1.5982  0.0158  2.2442
12760SOL     OW41777   4.928   8.708   7.623  0.1860 -0.4531  0.0028
12760SOL    HW141778   4.889   8.681   7.540  1.8795 -0.3065 -0.8930
12760SOL    HW241779   5.022   8.689   7.612  0.9229  2.3763  0.7002
12761SOL     OW41780   7.151   4.068  10.945  0.2382 -0.3255  0.2424
12761SOL    HW141781   7.176   4.125  11.018 -0.1434  0.5606 -0.3062
12761SOL    HW241782   7.200   3.987  10.960  0.4360 -0.0224  1.2845
12762SOL     OW41783   5.203   7.168  10.781  0.0124 -0.2146  0.6445
12762SOL    HW141784   5.217   7.118  10.862 -0.9194  1.5699  1.9858
12762SOL    HW241785   5.117   7.141  10.751 -0.3248  0.2877  1.1494
12763SOL     OW41786   3.863   9.750   0.336 -0.0274 -0.0646 -0.2400
12763SOL    HW141787   3.811   9.705   0.269 -0.2471 -1.1833  0.6616
12763SOL    HW241788   3.797   9.793   0.391  0.0688 -0.3824  0.1250
12764SOL     OW41789   4.120   7.907   6.316 -0.2520 -0.0430  0.0296
12764SOL    HW141790   4.062   7.892   6.241 -0.0631  0.0870 -0.1405
12764SOL    HW241791   4.073   7.971   6.370 -0.7285 -0.6848  0.3973
12765SOL     OW41792   5.552   6.101   1.027  0.0635 -0.5197 -0.8871
12765SOL    HW141793   5.490   6.040   0.987 -1.0537  0.3632 -0.5428
12765SOL    HW241794   5.560   6.071   1.117 -1.8224  0.7776 -0.2165
12766SOL     OW41795   2.135  10.168   5.713  0.2723  0.3958  0.3430
12766SOL    HW141796   2.173  10.250   5.744  1.0741  0.3900 -0.6063
12766SOL    HW241797   2.166  10.158   5.623 -1.6515  0.1751 -0.3422
12767SOL     OW41798   8.414   9.839   7.363  0.3554  0.3461  0.1506
12767SOL    HW141799   8.380   9.820   7.275  0.8528  1.4513 -0.3075
12767SOL    HW241800   8.493   9.786   7.370 -0.0138 -0.2043  0.1672
12768SOL     OW41801   6.463   7.011   7.608 -0.3424 -0.8307  0.1816
12768SOL    HW141802   6.411   7.062   7.546 -1.9832 -1.1488  1.2214
12768SOL    HW241803   6.486   7.072   7.677  0.2123 -0.8248 -0.0025
12769SOL     OW41804   6.959   7.414   7.227  0.2496 -0.3295 -0.2559
12769SOL    HW141805   6.929   7.458   7.306  0.8876 -1.2097  0.5088
12769SOL    HW241806   6.922   7.326   7.233  0.4825 -0.4736 -0.8304
12770SOL     OW41807   5.205   8.799   4.047  0.1748 -0.4406 -0.3723
12770SOL    HW141808   5.158   8.881   4.029  0.4029 -0.1167  0.4405
12770SOL    HW241809   5.147   8.730   4.017 -0.3960 -0.0044 -0.2736
12771SOL     OW41810   0.835   6.181   6.017  0.2048 -0.4103 -0.2266
12771SOL    HW141811   0.915   6.210   6.060 -0.4290 -0.0207  0.7131
12771SOL    HW241812   0.815   6.250   5.954  0.1406 -0.0925  0.1411
12772SOL     OW41813   2.645   2.879   7.308  0.0665 -0.0266 -0.2150
12772SOL    HW141814   2.592   2.958   7.298 -0.8943 -0.6419 -0.1235
12772SOL    HW241815   2.619   2.823   7.236  1.9371  0.3618 -1.2702
12773SOL     OW41816  10.033   9.269   3.448  0.4026 -0.1458  0.7838
12773SOL    HW141817   9.941   9.264   3.473  0.3192 -1.5782  0.2955
12773SOL    HW241818  10.074   9.196   3.493  0.9290 -0.6164 -0.4141
12774SOL     OW41819   8.342   3.501   9.063 -0.4284  0.6226 -0.2322
12774SOL    HW141820   8.303   3.533   8.981  0.2521  1.7929 -0.1280
12774SOL    HW241821   8.435   3.492   9.043 -0.3343  0.4440  0.2710
12775SOL     OW41822  10.534   5.032   3.831 -0.3349  0.1010  0.1411
12775SOL    HW141823  10.506   5.106   3.885  0.3608  0.8067 -0.4416
12775SOL    HW241824  10.551   4.961   3.893  1.9884  1.3663  1.0621
12776SOL     OW41825  10.045   4.642   0.688  0.0222  0.0548  0.4958
12776SOL    HW141826  10.051   4.666   0.780  0.6732  0.7742  0.2801
12776SOL    HW241827  10.117   4.580   0.675  0.1805  0.2617  0.3825
12777SOL     OW41828   8.187   8.355  10.626  0.2886 -0.2716  0.1903
12777SOL    HW141829   8.278   8.370  10.600 -0.2514  0.2137 -1.5347
12777SOL    HW241830   8.139   8.350  10.544 -1.7185  2.5033  1.0429
12778SOL     OW41831   5.528   0.805   2.326  0.3492  0.4884  0.2454
12778SOL    HW141832   5.623   0.803   2.316  0.4607 -0.2163  1.3365
12778SOL    HW241833   5.496   0.748   2.256  0.7238  0.6025 -0.0252
12779SOL     OW41834   4.415   0.915   4.295 -0.6865  0.4576  0.2382
12779SOL    HW141835   4.383   0.915   4.204 -1.7582  0.9520  0.6022
12779SOL    HW241836   4.432   0.823   4.314 -0.0146  0.3961 -0.6096
12780SOL     OW41837   7.664   0.229   2.489 -0.1855 -0.3369  0.7291
12780SOL    HW141838   7.634   0.310   2.531 -0.5435 -0.5553  0.8913
12780SOL    HW241839   7.681   0.254   2.398 -0.7545 -0.1919  0.6616
12781SOL     OW41840   8.613   2.685   2.351 -0.0039 -0.3098  0.4059
12781SOL    HW141841   8.686   2.718   2.298 -0.3628  0.1570  0.1866
12781SOL    HW241842   8.560   2.635   2.289 -0.0566 -0.3475  0.4816
12782SOL     OW41843  10.208   4.258   5.645  0.0108  0.4176 -0.0996
12782SOL    HW141844  10.159   4.308   5.711  1.7984  0.4571  1.2793
12782SOL    HW241845  10.289   4.308   5.633  1.0079 -1.1666 -0.1096
12783SOL     OW41846   4.669   6.343   1.556 -0.1304  0.2639 -0.2056
12783SOL    HW141847   4.727   6.413   1.527  1.5201 -0.2114  1.7356
12783SOL    HW241848   4.621   6.380   1.630 -0.0617 -0.3167  0.1347
12784SOL     OW41849  10.038   1.191   0.114 -0.3311  0.5594  0.6179
12784SOL    HW141850  10.059   1.248   0.040 -2.3469  2.1545  1.1769
12784SOL    HW241851   9.974   1.241   0.165 -1.2372 -1.7188  1.8503
12785SOL     OW41852   9.957   9.734   0.643 -0.2160  0.0442 -0.3728
12785SOL    HW141853   9.991   9.799   0.582  1.3401 -0.1497  0.2404
12785SOL    HW241854   9.863   9.754   0.650  0.0579  1.6333 -0.8877
12786SOL     OW41855   8.434  10.732   0.231  0.2161  0.9664 -0.1791
12786SOL    HW141856   8.528  10.743   0.244 -0.0497  1.4624  1.6363
12786SOL    HW241857   8.418  10.639   0.246  0.3466  0.9853  0.0807
12787SOL     OW41858   1.651   7.540   6.481 -0.3494  0.2443  0.5858
12787SOL    HW141859   1.686   7.461   6.439  0.8051 -0.2884  2.4486
12787SOL    HW241860   1.707   7.611   6.448  0.3735 -0.1263  0.9925
12788SOL     OW41861   7.113   2.548   4.334 -0.1490 -0.2680 -0.2876
12788SOL    HW141862   7.058   2.606   4.386  1.1144 -0.6167  1.5450
12788SOL    HW241863   7.198   2.593   4.329 -0.2845 -0.1140 -2.3535
12789SOL     OW41864   5.205   9.024   7.677 -0.2345 -0.0141  0.1989
12789SOL    HW141865   5.191   9.029   7.583  0.7318  1.0482  0.0815
12789SOL    HW241866   5.213   9.116   7.705  1.1410 -0.3455  1.0312
12790SOL     OW41867  10.839   4.381   2.598 -0.8209 -0.1546 -0.0937
12790SOL    HW141868  10.815   4.416   2.512 -0.8772 -1.5557 -0.6795
12790SOL    HW241869  10.888   4.452   2.640 -0.2569  0.3461 -1.5259
12791SOL     OW41870  10.400   8.165   8.809 -0.1266  0.5186  0.3390
12791SOL    HW141871  10.450   8.222   8.751 -0.0860  2.6532  2.2916
12791SOL    HW241872  10.385   8.218   8.888 -0.6642 -1.9879  2.0675
12792SOL     OW41873   3.791   2.226   8.703 -0.0701 -0.0763  0.1248
12792SOL    HW141874   3.721   2.282   8.668 -0.0320 -0.3149 -0.3404
12792SOL    HW241875   3.865   2.242   8.644  0.4347  0.5791  0.9287
12793SOL     OW41876   7.616   9.376   6.035  0.0666  0.1326 -0.1304
12793SOL    HW141877   7.672   9.376   6.112  1.1504  1.3365 -0.8909
12793SOL    HW241878   7.616   9.467   6.005 -0.7033 -0.2271 -1.2858
12794SOL     OW41879   8.897   0.178   0.689  0.4792 -0.0551  0.4682
12794SOL    HW141880   8.827   0.115   0.701  0.8545 -0.3944  0.9329
12794SOL    HW241881   8.963   0.132   0.637 -0.6685  1.0593 -2.1255
12795SOL     OW41882   6.282   0.427   9.666  0.3128 -0.3477 -0.0204
12795SOL    HW141883   6.198   0.382   9.659 -1.5580  3.0045 -1.4948
12795SOL    HW241884   6.347   0.357   9.654 -2.2196 -2.9295  0.0949
12796SOL     OW41885   6.615   6.470   9.794 -0.3278  0.2451 -0.0729
12796SOL    HW141886   6.526   6.480   9.829 -0.3589  0.2094 -0.1422
12796SOL    HW241887   6.606   6.407   9.723 -0.5736  1.6152 -1.3214
12797SOL     OW41888   7.618   2.724   9.980  0.1948  0.1165  0.3581
12797SOL    HW141889   7.699   2.680   9.955 -0.3079 -0.1345 -0.8924
12797SOL    HW241890   7.567   2.727   9.900  0.2861  3.1895  0.2927
12798SOL     OW41891   0.278   5.742  10.933  0.3501 -0.5858 -0.6753
12798SOL    HW141892   0.338   5.815  10.948 -0.2858  0.1440 -1.5800
12798SOL    HW241893   0.292   5.683  11.008  1.9160 -0.2614 -0.6815
12799SOL     OW41894  10.326   2.939   6.244 -0.0161 -0.1089 -0.2378
12799SOL    HW141895  10.341   2.984   6.327  0.3166  0.8828 -0.8160
12799SOL    HW241896  10.340   3.006   6.178  1.8205 -1.3874 -1.2106
12800SOL     OW41897   5.190   9.733   4.840 -0.1428  0.7856  0.2649
12800SOL    HW141898   5.187   9.663   4.905 -0.6771  0.2580 -0.3191
12800SOL    HW241899   5.274   9.776   4.855  0.7721 -0.7743 -0.1799
12801SOL     OW41900   2.033   5.007   1.643  0.2902 -0.1550  0.7706
12801SOL    HW141901   1.956   5.044   1.685 -0.9859  0.2788 -1.7395
12801SOL    HW241902   2.084   5.084   1.616  0.1601 -0.3434 -0.0383
12802SOL     OW41903  10.840   5.177   8.737 -0.2259 -0.3630  0.2315
12802SOL    HW141904  10.870   5.268   8.736  0.9794 -0.7472  0.1223
12802SOL    HW241905  10.811   5.162   8.827  1.0649 -0.3219  0.6763
12803SOL     OW41906   6.949   8.734   8.282 -0.0578  0.1712 -0.4005
12803SOL    HW141907   6.856   8.736   8.305  0.4186  1.8232  1.6878
12803SOL    HW241908   6.955   8.667   8.213 -2.7572  0.0079 -0.5923
12804SOL     OW41909   2.360   7.452   7.261  0.5484 -0.0609  0.1612
12804SOL    HW141910   2.449   7.416   7.265 -0.4739 -2.7140  1.4105
12804SOL    HW241911   2.303   7.375   7.260 -1.7786  1.5621 -0.1813
12805SOL     OW41912   0.955   9.744   2.611 -0.1350  0.6785 -0.3057
12805SOL    HW141913   1.033   9.723   2.661 -0.8842  0.8509  0.9706
12805SOL    HW241914   0.900   9.666   2.618  0.8596 -0.4102 -3.1983
12806SOL     OW41915   7.137   6.723   8.216  0.3852  0.1111 -0.0389
12806SOL    HW141916   7.124   6.632   8.189 -0.4490 -0.0247  0.7664
12806SOL    HW241917   7.048   6.755   8.231  0.7658  0.4400  1.6705
12807SOL     OW41918   9.792   3.891   9.950  0.1649  0.2643 -0.0771
12807SOL    HW141919   9.827   3.809   9.915  1.0555  0.1895  0.9250
12807SOL    HW241920   9.753   3.866  10.034  0.3000  0.8345  0.1629
12808SOL     OW41921   3.483   4.792   6.298  0.0192  0.2218  0.2824
12808SOL    HW141922   3.484   4.847   6.219  1.4622  0.5246  0.4897
12808SOL    HW241923   3.533   4.842   6.363  1.5302 -1.4083  0.4344
12809SOL     OW41924   4.566  10.212   3.950  0.2675  0.4578 -0.3682
12809SOL    HW141925   4.536  10.300   3.928 -0.4936 -0.1126 -1.7851
12809SOL    HW241926   4.497  10.177   4.007  0.1078  0.4593 -0.5597
12810SOL     OW41927   6.936   2.996   7.880 -0.7702 -0.0343  0.0065
12810SOL    HW141928   6.907   2.928   7.819 -1.2363  0.5369 -0.4243
12810SOL    HW241929   6.871   3.066   7.870 -0.1482  0.5851  0.2358
12811SOL     OW41930   7.933   9.751   8.636 -0.3309 -0.3846 -0.3833
12811SOL    HW141931   7.857   9.703   8.604 -0.7343  0.7104 -1.1024
12811SOL    HW241932   8.002   9.732   8.573 -0.1230 -1.0031  0.0166
12812SOL     OW41933   0.398  10.836   2.743 -0.1336  0.1792 -0.3646
12812SOL    HW141934   0.383  10.753   2.789 -0.4492  0.5546  0.2246
12812SOL    HW241935   0.446  10.811   2.664 -0.7287 -0.6367 -0.4871
12813SOL     OW41936   7.298   2.888   7.602  0.7710 -0.1196  0.5007
12813SOL    HW141937   7.341   2.971   7.584  0.6198  0.0112  0.7391
12813SOL    HW241938   7.212   2.896   7.561  0.9812 -0.4010 -0.0227
12814SOL     OW41939   4.368   3.679   6.839 -0.0602 -0.1251 -0.2841
12814SOL    HW141940   4.400   3.697   6.927 -1.2321 -2.2980  0.6606
12814SOL    HW241941   4.319   3.757   6.814  1.3798  1.0491  0.4101
12815SOL     OW41942   7.420   5.148   9.549 -0.5330 -0.0492 -0.5358
12815SOL    HW141943   7.426   5.053   9.543  1.6399  0.0911 -1.9008
12815SOL    HW241944   7.449   5.179   9.463 -0.6054  1.8468  0.0841
12816SOL     OW41945   2.406   3.313   3.055 -0.3195 -0.6716  0.2115
12816SOL    HW141946   2.350   3.253   3.006 -2.9961  0.0803  2.1056
12816SOL    HW241947   2.370   3.399   3.037  2.1801  0.2464 -0.8344
12817SOL     OW41948   0.331   9.077   8.449  0.1454 -0.2422 -0.1669
12817SOL    HW141949   0.320   9.134   8.372  0.2925 -1.3607 -1.0327
12817SOL    HW241950   0.413   9.106   8.488 -0.9405  1.7342  0.8159
12818SOL     OW41951   0.167   3.462   3.790  0.8085  0.2960  0.0072
12818SOL    HW141952   0.175   3.460   3.694 -0.8574 -0.2667 -0.1552
12818SOL    HW241953   0.194   3.551   3.814  0.1001  0.8568 -1.1301
12819SOL     OW41954   2.133   5.703   0.111 -0.4637 -0.0013  0.5919
12819SOL    HW141955   2.176   5.709   0.026  0.4650  0.8971  1.1088
12819SOL    HW241956   2.111   5.794   0.133 -0.5623 -0.2078  1.3670
12820SOL     OW41957   1.598   8.271   4.639  0.6143  0.2838 -0.1479
12820SOL    HW141958   1.574   8.307   4.553 -1.1222 -0.5240 -0.0519
12820SOL    HW241959   1.515   8.264   4.685  1.5672  1.1678  1.8306
12821SOL     OW41960   4.245   3.945   1.971 -0.1138  0.3311 -0.2300
12821SOL    HW141961   4.271   4.004   1.900 -0.1078 -1.1528 -1.5302
12821SOL    HW241962   4.190   3.999   2.028 -0.5759  1.4524 -1.6650
12822SOL     OW41963   1.989   8.383   6.302  0.2328 -0.2304  0.7951
12822SOL    HW141964   1.915   8.374   6.361 -0.4465  0.3657  0.0584
12822SOL    HW241965   1.950   8.407   6.218  1.2061 -0.6330  0.2075
12823SOL     OW41966   6.645   9.871   2.921  0.2646 -0.4101  0.5299
12823SOL    HW141967   6.693   9.931   2.863 -0.8906 -1.0421 -1.1512
12823SOL    HW241968   6.632   9.922   3.001  1.1566  0.8220 -0.0662
12824SOL     OW41969   3.132   5.232   5.735 -0.7943 -0.2032  0.1421
12824SOL    HW141970   3.164   5.169   5.800 -0.4453  0.6517  0.8235
12824SOL    HW241971   3.211   5.266   5.694 -0.9167  0.5642  0.5325
12825SOL     OW41972   6.354   5.566   2.142  0.6618 -0.4203 -0.0978
12825SOL    HW141973   6.338   5.589   2.234 -1.3678 -0.7502 -0.3172
12825SOL    HW241974   6.376   5.473   2.145 -1.5409 -1.0170 -0.0455
12826SOL     OW41975   8.262   3.585   7.394  0.2411 -0.5113  0.0054
12826SOL    HW141976   8.173   3.561   7.369  0.4114 -0.2696 -0.8625
12826SOL    HW241977   8.259   3.680   7.406  0.7357 -0.2657 -1.6127
12827SOL     OW41978   2.783   7.871  10.722  0.0795 -0.1002  0.0129
12827SOL    HW141979   2.703   7.829  10.753 -0.8706  1.9480  0.5284
12827SOL    HW241980   2.854   7.828  10.771 -0.9542 -0.1792  1.4990
12828SOL     OW41981   4.551   4.935  10.168  0.8096 -0.3727 -0.2380
12828SOL    HW141982   4.598   5.016  10.184  1.7732 -1.2052  1.5052
12828SOL    HW241983   4.618   4.874  10.136  0.6548 -1.1707  0.9038
12829SOL     OW41984   2.369   5.358   3.366 -0.2402  0.1089  0.2001
12829SOL    HW141985   2.336   5.277   3.405 -0.5435  1.0592  2.0218
12829SOL    HW241986   2.445   5.381   3.418  0.4042  0.5245 -0.8886
12830SOL     OW41987   0.397   4.446   2.024 -0.2052 -1.0918  0.1027
12830SOL    HW141988   0.417   4.353   2.013 -1.0750 -1.2317 -0.4124
12830SOL    HW241989   0.338   4.449   2.100 -0.0912 -0.9422  0.1873
12831SOL     OW41990   1.821  10.141   1.200 -0.0248  0.0818 -0.2451
12831SOL    HW141991   1.814  10.144   1.104 -3.0162 -2.3069 -0.2280
12831SOL    HW241992   1.915  10.131   1.216  0.4924 -0.2044 -2.9655
12832SOL     OW41993   4.657   6.718   8.222 -0.3311 -0.6897  0.3888
12832SOL    HW141994   4.580   6.764   8.191  0.0212 -1.4138 -1.7332
12832SOL    HW241995   4.723   6.732   8.154  0.7244 -1.8362  1.1166
12833SOL     OW41996   4.762   2.362   1.645  0.5227 -0.3862 -0.3921
12833SOL    HW141997   4.763   2.269   1.623  1.0473 -0.5157  0.1568
12833SOL    HW241998   4.810   2.368   1.727 -1.6989  0.0100  0.9718
12834SOL     OW41999  10.149   0.796   1.747 -0.0186 -0.6020 -0.1110
12834SOL    HW142000  10.189   0.824   1.665  0.5845  1.4397  0.8306
12834SOL    HW242001  10.100   0.872   1.778  0.8869 -0.8279  2.0966
12835SOL     OW42002   4.625   9.169   8.687 -0.6174 -0.2114  0.0669
12835SOL    HW142003   4.613   9.263   8.674 -2.3245 -0.1284  1.7388
12835SOL    HW242004   4.566   9.128   8.624 -0.1966 -0.1553 -0.3665
12836SOL     OW42005   3.878   0.157   3.030 -0.5451 -0.1059 -0.0967
12836SOL    HW142006   3.908   0.202   2.951  1.6486 -1.3126 -0.0166
12836SOL    HW242007   3.926   0.198   3.101  0.3306 -1.4723  0.1479
12837SOL     OW42008   3.401   3.150   7.499 -0.0448  0.3582  0.1981
12837SOL    HW142009   3.409   3.172   7.406  1.3940 -0.2342  0.1470
12837SOL    HW242010   3.418   3.056   7.502  0.3999  0.4649  1.1144
12838SOL     OW42011   4.281   4.368   3.429 -0.5976 -0.1281  0.5156
12838SOL    HW142012   4.257   4.322   3.348  1.1148 -0.5742  0.2342
12838SOL    HW242013   4.205   4.424   3.447 -1.4354 -0.7635 -0.8368
12839SOL     OW42014   6.260  10.551   1.914 -0.1383  0.2713  0.2391
12839SOL    HW142015   6.350  10.517   1.914  0.8918  2.7762  0.9256
12839SOL    HW242016   6.218  10.506   1.988  1.1447  0.4579  1.1179
12840SOL     OW42017   6.291   9.156   2.411 -0.3677  0.5286 -0.8893
12840SOL    HW142018   6.313   9.198   2.328 -0.1994 -0.1485 -1.1987
12840SOL    HW242019   6.356   9.086   2.421 -1.0013 -0.0485 -0.6965
12841SOL     OW42020  10.223   0.892   2.061 -0.2974 -0.2345  0.1850
12841SOL    HW142021  10.265   0.818   2.017  2.0651  0.5288  1.0104
12841SOL    HW242022  10.218   0.960   1.994  0.6950 -0.0123  0.3283
12842SOL     OW42023   2.188   2.888   6.802 -0.3905  0.1606 -0.4209
12842SOL    HW142024   2.214   2.838   6.879  0.0670  0.7937 -0.1527
12842SOL    HW242025   2.118   2.837   6.762 -1.0030  0.0842  0.7130
12843SOL     OW42026   8.477   6.236   8.418 -0.0021 -0.4731  0.2914
12843SOL    HW142027   8.400   6.289   8.399  0.2300 -0.3433 -0.3438
12843SOL    HW242028   8.546   6.277   8.365  1.3357  1.4564  3.2566
12844SOL     OW42029   6.714   5.921   4.669  0.0639  0.1678 -0.0638
12844SOL    HW142030   6.786   5.882   4.719  1.2857  0.0766 -1.8026
12844SOL    HW242031   6.687   5.997   4.721  0.5152 -0.5471  1.2703
12845SOL     OW42032   1.252   4.574   7.585  0.0679 -0.3259  0.3131
12845SOL    HW142033   1.161   4.578   7.614  0.2346 -0.0122  0.8030
12845SOL    HW242034   1.303   4.604   7.660  0.5720 -0.4068  0.0116
12846SOL     OW42035   8.573   7.747   8.963  0.1074  0.1170 -0.2305
12846SOL    HW142036   8.664   7.744   8.991 -0.3988 -1.4541  1.4177
12846SOL    HW242037   8.522   7.722   9.041 -1.7146  0.5591 -1.2041
12847SOL     OW42038   7.534   9.089   9.980 -0.2567 -0.2967  0.5561
12847SOL    HW142039   7.473   9.148   9.936 -1.7799 -0.7267  1.9818
12847SOL    HW242040   7.547   9.018   9.918 -1.3827 -0.3002  0.3032
12848SOL     OW42041   0.066  10.794   0.501  0.5696 -0.0201  0.1364
12848SOL    HW142042  -0.016  10.775   0.455 -1.5610  3.5703  1.9394
12848SOL    HW242043   0.048  10.771   0.592  0.0482  3.9480  1.2289
12849SOL     OW42044   7.696   6.143   3.420  0.2041  0.3337 -0.0828
12849SOL    HW142045   7.639   6.129   3.344 -1.4420  1.8659  0.8135
12849SOL    HW242046   7.783   6.160   3.382 -0.3165 -0.1493 -1.5540
12850SOL     OW42047   2.341   3.290   9.867 -0.0257 -0.9603 -0.2264
12850SOL    HW142048   2.338   3.380   9.899  0.1077 -0.7891 -0.6874
12850SOL    HW242049   2.260   3.281   9.816  0.8456 -0.4886 -1.7695
12851SOL     OW42050   1.008   8.534   0.531 -0.0789  0.2134 -0.6724
12851SOL    HW142051   0.958   8.573   0.460 -0.3528  0.9388 -0.0976
12851SOL    HW242052   1.099   8.561   0.515 -0.1089  0.2002 -0.8616
12852SOL     OW42053  10.260   2.865   7.367 -0.0613  0.0438  0.5914
12852SOL    HW142054  10.347   2.832   7.346  0.0660  2.2993 -3.5522
12852SOL    HW242055  10.202   2.821   7.304 -1.4295  0.6828  1.3504
12853SOL     OW42056   3.525   0.152   0.833  0.3677 -0.4544 -0.1147
12853SOL    HW142057   3.594   0.117   0.889  0.6649  0.0290 -0.1759
12853SOL    HW242058   3.489   0.226   0.883  2.6998  2.0052 -1.8195
12854SOL     OW42059   9.360   6.214   9.195  0.3215  0.3024 -0.0662
12854SOL    HW142060   9.380   6.121   9.193 -1.0755 -0.0195 -1.6978
12854SOL    HW242061   9.311   6.226   9.277  1.7046 -0.0891  0.8437
12855SOL     OW42062   5.617   4.109   1.025 -0.3824 -0.4181  0.2409
12855SOL    HW142063   5.562   4.169   0.973 -2.3645 -0.9581  1.5822
12855SOL    HW242064   5.666   4.059   0.960 -1.3368  0.2343 -1.0346
12856SOL     OW42065  10.364   9.705   7.939  0.3227 -0.1863 -0.0862
12856SOL    HW142066  10.397   9.755   8.014 -0.0165  2.6130 -1.6571
12856SOL    HW242067  10.312   9.768   7.890 -1.8762 -2.6880 -1.2110
12857SOL     OW42068   2.429   6.764   6.758  0.1645  0.4004 -0.2913
12857SOL    HW142069   2.354   6.823   6.751 -0.4004 -0.1513  0.8316
12857SOL    HW242070   2.503   6.822   6.777 -0.7449  0.6818  3.0188
12858SOL     OW42071   2.957   6.468   4.571  0.2328  0.1271 -0.4792
12858SOL    HW142072   2.892   6.424   4.626  0.3979 -0.2800 -0.5991
12858SOL    HW242073   2.916   6.470   4.484  0.0808  0.5287 -0.3969
12859SOL     OW42074   0.095   5.219   5.152  0.0080 -0.1437  0.1039
12859SOL    HW142075   0.073   5.180   5.236 -0.5469  0.0146  0.0297
12859SOL    HW242076   0.097   5.145   5.091  0.8296 -0.3224  0.3275
12860SOL     OW42077   0.087   5.026   6.380 -0.6817 -0.1751  0.0348
12860SOL    HW142078  -0.000   5.064   6.370 -0.6928 -0.2994 -0.3415
12860SOL    HW242079   0.085   4.946   6.328 -0.4842 -0.4130  0.3886
12861SOL     OW42080  10.058   9.887   9.356  0.0745 -0.1608  0.5147
12861SOL    HW142081  10.037   9.933   9.274 -0.8190  0.0515  0.8447
12861SOL    HW242082  10.033   9.950   9.425  0.8211 -0.3333  0.9497
12862SOL     OW42083   4.443   3.101   7.205  0.2464  0.2185  0.4921
12862SOL    HW142084   4.380   3.055   7.260  1.8975 -0.3717  1.9670
12862SOL    HW242085   4.442   3.053   7.122 -2.2704  1.1251 -0.1201
12863SOL     OW42086   7.389   4.074  10.643  0.2386 -0.6310 -0.0454
12863SOL    HW142087   7.422   4.157  10.677 -3.8194  0.3301  2.1993
12863SOL    HW242088   7.458   4.011  10.663  2.1302  1.6315  1.0774
12864SOL     OW42089   4.051   5.890   2.122  0.4105  0.0328 -0.5775
12864SOL    HW142090   4.015   5.978   2.128  0.4099 -0.0231  0.5212
12864SOL    HW242091   4.076   5.868   2.212  0.2418 -1.1527 -0.7957
12865SOL     OW42092   9.712   9.427   3.953  0.0367 -0.3244 -0.4371
12865SOL    HW142093   9.771   9.429   4.029  0.2018 -2.8071 -0.4120
12865SOL    HW242094   9.764   9.460   3.881 -0.2455  2.4779  0.5345
12866SOL     OW42095   0.430   5.551   7.270 -0.0822 -0.1030  0.2309
12866SOL    HW142096   0.453   5.501   7.191 -0.6709  0.1577 -0.1068
12866SOL    HW242097   0.397   5.486   7.331 -0.7796 -0.1496 -0.1834
12867SOL     OW42098   2.357   5.573   3.923  0.3024 -0.5849  0.4620
12867SOL    HW142099   2.355   5.478   3.912 -1.2758 -0.6632  1.0528
12867SOL    HW242100   2.396   5.606   3.842 -0.3042 -1.6848 -0.3075
12868SOL     OW42101   1.900   3.265   1.664 -0.0811  0.1835  0.3633
12868SOL    HW142102   1.918   3.358   1.651 -1.2872  0.3549 -0.1798
12868SOL    HW242103   1.920   3.249   1.757  3.6482  0.1125 -0.3028
12869SOL     OW42104   9.221   5.632   2.978  0.0582  0.6798  0.0811
12869SOL    HW142105   9.244   5.724   2.984 -0.7745  0.9029 -0.0961
12869SOL    HW242106   9.142   5.622   3.031  0.4186 -0.0317  0.5059
12870SOL     OW42107   1.416   6.799   5.883 -0.3185 -0.7184  0.5471
12870SOL    HW142108   1.432   6.821   5.792  1.1875 -0.9182  0.7441
12870SOL    HW242109   1.325   6.767   5.885 -0.8248  0.5805 -0.6193
12871SOL     OW42110   8.636   1.634   0.568  0.0125 -0.4219  0.2697
12871SOL    HW142111   8.598   1.719   0.589  0.1181  0.1097 -1.5289
12871SOL    HW242112   8.682   1.607   0.648 -2.0635  0.0288  1.7132
12872SOL     OW42113   9.588   5.242   1.517 -0.4525  0.1655  0.0134
12872SOL    HW142114   9.532   5.181   1.566  0.9964 -1.1060  0.1862
12872SOL    HW242115   9.584   5.211   1.427  2.3006 -1.9422  0.4831
12873SOL     OW42116   1.225   5.786   8.523 -0.0151  0.3666 -0.2896
12873SOL    HW142117   1.263   5.707   8.483  1.6274  0.7768  0.3851
12873SOL    HW242118   1.158   5.752   8.582  0.7346 -0.5552  0.0726
12874SOL     OW42119   3.413   5.584   1.967 -0.3461  0.4317  0.3509
12874SOL    HW142120   3.340   5.604   2.024  2.1531  4.5319  2.6395
12874SOL    HW242121   3.395   5.632   1.886 -0.7828  0.3859  0.4239
12875SOL     OW42122  10.962  10.992   0.155 -0.2899 -0.3381  0.1644
12875SOL    HW142123  11.002  11.010   0.240  0.5643 -2.0711  0.1641
12875SOL    HW242124  10.937  11.078   0.122  0.5978  0.4937  1.5639
12876SOL     OW42125   2.261   8.870   7.900 -0.3477 -0.5789  0.3463
12876SOL    HW142126   2.337   8.812   7.906  1.4554  1.6122  0.3844
12876SOL    HW242127   2.248   8.900   7.990 -0.3111  0.1543  0.1119
12877SOL     OW42128   7.212   2.814   1.903  0.4310 -0.1732 -0.4510
12877SOL    HW142129   7.277   2.743   1.900 -0.6753 -1.3534  1.5007
12877SOL    HW242130   7.193   2.833   1.811  0.8873 -2.2986 -1.0424
12878SOL     OW42131   1.381   7.447   8.751 -0.0457  0.4265 -0.2206
12878SOL    HW142132   1.314   7.384   8.777  1.0277  0.4283  3.1106
12878SOL    HW242133   1.343   7.494   8.678 -1.9220 -2.3335 -1.1834
12879SOL     OW42134   8.400   5.628  10.882 -0.2994 -0.3434  0.2008
12879SOL    HW142135   8.363   5.540  10.892  0.5131 -0.5402  1.7734
12879SOL    HW242136   8.352   5.665  10.808 -0.5486 -2.1560 -0.6227
12880SOL     OW42137   3.578   4.378   1.620  0.1004 -0.0687 -0.0106
12880SOL    HW142138   3.658   4.354   1.668 -1.1596  0.3329  2.4548
12880SOL    HW242139   3.537   4.294   1.599  0.0259 -0.2402  0.7994
12881SOL     OW42140   7.162   6.849   4.016  0.1069 -0.0617  0.2173
12881SOL    HW142141   7.111   6.832   3.937  1.1757 -1.1942 -0.2670
12881SOL    HW242142   7.231   6.782   4.015  0.8667  0.6563  1.4730
12882SOL     OW42143   8.806  10.004  10.321 -0.2052 -0.1512 -0.5328
12882SOL    HW142144   8.745  10.037  10.255 -0.5334  1.1492  0.3789
12882SOL    HW242145   8.891  10.003  10.277 -0.3911  0.8594 -0.9310
12883SOL     OW42146   1.002   8.927   3.295  0.3848  0.3056  0.4892
12883SOL    HW142147   1.065   8.999   3.288 -0.5443  1.0282 -1.2291
12883SOL    HW242148   0.940   8.943   3.223  0.2281 -2.3015 -0.0492
12884SOL     OW42149   6.211   2.442   4.573  0.6467 -0.0604 -0.1104
12884SOL    HW142150   6.241   2.416   4.660 -2.0360  0.0037  0.9394
12884SOL    HW242151   6.230   2.535   4.567  0.0990  0.1228  0.7929
12885SOL     OW42152   4.694  10.109   1.262  0.2582 -0.1286  0.0862
12885SOL    HW142153   4.716  10.199   1.238 -0.2319 -0.0118  0.0677
12885SOL    HW242154   4.636  10.079   1.192  0.1912 -0.3622  0.2401
12886SOL     OW42155   5.230   2.188   5.042 -0.1390  0.0805 -0.3155
12886SOL    HW142156   5.308   2.181   5.097 -1.6365  0.5635  2.0049
12886SOL    HW242157   5.253   2.254   4.976  1.6009 -0.2397 -0.0724
12887SOL     OW42158   9.157   3.592   2.959 -0.0223  0.4074 -0.3711
12887SOL    HW142159   9.216   3.619   2.888 -1.0072  1.5326 -0.7884
12887SOL    HW242160   9.196   3.512   2.993  1.2794  0.6571 -1.2052
12888SOL     OW42161   5.693  10.612   0.680  0.2736  0.9552  0.0155
12888SOL    HW142162   5.755  10.614   0.606  0.1068 -0.7316 -0.2124
12888SOL    HW242163   5.619  10.561   0.647 -0.3722  1.2700  0.9516
12889SOL     OW42164   8.539   8.506   8.148 -0.0872  0.1644  0.0274
12889SOL    HW142165   8.541   8.591   8.104 -0.5640  0.4845  0.5928
12889SOL    HW242166   8.626   8.497   8.187 -0.5928  1.2905  1.5533
12890SOL     OW42167   0.087   8.110   6.967  0.0462  0.4808  0.2232
12890SOL    HW142168   0.039   8.128   6.886  1.2328  0.6859 -0.4553
12890SOL    HW242169   0.111   8.017   6.960  0.5338  0.6099  0.1110
12891SOL     OW42170   9.201   0.124   1.489  0.5030  0.4984  0.2387
12891SOL    HW142171   9.216   0.103   1.582 -0.9162  1.8453  0.8115
12891SOL    HW242172   9.186   0.218   1.488  0.2892  0.4740 -1.3546
12892SOL     OW42173   4.510   6.571   0.334  0.0869  0.6084  0.1300
12892SOL    HW142174   4.559   6.578   0.416 -1.2195  0.7674  0.9317
12892SOL    HW242175   4.567   6.609   0.268  1.5157 -0.2823  0.8039
12893SOL     OW42176  10.749   7.690   6.028  0.3636 -0.1886 -0.8459
12893SOL    HW142177  10.762   7.758   6.094  0.7523  0.7795 -1.8656
12893SOL    HW242178  10.826   7.635   6.034 -0.6534 -1.5141  1.0310
12894SOL     OW42179   4.210  10.350   7.125 -0.0585  0.0501  0.6422
12894SOL    HW142180   4.236  10.434   7.087 -0.3568 -0.4246 -0.6588
12894SOL    HW242181   4.123  10.366   7.162  0.5574  0.7183  1.8538
12895SOL     OW42182   6.625   5.853   9.215  0.0387 -0.2396  0.2329
12895SOL    HW142183   6.640   5.759   9.209 -2.7618 -0.7645 -0.2400
12895SOL    HW242184   6.629   5.884   9.125 -0.9580 -0.3234  0.1394
12896SOL     OW42185   0.453   6.672   6.611  0.2312  0.1544 -0.1657
12896SOL    HW142186   0.368   6.714   6.599 -0.6437 -1.6853 -0.8370
12896SOL    HW242187   0.441   6.583   6.577  2.0379 -0.5955  0.9916
12897SOL     OW42188   0.690   7.803   5.684  0.1045 -0.2095 -0.0514
12897SOL    HW142189   0.682   7.714   5.648 -2.1485 -0.2461  0.3932
12897SOL    HW242190   0.714   7.790   5.775  2.2124 -0.2293 -0.5555
12898SOL     OW42191   0.582   2.413   8.224  0.3360  0.0796  0.1056
12898SOL    HW142192   0.494   2.439   8.194  0.5118  0.2343 -0.2825
12898SOL    HW242193   0.608   2.344   8.163  0.6003  0.2306  0.0471
12899SOL     OW42194   3.503   2.206   7.632 -0.0435 -0.0217  0.2969
12899SOL    HW142195   3.559   2.158   7.571  0.7250 -0.7273  1.5209
12899SOL    HW242196   3.563   2.253   7.689 -0.7488  0.7288  0.4485
12900SOL     OW42197   1.577   5.375   7.837 -0.0171  0.0464  0.2671
12900SOL    HW142198   1.598   5.308   7.772 -0.2184  0.4859 -0.2569
12900SOL    HW242199   1.598   5.334   7.921 -1.8018 -1.3226  0.1017
12901SOL     OW42200   1.047   3.125   1.044  0.7511  0.0486 -0.5338
12901SOL    HW142201   1.135   3.161   1.057  1.1560 -0.5920 -1.4134
12901SOL    HW242202   1.029   3.139   0.951  0.4667 -1.0189 -0.6464
12902SOL     OW42203   6.399   2.825   1.246 -0.1308 -0.1137  0.2493
12902SOL    HW142204   6.469   2.768   1.278  1.7494  1.5304 -0.7514
12902SOL    HW242205   6.421   2.842   1.154 -2.0540  0.1922 -0.2165
12903SOL     OW42206  10.186   7.332  10.744 -0.3568 -0.6280 -0.3214
12903SOL    HW142207  10.115   7.334  10.808 -0.3099 -0.5580 -0.2712
12903SOL    HW242208  10.193   7.240  10.719 -0.4541 -0.6376 -0.3138
12904SOL     OW42209   1.361   5.897   7.393  0.7412 -0.5293  0.6087
12904SOL    HW142210   1.362   5.858   7.480  0.6875  0.7834  1.2214
12904SOL    HW242211   1.301   5.842   7.342  1.4239 -1.8002  1.1486
12905SOL     OW42212   0.079   4.234   4.517 -0.0445  0.5591 -0.0473
12905SOL    HW142213   0.013   4.170   4.543 -0.9214  1.3612 -0.2316
12905SOL    HW242214   0.113   4.201   4.434 -1.6348  1.1017 -0.9768
12906SOL     OW42215   3.490   0.423   7.761  0.1210 -0.4660  0.3580
12906SOL    HW142216   3.509   0.488   7.828  0.2832 -1.8900  1.7355
12906SOL    HW242217   3.563   0.430   7.700  0.7511 -0.1807  1.1274
12907SOL     OW42218   6.280   0.200   2.510  0.1443 -0.3411 -0.5689
12907SOL    HW142219   6.217   0.185   2.581  0.3177 -0.0534 -0.3530
12907SOL    HW242220   6.242   0.271   2.459  1.4564  1.5693  0.9823
12908SOL     OW42221   4.763   8.930   1.995 -0.5821  0.3441 -0.3453
12908SOL    HW142222   4.732   8.887   2.075 -1.1714 -0.0847 -0.7956
12908SOL    HW242223   4.769   9.022   2.018  0.3158  0.0954  0.5190
12909SOL     OW42224  10.791   8.097   1.184 -0.4273 -0.3195 -0.2725
12909SOL    HW142225  10.811   8.024   1.243  0.2151  0.1724  0.1291
12909SOL    HW242226  10.867   8.104   1.127 -1.4215 -1.3830 -1.8195
12910SOL     OW42227   3.772   9.789   9.798  0.5766  0.4354 -0.2748
12910SOL    HW142228   3.867   9.779   9.795  0.7601  2.1996 -1.8142
12910SOL    HW242229   3.754   9.808   9.890  1.3487 -2.4855  0.5778
12911SOL     OW42230   1.909   8.946  10.197  0.2964 -0.3518  0.2667
12911SOL    HW142231   1.943   8.866  10.236  0.2872 -0.3246  0.3298
12911SOL    HW242232   1.868   8.917  10.116 -0.1976 -0.4804  0.5644
12912SOL     OW42233   5.421   0.754   8.338 -0.5377 -0.0658 -0.1921
12912SOL    HW142234   5.389   0.807   8.411 -0.5654  2.9239 -2.2171
12912SOL    HW242235   5.516   0.756   8.346 -0.5656 -1.0878  0.5961
12913SOL     OW42236   1.680   5.591   6.851  0.7834 -0.0868  0.2847
12913SOL    HW142237   1.738   5.662   6.823  1.1573 -0.2524  0.6223
12913SOL    HW242238   1.626   5.630   6.920 -0.4406  0.4457 -0.9188
12914SOL     OW42239   9.630   8.357   9.703 -0.7953  0.8746  0.2054
12914SOL    HW142240   9.639   8.262   9.711  0.6011  0.8524 -1.1374
12914SOL    HW242241   9.720   8.390   9.709 -1.0349  1.9111 -1.3327
12915SOL     OW42242   9.885   3.415  10.720  0.5292  0.2117 -0.1525
12915SOL    HW142243   9.828   3.490  10.706 -1.1239 -0.9279  0.1965
12915SOL    HW242244   9.941   3.412  10.642 -1.6957 -0.1770 -1.8296
12916SOL     OW42245   7.411   8.103   4.921 -0.2220 -0.0084  0.1259
12916SOL    HW142246   7.389   8.182   4.871 -0.3460 -0.1519 -0.0471
12916SOL    HW242247   7.424   8.135   5.010  1.4195  0.4749 -0.2566
12917SOL     OW42248   7.801   7.064   1.315 -0.0806 -0.1375  0.2081
12917SOL    HW142249   7.840   7.057   1.402 -1.6521  0.2884  0.9780
12917SOL    HW242250   7.876   7.067   1.256  1.0159 -1.8261  1.4125
12918SOL     OW42251   2.268   4.573   1.764  0.1729 -0.1013  0.4530
12918SOL    HW142252   2.231   4.494   1.724  1.8215  0.8947 -3.5413
12918SOL    HW242253   2.219   4.645   1.725  1.2172  0.9534  1.0279
12919SOL     OW42254  10.458  10.308  10.391 -0.0008 -0.3340 -0.3968
12919SOL    HW142255  10.490  10.219  10.378 -1.1771 -1.0714  1.4088
12919SOL    HW242256  10.470  10.324  10.485 -0.3782  1.1894 -0.5814
12920SOL     OW42257  10.046  10.059   6.913 -0.0739  0.5290  0.6218
12920SOL    HW142258  10.084  10.048   6.826  0.1670 -2.2981  1.0097
12920SOL    HW242259  10.122  10.063   6.972 -0.2271 -1.7794  1.0606
12921SOL     OW42260   8.450   9.536  10.595 -0.0013  0.1208 -0.5447
12921SOL    HW142261   8.434   9.456  10.645  1.0787  0.4947  0.4258
12921SOL    HW242262   8.439   9.509  10.503 -0.2731 -0.9791 -0.2096
12922SOL     OW42263  10.872   4.364   6.502  0.3466 -0.2898  0.1705
12922SOL    HW142264  10.790   4.389   6.545  1.6768  1.4228  1.8510
12922SOL    HW242265  10.851   4.362   6.409 -1.7900 -0.7083  0.6172
12923SOL     OW42266   7.178   4.212   5.628 -0.1617  0.2428 -0.4630
12923SOL    HW142267   7.127   4.179   5.555  1.4062 -0.9978 -1.0496
12923SOL    HW242268   7.117   4.214   5.702 -1.4908  0.5275 -1.5380
12924SOL     OW42269   8.119   9.405   3.286  0.0241 -0.3781  0.3551
12924SOL    HW142270   8.144   9.392   3.378  1.1303  0.9738  0.2791
12924SOL    HW242271   8.084   9.320   3.259 -0.9601 -0.6158  2.1996
12925SOL     OW42272   8.276   8.718   9.364  0.5366  0.0088 -0.3140
12925SOL    HW142273   8.208   8.739   9.428 -0.6678  1.5222 -1.9962
12925SOL    HW242274   8.358   8.727   9.413 -0.3803 -1.0111  1.5426
12926SOL     OW42275   4.197   0.617   6.328 -0.4617 -0.5375 -0.8937
12926SOL    HW142276   4.136   0.624   6.401  0.8851  2.2271  0.1043
12926SOL    HW242277   4.245   0.536   6.344 -1.8022 -1.2022 -0.0713
12927SOL     OW42278   6.638   6.680   9.559  0.1678  0.5178 -0.0442
12927SOL    HW142279   6.557   6.639   9.529  0.9244 -1.0749 -0.0224
12927SOL    HW242280   6.627   6.688   9.654 -0.7612  2.2000 -0.2667
12928SOL     OW42281   9.806   6.629   9.828  0.6301  0.0188  0.2312
12928SOL    HW142282   9.727   6.631   9.773 -0.5483  0.3383  1.8547
12928SOL    HW242283   9.824   6.536   9.841 -0.7129 -0.1192  1.4565
12929SOL     OW42284   9.506   6.673   5.818  0.6044  0.7488  0.3069
12929SOL    HW142285   9.476   6.744   5.874 -1.4754  0.6997 -0.6805
12929SOL    HW242286   9.541   6.716   5.740  0.5289  0.7241  0.2595
12930SOL     OW42287   3.744   5.396  10.680 -0.0980  0.3722  0.0702
12930SOL    HW142288   3.701   5.387  10.595 -0.4649  0.7386  0.2165
12930SOL    HW242289   3.679   5.438  10.736 -0.2225 -0.7987  0.8228
12931SOL     OW42290   9.423   0.293   5.186 -0.0272 -0.2819  0.6897
12931SOL    HW142291   9.398   0.207   5.220  0.2025 -0.9745 -0.7765
12931SOL    HW242292   9.372   0.303   5.106  1.1802  0.1815 -0.0551
12932SOL     OW42293   2.340  10.765   5.338 -0.2674 -0.7273  0.4802
12932SOL    HW142294   2.258  10.772   5.386  0.1349 -1.3513  1.2667
12932SOL    HW242295   2.329  10.689   5.281  0.1471 -1.4570  1.3581
12933SOL     OW42296   5.200   6.134   9.545  0.0657 -0.0173 -0.0126
12933SOL    HW142297   5.130   6.069   9.555  0.4149 -0.1836  1.8746
12933SOL    HW242298   5.269   6.088   9.497  0.0063 -0.8115  0.6477
12934SOL     OW42299   4.288  10.456   6.089 -0.0277  0.1771 -0.2739
12934SOL    HW142300   4.244  10.382   6.047 -0.7490  0.9346 -0.8801
12934SOL    HW242301   4.369  10.419   6.124 -0.2116 -0.8237 -0.8747
12935SOL     OW42302   6.433   4.871   7.895  0.0351  0.4832 -0.5353
12935SOL    HW142303   6.428   4.779   7.873  0.8677  0.2715  0.1043
12935SOL    HW242304   6.523   4.884   7.927 -0.6942  1.0026  1.5057
12936SOL     OW42305   1.499   4.317   1.024 -0.0605  0.6449  0.1919
12936SOL    HW142306   1.545   4.233   1.023  0.4870  0.8817  1.9639
12936SOL    HW242307   1.562   4.379   0.987  0.5856  0.7204  1.3578
12937SOL     OW42308   0.844   1.751   5.993 -0.3084  0.8371  0.1228
12937SOL    HW142309   0.751   1.728   5.995 -0.5511  1.7911  1.3476
12937SOL    HW242310   0.862   1.784   6.081  1.1447  0.8812 -0.1666
12938SOL     OW42311   0.663   1.432   3.787  0.6714 -0.3390 -0.1333
12938SOL    HW142312   0.588   1.378   3.812  1.2469 -1.1210 -0.0333
12938SOL    HW242313   0.632   1.522   3.792 -0.8941 -0.6978 -2.1225
12939SOL     OW42314   0.304   8.403   4.826 -0.0400  0.2388  0.0263
12939SOL    HW142315   0.357   8.408   4.905 -1.1067  1.6723  0.7003
12939SOL    HW242316   0.325   8.319   4.787  3.5833  1.1612 -0.3423
12940SOL     OW42317   9.567   9.230   8.339  0.6917 -0.0602  0.3624
12940SOL    HW142318   9.519   9.192   8.413  1.1165  1.9022  1.7368
12940SOL    HW242319   9.506   9.226   8.266 -1.4330  1.7445  1.8783
12941SOL     OW42320   9.190   2.417   1.885  0.5703  0.0250 -0.5711
12941SOL    HW142321   9.207   2.323   1.885 -1.0568 -0.3130 -0.6433
12941SOL    HW242322   9.229   2.449   1.966 -1.7504 -1.3545  1.2089
12942SOL     OW42323   9.151   9.730  10.418  0.4365 -0.4394 -0.3979
12942SOL    HW142324   9.154   9.826  10.425 -0.7086 -0.4912  1.5601
12942SOL    HW242325   9.233   9.701  10.457  1.4032 -0.2675 -2.1950
12943SOL     OW42326   0.315   7.272   2.539 -0.3262 -0.0036 -0.4861
12943SOL    HW142327   0.235   7.291   2.589  0.0687 -2.1599  1.1434
12943SOL    HW242328   0.284   7.244   2.453 -1.1993  0.9160 -0.4920
12944SOL     OW42329   3.677   5.332   9.474 -0.4176  0.5443  0.0735
12944SOL    HW142330   3.625   5.336   9.554 -0.9882 -2.1561 -0.0750
12944SOL    HW242331   3.615   5.352   9.404 -0.5902  0.1672  0.1156
12945SOL     OW42332   4.573   1.838   4.087 -0.6306 -0.5735 -0.2536
12945SOL    HW142333   4.613   1.847   4.001 -0.5187  1.0868 -0.0676
12945SOL    HW242334   4.481   1.862   4.074 -0.9661 -1.7561 -0.1720
12946SOL     OW42335   9.462   0.051   8.379 -0.0462 -0.1544 -0.3650
12946SOL    HW142336   9.468   0.131   8.327 -0.3974 -0.3813 -0.7619
12946SOL    HW242337   9.381   0.010   8.350 -0.7014  0.1414  0.9879
12947SOL     OW42338   5.375   0.819   6.363  0.0775 -0.7887 -0.2180
12947SOL    HW142339   5.401   0.727   6.369 -1.5579 -1.2261  0.6047
12947SOL    HW242340   5.281   0.819   6.382  0.0948  1.0853  0.0524
12948SOL     OW42341  10.040   0.739   5.532  0.4455 -0.0806 -0.4636
12948SOL    HW142342  10.052   0.659   5.584  0.2956  1.1426  1.5648
12948SOL    HW242343   9.959   0.725   5.484  0.9856 -1.5670 -0.9937
12949SOL     OW42344   9.826   1.544   9.961  0.3069 -0.0219  0.2501
12949SOL    HW142345   9.857   1.623   9.916  0.8940  0.5982  1.6862
12949SOL    HW242346   9.779   1.577  10.038 -0.9770 -1.0469 -0.0501
12950SOL     OW42347   5.740   8.631   0.297  0.2686 -0.4911  0.3601
12950SOL    HW142348   5.691   8.549   0.289  1.3424 -1.1010 -0.1682
12950SOL    HW242349   5.829   8.604   0.317  1.5249  0.3186 -3.3545
12951SOL     OW42350   1.757   6.338  10.779  0.3561 -0.0344 -0.5863
12951SOL    HW142351   1.751   6.246  10.755  0.4833  0.1560 -1.3552
12951SOL    HW242352   1.683   6.379  10.735  0.1627  0.1977 -0.0556
12952SOL     OW42353   9.310   5.184   9.326  0.3147 -0.1415  0.1299
12952SOL    HW142354   9.314   5.239   9.248 -0.6671 -1.0103 -0.5505
12952SOL    HW242355   9.376   5.117   9.312 -0.1923 -0.5774 -0.1734
12953SOL     OW42356   4.073   7.843   0.278 -0.3587  0.7863 -0.1836
12953SOL    HW142357   4.055   7.752   0.301  1.2570  0.9344  2.0085
12953SOL    HW242358   3.988   7.887   0.287 -0.5768  0.0432  1.9341
12954SOL     OW42359   5.194   6.616   8.366 -0.5703  0.2570 -0.8126
12954SOL    HW142360   5.137   6.545   8.337  0.4461 -1.5139  1.2248
12954SOL    HW242361   5.221   6.590   8.454  0.8254  2.6139 -0.4673
12955SOL     OW42362   9.059   7.687   2.473 -0.7640 -0.1254 -0.3766
12955SOL    HW142363   9.004   7.741   2.531  0.3575  1.5470 -0.8133
12955SOL    HW242364   9.141   7.677   2.521 -0.7318 -0.9117 -0.5899
12956SOL     OW42365  10.845   7.715   2.108 -0.2707  0.2885  0.0072
12956SOL    HW142366  10.828   7.786   2.170  0.5799 -1.1213  1.9697
12956SOL    HW242367  10.919   7.746   2.056 -0.2953  1.0676  0.4200
12957SOL     OW42368   9.292   3.470   4.502 -0.4112  0.0195  0.0636
12957SOL    HW142369   9.202   3.440   4.489 -1.1564  2.7299 -1.7846
12957SOL    HW242370   9.285   3.565   4.511  2.1491  0.1700  1.5481
12958SOL     OW42371   5.561   5.103   9.731  0.0343  0.0013  0.3015
12958SOL    HW142372   5.571   5.084   9.638 -1.2559  1.5384 -0.2013
12958SOL    HW242373   5.592   5.193   9.740  1.2354 -0.5018  1.6101
12959SOL     OW42374  10.468   9.669   2.028 -0.4380  0.1829 -0.1090
12959SOL    HW142375  10.484   9.756   2.065  2.3798 -0.2537 -0.0608
12959SOL    HW242376  10.387   9.679   1.979 -1.0013  2.4210  1.1118
12960SOL     OW42377  10.694   0.625   5.700  0.1366  0.4463 -0.2581
12960SOL    HW142378  10.674   0.699   5.643 -0.7466 -1.2794 -2.3905
12960SOL    HW242379  10.747   0.567   5.645 -0.3100 -1.0751  0.8582
12961SOL     OW42380   7.889   2.027   0.642  0.3673 -0.1971 -0.1581
12961SOL    HW142381   7.944   1.949   0.641 -0.2247 -0.6169 -0.8154
12961SOL    HW242382   7.880   2.052   0.550 -1.5950 -0.9058 -0.2066
12962SOL     OW42383   9.592   1.317   6.028  0.1989 -0.1959 -0.3709
12962SOL    HW142384   9.544   1.305   6.109  1.8119  0.1040  0.6690
12962SOL    HW242385   9.641   1.236   6.017 -0.9334 -0.7433 -1.7396
12963SOL     OW42386   5.214   3.044   8.834 -0.0241 -0.5554 -0.4841
12963SOL    HW142387   5.172   3.055   8.749  0.5382  0.7636 -0.6011
12963SOL    HW242388   5.153   3.085   8.896 -0.6539 -1.9040 -0.1495
12964SOL     OW42389   3.538   3.670   1.684  0.6373 -0.1034  0.0032
12964SOL    HW142390   3.505   3.618   1.611 -1.8905  1.7495 -0.3054
12964SOL    HW242391   3.492   3.636   1.761 -0.4251  1.0626 -0.0801
12965SOL     OW42392   1.221   6.389   9.427 -0.2307  0.4393  0.1248
12965SOL    HW142393   1.248   6.468   9.381  0.2722 -0.0309 -0.3900
12965SOL    HW242394   1.139   6.414   9.471 -0.1005  1.2263 -0.0702
12966SOL     OW42395   2.585   0.543   3.829  0.0393  0.0666  0.0771
12966SOL    HW142396   2.582   0.450   3.851 -0.6583  0.4497  1.7527
12966SOL    HW242397   2.513   0.582   3.879  0.7211  1.6004 -0.0802
12967SOL     OW42398   2.117   6.250   4.884  0.3673  0.0704  0.2040
12967SOL    HW142399   2.109   6.344   4.868  1.4819 -0.0124 -1.0216
12967SOL    HW242400   2.029   6.215   4.867  0.3069  0.7048 -0.8925
12968SOL     OW42401   8.153   9.709   8.155  0.7251  0.5585  0.0667
12968SOL    HW142402   8.098   9.764   8.100  0.6156  0.1426 -0.2501
12968SOL    HW242403   8.129   9.619   8.130  1.2355  0.3713  0.2312
12969SOL     OW42404   3.742   2.629   1.422  0.4322  0.4523 -0.1107
12969SOL    HW142405   3.652   2.608   1.395 -0.1214  2.5743 -0.1041
12969SOL    HW242406   3.732   2.699   1.487  1.8860 -2.2831  3.4190
12970SOL     OW42407   3.706   4.871   1.724  0.3889 -0.1528  0.3929
12970SOL    HW142408   3.782   4.848   1.672  1.9544  0.0492  2.4707
12970SOL    HW242409   3.667   4.946   1.678  0.3642 -1.3188 -1.6282
12971SOL     OW42410   9.514   8.566   9.586 -0.0456 -0.2323  1.1333
12971SOL    HW142411   9.550   8.479   9.603  0.5786 -0.6289 -1.7186
12971SOL    HW242412   9.590   8.625   9.590  0.2189 -0.4145 -0.5504
12972SOL     OW42413   3.676   5.360   5.851 -0.2145  0.5166 -0.2284
12972SOL    HW142414   3.612   5.431   5.849 -1.0650 -0.2348 -0.2664
12972SOL    HW242415   3.627   5.282   5.827 -0.6990 -1.1753  4.9161
12973SOL     OW42416  10.300   4.084   7.230  0.0922 -0.0217 -0.3282
12973SOL    HW142417  10.276   3.993   7.213  0.2048 -0.3857  1.3072
12973SOL    HW242418  10.298   4.092   7.325  0.0732  1.7009 -0.4420
12974SOL     OW42419   6.448   0.544   7.457 -0.1467 -0.4580 -0.9541
12974SOL    HW142420   6.408   0.458   7.444  2.9041 -1.9568 -1.2003
12974SOL    HW242421   6.540   0.526   7.474  0.6458  2.8017 -1.0604
12975SOL     OW42422   4.683   8.447   9.275 -0.0469  0.2198 -0.3696
12975SOL    HW142423   4.685   8.425   9.368 -1.3114 -0.5086 -0.4928
12975SOL    HW242424   4.717   8.536   9.271  1.6935 -0.3449  0.5706
12976SOL     OW42425   9.505  10.056   0.950 -0.0903 -0.5618 -1.2178
12976SOL    HW142426   9.591  10.015   0.954 -0.4381 -1.2480 -0.5920
12976SOL    HW242427   9.490  10.089   1.039 -0.5606 -0.6219 -1.2727
12977SOL     OW42428   3.103   0.260   0.523 -0.8691 -0.1957 -0.2991
12977SOL    HW142429   3.177   0.294   0.572 -1.8703  2.1459 -0.2969
12977SOL    HW242430   3.119   0.165   0.518  0.3140 -0.2696  2.7141
12978SOL     OW42431   9.242   1.947   3.455  0.1985 -0.5492 -0.4695
12978SOL    HW142432   9.207   1.910   3.374  0.7700 -0.0402 -0.9645
12978SOL    HW242433   9.317   1.892   3.477 -0.1956 -0.9297 -0.0588
12979SOL     OW42434   0.501   5.806   9.511  0.1919  0.2446 -0.0362
12979SOL    HW142435   0.464   5.773   9.593  0.0043  1.9231  0.6069
12979SOL    HW242436   0.457   5.890   9.497  1.5272  0.8500 -0.8771
12980SOL     OW42437   5.525   9.478   4.214  0.0985  0.3653  0.0296
12980SOL    HW142438   5.529   9.384   4.197 -2.0327  0.4776 -1.3648
12980SOL    HW242439   5.524   9.485   4.310 -0.8633 -1.0997  0.1539
12981SOL     OW42440   6.590   3.596   6.654  0.4210 -0.5746 -0.4697
12981SOL    HW142441   6.624   3.620   6.568 -0.4749  1.7173 -0.2491
12981SOL    HW242442   6.617   3.668   6.711 -2.5710  0.1191  0.2260
12982SOL     OW42443   9.643  10.108   6.523  0.0195 -0.3085 -0.1768
12982SOL    HW142444   9.566  10.096   6.468  1.2848 -0.3430 -2.0352
12982SOL    HW242445   9.684  10.188   6.491  1.6913 -1.2285 -0.4603
12983SOL     OW42446   1.139   5.843   6.308  0.2216 -0.3469 -0.5345
12983SOL    HW142447   1.144   5.760   6.355 -1.4804 -0.7687 -1.0217
12983SOL    HW242448   1.046   5.854   6.288  0.6475  0.7320 -2.1598
12984SOL     OW42449   2.704   4.146   7.140  0.0697 -0.3273  0.3275
12984SOL    HW142450   2.781   4.200   7.124 -0.7529  0.7824  0.0339
12984SOL    HW242451   2.661   4.188   7.214  0.1559 -1.4129  1.0202
12985SOL     OW42452   2.561   8.198   3.892 -0.2605 -0.8267 -0.2450
12985SOL    HW142453   2.541   8.162   3.978  0.2291  0.1313  0.2776
12985SOL    HW242454   2.566   8.293   3.906  3.1739 -0.8518 -0.6155
12986SOL     OW42455   6.114   2.090   8.398 -0.0259 -1.0903 -0.6522
12986SOL    HW142456   6.068   2.102   8.315  0.2372 -1.0852 -0.8018
12986SOL    HW242457   6.088   2.003   8.428  2.3643 -2.5453 -2.3835
12987SOL     OW42458   0.882   5.253   7.606 -0.0358  0.6017  0.6184
12987SOL    HW142459   0.928   5.205   7.674 -0.2991  0.5493  0.7594
12987SOL    HW242460   0.837   5.186   7.555  0.6107  0.5888  0.0478
12988SOL     OW42461   5.605   5.400   7.804  0.0222  0.3759 -0.0149
12988SOL    HW142462   5.603   5.331   7.738 -1.0122  0.2842  0.0959
12988SOL    HW242463   5.521   5.392   7.849  0.6513  0.5189  1.2254
12989SOL     OW42464   8.133   6.791   1.285 -0.4142  0.0818 -0.0603
12989SOL    HW142465   8.077   6.811   1.210 -0.4700  0.2641  0.0295
12989SOL    HW242466   8.151   6.698   1.278  1.5072  0.5098 -1.6319
12990SOL     OW42467   9.917   4.024   2.546  0.3662  0.1495  0.3718
12990SOL    HW142468   9.878   4.056   2.628 -0.6948  1.6136 -0.6585
12990SOL    HW242469   9.845   4.027   2.483  0.5954 -2.9208 -0.1965
12991SOL     OW42470   7.979   1.505   3.488 -0.2636  0.8290 -0.2078
12991SOL    HW142471   7.981   1.600   3.474 -1.2755  0.7046 -1.2970
12991SOL    HW242472   8.037   1.491   3.564  0.2313  2.2577 -0.2938
12992SOL     OW42473   9.849   9.517   1.706  0.0435  0.1220 -0.0945
12992SOL    HW142474   9.826   9.439   1.655  1.2067 -0.8033  0.7428
12992SOL    HW242475   9.836   9.590   1.645 -3.3115 -0.4169 -0.2418
12993SOL     OW42476   6.024   7.251   3.986 -0.1841 -0.2710  0.0198
12993SOL    HW142477   5.938   7.266   3.947 -0.9977 -1.1576  1.3921
12993SOL    HW242478   6.084   7.251   3.911 -1.1243  1.8592 -0.8335
12994SOL     OW42479   2.655   9.057   8.386  0.0978 -0.3120  0.3688
12994SOL    HW142480   2.722   9.070   8.318 -1.5011  2.7476 -0.8019
12994SOL    HW242481   2.630   8.965   8.377  2.1290 -0.8055 -1.0429
12995SOL     OW42482   2.331   6.511   1.495 -0.0534  0.4963  0.2390
12995SOL    HW142483   2.322   6.458   1.416  0.4528 -2.1189  1.8198
12995SOL    HW242484   2.335   6.601   1.463 -1.3333 -0.3343 -2.5742
12996SOL     OW42485   7.580   0.646   0.838 -0.1066 -0.3863 -0.0664
12996SOL    HW142486   7.582   0.689   0.753  0.3760  0.1242  0.1996
12996SOL    HW242487   7.489   0.654   0.866 -0.3111 -0.7244 -0.6102
12997SOL     OW42488   7.815   6.163   4.909  0.3943  0.4549 -0.9402
12997SOL    HW142489   7.872   6.089   4.928  0.3329  0.6199 -0.1135
12997SOL    HW242490   7.862   6.240   4.944  1.0288  0.9991 -2.8314
12998SOL     OW42491   5.674   7.816   6.817 -0.1946  0.5644  0.2981
12998SOL    HW142492   5.667   7.909   6.793  0.9529  0.5104 -0.3175
12998SOL    HW242493   5.633   7.769   6.744  0.3122  0.5418  0.0242
12999SOL     OW42494   8.184   7.699   0.829 -0.0427  0.1779 -0.0936
12999SOL    HW142495   8.142   7.736   0.907 -1.9098  0.8477 -1.3406
12999SOL    HW242496   8.234   7.624   0.862  1.5018  2.0324  2.1105
13000SOL     OW42497   3.453   6.622  10.705 -0.0853  0.1917 -0.2712
13000SOL    HW142498   3.488   6.579  10.627 -0.9845 -1.3868  0.1464
13000SOL    HW242499   3.530   6.660  10.748  0.4669  0.7943 -1.7125
13001SOL     OW42500   9.594   5.644   2.909 -0.1158  0.0291  0.0937
13001SOL    HW142501   9.628   5.558   2.887 -0.7125  0.0531 -0.9878
13001SOL    HW242502   9.521   5.626   2.968 -1.0316 -0.3069 -1.1042
13002SOL     OW42503   8.184   8.545   0.478  0.0745 -0.2492 -0.2871
13002SOL    HW142504   8.245   8.581   0.543  0.8256  0.0982 -1.1601
13002SOL    HW242505   8.098   8.549   0.520  0.4375  0.6992  0.3835
13003SOL     OW42506   4.856   9.575  10.798 -0.3785  0.2313 -0.0138
13003SOL    HW142507   4.921   9.513  10.833 -1.2208 -0.5462  0.2013
13003SOL    HW242508   4.773   9.546  10.835 -1.0797  0.2682 -1.5118
13004SOL     OW42509   8.835   4.248   5.948  0.0691 -0.2710  0.0742
13004SOL    HW142510   8.797   4.185   5.886 -1.3494  0.3001  0.3443
13004SOL    HW242511   8.904   4.292   5.898  0.0388 -0.9573 -0.5879
13005SOL     OW42512   4.372   5.317   1.333 -0.8380 -0.2019  0.0377
13005SOL    HW142513   4.295   5.292   1.282 -2.1825 -0.7439  2.2089
13005SOL    HW242514   4.372   5.257   1.408  0.5438  1.1123  1.1523
13006SOL     OW42515   8.597   9.375   6.248 -0.0680  0.0017  0.3655
13006SOL    HW142516   8.673   9.327   6.281  1.7555  2.8532  0.6570
13006SOL    HW242517   8.560   9.418   6.325 -0.2229  0.9142 -0.2008
13007SOL     OW42518  10.867   6.102   6.318 -0.4420  0.1219  0.2283
13007SOL    HW142519  10.918   6.113   6.398 -0.4649 -0.8782  0.3873
13007SOL    HW242520  10.791   6.050   6.345 -1.6869  1.7687  0.0416
13008SOL     OW42521   9.743   1.391   8.630  0.1866  0.4133 -0.8347
13008SOL    HW142522   9.676   1.332   8.663  1.7504 -1.7758 -1.3339
13008SOL    HW242523   9.749   1.460   8.696 -1.3981 -0.2276  0.0243
13009SOL     OW42524   6.998   8.251   6.697  0.5005 -0.0605 -0.5689
13009SOL    HW142525   6.933   8.293   6.641 -0.1672 -1.4027 -0.8474
13009SOL    HW242526   7.006   8.162   6.662  2.1131 -0.0927 -0.2202
13010SOL     OW42527   3.828   5.983   5.301 -0.3272  0.1696 -0.1097
13010SOL    HW142528   3.900   5.929   5.268  0.1363 -0.5565  1.9334
13010SOL    HW242529   3.756   5.967   5.240  0.4876 -1.0244 -0.8087
13011SOL     OW42530   0.966   4.831   6.674 -0.2043 -0.0640  0.0765
13011SOL    HW142531   0.979   4.926   6.683  0.1246 -0.0094 -0.8668
13011SOL    HW242532   0.895   4.823   6.610 -2.0626 -0.4400  2.0775
13012SOL     OW42533   9.818  10.556   2.278 -0.1641 -1.0350  0.1430
13012SOL    HW142534   9.763  10.560   2.356  1.4238  0.4197  1.2386
13012SOL    HW242535   9.755  10.546   2.206 -1.8307  0.0436  1.3761
13013SOL     OW42536   6.687   1.498   5.832  0.7362  0.0495 -0.6993
13013SOL    HW142537   6.686   1.403   5.823  0.8188  0.0870 -1.1026
13013SOL    HW242538   6.698   1.531   5.743 -0.1542  0.4518 -0.6725
13014SOL     OW42539   5.030   9.123   3.234 -0.1655  0.4053  0.0192
13014SOL    HW142540   4.978   9.061   3.183  1.4584  0.4268 -1.7799
13014SOL    HW242541   4.986   9.127   3.319 -0.7940 -2.6103 -0.0439
13015SOL     OW42542   5.841   4.078   1.222 -0.0383  0.4752 -0.4006
13015SOL    HW142543   5.764   4.075   1.165  1.3374 -2.3929 -2.3214
13015SOL    HW242544   5.871   4.169   1.217 -1.9812  1.1123 -1.3843
13016SOL     OW42545   1.212   8.786   1.031  0.2604  0.1658 -0.1142
13016SOL    HW142546   1.162   8.867   1.018  1.4963  1.6347  3.3442
13016SOL    HW242547   1.151   8.728   1.075  0.6490  0.8846  1.4233
13017SOL     OW42548   6.020   8.852   6.674 -0.0620 -0.1483  0.2077
13017SOL    HW142549   6.003   8.805   6.756 -0.2588 -1.7739 -0.7231
13017SOL    HW242550   5.947   8.826   6.617 -1.7726  3.4756  0.4590
13018SOL     OW42551   2.115   2.013   1.196 -0.1628  0.2799  0.0271
13018SOL    HW142552   2.049   1.992   1.263 -1.2490  0.5421 -0.9302
13018SOL    HW242553   2.125   1.933   1.146 -0.9634  0.6914 -0.8222
13019SOL     OW42554   6.149   2.400   9.155 -0.3865  0.6062  0.4415
13019SOL    HW142555   6.156   2.446   9.071 -2.1070  2.1598  1.0889
13019SOL    HW242556   6.107   2.462   9.213 -0.7417 -1.0318  2.0196
13020SOL     OW42557   4.816  10.475   8.832  0.2933  0.2891 -0.1576
13020SOL    HW142558   4.791  10.386   8.856 -0.5336  0.7019  0.5648
13020SOL    HW242559   4.788  10.528   8.906  0.0899  1.2488 -0.9088
13021SOL     OW42560  10.178   7.317   8.878 -0.1619  0.5642 -0.3116
13021SOL    HW142561  10.094   7.306   8.923  0.5750 -0.2372  0.8854
13021SOL    HW242562  10.217   7.394   8.919 -0.3800  1.0553 -1.0052
13022SOL     OW42563   4.605   4.646   6.512 -0.3726 -0.2325  0.1641
13022SOL    HW142564   4.591   4.583   6.441  0.9884 -1.7848  1.1965
13022SOL    HW242565   4.669   4.603   6.569 -1.6813  0.8020  2.5177
13023SOL     OW42566   8.529  10.287   5.540 -0.4517 -0.0458 -0.3463
13023SOL    HW142567   8.533  10.217   5.474 -2.0002 -1.2423  0.7359
13023SOL    HW242568   8.436  10.311   5.544 -0.5989 -0.7093  2.0335
13024SOL     OW42569   8.105   4.176   8.142 -0.1724 -0.4901 -0.0570
13024SOL    HW142570   8.173   4.201   8.205 -0.2013  0.8019 -0.4963
13024SOL    HW242571   8.146   4.187   8.056 -0.6393 -0.6297 -0.3032
13025SOL     OW42572   9.197   1.325   5.530  0.7357 -0.2028  0.0123
13025SOL    HW142573   9.163   1.341   5.443 -0.9474  0.7508  0.7967
13025SOL    HW242574   9.272   1.266   5.517  1.3467  0.9698 -2.1556
13026SOL     OW42575   7.504   6.818   9.668  0.0728  0.1543  0.0198
13026SOL    HW142576   7.501   6.885   9.737 -0.4096  1.0807 -0.8697
13026SOL    HW242577   7.416   6.780   9.667  0.3603 -0.5480  0.5575
13027SOL     OW42578   8.765   2.724   3.650 -0.3931 -0.6582  0.3884
13027SOL    HW142579   8.680   2.700   3.686 -0.0047 -0.4489  1.5127
13027SOL    HW242580   8.822   2.651   3.673  0.1187 -0.0241  1.2103
13028SOL     OW42581   0.664   1.300  10.657 -0.5463  0.3911  0.5454
13028SOL    HW142582   0.637   1.389  10.681 -0.3588  0.3849  0.7842
13028SOL    HW242583   0.725   1.311  10.584 -0.1284  0.4910  0.9077
13029SOL     OW42584   1.984   4.585   9.482 -0.1546  0.7842  0.1041
13029SOL    HW142585   1.939   4.505   9.456  0.6602  0.6889 -1.1015
13029SOL    HW242586   2.009   4.626   9.399  2.4998  0.5194  0.7085
13030SOL     OW42587   3.306   9.340   0.201  0.3117 -0.4875 -0.3262
13030SOL    HW142588   3.309   9.278   0.275  1.1733 -1.0143 -0.7883
13030SOL    HW242589   3.357   9.415   0.231 -0.9112  0.1181  0.3176
13031SOL     OW42590   9.467   7.418   2.445 -0.5486  1.0690 -0.1739
13031SOL    HW142591   9.487   7.332   2.407  3.1782  1.9201 -0.5261
13031SOL    HW242592   9.445   7.400   2.536  3.3908 -0.1734  0.6890
13032SOL     OW42593   8.844   0.503   2.411  0.3476 -0.2116  0.6170
13032SOL    HW142594   8.905   0.430   2.417 -1.6147 -2.0977 -1.0707
13032SOL    HW242595   8.766   0.467   2.371 -1.1515  2.5883  0.7381
13033SOL     OW42596   2.344   9.137   5.818 -0.4108  0.0489 -0.0373
13033SOL    HW142597   2.375   9.176   5.737  1.1622 -1.6759 -0.3286
13033SOL    HW242598   2.266   9.188   5.841  1.2592  3.0789 -0.5633
13034SOL     OW42599   8.388   8.245   8.648 -0.7942 -0.2853  0.0848
13034SOL    HW142600   8.419   8.326   8.689 -0.4096 -1.0466  1.3753
13034SOL    HW242601   8.361   8.271   8.560 -1.2561  1.3524  0.6749
13035SOL     OW42602   2.455   7.896   3.964  0.0745 -0.3097  0.1260
13035SOL    HW142603   2.369   7.932   3.943 -0.7906 -1.3162  1.7071
13035SOL    HW242604   2.492   7.956   4.029  0.0937 -0.4202  0.2200
13036SOL     OW42605   3.290   7.533   8.528  0.2508  0.4149 -0.0239
13036SOL    HW142606   3.282   7.580   8.611  1.4626 -0.0440  0.3669
13036SOL    HW242607   3.263   7.598   8.462 -2.0309  0.3774  0.7711
13037SOL     OW42608   1.198  10.655   3.218 -0.7419  0.3245  0.0450
13037SOL    HW142609   1.205  10.673   3.124 -0.8952 -0.6471 -0.1628
13037SOL    HW242610   1.231  10.734   3.260 -0.3911  0.6553 -0.8300
13038SOL     OW42611   6.258   7.693   6.268 -0.0389  0.0710  0.2794
13038SOL    HW142612   6.325   7.755   6.241 -0.2105  0.0642 -0.1675
13038SOL    HW242613   6.255   7.627   6.198 -2.0060  1.2260 -0.8310
13039SOL     OW42614   5.115   8.299   0.960  0.3960 -0.0081  0.2852
13039SOL    HW142615   5.114   8.354   0.881  0.5494 -0.5588 -0.1078
13039SOL    HW242616   5.102   8.361   1.032 -0.9055  0.3705 -0.2409
13040SOL     OW42617   0.187   3.284   7.914  0.3498 -0.7825  0.7759
13040SOL    HW142618   0.255   3.338   7.955 -0.4463 -0.3909  1.6136
13040SOL    HW242619   0.190   3.202   7.964  1.4617 -1.5089 -0.4034
13041SOL     OW42620   9.621   5.063   5.838 -0.5770 -0.0094 -0.8252
13041SOL    HW142621   9.551   5.128   5.830 -0.5598  0.2062  0.4816
13041SOL    HW242622   9.600   5.016   5.919  1.1373  0.5140 -0.0451
13042SOL     OW42623   6.360   9.559   7.565  0.0110  0.6752 -0.2795
13042SOL    HW142624   6.453   9.538   7.564  0.0869  1.0164 -0.3631
13042SOL    HW242625   6.327   9.525   7.481 -0.2590 -0.8549  0.4131
13043SOL     OW42626   6.221   0.137   3.902  0.0350  0.3218 -0.4249
13043SOL    HW142627   6.280   0.127   3.976 -0.9658  0.2346  0.3818
13043SOL    HW242628   6.238   0.062   3.846 -0.1851 -0.3677  0.4236
13044SOL     OW42629   6.114   7.652   6.503 -0.1812 -0.3608 -0.1437
13044SOL    HW142630   6.049   7.718   6.527  1.7244  1.0578  1.5378
13044SOL    HW242631   6.155   7.686   6.424  0.9211  0.6340  0.8200
13045SOL     OW42632   7.679   0.236   6.250  0.1677  0.1022  0.1345
13045SOL    HW142633   7.608   0.238   6.185 -0.0964 -1.3675  0.3297
13045SOL    HW242634   7.746   0.179   6.210  0.7351  0.5512  0.4389
13046SOL     OW42635  10.551   7.525   3.862  0.3200  0.1725  0.0686
13046SOL    HW142636  10.615   7.596   3.861 -1.5987  2.0202 -1.5216
13046SOL    HW242637  10.562   7.484   3.948  2.2987  1.6118  0.5778
13047SOL     OW42638   5.448  10.442   0.652  0.4725 -0.3101  0.0987
13047SOL    HW142639   5.414  10.368   0.602  1.1057 -0.1549 -0.5721
13047SOL    HW242640   5.442  10.413   0.743 -1.4874 -0.2604  0.0267
13048SOL     OW42641   3.127   2.490   7.272  0.0549 -0.3473  0.1449
13048SOL    HW142642   3.218   2.460   7.275  0.3516  0.4729 -0.3496
13048SOL    HW242643   3.128   2.574   7.317  0.2446  1.3208 -2.7752
13049SOL     OW42644   5.382   5.882   2.229 -0.4931  0.1926 -0.6139
13049SOL    HW142645   5.457   5.896   2.286  0.6214 -2.3317 -1.2933
13049SOL    HW242646   5.410   5.912   2.143 -0.0691 -1.0585 -0.9407
13050SOL     OW42647   7.074   3.939   2.202  0.1578  0.0438 -0.1073
13050SOL    HW142648   6.980   3.923   2.194  0.3247 -0.2488 -1.9808
13050SOL    HW242649   7.090   4.015   2.145  0.9717  0.4411  0.6381
13051SOL     OW42650   2.244   3.206   0.679  0.2624 -0.2705  0.5098
13051SOL    HW142651   2.273   3.285   0.633  0.4565 -1.4924 -1.6204
13051SOL    HW242652   2.151   3.222   0.696  0.7830  1.3263  2.2443
13052SOL     OW42653   8.697   7.203   9.955 -0.0888  0.0428  0.4685
13052SOL    HW142654   8.728   7.279   9.906  1.4926 -1.1566 -0.5060
13052SOL    HW242655   8.659   7.145   9.889  0.0689 -0.6522  0.9701
13053SOL     OW42656   7.656   7.722   5.705 -0.0375  0.5008 -0.1464
13053SOL    HW142657   7.700   7.737   5.622 -0.0091  0.4541 -0.1398
13053SOL    HW242658   7.674   7.800   5.757 -0.1754  0.5929 -0.2366
13054SOL     OW42659  10.229   8.664   7.041  0.3173  0.3828  0.0051
13054SOL    HW142660  10.283   8.588   7.020 -1.4003 -0.5873 -1.1612
13054SOL    HW242661  10.249   8.727   6.972  0.5865  0.3416  0.0474
13055SOL     OW42662   0.347  10.440   0.949  0.3962 -0.3046 -0.0507
13055SOL    HW142663   0.425  10.472   0.903  0.4930 -0.4799 -0.0087
13055SOL    HW242664   0.367  10.348   0.968  1.1781  0.2530  2.0599
13056SOL     OW42665   6.846   1.196   7.638  0.5794 -0.3113 -0.5370
13056SOL    HW142666   6.903   1.271   7.657  1.6124 -0.2424 -3.4428
13056SOL    HW242667   6.761   1.235   7.616  1.5798  0.2905 -3.8075
13057SOL     OW42668   8.057   0.595   2.490  0.2267  0.2338 -0.2473
13057SOL    HW142669   8.120   0.652   2.446  1.2322  0.3810  1.2799
13057SOL    HW242670   8.110   0.524   2.526 -0.5882 -0.0653  0.4143
13058SOL     OW42671   8.127   8.560   4.762  0.3385 -0.3808  0.2264
13058SOL    HW142672   8.184   8.561   4.685 -1.4421  0.8515 -1.1582
13058SOL    HW242673   8.104   8.652   4.776 -1.0772 -0.8013  0.8858
13059SOL     OW42674   6.837   3.997   5.672 -0.3475  0.4759  0.1754
13059SOL    HW142675   6.892   3.942   5.728  0.1460  1.4984  0.7223
13059SOL    HW242676   6.751   3.995   5.713 -1.3008 -2.5423 -1.6194
13060SOL     OW42677   1.003   1.082   1.950  0.5409 -0.5215 -0.1902
13060SOL    HW142678   0.964   1.031   2.021  2.0348 -1.7008 -0.1825
13060SOL    HW242679   0.964   1.046   1.870  0.8636 -1.0174 -0.1257
13061SOL     OW42680   9.302   7.377   3.874 -0.3536 -0.3869  0.0210
13061SOL    HW142681   9.395   7.399   3.869 -0.5733  0.3825 -1.1651
13061SOL    HW242682   9.300   7.286   3.903  0.7457 -0.2166  0.6789
13062SOL     OW42683   5.752   7.943   0.965 -0.5515  0.7154 -0.4819
13062SOL    HW142684   5.722   7.961   1.054 -0.6673  1.6945 -0.7060
13062SOL    HW242685   5.683   7.889   0.927  0.4715 -1.5431  0.6649
13063SOL     OW42686   7.583   3.880   6.585  0.6944 -0.4351  0.1556
13063SOL    HW142687   7.617   3.865   6.497  0.1479  0.7747 -0.2799
13063SOL    HW242688   7.595   3.973   6.600 -4.1828  0.6735 -0.8850
13064SOL     OW42689   5.323   6.637   9.324  0.1954  0.3515 -0.4272
13064SOL    HW142690   5.276   6.556   9.305  0.4621 -0.0322  0.4987
13064SOL    HW242691   5.414   6.617   9.305  0.1475  0.7395 -1.1093
13065SOL     OW42692   2.860   3.014   2.470  0.0703 -0.1456 -0.0567
13065SOL    HW142693   2.880   3.105   2.451 -0.4363 -0.1275 -0.5319
13065SOL    HW242694   2.912   2.993   2.548  0.4677  0.4366 -0.1629
13066SOL     OW42695   2.149  10.029   8.039  0.2394 -0.0750 -0.4165
13066SOL    HW142696   2.092   9.957   8.011  0.3626  0.5553 -2.4681
13066SOL    HW242697   2.193  10.057   7.958 -0.5609  2.9792  0.0998
13067SOL     OW42698   6.427  10.926   5.581  0.1391 -0.2066 -0.0780
13067SOL    HW142699   6.490  10.953   5.648  1.2506  1.4990 -1.7218
13067SOL    HW242700   6.375  11.005   5.565 -0.4524 -0.7404 -0.8735
13068SOL     OW42701   1.527  10.332   9.123  0.1605  0.2004 -0.3707
13068SOL    HW142702   1.599  10.269   9.132  0.0917  0.0509 -0.8382
13068SOL    HW242703   1.462  10.303   9.186 -0.1962 -0.6610 -1.1160
13069SOL     OW42704   1.152   3.746   7.099 -0.2961  0.2630 -0.3054
13069SOL    HW142705   1.137   3.730   7.192 -0.9431 -0.1564 -0.4735
13069SOL    HW242706   1.077   3.706   7.055  0.6149 -0.6304 -1.1027
13070SOL     OW42707   3.034   7.400  10.207  0.2247  0.4985 -0.1719
13070SOL    HW142708   3.016   7.450  10.287 -1.4186  0.0273 -0.2107
13070SOL    HW242709   2.956   7.413  10.154 -0.7455 -2.8738  0.2071
13071SOL     OW42710   4.833   5.906   7.833 -0.0764 -0.0223 -0.0659
13071SOL    HW142711   4.903   5.892   7.897  2.7015 -1.6504 -3.0984
13071SOL    HW242712   4.784   5.824   7.833 -1.1202  0.5719  1.0109
13072SOL     OW42713   4.092   6.381  10.929 -0.0726 -0.1295  0.2172
13072SOL    HW142714   4.077   6.473  10.907 -0.7151 -0.4150 -0.5913
13072SOL    HW242715   4.038   6.365  11.006 -1.1836 -0.2210 -0.5631
13073SOL     OW42716   6.700   0.379   8.118 -0.2188  0.2486 -0.5133
13073SOL    HW142717   6.618   0.428   8.123  1.1873  2.6161  0.8583
13073SOL    HW242718   6.732   0.393   8.029  0.1048  1.7734 -0.1707
13074SOL     OW42719   9.884   9.008   4.927 -0.0377 -0.5708 -1.2983
13074SOL    HW142720   9.843   8.993   5.012  2.4680 -1.4060 -0.1525
13074SOL    HW242721   9.814   9.044   4.873 -2.4834 -2.6391  0.2525
13075SOL     OW42722   6.231   4.976   3.483  0.2080 -0.6784  0.0246
13075SOL    HW142723   6.212   5.035   3.556 -0.7745 -0.2723 -0.5460
13075SOL    HW242724   6.188   5.016   3.407 -1.4669 -2.6612 -0.1690
13076SOL     OW42725   2.046   2.368   2.380 -0.5063 -0.1498 -0.1316
13076SOL    HW142726   1.956   2.339   2.365 -1.0865  1.8900 -0.8044
13076SOL    HW242727   2.047   2.401   2.469 -0.7173  0.7818 -0.4619
13077SOL     OW42728   1.035   2.860   4.144 -0.3645  0.1511  0.0352
13077SOL    HW142729   1.120   2.889   4.177  1.1345 -2.3890 -1.1666
13077SOL    HW242730   1.022   2.911   4.064 -0.3155  1.0203  0.5698
13078SOL     OW42731   9.047  10.880   8.660  0.1374 -0.4955 -0.0752
13078SOL    HW142732   9.088  10.910   8.579 -0.5840  0.0577 -0.2401
13078SOL    HW242733   8.987  10.811   8.633 -0.1768 -0.2422 -0.0294
13079SOL     OW42734   0.738   4.106   6.260 -0.3339 -0.2040 -0.0438
13079SOL    HW142735   0.761   4.198   6.263  0.1206 -0.3443  2.0978
13079SOL    HW242736   0.661   4.102   6.204  0.1026  1.3481 -0.7921
13080SOL     OW42737   3.510   4.128   9.185 -0.2975 -0.1560 -0.2010
13080SOL    HW142738   3.476   4.180   9.112  0.3796  0.5274 -0.0326
13080SOL    HW242739   3.435   4.074   9.211 -0.7953  0.1909 -0.8531
13081SOL     OW42740   6.217   3.168   0.231 -0.4965  0.4165 -0.7747
13081SOL    HW142741   6.197   3.081   0.266 -1.3638  0.5566 -0.9136
13081SOL    HW242742   6.297   3.155   0.180 -0.9307 -0.4202 -1.2694
13082SOL     OW42743   8.737   0.018   7.992 -0.0754 -0.0512  0.0201
13082SOL    HW142744   8.665  -0.020   7.943 -0.3452 -0.6921  0.9067
13082SOL    HW242745   8.696   0.079   8.053  0.3233  1.4656 -1.1413
13083SOL     OW42746   2.201   4.679   5.595 -0.5331 -0.1772 -0.0322
13083SOL    HW142747   2.190   4.585   5.607 -1.5982 -0.3926 -2.1289
13083SOL    HW242748   2.193   4.716   5.683 -5.7787 -1.5693  0.4336
13084SOL     OW42749   2.304   8.936   8.608 -0.0304  0.0161  0.1133
13084SOL    HW142750   2.212   8.915   8.592  0.3061 -1.0557 -0.4928
13084SOL    HW242751   2.311   8.938   8.704 -0.5770 -0.4214  0.1738
13085SOL     OW42752   4.957   3.652   6.440  0.4685 -0.2733 -0.4330
13085SOL    HW142753   4.878   3.669   6.389  1.1705 -1.1053 -1.8440
13085SOL    HW242754   5.017   3.611   6.379  1.7162 -0.4037  0.8263
13086SOL     OW42755   0.406   1.151  10.678  0.0087 -0.9269  0.1888
13086SOL    HW142756   0.493   1.190  10.665 -0.1155 -0.1624  1.5237
13086SOL    HW242757   0.346   1.212  10.636 -0.0833 -0.2348  1.3029
13087SOL     OW42758   0.816   4.340   4.353  0.0248  0.0981  0.0526
13087SOL    HW142759   0.731   4.329   4.397  0.0331 -1.3724 -0.2388
13087SOL    HW242760   0.852   4.251   4.350  1.3230  0.6239 -0.3436
13088SOL     OW42761   9.042   5.390   3.303  0.5923 -0.3040 -0.3963
13088SOL    HW142762   8.966   5.333   3.315  1.6235 -1.4613  0.9945
13088SOL    HW242763   9.118   5.333   3.317  1.6864  1.2383  0.2841
13089SOL     OW42764   4.062   2.108   3.710 -0.5840 -0.4517 -0.1062
13089SOL    HW142765   3.978   2.151   3.728 -0.5926  0.3481 -1.8408
13089SOL    HW242766   4.124   2.149   3.770 -0.8269  1.1998 -0.9439
13090SOL     OW42767   1.101   3.417   1.807  0.4468  0.2632 -0.1023
13090SOL    HW142768   1.155   3.394   1.882  0.9147  0.5124 -0.3591
13090SOL    HW242769   1.047   3.340   1.792  1.3889 -0.3585 -0.4145
13091SOL     OW42770   0.232   5.876   7.392 -0.2957 -0.3118  0.3824
13091SOL    HW142771   0.194   5.869   7.480 -1.2334 -1.1301 -0.0589
13091SOL    HW242772   0.163   5.843   7.334  0.9637 -1.4986 -0.5015
13092SOL     OW42773   4.607   9.024  10.795  0.0045 -0.0095  0.1067
13092SOL    HW142774   4.617   8.989  10.707 -1.4377  1.4814 -0.7271
13092SOL    HW242775   4.681   9.083  10.807  0.6934 -0.8829  0.2809
13093SOL     OW42776   9.477   9.961   4.576 -0.0965 -0.2230  0.3878
13093SOL    HW142777   9.529   9.881   4.589  1.4153  0.2992 -1.9228
13093SOL    HW242778   9.538  10.032   4.594 -0.2129  0.4058 -1.5137
13094SOL     OW42779   8.210   8.060   8.679 -0.0738  0.3960  0.4827
13094SOL    HW142780   8.267   8.137   8.675  2.3651 -1.3113  0.2384
13094SOL    HW242781   8.202   8.030   8.589 -1.3216  0.5324  0.5273
13095SOL     OW42782   1.933   7.069   3.383  0.2731  0.3121 -0.0720
13095SOL    HW142783   1.926   7.017   3.463 -0.6767 -2.7414 -2.0022
13095SOL    HW242784   2.026   7.067   3.360  0.2930 -0.2928  0.0495
13096SOL     OW42785   5.307   2.334  10.148  0.4414 -0.0822  0.3515
13096SOL    HW142786   5.330   2.286  10.069  1.0965 -0.0759  0.5357
13096SOL    HW242787   5.230   2.289  10.183 -0.2046  0.2642 -0.5989
13097SOL     OW42788   1.670   5.346   8.132  0.3656 -0.0248 -0.1123
13097SOL    HW142789   1.751   5.355   8.180  0.8218 -0.1806 -0.8338
13097SOL    HW242790   1.638   5.258   8.153 -0.3373  0.5308  1.2404
13098SOL     OW42791   0.739   7.133   5.442 -0.0628 -0.0400  0.0511
13098SOL    HW142792   0.731   7.201   5.509  0.5143  0.4476 -0.3728
13098SOL    HW242793   0.690   7.166   5.368 -1.1681 -0.8255  0.4049
13099SOL     OW42794   5.516   9.380   9.233  0.2440 -0.0116 -0.1282
13099SOL    HW142795   5.477   9.345   9.313  0.3552  0.4693  0.1362
13099SOL    HW242796   5.595   9.328   9.220 -0.9069 -1.6128 -1.1593
13100SOL     OW42797   5.721   0.478   4.509 -0.2550 -0.1245 -0.1241
13100SOL    HW142798   5.679   0.521   4.435  2.4656  1.5541 -0.8407
13100SOL    HW242799   5.763   0.401   4.471 -1.9569 -1.3932  0.4532
13101SOL     OW42800   5.197   4.630   3.713  0.1425 -0.3442 -0.7991
13101SOL    HW142801   5.117   4.669   3.679  1.4623  3.0544 -0.4655
13101SOL    HW242802   5.186   4.536   3.700 -2.7130  0.1714 -3.2149
13102SOL     OW42803   5.567   4.983   9.479  0.3388 -0.1876  0.2774
13102SOL    HW142804   5.621   4.977   9.400  1.0214  0.6937  0.6666
13102SOL    HW242805   5.592   4.906   9.531 -0.5553 -1.1125 -0.6104
13103SOL     OW42806   8.150   3.829  10.376 -0.3506  0.2212  0.7866
13103SOL    HW142807   8.237   3.861  10.352 -0.9800  1.3510 -0.1096
13103SOL    HW242808   8.136   3.753  10.320  0.5215 -0.7223  1.7967
13104SOL     OW42809   3.189   2.451   7.712  0.5519  0.2805  0.0846
13104SOL    HW142810   3.182   2.456   7.808  0.8362  2.0881  0.0533
13104SOL    HW242811   3.133   2.522   7.681  1.0781  0.2132 -1.0570
13105SOL     OW42812   3.532  10.173   9.858 -0.6048 -0.0763 -0.5938
13105SOL    HW142813   3.518  10.138   9.770  0.2376 -0.9360 -0.4005
13105SOL    HW242814   3.577  10.103   9.905 -1.6672  0.0904  0.7454
13106SOL     OW42815   9.839   6.273   5.596 -0.7422 -0.0689 -0.7040
13106SOL    HW142816   9.790   6.278   5.514 -2.7264  0.1509  0.4374
13106SOL    HW242817   9.930   6.266   5.568 -1.1490  2.0077 -2.9184
13107SOL     OW42818   6.307   4.674   9.278  0.1981  0.2328 -0.1288
13107SOL    HW142819   6.273   4.587   9.302  1.2882  0.2703  1.7951
13107SOL    HW242820   6.235   4.734   9.298 -0.1983 -0.1212 -0.4738
13108SOL     OW42821  10.059   0.887   9.848  0.3292 -0.5671 -0.2184
13108SOL    HW142822  10.066   0.844   9.933  1.9306  0.2414  0.0931
13108SOL    HW242823   9.967   0.913   9.842  0.1163 -0.9238  1.1219
13109SOL     OW42824   5.187  10.189   2.660  0.1319  0.3596 -0.4390
13109SOL    HW142825   5.211  10.105   2.621 -0.8045 -0.8368  1.4240
13109SOL    HW242826   5.092  10.193   2.651  0.1575  1.1648 -0.3719
13110SOL     OW42827   3.026   2.767   4.475  0.0405  0.5210 -0.6817
13110SOL    HW142828   2.990   2.681   4.453  3.0720 -0.4918 -2.3326
13110SOL    HW242829   3.052   2.760   4.567 -1.4741  0.3966 -0.2410
13111SOL     OW42830  10.169   8.812  10.682  0.2751 -0.1416  0.1298
13111SOL    HW142831  10.146   8.732  10.728  1.9914  0.5536  2.3701
13111SOL    HW242832  10.102   8.875  10.708  1.1803  0.2220  1.7327
13112SOL     OW42833   9.626   4.142   0.902 -0.1531  0.1159  0.4442
13112SOL    HW142834   9.538   4.108   0.885 -1.1952  2.1308  1.5344
13112SOL    HW242835   9.635   4.216   0.843 -0.2806  1.5572  2.1621
13113SOL     OW42836   8.680   7.445   4.044  0.2323  0.3819 -0.0310
13113SOL    HW142837   8.623   7.387   4.096 -0.1525  1.3161  0.6210
13113SOL    HW242838   8.641   7.532   4.055  1.7479  1.0324  0.3672
13114SOL     OW42839  10.341   7.793   5.871  0.3349  0.2767  0.1221
13114SOL    HW142840  10.273   7.761   5.930 -0.1396  0.4664 -0.3164
13114SOL    HW242841  10.400   7.718   5.860 -0.5271 -0.3156 -0.5453
13115SOL     OW42842   6.667   4.128   0.349  0.2017  0.5355 -0.1106
13115SOL    HW142843   6.630   4.168   0.271  1.8846  1.4372 -0.4879
13115SOL    HW242844   6.612   4.051   0.365 -0.5442  0.6749 -1.8160
13116SOL     OW42845   6.474   3.655   4.893  0.0483 -0.2420  0.9436
13116SOL    HW142846   6.408   3.715   4.927 -0.5583 -0.7074  0.6071
13116SOL    HW242847   6.522   3.707   4.828 -0.8628 -0.2721  0.2163
13117SOL     OW42848   5.767  10.667   8.087  0.1384 -0.0587  0.3807
13117SOL    HW142849   5.807  10.652   8.001  0.2936 -0.9898  0.6057
13117SOL    HW242850   5.711  10.590   8.101  2.0291 -1.1784  2.1898
13118SOL     OW42851   4.146   0.599  10.290  0.1526 -0.5263  0.3013
13118SOL    HW142852   4.094   0.678  10.272  1.9181  0.2960 -1.5738
13118SOL    HW242853   4.198   0.623  10.367  0.3705  0.0092 -0.0025
13119SOL     OW42854   2.503   6.369   9.695  0.0486  0.1064 -0.6110
13119SOL    HW142855   2.518   6.449   9.745  0.3505  0.2435 -0.9210
13119SOL    HW242856   2.583   6.319   9.705 -0.0687 -0.0744 -0.5754
13120SOL     OW42857   6.261   8.733   9.252 -0.8430  0.2023 -0.4573
13120SOL    HW142858   6.189   8.737   9.189 -1.2446 -2.7162 -0.3012
13120SOL    HW242859   6.264   8.642   9.280  2.1163  0.4936  0.5172
13121SOL     OW42860   5.895   0.328  10.896 -0.5063  0.6352 -0.2058
13121SOL    HW142861   5.829   0.264  10.923 -0.3640  1.1886  1.5796
13121SOL    HW242862   5.894   0.325  10.800 -2.0417 -0.4521 -0.1872
13122SOL     OW42863   8.161   3.128   0.925 -0.1449 -0.1482  0.2657
13122SOL    HW142864   8.237   3.164   0.970  0.6830 -0.8744 -0.5191
13122SOL    HW242865   8.094   3.197   0.932  0.9121  0.9234  0.0845
13123SOL     OW42866   6.066   8.459   6.093 -0.5660 -0.2854 -0.7248
13123SOL    HW142867   6.120   8.405   6.036 -0.2537  0.0654 -0.7637
13123SOL    HW242868   6.040   8.534   6.039 -0.2325  0.0720 -0.3966
13124SOL     OW42869   3.822   6.568   4.778 -0.3392  0.3151  0.3685
13124SOL    HW142870   3.750   6.596   4.835 -2.2077  1.6490 -2.4128
13124SOL    HW242871   3.817   6.627   4.703  2.4453 -0.8707 -0.8665
13125SOL     OW42872   3.204   7.089   1.761  0.0135  0.5334 -0.2581
13125SOL    HW142873   3.243   7.041   1.833 -0.4587 -0.8558 -0.8983
13125SOL    HW242874   3.278   7.128   1.715  0.4157  0.3084  0.1924
13126SOL     OW42875  10.519   6.938   1.570 -0.2527 -0.7483 -0.5903
13126SOL    HW142876  10.610   6.934   1.600 -0.8267  1.0310  1.6434
13126SOL    HW242877  10.494   6.846   1.557  1.3465 -1.3632  0.3735
13127SOL     OW42878   1.313   8.379   3.125 -0.5109 -0.3460  0.3418
13127SOL    HW142879   1.386   8.373   3.187 -0.8366 -0.1531  0.7476
13127SOL    HW242880   1.236   8.393   3.180 -1.0122 -1.6477 -0.0097
13128SOL     OW42881   6.570   0.319   4.611 -0.2415  0.0094  0.4692
13128SOL    HW142882   6.532   0.361   4.687 -0.0891  1.2587 -0.1242
13128SOL    HW242883   6.545   0.374   4.537  0.6107 -0.5102 -0.2361
13129SOL     OW42884   3.745   4.054   1.142 -0.5313 -0.3843  0.0939
13129SOL    HW142885   3.747   3.980   1.081 -0.0599 -0.7866  0.5892
13129SOL    HW242886   3.681   4.115   1.104 -0.7537 -0.9419 -0.4381
13130SOL     OW42887   7.893   1.617   4.764 -0.2357 -0.0194  0.0512
13130SOL    HW142888   7.878   1.592   4.672  2.1331 -2.3714  0.1775
13130SOL    HW242889   7.970   1.674   4.761  2.0757 -2.8547  0.6900
13131SOL     OW42890   7.555   1.668   1.647  0.0750 -0.2350 -0.1936
13131SOL    HW142891   7.480   1.634   1.599  1.2764 -0.9175 -1.6773
13131SOL    HW242892   7.522   1.747   1.690 -1.1023  0.3875 -2.1094
13132SOL     OW42893   0.474   6.068   9.415  0.5780 -0.8920  0.1020
13132SOL    HW142894   0.461   6.121   9.336  3.2167  0.4796  0.4705
13132SOL    HW242895   0.565   6.038   9.409  0.6520 -1.2594  2.3138
13133SOL     OW42896   5.464  10.404   2.079 -0.5108  0.1380  0.0863
13133SOL    HW142897   5.468  10.479   2.138 -1.0799  0.1382  0.1357
13133SOL    HW242898   5.401  10.430   2.012 -0.9797 -0.4199  0.2949
13134SOL     OW42899   5.849  10.917   7.482 -0.7240 -0.0698  0.6318
13134SOL    HW142900   5.847  10.875   7.567 -2.6650  1.2931  1.3376
13134SOL    HW242901   5.758  10.941   7.465 -0.1518  1.0519 -1.1192
13135SOL     OW42902   7.328  10.096   2.727  0.1152 -0.0813 -0.3081
13135SOL    HW142903   7.374  10.093   2.643  0.7303  2.6204 -0.1422
13135SOL    HW242904   7.397  10.083   2.792  0.0162  0.1447 -0.1599
13136SOL     OW42905   5.307   6.533   8.622 -0.3674  0.3024 -0.2300
13136SOL    HW142906   5.254   6.538   8.702 -0.1329  2.4458 -0.1596
13136SOL    HW242907   5.291   6.445   8.588 -2.7060  0.3212  0.6556
13137SOL     OW42908   7.276  10.772   4.324  0.3183 -0.1550 -0.2045
13137SOL    HW142909   7.370  10.789   4.324  0.3028  0.0008  0.7024
13137SOL    HW242910   7.236  10.858   4.332  0.1390 -0.3060  0.6027
13138SOL     OW42911   6.381   3.014   7.682 -0.2369 -0.4796 -0.2580
13138SOL    HW142912   6.331   2.957   7.624 -0.1596 -0.1319 -0.6676
13138SOL    HW242913   6.369   3.102   7.646 -0.3193 -0.2375  0.3415
13139SOL     OW42914   5.112   9.238   8.273 -0.5546 -0.3093 -0.1025
13139SOL    HW142915   5.146   9.320   8.308  0.2809  0.3288 -2.2444
13139SOL    HW242916   5.174   9.171   8.303  1.4224  0.5255 -2.0484
13140SOL     OW42917   1.927   5.834   6.921  0.1167 -0.3971  0.3896
13140SOL    HW142918   1.989   5.763   6.904  0.9228 -0.5670  3.4787
13140SOL    HW242919   1.930   5.888   6.842  1.0525 -2.6513 -1.1984
13141SOL     OW42920   7.860   5.356   8.009 -0.3083 -0.5175 -0.1978
13141SOL    HW142921   7.847   5.406   8.090 -0.9407 -0.6880 -0.1883
13141SOL    HW242922   7.799   5.282   8.017 -1.3335  0.1714 -1.4076
13142SOL     OW42923   5.907   2.728  10.748  0.2203  0.0932  0.3087
13142SOL    HW142924   5.938   2.768  10.829 -0.3014 -1.7567  1.5007
13142SOL    HW242925   5.982   2.734  10.688  1.1608  0.1691  1.4499
13143SOL     OW42926   9.119   9.795   4.784 -0.2665 -0.2786 -0.3172
13143SOL    HW142927   9.169   9.713   4.784 -2.8458 -1.9636  0.6557
13143SOL    HW242928   9.156   9.846   4.856  0.0272 -1.4889  0.4083
13144SOL     OW42929  10.803   2.320   9.102 -0.2185  0.3113  0.2745
13144SOL    HW142930  10.832   2.280   9.020 -0.1666 -1.1905  0.9959
13144SOL    HW242931  10.727   2.268   9.128 -0.2849  0.8260  1.1282
13145SOL     OW42932   1.820   4.058   7.671  0.2234 -0.3326  0.1275
13145SOL    HW142933   1.795   4.147   7.697 -1.2420 -0.3507 -1.0613
13145SOL    HW242934   1.896   4.037   7.725 -0.6595  0.8475  1.9085
13146SOL     OW42935   6.664   9.510   5.666 -0.4738  0.0159 -0.3135
13146SOL    HW142936   6.746   9.483   5.708  0.4665  2.2624 -0.5800
13146SOL    HW242937   6.648   9.442   5.601  0.4220 -1.1988  0.6699
13147SOL     OW42938   5.117   9.756   4.544  0.0015  0.7954 -0.1148
13147SOL    HW142939   5.027   9.790   4.543 -0.1920  0.3478  1.0538
13147SOL    HW242940   5.143   9.758   4.636  0.9605  0.3112 -0.3620
13148SOL     OW42941   0.916   9.300   6.965 -0.0245 -0.1714  0.1708
13148SOL    HW142942   0.990   9.286   7.025  1.3269  2.1762 -0.8420
13148SOL    HW242943   0.842   9.260   7.010  1.0661  0.8558  3.1354
13149SOL     OW42944   4.435   1.510   9.101  0.5493  0.0447 -0.4860
13149SOL    HW142945   4.526   1.483   9.088  0.6978 -0.8566  1.9268
13149SOL    HW242946   4.435   1.555   9.185 -1.2089  0.2551 -0.5547
13150SOL     OW42947   9.735   9.938   0.959  0.4923 -0.3722  0.6945
13150SOL    HW142948   9.821   9.920   0.920  1.2983  2.0689  1.1802
13150SOL    HW242949   9.734   9.885   1.039  1.0157 -1.3616  0.0713
13151SOL     OW42950   3.238   3.801   3.169  0.2439 -0.0398 -0.1516
13151SOL    HW142951   3.182   3.863   3.123 -0.2996  0.6764  1.3977
13151SOL    HW242952   3.315   3.791   3.113 -1.2680 -0.8775 -2.2298
13152SOL     OW42953   8.576   9.547   1.901 -0.1902  0.1391 -0.1476
13152SOL    HW142954   8.621   9.617   1.854  0.5576  0.3953  0.9291
13152SOL    HW242955   8.640   9.476   1.905  0.2021  0.5675  1.5487
13153SOL     OW42956   0.621   0.938   8.755  0.5524 -0.7821  0.0577
13153SOL    HW142957   0.711   0.922   8.782  0.7244  0.7734  0.5359
13153SOL    HW242958   0.569   0.917   8.833  0.7090  0.1717  0.4409
13154SOL     OW42959   9.825   8.837   4.457 -0.5866 -0.0234  0.0560
13154SOL    HW142960   9.841   8.806   4.546  0.3765  0.3566  0.0283
13154SOL    HW242961   9.769   8.770   4.418 -1.4420  0.0501  1.0900
13155SOL     OW42962   5.987   9.204  10.155 -0.5140  0.6683 -0.2809
13155SOL    HW142963   6.044   9.248  10.218 -0.1633 -0.2537  0.0667
13155SOL    HW242964   5.949   9.131  10.205  1.8610 -1.7758 -1.7533
13156SOL     OW42965   7.196   6.781   5.529  0.1321 -0.6246  0.0280
13156SOL    HW142966   7.116   6.828   5.549  1.9188  1.5546  2.7732
13156SOL    HW242967   7.219   6.809   5.440 -0.2488  1.7432  0.6070
13157SOL     OW42968   6.387   8.419  10.393  0.5062  0.4178  0.6024
13157SOL    HW142969   6.312   8.450  10.442  1.1218  1.2728  1.0216
13157SOL    HW242970   6.455   8.405  10.459  0.1486 -2.3298  0.5360
13158SOL     OW42971  10.647   0.746   1.376 -0.3262  0.4647 -0.1689
13158SOL    HW142972  10.595   0.699   1.441 -0.6575 -0.7193 -1.2339
13158SOL    HW242973  10.668   0.679   1.310  2.1648  1.0087 -0.0130
13159SOL     OW42974   3.824   6.208   0.150  0.1033 -0.2345 -0.2911
13159SOL    HW142975   3.891   6.140   0.154  0.3090  0.0130  0.7797
13159SOL    HW242976   3.821   6.245   0.239 -1.2420 -0.0414 -0.3889
13160SOL     OW42977  10.714   7.283   3.210  0.1099  0.0852 -0.0006
13160SOL    HW142978  10.693   7.190   3.210  0.8864 -0.1240 -1.7495
13160SOL    HW242979  10.753   7.300   3.124 -1.5765  2.3930 -0.4154
13161SOL     OW42980   1.853   2.331   0.837  0.2852 -0.6743  0.1284
13161SOL    HW142981   1.936   2.323   0.791  1.0780 -1.2388  1.5781
13161SOL    HW242982   1.794   2.271   0.791  0.3297  0.5470 -1.5972
13162SOL     OW42983   7.003   0.340   0.692 -0.0429 -0.1388  0.2324
13162SOL    HW142984   6.995   0.424   0.737 -1.0917 -0.6970  1.1005
13162SOL    HW242985   6.975   0.359   0.602 -1.1643  0.2394  0.6527
13163SOL     OW42986   3.026   6.833   4.859  0.9211 -0.1156  0.0914
13163SOL    HW142987   2.974   6.756   4.884 -0.0762  0.1595 -1.0540
13163SOL    HW242988   2.999   6.901   4.921 -1.3516  0.4941 -1.4512
13164SOL     OW42989   4.994   8.788   9.245 -0.0839  0.1358  0.1179
13164SOL    HW142990   4.911   8.761   9.285  0.7250 -0.6894  1.3206
13164SOL    HW242991   4.970   8.856   9.183 -1.7422 -0.5621 -0.0512
13165SOL     OW42992   4.614   9.451   5.990 -0.0789  0.5602 -0.4290
13165SOL    HW142993   4.649   9.512   6.054 -0.8994  1.2869 -0.6511
13165SOL    HW242994   4.684   9.440   5.926  1.0268 -0.7255  0.9189
13166SOL     OW42995   1.849   9.864   6.046  0.1553  0.2824  0.2986
13166SOL    HW142996   1.897   9.783   6.031 -0.4521  0.2827 -1.9982
13166SOL    HW242997   1.874   9.921   5.974 -2.1425  0.7942 -0.1875
13167SOL     OW42998   0.424   0.172   6.853  0.2770  0.1493 -0.8363
13167SOL    HW142999   0.392   0.181   6.943 -1.1928  2.7503 -1.5505
13167SOL    HW243000   0.345   0.163   6.800  0.8468  2.4755 -2.2109
13168SOL     OW43001   1.550   5.443   2.810  0.8050 -0.0480  0.3409
13168SOL    HW143002   1.504   5.394   2.742 -1.6886  1.2595  0.9668
13168SOL    HW243003   1.573   5.377   2.875 -0.0852 -0.8058 -0.0814
13169SOL     OW43004   3.488   7.785   5.889 -0.3549 -0.5587 -0.1247
13169SOL    HW143005   3.397   7.787   5.859 -0.1680  0.6524 -0.7105
13169SOL    HW243006   3.514   7.877   5.889  1.4383 -0.9976 -1.7858
13170SOL     OW43007   4.405   1.071   2.851 -0.2849 -0.3673  0.1382
13170SOL    HW143008   4.464   1.115   2.789 -2.2198  2.5551  0.1719
13170SOL    HW243009   4.358   1.007   2.798 -1.5029  1.6887 -1.3900
13171SOL     OW43010   9.800   2.857   0.548 -0.2486 -0.4605  0.0728
13171SOL    HW143011   9.809   2.761   0.548 -1.7895 -0.6958  2.4546
13171SOL    HW243012   9.773   2.878   0.638  2.2199  2.4790  0.2820
13172SOL     OW43013   9.297   6.712   1.110 -0.1413 -0.0440 -0.2524
13172SOL    HW143014   9.366   6.696   1.175 -0.1531 -0.9501 -0.4462
13172SOL    HW243015   9.216   6.704   1.160 -0.1237  1.2364  0.0211
13173SOL     OW43016   8.630   9.632   2.907 -0.1891  0.5716  0.2260
13173SOL    HW143017   8.589   9.640   2.821  2.5202  0.0765 -1.1979
13173SOL    HW243018   8.688   9.708   2.913  1.0016 -0.3626  0.8174
13174SOL     OW43019  10.694   4.132   8.113  0.1694  0.5993 -0.5233
13174SOL    HW143020  10.781   4.127   8.151 -0.6576  0.7502  1.5141
13174SOL    HW243021  10.703   4.193   8.040  1.3767  2.2878  0.9524
13175SOL     OW43022   8.674   5.262   4.662  0.0829  0.1113  0.5987
13175SOL    HW143023   8.677   5.337   4.603 -1.1233  0.2772  0.7270
13175SOL    HW243024   8.731   5.197   4.620 -1.3437 -0.0628 -1.1932
13176SOL     OW43025   1.974   5.360   7.065  0.6274  0.1304 -0.2495
13176SOL    HW143026   1.912   5.311   7.119  0.3046 -1.4961 -1.9732
13176SOL    HW243027   1.964   5.451   7.094 -1.1512 -0.3618  0.8602
13177SOL     OW43028   1.393   2.926   0.669 -0.3814  0.1535 -0.3473
13177SOL    HW143029   1.389   2.967   0.756 -0.1298  0.1683 -0.3423
13177SOL    HW243030   1.433   2.992   0.613 -1.2572  0.4376 -0.6487
13178SOL     OW43031   5.846   5.924   2.182 -0.1135  0.3384 -0.1100
13178SOL    HW143032   5.909   5.887   2.243 -0.8758 -0.7905  0.0191
13178SOL    HW243033   5.760   5.902   2.219 -0.5881  0.5579 -1.0346
13179SOL     OW43034   6.027   7.253   8.290 -1.0192 -0.1916  0.5092
13179SOL    HW143035   6.108   7.207   8.269 -0.4713 -0.4294  2.8594
13179SOL    HW243036   6.036   7.338   8.247  0.2451 -0.4124  0.3147
13180SOL     OW43037   1.007  10.843   3.818 -0.3811  0.4937  0.3260
13180SOL    HW143038   1.001  10.838   3.913 -0.8978  0.7364  0.3127
13180SOL    HW243039   1.099  10.826   3.798 -0.6107 -1.4765  0.7308
13181SOL     OW43040   4.638   4.918   8.875 -0.2799  0.0661 -0.0548
13181SOL    HW143041   4.672   4.879   8.956  0.2755 -2.0514 -1.2173
13181SOL    HW243042   4.552   4.878   8.864 -0.5965  0.7854 -0.2220
13182SOL     OW43043  10.973  10.828   9.057  0.1350 -0.3644  0.2537
13182SOL    HW143044  10.881  10.852   9.051 -0.0182 -0.6614  1.2805
13182SOL    HW243045  10.978  10.768   9.131  1.2756  0.2842  0.7303
13183SOL     OW43046   1.918   5.724   1.125 -0.2855  0.2634 -0.1214
13183SOL    HW143047   1.985   5.776   1.081 -0.9695  1.0201 -0.2917
13183SOL    HW243048   1.855   5.700   1.056 -0.7676  0.4982  0.2285
13184SOL     OW43049   9.406   2.576   4.846 -0.0155  0.0647 -0.5328
13184SOL    HW143050   9.483   2.523   4.823 -0.1921 -0.5624  0.2694
13184SOL    HW243051   9.335   2.512   4.854 -0.1219  0.3430  0.9449
13185SOL     OW43052   0.511   4.915   5.334  0.1165 -0.0099 -0.7176
13185SOL    HW143053   0.439   4.860   5.305 -1.3821  0.5546  1.6901
13185SOL    HW243054   0.484   5.004   5.311  2.0332 -0.0085 -3.5779
13186SOL     OW43055   4.572   8.436   0.069 -0.5078  0.5849  0.5748
13186SOL    HW143056   4.584   8.437  -0.026 -1.1538  1.6262  0.4905
13186SOL    HW243057   4.479   8.457   0.081 -0.4862  0.2252  1.4343
13187SOL     OW43058   8.584   8.061   4.382  0.0694  0.3015 -0.2489
13187SOL    HW143059   8.552   7.971   4.382 -0.2561  0.3918 -1.9640
13187SOL    HW243060   8.521   8.109   4.330  1.1406  1.1907 -0.7631
13188SOL     OW43061   2.977   8.340   7.977  0.0856 -0.3917 -0.1733
13188SOL    HW143062   3.033   8.360   7.902 -1.0053 -0.6638 -1.0900
13188SOL    HW243063   2.912   8.411   7.977  0.7966  0.3131  1.3003
13189SOL     OW43064   8.841  10.810   5.140 -0.8464 -0.1618 -0.2537
13189SOL    HW143065   8.921  10.772   5.105 -1.4101  0.2767 -2.1577
13189SOL    HW243066   8.785  10.735   5.161 -0.1399 -0.4539  0.6162
13190SOL     OW43067   3.694   7.718   5.673 -0.2375 -0.2639  0.0215
13190SOL    HW143068   3.634   7.786   5.705 -0.0578 -0.9793  2.0167
13190SOL    HW243069   3.638   7.641   5.660  0.0051 -0.5328  0.5369
13191SOL     OW43070   2.230   8.213   6.631  0.3909 -0.1204  0.0137
13191SOL    HW143071   2.187   8.248   6.710  1.7909 -0.4999  0.9781
13191SOL    HW243072   2.281   8.286   6.597 -0.2459  0.0560 -0.5953
13192SOL     OW43073   9.019   0.326   6.512  0.3061 -0.3718 -0.3459
13192SOL    HW143074   9.114   0.320   6.523  0.2954  1.7189  1.7653
13192SOL    HW243075   8.994   0.402   6.564 -2.1977  0.9121 -3.1314
13193SOL     OW43076   6.352   6.850   7.399  0.3080 -0.0128  0.1292
13193SOL    HW143077   6.379   6.877   7.487  0.7337  2.6924 -0.7368
13193SOL    HW243078   6.387   6.918   7.342 -2.2914 -0.2094 -1.8490
13194SOL     OW43079   9.045   6.483   7.329 -0.2648  0.5271  0.1889
13194SOL    HW143080   9.111   6.414   7.322 -0.5000  0.2128  0.8977
13194SOL    HW243081   9.048   6.528   7.245 -1.3983 -1.5289 -1.0546
13195SOL     OW43082   0.476   8.462   7.442  0.4323  0.0316  0.0340
13195SOL    HW143083   0.475   8.383   7.388  1.8336 -0.3379  0.4922
13195SOL    HW243084   0.385   8.478   7.464  0.0882 -1.2227 -0.4139
13196SOL     OW43085   3.427  10.322   7.488  0.2547 -0.0735 -0.5512
13196SOL    HW143086   3.500  10.264   7.509  0.4487  0.5260  0.5011
13196SOL    HW243087   3.469  10.406   7.467 -0.0293 -0.2526 -1.8997
13197SOL     OW43088   6.954   7.093   1.223 -0.5345 -0.3033 -0.0497
13197SOL    HW143089   6.910   7.019   1.181 -0.0770 -1.7005  1.7593
13197SOL    HW243090   7.047   7.067   1.226 -0.1296  1.0099 -0.6643
13198SOL     OW43091   1.986  10.268   8.120  0.0101 -0.2871  0.3876
13198SOL    HW143092   2.035  10.187   8.108  0.0129 -0.1981 -0.2564
13198SOL    HW243093   1.934  10.277   8.040 -0.9900 -0.3255  1.0228
13199SOL     OW43094   4.215  10.181   3.479 -0.0580 -0.3534 -0.0456
13199SOL    HW143095   4.278  10.185   3.407 -0.0044  0.0251  0.0208
13199SOL    HW243096   4.267  10.198   3.557  0.2301 -2.5081  0.3098
13200SOL     OW43097   4.075   3.557   2.655 -0.3675  0.5959  0.4517
13200SOL    HW143098   4.116   3.510   2.583  1.0638 -0.7281  2.0338
13200SOL    HW243099   4.145   3.610   2.693 -0.3524 -0.6994  2.4016
13201SOL     OW43100   4.658   6.766   4.440 -0.7197  0.1240 -0.0836
13201SOL    HW143101   4.722   6.754   4.509 -0.7277  0.6026  0.0143
13201SOL    HW243102   4.589   6.819   4.480 -1.9773 -1.7347  0.2967
13202SOL     OW43103   1.333   3.993   9.534  0.5509 -0.0710 -0.0807
13202SOL    HW143104   1.327   4.087   9.551  1.5583  0.3963 -1.9929
13202SOL    HW243105   1.254   3.973   9.484  1.5245  0.3415 -1.8641
13203SOL     OW43106   8.637   0.644   1.630 -0.4899 -0.0593 -0.1611
13203SOL    HW143107   8.548   0.665   1.661 -1.1044 -0.6277 -1.4697
13203SOL    HW243108   8.654   0.556   1.663 -0.3688  0.0885  0.1736
13204SOL     OW43109   2.479   1.134   9.466 -0.1206 -0.7511  0.2898
13204SOL    HW143110   2.461   1.101   9.555 -0.5805 -3.0557 -0.5936
13204SOL    HW243111   2.395   1.126   9.421 -0.4412  2.3420  0.1250
13205SOL     OW43112   4.305   7.423   6.597  0.3285 -0.2452 -0.1150
13205SOL    HW143113   4.373   7.361   6.572  0.5758 -0.7114  1.6229
13205SOL    HW243114   4.343   7.474   6.668 -0.7384  0.2484  0.1250
13206SOL     OW43115  10.678   5.235   9.872 -0.3304 -0.0031 -0.1668
13206SOL    HW143116  10.659   5.241   9.778 -1.6977  3.2491  0.1733
13206SOL    HW243117  10.737   5.309   9.889  1.5748 -1.7115  1.2896
13207SOL     OW43118   3.274  10.104   0.088  0.1449  0.2900 -0.5155
13207SOL    HW143119   3.231  10.083   0.005  1.4517 -1.7310 -0.7376
13207SOL    HW243120   3.364  10.073   0.077  1.3544  3.0941  0.4408
13208SOL     OW43121   0.400   7.485   8.063  0.0379  0.4158 -0.1968
13208SOL    HW143122   0.427   7.437   7.985  1.1838 -1.6699  1.3712
13208SOL    HW243123   0.475   7.540   8.085  0.9017 -1.1193  0.9435
13209SOL     OW43124   9.761   5.454  10.884 -0.5567  0.4167 -0.2062
13209SOL    HW143125   9.739   5.407  10.965 -0.5994  0.8248  0.0194
13209SOL    HW243126   9.848   5.491  10.900  0.0698 -0.6901 -0.8788
13210SOL     OW43127   3.827   8.706   7.132  0.1653 -0.0178 -0.0084
13210SOL    HW143128   3.855   8.621   7.097 -1.3405 -0.2816 -0.6412
13210SOL    HW243129   3.759   8.684   7.195  1.6097  0.5753  1.8567
13211SOL     OW43130  10.515   7.687   3.057  0.2094  0.0826  0.6705
13211SOL    HW143131  10.563   7.639   3.125 -0.2403  0.0952  0.9957
13211SOL    HW243132  10.475   7.761   3.103  0.8593  0.7523  0.1786
13212SOL     OW43133  10.481   6.698   5.434  0.2564  0.0975  0.5010
13212SOL    HW143134  10.570   6.668   5.452  0.0344  0.4591  2.4145
13212SOL    HW243135  10.446   6.634   5.371  1.4436 -0.7512  0.6715
13213SOL     OW43136   7.855   3.763  10.395 -0.1884 -0.0786  0.2654
13213SOL    HW143137   7.932   3.750  10.451 -0.3396  0.5263  0.6131
13213SOL    HW243138   7.889   3.753  10.306  0.2926  0.1909  0.4150
13214SOL     OW43139   9.447  10.865   0.445  0.1671  0.0965 -0.4750
13214SOL    HW143140   9.467  10.777   0.410 -0.7789 -0.1316 -0.4682
13214SOL    HW243141   9.400  10.908   0.374 -0.0739  0.3173 -0.1812
13215SOL     OW43142   3.359   2.467   4.316 -0.6684  0.4934  0.2300
13215SOL    HW143143   3.412   2.543   4.291  0.8518 -0.6141 -0.0440
13215SOL    HW243144   3.320   2.437   4.234 -1.3555  1.0077  0.3541
13216SOL     OW43145   1.614   0.854  10.148  0.2636 -0.5314 -0.4783
13216SOL    HW143146   1.574   0.870  10.063  1.0525 -0.0967 -0.7853
13216SOL    HW243147   1.563   0.782  10.186 -1.3246  0.5480 -0.4711
13217SOL     OW43148   5.609   1.390   9.047 -0.2561 -0.7069 -0.0289
13217SOL    HW143149   5.553   1.365   8.973 -0.7799  0.5527 -0.0868
13217SOL    HW243150   5.674   1.449   9.009 -1.0269  0.6058  0.6326
13218SOL     OW43151   1.758   0.598   4.870  0.1322  0.0855  0.1763
13218SOL    HW143152   1.800   0.672   4.913  0.2397  1.4935 -2.1457
13218SOL    HW243153   1.830   0.539   4.850  0.3559  0.3441  0.2081
13219SOL     OW43154   6.893   2.666   0.712  0.3951 -0.0901 -0.3877
13219SOL    HW143155   6.828   2.597   0.703 -0.5774  0.8261 -0.6209
13219SOL    HW243156   6.920   2.662   0.804 -0.5254 -0.0313 -0.1000
13220SOL     OW43157   7.169   9.103   0.379  0.0627 -0.3496  0.4748
13220SOL    HW143158   7.173   9.015   0.416  1.6212  0.2504  1.8024
13220SOL    HW243159   7.191   9.161   0.451  1.8124  0.9631 -1.0160
13221SOL     OW43160   0.773   3.498   2.894 -0.0894 -0.4225 -0.4100
13221SOL    HW143161   0.780   3.503   2.989 -1.0233 -2.7100 -0.1576
13221SOL    HW243162   0.690   3.542   2.874  1.0212  1.8278 -0.4606
13222SOL     OW43163   0.341   3.612  10.868 -0.5078  0.1976 -0.2514
13222SOL    HW143164   0.340   3.517  10.867  1.2947  0.1531 -0.4395
13222SOL    HW243165   0.274   3.638  10.805 -3.2230 -0.8637  1.9968
13223SOL     OW43166   9.764  10.751   6.263 -0.0760 -0.0585 -0.0799
13223SOL    HW143167   9.712  10.748   6.183 -0.8588 -1.5694  0.4580
13223SOL    HW243168   9.832  10.685   6.251  0.3007  0.2697  0.1857
13224SOL     OW43169   5.787   4.504   2.888  0.2390 -0.0290 -0.0029
13224SOL    HW143170   5.757   4.511   2.798 -0.2803 -0.2459  0.1473
13224SOL    HW243171   5.860   4.566   2.895 -0.6173  1.0328 -0.1927
13225SOL     OW43172   3.918   5.341   1.320  0.1959 -0.5582 -0.1566
13225SOL    HW143173   3.832   5.383   1.317 -0.2939 -1.4289  0.9307
13225SOL    HW243174   3.975   5.408   1.358 -0.4616 -0.6625  1.0665
13226SOL     OW43175   4.654   1.858   1.504 -0.6661 -0.3493 -0.2090
13226SOL    HW143176   4.609   1.827   1.425 -1.6464  1.1274 -0.2949
13226SOL    HW243177   4.587   1.855   1.572 -0.0087 -1.0052  0.4183
13227SOL     OW43178   3.294   7.260   2.342 -0.6356 -0.1266 -0.3441
13227SOL    HW143179   3.298   7.353   2.321 -0.6581  0.2734  1.3101
13227SOL    HW243180   3.201   7.243   2.358 -0.8303 -0.7744 -1.9927
13228SOL     OW43181   1.869   3.220   9.386 -0.1008 -0.1262 -1.0855
13228SOL    HW143182   1.947   3.226   9.332  0.2995 -0.0804 -0.5119
13228SOL    HW243183   1.835   3.132   9.371 -0.3787  0.1174 -1.9245
13229SOL     OW43184   1.168   8.911   4.458  0.7485  0.8980  0.4770
13229SOL    HW143185   1.177   9.003   4.482  0.8173  1.1329 -0.3983
13229SOL    HW243186   1.156   8.913   4.363  1.2857 -0.0322  0.3853
13230SOL     OW43187   2.823   5.034   3.084 -0.4941 -0.2698 -0.1504
13230SOL    HW143188   2.805   5.043   2.991  2.1729  0.6192 -0.6643
13230SOL    HW243189   2.777   5.106   3.126  1.7214  2.0066 -1.3878
13231SOL     OW43190   2.319   3.421   2.625  0.3292  0.3047 -1.1873
13231SOL    HW143191   2.328   3.489   2.691 -2.2003 -2.1855  2.0515
13231SOL    HW243192   2.407   3.386   2.613  1.1235  2.0155 -0.5489
13232SOL     OW43193   1.639   3.187   1.468  0.1335  0.5749 -0.0737
13232SOL    HW143194   1.722   3.181   1.515  0.4826  0.4097 -0.7011
13232SOL    HW243195   1.603   3.272   1.492 -0.7763 -0.3672  2.2505
13233SOL     OW43196   5.216   5.070   3.473  0.0245  0.2339  0.6636
13233SOL    HW143197   5.237   5.004   3.539 -1.5396 -0.1946  0.7584
13233SOL    HW243198   5.122   5.062   3.459 -0.3656  2.8548  1.1233
13234SOL     OW43199   8.332   1.159   7.453 -0.4791 -0.0170  0.1822
13234SOL    HW143200   8.295   1.212   7.523 -1.2705  2.3053 -1.8474
13234SOL    HW243201   8.258   1.113   7.415 -0.4852  0.6682 -0.6652
13235SOL     OW43202   7.295   6.858   1.743 -0.3601 -0.2550  0.3287
13235SOL    HW143203   7.380   6.885   1.777 -0.4024 -0.3031  0.4748
13235SOL    HW243204   7.270   6.783   1.798 -0.0255 -0.8919 -0.3670
13236SOL     OW43205   8.760   5.403   1.878  0.1183 -0.0455  0.5542
13236SOL    HW143206   8.802   5.471   1.826 -0.2023 -0.8541 -0.8359
13236SOL    HW243207   8.667   5.426   1.877 -0.0602 -0.6975 -0.3197
13237SOL     OW43208   4.237   9.939   0.912 -0.0058 -0.2212 -0.1839
13237SOL    HW143209   4.188   9.868   0.869 -2.4772  0.7125  0.8911
13237SOL    HW243210   4.315   9.896   0.947 -1.9672 -2.7946  1.4766
13238SOL     OW43211  10.269   1.367   1.705  0.6249 -0.2635 -0.1563
13238SOL    HW143212  10.299   1.322   1.626 -2.4689 -0.0330 -1.6126
13238SOL    HW243213  10.350   1.397   1.747  2.4528 -0.9665 -2.8560
13239SOL     OW43214   8.202   6.685  10.896 -0.1262 -0.1472  0.4593
13239SOL    HW143215   8.232   6.776  10.905  0.3561 -0.3912  1.4426
13239SOL    HW243216   8.230   6.660  10.808  0.8616  0.2621  0.6336
13240SOL     OW43217   2.605   5.224   4.455  0.2739 -0.5363 -0.6277
13240SOL    HW143218   2.663   5.201   4.382 -0.5433 -0.0704 -1.4512
13240SOL    HW243219   2.519   5.193   4.426 -0.2786  0.7533 -0.3985
13241SOL     OW43220   6.764   7.786  10.812 -0.8542  0.0690 -0.0249
13241SOL    HW143221   6.828   7.821  10.750  0.5332 -1.1366  0.6742
13241SOL    HW243222   6.715   7.863  10.841 -0.7927  0.8004 -1.7460
13242SOL     OW43223   7.929   9.586   9.830  0.4972 -0.3788 -0.8003
13242SOL    HW143224   7.927   9.516   9.896 -2.8113  0.3161  0.0363
13242SOL    HW243225   7.901   9.543   9.750 -0.3665 -0.2851 -0.5601
13243SOL     OW43226   1.709   7.150   8.672 -0.3173 -0.0802  0.0593
13243SOL    HW143227   1.797   7.124   8.645 -0.8665 -1.5448 -0.4169
13243SOL    HW243228   1.708   7.133   8.767 -0.8077 -2.4433 -0.2990
13244SOL     OW43229   8.894  10.431   9.551 -0.2005 -0.2754 -0.5206
13244SOL    HW143230   8.853  10.512   9.523 -1.3393 -1.2878 -1.9595
13244SOL    HW243231   8.982  10.456   9.579 -0.8155  1.5456 -0.1292
13245SOL     OW43232   5.105   8.869   6.372 -0.1105 -0.4916  0.6278
13245SOL    HW143233   5.105   8.924   6.450  3.8875  2.1452 -0.8905
13245SOL    HW243234   5.076   8.927   6.302  0.7862 -1.3595 -0.5016
13246SOL     OW43235   4.935   5.127   9.775  0.1392 -0.6194 -0.7191
13246SOL    HW143236   4.973   5.214   9.769  0.4294 -0.5339  1.4704
13246SOL    HW243237   5.009   5.067   9.769  0.3998 -0.5423  1.1327
13247SOL     OW43238   0.395   4.150   2.381  0.0055  0.4893 -0.0620
13247SOL    HW143239   0.480   4.108   2.376  0.8395  2.1857 -1.0359
13247SOL    HW243240   0.404   4.216   2.449 -0.6363  0.4746  0.0458
13248SOL     OW43241   3.156   5.033   2.456 -0.2200  0.8530  0.5848
13248SOL    HW143242   3.151   5.128   2.455 -0.6738  0.8351 -0.7824
13248SOL    HW243243   3.228   5.011   2.397 -1.7683  0.3172 -1.2020
13249SOL     OW43244   8.451   0.930   3.600  0.0588 -0.3302 -0.1488
13249SOL    HW143245   8.407   0.871   3.661 -0.1388  1.2740  1.3692
13249SOL    HW243246   8.381   0.967   3.547 -0.0463 -0.1754  0.0939
13250SOL     OW43247   2.586   3.734   8.468  0.0778  0.6206  0.0500
13250SOL    HW143248   2.645   3.675   8.421 -0.3497 -0.2066  0.5284
13250SOL    HW243249   2.605   3.718   8.560 -1.9913 -0.8644  0.2870
13251SOL     OW43250  10.331   2.130   3.752 -0.0991 -0.2369 -0.1038
13251SOL    HW143251  10.300   2.221   3.748 -1.9477 -0.8111  0.1912
13251SOL    HW243252  10.374   2.123   3.837  1.4317  0.7343 -0.7545
13252SOL     OW43253   5.841  10.677   9.155 -0.2631  0.0435 -0.4890
13252SOL    HW143254   5.892  10.701   9.232 -0.9643  0.7209 -0.2192
13252SOL    HW243255   5.822  10.584   9.166 -2.9092  0.6966  1.7481
13253SOL     OW43256   1.692   0.019   2.929  0.1025 -0.0495 -0.7451
13253SOL    HW143257   1.634  -0.055   2.911 -1.1506  0.7805 -0.2217
13253SOL    HW243258   1.696   0.067   2.846 -0.9736  0.5641 -0.4582
13254SOL     OW43259   1.943  10.512   6.495 -0.2160 -0.1996  0.9860
13254SOL    HW143260   1.963  10.559   6.576  0.7459  0.0684  0.6101
13254SOL    HW243261   2.016  10.534   6.436  0.4073 -2.3536  0.8849
13255SOL     OW43262   9.281   7.215   7.536  0.4080 -0.2657  0.6796
13255SOL    HW143263   9.266   7.126   7.506 -0.0010  0.0070  0.0621
13255SOL    HW243264   9.372   7.215   7.565  1.2193 -0.2584 -1.6634
13256SOL     OW43265  10.555   8.817   4.680 -0.4128  0.2670  0.0817
13256SOL    HW143266  10.501   8.786   4.607 -1.7622 -2.6717  2.1131
13256SOL    HW243267  10.496   8.873   4.731  0.1407  1.2792 -0.3507
13257SOL     OW43268   7.910   6.856   6.893  0.2302 -0.3135  0.2706
13257SOL    HW143269   7.876   6.827   6.808 -0.1523  0.5503  0.1167
13257SOL    HW243270   7.924   6.950   6.882 -0.3216 -0.0967  1.3327
13258SOL     OW43271  10.957   2.707   3.580  0.3091  0.2887 -0.0951
13258SOL    HW143272  10.976   2.799   3.567 -1.2469  0.3843 -2.1900
13258SOL    HW243273  10.906   2.704   3.661  1.7154  1.0380  0.8472
13259SOL     OW43274   6.449   0.646   3.766  0.8316 -0.6219  0.6054
13259SOL    HW143275   6.434   0.565   3.815 -2.7668 -1.1555 -1.0746
13259SOL    HW243276   6.453   0.619   3.675 -2.0923  1.0523 -0.1690
13260SOL     OW43277  10.030   5.872   1.996  0.0546  0.2246 -0.0290
13260SOL    HW143278  10.057   5.802   1.936  2.1575  1.4361 -0.5819
13260SOL    HW243279   9.938   5.852   2.015  0.1729 -1.8783 -1.2689
13261SOL     OW43280   7.806   1.834  10.387 -0.0048 -0.0403 -0.0755
13261SOL    HW143281   7.880   1.784  10.420  0.1282 -0.7164 -1.3425
13261SOL    HW243282   7.731   1.802  10.437  0.4019 -0.0173  0.5599
13262SOL     OW43283  10.143   6.615   2.303  0.1523  0.4401  0.4355
13262SOL    HW143284  10.224   6.603   2.353 -0.8088 -0.4276  1.8541
13262SOL    HW243285  10.109   6.527   2.289  0.8710  0.5472 -2.7219
13263SOL     OW43286   0.640   2.732   5.153 -0.0981  0.3807  0.3807
13263SOL    HW143287   0.668   2.781   5.076  0.9299  1.5481  1.4627
13263SOL    HW243288   0.698   2.656   5.156 -0.8628 -0.2583 -0.5932
13264SOL     OW43289   3.559   9.246   9.804  0.2037 -0.0893  0.8479
13264SOL    HW143290   3.615   9.253   9.726 -0.9459  0.2789  0.0325
13264SOL    HW243291   3.613   9.281   9.875  0.8361  0.7302 -0.0066
13265SOL     OW43292   7.956   8.780  10.841 -0.4685  0.5808  0.1618
13265SOL    HW143293   7.902   8.811  10.768 -1.8978 -0.5520  0.6880
13265SOL    HW243294   7.980   8.860  10.889 -1.3253  1.1473 -0.3298
13266SOL     OW43295   4.107   5.572   9.714 -0.6236  0.8040 -0.2289
13266SOL    HW143296   4.175   5.511   9.686 -0.0979  1.5761 -0.6646
13266SOL    HW243297   4.027   5.520   9.712 -0.2188  0.1818 -0.8082
13267SOL     OW43298   4.376   2.489   4.104 -0.7831  0.2451  0.0417
13267SOL    HW143299   4.436   2.476   4.177  0.3328 -0.6588 -0.9779
13267SOL    HW243300   4.302   2.432   4.122 -0.4816 -0.0260  0.4309
13268SOL     OW43301   3.343   7.505   0.461  0.2151  0.0032  0.0813
13268SOL    HW143302   3.381   7.456   0.533  1.4091  1.2225  0.3205
13268SOL    HW243303   3.403   7.579   0.448 -0.5653  0.4107 -1.4292
13269SOL     OW43304   7.706   2.891   3.749 -0.3288 -0.7510 -0.1009
13269SOL    HW143305   7.710   2.974   3.797 -0.5360 -0.1934 -1.0390
13269SOL    HW243306   7.676   2.827   3.814 -1.7420  0.2112  0.2377
13270SOL     OW43307   6.321   2.613   3.597 -0.0377  0.2442  0.0820
13270SOL    HW143308   6.264   2.637   3.670  1.7746  2.6240  0.8389
13270SOL    HW243309   6.399   2.667   3.608  1.0833 -0.6275 -2.6371
13271SOL     OW43310   4.895   3.065   5.759 -0.1594 -0.6208 -0.2564
13271SOL    HW143311   4.840   3.080   5.836  1.5185 -2.0106  1.2958
13271SOL    HW243312   4.870   2.978   5.728  1.3128 -1.3869  0.6402
13272SOL     OW43313   5.039   8.665   8.506 -0.1817  0.3700 -1.0175
13272SOL    HW143314   5.124   8.660   8.462  0.4275  0.9840  0.0180
13272SOL    HW243315   5.061   8.693   8.595 -1.3511 -0.9004 -0.3019
13273SOL     OW43316   5.361  10.035   6.612  0.0250  0.8117 -0.1567
13273SOL    HW143317   5.422   9.973   6.571 -0.4042 -0.5169  1.1033
13273SOL    HW243318   5.276   9.991   6.606  0.1275 -0.1461  3.2776
13274SOL     OW43319  10.867   8.601   5.761 -0.0656  1.0350  0.1898
13274SOL    HW143320  10.933   8.550   5.714 -0.0017  0.5091  0.8336
13274SOL    HW243321  10.787   8.591   5.709  0.0141  0.5090  0.1610
13275SOL     OW43322   4.371   4.515   4.327 -0.0203 -0.4678 -0.0306
13275SOL    HW143323   4.348   4.481   4.241  1.2548  1.2155 -1.1015
13275SOL    HW243324   4.342   4.606   4.325  0.3799 -0.2949  1.1887
13276SOL     OW43325   3.840   1.656   9.357 -0.1486 -0.5684 -0.0155
13276SOL    HW143326   3.887   1.585   9.402  0.0745 -2.0054 -2.3208
13276SOL    HW243327   3.844   1.632   9.265 -3.2167  0.6080 -0.5757
13277SOL     OW43328   7.712   2.721   0.196  0.1820  0.2335  0.1892
13277SOL    HW143329   7.699   2.716   0.291 -0.2919  2.2201  0.2724
13277SOL    HW243330   7.691   2.633   0.165  0.8588 -0.6219  1.9643
13278SOL     OW43331   0.288   5.194   6.886  0.0102  0.1927 -0.2695
13278SOL    HW143332   0.334   5.270   6.851 -0.5961  0.5391 -0.3128
13278SOL    HW243333   0.270   5.140   6.809 -0.8843  0.7187 -0.4328
13279SOL     OW43334   3.585   0.538   5.902  0.2125 -0.0992  0.0397
13279SOL    HW143335   3.655   0.547   5.838 -0.4394 -0.9417 -0.8165
13279SOL    HW243336   3.621   0.482   5.971  0.8137  0.5677  0.2801
13280SOL     OW43337  10.704   8.414   2.438  0.2996  0.4243 -0.7875
13280SOL    HW143338  10.657   8.393   2.519  0.2458  0.3502 -0.8376
13280SOL    HW243339  10.794   8.432   2.467  0.0414  1.4592 -0.5834
13281SOL     OW43340   9.604  10.289  10.866  0.8755 -0.1348  0.2681
13281SOL    HW143341   9.592  10.236  10.786  1.6056 -0.4606  0.3709
13281SOL    HW243342   9.545  10.364  10.854  0.2985 -0.6441 -0.1653
13282SOL     OW43343   6.314   8.020   4.832  0.5946 -0.0680 -0.0584
13282SOL    HW143344   6.378   7.995   4.766  1.7184 -2.0182  1.6216
13282SOL    HW243345   6.289   7.937   4.873 -1.6338  0.8523  0.5925
13283SOL     OW43346   5.034   2.388   3.061 -0.5620  0.2386 -0.3065
13283SOL    HW143347   5.014   2.382   2.967 -1.8611  0.8022 -0.0857
13283SOL    HW243348   5.010   2.478   3.085  1.7725  0.7985  0.1451
13284SOL     OW43349  10.793   6.213   8.124 -0.4060 -0.1772 -0.3204
13284SOL    HW143350  10.708   6.189   8.088 -0.7134  2.5584 -1.6662
13284SOL    HW243351  10.780   6.300   8.160  2.0133  0.6759 -1.3139
13285SOL     OW43352   7.999   2.355   1.782  0.3340  0.4473 -0.2876
13285SOL    HW143353   7.978   2.267   1.753  0.0765 -0.2053  1.7083
13285SOL    HW243354   7.935   2.374   1.851  2.1234  1.0171  1.3140
13286SOL     OW43355   3.736  10.602   5.330 -0.5501  0.4359  0.4679
13286SOL    HW143356   3.830  10.590   5.315 -0.6118  0.5784 -0.0571
13286SOL    HW243357   3.727  10.696   5.344 -0.7695  0.5855 -0.6439
13287SOL     OW43358   8.625   3.961   9.816  0.4203  0.0224  0.2138
13287SOL    HW143359   8.660   4.040   9.776  1.4291 -0.6184 -0.2228
13287SOL    HW243360   8.623   3.897   9.744  0.6656 -0.6613  0.7986
13288SOL     OW43361   3.484   6.867   9.928 -0.2222  0.4547  0.5542
13288SOL    HW143362   3.432   6.882  10.007  0.9804  1.1295  1.2536
13288SOL    HW243363   3.495   6.955   9.890 -0.1955  0.2273  0.0346
13289SOL     OW43364   3.871   9.814   1.831  0.5561 -0.0835 -0.0451
13289SOL    HW143365   3.782   9.784   1.848  0.7397 -0.5501  0.1030
13289SOL    HW243366   3.927   9.750   1.875  0.9541  0.4971  0.3174
13290SOL     OW43367   8.689   6.941   4.837  0.0260 -0.2420 -0.0916
13290SOL    HW143368   8.724   6.882   4.769  0.9474  0.4269 -0.2215
13290SOL    HW243369   8.714   6.899   4.919 -1.4810 -1.2859 -0.1258
13291SOL     OW43370   8.257   9.155   5.964 -0.5890 -0.5378 -0.1209
13291SOL    HW143371   8.263   9.241   6.005 -2.6812 -0.2046 -0.4042
13291SOL    HW243372   8.218   9.171   5.878  2.3794 -1.3968 -1.7636
13292SOL     OW43373   5.330   7.133  10.261 -0.3773  0.5149  0.1384
13292SOL    HW143374   5.273   7.203  10.294 -0.7657 -0.3926  1.4854
13292SOL    HW243375   5.401   7.179  10.216  0.3237  1.8809  2.4669
13293SOL     OW43376   5.295   0.644   9.530  0.3560  0.4839  0.6111
13293SOL    HW143377   5.345   0.609   9.456 -0.9259  0.8607 -0.4830
13293SOL    HW243378   5.292   0.572   9.593  0.1835 -0.3971 -0.3626
13294SOL     OW43379   0.391   2.450   0.069  0.7061 -0.2470 -0.3767
13294SOL    HW143380   0.367   2.486  -0.016  1.8968  0.4455 -0.4411
13294SOL    HW243381   0.485   2.466   0.076  0.6929 -0.6361  0.9053
13295SOL     OW43382   7.496   5.963   3.591  0.1146  0.3961 -0.2964
13295SOL    HW143383   7.440   5.958   3.668 -1.7980  1.2518 -1.5395
13295SOL    HW243384   7.545   6.044   3.602  0.4835  0.0921  0.3864
13296SOL     OW43385  10.432   7.101   8.296  0.1387  0.2735 -0.0954
13296SOL    HW143386  10.352   7.071   8.338  0.3208  0.9269  0.7485
13296SOL    HW243387  10.499   7.041   8.328  0.1361  0.2665 -0.1035
13297SOL     OW43388   0.958   2.784   7.725  0.2062 -0.5607 -0.3034
13297SOL    HW143389   0.935   2.857   7.668 -1.6109 -1.9968 -1.5426
13297SOL    HW243390   1.050   2.767   7.707  0.0885  0.0783 -1.5998
13298SOL     OW43391   3.771   5.825   3.195  0.2101 -0.7195  0.7314
13298SOL    HW143392   3.840   5.888   3.175 -1.1246  0.8662  0.8970
13298SOL    HW243393   3.803   5.777   3.271  0.6664  0.7704  1.5186
13299SOL     OW43394   8.042   2.527   0.984 -0.3819  0.4279 -0.4232
13299SOL    HW143395   8.050   2.572   0.899  0.6491  1.0228 -0.0317
13299SOL    HW243396   8.052   2.597   1.049 -1.0663 -0.0391  0.2010
13300SOL     OW43397   4.510   9.571   0.729 -0.0467 -0.0520 -0.3600
13300SOL    HW143398   4.448   9.635   0.694  1.7982  1.7544 -0.5510
13300SOL    HW243399   4.563   9.622   0.791  1.6513 -1.3562 -0.6850
13301SOL     OW43400   8.770   2.749   6.784  0.5804 -0.1473 -0.1276
13301SOL    HW143401   8.714   2.823   6.807  0.4480 -0.5955  1.0738
13301SOL    HW243402   8.741   2.678   6.842  1.7640 -0.6623 -0.1449
13302SOL     OW43403   1.216   6.200   4.725 -0.3960 -0.1248 -0.5693
13302SOL    HW143404   1.262   6.137   4.670 -3.4231 -3.3127  0.1336
13302SOL    HW243405   1.231   6.169   4.815 -1.7850  0.2643 -0.1768
13303SOL     OW43406   2.718   7.408   5.070 -0.2850  0.5814  0.0684
13303SOL    HW143407   2.787   7.448   5.123 -0.4926  0.8863  0.1120
13303SOL    HW243408   2.739   7.315   5.069 -0.5195  0.5028  1.0523
13304SOL     OW43409   2.124   9.590   4.157  0.0332  0.5272  0.3501
13304SOL    HW143410   2.108   9.502   4.192 -1.0487  1.0584  1.2603
13304SOL    HW243411   2.185   9.629   4.219 -0.8433  1.0080  0.9258
13305SOL     OW43412   6.770   5.385   3.287  0.4185 -0.0064  0.7987
13305SOL    HW143413   6.707   5.321   3.252 -0.0877  0.2602  1.2003
13305SOL    HW243414   6.779   5.360   3.379  0.3038  0.4286  0.9295
13306SOL     OW43415   3.463   3.047   4.582 -0.0369  0.1582 -0.2663
13306SOL    HW143416   3.524   3.105   4.629  0.6973 -1.0617  0.3470
13306SOL    HW243417   3.377   3.074   4.613  0.1143  2.1920 -1.4560
13307SOL     OW43418   6.215   7.685   8.776  0.1678 -0.4956  0.2519
13307SOL    HW143419   6.142   7.646   8.825  1.5615 -1.1149  1.9062
13307SOL    HW243420   6.182   7.692   8.686 -1.4153 -2.0899  0.6566
13308SOL     OW43421  10.885   7.599   0.244 -0.1975  0.0438  0.6766
13308SOL    HW143422  10.793   7.570   0.246 -0.9024  2.1383  1.5030
13308SOL    HW243423  10.913   7.594   0.335 -0.4295  2.0342  0.9023
13309SOL     OW43424   4.677   3.004   7.952 -0.0085 -0.0154 -0.6426
13309SOL    HW143425   4.754   3.061   7.944  0.2177 -0.2168 -0.0023
13309SOL    HW243426   4.621   3.029   7.879  0.3293  0.6575 -0.6829
13310SOL     OW43427   6.565   4.964   9.106  0.7753  0.2352 -0.3016
13310SOL    HW143428   6.621   4.980   9.182  1.2457  0.6885 -0.7451
13310SOL    HW243429   6.557   5.049   9.063  0.5835 -0.0402 -0.8159
13311SOL     OW43430   3.527   4.067   7.530 -0.1461  0.3523  0.0182
13311SOL    HW143431   3.478   4.001   7.481  0.0596  0.9954 -1.0831
13311SOL    HW243432   3.474   4.081   7.609  0.2187 -1.6969  0.7003
13312SOL     OW43433   1.660   2.587   2.236  0.4786  0.4908  0.0524
13312SOL    HW143434   1.653   2.668   2.286 -0.5572  1.3489 -1.3978
13312SOL    HW243435   1.570   2.566   2.211  0.7578 -0.9964  0.2166
13313SOL     OW43436   7.035   5.834  10.641  0.4116 -0.1136  0.1047
13313SOL    HW143437   7.051   5.874  10.726 -0.3764 -1.9278  1.1790
13313SOL    HW243438   7.014   5.907  10.583 -1.5134  1.0141  2.0678
13314SOL     OW43439   2.633   7.428   0.186  0.1925  0.2413  0.8763
13314SOL    HW143440   2.607   7.356   0.244  1.1240  0.7650  1.9830
13314SOL    HW243441   2.725   7.411   0.167  0.1264  0.5574  0.2365
13315SOL     OW43442   4.404   6.576   7.081 -0.0853  0.2013 -0.1254
13315SOL    HW143443   4.350   6.514   7.032 -0.4001 -1.0129  1.6577
13315SOL    HW243444   4.346   6.610   7.149  1.0091 -0.1936  1.0575
13316SOL     OW43445   2.465   2.212   1.822  0.1420  0.2462  0.1139
13316SOL    HW143446   2.425   2.126   1.827  1.0582 -0.3217 -1.6101
13316SOL    HW243447   2.441   2.255   1.905  0.0576 -1.7975  1.1968
13317SOL     OW43448   4.948   4.994   3.576 -0.2790  0.3253  0.0918
13317SOL    HW143449   4.955   4.900   3.558 -2.0689  0.4771 -1.8668
13317SOL    HW243450   4.854   5.009   3.584 -0.0604  2.0494 -0.2209
13318SOL     OW43451   8.518  10.017   2.695  0.2602  0.9504 -0.0046
13318SOL    HW143452   8.425  10.002   2.711 -0.1021  1.4389 -1.4658
13318SOL    HW243453   8.563   9.953   2.750 -0.9735 -0.0501 -0.1217
13319SOL     OW43454   1.087   7.408   0.369  0.5131  0.6306 -0.1179
13319SOL    HW143455   1.011   7.431   0.314  1.2533  0.7834 -1.1187
13319SOL    HW243456   1.050   7.359   0.442 -0.3464 -1.2929 -1.7368
13320SOL     OW43457   1.106   3.534   3.044 -0.2118  0.4012 -0.5796
13320SOL    HW143458   1.111   3.459   2.985 -1.7631 -0.1316 -0.0830
13320SOL    HW243459   1.021   3.524   3.088  0.3340  1.4841  0.7821
13321SOL     OW43460   9.294   3.957   0.440 -0.3391  0.0261 -0.3612
13321SOL    HW143461   9.339   4.041   0.426 -0.2959  0.1559  0.5288
13321SOL    HW243462   9.201   3.978   0.437 -0.3298  0.2677  0.7432
13322SOL     OW43463   6.553   3.629  10.547 -0.6347 -0.0638  0.1668
13322SOL    HW143464   6.530   3.564  10.481  1.2904  0.2737 -0.9097
13322SOL    HW243465   6.512   3.710  10.516 -0.2614 -0.0436 -0.2749
13323SOL     OW43466   9.810   6.175   6.267 -0.0805  0.0481  0.0128
13323SOL    HW143467   9.721   6.174   6.234 -0.2908  2.2277  0.3952
13323SOL    HW243468   9.861   6.127   6.201 -1.2394  0.2453 -1.0542
13324SOL     OW43469   4.369  10.630   5.147  0.6994  0.0431 -0.3193
13324SOL    HW143470   4.296  10.692   5.134  0.9138  1.2195  3.0029
13324SOL    HW243471   4.340  10.574   5.219  1.9994 -1.3829 -0.8511
13325SOL     OW43472   6.820   3.606   0.519  0.1528  0.0903 -0.3863
13325SOL    HW143473   6.874   3.618   0.441  1.7913  0.6786  0.7447
13325SOL    HW243474   6.771   3.688   0.527  2.2466  1.3441  0.7510
13326SOL     OW43475   9.966   4.063   7.111  0.1901  0.1196 -0.3703
13326SOL    HW143476   9.882   4.074   7.067  0.9339  2.0275 -1.4453
13326SOL    HW243477  10.018   4.010   7.049  0.0792 -0.3155 -0.0989
13327SOL     OW43478   7.501   2.062   2.239  0.8551  0.3515  0.4421
13327SOL    HW143479   7.482   2.086   2.329  1.3070  3.4933 -0.1886
13327SOL    HW243480   7.573   1.999   2.246 -0.4870 -1.0706  2.2907
13328SOL     OW43481   6.959   8.103   4.724  0.0929 -0.2295 -0.3981
13328SOL    HW143482   6.864   8.108   4.712  0.1210 -0.5513 -0.7532
13328SOL    HW243483   6.974   8.139   4.812 -0.2335  0.9613 -0.8160
13329SOL     OW43484   2.862  10.812   1.280  0.8885  0.1967  0.3491
13329SOL    HW143485   2.823  10.730   1.312  0.0455  0.6612  0.5450
13329SOL    HW243486   2.942  10.785   1.235  1.1243 -0.6457  1.2504
13330SOL     OW43487   9.221   4.184   5.628 -0.0085 -0.4182  0.5056
13330SOL    HW143488   9.166   4.167   5.552 -1.4644  0.3577  1.3426
13330SOL    HW243489   9.311   4.176   5.595 -0.5340  1.8334 -1.7663
13331SOL     OW43490   3.967   4.966   3.741 -0.1483  0.1480 -0.1770
13331SOL    HW143491   4.037   4.913   3.780 -1.3994 -2.2738 -1.0162
13331SOL    HW243492   3.898   4.966   3.807 -0.0983  0.9139 -0.1192
13332SOL     OW43493   3.532   0.729   3.477 -0.0467 -0.7047 -0.4496
13332SOL    HW143494   3.576   0.813   3.482  0.3258 -0.9461  0.8737
13332SOL    HW243495   3.602   0.664   3.489 -0.6846 -1.0937  1.6636
13333SOL     OW43496   9.735   2.774   4.013 -0.8216  0.3127  0.3304
13333SOL    HW143497   9.666   2.778   4.079 -0.2708  1.1944  0.8810
13333SOL    HW243498   9.727   2.687   3.975 -0.6077 -0.5839  2.1885
13334SOL     OW43499   4.084   8.814   6.777  0.3680  0.3642 -0.3165
13334SOL    HW143500   4.083   8.749   6.706  0.2004  1.7990 -1.6912
13334SOL    HW243501   3.997   8.853   6.774  0.2879  0.2909  0.8587
13335SOL     OW43502   6.674   2.004   4.019 -0.4212  0.4277 -0.2727
13335SOL    HW143503   6.705   1.991   3.930  0.9960  0.7542  0.1499
13335SOL    HW243504   6.738   2.063   4.059 -0.0205 -1.0748  1.4703
13336SOL     OW43505   3.593   1.942   4.564  0.4592 -0.5019  0.3682
13336SOL    HW143506   3.665   1.999   4.537 -0.6996 -0.0900 -2.2041
13336SOL    HW243507   3.546   1.992   4.630  1.5204 -0.0474  0.8015
13337SOL     OW43508  10.317   5.520   3.969 -0.2978  0.0702  0.0920
13337SOL    HW143509  10.398   5.469   3.965  1.5321  2.8275 -0.7367
13337SOL    HW243510  10.313   5.552   4.059 -0.9997 -0.8147  0.3863
13338SOL     OW43511  10.837   2.576   2.202 -0.1694  0.2020 -0.2899
13338SOL    HW143512  10.828   2.481   2.191  1.0033  0.2003 -1.4117
13338SOL    HW243513  10.885   2.585   2.285  0.9006 -0.2537 -0.8407
13339SOL     OW43514   4.414   9.228  10.817 -0.7838 -0.2786 -0.2826
13339SOL    HW143515   4.466   9.149  10.830 -0.1800  0.1947  0.2718
13339SOL    HW243516   4.365   9.239  10.898  2.6134  2.4088  1.6688
13340SOL     OW43517   7.096   3.305  10.468 -0.8111  0.7192  0.0977
13340SOL    HW143518   7.069   3.255  10.391  1.6481  0.9687 -1.0214
13340SOL    HW243519   7.102   3.240  10.538  0.9826 -0.3854 -0.9927
13341SOL     OW43520  10.228  10.546   2.856 -0.3183 -0.5061  0.1303
13341SOL    HW143521  10.178  10.465   2.844  0.0644 -0.7201 -0.0361
13341SOL    HW243522  10.231  10.585   2.768  0.4632 -0.8818 -0.0105
13342SOL     OW43523   3.129   1.552   7.642  0.0576  0.2051 -0.6883
13342SOL    HW143524   3.044   1.509   7.632  0.6177 -0.8134 -1.1669
13342SOL    HW243525   3.169   1.549   7.555 -0.0014  2.0005 -0.8262
13343SOL     OW43526  10.724   1.749  10.377  0.2874 -0.4529  0.4983
13343SOL    HW143527  10.691   1.780  10.461  0.4489 -1.6714  1.0321
13343SOL    HW243528  10.741   1.656  10.391  0.7626 -0.5694 -0.7501
13344SOL     OW43529   8.535   4.882   0.928 -0.2492  0.0460 -0.5328
13344SOL    HW143530   8.536   4.787   0.932  0.1160  0.0073 -1.4483
13344SOL    HW243531   8.620   4.909   0.961  0.0466  0.0079 -1.2519
13345SOL     OW43532   5.860   9.044   7.885 -0.5596  0.2585  0.2638
13345SOL    HW143533   5.765   9.042   7.875 -0.5872  3.0237 -0.8880
13345SOL    HW243534   5.876   9.110   7.954  0.5277  0.2419  0.0518
13346SOL     OW43535   5.871   4.261   2.913 -0.3971  0.0620 -0.2118
13346SOL    HW143536   5.852   4.354   2.905  1.4867  0.5758  0.6903
13346SOL    HW243537   5.945   4.246   2.854 -0.2104 -0.7027  0.1997
13347SOL     OW43538   3.406   8.912   6.485  0.6685  0.1401 -0.1842
13347SOL    HW143539   3.402   8.925   6.391  3.0884 -0.9135 -0.4988
13347SOL    HW243540   3.403   9.000   6.522 -1.1882  0.5310 -1.1311
13348SOL     OW43541   3.945   0.480   0.387 -0.3605  0.1581 -0.4997
13348SOL    HW143542   3.867   0.491   0.441 -0.4183  3.1402 -0.9925
13348SOL    HW243543   3.934   0.544   0.316  1.9769 -0.1606 -1.2419
13349SOL     OW43544   2.261   8.820   2.110  0.1305  0.3651  0.0476
13349SOL    HW143545   2.281   8.840   2.019 -0.3643  1.5814  0.1955
13349SOL    HW243546   2.199   8.747   2.105 -4.7610  4.0728 -0.9665
13350SOL     OW43547   8.706  10.541   7.709  0.1578  0.4409 -0.9608
13350SOL    HW143548   8.742  10.623   7.674 -2.5649  1.1096 -2.4708
13350SOL    HW243549   8.684  10.490   7.632 -0.4800 -0.6759 -0.0602
13351SOL     OW43550  10.496   3.730   1.490  0.4128 -0.7351  0.0430
13351SOL    HW143551  10.420   3.711   1.435  0.6846 -1.2065 -0.1809
13351SOL    HW243552  10.493   3.825   1.504 -1.9035 -1.0524  2.5082
13352SOL     OW43553   5.492   5.168   2.668 -0.1279 -0.0689  0.6027
13352SOL    HW143554   5.432   5.226   2.621  1.1145  1.4731  0.8048
13352SOL    HW243555   5.557   5.228   2.707  1.7085 -1.6637  0.1485
13353SOL     OW43556   2.692   9.228   0.508  0.0180 -0.5425  0.5326
13353SOL    HW143557   2.733   9.313   0.517 -0.8933  0.0146 -0.3319
13353SOL    HW243558   2.599   9.247   0.495 -0.0328 -1.5717 -0.9552
13354SOL     OW43559   8.996   3.646   8.347  0.1158 -0.3946 -0.1343
13354SOL    HW143560   8.983   3.701   8.270 -0.6989 -1.0185 -0.4518
13354SOL    HW243561   9.051   3.699   8.405  0.3747  0.2521 -0.9528
13355SOL     OW43562   2.092   1.686   1.636 -0.1276 -0.1774  0.2109
13355SOL    HW143563   2.005   1.724   1.649 -0.0693 -0.3031  1.0139
13355SOL    HW243564   2.147   1.729   1.702  0.3828 -0.2148 -0.1852
13356SOL     OW43565   3.829   2.794   2.130 -0.0953 -0.2098  0.6620
13356SOL    HW143566   3.874   2.710   2.136 -1.7006 -1.1719 -0.2953
13356SOL    HW243567   3.775   2.799   2.208 -0.8728 -0.6070  0.1574
13357SOL     OW43568   9.448   4.093   9.420  0.2822  0.7017 -0.4342
13357SOL    HW143569   9.447   4.120   9.512  0.3341  1.6694 -0.7065
13357SOL    HW243570   9.452   3.998   9.423  3.7251  0.7356  0.5955
13358SOL     OW43571  10.357   5.874   7.736  0.1361  0.4266 -0.1960
13358SOL    HW143572  10.388   5.785   7.752  0.0544  0.5124  0.5080
13358SOL    HW243573  10.278   5.882   7.790 -0.5095  0.5602 -1.1323
13359SOL     OW43574   5.585  10.943  10.371 -0.3758  0.0104 -0.0038
13359SOL    HW143575   5.556  10.858  10.404  0.0108  0.1222  0.6453
13359SOL    HW243576   5.516  11.004  10.399  0.4757  0.2917  1.6181
13360SOL     OW43577   1.536  10.819   4.033 -0.2022 -0.5806  0.0765
13360SOL    HW143578   1.552  10.725   4.040  0.6346 -0.4543  0.0180
13360SOL    HW243579   1.531  10.849   4.124  1.3553 -0.4060  0.1266
13361SOL     OW43580   5.934   5.769   4.871 -0.2033 -0.2953 -0.8428
13361SOL    HW143581   5.903   5.855   4.844  1.8377  0.3389 -1.3767
13361SOL    HW243582   5.998   5.745   4.804 -2.0641 -3.1362 -1.7875
13362SOL     OW43583   7.488   1.779   7.011 -0.5790 -0.1271  0.4019
13362SOL    HW143584   7.576   1.772   6.975 -1.2335 -2.0783 -0.9562
13362SOL    HW243585   7.438   1.822   6.941 -1.2877 -1.5605  0.0029
13363SOL     OW43586   6.371   6.513   2.792 -0.5333  0.6338  0.0644
13363SOL    HW143587   6.436   6.581   2.814  1.1843 -0.0336 -2.4310
13363SOL    HW243588   6.377   6.450   2.863  1.4784  0.7127  0.0340
13364SOL     OW43589   9.043   5.121   5.366  0.3331 -0.1735 -0.6754
13364SOL    HW143590   8.995   5.130   5.449  2.8314  1.1008  0.7660
13364SOL    HW243591   9.041   5.209   5.328  0.2760 -0.4571 -1.3371
13365SOL     OW43592   6.037   5.814   4.029 -0.7807 -0.3526 -0.3853
13365SOL    HW143593   6.018   5.851   3.943  0.7262 -1.2226 -1.1341
13365SOL    HW243594   6.123   5.848   4.051 -0.7280 -0.9269  0.3197
13366SOL     OW43595   0.403  10.257   2.281 -0.0690 -0.3982  0.1617
13366SOL    HW143596   0.334  10.317   2.250 -0.8308 -1.4896 -0.2990
13366SOL    HW243597   0.361  10.171   2.283  0.8877 -0.8619  1.2284
13367SOL     OW43598   7.750   1.418  10.687  0.0511  0.0703  0.3355
13367SOL    HW143599   7.817   1.391  10.749 -0.7091 -1.7540  0.4250
13367SOL    HW243600   7.761   1.513  10.679  1.1458  0.1279  2.0722
13368SOL     OW43601   8.456   6.322   3.526  0.5877 -0.5803 -0.0901
13368SOL    HW143602   8.435   6.362   3.610 -1.1089 -2.1299  0.2821
13368SOL    HW243603   8.481   6.395   3.469 -1.8547  0.9659  0.6890
13369SOL     OW43604   9.660   5.371   3.792 -0.3860 -0.5443 -0.5171
13369SOL    HW143605   9.728   5.401   3.732 -1.9742  0.0786 -2.1211
13369SOL    HW243606   9.657   5.438   3.860 -0.1737  0.0584 -1.0810
13370SOL     OW43607  10.908   6.455   2.782 -0.5443  0.1225 -0.1366
13370SOL    HW143608  10.894   6.432   2.691  0.3864 -0.8805 -0.0431
13370SOL    HW243609  10.923   6.550   2.781 -2.6574  0.4980 -0.7392
13371SOL     OW43610   6.130   2.172   6.378 -0.5049  0.1049  0.6725
13371SOL    HW143611   6.105   2.085   6.408 -0.1241  0.3223  1.7002
13371SOL    HW243612   6.221   2.163   6.351 -0.2666  0.2942  1.3675
13372SOL     OW43613   0.386   6.351   7.252  0.3755  0.6664 -0.4124
13372SOL    HW143614   0.362   6.358   7.344  0.3262 -3.7928  0.1333
13372SOL    HW243615   0.326   6.286   7.216  1.7270  0.7517 -3.0945
13373SOL     OW43616   4.709   6.537   7.238 -0.3917 -0.0709 -0.0439
13373SOL    HW143617   4.690   6.466   7.176 -0.1405  0.5440 -0.8390
13373SOL    HW243618   4.647   6.523   7.310 -0.3729 -1.0673 -0.2087
13374SOL     OW43619   9.626   0.722   1.344  0.1571  0.4097  0.5374
13374SOL    HW143620   9.533   0.721   1.322  0.3109 -0.2461 -0.1072
13374SOL    HW243621   9.631   0.776   1.424 -0.7312  0.6821  0.4215
13375SOL     OW43622   4.598   0.208   2.231 -0.2951 -0.0878  0.2773
13375SOL    HW143623   4.637   0.292   2.207  0.3916 -0.9828 -2.0456
13375SOL    HW243624   4.515   0.206   2.184  0.1974 -1.1195 -0.5979
13376SOL     OW43625   3.800   5.594   3.760  0.1135 -0.5472 -0.0265
13376SOL    HW143626   3.711   5.628   3.752  0.5318  0.2057 -2.1993
13376SOL    HW243627   3.856   5.667   3.735  1.3061 -1.2790  0.4128
13377SOL     OW43628   2.108   1.757   1.079 -0.9483 -0.4208  0.1799
13377SOL    HW143629   2.020   1.796   1.072 -1.5585 -0.6889  4.2584
13377SOL    HW243630   2.096   1.680   1.133  1.7381 -0.8716  0.2661
13378SOL     OW43631   8.834   3.262   0.438 -0.4490  0.4194  0.3694
13378SOL    HW143632   8.811   3.350   0.407  0.0479 -0.1291 -1.7591
13378SOL    HW243633   8.911   3.276   0.493  1.2874  1.1484 -2.0606
13379SOL     OW43634  10.935   2.752   9.038  0.2039  0.4831 -0.3976
13379SOL    HW143635  10.932   2.772   8.944 -1.2636  0.8596 -0.2954
13379SOL    HW243636  10.998   2.814   9.073  1.3536 -0.1649 -1.2257
13380SOL     OW43637   2.723  10.884   6.915  0.4610 -0.1282 -0.9014
13380SOL    HW143638   2.761  10.801   6.886 -0.4855 -0.4218 -1.3332
13380SOL    HW243639   2.788  10.950   6.889  1.2533 -0.7323 -0.4812
13381SOL     OW43640   6.018   1.553   7.889 -0.3292  1.3504 -0.3317
13381SOL    HW143641   5.975   1.486   7.941 -0.8084  1.0949 -1.0341
13381SOL    HW243642   6.074   1.504   7.829 -0.5860  1.5754 -0.7604
13382SOL     OW43643   9.498   5.599   2.649 -0.1557  0.0045 -0.3760
13382SOL    HW143644   9.530   5.509   2.649  0.7474  0.3102 -1.2808
13382SOL    HW243645   9.528   5.636   2.732 -1.9921 -0.9899  0.8098
13383SOL     OW43646   0.196   4.218   2.210  0.5339  0.0051  0.3230
13383SOL    HW143647   0.254   4.209   2.286  0.0948  0.4691  0.7217
13383SOL    HW243648   0.181   4.312   2.203  0.9817  0.0186 -0.6595
13384SOL     OW43649   6.039  10.387   6.373 -0.3175 -0.1256  0.0706
13384SOL    HW143650   5.958  10.338   6.361 -0.3707  0.0449 -0.3117
13384SOL    HW243651   6.075  10.357   6.456 -0.1058 -1.1549 -0.3815
13385SOL     OW43652  10.776   6.664   5.492 -0.1256 -0.1025  0.5777
13385SOL    HW143653  10.796   6.757   5.481  1.8907 -0.3820  1.4761
13385SOL    HW243654  10.762   6.653   5.586 -0.4038 -0.6968  0.4748
13386SOL     OW43655   1.512  10.110   0.758  0.2410  0.5070 -0.1125
13386SOL    HW143656   1.583  10.106   0.821 -0.3240  1.9790  0.6680
13386SOL    HW243657   1.442  10.058   0.798  0.4920 -0.0525 -0.3855
13387SOL     OW43658   8.066   5.703   6.214 -0.0029  0.0698  0.4176
13387SOL    HW143659   8.086   5.611   6.198 -2.0392 -0.3266 -0.1629
13387SOL    HW243660   8.055   5.708   6.309  1.1893 -0.0243  0.5728
13388SOL     OW43661   1.443   6.125   3.152  0.3061  0.4062 -0.1739
13388SOL    HW143662   1.510   6.075   3.105 -1.2194  0.0110 -2.0416
13388SOL    HW243663   1.389   6.059   3.194  0.3244  0.6637  0.2619
13389SOL     OW43664   0.398  10.059   9.762  0.0653 -0.6586 -0.2375
13389SOL    HW143665   0.405  10.010   9.844 -0.3043 -1.1170 -0.4725
13389SOL    HW243666   0.486  10.093   9.746 -0.2983  1.3595  1.5135
13390SOL     OW43667  10.981   2.086  10.027  0.0017  0.1678  0.0324
13390SOL    HW143668  10.954   2.168   9.985 -0.3296  0.1498  0.2060
13390SOL    HW243669  10.914   2.070  10.093 -0.6714 -0.9554 -0.9098
13391SOL     OW43670   1.490   7.505   8.344 -0.1884 -0.3650 -0.4332
13391SOL    HW143671   1.459   7.595   8.350 -0.1298 -0.3322 -0.6318
13391SOL    HW243672   1.554   7.498   8.415 -0.4893 -0.3709 -0.1617
13392SOL     OW43673   0.915   5.286  10.532 -0.7509 -0.6683 -0.3183
13392SOL    HW143674   0.963   5.203  10.536  0.2882 -0.0394  0.5374
13392SOL    HW243675   0.842   5.273  10.594 -0.5575 -0.9180 -0.1381
13393SOL     OW43676   6.234   9.325   4.169  0.0961  0.2245  0.1385
13393SOL    HW143677   6.182   9.245   4.179 -0.1004  0.3640  0.2566
13393SOL    HW243678   6.196   9.369   4.093  1.0369 -0.4169 -0.7164
13394SOL     OW43679  10.182   1.319   1.144 -0.0297  0.0242  0.3078
13394SOL    HW143680  10.105   1.357   1.100 -0.0269 -0.4860 -0.1450
13394SOL    HW243681  10.247   1.310   1.075  0.5139  0.6328  0.7316
13395SOL     OW43682   4.146   3.323   3.743 -0.1648 -0.3603  0.0174
13395SOL    HW143683   4.080   3.391   3.734  0.3765  0.5457  2.2803
13395SOL    HW243684   4.228   3.364   3.714  0.1950  0.0687  1.5529
13396SOL     OW43685   5.298   9.099   4.153  0.7486  0.1199 -0.0464
13396SOL    HW143686   5.226   9.046   4.187  1.2349  0.6806  1.9663
13396SOL    HW243687   5.256   9.170   4.105 -0.0623  0.4373  1.1061
13397SOL     OW43688   5.659   5.653   8.938  0.9615  0.6149 -0.4421
13397SOL    HW143689   5.658   5.676   9.031 -1.7654  1.0167 -0.4620
13397SOL    HW243690   5.719   5.579   8.932  1.7428  1.0188  1.4988
13398SOL     OW43691   9.272   2.597   8.597  0.4001 -0.4602  0.0148
13398SOL    HW143692   9.346   2.605   8.537  1.4580 -1.7106  1.0852
13398SOL    HW243693   9.241   2.686   8.610  1.2556  0.0078 -1.0002
13399SOL     OW43694   1.582   2.081   3.113  1.4367  0.2324  0.0103
13399SOL    HW143695   1.498   2.071   3.067  2.3507  0.2828 -1.7450
13399SOL    HW243696   1.605   1.993   3.141  1.9343 -0.1945 -1.6444
13400SOL     OW43697   7.525   2.274  10.271  0.1170  0.1980 -0.4439
13400SOL    HW143698   7.559   2.347  10.219  2.3222 -0.2644  0.2450
13400SOL    HW243699   7.519   2.202  10.209 -0.0094  0.3932 -0.6613
13401SOL     OW43700   3.604   0.621   5.607  0.5962  0.1336 -0.2286
13401SOL    HW143701   3.537   0.557   5.631 -0.5249  1.3569  0.0198
13401SOL    HW243702   3.669   0.570   5.558 -0.5357 -1.0878 -0.5329
13402SOL     OW43703  10.664   2.216   2.846 -0.6633  0.3935  0.3624
13402SOL    HW143704  10.588   2.267   2.874  0.1427  1.5301  0.5611
13402SOL    HW243705  10.633   2.167   2.769 -2.3323 -1.2575  1.9917
13403SOL     OW43706   8.999  10.487   3.492 -0.5886 -0.3786  0.2004
13403SOL    HW143707   8.961  10.518   3.410  0.2055 -0.6982 -0.3021
13403SOL    HW243708   8.943  10.414   3.518 -1.4446  0.3535  0.4879
13404SOL     OW43709   8.993   1.006   1.834  0.8738 -0.0105  0.3896
13404SOL    HW143710   8.933   1.047   1.897 -0.1763  0.9087 -1.1412
13404SOL    HW243711   9.021   1.078   1.777 -1.0248 -1.2564 -2.3896
13405SOL     OW43712   5.385   5.725   2.812  0.4822  0.2210 -0.1434
13405SOL    HW143713   5.316   5.659   2.811  1.2324 -0.5729 -1.1454
13405SOL    HW243714   5.364   5.781   2.888 -2.3675  1.2393 -1.5518
13406SOL     OW43715   2.493   7.081   2.048  0.1932 -0.1277  0.0240
13406SOL    HW143716   2.463   7.025   1.977 -3.2819  1.1012  0.2938
13406SOL    HW243717   2.584   7.057   2.062 -0.2420 -3.4439 -1.9182
13407SOL     OW43718   4.036   1.750   7.696 -0.0691 -0.3550  0.4670
13407SOL    HW143719   4.118   1.795   7.676 -0.4070  0.6801  1.2905
13407SOL    HW243720   4.024   1.763   7.790 -0.7878 -1.1617  0.4971
13408SOL     OW43721   5.357   6.374   5.271 -0.3058  0.3994 -0.0043
13408SOL    HW143722   5.280   6.319   5.284  0.0211 -0.1139 -0.1953
13408SOL    HW243723   5.419   6.318   5.224  1.3070 -0.2181  2.6289
13409SOL     OW43724   9.574   6.540   2.377 -0.1707  0.1617 -0.2583
13409SOL    HW143725   9.627   6.587   2.314 -0.2198 -0.1813 -0.5572
13409SOL    HW243726   9.518   6.483   2.324  0.1486 -0.5066  0.1138
13410SOL     OW43727  10.066   7.116   2.930 -0.4974  0.2390 -0.0090
13410SOL    HW143728  10.012   7.058   2.876 -0.5314  1.2228 -1.0751
13410SOL    HW243729  10.087   7.190   2.872  2.6198 -0.4210  0.0771
13411SOL     OW43730   6.335   2.023   5.955  0.7342  0.0285 -0.3608
13411SOL    HW143731   6.279   2.097   5.976  2.4119  0.8323  1.5232
13411SOL    HW243732   6.325   1.963   6.029  0.6160 -0.9118 -1.1110
13412SOL     OW43733   4.779   7.476   5.961  0.2663  0.1266 -0.0647
13412SOL    HW143734   4.799   7.434   6.045  2.5424  1.3457  0.0945
13412SOL    HW243735   4.836   7.431   5.898 -1.1632 -0.5421 -0.9397
13413SOL     OW43736   7.990   6.889  10.284 -0.3885 -0.4076 -0.1432
13413SOL    HW143737   7.938   6.828  10.231  0.9733 -1.1325 -0.7225
13413SOL    HW243738   8.080   6.859  10.271  0.0587 -0.0416  1.8947
13414SOL     OW43739  10.836   3.213   2.111  0.1079 -0.3889  0.7161
13414SOL    HW143740  10.870   3.176   2.192  1.9447  0.9861  0.6397
13414SOL    HW243741  10.895   3.181   2.043 -0.1650  0.1371  0.2175
13415SOL     OW43742  10.259   6.423   2.822  0.1223  0.3305  0.2848
13415SOL    HW143743  10.328   6.376   2.777 -0.9833  0.3054 -1.4859
13415SOL    HW243744  10.283   6.419   2.915  0.6797 -2.7053  0.0991
13416SOL     OW43745   5.095   4.322   4.781 -0.2096  0.3573 -0.0044
13416SOL    HW143746   5.149   4.265   4.727 -0.8980  0.0091 -0.3445
13416SOL    HW243747   5.086   4.276   4.865 -0.2890  0.2413 -0.0773
13417SOL     OW43748   0.969   4.291   1.298 -0.5618  0.2987  0.2278
13417SOL    HW143749   0.885   4.262   1.261  0.1903 -1.4482 -0.1771
13417SOL    HW243750   1.019   4.211   1.311  1.1910  1.3333  0.1576
13418SOL     OW43751   2.465   7.573   4.925  0.0670  0.0045  0.5834
13418SOL    HW143752   2.414   7.554   5.003  1.5067 -1.3296  1.2474
13418SOL    HW243753   2.556   7.575   4.955  0.4573  3.3096 -0.3623
13419SOL     OW43754  10.646   5.793   9.625 -0.4276 -0.0851  0.0644
13419SOL    HW143755  10.720   5.813   9.682 -0.6398 -0.6287  0.5431
13419SOL    HW243756  10.658   5.849   9.549 -0.8530  1.6742  1.2093
13420SOL     OW43757   5.215   3.716   4.388  0.5563  0.1020  0.0025
13420SOL    HW143758   5.122   3.705   4.404  0.5436 -0.7994 -0.6417
13420SOL    HW243759   5.252   3.629   4.399  1.3547  0.4660  0.3653
13421SOL     OW43760   4.040   9.832   0.132  0.4587  0.1436  0.5647
13421SOL    HW143761   4.007   9.846   0.043 -0.1155  0.2712  0.7919
13421SOL    HW243762   3.968   9.858   0.189  0.2009 -1.5091  1.0424
13422SOL     OW43763   1.117   9.446   9.019 -0.4838  0.2094 -0.1768
13422SOL    HW143764   1.167   9.398   8.954  0.4282  2.4092 -1.2191
13422SOL    HW243765   1.146   9.410   9.103  1.2511 -0.0885 -0.8526
13423SOL     OW43766   5.499   1.760  10.057 -0.1793 -0.5862  0.5800
13423SOL    HW143767   5.507   1.777   9.963  0.8229 -1.4283  0.4878
13423SOL    HW243768   5.406   1.743  10.071  0.0291 -3.9977 -0.9533
13424SOL     OW43769   5.054   2.459   7.244 -0.5019  0.4346  0.8256
13424SOL    HW143770   5.144   2.493   7.243 -0.8553  1.4915  2.1807
13424SOL    HW243771   5.054   2.392   7.312 -0.2640 -1.0949 -0.6051
13425SOL     OW43772   0.728   4.400   3.152  0.0468 -0.1438  0.5836
13425SOL    HW143773   0.797   4.365   3.096  0.2443 -1.1062  1.4017
13425SOL    HW243774   0.773   4.450   3.220 -0.2652  2.5790 -1.0670
13426SOL     OW43775   6.582   4.137   4.578 -0.1666  0.1316  0.2999
13426SOL    HW143776   6.566   4.164   4.668  1.2439  0.0172  0.6134
13426SOL    HW243777   6.669   4.098   4.580  1.5873  3.4586 -1.7263
13427SOL     OW43778   5.623  10.551   5.096 -0.1375  0.1734 -0.1138
13427SOL    HW143779   5.667  10.631   5.123 -0.5484 -0.1722  1.7273
13427SOL    HW243780   5.677  10.481   5.131 -1.3477 -0.2772  0.9441
13428SOL     OW43781   2.081   6.211   6.672 -0.7393  0.5796 -0.4750
13428SOL    HW143782   2.154   6.165   6.632  0.1312  0.4793  1.1485
13428SOL    HW243783   2.074   6.293   6.622  0.0690  0.3053 -1.0530
13429SOL     OW43784   1.694   9.239   3.766 -0.8169  0.3133  0.1798
13429SOL    HW143785   1.649   9.272   3.843 -0.4370  0.6137  0.2784
13429SOL    HW243786   1.780   9.281   3.768  0.2038 -1.6392  1.0238
13430SOL     OW43787   2.029   8.421  10.364 -0.4352 -0.4953  0.1408
13430SOL    HW143788   2.115   8.396  10.397 -1.0406 -0.0831  2.1688
13430SOL    HW243789   1.970   8.408  10.439 -1.8975  0.5309 -0.7821
13431SOL     OW43790   4.655   5.043   5.176 -0.5964 -0.0398 -0.1269
13431SOL    HW143791   4.672   5.102   5.103  0.2069  1.9949  1.5992
13431SOL    HW243792   4.608   5.096   5.240  0.1735 -1.2522  1.5279
13432SOL     OW43793   3.817   8.686  10.610 -0.2299 -0.2761  0.8021
13432SOL    HW143794   3.728   8.722  10.605  0.2128  0.7933  0.3281
13432SOL    HW243795   3.827   8.636  10.528  0.9560  2.9297 -1.2134
13433SOL     OW43796  10.164   7.468   7.114 -0.5307  0.5385 -0.5515
13433SOL    HW143797  10.204   7.449   7.199 -3.9097  0.0933  1.1132
13433SOL    HW243798  10.145   7.381   7.078 -1.3402  0.7088 -0.5542
13434SOL     OW43799   8.865   6.120  10.470  0.1846  0.2155 -0.0044
13434SOL    HW143800   8.853   6.036  10.515  0.2062 -0.0712 -0.5301
13434SOL    HW243801   8.921   6.100  10.395  1.7560  1.0392  0.8881
13435SOL     OW43802   9.855   7.866   2.140  0.0713  0.1637  0.0666
13435SOL    HW143803   9.832   7.794   2.081 -3.8847 -1.2569  2.9140
13435SOL    HW243804   9.942   7.844   2.172 -0.3204 -2.5103 -0.4851
13436SOL     OW43805  10.737  10.212   2.331 -0.3556 -0.3216 -0.2058
13436SOL    HW143806  10.662  10.161   2.360 -0.8123 -0.4578 -1.5655
13436SOL    HW243807  10.800  10.206   2.403 -1.1777 -1.1706  0.4579
13437SOL     OW43808   2.469   0.024   3.739  0.4722  0.2132  0.0331
13437SOL    HW143809   2.448   0.046   3.830  1.2331 -0.8127  0.4744
13437SOL    HW243810   2.438  -0.066   3.727  2.0686 -0.3519 -0.1175
13438SOL     OW43811   5.915  10.171   5.240  0.3463  0.0902 -0.0875
13438SOL    HW143812   5.904  10.076   5.245 -0.2416  0.2103  1.8824
13438SOL    HW243813   5.945  10.196   5.328  0.8613  1.6823 -0.6847
13439SOL     OW43814   3.392   3.115   8.742 -0.2965 -0.4953  0.1376
13439SOL    HW143815   3.306   3.153   8.723 -1.1604 -2.0511  0.8202
13439SOL    HW243816   3.400   3.041   8.681  0.1033 -0.9982  0.7896
13440SOL     OW43817   3.337   6.412   8.262  0.0994  0.5850  0.6782
13440SOL    HW143818   3.263   6.449   8.214  0.2900 -0.6361 -0.6623
13440SOL    HW243819   3.368   6.482   8.318  0.3343  2.3967 -1.5812
13441SOL     OW43820  10.232   5.237   3.806 -0.0316 -0.4377  0.4668
13441SOL    HW143821  10.260   5.212   3.894 -0.3167 -0.7439  0.4714
13441SOL    HW243822  10.312   5.231   3.753  0.0380 -0.7174  0.6047
13442SOL     OW43823   1.182   8.944   8.582 -0.1418 -0.9729 -0.0315
13442SOL    HW143824   1.273   8.915   8.588 -0.0435 -0.6106  0.2533
13442SOL    HW243825   1.133   8.881   8.634  0.3697  0.6732  2.5944
13443SOL     OW43826   9.484   6.751   1.773  0.4672 -0.1938  0.7931
13443SOL    HW143827   9.473   6.839   1.737 -0.3273 -0.8620 -0.6567
13443SOL    HW243828   9.406   6.737   1.826 -0.3532 -0.7273 -0.5201
13444SOL     OW43829   2.485   1.763   1.100  0.8232  1.0556 -0.1055
13444SOL    HW143830   2.493   1.796   1.189 -0.8416 -1.8616  1.2663
13444SOL    HW243831   2.392   1.767   1.081  0.7666 -1.0342 -0.5243
13445SOL     OW43832   0.184   3.704   8.312  0.4427 -0.0609  0.2976
13445SOL    HW143833   0.204   3.646   8.386  0.1585 -0.0151  0.4144
13445SOL    HW243834   0.144   3.647   8.247 -1.0951  0.2195  0.9469
13446SOL     OW43835   0.230   2.772   0.247 -0.4953 -0.1101 -0.2801
13446SOL    HW143836   0.260   2.700   0.192  1.0599  0.2420  0.0744
13446SOL    HW243837   0.145   2.743   0.280 -1.3017 -0.4944 -2.5330
13447SOL     OW43838   4.663   3.851  10.801  0.0244 -0.5973 -0.2214
13447SOL    HW143839   4.665   3.760  10.772  0.5395 -0.9255  0.8163
13447SOL    HW243840   4.595   3.892  10.747 -0.1358 -1.5615 -0.7682
13448SOL     OW43841   3.696   2.998   3.681  0.8328 -0.1121 -0.0912
13448SOL    HW143842   3.676   2.914   3.722  0.0752 -0.2180 -0.6512
13448SOL    HW243843   3.775   2.981   3.629  0.1606 -0.7285 -0.9314
13449SOL     OW43844   6.991   2.915   3.736  0.2501  0.2311  0.1490
13449SOL    HW143845   6.933   2.947   3.666  1.8379  1.6026 -0.6192
13449SOL    HW243846   7.028   2.994   3.774  0.2693 -0.5527  1.8489
13450SOL     OW43847   5.012   6.203   7.240  0.4032  0.4189 -0.1142
13450SOL    HW143848   4.970   6.198   7.326 -1.6729  2.5375 -0.8888
13450SOL    HW243849   5.104   6.218   7.259 -0.0274  0.9189  1.7558
13451SOL     OW43850  10.985  10.527   2.203  0.1891  1.0636 -0.7442
13451SOL    HW143851  10.926  10.454   2.181 -1.4349  2.6775 -2.1332
13451SOL    HW243852  10.946  10.566   2.282  0.3683  1.1218 -0.6849
13452SOL     OW43853   2.677   5.142   6.286 -0.5023  0.5745 -0.0550
13452SOL    HW143854   2.747   5.168   6.346 -0.3310  1.4429 -0.6063
13452SOL    HW243855   2.722   5.132   6.201 -0.8036 -0.2657 -0.1205
13453SOL     OW43856   2.501   9.043   6.683  0.0248  0.8483 -0.3606
13453SOL    HW143857   2.481   8.960   6.639  2.3867  0.7924 -1.4778
13453SOL    HW243858   2.514   9.019   6.775 -1.1042  0.3130 -0.3210
13454SOL     OW43859   0.546   1.566  10.652  0.9390  0.3729 -0.1617
13454SOL    HW143860   0.469   1.617  10.626 -0.7062 -1.3596  0.9914
13454SOL    HW243861   0.533   1.550  10.745  1.1678 -2.3821 -0.5325
13455SOL     OW43862   9.569   1.616   3.848  0.3861  0.5296  0.7475
13455SOL    HW143863   9.650   1.638   3.803  0.4413  3.1216  1.8942
13455SOL    HW243864   9.596   1.594   3.937 -0.0199 -0.7365  0.5732
13456SOL     OW43865   9.680   8.079  10.337 -0.0209  0.3332  0.3983
13456SOL    HW143866   9.752   8.016  10.326  3.9988  4.2074  1.6078
13456SOL    HW243867   9.637   8.053  10.419  1.0664 -1.1661  0.5295
13457SOL     OW43868   6.753   5.391   1.760 -0.2523  0.9017  0.8556
13457SOL    HW143869   6.758   5.376   1.855 -1.4586 -0.6847  0.7088
13457SOL    HW243870   6.659   5.391   1.740 -0.0163 -1.1452 -0.6275
13458SOL     OW43871   1.495   2.015  10.986 -0.2183 -0.2769  0.6868
13458SOL    HW143872   1.408   2.052  11.001  0.9802  2.6726  1.1077
13458SOL    HW243873   1.504   2.013  10.891  0.2892  2.3307  0.6163
13459SOL     OW43874   5.572   5.609   9.640 -0.1528 -0.2303  0.2150
13459SOL    HW143875   5.522   5.616   9.721 -0.3647 -1.0365  0.1600
13459SOL    HW243876   5.661   5.634   9.664 -0.6416  1.6888  0.2195
13460SOL     OW43877   5.020  10.534   2.575 -0.4416 -0.7822  0.3994
13460SOL    HW143878   4.948  10.480   2.541 -0.5692 -0.4336  0.0990
13460SOL    HW243879   4.976  10.614   2.607 -0.2072 -0.6472  0.3845
13461SOL     OW43880   3.254   5.284   2.408  0.7078  0.2070 -0.6982
13461SOL    HW143881   3.325   5.280   2.344  1.3366 -1.0426  0.0272
13461SOL    HW243882   3.279   5.354   2.467  2.1153 -1.1094  0.3660
13462SOL     OW43883   9.821   9.821   5.929 -0.1425 -0.0724  0.0934
13462SOL    HW143884   9.889   9.806   5.995  0.0375 -1.7026 -0.4382
13462SOL    HW243885   9.869   9.838   5.848 -0.3598 -0.9749 -0.2305
13463SOL     OW43886   2.187  10.324   4.995 -0.0657  0.7666  0.2166
13463SOL    HW143887   2.202  10.234   4.966  0.9720  0.6167  1.1272
13463SOL    HW243888   2.188  10.318   5.091 -3.1877  1.2483  0.3929
13464SOL     OW43889   0.383   9.199   2.503 -0.1204  0.4311 -0.0026
13464SOL    HW143890   0.352   9.265   2.565 -1.2258  0.5457 -0.6431
13464SOL    HW243891   0.475   9.186   2.525 -0.5797  0.1605  1.9172
13465SOL     OW43892   1.775   1.462   1.827  0.9013  0.1718 -0.3260
13465SOL    HW143893   1.848   1.467   1.888  1.2297 -0.0517 -0.6888
13465SOL    HW243894   1.808   1.408   1.755  0.4205  0.1738 -0.5546
13466SOL     OW43895   3.594   6.724   9.475  0.6905 -0.1728 -0.5621
13466SOL    HW143896   3.648   6.659   9.520 -2.0846 -1.5426  1.0053
13466SOL    HW243897   3.637   6.808   9.493  1.4817 -1.0342  1.8515
13467SOL     OW43898   9.317   0.089   2.247  0.1063 -0.1900 -0.0031
13467SOL    HW143899   9.374   0.140   2.305  0.3638 -1.5870  1.0285
13467SOL    HW243900   9.374   0.023   2.209 -0.4084 -0.3076 -0.5897
13468SOL     OW43901   8.458   7.363  10.093  0.6437  0.5632 -0.0045
13468SOL    HW143902   8.415   7.342  10.176 -0.1064  0.6020 -0.3705
13468SOL    HW243903   8.424   7.298  10.031  0.0118  1.4553 -0.6258
13469SOL     OW43904   9.912   1.140   1.560  0.3709  0.2183 -0.5960
13469SOL    HW143905   9.904   1.084   1.483  0.4861  1.8552 -1.8617
13469SOL    HW243906   9.948   1.222   1.527 -1.8178  1.8429  0.7562
13470SOL     OW43907  10.369   3.970   1.709  0.2868  0.1625  0.3469
13470SOL    HW143908  10.405   3.911   1.775  0.6037  1.3944  1.3121
13470SOL    HW243909  10.284   3.933   1.688  0.9509 -1.2806  0.0499
13471SOL     OW43910   8.062   5.523   9.928 -1.1734 -0.8927 -0.0018
13471SOL    HW143911   8.027   5.434   9.932 -1.6255 -0.6711  1.9681
13471SOL    HW243912   8.020   5.561   9.851  0.2846 -2.8389 -1.8810
13472SOL     OW43913  10.303   2.940   7.093  0.1387 -0.1409  0.2496
13472SOL    HW143914  10.362   2.938   7.018 -1.2160  0.1958 -0.8866
13472SOL    HW243915  10.340   3.006   7.152  0.2305  1.0199 -1.0416
13473SOL     OW43916   4.470   5.864   0.275  0.0174  0.1099  0.3516
13473SOL    HW143917   4.495   5.957   0.276 -0.6172  0.2915  0.1191
13473SOL    HW243918   4.466   5.841   0.183 -0.7380  0.1105  0.3784
13474SOL     OW43919   1.221   2.378   7.452 -0.4385 -0.1940  0.3171
13474SOL    HW143920   1.153   2.443   7.434 -1.0310 -1.4699 -2.5204
13474SOL    HW243921   1.303   2.423   7.432 -0.5767  0.5744  1.3611
13475SOL     OW43922  10.672   1.469   7.018  0.2185  0.0445 -0.3985
13475SOL    HW143923  10.755   1.517   7.012  1.6791 -2.0064  1.6405
13475SOL    HW243924  10.648   1.451   6.927  1.5894  1.3352 -1.0540
13476SOL     OW43925   0.510   6.461   7.704 -0.6193 -0.1668 -0.5695
13476SOL    HW143926   0.440   6.513   7.664 -0.7037 -0.1172 -0.3556
13476SOL    HW243927   0.536   6.510   7.781 -0.3595 -0.1951 -0.6378
13477SOL     OW43928   2.164   7.900   0.961 -0.0980 -0.2804  0.0405
13477SOL    HW143929   2.103   7.850   0.907  1.2470 -0.4547 -1.3859
13477SOL    HW243930   2.138   7.992   0.946 -0.7351 -0.3960  0.3830
13478SOL     OW43931  10.227   8.682   3.236 -0.2398 -0.0063  0.1160
13478SOL    HW143932  10.288   8.747   3.201 -0.2987 -0.0857 -0.1326
13478SOL    HW243933  10.211   8.622   3.164 -1.2046  0.4333 -0.0474
13479SOL     OW43934   1.630   9.822   1.179  0.3639 -0.3058 -0.2512
13479SOL    HW143935   1.563   9.769   1.222 -0.1004  0.6127  0.1922
13479SOL    HW243936   1.645   9.895   1.239 -1.1652  1.6911 -2.1494
13480SOL     OW43937   7.672   4.218   7.083 -0.6455 -0.2573  0.0538
13480SOL    HW143938   7.635   4.302   7.109 -2.4527  0.6973 -4.6319
13480SOL    HW243939   7.765   4.235   7.071 -1.0788  1.3326 -1.3767
13481SOL     OW43940   8.293   3.969   6.859 -0.2568  0.4334  0.8254
13481SOL    HW143941   8.372   3.947   6.908  0.0270 -2.2850 -0.6742
13481SOL    HW243942   8.307   4.059   6.830  1.1420  0.8683  2.6471
13482SOL     OW43943   8.599   6.309   9.914 -0.7887  0.2387 -0.1313
13482SOL    HW143944   8.581   6.241   9.978 -0.5812  0.6996  0.4233
13482SOL    HW243945   8.664   6.271   9.855 -0.6391 -0.0251  0.2051
13483SOL     OW43946   7.369   5.248   8.021 -0.1838 -0.2902  0.1829
13483SOL    HW143947   7.440   5.284   8.074  1.6178 -1.3827 -1.3102
13483SOL    HW243948   7.359   5.158   8.053 -0.1628 -0.4570 -0.2654
13484SOL     OW43949   5.461  10.630   0.302 -0.5710 -0.1815  0.4645
13484SOL    HW143950   5.457  10.717   0.343 -0.2405  1.5600 -2.8152
13484SOL    HW243951   5.372  10.614   0.271 -0.0519  0.4665 -1.5263
13485SOL     OW43952   1.770  10.661   7.698 -0.3171  0.2293  0.0096
13485SOL    HW143953   1.725  10.720   7.758 -2.2183  0.3261 -1.4472
13485SOL    HW243954   1.803  10.718   7.629  0.7159 -0.0500  0.2502
13486SOL     OW43955   8.564  10.977   9.326  0.2092 -0.1536 -0.6059
13486SOL    HW143956   8.503  11.051   9.323  1.0046  0.5085 -1.0943
13486SOL    HW243957   8.552  10.933   9.241  1.3780  0.8155 -1.3152
13487SOL     OW43958   7.024   7.752   2.058  0.3685  0.5215  0.2347
13487SOL    HW143959   7.026   7.669   2.105  0.1786  0.6186  0.4143
13487SOL    HW243960   6.947   7.798   2.092 -0.5395  0.0485 -1.0746
13488SOL     OW43961   8.812   4.128   5.467  0.1114  0.5152  0.3376
13488SOL    HW143962   8.902   4.111   5.493 -0.0928 -0.4704  0.4325
13488SOL    HW243963   8.819   4.169   5.381  0.6002 -1.1725 -0.4604
13489SOL     OW43964   6.150   1.910   3.097 -0.1832 -0.7045 -0.1169
13489SOL    HW143965   6.118   1.997   3.074 -2.4943 -1.3089  0.6003
13489SOL    HW243966   6.107   1.889   3.180  2.1053 -1.6434  0.9493
13490SOL     OW43967   7.534   0.748   4.103 -0.1123  0.5404  0.1621
13490SOL    HW143968   7.509   0.841   4.107 -1.5436  0.2305 -0.7868
13490SOL    HW243969   7.570   0.737   4.016 -0.1691  0.1574  0.1867
13491SOL     OW43970   8.655   6.816   9.821 -0.1698 -0.0219 -0.4163
13491SOL    HW143971   8.656   6.736   9.769 -1.7375 -1.3711  1.5145
13491SOL    HW243972   8.563   6.830   9.842  0.3429  0.7778  1.5099
13492SOL     OW43973   2.190   7.651   5.098  0.2248 -0.2071 -0.2447
13492SOL    HW143974   2.231   7.725   5.142 -1.8955  0.4795  0.7344
13492SOL    HW243975   2.181   7.678   5.007  0.7636  0.1356 -0.1997
13493SOL     OW43976   2.983   4.885   9.213  0.6073 -0.3354 -0.0622
13493SOL    HW143977   2.919   4.862   9.281  0.7243 -0.5422 -0.0219
13493SOL    HW243978   2.941   4.956   9.164 -0.4693 -1.7325 -1.2516
13494SOL     OW43979   4.433   2.904   0.960 -0.0779  0.0904  1.0761
13494SOL    HW143980   4.524   2.913   0.989 -0.1587  1.8856  0.8811
13494SOL    HW243981   4.423   2.969   0.891 -1.6581  0.2706  1.4352
13495SOL     OW43982   2.251   4.740   4.792  0.6266 -0.1736 -0.1295
13495SOL    HW143983   2.341   4.720   4.815  0.1068 -0.9978  1.2985
13495SOL    HW243984   2.226   4.812   4.849 -0.2506 -1.3512  1.0601
13496SOL     OW43985   2.231   5.526   1.850  0.0270 -0.4244  0.0767
13496SOL    HW143986   2.273   5.445   1.878  0.9572  0.2267  0.6195
13496SOL    HW243987   2.137   5.507   1.854  0.2391 -1.5063  0.0811
13497SOL     OW43988   4.380   3.041   6.197 -0.4190  0.0661  0.0712
13497SOL    HW143989   4.348   3.130   6.191 -0.9002 -0.1615 -0.9911
13497SOL    HW243990   4.319   2.989   6.144  0.1831 -0.7913  0.1829
13498SOL     OW43991   5.898   6.075   2.477  0.1533  1.4922  0.2734
13498SOL    HW143992   5.953   6.145   2.442  0.3123  1.2547  0.0440
13498SOL    HW243993   5.951   5.996   2.466 -0.7140  1.0663 -1.1017
13499SOL     OW43994   8.659   6.365   3.912  0.0514 -0.4418  0.0255
13499SOL    HW143995   8.729   6.323   3.862 -0.8619 -0.8615 -0.9388
13499SOL    HW243996   8.590   6.379   3.848 -1.6389 -2.0622  1.3797
13500SOL     OW43997   2.394   1.931   3.563  0.2510  0.0751  0.2678
13500SOL    HW143998   2.304   1.963   3.553  0.9974  2.2418 -0.2176
13500SOL    HW243999   2.424   1.920   3.473  0.7604  0.3173  0.4065
13501SOL     OW44000   2.208   4.979   0.783  0.8702  0.1059 -0.0214
13501SOL    HW144001   2.242   5.065   0.808  1.3161  0.5253 -1.8944
13501SOL    HW244002   2.203   4.931   0.865  2.6667  1.2013  0.8086
13502SOL     OW44003   9.898  10.895  11.004 -0.2458 -0.4001  0.3610
13502SOL    HW144004   9.958  10.934  11.068 -0.7467 -1.2926  1.4010
13502SOL    HW244005   9.951  10.886  10.925  0.4613  0.4904  0.7088
13503SOL     OW44006   4.169   1.768   0.304 -0.0538 -0.2102 -0.1459
13503SOL    HW144007   4.089   1.821   0.312  0.1261  0.1101 -0.4477
13503SOL    HW244008   4.165   1.708   0.378  0.0366  0.6220  0.5568
13504SOL     OW44009   2.907   2.883   4.996  0.0579 -0.1014  0.2496
13504SOL    HW144010   2.846   2.897   4.925  1.1292  1.8077 -0.3712
13504SOL    HW244011   2.918   2.788   5.001 -3.6984 -0.6376  1.1187
13505SOL     OW44012   7.367   0.405   2.130 -0.6252 -0.2050  0.0299
13505SOL    HW144013   7.383   0.311   2.128 -0.1802 -0.1561  0.9456
13505SOL    HW244014   7.346   0.425   2.222  1.4235  0.9160  0.3143
13506SOL     OW44015   8.143  10.218   3.088  0.7743 -0.0088 -0.4719
13506SOL    HW144016   8.203  10.250   3.156  1.8909 -1.8162 -0.5126
13506SOL    HW244017   8.063  10.197   3.134  0.6556  1.0921 -0.1550
13507SOL     OW44018  10.194   5.117   0.635 -0.1254 -0.0661 -0.2311
13507SOL    HW144019  10.199   5.032   0.591 -0.8789 -0.2852  0.1017
13507SOL    HW244020  10.222   5.099   0.725 -2.0686 -0.3605  0.3596
13508SOL     OW44021   5.162   8.183   8.102  0.4030  0.0015 -0.2766
13508SOL    HW144022   5.071   8.153   8.101  0.6894 -0.9105  0.0364
13508SOL    HW244023   5.193   8.163   8.190  0.7859  0.7083 -0.2399
13509SOL     OW44024   5.362   0.084   8.099  0.0137 -0.0254 -0.3439
13509SOL    HW144025   5.401   0.004   8.063  0.4643  0.7338 -1.5960
13509SOL    HW244026   5.436   0.143   8.111 -0.3455  0.2809  0.4026
13510SOL     OW44027   3.683   0.515   0.898 -0.0900 -0.0858  1.0341
13510SOL    HW144028   3.707   0.509   0.805 -1.7093  1.1574  0.4975
13510SOL    HW244029   3.731   0.443   0.939 -0.5791 -1.7052 -1.0218
13511SOL     OW44030   5.723   9.726   6.808  0.1430  0.6372  0.3405
13511SOL    HW144031   5.751   9.638   6.833  1.3326  0.5222 -1.2140
13511SOL    HW244032   5.804   9.774   6.793 -0.4615  2.2944  1.9467
13512SOL     OW44033   1.749   1.819  10.735 -0.2749 -0.6621  0.0534
13512SOL    HW144034   1.817   1.848  10.797  1.3299  1.1107 -2.3569
13512SOL    HW244035   1.696   1.897  10.720  0.9589 -0.2317 -2.6676
13513SOL     OW44036  10.321   8.813   4.050 -0.4419  0.7136 -0.2267
13513SOL    HW144037  10.361   8.875   3.989  0.6238  0.4349  0.1670
13513SOL    HW244038  10.341   8.848   4.137 -0.0063 -0.0644 -0.0022
13514SOL     OW44039   7.885   4.678   4.308  0.2123  0.1461 -0.2378
13514SOL    HW144040   7.886   4.597   4.359  0.1719 -0.2031 -0.7883
13514SOL    HW244041   7.794   4.687   4.279  0.5581 -0.5077 -1.5926
13515SOL     OW44042   6.592   8.961   7.024 -0.0274  0.2976 -0.2343
13515SOL    HW144043   6.635   8.924   7.101 -0.6306  1.4156  0.6734
13515SOL    HW244044   6.588   8.889   6.962  1.6953 -0.2773  0.2529
13516SOL     OW44045   2.260   1.039   0.830  0.0823 -0.3372 -0.8876
13516SOL    HW144046   2.247   1.103   0.899  1.9063 -0.1636 -0.6603
13516SOL    HW244047   2.249   1.089   0.749  0.3732  0.0247 -0.7097
13517SOL     OW44048   3.773   6.419   2.823  0.7105  0.3540  0.4298
13517SOL    HW144049   3.869   6.418   2.821  0.7672 -0.3378  2.1787
13517SOL    HW244050   3.748   6.335   2.785  0.6502  1.6194 -2.6111
13518SOL     OW44051   0.888   1.119   8.659 -0.0731  0.2346  0.1334
13518SOL    HW144052   0.810   1.171   8.677 -0.0948  0.1194  0.3769
13518SOL    HW244053   0.897   1.061   8.735 -0.1090 -0.1881 -0.1775
13519SOL     OW44054   8.295   2.545   0.288 -0.0786  0.4503  0.1564
13519SOL    HW144055   8.249   2.491   0.224 -0.5839  1.1738 -0.1032
13519SOL    HW244056   8.238   2.621   0.301 -0.3537 -0.0323  2.0560
13520SOL     OW44057   6.494   0.400   0.928 -0.0490  0.2667  0.5968
13520SOL    HW144058   6.541   0.437   0.853  0.1566 -0.4488  0.3656
13520SOL    HW244059   6.485   0.473   0.989  2.3140  0.2151  1.1124
13521SOL     OW44060   3.152   2.517   6.198 -0.4464 -0.4752 -0.4011
13521SOL    HW144061   3.232   2.553   6.160  1.5067 -0.2068  3.4576
13521SOL    HW244062   3.081   2.564   6.154  1.7212  3.0900 -0.4835
13522SOL     OW44063   9.819   1.719   5.487  0.5158  0.2707 -0.3931
13522SOL    HW144064   9.846   1.758   5.570  2.5703  0.9349 -1.3033
13522SOL    HW244065   9.829   1.625   5.501 -2.0324  0.1107  1.0020
13523SOL     OW44066   2.982   8.072   7.897  0.1837  0.4974  0.4069
13523SOL    HW144067   2.962   8.150   7.949 -1.8925  0.8781 -0.8453
13523SOL    HW244068   2.910   8.012   7.916 -1.0758  0.9367 -2.4717
13524SOL     OW44069   6.765   5.152   5.594 -0.1484 -0.0203 -0.6609
13524SOL    HW144070   6.796   5.193   5.513  0.7904  0.2637 -0.1768
13524SOL    HW244071   6.842   5.106   5.628 -0.6052 -0.3550 -0.0561
13525SOL     OW44072   6.024   8.128   9.799  0.3306 -0.1347 -0.4643
13525SOL    HW144073   5.991   8.165   9.717  1.3085  0.0157 -0.8092
13525SOL    HW244074   6.111   8.096   9.778  2.3317  3.3995  1.2981
13526SOL     OW44075   0.864   8.318  10.644 -0.7649  0.3393  0.2426
13526SOL    HW144076   0.783   8.281  10.680 -1.4142 -1.0488 -2.3283
13526SOL    HW244077   0.835   8.370  10.569  0.6730  0.4077 -0.2993
13527SOL     OW44078   7.199   6.467   6.332  0.1006 -0.1973  0.6054
13527SOL    HW144079   7.244   6.396   6.287  0.3590 -1.1901  2.3419
13527SOL    HW244080   7.238   6.468   6.419 -1.3391  0.7321  1.2683
13528SOL     OW44081   4.092   7.572   1.632 -0.3567  0.2773 -0.6722
13528SOL    HW144082   4.098   7.665   1.654 -0.7198  0.2749 -0.5633
13528SOL    HW244083   4.062   7.530   1.713  2.4076 -0.3252  0.1736
13529SOL     OW44084   1.195   7.207   7.237  0.3474 -0.6834  0.0825
13529SOL    HW144085   1.275   7.156   7.225  0.3280 -0.3600 -1.5236
13529SOL    HW244086   1.130   7.142   7.263  1.0687 -0.9725  1.2461
13530SOL     OW44087   7.984   3.897  10.047  0.0914  0.7481  0.5946
13530SOL    HW144088   7.919   3.874   9.981  0.3893 -0.7642  0.7887
13530SOL    HW244089   8.027   3.975  10.013 -0.4449  0.5737 -0.5123
13531SOL     OW44090   9.014   5.020   1.647  0.4196 -0.2746 -0.4330
13531SOL    HW144091   9.087   5.029   1.585  0.2357  0.1450 -0.5888
13531SOL    HW244092   8.961   5.098   1.634  1.8091  1.2220  2.1132
13532SOL     OW44093   4.114   3.741   6.526 -0.4605  0.4921  0.3167
13532SOL    HW144094   4.020   3.724   6.532  0.0869 -3.8721 -0.6694
13532SOL    HW244095   4.139   3.766   6.615 -2.2440 -0.3909  1.1222
13533SOL     OW44096   8.655   7.968   0.493 -0.3710  0.1295 -0.0695
13533SOL    HW144097   8.604   8.048   0.508 -2.1878 -1.3992  2.6633
13533SOL    HW244098   8.746   7.999   0.489 -1.0445  2.3891  0.3606
13534SOL     OW44099   1.308   1.139   2.049 -0.5023  0.3485 -0.2167
13534SOL    HW144100   1.380   1.202   2.042 -0.0357  0.1097  1.7788
13534SOL    HW244101   1.230   1.189   2.026  0.1046  1.0638 -0.7667
13535SOL     OW44102   9.457   6.479   9.575 -0.2344 -0.7652 -0.0207
13535SOL    HW144103   9.375   6.454   9.533  0.8104  0.5593 -3.2103
13535SOL    HW244104   9.522   6.418   9.538  0.6656  0.1579 -0.0283
13536SOL     OW44105   4.703   5.445   1.760  0.0254 -0.0470  0.0226
13536SOL    HW144106   4.773   5.399   1.806  0.2518 -0.0825 -0.3618
13536SOL    HW244107   4.639   5.465   1.829  0.2662 -0.2862  0.3180
13537SOL     OW44108   0.039   1.898   1.561 -0.2265 -0.0982  0.3988
13537SOL    HW144109   0.063   1.907   1.469 -0.2879 -1.5854  0.2134
13537SOL    HW244110   0.113   1.851   1.601 -0.0990  0.7279  1.1649
13538SOL     OW44111   4.676   5.421   6.013 -0.2550 -0.3171  0.2799
13538SOL    HW144112   4.636   5.442   5.929 -0.3325  0.8278  0.5956
13538SOL    HW244113   4.603   5.389   6.067 -0.2550 -0.7764  0.0163
13539SOL     OW44114  10.117   4.227   6.730  0.4352 -0.0127  0.2682
13539SOL    HW144115  10.179   4.237   6.802  0.7258 -0.4201  0.0735
13539SOL    HW244116  10.041   4.183   6.770  0.3607  0.2859  0.4554
13540SOL     OW44117   8.934   1.994   1.280 -0.1439  0.4257 -0.0472
13540SOL    HW144118   8.852   1.989   1.329  0.8821  0.4356  1.7697
13540SOL    HW244119   8.944   1.907   1.240 -1.7805  0.9088 -1.6533
13541SOL     OW44120   0.696   2.253   9.272  0.3114  0.3009 -0.5095
13541SOL    HW144121   0.615   2.264   9.223 -0.7001 -0.0482  1.0062
13541SOL    HW244122   0.689   2.316   9.344  0.2490 -1.3693  1.0194
13542SOL     OW44123   7.742   2.426   9.472  0.3961  0.3719  0.0027
13542SOL    HW144124   7.789   2.480   9.408  0.9226  0.1407  0.1817
13542SOL    HW244125   7.769   2.337   9.451 -1.0761  0.0846 -0.7912
13543SOL     OW44126   8.907   4.257   4.335 -0.0626  0.1620  0.0251
13543SOL    HW144127   8.859   4.330   4.298  1.6656  0.2548 -2.2836
13543SOL    HW244128   8.862   4.179   4.302  0.6358  0.2413 -1.1541
13544SOL     OW44129   1.006  10.040   2.823 -0.0175 -0.4907  0.5039
13544SOL    HW144130   0.985   9.947   2.813 -1.1371 -0.2882  0.7910
13544SOL    HW244131   0.986  10.058   2.915  0.5059 -0.0366  0.5290
13545SOL     OW44132   2.694   1.735   3.675  0.3037  0.0242 -0.1228
13545SOL    HW144133   2.609   1.740   3.719  0.7161 -0.3698  0.7397
13545SOL    HW244134   2.721   1.826   3.664  0.0233  0.1389  0.1202
13546SOL     OW44135   1.121   5.309   8.566  0.0536 -0.2789  0.0563
13546SOL    HW144136   1.109   5.302   8.472  0.5511 -0.2631 -0.0103
13546SOL    HW244137   1.084   5.227   8.601 -1.2119  0.2329 -0.0408
13547SOL     OW44138  10.988   3.685   7.724 -0.3167  0.2576 -0.6066
13547SOL    HW144139  11.080   3.709   7.711 -0.0725 -0.7828 -0.9554
13547SOL    HW244140  10.943   3.768   7.739  0.5541  0.8622 -1.2159
13548SOL     OW44141   4.226  10.304   2.003  0.1193  0.3361 -0.0811
13548SOL    HW144142   4.221  10.221   2.051 -1.2676 -0.2322 -1.1353
13548SOL    HW244143   4.319  10.326   2.002  0.3993 -0.7343  1.0075
13549SOL     OW44144   0.307   9.081   4.768 -0.1441 -0.1977  0.4526
13549SOL    HW144145   0.327   9.006   4.712 -1.5475 -0.5054  0.3453
13549SOL    HW244146   0.251   9.137   4.714  0.6038  0.7842  0.6525
13550SOL     OW44147   4.114   7.699   4.314  0.1821  0.5666 -0.4164
13550SOL    HW144148   4.145   7.790   4.320  1.9201 -0.0044 -0.1628
13550SOL    HW244149   4.165   7.661   4.243  1.5535 -0.9351  1.2632
13551SOL     OW44150  10.665   4.310   6.276  0.3265 -0.1167 -0.3382
13551SOL    HW144151  10.680   4.220   6.306 -0.1869 -0.5189 -1.2483
13551SOL    HW244152  10.731   4.323   6.207  2.0375  1.0771  1.4058
13552SOL     OW44153   1.821   9.110   1.948  0.0850  0.1109  0.2808
13552SOL    HW144154   1.824   9.031   2.002  1.1395  0.5517  0.9215
13552SOL    HW244155   1.740   9.102   1.898  1.0500 -2.2844 -1.0834
13553SOL     OW44156   3.590   8.761   4.043  0.1482  0.4612 -0.3903
13553SOL    HW144157   3.585   8.792   4.133  1.3850 -1.7786  0.5205
13553SOL    HW244158   3.679   8.727   4.034  0.4262  1.6106 -2.8352
13554SOL     OW44159   6.102   3.008   3.885 -0.1121 -0.2018 -0.0407
13554SOL    HW144160   6.134   3.097   3.900  2.5205 -1.2529  1.2715
13554SOL    HW244161   6.042   2.992   3.958 -1.8480  0.9799 -1.1583
13555SOL     OW44162   9.491   6.619   2.049 -0.0996  0.1936 -0.5484
13555SOL    HW144163   9.491   6.526   2.070  0.3266  0.3542  0.2184
13555SOL    HW244164   9.411   6.633   1.998 -0.6526 -0.4226  0.1339
13556SOL     OW44165   9.077  10.314   5.664 -0.7422 -0.2310 -0.1086
13556SOL    HW144166   8.992  10.289   5.699 -1.6652  1.3681 -1.1017
13556SOL    HW244167   9.060  10.393   5.613  1.2632 -0.1301 -0.7082
13557SOL     OW44168  10.976   3.814   6.592 -0.2008  0.3043 -0.0005
13557SOL    HW144169  10.993   3.746   6.658  0.3567  0.0873 -0.3611
13557SOL    HW244170  10.999   3.896   6.636  0.3431  0.1444  0.0232
13558SOL     OW44171   0.911   0.513   6.251  0.7941 -0.0984  0.2467
13558SOL    HW144172   0.927   0.437   6.195 -2.2987 -0.0243 -0.9415
13558SOL    HW244173   0.816   0.514   6.264  0.5599  3.9356 -0.3947
13559SOL     OW44174   0.499   7.004   4.407  0.6307  0.3075  0.3960
13559SOL    HW144175   0.589   7.013   4.375  1.2632  0.2851  2.1003
13559SOL    HW244176   0.485   6.909   4.412  0.8130  0.3090  0.9412
13560SOL     OW44177   9.577   0.884   3.291 -0.4617  0.5882 -0.4571
13560SOL    HW144178   9.646   0.860   3.229  0.3045  0.4350  0.4399
13560SOL    HW244179   9.502   0.905   3.236  0.5024  1.4508 -1.4733
13561SOL     OW44180   9.887   0.939   6.568 -0.0455 -0.3198 -0.0845
13561SOL    HW144181   9.841   0.861   6.537 -0.7510 -0.6102  1.6101
13561SOL    HW244182   9.950   0.907   6.632  0.2683  0.4177 -0.0109
13562SOL     OW44183   1.319   0.026   7.920  0.6049 -0.2533  0.4227
13562SOL    HW144184   1.363   0.110   7.909  0.7191 -0.5527 -2.1234
13562SOL    HW244185   1.226   0.048   7.927  0.7727  0.1460  1.7205
13563SOL     OW44186   3.154   2.427   1.501 -0.4638 -0.7811  0.3808
13563SOL    HW144187   3.203   2.492   1.451  0.2018  0.6148  2.7011
13563SOL    HW244188   3.206   2.347   1.495  0.7806 -0.0191  0.6762
13564SOL     OW44189   5.831  10.648   6.511 -0.1791  0.3015 -0.1421
13564SOL    HW144190   5.891  10.721   6.493 -0.0188 -0.1395 -1.5634
13564SOL    HW244191   5.869  10.604   6.586  2.3720 -1.0243 -2.0374
13565SOL     OW44192   8.828   9.732   6.350  0.4008  0.0646 -0.0840
13565SOL    HW144193   8.840   9.646   6.389  0.9855 -0.0808 -0.5684
13565SOL    HW244194   8.784   9.784   6.418 -2.6132 -1.3850 -0.7345
13566SOL     OW44195   3.389   6.821   5.473 -0.2683  0.6541  0.7894
13566SOL    HW144196   3.395   6.907   5.515  1.0268  0.8398  0.2891
13566SOL    HW244197   3.317   6.829   5.411  0.0113  1.4843  0.5504
13567SOL     OW44198   1.330   3.421   9.721  0.1394  0.2597  0.1586
13567SOL    HW144199   1.321   3.406   9.815  0.8592  0.0315  0.1992
13567SOL    HW244200   1.320   3.515   9.710 -2.4809  0.0498  0.1468
13568SOL     OW44201   2.198   4.836   4.533 -0.5037 -0.2452 -0.1531
13568SOL    HW144202   2.104   4.849   4.524 -0.4654  0.9759  0.8891
13568SOL    HW244203   2.208   4.792   4.618 -0.1970 -1.5690 -0.8446
13569SOL     OW44204   1.172   4.701   6.995  0.2523  0.0440  0.0252
13569SOL    HW144205   1.169   4.717   7.090  1.7123 -1.3265  0.3481
13569SOL    HW244206   1.152   4.786   6.956  1.5711  1.1588  1.5848
13570SOL     OW44207   0.379   9.970   0.672  0.5853  0.5726  0.8627
13570SOL    HW144208   0.409   9.932   0.755  0.8011  0.2998  0.6613
13570SOL    HW244209   0.311  10.032   0.698  2.0522  2.0147  1.4299
13571SOL     OW44210   6.643   4.884   7.452 -0.6178  0.2241  0.1058
13571SOL    HW144211   6.595   4.884   7.369 -1.7312 -0.1548  0.7305
13571SOL    HW244212   6.641   4.793   7.481 -2.3870  0.7192  1.7370
13572SOL     OW44213   3.659   2.923   4.249  0.3190  0.4060  0.2987
13572SOL    HW144214   3.751   2.908   4.231  0.3018 -0.0917  0.6082
13572SOL    HW244215   3.654   3.016   4.274  0.7561  0.3933  0.4375
13573SOL     OW44216   8.209   1.470   1.045  0.2871 -0.0872  0.0217
13573SOL    HW144217   8.251   1.393   1.006  1.2394  0.2649  0.3298
13573SOL    HW244218   8.255   1.484   1.127 -1.6030 -0.7440  1.2678
13574SOL     OW44219   8.724   8.719   1.357  0.1940 -0.3926 -0.0324
13574SOL    HW144220   8.799   8.774   1.378 -1.3611  1.5815  0.6302
13574SOL    HW244221   8.690   8.755   1.275 -0.3963 -0.8576  0.0024
13575SOL     OW44222   5.327   9.785   8.249 -0.3562 -0.5633  0.0108
13575SOL    HW144223   5.369   9.794   8.335  0.3575 -2.3840 -0.1040
13575SOL    HW244224   5.331   9.873   8.211  1.7216 -0.2632  0.7707
13576SOL     OW44225   8.651   3.711  10.285 -0.3803 -0.0268  0.5128
13576SOL    HW144226   8.667   3.806  10.281 -1.9874  0.4798  3.3468
13576SOL    HW244227   8.739   3.673  10.291  0.2784  1.3703  0.2691
13577SOL     OW44228   0.447   8.863   3.945 -0.0111  0.0598 -0.3538
13577SOL    HW144229   0.474   8.936   4.000  0.3917 -0.8528  0.6838
13577SOL    HW244230   0.436   8.789   4.005  1.0910 -1.1527 -1.5591
13578SOL     OW44231   7.390   6.877   3.581  0.2832 -0.6143 -0.2635
13578SOL    HW144232   7.480   6.903   3.602 -0.0260  0.4208 -0.1288
13578SOL    HW244233   7.399   6.814   3.510  1.1630 -1.4001  0.5140
13579SOL     OW44234   7.898   7.954   2.642 -0.0981  0.1123 -0.1928
13579SOL    HW144235   7.917   7.924   2.553 -0.9642 -0.2795 -0.2543
13579SOL    HW244236   7.879   7.874   2.691 -0.5145  0.4019  0.1232
13580SOL     OW44237   4.059  10.781   8.160  0.1394 -0.0603  0.0752
13580SOL    HW144238   3.979  10.812   8.118  0.4448  0.4341 -0.1469
13580SOL    HW244239   4.107  10.734   8.091  0.6681  0.8016 -0.1608
13581SOL     OW44240   4.015   8.316   3.902  0.2106 -0.3992 -0.2815
13581SOL    HW144241   3.960   8.276   3.969 -1.0666 -4.6251 -3.3885
13581SOL    HW244242   4.105   8.297   3.930 -0.3324 -3.6932 -0.4016
13582SOL     OW44243   5.308   3.291   5.998  0.3946  0.1067  0.3669
13582SOL    HW144244   5.251   3.364   6.023  1.6054  0.9099  0.8912
13582SOL    HW244245   5.273   3.263   5.913 -0.7827  0.5476  0.6746
13583SOL     OW44246   2.694   8.509   6.041  0.0354  0.1679  0.2206
13583SOL    HW144247   2.746   8.552   6.108 -0.3253  0.2964  0.4178
13583SOL    HW244248   2.727   8.545   5.958 -0.1694  0.7109  0.3749
13584SOL     OW44249   2.678   0.473   2.221  0.3598 -0.9399 -0.1016
13584SOL    HW144250   2.701   0.532   2.293 -3.2190 -0.4271  0.8075
13584SOL    HW244251   2.697   0.386   2.255  0.3747 -0.6082  0.7804
13585SOL     OW44252   4.445   5.597   3.830 -0.7255  0.3279  0.3392
13585SOL    HW144253   4.357   5.601   3.793 -0.6931  2.4493  0.3521
13585SOL    HW244254   4.467   5.504   3.830 -2.8045 -0.2194 -0.0203
13586SOL     OW44255   3.679   8.292   8.447 -0.0685 -0.1359  0.2960
13586SOL    HW144256   3.597   8.340   8.439  0.6146  1.0530  0.0357
13586SOL    HW244257   3.724   8.333   8.521  0.9396  0.3033 -0.5183
13587SOL     OW44258   5.808   6.808   7.858 -0.0676  0.3631  0.0616
13587SOL    HW144259   5.857   6.886   7.834  0.8245  0.3924  1.8236
13587SOL    HW244260   5.804   6.810   7.954 -0.6687 -1.3678  0.1142
13588SOL     OW44261  10.834   7.943  10.495 -0.7226 -0.4477 -0.4206
13588SOL    HW144262  10.859   7.952  10.587 -2.3437  0.3010 -0.0184
13588SOL    HW244263  10.780   7.863  10.493 -2.2230  0.5270 -0.3353
13589SOL     OW44264   8.443   5.146   9.471 -0.1094  0.3823 -0.0652
13589SOL    HW144265   8.461   5.219   9.530 -3.1758  1.9361 -0.8707
13589SOL    HW244266   8.519   5.144   9.413  2.5515 -0.5989  3.1317
13590SOL     OW44267   1.473   8.541   4.547 -0.0561  0.4188  0.0312
13590SOL    HW144268   1.415   8.617   4.551 -0.5975  0.1386 -1.8757
13590SOL    HW244269   1.451   8.490   4.625  0.8525  2.5350  1.7814
13591SOL     OW44270   5.452   4.988   3.344  0.1173  0.0097  0.0572
13591SOL    HW144271   5.380   5.008   3.404 -0.4915 -4.1347  0.9792
13591SOL    HW244272   5.427   5.031   3.262 -2.5647  0.1157  0.8359
13592SOL     OW44273  10.983   4.917   9.486 -0.0758 -0.1517 -0.1657
13592SOL    HW144274  10.898   4.880   9.463  0.6023 -0.9774 -1.4756
13592SOL    HW244275  11.009   4.870   9.565 -1.1802  0.6908  0.7235
13593SOL     OW44276   7.787   6.139   0.935  0.2669 -0.4345 -0.1669
13593SOL    HW144277   7.793   6.219   0.988  2.4680  0.7384 -2.0096
13593SOL    HW244278   7.694   6.118   0.935 -0.2866  1.6720  1.0407
13594SOL     OW44279   0.276   9.150   1.073  0.2524  0.2223  0.1431
13594SOL    HW144280   0.255   9.085   1.141  1.4160 -0.3761 -0.0366
13594SOL    HW244281   0.227   9.120   0.996  0.1395  0.0243  0.2895
13595SOL     OW44282   6.962   4.575  10.127 -0.1765 -0.8242  0.2090
13595SOL    HW144283   6.940   4.586  10.220  0.9533 -1.3403  0.5478
13595SOL    HW244284   6.886   4.531  10.090 -1.2809  0.6902  0.5506
13596SOL     OW44285   4.074   2.939  10.201  0.1071 -0.2297  0.1240
13596SOL    HW144286   3.998   2.909  10.252 -0.1885  0.2963 -0.0029
13596SOL    HW244287   4.137   2.966  10.268 -0.4129  0.7868  0.2227
13597SOL     OW44288   3.262   2.540   3.569 -0.2364  0.7580 -1.0175
13597SOL    HW144289   3.214   2.547   3.652  2.9223 -0.1377  1.0540
13597SOL    HW244290   3.297   2.628   3.554  0.3450  0.5991 -0.6188
13598SOL     OW44291  10.042   3.987   7.359 -0.5676  0.2028  0.3583
13598SOL    HW144292   9.976   3.918   7.359 -1.2469  0.7692 -1.8364
13598SOL    HW244293  10.026   4.035   7.278  0.1773  2.6529  1.5629
13599SOL     OW44294   4.642   1.202   3.725 -0.0580 -0.5419 -0.6145
13599SOL    HW144295   4.702   1.276   3.731 -1.2733  0.4304  0.2175
13599SOL    HW244296   4.686   1.140   3.668  2.2446 -0.3846  0.8528
13600SOL     OW44297   7.778   9.607   1.287 -0.0441 -0.1889 -0.1478
13600SOL    HW144298   7.760   9.513   1.284 -0.0482 -0.3736  2.7223
13600SOL    HW244299   7.870   9.613   1.311 -0.1287  0.5257  0.0199
13601SOL     OW44300   0.069   6.083   9.002  0.1999 -0.0777 -0.2501
13601SOL    HW144301   0.037   6.002   8.964 -0.1116  0.5460 -1.3527
13601SOL    HW244302   0.022   6.152   8.955  1.3910  0.7796 -0.2337
13602SOL     OW44303   1.071   7.741   7.628 -0.3663  0.1142 -0.0774
13602SOL    HW144304   1.096   7.832   7.611 -0.0236 -0.0636 -0.5707
13602SOL    HW244305   1.027   7.714   7.547 -0.0885 -0.2842 -0.0990
13603SOL     OW44306  10.504   7.397   2.117 -0.1922 -0.1935  0.4376
13603SOL    HW144307  10.549   7.397   2.201 -0.8738  1.5460  0.8479
13603SOL    HW244308  10.550   7.331   2.065  1.4433  0.0187  1.5348
13604SOL     OW44309   0.956  10.245   2.102 -0.1293 -0.2097  0.5519
13604SOL    HW144310   0.864  10.243   2.128 -0.2783  0.0150  0.0451
13604SOL    HW244311   1.003  10.266   2.183 -0.4107 -1.5259  1.0738
13605SOL     OW44312   6.609   8.353  10.610  1.2061  0.4217  0.7896
13605SOL    HW144313   6.667   8.419  10.572  0.6953  0.3378 -0.1706
13605SOL    HW244314   6.660   8.272  10.607  1.9196  0.7845  2.1807
13606SOL     OW44315  10.539   4.190  10.827  0.7188 -1.1372  0.8813
13606SOL    HW144316  10.613   4.211  10.885  0.7454 -0.6189  0.6698
13606SOL    HW244317  10.554   4.244  10.749  0.9655 -2.2261  0.1593
13607SOL     OW44318   6.795   8.024   9.803 -0.0744  0.4036  0.3085
13607SOL    HW144319   6.794   8.096   9.740 -1.1658  0.2337  0.0989
13607SOL    HW244320   6.887   8.003   9.815  0.1657  0.6318 -1.0190
13608SOL     OW44321   2.657  10.936   7.741 -0.0296  0.0082 -0.1363
13608SOL    HW144322   2.611  10.890   7.812  0.0965 -2.7079 -1.6998
13608SOL    HW244323   2.740  10.890   7.733  0.4264  0.9944 -1.3054
13609SOL     OW44324   0.980   7.783   6.522  0.4185  0.0424 -0.4506
13609SOL    HW144325   0.934   7.699   6.525 -1.3594  0.9907  0.2535
13609SOL    HW244326   0.925   7.843   6.573  2.2921  1.3471  0.1530
13610SOL     OW44327   1.710  10.449   1.054  0.6526  0.1285  0.0126
13610SOL    HW144328   1.732  10.376   0.996  0.9753 -0.1063  0.4253
13610SOL    HW244329   1.768  10.520   1.028  1.3591 -0.2297  0.5640
13611SOL     OW44330   5.192   0.790   3.868 -0.4488 -0.1701 -0.5754
13611SOL    HW144331   5.189   0.750   3.955 -1.5135  0.1967 -0.4260
13611SOL    HW244332   5.132   0.864   3.874  0.9378  1.0323 -1.0625
13612SOL     OW44333   0.407   1.110   0.613 -0.1755  0.4539 -0.2379
13612SOL    HW144334   0.432   1.159   0.691  1.7572 -1.2243  0.2872
13612SOL    HW244335   0.390   1.177   0.546 -0.9287  1.8811  1.3191
13613SOL     OW44336   9.203   1.425   9.657  0.1984 -0.0537 -0.2245
13613SOL    HW144337   9.206   1.370   9.578 -0.5066  0.4874 -0.6405
13613SOL    HW244338   9.161   1.370   9.723  0.5973 -0.4343 -0.2840
13614SOL     OW44339   9.443   2.000   2.270 -0.7747  0.3673 -0.6841
13614SOL    HW144340   9.499   1.943   2.216 -0.5965  0.1552 -0.2817
13614SOL    HW244341   9.492   2.011   2.351 -1.8240 -0.7805  0.1499
13615SOL     OW44342   0.926   2.269   6.956 -0.0108 -0.8697 -0.5598
13615SOL    HW144343   0.888   2.292   7.041  0.4227 -0.1996 -0.5376
13615SOL    HW244344   0.864   2.304   6.892  0.2732 -0.2701 -0.5190
13616SOL     OW44345  10.011   9.043   3.794  0.0887  0.2103  0.1734
13616SOL    HW144346   9.935   9.012   3.844 -0.9491 -0.2628 -1.6401
13616SOL    HW244347  10.041   9.120   3.843 -1.3528  0.2235  1.1006
13617SOL     OW44348   6.447   2.384   1.567 -0.0184  0.1290 -0.0838
13617SOL    HW144349   6.538   2.355   1.573  0.2757  0.6563 -1.5877
13617SOL    HW244350   6.404   2.343   1.642  0.9236 -2.1007 -0.6937
13618SOL     OW44351   7.432   3.427   3.732  0.0191  0.0168  0.3851
13618SOL    HW144352   7.516   3.413   3.777  0.3300  1.9574  0.4778
13618SOL    HW244353   7.452   3.412   3.640  0.0142 -1.2916  0.5696
13619SOL     OW44354   3.703  10.942   3.720 -0.8617 -0.0618 -0.4817
13619SOL    HW144355   3.622  10.989   3.700 -1.1043  1.3113  3.0025
13619SOL    HW244356   3.772  10.993   3.679 -1.5849 -0.2413 -1.9720
13620SOL     OW44357   9.984   3.966   4.817  0.2533  0.1588 -0.3146
13620SOL    HW144358  10.000   3.871   4.820 -0.5897 -0.1550 -2.8289
13620SOL    HW244359   9.916   3.981   4.883 -0.3867 -1.1982 -0.6245
13621SOL     OW44360   1.521   9.933  10.202 -0.2298  0.0860  0.4797
13621SOL    HW144361   1.543   9.856  10.255  0.0525  0.0673  0.3347
13621SOL    HW244362   1.486   9.897  10.121 -2.1999  0.1039  1.2628
13622SOL     OW44363   0.875   4.967   5.559  0.1510 -0.4701  0.0128
13622SOL    HW144364   0.938   4.998   5.624  1.8318  1.0788 -2.1853
13622SOL    HW244365   0.882   4.871   5.564  0.0129 -0.4267  2.2253
13623SOL     OW44366   5.423   0.831   9.702 -0.3077  0.4882  0.2467
13623SOL    HW144367   5.396   0.762   9.642  0.1524  0.9266 -0.4865
13623SOL    HW244368   5.344   0.882   9.718 -0.6950 -0.3312  0.9629
13624SOL     OW44369   6.003   1.677   1.759  0.5220 -0.1615 -0.2655
13624SOL    HW144370   6.078   1.635   1.802  1.3100 -0.7034 -2.0455
13624SOL    HW244371   5.935   1.679   1.826  1.2023 -2.2791  0.5910
13625SOL     OW44372   0.943   5.426   1.652  0.6916 -0.0660  0.0161
13625SOL    HW144373   0.995   5.506   1.658  2.7789 -1.2730 -0.5736
13625SOL    HW244374   1.009   5.356   1.646 -1.0432 -1.7463 -0.3394
13626SOL     OW44375   5.157   7.261   9.458 -0.2496  0.0754  0.0906
13626SOL    HW144376   5.148   7.267   9.553  0.0212 -0.0355  0.1243
13626SOL    HW244377   5.221   7.329   9.436  1.9091 -1.7747  0.3335
13627SOL     OW44378   9.872   5.002   7.600  0.0850 -0.4289  0.3232
13627SOL    HW144379   9.781   4.978   7.582  0.1455  0.1131 -0.8216
13627SOL    HW244380   9.869   5.046   7.685 -0.3980 -2.1883  1.2638
13628SOL     OW44381   3.917   3.490   3.125  0.3317 -0.1505 -0.0019
13628SOL    HW144382   3.924   3.464   3.033  2.4563 -0.1287  0.1145
13628SOL    HW244383   3.846   3.555   3.126  1.2661  0.9742 -1.9001
13629SOL     OW44384   2.766   7.349   0.467 -0.1130 -0.4196 -0.4046
13629SOL    HW144385   2.831   7.328   0.535 -0.3125 -2.1138 -0.6962
13629SOL    HW244386   2.815   7.345   0.385  0.4660  3.0261 -0.3761
13630SOL     OW44387  10.077   2.738   6.658  0.3768  0.4609  0.8133
13630SOL    HW144388  10.095   2.829   6.680 -0.1721  1.0742 -1.1479
13630SOL    HW244389   9.982   2.731   6.661  0.3523  0.2644 -0.1401
13631SOL     OW44390   2.484   6.675   3.759 -0.2528 -0.0288  0.1114
13631SOL    HW144391   2.513   6.699   3.672  0.3388 -0.4766  0.1874
13631SOL    HW244392   2.554   6.705   3.817 -0.3367 -0.3302  0.3712
13632SOL     OW44393   4.855   2.777   8.351 -0.3298 -0.1936 -0.2475
13632SOL    HW144394   4.895   2.827   8.280 -0.0337 -2.4233 -1.7792
13632SOL    HW244395   4.917   2.783   8.423 -0.1469  1.3039 -0.5065
13633SOL     OW44396   5.072   5.883   9.946 -0.4208  0.3542  0.3420
13633SOL    HW144397   5.003   5.922   9.892 -0.7725  1.2737  1.4285
13633SOL    HW244398   5.084   5.944  10.018  0.1357 -0.7870  1.2473
13634SOL     OW44399   3.672   8.271   0.387 -0.6453  0.2672  1.0219
13634SOL    HW144400   3.687   8.360   0.417  1.9438 -0.1441  1.1754
13634SOL    HW244401   3.668   8.278   0.292 -0.6723  0.5642  1.0457
13635SOL     OW44402   8.563   4.016   8.963  0.0282 -0.4241 -0.1038
13635SOL    HW144403   8.537   4.013   8.871 -0.1581 -0.9838 -0.0414
13635SOL    HW244404   8.592   3.926   8.982  2.8335  0.3231 -0.3944
13636SOL     OW44405   0.537   1.947   7.193 -0.3157  0.2191 -0.3079
13636SOL    HW144406   0.467   1.886   7.169 -0.6341 -0.0484  1.1919
13636SOL    HW244407   0.512   1.979   7.280  1.2269  0.4149  0.0990
13637SOL     OW44408   4.977   1.237   4.025  0.6728  0.2415  0.6138
13637SOL    HW144409   4.893   1.271   4.055  0.2259  0.7336 -1.0980
13637SOL    HW244410   5.018   1.312   3.981 -0.3169 -1.2704 -3.2520
13638SOL     OW44411   8.410   3.561   7.143  0.0293  0.3425 -0.3224
13638SOL    HW144412   8.459   3.643   7.132 -0.3807  0.5334 -0.7936
13638SOL    HW244413   8.345   3.580   7.210  0.3960  0.1849  0.0782
13639SOL     OW44414   2.641   0.981   5.867  0.0255 -0.3542  0.3266
13639SOL    HW144415   2.618   1.071   5.889  0.0467 -0.2906  0.0919
13639SOL    HW244416   2.735   0.983   5.850 -0.3039 -0.0105 -1.6453
13640SOL     OW44417   5.062   0.671  10.613 -0.6734  0.7526  1.2043
13640SOL    HW144418   5.023   0.600  10.664 -1.9122 -0.0756 -0.7817
13640SOL    HW244419   4.991   0.735  10.602 -1.2419 -0.2234 -1.4554
13641SOL     OW44420   4.047   9.244   4.856 -0.4529 -0.1028  0.2300
13641SOL    HW144421   4.130   9.288   4.840 -0.0290 -0.7570  0.6136
13641SOL    HW244422   4.068   9.151   4.856 -0.8946 -0.2443  1.8749
13642SOL     OW44423   1.123   6.845   6.070  0.2460 -0.2029 -0.1871
13642SOL    HW144424   1.063   6.873   6.001  0.5776  0.3326 -0.2595
13642SOL    HW244425   1.182   6.919   6.083  1.0891 -0.8254 -0.3233
13643SOL     OW44426   6.917   9.133   7.494 -0.0548 -0.2885  0.3068
13643SOL    HW144427   6.924   9.037   7.496 -0.5537 -0.3512 -0.6700
13643SOL    HW244428   6.982   9.162   7.558  0.8957 -1.2418 -0.1886
13644SOL     OW44429   6.454   4.012   9.280 -0.4064 -0.1338  0.2598
13644SOL    HW144430   6.519   3.980   9.217  0.0847 -0.1962  0.7879
13644SOL    HW244431   6.405   3.934   9.306 -0.1947 -0.2160  0.4192
13645SOL     OW44432   5.063  10.505   4.986  0.0866 -0.2064  0.4386
13645SOL    HW144433   4.970  10.527   4.987 -0.2401 -1.5145  1.4344
13645SOL    HW244434   5.076  10.458   4.904 -0.6547 -2.0348  1.3359
13646SOL     OW44435   2.986   3.314   0.159  0.0532  0.5327  0.5052
13646SOL    HW144436   2.913   3.304   0.097 -0.4696  2.5157  0.7220
13646SOL    HW244437   3.052   3.252   0.128 -2.2073 -2.4092  1.1497
13647SOL     OW44438   9.945   3.210   7.818  0.0933 -0.2196 -0.4580
13647SOL    HW144439   9.856   3.204   7.853  0.0563  0.6497 -0.3735
13647SOL    HW244440   9.994   3.257   7.886  0.2053  0.7943 -1.2147
13648SOL     OW44441   3.347   3.094   9.048 -0.0362 -0.1586 -0.0179
13648SOL    HW144442   3.428   3.125   9.007 -0.5551  1.4791  0.0883
13648SOL    HW244443   3.312   3.029   8.987  0.1095  0.9401 -1.3192
13649SOL     OW44444   0.826   6.623   0.251 -0.2831 -0.2170  0.1627
13649SOL    HW144445   0.840   6.717   0.266 -2.2773 -0.0969  1.5378
13649SOL    HW244446   0.798   6.589   0.336  0.2643 -2.0591 -0.3594
13650SOL     OW44447   7.537   1.355   4.069 -0.5209 -0.4421  0.3868
13650SOL    HW144448   7.517   1.274   4.115 -1.2143 -0.3866  0.1871
13650SOL    HW244449   7.478   1.356   3.994 -0.9090  0.5152  0.6944
13651SOL     OW44450   0.955   0.669   1.242 -0.0032  0.3663  0.1427
13651SOL    HW144451   1.003   0.710   1.313 -0.9281  0.8408  0.5051
13651SOL    HW244452   1.023   0.634   1.184  0.7900  1.8571  0.1451
13652SOL     OW44453   0.264   0.356   9.048  0.1493 -0.4653  0.3412
13652SOL    HW144454   0.296   0.317   8.967 -0.8588 -0.6788  0.0412
13652SOL    HW244455   0.169   0.345   9.045  0.1651 -1.2811  1.9632
13653SOL     OW44456   8.796   2.167   2.609 -0.6384  0.7827  0.2925
13653SOL    HW144457   8.709   2.152   2.646 -0.2790 -1.7319  0.2738
13653SOL    HW244458   8.791   2.256   2.573 -2.2261  1.8557  2.8625
13654SOL     OW44459   8.148   7.384   7.145 -0.4511  0.1120 -0.1156
13654SOL    HW144460   8.165   7.329   7.068  1.8950  0.3559  0.1517
13654SOL    HW244461   8.131   7.471   7.109  0.7574  0.2518 -0.3873
13655SOL     OW44462   4.925   6.465   6.799  0.0181 -0.8512 -0.1840
13655SOL    HW144463   4.931   6.369   6.801  0.0521 -0.8437  0.2925
13655SOL    HW244464   4.888   6.488   6.884  0.2634 -0.4239 -0.1918
13656SOL     OW44465  10.477   9.949   9.446  0.4513 -0.3672 -0.5402
13656SOL    HW144466  10.419   9.902   9.506  0.6233 -0.4767 -0.4590
13656SOL    HW244467  10.541   9.990   9.503  1.2863 -1.3901 -0.7149
13657SOL     OW44468   0.307   5.381   3.366 -0.4358  0.4737  0.1320
13657SOL    HW144469   0.217   5.350   3.375 -0.0158 -0.2745  2.8003
13657SOL    HW244470   0.361   5.307   3.395  0.8929  1.6069  0.6982
13658SOL     OW44471   1.551   8.379   6.372  0.1472  0.1450 -0.4286
13658SOL    HW144472   1.562   8.346   6.282 -0.1960 -2.0093  0.2779
13658SOL    HW244473   1.630   8.351   6.417  1.0425  2.5262 -0.3451
13659SOL     OW44474   5.651   9.299   7.867 -0.4128  0.1630  0.1134
13659SOL    HW144475   5.717   9.369   7.867  0.3984 -0.5688 -1.0784
13659SOL    HW244476   5.597   9.318   7.791  1.2609 -1.7673 -1.6689
13660SOL     OW44477   1.560  10.744   1.997 -0.5264  0.1871 -0.5877
13660SOL    HW144478   1.515  10.661   1.980  1.4832 -0.6058 -2.5427
13660SOL    HW244479   1.529  10.803   1.928  0.3166  0.0787 -1.0695
13661SOL     OW44480   1.380   3.726   4.865 -0.2207  0.4053 -0.2076
13661SOL    HW144481   1.429   3.686   4.794  1.3739  0.2331  0.9291
13661SOL    HW244482   1.437   3.718   4.941 -1.4925  1.3741  0.9054
13662SOL     OW44483   6.928   4.074   9.411 -0.0246  0.5546 -0.0424
13662SOL    HW144484   6.858   4.139   9.399 -0.5036 -0.1316 -1.0390
13662SOL    HW244485   6.986   4.087   9.337 -0.5269 -0.6337 -0.6696
13663SOL     OW44486   4.085   4.457   7.041 -0.1814 -0.2245 -0.1657
13663SOL    HW144487   4.172   4.417   7.045 -0.3381 -0.5173  0.6067
13663SOL    HW244488   4.088   4.514   6.964 -0.5385 -3.1085 -2.5039
13664SOL     OW44489   0.293   1.697   5.182  0.1896  0.4427 -0.1981
13664SOL    HW144490   0.204   1.662   5.184  0.0658  0.7701 -0.0502
13664SOL    HW244491   0.330   1.674   5.267 -0.0252  1.0204  0.0543
13665SOL     OW44492   6.750  10.314   3.294 -0.1407 -0.0476  0.7332
13665SOL    HW144493   6.701  10.377   3.242  1.2556  0.8894  0.5263
13665SOL    HW244494   6.705  10.313   3.379 -1.1596 -0.0377  0.2139
13666SOL     OW44495   9.208   5.488   9.500  0.2738  0.7508 -0.0173
13666SOL    HW144496   9.158   5.440   9.566  1.1544  0.6790  0.6336
13666SOL    HW244497   9.186   5.446   9.417  1.7765 -1.5191  0.6274
13667SOL     OW44498   7.057   6.104   2.161 -0.2218 -0.1379 -0.5227
13667SOL    HW144499   7.130   6.045   2.142  0.5624  0.8312 -0.5598
13667SOL    HW244500   6.982   6.045   2.173  1.0576 -1.4134  2.2778
13668SOL     OW44501   8.281  10.520   4.552  0.5630 -0.3466 -0.5542
13668SOL    HW144502   8.330  10.573   4.615 -1.3346  1.3451 -0.3761
13668SOL    HW244503   8.276  10.575   4.473 -0.9691 -0.4628 -0.5733
13669SOL     OW44504   5.464   9.838  10.243 -0.0442  0.3204  0.4206
13669SOL    HW144505   5.532   9.876  10.187  0.6814 -0.4866  0.7189
13669SOL    HW244506   5.397   9.906  10.250 -0.3150  0.3201 -1.6822
13670SOL     OW44507   5.971   2.948   3.622 -0.0208  0.6525  0.3068
13670SOL    HW144508   5.957   2.925   3.714 -0.5929 -2.9594 -0.5300
13670SOL    HW244509   6.065   2.963   3.614  0.1270  0.3221  1.3413
13671SOL     OW44510   9.036   7.372   5.482 -0.0172 -0.2154 -0.5354
13671SOL    HW144511   9.022   7.334   5.396  0.6902 -0.2297 -0.6525
13671SOL    HW244512   9.112   7.429   5.471 -1.0808  1.3039 -0.3906
13672SOL     OW44513   7.202   5.738   5.688 -0.1081 -0.2640  0.8462
13672SOL    HW144514   7.165   5.720   5.774 -0.6605 -1.5937  0.3429
13672SOL    HW244515   7.224   5.652   5.652 -2.4529 -0.0169 -1.4698
13673SOL     OW44516   7.045  10.147  10.375  0.0576  0.1044 -0.0960
13673SOL    HW144517   7.091  10.206  10.315 -0.4102 -0.1265 -0.6851
13673SOL    HW244518   7.115  10.092  10.412  0.8823  2.5851  2.3381
13674SOL     OW44519   7.694   0.043   6.808  0.3029 -0.6085  1.1696
13674SOL    HW144520   7.708   0.137   6.824 -2.7464  0.2353 -0.2418
13674SOL    HW244521   7.723   0.030   6.718 -0.1806 -0.7807  1.0390
13675SOL     OW44522  10.555  10.681   0.292 -0.2279  0.0958  0.2985
13675SOL    HW144523  10.463  10.709   0.295 -0.2648 -0.1051  1.3159
13675SOL    HW244524  10.582  10.699   0.202 -0.9879  1.0436  0.2427
13676SOL     OW44525   6.723   2.047   3.276  0.2155 -0.3668  0.8483
13676SOL    HW144526   6.790   1.979   3.273 -0.0904 -0.6453 -0.0154
13676SOL    HW244527   6.769   2.127   3.250  0.2717 -0.5159  0.4753
13677SOL     OW44528   9.793   5.273   7.775 -0.1267 -0.1562  0.3812
13677SOL    HW144529   9.725   5.244   7.836 -1.7632  1.6208 -0.4897
13677SOL    HW244530   9.751   5.269   7.689  0.8701  0.9730 -0.1805
13678SOL     OW44531   6.699   0.571   1.951 -0.0342  0.1721 -0.0759
13678SOL    HW144532   6.667   0.485   1.926 -2.4245  1.5075 -2.1664
13678SOL    HW244533   6.624   0.613   1.994  1.4211  0.8815  1.9047
13679SOL     OW44534   9.941   7.417   3.461 -0.2460 -0.4596 -0.4240
13679SOL    HW144535   9.935   7.512   3.461 -2.1484 -0.5371  0.0378
13679SOL    HW244536  10.000   7.397   3.534  0.0222  0.3497 -0.4098
13680SOL     OW44537   6.284   4.731   1.758 -0.4217 -0.5660  0.4034
13680SOL    HW144538   6.260   4.823   1.760  0.1845 -0.4184  1.1976
13680SOL    HW244539   6.233   4.695   1.685 -0.7789  0.3545  0.1820
13681SOL     OW44540   3.811   1.369  10.164  0.2802  0.1979 -0.5529
13681SOL    HW144541   3.728   1.415  10.175  0.7809  1.3078 -1.2459
13681SOL    HW244542   3.852   1.369  10.251  0.2241  0.9733 -0.5253
13682SOL     OW44543   6.824  10.934   7.575 -0.3760 -0.3486 -0.6782
13682SOL    HW144544   6.878  10.996   7.623 -0.6362 -0.2854 -0.4612
13682SOL    HW244545   6.791  10.984   7.500 -2.2075  0.4075  0.5576
13683SOL     OW44546   6.052   0.863   0.846  0.2058  0.4693  0.7548
13683SOL    HW144547   5.971   0.892   0.803  1.3209  1.1379 -1.0311
13683SOL    HW244548   6.053   0.768   0.835 -0.0537  0.5251  0.2349
13684SOL     OW44549   7.095   0.153  10.759  0.3675 -0.2992 -0.0468
13684SOL    HW144550   7.005   0.130  10.780 -0.1606  1.4009 -0.3178
13684SOL    HW244551   7.120   0.216  10.826  0.0626  2.0233 -1.9752
13685SOL     OW44552   1.071   4.909   6.401  0.4978  0.7007 -0.1891
13685SOL    HW144553   1.076   4.925   6.307  1.0325 -1.2546 -0.5408
13685SOL    HW244554   1.062   4.996   6.440 -0.9761  1.4717 -2.0995
13686SOL     OW44555   1.060   8.548   8.931 -0.1387 -0.0883  0.6708
13686SOL    HW144556   1.091   8.473   8.879 -2.0286 -0.4000 -0.0664
13686SOL    HW244557   1.101   8.535   9.017  0.5581 -1.2708  0.1931
13687SOL     OW44558   9.958   8.553   7.430  0.5238  0.3984 -0.2682
13687SOL    HW144559   9.899   8.485   7.398  0.6311 -0.1303  0.6297
13687SOL    HW244560   9.900   8.627   7.449 -0.1770 -0.6358  2.1390
13688SOL     OW44561   2.309   7.058   5.516  0.3036 -0.3261  0.0107
13688SOL    HW144562   2.253   7.018   5.582  1.3954 -0.0165  1.1540
13688SOL    HW244563   2.361   7.122   5.564  1.7976 -0.7500 -0.9770
13689SOL     OW44564  10.059   7.118   7.069  0.1198 -0.0418 -0.1166
13689SOL    HW144565  10.039   7.169   6.991 -1.2651  2.4477  1.7125
13689SOL    HW244566   9.996   7.046   7.067 -0.9724  0.8854 -0.5576
13690SOL     OW44567   5.010   3.613  10.606  0.1146 -0.4192 -0.1562
13690SOL    HW144568   5.063   3.565  10.670  0.2127 -1.0804 -0.7226
13690SOL    HW244569   4.993   3.549  10.537 -0.0187  0.2796 -0.7715
13691SOL     OW44570   7.965  10.158   1.866  0.4287  0.0016  0.4038
13691SOL    HW144571   7.950  10.171   1.960 -0.1173 -1.7450  0.5852
13691SOL    HW244572   7.907  10.086   1.842  0.9264  0.0891 -1.1856
13692SOL     OW44573   6.924   5.758   0.313  0.2834 -0.1234 -0.3837
13692SOL    HW144574   6.994   5.711   0.359  1.8576  2.0265 -0.4284
13692SOL    HW244575   6.873   5.800   0.383 -0.0942 -0.5149 -0.4197
13693SOL     OW44576   5.399   2.467   2.540 -0.4509  0.1194 -0.1853
13693SOL    HW144577   5.375   2.472   2.447  1.2445  1.1393 -0.6006
13693SOL    HW244578   5.337   2.525   2.583 -1.0476 -0.1108 -0.7072
13694SOL     OW44579  10.387   5.399   9.163 -0.1435  0.4837  0.5581
13694SOL    HW144580  10.347   5.322   9.203  1.8037 -1.0898 -0.3170
13694SOL    HW244581  10.399   5.374   9.071  0.5398  1.8410  0.2610
13695SOL     OW44582   6.819   8.034   6.837  0.6544  0.5281  0.0583
13695SOL    HW144583   6.850   7.992   6.917 -0.4604 -0.2517  0.1033
13695SOL    HW244584   6.865   7.988   6.767  0.1034 -0.2056  0.1570
13696SOL     OW44585   4.537   3.847   9.569  0.3217 -0.4132  0.0211
13696SOL    HW144586   4.489   3.926   9.597 -0.0233 -0.8284  0.6342
13696SOL    HW244587   4.570   3.810   9.651 -1.5101 -2.1895  0.0297
13697SOL     OW44588   1.134   0.506   2.743  0.2838  0.5410  0.4574
13697SOL    HW144589   1.092   0.530   2.825 -0.8843  0.6306 -0.1505
13697SOL    HW244590   1.072   0.447   2.700  0.5815  1.0007 -0.6500
13698SOL     OW44591   9.516  10.229   2.476  0.6256  0.8812  0.6155
13698SOL    HW144592   9.518  10.313   2.522  0.5728 -0.0135  2.3527
13698SOL    HW244593   9.608  10.210   2.457  0.5284  2.0515 -1.2627
13699SOL     OW44594   4.675   8.268   8.755  0.3686  0.4830 -0.1722
13699SOL    HW144595   4.639   8.319   8.682 -1.4161  0.0663  0.3592
13699SOL    HW244596   4.760   8.308   8.773  0.1621  1.5757 -1.4693
13700SOL     OW44597   3.382   0.421   0.917 -0.1511  0.5412  0.4737
13700SOL    HW144598   3.311   0.431   0.980 -0.8978  0.5299 -0.3440
13700SOL    HW244599   3.452   0.477   0.950 -0.0090 -0.5057  2.0246
13701SOL     OW44600   7.658   6.337   1.814  0.2698  0.3776  0.0912
13701SOL    HW144601   7.579   6.301   1.775  0.8771  0.2132 -1.0471
13701SOL    HW244602   7.641   6.430   1.822 -0.2561  0.2585  0.4138
13702SOL     OW44603   2.761   3.589   6.803 -0.3793  0.0070  0.2731
13702SOL    HW144604   2.792   3.673   6.839 -0.1822 -0.5223  1.3819
13702SOL    HW244605   2.728   3.541   6.879  2.0655 -2.0477  0.1958
13703SOL     OW44606   3.813   1.405   5.466 -0.3430 -0.2719  0.0997
13703SOL    HW144607   3.757   1.340   5.509  2.1532 -2.0501  0.9229
13703SOL    HW244608   3.895   1.358   5.450  1.1183  2.3305 -0.5150
13704SOL     OW44609   9.975   8.538   6.444  0.1511 -0.2457  0.5124
13704SOL    HW144610  10.022   8.486   6.379 -0.0795 -1.4191  1.2446
13704SOL    HW244611   9.884   8.507   6.439 -0.3548  1.2783 -0.1832
13705SOL     OW44612   6.708   0.618   1.694  0.1524 -0.3383 -0.5958
13705SOL    HW144613   6.680   0.601   1.784  1.4992  1.9522  0.3361
13705SOL    HW244614   6.744   0.535   1.663  1.1755 -0.7572  1.5789
13706SOL     OW44615   7.625  10.491   1.094  0.2122  0.6615  0.5183
13706SOL    HW144616   7.638  10.426   1.025 -0.9186  0.2890  0.6361
13706SOL    HW244617   7.542  10.533   1.072 -1.2696 -0.8872  2.7246
13707SOL     OW44618   4.002   1.860   3.427  0.2951  0.4068 -0.1902
13707SOL    HW144619   3.978   1.910   3.350 -0.3615  0.0892 -0.2024
13707SOL    HW244620   4.024   1.773   3.394  2.1711  0.8579 -0.2573
13708SOL     OW44621   4.924   8.433   4.502  0.0926  0.7748 -0.5464
13708SOL    HW144622   4.922   8.499   4.433  0.3154  2.8324  1.3286
13708SOL    HW244623   4.840   8.442   4.547  0.6437  0.6907  0.5341
13709SOL     OW44624   6.051   9.603   1.615 -0.6984  0.1107  0.2684
13709SOL    HW144625   6.059   9.513   1.646 -3.4909 -0.6572 -0.9304
13709SOL    HW244626   6.007   9.649   1.687 -0.6978  0.1262  0.2588
13710SOL     OW44627   9.394   3.342   1.896 -0.2658  0.1352 -0.4828
13710SOL    HW144628   9.328   3.283   1.860 -0.3610 -0.4536  0.6160
13710SOL    HW244629   9.344   3.415   1.931 -0.1748  0.6933 -1.4814
13711SOL     OW44630   8.516   5.942  10.494 -0.1006  0.4927  0.0741
13711SOL    HW144631   8.528   5.915  10.403 -2.3009 -1.1130  0.1858
13711SOL    HW244632   8.517   6.038  10.490 -0.7676  0.4695 -1.7592
13712SOL     OW44633   3.711   9.207   8.810  0.1468 -0.3348  0.3995
13712SOL    HW144634   3.712   9.127   8.757 -1.0200  0.3842 -0.7892
13712SOL    HW244635   3.732   9.178   8.899 -1.0444 -2.0940  0.1619
13713SOL     OW44636   4.091   1.167   0.261  0.3400 -0.3276 -0.0849
13713SOL    HW144637   4.005   1.207   0.277  0.5221 -0.3719  1.1013
13713SOL    HW244638   4.149   1.207   0.325  1.1134 -0.6330 -0.5752
13714SOL     OW44639   1.488   5.571   0.605 -0.1416  0.5755  0.2261
13714SOL    HW144640   1.397   5.546   0.622  0.7084 -2.0442  1.4379
13714SOL    HW244641   1.517   5.511   0.536  0.5821  1.6737 -0.4695
13715SOL     OW44642   0.312   1.062   3.282 -0.9721 -0.1239 -0.3698
13715SOL    HW144643   0.293   0.968   3.276  0.4855 -0.6950  2.1821
13715SOL    HW244644   0.233   1.100   3.320 -1.8697 -0.1204 -2.1326
13716SOL     OW44645   6.552  10.806   3.281 -0.3002  0.7460  0.2618
13716SOL    HW144646   6.548  10.774   3.371 -0.1817 -0.6833 -0.2186
13716SOL    HW244647   6.504  10.741   3.230  1.3617  0.4410 -1.0022
13717SOL     OW44648   0.223   1.438  10.020 -0.2108  0.1558  0.3167
13717SOL    HW144649   0.202   1.345  10.011  0.5176 -0.0454  0.5541
13717SOL    HW244650   0.139   1.483  10.015 -0.5243 -0.4750 -0.3296
13718SOL     OW44651   7.882   0.799   3.098  0.2995 -0.2818  0.3324
13718SOL    HW144652   7.834   0.722   3.067  0.3283 -0.0274 -0.3679
13718SOL    HW244653   7.962   0.801   3.045  0.5258 -0.0434  0.6788
13719SOL     OW44654   9.010   9.750   2.398  0.2917  0.5670  0.6991
13719SOL    HW144655   8.959   9.701   2.333  1.1995  0.1943  0.2551
13719SOL    HW244656   9.083   9.692   2.419  1.7214  1.9667 -0.2738
13720SOL     OW44657   3.911   0.488   7.866  1.1608 -0.1635 -0.3568
13720SOL    HW144658   3.915   0.404   7.911 -1.3090 -1.1491 -1.7528
13720SOL    HW244659   3.836   0.480   7.806 -0.5884  3.7641  0.9333
13721SOL     OW44660   5.908   4.789  10.254 -0.0157 -0.3260 -0.0527
13721SOL    HW144661   5.966   4.786  10.178  0.4536  0.6392  0.2636
13721SOL    HW244662   5.842   4.721  10.235 -0.1977  0.2192 -1.5530
13722SOL     OW44663  10.065   3.525   8.756 -0.7507 -0.3287  0.3683
13722SOL    HW144664  10.059   3.547   8.664  0.7947  0.1952  0.3587
13722SOL    HW244665  10.128   3.452   8.759  0.6441  0.8487  1.1301
13723SOL     OW44666  10.455   2.349   5.398 -0.0646 -0.1409  0.3649
13723SOL    HW144667  10.495   2.426   5.356 -2.2241  0.8653  0.0166
13723SOL    HW244668  10.404   2.307   5.329 -0.8003 -0.5212  1.1181
13724SOL     OW44669   8.246   2.531   3.559  0.1250  0.4405  0.1412
13724SOL    HW144670   8.189   2.504   3.487  1.5557 -0.6992 -0.6133
13724SOL    HW244671   8.235   2.626   3.563 -0.9102  0.3822 -0.7651
13725SOL     OW44672   7.574   6.963  10.439 -0.3880 -0.6027 -0.0944
13725SOL    HW144673   7.482   6.980  10.417 -0.2590  1.0307  0.4971
13725SOL    HW244674   7.621   6.979  10.357 -0.7149 -2.6887 -0.7462
13726SOL     OW44675   2.926   3.332   6.391 -0.2697 -0.1171  0.0452
13726SOL    HW144676   2.912   3.380   6.473  1.3520  0.0701  0.2478
13726SOL    HW244677   2.992   3.383   6.344  0.4289 -1.3792 -0.3936
13727SOL     OW44678   5.184   1.379   9.400  0.8466 -0.3630 -0.0645
13727SOL    HW144679   5.174   1.284   9.391  0.6372 -0.3500  0.0491
13727SOL    HW244680   5.279   1.393   9.391  0.8179 -0.5250 -0.6109
13728SOL     OW44681   4.795   6.027   4.134  0.8214  0.7143 -0.1127
13728SOL    HW144682   4.774   6.103   4.189  0.1635 -0.6051  1.5320
13728SOL    HW244683   4.711   6.000   4.098  1.0106  0.6056 -0.4697
13729SOL     OW44684   1.176   3.542   8.873  0.2750  0.0619  0.0402
13729SOL    HW144685   1.175   3.449   8.848 -1.9201 -0.1748  0.7104
13729SOL    HW244686   1.120   3.545   8.951 -1.3745  2.2170 -1.1362
13730SOL     OW44687   8.109   4.201  10.050  0.6707 -0.4377 -0.4957
13730SOL    HW144688   8.178   4.238   9.994  1.6019 -1.5462 -0.1233
13730SOL    HW244689   8.028   4.221  10.004  1.2214  0.9628 -0.9219
13731SOL     OW44690   6.572   0.399   2.156 -0.5690 -0.1897  0.2552
13731SOL    HW144691   6.533   0.396   2.244 -0.5865  0.1784  0.2600
13731SOL    HW244692   6.521   0.335   2.106 -1.5487  0.6628  0.1182
13732SOL     OW44693  10.230   9.814   1.516  0.1230  0.0018 -0.2615
13732SOL    HW144694  10.294   9.772   1.459  2.0562  2.9726 -0.4677
13732SOL    HW244695  10.256   9.790   1.604 -0.3233 -1.1571 -0.4192
13733SOL     OW44696   2.412   8.445   1.868 -0.4974  0.6185 -0.1000
13733SOL    HW144697   2.395   8.468   1.959  0.4533  1.6936 -0.1744
13733SOL    HW244698   2.326   8.419   1.833 -1.0464  1.1173  0.8434
13734SOL     OW44699   0.800   3.513   5.038  0.4317 -0.1775  0.1913
13734SOL    HW144700   0.710   3.544   5.053  0.1171 -0.4922 -0.9410
13734SOL    HW244701   0.818   3.536   4.947  2.2529  1.6729  0.9463
13735SOL     OW44702   2.846   6.113   2.756 -0.3425 -0.2785  0.0068
13735SOL    HW144703   2.859   6.047   2.824  0.4938 -0.1145  0.0118
13735SOL    HW244704   2.811   6.189   2.803 -1.1574 -0.6521  0.0243
13736SOL     OW44705   1.432   1.701   4.315  0.6400 -0.5906  0.1336
13736SOL    HW144706   1.492   1.683   4.387 -0.4815  1.2509  1.6190
13736SOL    HW244707   1.417   1.796   4.319 -2.4668 -0.9718 -0.0035
13737SOL     OW44708   0.275   8.753   2.733 -0.2155  0.8525  0.0327
13737SOL    HW144709   0.260   8.739   2.826  0.4304  1.7437  0.2867
13737SOL    HW244710   0.359   8.711   2.715 -0.8838 -0.3380 -0.4215
13738SOL     OW44711   6.443   5.646  10.468  0.6371 -0.0813  0.0294
13738SOL    HW144712   6.534   5.627  10.448  0.6379  1.0992 -1.2617
13738SOL    HW244713   6.424   5.595  10.546  2.2154 -0.8291 -0.0455
13739SOL     OW44714   4.386   2.846   9.067 -0.1353 -0.1457  0.5830
13739SOL    HW144715   4.339   2.929   9.058  0.2154  0.0700  0.7669
13739SOL    HW244716   4.340   2.800   9.137 -1.3640 -0.8112 -0.5872
13740SOL     OW44717   8.498   5.879   4.970 -0.1555  0.6889  0.5602
13740SOL    HW144718   8.495   5.804   5.029 -1.5455  0.7105  0.5386
13740SOL    HW244719   8.591   5.890   4.950 -0.0273 -2.7615 -1.6699
13741SOL     OW44720  10.759   6.544   8.553 -0.7670  0.6893 -0.1923
13741SOL    HW144721  10.705   6.589   8.618  1.4510  4.8135 -0.8667
13741SOL    HW244722  10.776   6.610   8.486  4.3401 -0.3961 -0.3762
13742SOL     OW44723   8.922   1.079   8.480 -0.5377 -0.1562  0.0017
13742SOL    HW144724   8.978   1.155   8.466 -3.6662  2.2392 -0.7038
13742SOL    HW244725   8.892   1.088   8.570  0.2627 -1.5331  0.4415
13743SOL     OW44726   9.855   8.457   9.795  0.2239  0.0472  0.0340
13743SOL    HW144727   9.931   8.399   9.790  0.4849  0.3913 -0.0880
13743SOL    HW244728   9.851   8.482   9.888  1.7690  1.9660 -0.3423
13744SOL     OW44729   0.035   9.602   7.737 -0.0297 -0.1545  0.0849
13744SOL    HW144730  -0.007   9.679   7.775  0.3947  0.0313  0.1711
13744SOL    HW244731  -0.030   9.532   7.748 -1.3408  0.6381 -1.9097
13745SOL     OW44732   9.030   9.180   9.656  0.1396  0.1394 -0.7128
13745SOL    HW144733   9.005   9.213   9.742  0.3146 -0.5913 -0.3725
13745SOL    HW244734   8.956   9.202   9.600  0.5384  1.7141 -0.6746
13746SOL     OW44735  10.286   5.823   3.452 -0.5261  0.0073  0.0555
13746SOL    HW144736  10.241   5.759   3.508  0.3419 -0.1275  0.6319
13746SOL    HW244737  10.379   5.801   3.462 -0.1930  1.4899  0.4400
13747SOL     OW44738   7.725   3.354   3.099 -0.0649  0.4520  0.1216
13747SOL    HW144739   7.706   3.291   3.168 -0.5012  1.7113  1.2045
13747SOL    HW244740   7.645   3.407   3.092  0.6103  1.4968 -0.0646
13748SOL     OW44741   6.832   8.395   3.502  0.0973  0.3907  0.2744
13748SOL    HW144742   6.862   8.308   3.474 -0.0988  0.3741  0.1129
13748SOL    HW244743   6.738   8.395   3.484  0.1359  0.7157  0.0581
13749SOL     OW44744   6.555   7.373   9.844 -0.0370 -0.3897  0.0931
13749SOL    HW144745   6.643   7.399   9.870  0.2258 -1.9398  0.8717
13749SOL    HW244746   6.516   7.453   9.809  0.8766  0.9199  1.8940
13750SOL     OW44747   2.573   4.142   8.595 -0.2951 -0.2865 -0.3021
13750SOL    HW144748   2.591   4.199   8.669 -0.2492 -1.5217  0.6538
13750SOL    HW244749   2.503   4.084   8.625  1.1587 -2.1978 -0.4643
13751SOL     OW44750   9.748   8.472   3.463  0.4566  0.1796 -0.2503
13751SOL    HW144751   9.821   8.510   3.513 -1.9981  3.6890  1.0461
13751SOL    HW244752   9.726   8.391   3.510  1.2386  0.9553  1.5441
13752SOL     OW44753   2.212   2.410   4.395  0.1804  0.1069  0.2120
13752SOL    HW144754   2.183   2.485   4.448 -0.8513 -0.1670  0.0507
13752SOL    HW244755   2.307   2.407   4.409  0.0506  0.5780  1.3461
13753SOL     OW44756   8.596   9.294   5.975 -0.3829  0.0828 -0.1987
13753SOL    HW144757   8.582   9.203   6.002 -1.5673 -0.2872 -1.9057
13753SOL    HW244758   8.569   9.346   6.051 -0.3968 -0.9583  0.5279
13754SOL     OW44759   2.268   6.621   7.848 -0.7172  0.1800  0.6230
13754SOL    HW144760   2.319   6.544   7.870 -0.6699  0.5536  1.8915
13754SOL    HW244761   2.179   6.588   7.833 -0.4941 -0.2362  0.1988
13755SOL     OW44762   3.436   5.827   1.522  0.1289  0.2915  0.4476
13755SOL    HW144763   3.449   5.849   1.614  0.6008  1.1483  0.1878
13755SOL    HW244764   3.520   5.844   1.481  0.8732 -2.9902  0.3569
13756SOL     OW44765   2.819   2.263  10.705  0.3206 -0.7660  0.6301
13756SOL    HW144766   2.732   2.300  10.721  0.4317  0.4805 -1.4174
13756SOL    HW244767   2.879   2.335  10.722  0.8336 -1.1349  0.3907
13757SOL     OW44768   4.572   2.133   7.375  0.2377 -0.0832  0.0859
13757SOL    HW144769   4.635   2.178   7.318 -1.0330 -1.3320 -2.5057
13757SOL    HW244770   4.510   2.092   7.314 -1.3565 -1.4059  2.4282
13758SOL     OW44771   8.289   5.839   9.341 -0.2762  0.2211 -0.2354
13758SOL    HW144772   8.199   5.816   9.364 -0.8945  2.0000 -0.7025
13758SOL    HW244773   8.280   5.916   9.284  1.4818 -0.3609 -1.3713
13759SOL     OW44774   1.199   0.111   3.002  0.3584 -0.4056  0.0140
13759SOL    HW144775   1.151   0.101   3.084  1.6017  1.5678  1.0493
13759SOL    HW244776   1.285   0.074   3.019  0.3089 -0.9078 -0.7598
13760SOL     OW44777  10.314  10.285  10.129  0.1684  0.2850  0.2566
13760SOL    HW144778  10.330  10.374  10.098  2.9934 -0.4328 -0.6693
13760SOL    HW244779  10.369  10.277  10.208 -0.1712 -0.5897  0.4117
13761SOL     OW44780   1.307   2.198   8.260  0.0792 -0.0566 -0.0013
13761SOL    HW144781   1.390   2.157   8.234 -0.1898 -0.8266  0.3458
13761SOL    HW244782   1.265   2.134   8.316  0.1986  1.1865  1.5620
13762SOL     OW44783   5.455   7.251   8.632  0.0556 -0.4718 -0.1966
13762SOL    HW144784   5.440   7.331   8.581 -2.3232  0.3274  1.5378
13762SOL    HW244785   5.381   7.194   8.609  0.3155 -1.1113  0.5042
13763SOL     OW44786   0.799   4.989   3.877 -0.2192  0.5062 -0.0718
13763SOL    HW144787   0.825   5.004   3.786 -1.4023  0.8984 -0.3589
13763SOL    HW244788   0.876   5.015   3.928 -0.0067  1.5691 -0.8942
13764SOL     OW44789   7.279   3.613  10.974  0.6580  0.3603 -0.3298
13764SOL    HW144790   7.245   3.560  10.901  1.2141  0.8537 -0.9634
13764SOL    HW244791   7.283   3.552  11.047  2.8002 -0.9661 -1.4399
13765SOL     OW44792   1.862   1.636   9.319 -0.3738 -0.0095 -0.1706
13765SOL    HW144793   1.917   1.691   9.264 -1.5265 -0.5734 -1.9575
13765SOL    HW244794   1.889   1.546   9.299 -0.6656 -0.2254  0.3623
13766SOL     OW44795   0.310   9.331   0.109  0.0777  0.0810  0.5976
13766SOL    HW144796   0.264   9.258   0.149  0.4534 -0.1387  0.6291
13766SOL    HW244797   0.351   9.377   0.182 -1.0174  0.9436  0.7034
13767SOL     OW44798   8.432   7.687   3.433  0.2546  0.2735 -0.7721
13767SOL    HW144799   8.349   7.736   3.435 -0.4561 -0.8881  0.3545
13767SOL    HW244800   8.497   7.748   3.467 -0.7374  0.3071  1.2254
13768SOL     OW44801   4.394   2.433   7.387 -0.2510  0.1533  0.5842
13768SOL    HW144802   4.389   2.519   7.346  0.1641  0.2179  0.6588
13768SOL    HW244803   4.405   2.372   7.314  1.9231  0.3958  0.6359
13769SOL     OW44804   9.886   0.275   2.520 -0.0256 -0.2063  0.0859
13769SOL    HW144805   9.851   0.187   2.507 -0.2966  0.3220 -4.1275
13769SOL    HW244806   9.818   0.320   2.570 -2.2906 -1.1086 -1.9733
13770SOL     OW44807   1.456   7.234   5.945  0.3565  0.0232 -0.2945
13770SOL    HW144808   1.456   7.216   5.851 -1.2489  0.0094 -0.3246
13770SOL    HW244809   1.523   7.301   5.957  0.9657 -0.3632 -1.3504
13771SOL     OW44810   5.953   9.785   1.190 -0.0116  0.0549  0.2900
13771SOL    HW144811   5.985   9.867   1.228  2.6996 -0.9030  0.2371
13771SOL    HW244812   5.993   9.717   1.244 -0.9822 -1.2793 -0.6217
13772SOL     OW44813   8.425   2.986   7.702 -0.3143 -0.1729  0.1303
13772SOL    HW144814   8.365   2.916   7.680 -1.2358  0.5071  0.4159
13772SOL    HW244815   8.380   3.066   7.674  1.2379  0.2475 -1.3659
13773SOL     OW44816   5.477   8.815   8.424  0.6672 -0.3853  0.1044
13773SOL    HW144817   5.413   8.749   8.398  0.9177 -1.2109  1.4854
13773SOL    HW244818   5.514   8.782   8.506  1.3530  1.1048  0.4354
13774SOL     OW44819   9.850   6.516  10.249  0.1856  0.1464 -0.2817
13774SOL    HW144820   9.929   6.465  10.263  0.2089 -0.2847 -1.8238
13774SOL    HW244821   9.784   6.451  10.224 -1.1449  0.2658  2.4996
13775SOL     OW44822   7.606   8.480   7.803  0.0011  0.3620  0.2713
13775SOL    HW144823   7.688   8.514   7.768 -0.8678  2.0710 -0.2439
13775SOL    HW244824   7.626   8.390   7.830  1.6062  0.1591 -1.3913
13776SOL     OW44825   9.975   5.566   4.025  0.0084  0.2979  0.0085
13776SOL    HW144826   9.890   5.556   3.982 -0.4025  0.2248  0.8042
13776SOL    HW244827  10.040   5.551   3.956 -0.6141 -0.8583 -0.3467
13777SOL     OW44828  10.532   6.439   4.918 -0.2170 -0.2145  0.0632
13777SOL    HW144829  10.489   6.428   4.833 -0.0325 -1.5894  0.1276
13777SOL    HW244830  10.495   6.371   4.973  1.3198 -0.8218  0.3930
13778SOL     OW44831   7.411   6.250   7.065  0.0330  0.3081  0.3545
13778SOL    HW144832   7.345   6.313   7.036  0.1274  0.2861  0.0898
13778SOL    HW244833   7.362   6.188   7.119 -0.1007  0.4841  0.4363
13779SOL     OW44834   9.789   9.964   9.956 -0.4229  0.4548  0.0192
13779SOL    HW144835   9.717   9.905   9.932 -1.2063  0.9262  1.0900
13779SOL    HW244836   9.781   9.973  10.051  0.4263  1.3347  0.0187
13780SOL     OW44837   4.089   2.770   0.216 -0.0435 -0.1360  0.2882
13780SOL    HW144838   4.077   2.717   0.138  0.8341 -1.5703  1.0901
13780SOL    HW244839   4.118   2.855   0.183 -0.0766 -0.5852 -0.9483
13781SOL     OW44840   2.934   2.084   8.788 -0.3113 -0.2456  0.6174
13781SOL    HW144841   2.867   2.021   8.758 -0.0259 -0.7581  1.0431
13781SOL    HW244842   2.923   2.159   8.730 -1.2020 -0.3598  0.6239
13782SOL     OW44843   7.249   9.105   6.418  0.0055 -0.5509  0.1323
13782SOL    HW144844   7.160   9.110   6.382 -0.6651 -1.7258  1.5171
13782SOL    HW244845   7.287   9.027   6.378 -0.1128 -0.8800  0.6684
13783SOL     OW44846  10.362   3.077   5.734  0.0216  0.1029  0.1829
13783SOL    HW144847  10.274   3.066   5.699  0.5017  0.1752 -1.1092
13783SOL    HW244848  10.407   2.996   5.711  0.6279  0.5499 -0.2389
13784SOL     OW44849   2.080   6.183   8.856  0.0958  0.1306 -0.6640
13784SOL    HW144850   2.129   6.132   8.920  0.2466  0.0342 -0.8559
13784SOL    HW244851   2.024   6.118   8.812 -1.0367  0.4027  0.3172
13785SOL     OW44852   0.872   7.499   0.239  0.1566 -0.6894  0.2110
13785SOL    HW144853   0.829   7.505   0.324 -0.3006 -2.1133  0.1200
13785SOL    HW244854   0.800   7.481   0.177  0.6444 -1.1582 -0.2353
13786SOL     OW44855   2.463  10.318   3.116 -0.5203 -0.0994  0.1116
13786SOL    HW144856   2.514  10.399   3.116 -0.2093 -0.2148  2.3683
13786SOL    HW244857   2.380  10.342   3.158 -0.5411 -0.8667  0.5268
13787SOL     OW44858   6.658   8.477   0.902  0.2382  0.2213 -0.1592
13787SOL    HW144859   6.632   8.406   0.843  0.5984  0.4568 -0.6025
13787SOL    HW244860   6.671   8.553   0.845  0.7040  0.4180  0.2033
13788SOL     OW44861   0.252   5.913   5.399 -0.4464  0.2037  0.3729
13788SOL    HW144862   0.305   5.835   5.413 -0.2512  0.4923  1.2840
13788SOL    HW244863   0.312   5.976   5.359 -0.1277  0.4880  1.2878
13789SOL     OW44864   5.141   3.119   7.196  0.5026  0.3811 -0.3159
13789SOL    HW144865   5.095   3.176   7.258  2.2008 -0.3654  1.7723
13789SOL    HW244866   5.072   3.081   7.143 -1.1426  0.5915  1.5364
13790SOL     OW44867   7.064   3.634   5.992 -0.3307  0.8028  0.7044
13790SOL    HW144868   7.062   3.699   5.922 -2.2694 -1.0112 -1.0722
13790SOL    HW244869   7.066   3.685   6.073  1.9815  2.9897 -0.5759
13791SOL     OW44870   1.811   4.032   6.102 -0.0040 -0.1125  0.7982
13791SOL    HW144871   1.826   4.093   6.174 -0.9793  0.0163  0.9145
13791SOL    HW244872   1.798   4.088   6.026  0.4474 -0.2262  0.6373
13792SOL     OW44873   1.586   1.643   9.414  0.0966 -0.0054 -0.3121
13792SOL    HW144874   1.661   1.666   9.360  1.0306  0.1956  1.0207
13792SOL    HW244875   1.553   1.561   9.377  1.5181 -0.5612 -0.3873
13793SOL     OW44876   0.280   9.729  10.953 -0.4270  0.3505 -0.0460
13793SOL    HW144877   0.373   9.753  10.951 -0.5984  1.0128 -1.2493
13793SOL    HW244878   0.246   9.772  11.031  0.4873 -0.8244  1.0436
13794SOL     OW44879   4.649  10.357   9.361  0.1097  0.1914 -0.5554
13794SOL    HW144880   4.675  10.437   9.407  0.8431  0.6233 -1.6690
13794SOL    HW244881   4.706  10.289   9.398 -0.5884  0.1471  0.4696
13795SOL     OW44882   3.561   8.079   9.332 -0.1377  0.2735 -0.4704
13795SOL    HW144883   3.501   8.152   9.342  0.0904  0.6661 -1.7956
13795SOL    HW244884   3.577   8.073   9.238 -0.2583 -1.5740 -0.4175
13796SOL     OW44885   1.059   1.752   5.390 -0.0121  0.4389 -0.3333
13796SOL    HW144886   1.096   1.773   5.476 -0.8161  1.8993 -0.3081
13796SOL    HW244887   1.112   1.680   5.358  1.1535  0.7508  0.8189
13797SOL     OW44888   5.584   1.965  10.535 -0.1308 -0.4561  0.2647
13797SOL    HW144889   5.651   1.910  10.575  1.0999 -0.2571 -1.4219
13797SOL    HW244890   5.584   1.940  10.443 -1.5089  0.4416 -0.0137
13798SOL     OW44891   6.049   9.978   4.493 -0.2415 -0.0612 -0.0879
13798SOL    HW144892   6.094  10.057   4.462 -2.1627  0.8477 -0.7030
13798SOL    HW244893   6.084   9.908   4.439 -0.6386  0.8678 -1.6008
13799SOL     OW44894   5.607  10.087   4.710 -0.2283 -0.7630 -0.2399
13799SOL    HW144895   5.673  10.021   4.731 -1.1810 -1.9509 -0.8328
13799SOL    HW244896   5.604  10.089   4.614 -1.0115 -0.6894 -0.2222
13800SOL     OW44897   1.102   2.010   3.035 -0.2555  0.2035  0.1609
13800SOL    HW144898   1.078   1.989   3.125  0.9087 -1.3520  0.1476
13800SOL    HW244899   1.183   1.961   3.020 -0.9743 -0.3984 -2.0637
13801SOL     OW44900   6.842   3.795   8.080  0.6310  0.1141 -0.1504
13801SOL    HW144901   6.753   3.770   8.103  0.5717  1.2207  0.9023
13801SOL    HW244902   6.850   3.774   7.987 -0.3793 -0.9452 -0.0218
13802SOL     OW44903   2.017   3.526   9.405 -0.4484 -0.3621 -0.5841
13802SOL    HW144904   2.064   3.467   9.464  0.5860 -0.5709 -1.5711
13802SOL    HW244905   2.005   3.606   9.456 -2.0631 -1.4553  0.8477
13803SOL     OW44906   0.092   3.690   2.525  0.5341 -0.5332  0.0684
13803SOL    HW144907   0.138   3.759   2.477  2.0681 -0.9268  0.9302
13803SOL    HW244908   0.074   3.623   2.459 -0.1320  0.2473 -0.5754
13804SOL     OW44909   6.525  10.584   2.472  0.3588  0.6370  0.0217
13804SOL    HW144910   6.474  10.652   2.428  0.5854  0.2749 -0.8215
13804SOL    HW244911   6.481  10.572   2.557 -2.4456 -1.2736 -1.5224
13805SOL     OW44912   9.843   2.972   2.610  0.0038  0.0624  0.0726
13805SOL    HW144913   9.887   2.944   2.529 -0.9791 -2.1163  0.2293
13805SOL    HW244914   9.913   2.973   2.675  0.2223 -1.6650 -0.0676
13806SOL     OW44915   8.763   1.922   9.335  0.2709 -0.4258  0.1839
13806SOL    HW144916   8.799   2.010   9.327 -1.7848  0.6632  2.0408
13806SOL    HW244917   8.686   1.922   9.278  0.8222 -1.3958 -0.6030
13807SOL     OW44918   4.257   9.905   5.121  0.1038  0.3209  0.0890
13807SOL    HW144919   4.315   9.891   5.195  0.2356 -0.0362 -0.0831
13807SOL    HW244920   4.294   9.853   5.050 -1.0608 -0.8848  0.3058
13808SOL     OW44921   5.770   2.998   2.580  0.0179 -0.5626 -0.1180
13808SOL    HW144922   5.826   2.959   2.513  0.9441 -1.4000  1.0860
13808SOL    HW244923   5.701   2.933   2.594  0.3939 -0.8529  0.4315
13809SOL     OW44924   1.802   5.179   1.794 -0.4358 -0.0274 -0.6855
13809SOL    HW144925   1.832   5.253   1.741  0.0858 -0.3105 -0.7989
13809SOL    HW244926   1.793   5.215   1.882 -1.4299  0.4759 -0.9823
13810SOL     OW44927   1.160   5.842   4.326  0.3759 -0.0806  0.4676
13810SOL    HW144928   1.064   5.840   4.330  0.2616 -0.0343 -1.6141
13810SOL    HW244929   1.185   5.751   4.314  0.6848 -0.2208  1.9758
13811SOL     OW44930  10.638   3.201   5.086 -0.2438 -0.1323  0.1285
13811SOL    HW144931  10.615   3.207   4.994 -0.5536 -2.9391 -0.0512
13811SOL    HW244932  10.695   3.277   5.102 -1.0848  1.0278 -2.0413
13812SOL     OW44933   8.680  10.182   2.927  0.1607  0.0768  0.0787
13812SOL    HW144934   8.589  10.158   2.943 -0.1860  1.0675 -0.3201
13812SOL    HW244935   8.686  10.191   2.832  0.4741  0.7841  0.1629
13813SOL     OW44936   9.097  10.538   6.969  0.1613  0.7359  0.0779
13813SOL    HW144937   9.167  10.580   7.020  0.8294  0.7704 -0.8429
13813SOL    HW244938   9.035  10.609   6.950  0.8716  1.1411 -0.7720
13814SOL     OW44939   0.744   5.211  10.741  0.7157  0.0922  0.3613
13814SOL    HW144940   0.736   5.307  10.743  1.7111  0.1743  1.4626
13814SOL    HW244941   0.673   5.180  10.797  0.4131  0.1726  0.0301
13815SOL     OW44942   5.959   2.212   2.652  0.3439  0.3089  0.3282
13815SOL    HW144943   6.045   2.241   2.681  0.5405  0.9210 -0.7929
13815SOL    HW244944   5.916   2.291   2.620  0.2391 -0.3279 -1.1931
13816SOL     OW44945   1.181   9.685   6.700  0.2477  0.4150  0.1813
13816SOL    HW144946   1.224   9.749   6.643  1.6356 -0.8028 -0.2200
13816SOL    HW244947   1.213   9.600   6.667 -1.5323 -0.4827  0.6852
13817SOL     OW44948   7.356   8.792   9.017  0.3256  0.5677 -0.6795
13817SOL    HW144949   7.372   8.748   8.934  1.1233  0.4763 -0.4870
13817SOL    HW244950   7.302   8.867   8.994  1.2421  1.0315 -1.4253
13818SOL     OW44951   0.066   3.968   7.981  0.1486  0.1764  0.0914
13818SOL    HW144952   0.088   3.986   7.890  0.8296 -0.2713  0.1509
13818SOL    HW244953   0.148   3.935   8.019 -0.3784 -0.6038  0.6011
13819SOL     OW44954   8.953   8.074   6.617 -0.0786 -0.1108 -0.0792
13819SOL    HW144955   8.979   8.022   6.541 -1.8933 -1.4641  0.1718
13819SOL    HW244956   8.929   8.010   6.684  0.8197  1.0543  1.4306
13820SOL     OW44957   7.286  10.605   4.100  0.2748  0.2320 -0.4609
13820SOL    HW144958   7.253  10.651   4.177 -0.0150 -0.0000 -0.4475
13820SOL    HW244959   7.215  10.546   4.074  1.4995 -2.0455  0.9908
13821SOL     OW44960   8.684   1.426   7.890 -0.6237  0.3363  0.3304
13821SOL    HW144961   8.676   1.514   7.927  0.5334  0.8498 -0.5785
13821SOL    HW244962   8.632   1.428   7.810 -1.6218 -0.2123  0.9425
13822SOL     OW44963   8.018   6.845   2.544 -0.3984 -0.1184  0.0808
13822SOL    HW144964   7.924   6.834   2.533 -0.5520 -1.6264  2.2790
13822SOL    HW244965   8.028   6.881   2.632  1.0833  0.0920 -0.1430
13823SOL     OW44966   8.814   6.440   3.003 -0.0882  0.2024 -0.1199
13823SOL    HW144967   8.851   6.408   2.920  0.3205  0.4811 -0.0533
13823SOL    HW244968   8.888   6.483   3.046 -0.6796  1.5112 -0.3527
13824SOL     OW44969   4.646   5.580   4.652 -0.6871 -0.2055  0.8005
13824SOL    HW144970   4.635   5.626   4.735  2.2722  1.6385  0.3354
13824SOL    HW244971   4.661   5.650   4.588  0.1973 -1.6714 -0.6702
13825SOL     OW44972   3.627   8.140   1.111  0.8214 -0.4657  0.3424
13825SOL    HW144973   3.655   8.071   1.051  0.0961 -0.4446 -0.0357
13825SOL    HW244974   3.552   8.181   1.067  0.8892  0.1888  0.8210
13826SOL     OW44975   5.661   3.054   9.113  0.5948  0.1364 -0.7033
13826SOL    HW144976   5.584   3.006   9.082  1.6728 -1.1427 -1.5176
13826SOL    HW244977   5.732   3.025   9.055  1.6140  1.5798 -0.2322
13827SOL     OW44978   6.894   0.834   0.200 -0.1127 -0.5717  0.4564
13827SOL    HW144979   6.885   0.855   0.107 -0.2797 -1.5412  0.2392
13827SOL    HW244980   6.985   0.858   0.221 -0.0875 -0.3054  0.0618
13828SOL     OW44981   3.890   2.334   4.621  0.1609 -0.0695  0.0418
13828SOL    HW144982   3.923   2.353   4.533  1.6980  0.1667  0.6198
13828SOL    HW244983   3.853   2.246   4.615 -1.1426  0.5455 -1.1814
13829SOL     OW44984   8.937   0.976   6.209  0.2705  0.2236  0.4845
13829SOL    HW144985   8.973   0.890   6.187  0.7986  0.6132 -0.2035
13829SOL    HW244986   9.008   1.038   6.191  0.0803  0.7613  1.4883
13830SOL     OW44987   8.492  10.963   5.509  0.0113  0.1317 -0.0837
13830SOL    HW144988   8.560  10.972   5.442 -0.3231  0.2551 -0.4065
13830SOL    HW244989   8.538  10.925   5.585  0.3245 -0.2953 -0.4824
13831SOL     OW44990   5.098   6.327   3.063 -0.3564 -0.1069  0.0099
13831SOL    HW144991   5.045   6.395   3.106 -0.0839  0.7108 -0.9034
13831SOL    HW244992   5.048   6.247   3.075 -1.7333  0.6071 -0.6465
13832SOL     OW44993   2.997   9.918   2.093 -0.2435 -0.3931 -0.2603
13832SOL    HW144994   3.091   9.904   2.103 -0.1504  0.2878 -0.1753
13832SOL    HW244995   2.984   9.926   1.998 -0.0983  0.3086 -0.2243
13833SOL     OW44996   8.895   1.331   3.113  0.4343 -0.3897 -0.3296
13833SOL    HW144997   8.970   1.357   3.165 -0.4187  1.5267  0.0323
13833SOL    HW244998   8.924   1.340   3.022  0.9237 -0.6023 -0.1984
13834SOL     OW44999  10.517  10.488  10.013  0.0204 -0.0135 -0.8181
13834SOL    HW145000  10.559  10.496  10.099  1.2921  0.0407 -1.4125
13834SOL    HW245001  10.575  10.537   9.954 -1.1606  0.4861 -1.6087
13835SOL     OW45002   6.818   7.194   5.806 -0.6091  0.2098  0.0309
13835SOL    HW145003   6.851   7.246   5.733 -0.9565  0.4744  0.0606
13835SOL    HW245004   6.855   7.107   5.792 -2.0756 -0.2104 -1.4198
13836SOL     OW45005   1.427   4.108   7.949 -0.4330  0.4731 -0.6095
13836SOL    HW145006   1.495   4.110   7.881  1.8709  0.4913  1.5490
13836SOL    HW245007   1.408   4.015   7.961  1.5024  0.2230  0.8456
13837SOL     OW45008   0.548   7.353   4.889  0.6180 -0.0944  0.2580
13837SOL    HW145009   0.616   7.411   4.922  1.0989 -0.1900 -0.5500
13837SOL    HW245010   0.490   7.339   4.964  0.0711  2.0244  0.2877
13838SOL     OW45011   6.956   6.229   4.742  0.4614  0.0952 -0.3336
13838SOL    HW145012   6.896   6.295   4.776 -0.6063 -1.3652  0.7253
13838SOL    HW245013   6.964   6.165   4.812  1.2500 -1.0526 -1.4325
13839SOL     OW45014   1.397   3.298   4.041  0.6756  0.0829  0.0248
13839SOL    HW145015   1.399   3.282   3.947  2.4303  0.9345 -0.1365
13839SOL    HW245016   1.304   3.307   4.063  0.2108 -0.7237 -1.5039
13840SOL     OW45017   2.617   3.561   9.815 -0.0352 -0.1013 -0.1803
13840SOL    HW145018   2.540   3.568   9.871 -0.9449  0.8549 -1.4718
13840SOL    HW245019   2.675   3.632   9.844 -0.0315 -0.2744  0.2328
13841SOL     OW45020   9.527   4.402   3.778 -0.4138  0.3534  0.0477
13841SOL    HW145021   9.568   4.326   3.819  0.7386  0.5786 -0.6342
13841SOL    HW245022   9.459   4.429   3.839  1.4396  0.8859  1.9678
13842SOL     OW45023   7.679   0.601   6.694  0.2511 -0.4384 -0.5267
13842SOL    HW145024   7.642   0.600   6.606 -0.6428  2.0237 -0.2744
13842SOL    HW245025   7.612   0.562   6.750 -1.1016  1.8756 -0.4050
13843SOL     OW45026   2.632   6.265   4.424  0.0112  0.1037 -0.3295
13843SOL    HW145027   2.597   6.201   4.362  0.5646  0.9308 -1.5493
13843SOL    HW245028   2.621   6.350   4.380 -0.0102  0.7738  0.9194
13844SOL     OW45029   3.677   7.535  10.803  0.4191  0.5055  0.0433
13844SOL    HW145030   3.753   7.590  10.783  1.1959 -0.0951  1.2272
13844SOL    HW245031   3.677   7.469  10.734  0.8550  0.6283 -0.0784
13845SOL     OW45032   6.672   0.083  10.306  0.7193  0.1215 -0.0621
13845SOL    HW145033   6.598   0.056  10.251 -0.7909  0.7029  1.5920
13845SOL    HW245034   6.737   0.014  10.293 -0.2968 -0.6718 -1.1955
13846SOL     OW45035   4.468   4.215   9.349  0.1041 -0.0304 -0.0569
13846SOL    HW145036   4.514   4.165   9.281 -1.9691 -0.7454 -1.0104
13846SOL    HW245037   4.479   4.306   9.323  0.6884 -0.2072 -0.4526
13847SOL     OW45038   7.787   9.895   8.121  0.3500 -0.5387  0.7381
13847SOL    HW145039   7.874   9.903   8.082 -0.0067 -1.3287 -0.2546
13847SOL    HW245040   7.764   9.985   8.146 -0.4330  0.5829 -3.2019
13848SOL     OW45041   9.589   1.030   9.984 -0.5556  0.0863  0.0342
13848SOL    HW145042   9.542   1.098   9.936  1.1417  2.2117  1.2126
13848SOL    HW245043   9.521   0.984  10.034 -1.7452  0.9101 -0.7910
13849SOL     OW45044   5.397   1.794   4.295 -0.3351  0.2546 -0.0025
13849SOL    HW145045   5.452   1.817   4.370 -0.9486  0.8948  0.2584
13849SOL    HW245046   5.308   1.814   4.323 -0.8855 -2.1189  0.0973
13850SOL     OW45047   9.715  10.755   7.423  0.3730  0.2414 -0.0922
13850SOL    HW145048   9.703  10.770   7.329 -0.5908 -0.7495 -0.1373
13850SOL    HW245049   9.743  10.663   7.429  0.5046  0.3220  0.5859
13851SOL     OW45050   7.882   0.215  10.963 -0.1294 -0.8559  0.3232
13851SOL    HW145051   7.884   0.125  10.995  1.8557 -0.5682  1.1704
13851SOL    HW245052   7.825   0.261  11.024  1.2822 -0.9354  1.7633
13852SOL     OW45053   3.172   6.427   0.707 -0.5871 -0.2484 -0.6338
13852SOL    HW145054   3.131   6.357   0.657 -2.6040 -0.2687  0.9350
13852SOL    HW245055   3.146   6.411   0.797  1.0586  1.0711  0.1423
13853SOL     OW45056   0.873   3.456   1.280  0.4736  0.1023 -0.5415
13853SOL    HW145057   0.857   3.501   1.197 -2.7663 -1.5942 -0.9578
13853SOL    HW245058   0.885   3.364   1.256 -0.9350 -0.4810  0.8638
13854SOL     OW45059   2.565   5.397   9.536 -0.9557 -0.2872 -0.0065
13854SOL    HW145060   2.559   5.378   9.630  0.5983 -2.9460 -0.3434
13854SOL    HW245061   2.524   5.321   9.494  2.6802 -1.6473 -1.4871
13855SOL     OW45062   9.474   0.577   5.875 -0.4257  0.3056  0.6724
13855SOL    HW145063   9.389   0.613   5.900 -0.6788  1.5223 -1.6817
13855SOL    HW245064   9.536   0.619   5.936 -1.0866  2.4826 -0.0403
13856SOL     OW45065  10.610   4.395   3.855  0.0688 -0.5375  0.4273
13856SOL    HW145066  10.674   4.354   3.797 -0.7009 -1.7071  0.3750
13856SOL    HW245067  10.603   4.485   3.824  0.0275 -1.0136 -0.9918
13857SOL     OW45068   8.703   2.783   5.063 -0.1698  0.5001 -0.0868
13857SOL    HW145069   8.781   2.810   5.112 -0.6468 -0.0409  1.0161
13857SOL    HW245070   8.721   2.693   5.037 -1.0414 -0.1894  1.5616
13858SOL     OW45071   5.366   9.968   5.307  0.3734 -0.4604 -0.2662
13858SOL    HW145072   5.339  10.060   5.298 -0.0301 -0.3969  1.2676
13858SOL    HW245073   5.439   9.971   5.369  0.1539 -1.1899  0.0382
13859SOL     OW45074   4.666   6.670   6.270  0.4376  0.7125 -0.2514
13859SOL    HW145075   4.738   6.661   6.332  1.3607  0.8482 -1.2732
13859SOL    HW245076   4.680   6.600   6.207 -1.2553 -0.2741  0.3928
13860SOL     OW45077   0.823   1.205   0.932  0.0882  0.1089  0.5044
13860SOL    HW145078   0.847   1.297   0.945  1.5832 -0.4394  2.0102
13860SOL    HW245079   0.728   1.206   0.923  0.0603  1.7833  0.6907
13861SOL     OW45080   4.762   9.723   8.033 -0.4034 -0.5800 -0.1711
13861SOL    HW145081   4.788   9.675   7.955 -1.8723 -0.9235 -0.4720
13861SOL    HW245082   4.675   9.757   8.013 -0.4065  0.1506  0.9611
13862SOL     OW45083   5.684   8.732   1.616  0.3372  0.5362  0.1338
13862SOL    HW145084   5.708   8.825   1.626  0.4928  0.5026  0.0834
13862SOL    HW245085   5.726   8.705   1.534  1.1237  0.1665  0.6389
13863SOL     OW45086   9.731   8.330  10.886  0.5229  0.5762  0.6792
13863SOL    HW145087   9.700   8.363  10.970  1.7987 -0.4981  1.6185
13863SOL    HW245088   9.698   8.241  10.882 -1.6685  1.3748 -1.1704
13864SOL     OW45089   0.416   6.369   4.531  0.1310 -0.5400 -0.1249
13864SOL    HW145090   0.418   6.349   4.437 -2.5880 -1.3428 -0.0803
13864SOL    HW245091   0.498   6.333   4.565  0.8448 -0.8596 -2.0554
13865SOL     OW45092   7.411   4.738   9.125 -0.2651  0.2015  0.6122
13865SOL    HW145093   7.398   4.826   9.088  0.5503  0.3572  0.6670
13865SOL    HW245094   7.324   4.709   9.150 -0.7742  0.3508 -0.8649
13866SOL     OW45095   1.662   2.447   2.758 -0.0491  0.6165 -0.2611
13866SOL    HW145096   1.681   2.485   2.844  2.9347  3.5310 -1.9666
13866SOL    HW245097   1.714   2.367   2.755 -0.4615  0.2950  0.7219
13867SOL     OW45098   8.363  10.305   0.962  0.5745 -0.8515 -0.0450
13867SOL    HW145099   8.317  10.329   0.882 -0.5627 -0.8300  0.5989
13867SOL    HW245100   8.369  10.387   1.012  0.9875 -0.9292  0.0361
13868SOL     OW45101   6.908   1.623  10.328  0.1932 -0.2013 -0.2730
13868SOL    HW145102   6.999   1.611  10.354  0.5338 -2.5785 -2.1680
13868SOL    HW245103   6.912   1.655  10.238 -0.7650 -2.0124 -1.0123
13869SOL     OW45104   8.908   7.040   6.490  0.0719 -0.1537 -0.4856
13869SOL    HW145105   8.865   7.125   6.481 -0.5670 -0.4233 -0.0216
13869SOL    HW245106   8.904   7.020   6.583  2.4216  0.4258 -0.2019
13870SOL     OW45107   7.680   4.285   1.552 -0.8274 -0.2354  0.6324
13870SOL    HW145108   7.743   4.258   1.620 -0.0430  1.4673  0.6160
13870SOL    HW245109   7.639   4.364   1.587 -0.2215  0.8311 -0.9669
13871SOL     OW45110   1.075   0.899   9.158 -0.0382  0.0755  0.0384
13871SOL    HW145111   1.065   0.993   9.145  1.9575  0.3489  0.0503
13871SOL    HW245112   1.124   0.869   9.082  1.4178 -0.4836  1.1377
13872SOL     OW45113   0.326   6.148   1.143  0.4330 -0.0158 -0.1444
13872SOL    HW145114   0.344   6.201   1.065  0.3203 -0.1973 -0.2936
13872SOL    HW245115   0.394   6.081   1.143  1.2167  0.7617  0.6261
13873SOL     OW45116   8.742   5.994   6.184 -0.4918 -0.2535  0.9167
13873SOL    HW145117   8.684   5.925   6.151 -0.8769  0.4908 -0.0182
13873SOL    HW245118   8.710   6.074   6.142  1.0402  0.2218  0.6025
13874SOL     OW45119  10.668   7.845   7.678 -0.5727  0.2254  0.1696
13874SOL    HW145120  10.619   7.779   7.629  0.0769  0.3397 -0.6487
13874SOL    HW245121  10.704   7.903   7.612 -0.6024  1.0426  0.8509
13875SOL     OW45122   1.563  10.036   2.944 -0.1699  0.1645 -0.0693
13875SOL    HW145123   1.487  10.091   2.926 -0.2190  0.6950  1.6344
13875SOL    HW245124   1.598  10.069   3.027  0.0970 -2.0515  0.7755
13876SOL     OW45125   3.927   2.063   2.296 -0.1561  0.0483  0.2337
13876SOL    HW145126   3.946   2.154   2.320  1.3517 -0.4641  1.1201
13876SOL    HW245127   3.990   2.043   2.227 -2.7145  0.6699 -2.5198
13877SOL     OW45128  10.572   6.606   1.215  0.3328 -0.5391  0.0711
13877SOL    HW145129  10.666   6.608   1.198  0.7851 -0.6837  2.2602
13877SOL    HW245130  10.537   6.678   1.162  1.3524 -1.6136 -2.1962
13878SOL     OW45131   4.238   8.278   8.020 -0.0247  0.6835  0.2447
13878SOL    HW145132   4.168   8.213   8.029  0.9649 -0.5673 -0.7214
13878SOL    HW245133   4.251   8.311   8.109 -0.2460 -0.7805  0.8577
13879SOL     OW45134   5.414   9.153   3.017 -0.5520  0.7363 -0.0801
13879SOL    HW145135   5.400   9.154   3.112  1.3363 -0.5132  0.2737
13879SOL    HW245136   5.509   9.154   3.007 -0.6611  3.8661 -2.0772
13880SOL     OW45137   0.279   0.768   3.385 -0.3225 -0.1146 -0.7368
13880SOL    HW145138   0.328   0.730   3.457 -0.5188  1.5373  0.3203
13880SOL    HW245139   0.342   0.774   3.313 -0.0605 -1.5564 -0.6495
13881SOL     OW45140   1.081   4.551   9.153 -0.1162 -0.3942 -0.3374
13881SOL    HW145141   1.150   4.585   9.097 -1.1220  1.5667 -0.4904
13881SOL    HW245142   1.102   4.584   9.241 -0.5807 -0.1729 -0.3035
13882SOL     OW45143  10.051   3.584   0.477  0.7577 -0.3601 -0.4919
13882SOL    HW145144  10.040   3.529   0.400 -0.3630 -1.1154  0.1713
13882SOL    HW245145  10.015   3.532   0.549 -2.1232  1.9008 -0.1102
13883SOL     OW45146   8.014   1.387   8.852  0.2869 -0.3087  0.3780
13883SOL    HW145147   8.016   1.430   8.938 -1.2794  0.8912 -0.1415
13883SOL    HW245148   7.966   1.305   8.867 -3.9234  1.8200 -0.0296
13884SOL     OW45149   5.002   5.379   8.362 -0.5513  0.3329  0.5643
13884SOL    HW145150   4.987   5.306   8.422 -0.6501  0.6969  0.9896
13884SOL    HW245151   4.940   5.447   8.390 -1.8215 -0.1118 -1.0235
13885SOL     OW45152   1.259   5.332   9.743 -0.6726 -0.5060 -0.4958
13885SOL    HW145153   1.258   5.364   9.653 -3.1047 -1.0877 -0.7683
13885SOL    HW245154   1.308   5.250   9.739 -0.5117 -0.3792 -1.2283
13886SOL     OW45155   6.325   5.941   5.992 -0.2636 -0.6001 -0.2198
13886SOL    HW145156   6.320   5.912   5.901 -0.5540 -2.5234  0.3791
13886SOL    HW245157   6.386   6.015   5.990  0.4871 -1.2229 -1.8400
13887SOL     OW45158   3.362   2.128   0.475  0.6752  0.4669  0.2735
13887SOL    HW145159   3.353   2.157   0.385  0.5283  1.1148  0.4884
13887SOL    HW245160   3.353   2.032   0.471 -1.2653  0.6174 -0.1850
13888SOL     OW45161   3.998   3.873   3.121 -0.1847  0.1039  0.4629
13888SOL    HW145162   4.029   3.848   3.208 -0.4215 -0.2534  0.4454
13888SOL    HW245163   3.934   3.942   3.138 -1.2718 -0.9187  0.6825
13889SOL     OW45164   3.168   1.480  10.068  0.6190 -0.1948  0.7885
13889SOL    HW145165   3.254   1.501  10.031 -0.4178  2.0669 -0.5865
13889SOL    HW245166   3.120   1.441   9.995 -0.2078  0.6736  0.8412
13890SOL     OW45167   1.258   7.067   4.633 -0.5229 -0.2210 -0.8036
13890SOL    HW145168   1.248   7.015   4.553 -0.0786 -0.9609 -0.3902
13890SOL    HW245169   1.212   7.018   4.701  0.3821 -0.3804 -0.2844
13891SOL     OW45170   7.366   6.596   8.980 -0.3360  0.2945 -0.1972
13891SOL    HW145171   7.297   6.586   9.045  0.0104 -1.5414 -0.0559
13891SOL    HW245172   7.447   6.588   9.029 -0.0668 -0.5941 -0.7715
13892SOL     OW45173   4.618  10.018   4.608  0.5401 -0.5177  0.3747
13892SOL    HW145174   4.663   9.955   4.664 -1.8180 -1.6283  1.1296
13892SOL    HW245175   4.579  10.080   4.669  2.3564  1.4646 -0.3350
13893SOL     OW45176   9.661   8.080   6.083  0.1151  0.0077  0.0378
13893SOL    HW145177   9.734   8.054   6.139 -0.6784 -0.0920  1.0618
13893SOL    HW245178   9.627   8.160   6.124 -0.1822  0.2156 -0.5954
13894SOL     OW45179   6.460   6.970   1.659  0.4431  0.1816  0.1761
13894SOL    HW145180   6.460   6.900   1.594  2.0588  0.0331  0.3127
13894SOL    HW245181   6.405   7.038   1.620  0.1046 -0.5370 -0.6383
13895SOL     OW45182   5.802   3.662   4.924 -0.0193 -0.4863  0.1784
13895SOL    HW145183   5.712   3.637   4.947  0.3252 -1.1827  0.8120
13895SOL    HW245184   5.813   3.749   4.963 -0.7621  0.0733 -0.8197
13896SOL     OW45185   4.860   6.359   5.864  0.0494  0.5020 -0.0081
13896SOL    HW145186   4.946   6.348   5.904  0.2752 -0.3693 -0.7079
13896SOL    HW245187   4.841   6.275   5.823 -0.8416  0.8944 -0.4359
13897SOL     OW45188   9.877   8.401   0.216 -0.2554 -0.7328 -0.0193
13897SOL    HW145189   9.893   8.457   0.292 -2.0509 -1.0115  0.6167
13897SOL    HW245190   9.907   8.314   0.243 -2.2166 -1.1610  1.0004
13898SOL     OW45191  10.528   2.437   6.452 -0.1394  0.0772 -0.4670
13898SOL    HW145192  10.568   2.502   6.511  3.1871 -0.5603 -1.7675
13898SOL    HW245193  10.579   2.357   6.468 -2.2284 -1.4291 -0.9649
13899SOL     OW45194   3.515   8.917  10.281  0.3153  0.1000 -0.2104
13899SOL    HW145195   3.518   9.008  10.310  0.4327  0.5379 -1.5319
13899SOL    HW245196   3.442   8.914  10.220  0.0345 -0.8097  0.1547
13900SOL     OW45197   0.097   0.933   6.544  0.3059  0.5161  1.0687
13900SOL    HW145198   0.096   0.938   6.448 -1.0571 -4.0613  0.6259
13900SOL    HW245199   0.007   0.952   6.571  0.0105 -0.8683  1.1229
13901SOL     OW45200   4.487   7.227   7.087  0.0584 -0.0425 -0.0507
13901SOL    HW145201   4.527   7.313   7.096  2.3039 -1.1133  1.0595
13901SOL    HW245202   4.522   7.192   7.005  1.1361 -0.8417  0.7333
13902SOL     OW45203   0.517   7.940   6.689  0.7641  0.2795 -0.1278
13902SOL    HW145204   0.609   7.927   6.664  0.4238  0.4824 -1.5237
13902SOL    HW245205   0.479   7.852   6.685  0.7194  0.3057 -0.2595
13903SOL     OW45206  10.099   4.107   2.330 -0.0273  0.5799 -0.0916
13903SOL    HW145207  10.045   4.184   2.314  0.9535  1.4545  0.6153
13903SOL    HW245208  10.059   4.064   2.405 -1.5926 -0.6148 -1.5401
13904SOL     OW45209  10.034   6.666   5.300 -0.0311 -0.5121  0.1596
13904SOL    HW145210  10.099   6.622   5.246 -2.1672 -0.3011 -2.8237
13904SOL    HW245211  10.012   6.601   5.368  0.6868 -1.9790 -0.9505
13905SOL     OW45212   3.136   7.747   7.319 -0.0956 -0.9124 -0.0059
13905SOL    HW145213   3.196   7.800   7.371 -0.8157 -1.5988  1.5846
13905SOL    HW245214   3.087   7.811   7.266 -0.7786  0.0223  1.6867
13906SOL     OW45215   1.709  10.096   2.700 -0.3105  0.1490  0.2602
13906SOL    HW145216   1.661  10.068   2.778  0.1255  0.9586  0.8362
13906SOL    HW245217   1.642  10.128   2.640 -0.5265  1.1234  0.9934
13907SOL     OW45218   5.635   6.690   1.393  0.4261  0.1891 -0.2736
13907SOL    HW145219   5.640   6.653   1.305 -0.9430 -1.4630  0.2945
13907SOL    HW245220   5.576   6.765   1.385 -0.7817 -0.7700 -0.5274
13908SOL     OW45221   8.693   0.323   5.439 -0.2884  0.3606  0.1199
13908SOL    HW145222   8.684   0.326   5.344 -0.6945  0.0520  0.1477
13908SOL    HW245223   8.774   0.372   5.457 -0.7345  1.2776 -0.3048
13909SOL     OW45224   5.258   3.254   1.441  0.1812  0.1588 -0.2810
13909SOL    HW145225   5.210   3.239   1.359  0.1023 -2.1949  0.1240
13909SOL    HW245226   5.346   3.220   1.424  0.4335  0.4890  0.3406
13910SOL     OW45227   1.013   9.925   4.939  0.8203 -0.5150  0.1104
13910SOL    HW145228   1.007   9.992   4.871 -1.3281  1.8506  2.4460
13910SOL    HW245229   0.994   9.843   4.892 -0.0416  0.9059 -2.2389
13911SOL     OW45230   8.794   5.049   3.043  0.2159 -0.3758  0.0509
13911SOL    HW145231   8.708   5.042   3.002  0.1890 -0.7860  0.1695
13911SOL    HW245232   8.818   5.141   3.033 -0.1838 -0.2833 -0.0863
13912SOL     OW45233   3.551   5.285   2.792  0.8187  0.1519  0.1316
13912SOL    HW145234   3.526   5.312   2.880  0.1087  1.5372 -0.4646
13912SOL    HW245235   3.495   5.210   2.772  1.3591 -0.5075  1.0438
13913SOL     OW45236   2.478   0.426   6.682 -0.1611  0.3480 -0.0248
13913SOL    HW145237   2.458   0.465   6.597 -1.6340 -0.0239  0.1190
13913SOL    HW245238   2.439   0.338   6.677  2.0462 -0.7072  0.0814
13914SOL     OW45239   4.436  10.506   1.187  0.4035 -0.3328 -0.1481
13914SOL    HW145240   4.423  10.460   1.270  1.8623 -0.7291 -0.1202
13914SOL    HW245241   4.498  10.452   1.139  1.4085  1.0833 -0.5191
13915SOL     OW45242   2.972   9.937   5.387  0.1439  0.2899  0.2486
13915SOL    HW145243   2.933   9.997   5.451 -0.0622  1.5430 -0.9839
13915SOL    HW245244   3.065   9.938   5.408  0.0418  0.4422  0.7169
13916SOL     OW45245   3.061   4.428   1.581  0.2272  0.5513 -0.1520
13916SOL    HW145246   3.154   4.450   1.585 -0.1593  2.2809  0.5318
13916SOL    HW245247   3.020   4.504   1.538 -0.9170  0.0704  0.0435
13917SOL     OW45248   8.663   4.423   3.251 -0.2319  0.3779  0.0140
13917SOL    HW145249   8.708   4.392   3.329 -1.3451 -2.9732 -0.5047
13917SOL    HW245250   8.571   4.401   3.266 -0.5599  0.2290 -1.9443
13918SOL     OW45251  10.454   7.053   6.100 -0.1403 -0.4454 -0.8267
13918SOL    HW145252  10.528   7.107   6.073 -0.0607 -0.2022 -0.1370
13918SOL    HW245253  10.424   7.092   6.182  0.0705 -1.5799 -0.1889
13919SOL     OW45254   4.122   4.659   9.151  0.1661 -0.1829  0.0861
13919SOL    HW145255   4.195   4.667   9.212 -1.1853  0.0815  1.7190
13919SOL    HW245256   4.091   4.569   9.162 -0.7987  0.2005  0.6789
13920SOL     OW45257   0.360   3.788   5.115 -0.1063  0.1174  0.1886
13920SOL    HW145258   0.318   3.813   5.033  0.2289  0.9706  0.2683
13920SOL    HW245259   0.398   3.870   5.149 -0.0151 -0.2726  1.0581
13921SOL     OW45260   6.929   9.195   4.538 -0.0034  0.3917 -0.1662
13921SOL    HW145261   6.953   9.105   4.560 -1.7981  0.0827  0.6508
13921SOL    HW245262   6.901   9.190   4.446  0.7602  0.3207 -0.4076
13922SOL     OW45263   7.542   4.823   1.355 -0.0540  0.2803 -0.6139
13922SOL    HW145264   7.453   4.858   1.356 -0.9913 -1.8402  1.3548
13922SOL    HW245265   7.598   4.899   1.344 -2.0070  2.1695  1.4448
13923SOL     OW45266   6.737   2.392   7.520  1.1176 -0.2268 -0.2402
13923SOL    HW145267   6.734   2.330   7.593  2.1423 -0.3343 -0.2862
13923SOL    HW245268   6.799   2.460   7.547  0.1219  0.7199 -0.2528
13924SOL     OW45269   4.553   9.621   5.100 -0.1095  0.2702  0.1014
13924SOL    HW145270   4.595   9.545   5.141 -0.2437  0.3602  0.4125
13924SOL    HW245271   4.626   9.679   5.078  0.1023 -0.4766 -1.2615
13925SOL     OW45272   9.110   7.316   1.781  0.5712  0.0236  0.4782
13925SOL    HW145273   9.143   7.327   1.870  2.2065  0.7150 -0.1642
13925SOL    HW245274   9.061   7.396   1.763 -1.2399 -0.8407  1.3025
13926SOL     OW45275   0.730  10.645   1.877  0.0553 -0.1722  0.2256
13926SOL    HW145276   0.735  10.595   1.958 -0.6915  0.5448  0.7321
13926SOL    HW245277   0.791  10.718   1.891  0.6389 -0.5632 -0.2429
13927SOL     OW45278   0.763   7.834   2.110 -0.4825  0.7614  0.2153
13927SOL    HW145279   0.680   7.858   2.068 -0.3924 -0.6090 -0.8237
13927SOL    HW245280   0.738   7.804   2.197 -1.0747  0.4512 -0.0533
13928SOL     OW45281   2.068  10.086   0.417  0.0994 -0.2914  0.6894
13928SOL    HW145282   2.018  10.034   0.355 -0.2396 -1.4857  1.9201
13928SOL    HW245283   2.003  10.138   0.463  0.2000 -0.3955  0.9520
13929SOL     OW45284   6.457   2.904  10.383  0.3820 -0.2832 -0.3455
13929SOL    HW145285   6.450   2.940  10.472  2.2293  0.5385 -0.4845
13929SOL    HW245286   6.448   2.809  10.395  1.9211 -0.3186  0.9437
13930SOL     OW45287   1.437   6.278   9.551 -0.0101  0.3229 -0.0044
13930SOL    HW145288   1.450   6.213   9.482  0.1255 -1.4231  1.6011
13930SOL    HW245289   1.354   6.321   9.529 -0.4033 -0.8046 -0.7802
13931SOL     OW45290   8.443   6.295   9.703  0.8153  0.2816  0.3790
13931SOL    HW145291   8.449   6.387   9.680  0.8814  0.3425  0.6407
13931SOL    HW245292   8.507   6.282   9.772  0.1046  0.2655  1.0502
13932SOL     OW45293   5.972   1.181   9.490  0.1857 -0.2916  0.4116
13932SOL    HW145294   5.913   1.133   9.432 -0.7852  0.0356  1.0811
13932SOL    HW245295   6.044   1.121   9.508 -1.6919 -2.1486  2.3998
13933SOL     OW45296   5.449  10.594   2.755 -0.1742 -0.1068  0.1940
13933SOL    HW145297   5.503  10.601   2.834 -0.3072 -0.3762  0.3103
13933SOL    HW245298   5.401  10.512   2.766 -0.0244 -0.2564 -0.2741
13934SOL     OW45299   9.555   0.707  10.849 -0.1438 -0.0637  0.0777
13934SOL    HW145300   9.559   0.798  10.819 -0.7424 -0.0899 -0.0816
13934SOL    HW245301   9.640   0.693  10.892  0.3539  0.2620 -0.7695
13935SOL     OW45302   9.514   1.741   1.158 -0.7094 -0.0242  0.3486
13935SOL    HW145303   9.526   1.764   1.250  1.5238  1.1019 -0.1551
13935SOL    HW245304   9.506   1.645   1.158 -0.5724 -0.0470  1.7007
13936SOL     OW45305   8.932   2.959   8.148 -0.0041 -0.2768 -0.2097
13936SOL    HW145306   9.012   3.012   8.150 -0.6688  1.3190 -4.9428
13936SOL    HW245307   8.962   2.870   8.130  0.8034  0.3516 -2.2173
13937SOL     OW45308   9.938  10.404   7.782  0.4806 -0.5396  0.2767
13937SOL    HW145309   9.848  10.375   7.773  0.4590  0.0414 -2.0096
13937SOL    HW245310   9.988  10.323   7.795 -0.4715 -0.7375  3.3184
13938SOL     OW45311   9.635  10.420   4.211  0.2353  0.8132  0.2799
13938SOL    HW145312   9.620  10.464   4.128  0.5414 -1.3955 -1.0172
13938SOL    HW245313   9.576  10.463   4.272 -1.8447  0.8547 -1.6509
13939SOL     OW45314   4.551   9.684  10.166  0.1617 -0.5736 -0.8136
13939SOL    HW145315   4.591   9.735  10.095 -1.9810  2.6109  0.0154
13939SOL    HW245316   4.625   9.649  10.216  1.9318  2.6432 -0.9204
13940SOL     OW45317   9.267  10.257   7.683  0.0730  0.4273 -0.3458
13940SOL    HW145318   9.206  10.330   7.670 -0.0024  0.5085  0.4411
13940SOL    HW245319   9.211  10.181   7.699  0.1698  0.3718 -0.2677
13941SOL     OW45320   2.794   6.879   1.281 -0.0131 -0.6627 -0.3131
13941SOL    HW145321   2.774   6.831   1.361  2.0398 -1.4839 -0.2258
13941SOL    HW245322   2.813   6.811   1.217 -0.5897  0.0107 -1.2105
13942SOL     OW45323   0.776   3.936   2.977  0.3461  0.0147 -0.1618
13942SOL    HW145324   0.867   3.909   2.985 -0.1476 -1.2707  2.1997
13942SOL    HW245325   0.740   3.881   2.907  0.8934 -0.9808  0.3232
13943SOL     OW45326  10.348   7.515   5.359 -0.0653 -0.7477 -0.6976
13943SOL    HW145327  10.316   7.482   5.275  0.2351 -1.2048 -0.6387
13943SOL    HW245328  10.322   7.447   5.422 -0.9329 -0.0645 -0.3019
13944SOL     OW45329   3.309   3.883   5.382 -0.4545 -0.2334  0.2060
13944SOL    HW145330   3.390   3.845   5.415  0.6851  1.0654 -1.0171
13944SOL    HW245331   3.290   3.833   5.302  0.0969  0.5982 -0.4519
13945SOL     OW45332   6.855   6.128   8.143  0.6983 -0.5775 -0.4839
13945SOL    HW145333   6.766   6.095   8.158  0.1842  1.1950  0.7356
13945SOL    HW245334   6.849   6.172   8.058  0.2029  0.1221 -0.0988
13946SOL     OW45335   2.834   1.652   4.672 -0.1674 -0.2660  0.0179
13946SOL    HW145336   2.890   1.727   4.650 -1.0938 -0.6117 -4.4197
13946SOL    HW245337   2.895   1.580   4.688  0.7531  0.1229 -1.5040
13947SOL     OW45338   8.842   5.351   9.930  0.3849  0.1757  0.0290
13947SOL    HW145339   8.750   5.325   9.932 -0.3635  2.6084  0.7584
13947SOL    HW245340   8.891   5.271   9.952 -1.5292 -1.1470 -0.3348
13948SOL     OW45341   4.877   2.202   4.458  0.6930 -0.2462  0.7180
13948SOL    HW145342   4.965   2.237   4.447  1.1725 -1.6329 -0.2048
13948SOL    HW245343   4.830   2.269   4.507  1.2880  2.0086 -1.5907
13949SOL     OW45344   5.377  10.964   0.587  0.2537 -0.2905 -0.4129
13949SOL    HW145345   5.371  11.016   0.667 -0.7030  0.1503 -0.7617
13949SOL    HW245346   5.340  10.879   0.609 -1.4685  0.3250 -0.7828
13950SOL     OW45347   3.348   4.726   6.629  0.3921  0.5322 -0.3695
13950SOL    HW145348   3.255   4.710   6.612  0.2380  1.8387 -0.8704
13950SOL    HW245349   3.364   4.685   6.714 -0.8505  1.0110  0.1145
13951SOL     OW45350   3.040   4.670   4.711  0.4995 -0.2725 -0.4008
13951SOL    HW145351   3.073   4.729   4.778  0.8982 -1.6436  0.6321
13951SOL    HW245352   2.973   4.618   4.755 -0.5011 -0.0028 -1.5368
13952SOL     OW45353   6.296   7.678   1.770  0.4117 -0.2906 -0.1774
13952SOL    HW145354   6.282   7.770   1.749 -1.2659 -0.5377 -0.2705
13952SOL    HW245355   6.256   7.666   1.856 -0.4018 -1.1727 -0.6596
13953SOL     OW45356  10.376   9.253   2.632 -0.1929 -0.3479  1.0096
13953SOL    HW145357  10.344   9.342   2.645 -0.1306  0.1802 -1.7809
13953SOL    HW245358  10.381   9.243   2.537 -0.1827 -3.3388  1.2246
13954SOL     OW45359   8.627   7.301   8.498 -0.7092  0.1263 -0.2954
13954SOL    HW145360   8.565   7.277   8.568  1.4403  3.5092  3.1746
13954SOL    HW245361   8.674   7.220   8.479 -4.0916 -1.8816 -1.0413
13955SOL     OW45362   8.066   0.854   9.206  0.0106 -0.0658  0.2681
13955SOL    HW145363   8.007   0.828   9.277 -1.8666 -0.8917 -1.4703
13955SOL    HW245364   8.140   0.896   9.250 -1.3539  0.0451  2.6460
13956SOL     OW45365   0.090  10.930   1.615  0.3552  0.1061 -0.0585
13956SOL    HW145366   0.117  11.021   1.602  0.2729  0.1311 -0.0513
13956SOL    HW245367   0.016  10.919   1.555  0.5328 -0.0331 -0.2540
13957SOL     OW45368   6.136   4.812   2.133  0.7332 -0.1499 -0.4607
13957SOL    HW145369   6.095   4.767   2.207  0.0944  0.6458 -0.3029
13957SOL    HW245370   6.189   4.746   2.090  0.2652 -0.8977  0.0872
13958SOL     OW45371   1.719   9.999   6.499  0.3250 -0.0521  0.2468
13958SOL    HW145372   1.760  10.081   6.529 -0.3628 -0.2295  1.7979
13958SOL    HW245373   1.737   9.996   6.405  0.8446  1.5999  0.2580
13959SOL     OW45374   0.735  10.860   5.038  0.4599 -0.1059  0.2451
13959SOL    HW145375   0.755  10.784   5.094  1.1688  1.0212  1.5785
13959SOL    HW245376   0.745  10.935   5.096  0.3290  1.0557 -1.1974
13960SOL     OW45377   8.260   9.938   2.776 -0.5131  0.1404 -0.0013
13960SOL    HW145378   8.216   9.872   2.830 -0.8057  1.2775  1.1903
13960SOL    HW245379   8.213   9.936   2.693 -0.0285 -1.6734 -0.2674
13961SOL     OW45380   0.586   2.520   6.070  0.1803  0.3002 -0.3348
13961SOL    HW145381   0.518   2.561   6.016  1.9123  3.0009 -0.6708
13961SOL    HW245382   0.600   2.581   6.142  2.2123 -0.1725 -0.2725
13962SOL     OW45383   9.326   6.920  10.992 -0.3347  0.0456 -0.4161
13962SOL    HW145384   9.381   6.935  10.915  0.3350  0.5251  0.1391
13962SOL    HW245385   9.274   6.843  10.970 -0.4753  0.4473 -1.5141
13963SOL     OW45386   5.661   3.502   4.227  0.0837  0.3727 -0.0651
13963SOL    HW145387   5.588   3.448   4.197  0.0633  0.1968  0.2921
13963SOL    HW245388   5.692   3.458   4.306  1.1740 -0.0772 -0.7181
13964SOL     OW45389   8.986   1.364   2.860 -0.0098 -0.3541  0.0163
13964SOL    HW145390   8.925   1.326   2.797 -0.4391 -0.6622  0.5967
13964SOL    HW245391   9.072   1.355   2.820 -0.0952 -1.9425  0.1165
13965SOL     OW45392   0.738   6.467   2.171  0.3168  0.2864 -0.0367
13965SOL    HW145393   0.689   6.386   2.179  0.9372 -0.0535  0.3783
13965SOL    HW245394   0.731   6.491   2.079 -2.5441  1.4609  0.3736
13966SOL     OW45395   7.723   9.744   3.465 -0.9127  0.4262 -0.1820
13966SOL    HW145396   7.759   9.656   3.456  3.3857  1.4384  3.8421
13966SOL    HW245397   7.636   9.731   3.503 -1.2933 -1.9786 -1.6646
13967SOL     OW45398   0.416  10.754   1.448  0.0201 -0.3799  0.0201
13967SOL    HW145399   0.383  10.674   1.406  0.1391 -0.0014 -0.8182
13967SOL    HW245400   0.364  10.763   1.528 -1.1540 -0.3876 -0.7275
13968SOL     OW45401   5.976   2.059   6.859 -0.2289 -0.0114  0.2712
13968SOL    HW145402   6.033   2.111   6.914  0.5197 -1.3365  0.7917
13968SOL    HW245403   5.950   1.985   6.913 -0.0922 -0.9481 -0.8975
13969SOL     OW45404   9.870   1.467   0.684  0.4843  0.4943 -0.0266
13969SOL    HW145405   9.849   1.493   0.774 -1.3347 -0.9565  0.0234
13969SOL    HW245406   9.805   1.512   0.630 -1.4520 -2.1435 -0.1090
13970SOL     OW45407   8.585   6.869   8.519 -0.3795  0.2805  0.1660
13970SOL    HW145408   8.581   6.875   8.424  0.5505  2.2837  0.2030
13970SOL    HW245409   8.538   6.946   8.550  0.7449  0.5650  1.2691
13971SOL     OW45410   8.021   2.812   2.044  0.6398 -0.3324  0.4508
13971SOL    HW145411   8.013   2.730   1.996 -1.3155 -0.6895  1.3025
13971SOL    HW245412   7.970   2.875   1.992 -1.5045 -0.7227  1.9250
13972SOL     OW45413   2.698   0.160   2.325 -0.3177  0.0422 -0.1614
13972SOL    HW145414   2.724   0.090   2.385  2.4551 -1.0137 -2.3296
13972SOL    HW245415   2.626   0.123   2.274  0.8948 -1.1826 -1.0538
13973SOL     OW45416   6.943   1.769   1.933  0.1186  0.6510 -0.1921
13973SOL    HW145417   7.025   1.724   1.952  0.6819  1.2987 -1.0343
13973SOL    HW245418   6.875   1.704   1.952  0.8346  0.0183  0.2438
13974SOL     OW45419   6.064   5.440   7.605 -0.2682  0.1854  0.3517
13974SOL    HW145420   6.002   5.509   7.581 -0.1368 -0.0934 -0.8412
13974SOL    HW245421   6.023   5.360   7.574  0.6243 -0.0142 -0.3558
13975SOL     OW45422   4.258   5.505   5.800  0.3615  0.1387  0.0415
13975SOL    HW145423   4.250   5.471   5.889  2.5064  1.5275  0.8399
13975SOL    HW245424   4.345   5.479   5.772 -0.7503 -1.4457 -2.2531
13976SOL     OW45425   0.451   2.396   4.426 -0.1304  0.0930  0.4141
13976SOL    HW145426   0.418   2.306   4.418  0.1415 -0.2283  2.4460
13976SOL    HW245427   0.421   2.439   4.346 -0.0275 -1.8658 -0.7473
13977SOL     OW45428   3.382   9.012   0.100  0.4363  0.1867  0.4554
13977SOL    HW145429   3.340   9.093   0.074  0.8960  0.2986  0.0466
13977SOL    HW245430   3.312   8.947   0.099  0.2916  0.3418 -0.3412
13978SOL     OW45431   0.635   4.873   5.758  0.0006  0.8681  0.2070
13978SOL    HW145432   0.554   4.826   5.739  0.1343  0.6302  0.2239
13978SOL    HW245433   0.698   4.839   5.695 -0.3825  2.3661 -1.0250
13979SOL     OW45434   9.211   9.280   1.615 -0.4814 -0.0025 -0.1190
13979SOL    HW145435   9.251   9.283   1.528  0.2262  0.7426  0.2212
13979SOL    HW245436   9.170   9.365   1.626  1.5287  0.8889  1.2163
13980SOL     OW45437   4.109   3.708   8.814 -0.3007 -0.2341 -0.0073
13980SOL    HW145438   4.039   3.729   8.752  1.2659  3.3914 -0.8415
13980SOL    HW245439   4.107   3.780   8.878  1.9049 -0.6340  0.6041
13981SOL     OW45440   7.069   2.125   8.599  0.4913 -0.2588 -0.7653
13981SOL    HW145441   6.979   2.146   8.624  0.7568  1.6014 -1.2321
13981SOL    HW245442   7.123   2.166   8.666  1.0287 -0.7678 -0.8752
13982SOL     OW45443   6.746   3.925   8.346 -0.6207 -0.0520 -0.6249
13982SOL    HW145444   6.677   3.987   8.324 -0.8333  0.0572  0.3249
13982SOL    HW245445   6.818   3.946   8.286 -0.5598  1.3231 -0.0809
13983SOL     OW45446  10.195   5.283   2.359  0.1794 -0.4456  0.1309
13983SOL    HW145447  10.140   5.354   2.326  0.8188 -0.1682 -0.3495
13983SOL    HW245448  10.185   5.213   2.294 -0.9457 -1.0524  0.9231
13984SOL     OW45449   1.123   3.278   9.590  0.3454  0.3292 -0.4344
13984SOL    HW145450   1.154   3.188   9.588 -0.9992 -0.1990  0.6217
13984SOL    HW245451   1.203   3.331   9.590  1.1566 -0.8288 -1.3835
13985SOL     OW45452   2.589   0.490   5.538  0.4479  0.1780  0.4044
13985SOL    HW145453   2.676   0.449   5.548  0.3523  0.0365  0.6562
13985SOL    HW245454   2.604   0.582   5.558  0.3276 -0.0392  1.5273
13986SOL     OW45455   0.693   7.728   5.991  0.0354  0.2236 -0.4317
13986SOL    HW145456   0.598   7.733   5.999  0.0460 -0.3620  0.1509
13986SOL    HW245457   0.718   7.652   6.044  0.6274 -0.8918 -2.2028
13987SOL     OW45458   7.262  10.838   1.525  0.3421 -0.2148 -0.5007
13987SOL    HW145459   7.241  10.859   1.617 -1.4879 -0.8506 -0.7225
13987SOL    HW245460   7.340  10.890   1.506  0.7739 -0.0690  1.4109
13988SOL     OW45461   7.538   2.793   8.423  0.0328  0.0638  0.6071
13988SOL    HW145462   7.610   2.740   8.387  0.8900  1.8254 -0.3721
13988SOL    HW245463   7.553   2.792   8.517  1.1982  0.1810  0.4424
13989SOL     OW45464   9.576   2.043   3.511  0.2100  0.0054  0.4426
13989SOL    HW145465   9.653   1.992   3.538  1.3872  1.2209 -0.4718
13989SOL    HW245466   9.502   1.984   3.526  1.4737 -1.8659 -0.2693
13990SOL     OW45467   7.018   1.344   9.231 -0.3836  0.3305  0.4138
13990SOL    HW145468   7.034   1.434   9.203  0.6300  0.1746  0.4379
13990SOL    HW245469   6.929   1.345   9.268 -0.1432  1.4692  1.0055
13991SOL     OW45470   5.570  10.924   7.396  0.2747  0.3233  0.1737
13991SOL    HW145471   5.543  10.876   7.475 -0.1072  0.5657  0.1927
13991SOL    HW245472   5.545  10.867   7.324 -2.1537  1.3900  0.0900
13992SOL     OW45473   3.252   2.133  10.257  0.4525 -0.2427  0.2615
13992SOL    HW145474   3.260   2.080  10.177  0.1797  0.2688 -0.1143
13992SOL    HW245475   3.226   2.071  10.325  3.2791 -1.2006  0.5949
13993SOL     OW45476   5.490   2.408   0.038  0.3887  0.0608 -0.0772
13993SOL    HW145477   5.456   2.359  -0.037 -0.3179  1.3544 -0.6364
13993SOL    HW245478   5.427   2.391   0.108  1.6416 -2.0588  0.6252
13994SOL     OW45479   9.510   6.323   0.702 -0.9954 -0.1940  0.2984
13994SOL    HW145480   9.548   6.258   0.643 -0.9813 -0.8592  1.0272
13994SOL    HW245481   9.574   6.332   0.772 -0.5710  1.2901 -0.2414
13995SOL     OW45482   0.629   5.246  10.130  0.2604 -0.0004  0.4695
13995SOL    HW145483   0.641   5.253  10.035 -1.0293  0.5875  0.3339
13995SOL    HW245484   0.674   5.323  10.165  0.5007 -0.0687  0.3128
13996SOL     OW45485   9.938   4.819   2.924 -0.8098 -0.3141  0.4743
13996SOL    HW145486   9.980   4.839   2.840  2.2394  0.1509  1.9710
13996SOL    HW245487   9.905   4.730   2.913 -0.4503 -0.2780 -1.2044
13997SOL     OW45488   3.501   1.712   4.460 -0.3386  0.1741 -0.5789
13997SOL    HW145489   3.525   1.779   4.524 -0.4548  0.5286 -0.9046
13997SOL    HW245490   3.579   1.702   4.405  0.8536 -2.2085  1.3456
13998SOL     OW45491   3.558   6.746   4.350  0.3319 -0.1944 -0.1716
13998SOL    HW145492   3.569   6.658   4.314 -1.0759 -0.3790 -0.2125
13998SOL    HW245493   3.488   6.737   4.415  0.7604  0.7358  0.4472
13999SOL     OW45494  10.583   6.335   3.677  0.2712 -0.5273 -0.1106
13999SOL    HW145495  10.662   6.321   3.624  0.6040 -1.2599  0.5493
13999SOL    HW245496  10.539   6.250   3.676  0.3173 -0.5712  0.8217
14000SOL     OW45497   9.821   0.785   3.683  0.6235  0.3864  0.3769
14000SOL    HW145498   9.764   0.764   3.758  0.5252 -0.4993  0.0657
14000SOL    HW245499   9.909   0.789   3.721  0.9428 -2.6204  0.1674
14001SOL     OW45500   6.496   6.426   8.540 -0.2648 -0.4633  0.5497
14001SOL    HW145501   6.534   6.378   8.467 -1.5293  0.0588 -0.4835
14001SOL    HW245502   6.488   6.516   8.509  0.3403  0.0429  1.7940
14002SOL     OW45503   4.135   3.919   0.447 -0.5196  0.0600  0.1387
14002SOL    HW145504   4.062   3.918   0.386 -0.6427 -1.2217  0.2908
14002SOL    HW245505   4.144   3.828   0.476 -0.6749  0.6591  2.2583
14003SOL     OW45506   4.247   4.459   3.803 -0.1484  0.3007 -0.1414
14003SOL    HW145507   4.208   4.373   3.791 -0.3549  0.0857  1.7257
14003SOL    HW245508   4.183   4.520   3.767 -1.0658 -0.2050  0.5821
14004SOL     OW45509   1.390   8.225   4.849  0.0357  0.2823 -0.3861
14004SOL    HW145510   1.333   8.157   4.887  0.1034  0.4212 -0.0287
14004SOL    HW245511   1.334   8.271   4.786 -0.4942  0.9085  0.5063
14005SOL     OW45512   6.082   1.415   1.868  0.0248  0.3672 -0.1012
14005SOL    HW145513   6.031   1.440   1.945  1.4873 -0.2611  1.1074
14005SOL    HW245514   6.161   1.374   1.903  1.5380  1.5604 -1.9127
14006SOL     OW45515   8.601   7.302  10.871 -0.4354 -0.6673 -0.1018
14006SOL    HW145516   8.570   7.228  10.819  2.7000 -1.0945 -1.6250
14006SOL    HW245517   8.649   7.262  10.944  2.4942 -0.3759 -1.6865
14007SOL     OW45518   1.047   7.351   0.954  0.4212 -0.0793  0.0227
14007SOL    HW145519   0.971   7.318   0.905  0.2743  0.0581  0.1546
14007SOL    HW245520   1.121   7.300   0.922  0.1458 -0.7655  0.4672
14008SOL     OW45521   2.334   9.344   1.230 -0.2614 -0.8564 -0.2670
14008SOL    HW145522   2.401   9.279   1.209 -1.3265 -1.7878 -0.8677
14008SOL    HW245523   2.384   9.422   1.256  1.1231 -0.8535 -2.6120
14009SOL     OW45524   0.669   8.484   3.080  0.0789  0.1465 -0.1810
14009SOL    HW145525   0.739   8.497   3.016  0.1951 -0.7002 -0.2339
14009SOL    HW245526   0.714   8.477   3.164 -0.0404  0.7926 -0.0543
14010SOL     OW45527   3.347   6.329   5.186  0.0769  0.3268  0.1682
14010SOL    HW145528   3.321   6.290   5.102  0.2131  1.2872 -0.3302
14010SOL    HW245529   3.332   6.422   5.174  1.7692  0.6717  0.5998
14011SOL     OW45530   5.782   7.866   5.105  0.7594  0.2841 -0.0161
14011SOL    HW145531   5.720   7.929   5.068  0.8202 -0.0392 -0.6707
14011SOL    HW245532   5.855   7.920   5.136  1.2124  0.4884 -1.3670
14012SOL     OW45533   9.974   5.904   8.598 -0.7007 -0.0745 -0.6198
14012SOL    HW145534   9.925   5.956   8.662 -1.4554 -1.1009 -0.3220
14012SOL    HW245535  10.004   5.968   8.533  0.7584  1.1165  1.1171
14013SOL     OW45536   2.178   4.714   1.262 -0.5585 -0.1203  0.1046
14013SOL    HW145537   2.157   4.622   1.279  0.1349 -0.3536 -0.2427
14013SOL    HW245538   2.251   4.733   1.322 -1.7803  0.7039  1.3854
14014SOL     OW45539   7.268   9.228   4.021  0.1690 -0.1368 -0.2796
14014SOL    HW145540   7.284   9.321   4.037  0.5531 -0.0586 -1.0539
14014SOL    HW245541   7.173   9.220   4.014  0.0034 -0.1278  1.6342
14015SOL     OW45542   1.114   3.601   1.380 -0.1268  0.1580 -0.1803
14015SOL    HW145543   1.038   3.556   1.344 -0.9128  1.2293  0.0815
14015SOL    HW245544   1.126   3.677   1.322 -0.0954  0.7312  0.5653
14016SOL     OW45545   5.310   7.168   6.509 -0.0375  0.0251  0.4992
14016SOL    HW145546   5.319   7.115   6.429  1.3420 -0.6423  1.0647
14016SOL    HW245547   5.330   7.108   6.580  0.4351  1.0374  1.2442
14017SOL     OW45548   4.395   2.899   5.452  0.4579 -0.3056 -1.1305
14017SOL    HW145549   4.346   2.824   5.418 -1.0212 -0.4554  1.1195
14017SOL    HW245550   4.481   2.863   5.475 -0.5249 -1.6369  0.7776
14018SOL     OW45551   9.154   0.162   2.642  0.4595  0.4481 -0.0877
14018SOL    HW145552   9.091   0.124   2.703  1.1473  1.3997  1.2663
14018SOL    HW245553   9.232   0.108   2.651  1.2879  1.8023  1.5153
14019SOL     OW45554   4.792  10.462   7.693  0.3712 -0.1474 -0.1876
14019SOL    HW145555   4.697  10.463   7.677  0.0249  1.1367  1.6681
14019SOL    HW245556   4.822  10.547   7.661  1.0083 -0.7137 -1.1494
14020SOL     OW45557   4.398   2.284   1.026  0.4001 -0.5751 -0.2087
14020SOL    HW145558   4.363   2.362   1.069  1.2316 -0.6787  0.7116
14020SOL    HW245559   4.467   2.253   1.085 -0.3552 -2.4003 -0.1933
14021SOL     OW45560   6.240   1.443   1.246  0.2439 -0.1612  0.5136
14021SOL    HW145561   6.233   1.447   1.341 -0.4994 -0.0873  0.4621
14021SOL    HW245562   6.165   1.389   1.219  1.1722 -1.2637  0.0584
14022SOL     OW45563   6.693   9.734   6.922 -0.2675 -0.7473 -0.0259
14022SOL    HW145564   6.700   9.670   6.851 -0.0081 -0.2102 -0.4933
14022SOL    HW245565   6.759   9.800   6.901 -0.6162 -0.2615  0.3813
14023SOL     OW45566   0.247   1.973   5.406 -0.5068  0.5883 -0.2172
14023SOL    HW145567   0.260   2.044   5.344 -1.5211  0.5021 -0.5501
14023SOL    HW245568   0.169   1.998   5.455 -1.0867 -0.4439 -0.5703
14024SOL     OW45569   7.849   6.863   0.321 -0.0684  0.4277  0.1895
14024SOL    HW145570   7.860   6.955   0.299 -0.7154  0.3053 -0.7231
14024SOL    HW245571   7.812   6.824   0.241  1.1072 -0.8097  0.1989
14025SOL     OW45572  10.442   2.231   9.372 -0.3668  0.2481 -0.0693
14025SOL    HW145573  10.389   2.310   9.381  0.2811  0.8376 -1.1870
14025SOL    HW245574  10.382   2.159   9.391 -1.2257  0.9595 -0.0397
14026SOL     OW45575   4.654   4.432  10.499 -0.1532 -0.3067  0.0054
14026SOL    HW145576   4.727   4.416  10.559 -0.2482  0.0584  0.2226
14026SOL    HW245577   4.598   4.495  10.546 -0.2516 -0.0540 -0.4476
14027SOL     OW45578   0.942   3.834   2.038  0.4838  0.2979  0.4048
14027SOL    HW145579   1.008   3.901   2.017  0.6491 -0.1982 -0.7096
14027SOL    HW245580   0.909   3.805   1.953  0.7489 -1.3725  0.8334
14028SOL     OW45581   1.964   3.238   0.718 -0.2890 -0.1950  0.2065
14028SOL    HW145582   1.923   3.324   0.730  0.6266  0.7628 -2.6618
14028SOL    HW245583   1.916   3.198   0.646  2.4660  0.2411 -2.0854
14029SOL     OW45584   9.646   4.513   1.131 -0.5874 -0.3702 -0.2235
14029SOL    HW145585   9.553   4.496   1.143 -0.5273  0.8034  2.8499
14029SOL    HW245586   9.689   4.435   1.166 -0.4389  0.6134  1.8968
14030SOL     OW45587   2.058   3.961   4.187 -0.5922  0.4799 -0.2350
14030SOL    HW145588   2.083   3.898   4.119  0.0471  0.7018 -0.2109
14030SOL    HW245589   2.136   4.016   4.198 -0.3587 -0.1342  1.3486
14031SOL     OW45590   9.405  10.703   8.435  0.0051 -0.0710  0.1029
14031SOL    HW145591   9.430  10.763   8.506 -0.2956 -0.3672  0.4669
14031SOL    HW245592   9.347  10.755   8.380 -2.2515 -0.6685  1.7274
14032SOL     OW45593  10.457   3.231   6.538 -0.0476 -0.2312 -0.0733
14032SOL    HW145594  10.404   3.302   6.574  0.8147  0.5311 -0.2720
14032SOL    HW245595  10.496   3.268   6.459  1.3249 -0.5494  0.4328
14033SOL     OW45596   5.139   7.469   2.051  0.1777 -0.0326  0.1072
14033SOL    HW145597   5.232   7.471   2.029 -0.0769  0.6480 -0.9960
14033SOL    HW245598   5.094   7.475   1.967 -0.8598  1.3051  0.7083
14034SOL     OW45599   0.490   7.064   0.876 -0.2155 -0.0494 -0.0193
14034SOL    HW145600   0.576   7.106   0.874 -0.5942  0.7511  0.1351
14034SOL    HW245601   0.428   7.136   0.864 -0.8287 -0.7606 -1.3609
14035SOL     OW45602   7.077   1.882   0.726  0.3820 -0.3858 -0.3502
14035SOL    HW145603   7.005   1.820   0.739  0.2726  0.2020  2.2075
14035SOL    HW245604   7.156   1.830   0.744  0.6138 -0.8229 -2.3855
14036SOL     OW45605   4.595   7.733   4.883  0.0409  0.6295 -0.0122
14036SOL    HW145606   4.672   7.780   4.916  0.3866 -0.9270  1.5812
14036SOL    HW245607   4.630   7.649   4.853 -0.8574  0.4760 -0.6739
14037SOL     OW45608   1.205   4.791   9.846  0.8052  0.2276 -0.6375
14037SOL    HW145609   1.234   4.859   9.907  0.0105  0.4935 -0.5480
14037SOL    HW245610   1.214   4.709   9.896 -1.4254  0.5837  0.4792
14038SOL     OW45611   3.158   4.470   2.997 -0.2026 -0.3620 -0.2193
14038SOL    HW145612   3.098   4.423   2.939 -0.4800  0.1308 -0.3348
14038SOL    HW245613   3.109   4.479   3.079  0.2183 -1.1294  0.1256
14039SOL     OW45614   3.802  10.256   9.107 -0.1869 -0.8308  0.7498
14039SOL    HW145615   3.814  10.274   9.014 -0.5297 -0.6381  0.7386
14039SOL    HW245616   3.888  10.231   9.138 -0.0239 -0.6850  0.4234
14040SOL     OW45617   1.243   6.917   8.339 -0.2534 -0.2144 -0.1061
14040SOL    HW145618   1.333   6.921   8.369  0.2244 -0.0462 -1.4968
14040SOL    HW245619   1.225   6.824   8.329  0.1482 -0.2233 -0.8624
14041SOL     OW45620   2.311   4.877  10.624 -0.0009  0.1040 -0.2503
14041SOL    HW145621   2.331   4.915  10.709 -0.8885 -0.7447  0.3651
14041SOL    HW245622   2.230   4.827  10.638  0.0232 -0.3369 -1.5048
14042SOL     OW45623   1.366   7.855   1.475 -0.8755  0.2110 -0.4474
14042SOL    HW145624   1.425   7.878   1.403  0.1950 -2.8418 -0.6903
14042SOL    HW245625   1.292   7.811   1.433 -1.3509  0.3981  0.1738
14043SOL     OW45626   7.824   1.128   5.110  0.0464  0.7831 -0.1905
14043SOL    HW145627   7.870   1.147   5.192 -1.1630 -1.9207  1.2517
14043SOL    HW245628   7.883   1.068   5.064  0.0133  1.0298 -0.5545
14044SOL     OW45629   1.418   9.769   5.203 -0.3788 -0.3341 -0.2801
14044SOL    HW145630   1.360   9.816   5.144 -1.8699  1.0541  2.1181
14044SOL    HW245631   1.495   9.825   5.212  0.8224 -1.4987 -2.3266
14045SOL     OW45632   1.483   7.522   7.348  0.0193 -0.3167  0.1384
14045SOL    HW145633   1.435   7.447   7.382  1.1667 -0.7577  0.8398
14045SOL    HW245634   1.416   7.579   7.311 -1.3732  0.2315  3.1733
14046SOL     OW45635   6.862   9.676   9.771  0.3954  1.1275  0.0076
14046SOL    HW145636   6.767   9.670   9.765  0.3226 -1.1093  1.9287
14046SOL    HW245637   6.878   9.730   9.848  0.5487 -0.7271  1.3543
14047SOL     OW45638   7.986   5.419   1.998 -1.1816  0.3187 -0.0988
14047SOL    HW145639   7.911   5.359   2.007 -0.0242 -1.0190  1.2681
14047SOL    HW245640   8.062   5.366   2.023  0.2936  1.5456 -1.7166
14048SOL     OW45641   8.753   7.557   7.869 -0.1231  0.1474 -0.5656
14048SOL    HW145642   8.725   7.493   7.934  0.2875  1.1387  0.6388
14048SOL    HW245643   8.717   7.641   7.900  1.4035  0.9022 -0.7214
14049SOL     OW45644   8.959   6.618   9.661  0.3934  0.3144  0.3697
14049SOL    HW145645   8.948   6.690   9.724  0.1822  0.7008 -0.1000
14049SOL    HW245646   8.894   6.636   9.594  2.7650  1.7798 -1.6947
14050SOL     OW45647   6.622   2.764   9.401  0.7203  0.6860  0.2894
14050SOL    HW145648   6.574   2.802   9.475 -2.1808  1.8834 -2.0285
14050SOL    HW245649   6.658   2.839   9.354  0.1494  0.1873 -0.9984
14051SOL     OW45650   1.873   6.901   3.005 -0.0216  0.0128 -0.3252
14051SOL    HW145651   1.784   6.931   3.021 -0.5973 -1.7404 -0.0189
14051SOL    HW245652   1.868   6.857   2.920 -0.2455 -2.8297  1.0437
14052SOL     OW45653  10.112   8.450  10.483 -0.1699 -0.4856 -0.3876
14052SOL    HW145654  10.028   8.438  10.527 -0.1845 -0.0502 -0.2886
14052SOL    HW245655  10.119   8.545  10.471  0.1059 -0.5546 -0.7884
14053SOL     OW45656  10.975   8.938   5.375  0.2209 -0.2218  0.0089
14053SOL    HW145657  10.892   8.977   5.399  0.3492  1.2223 -1.7216
14053SOL    HW245658  11.032   9.012   5.354  1.7655 -1.2001  0.5551
14054SOL     OW45659   0.176   8.851   8.287 -0.2269 -0.1862  0.3354
14054SOL    HW145660   0.228   8.926   8.259 -0.2475  0.6578  2.3439
14054SOL    HW245661   0.095   8.858   8.237  0.8132 -0.4613 -1.4755
14055SOL     OW45662   0.557   8.567  10.454 -0.3200 -0.2678 -0.1047
14055SOL    HW145663   0.614   8.530  10.522 -0.5571 -0.3794  0.0323
14055SOL    HW245664   0.614   8.575  10.377 -0.6816 -2.5577 -0.6856
14056SOL     OW45665   1.410   9.904   2.181 -1.4193 -0.4714 -0.2519
14056SOL    HW145666   1.357   9.958   2.122 -3.3464 -1.7742  0.1924
14056SOL    HW245667   1.375   9.816   2.171  1.4100 -1.6372 -0.6927
14057SOL     OW45668   4.556   6.618   4.194  0.2172 -0.3573  0.5319
14057SOL    HW145669   4.543   6.670   4.273 -0.9912  1.0810 -0.5550
14057SOL    HW245670   4.589   6.681   4.130  0.6842 -1.3911 -0.2648
14058SOL     OW45671   9.407   8.696   0.123 -0.3793  0.5381  0.3423
14058SOL    HW145672   9.417   8.655   0.208 -0.9820 -0.4399 -0.0442
14058SOL    HW245673   9.374   8.626   0.066  1.0341  0.8859 -0.9524
14059SOL     OW45674   4.841   0.397   9.607  0.9751  0.7369 -0.1859
14059SOL    HW145675   4.892   0.438   9.676  1.4358 -0.0457 -0.0434
14059SOL    HW245676   4.890   0.317   9.585 -0.4229 -0.3000  0.3097
14060SOL     OW45677   6.528   3.313   1.417 -0.2217  0.6103 -0.6859
14060SOL    HW145678   6.487   3.228   1.431  0.9614  0.0982 -0.2217
14060SOL    HW245679   6.475   3.374   1.468  0.3038 -0.2429  0.9553
14061SOL     OW45680  10.627   5.508   4.415  0.5208  0.1249 -0.2353
14061SOL    HW145681  10.707   5.520   4.363  1.2726  0.4278  0.9313
14061SOL    HW245682  10.615   5.413   4.419  1.0953  0.0531 -0.0549
14062SOL     OW45683   4.457   1.631   9.343 -0.2724  0.3194 -0.0675
14062SOL    HW145684   4.410   1.713   9.357  1.8536  1.7572 -0.9414
14062SOL    HW245685   4.531   1.634   9.403  0.2680 -0.6100 -0.6478
14063SOL     OW45686   4.131   3.213   6.399  0.3024  0.4407  0.4559
14063SOL    HW145687   4.081   3.200   6.318  0.4353 -1.7261  0.6627
14063SOL    HW245688   4.069   3.256   6.459 -0.0580  1.2835 -0.4869
14064SOL     OW45689   4.034   7.894   9.019 -0.4104  0.6270 -0.2149
14064SOL    HW145690   4.117   7.939   9.032  1.0067 -1.9266  0.2785
14064SOL    HW245691   3.979   7.921   9.092  0.7523  0.7652  0.6247
14065SOL     OW45692   5.975   7.576   4.257 -0.4731 -0.0272  0.2090
14065SOL    HW145693   5.962   7.653   4.313 -0.5069 -0.0399  0.2188
14065SOL    HW245694   5.903   7.579   4.194 -0.8426 -0.3974  0.6047
14066SOL     OW45695   4.377   3.864   4.705  0.5008  1.2728  0.1827
14066SOL    HW145696   4.306   3.874   4.641  0.4595 -0.3602 -0.0632
14066SOL    HW245697   4.450   3.913   4.666  0.1564  1.1932 -0.5940
14067SOL     OW45698   9.211   3.072   0.949 -1.1720  0.1520  0.1795
14067SOL    HW145699   9.221   3.123   1.029  0.2106 -0.1181  0.2038
14067SOL    HW245700   9.284   3.010   0.950 -1.9129 -0.7740 -0.6261
14068SOL     OW45701   0.198   5.439  10.957  0.5544  0.1092  0.3005
14068SOL    HW145702   0.131   5.506  10.944 -0.0195 -0.6832 -1.0143
14068SOL    HW245703   0.281   5.487  10.953  0.1229  1.3000  3.1123
14069SOL     OW45704   1.560   6.461   2.018  0.4005 -0.0238 -0.4445
14069SOL    HW145705   1.604   6.486   1.937  0.2262  1.1596 -0.1934
14069SOL    HW245706   1.483   6.518   2.021  0.7554  0.4040  0.8736
14070SOL     OW45707   0.087   2.334   0.832 -0.1732  1.0288 -0.3809
14070SOL    HW145708   0.003   2.293   0.852 -0.2477  2.2742  2.3970
14070SOL    HW245709   0.065   2.422   0.803  0.1235  1.4170  0.5179
14071SOL     OW45710   4.094   8.975   8.694  0.2834  0.2174  0.1820
14071SOL    HW145711   4.167   8.914   8.694 -0.5523 -0.8004  0.3952
14071SOL    HW245712   4.098   9.018   8.608 -0.1557 -1.4105 -0.6820
14072SOL     OW45713   2.056   6.953   9.332 -0.3754  0.1639 -0.1678
14072SOL    HW145714   1.978   7.006   9.347  0.6249  2.2062 -1.6594
14072SOL    HW245715   2.129   7.007   9.363  0.6237 -0.7966 -0.7507
14073SOL     OW45716   9.893   4.427   3.710 -0.1723 -0.7020 -0.7759
14073SOL    HW145717   9.906   4.440   3.804  1.1285  0.0954 -1.0492
14073SOL    HW245718   9.919   4.336   3.695  0.3276 -0.6079 -0.4869
14074SOL     OW45719   1.504   1.853   8.717  0.2319 -0.7099 -0.7082
14074SOL    HW145720   1.437   1.869   8.783  0.0456 -0.4604 -0.9560
14074SOL    HW245721   1.513   1.937   8.672  1.9327 -0.2245  0.4247
14075SOL     OW45722   4.056   6.541   9.458 -0.1402  0.6228  0.3466
14075SOL    HW145723   4.023   6.622   9.420 -0.8436  0.4585  0.5919
14075SOL    HW245724   4.033   6.547   9.551 -1.3423 -0.4089  0.1408
14076SOL     OW45725  10.463   5.450   0.160  0.0810 -0.1529 -0.0112
14076SOL    HW145726  10.528   5.391   0.122 -1.0935 -1.7973  0.4302
14076SOL    HW245727  10.455   5.422   0.251 -0.3308  0.8567  0.2787
14077SOL     OW45728   8.670  10.773   0.911  0.0313  0.2098 -0.2106
14077SOL    HW145729   8.755  10.748   0.947 -0.3909  0.5135  1.0382
14077SOL    HW245730   8.666  10.868   0.923  0.0676  0.3941 -1.5153
14078SOL     OW45731   6.210   8.572   0.115 -0.2715  0.0592 -0.0168
14078SOL    HW145732   6.173   8.654   0.147 -0.3920  0.8757 -2.0841
14078SOL    HW245733   6.207   8.579   0.019  2.3517 -1.1265 -0.3021
14079SOL     OW45734   5.492   4.376   3.449  0.1971 -0.0337  0.0061
14079SOL    HW145735   5.543   4.295   3.438  1.0938  0.7767 -2.4620
14079SOL    HW245736   5.438   4.381   3.370 -1.7869  0.5094  1.3264
14080SOL     OW45737   5.057   5.599   7.871 -0.5551 -0.0367  0.0632
14080SOL    HW145738   5.107   5.549   7.807  0.3232  0.6098  0.2354
14080SOL    HW245739   5.085   5.689   7.859 -2.7927  0.6131 -0.8883
14081SOL     OW45740  10.494   0.502   5.825  0.0641 -0.2370  0.2990
14081SOL    HW145741  10.566   0.553   5.789 -0.0629 -0.1429  0.1790
14081SOL    HW245742  10.447   0.563   5.881  0.4753 -0.4790  0.9221
14082SOL     OW45743   9.983   5.480   0.099  0.2372  0.3160  0.5027
14082SOL    HW145744  10.049   5.442   0.042 -0.3991  0.9484 -0.7069
14082SOL    HW245745   9.912   5.415   0.100 -0.2639  0.8129 -0.4523
14083SOL     OW45746   3.804   8.973  10.816  0.2436 -0.1254  0.2610
14083SOL    HW145747   3.714   8.942  10.810 -0.3088  1.4064  0.4405
14083SOL    HW245748   3.844   8.947  10.733 -0.1244 -1.4579  0.4731
14084SOL     OW45749   7.668   9.260   7.489  0.1222 -0.0634  0.7110
14084SOL    HW145750   7.675   9.180   7.437 -1.8178 -0.0713  0.3822
14084SOL    HW245751   7.714   9.240   7.571 -0.5858 -1.6520  0.7546
14085SOL     OW45752   4.574   3.738   0.084 -0.3368  1.1283  1.0741
14085SOL    HW145753   4.605   3.659   0.128 -2.1085 -0.2496 -0.0047
14085SOL    HW245754   4.612   3.733  -0.004 -2.4250  0.1016  0.1736
14086SOL     OW45755   9.478   4.202   9.112 -0.8537 -0.0533  0.0750
14086SOL    HW145756   9.499   4.137   9.179 -0.7218 -0.0878  0.0005
14086SOL    HW245757   9.556   4.257   9.107 -0.4624 -0.6574 -0.7614
14087SOL     OW45758   6.111   0.595   7.131 -0.0411  0.4740  0.5616
14087SOL    HW145759   6.207   0.590   7.132 -0.1144 -2.0449  1.2721
14087SOL    HW245760   6.091   0.653   7.058  2.0140  0.1835 -0.2902
14088SOL     OW45761   3.150  11.001   1.589 -0.3417  0.2846  0.1965
14088SOL    HW145762   3.147  10.911   1.621 -0.3197  0.4165  0.5733
14088SOL    HW245763   3.070  11.041   1.623 -0.3275  0.4228  0.0698
14089SOL     OW45764   1.000   7.908   2.399 -0.4779 -0.0083  0.1322
14089SOL    HW145765   0.930   7.947   2.452 -0.6949 -1.4368  0.9216
14089SOL    HW245766   1.051   7.856   2.460  0.4553 -0.1032 -0.7051
14090SOL     OW45767   3.455   7.382   7.287 -0.4063  0.2564  0.1002
14090SOL    HW145768   3.369   7.424   7.287  0.0656  1.2922  1.2051
14090SOL    HW245769   3.515   7.451   7.259  0.0806 -0.4424 -0.6150
14091SOL     OW45770   3.182   6.043   2.529 -0.1110  0.1515  0.3951
14091SOL    HW145771   3.192   5.979   2.600 -1.4270  0.1379  0.5838
14091SOL    HW245772   3.089   6.043   2.509  0.1267  0.7431 -0.8069
14092SOL     OW45773   9.539   9.329   8.656  0.2325 -0.2826  0.1333
14092SOL    HW145774   9.471   9.340   8.590  1.0243  1.1584 -0.4985
14092SOL    HW245775   9.576   9.243   8.639  0.0586 -0.1491 -0.9696
14093SOL     OW45776   2.528   0.909   4.352 -0.0839  0.2492  0.2811
14093SOL    HW145777   2.451   0.896   4.407  0.9043 -0.4767  1.5369
14093SOL    HW245778   2.549   1.002   4.362  0.0936  0.1240  1.1687
14094SOL     OW45779   2.438   5.636   9.265  0.0409 -0.2634  0.3864
14094SOL    HW145780   2.406   5.665   9.350  0.1384  1.7237 -0.2011
14094SOL    HW245781   2.514   5.692   9.247  1.2714 -1.9798 -0.1540
14095SOL     OW45782   9.832   8.200   4.719  0.1156  0.0983 -0.4825
14095SOL    HW145783   9.888   8.238   4.652  1.5848 -0.3261  0.4675
14095SOL    HW245784   9.837   8.261   4.793  0.5131 -0.6839  0.1478
14096SOL     OW45785   6.587   0.905   4.572  0.1440  0.7933 -0.1047
14096SOL    HW145786   6.605   0.947   4.488 -0.2304 -0.1652 -0.6809
14096SOL    HW245787   6.647   0.948   4.633 -0.9431  2.9028 -0.4160
14097SOL     OW45788   0.046   8.434   5.596  0.0480 -0.6166  0.1697
14097SOL    HW145789   0.096   8.376   5.653 -0.3934 -0.7008  0.4790
14097SOL    HW245790   0.002   8.376   5.534  1.1644 -0.4700 -0.7788
14098SOL     OW45791   2.105   2.144   9.134 -0.1527 -0.1183 -0.2819
14098SOL    HW145792   2.094   2.163   9.041  0.6727  1.1586 -0.1377
14098SOL    HW245793   2.200   2.139   9.146 -0.2195  0.6036  0.6498
14099SOL     OW45794   6.698   0.056   9.946 -0.7153  0.8521  0.4523
14099SOL    HW145795   6.682   0.136   9.997 -2.5252 -0.1000  1.4964
14099SOL    HW245796   6.685  -0.015  10.009 -2.7854 -0.3675 -1.2077
14100SOL     OW45797   7.204   3.048   7.816 -0.2586 -0.3464 -0.2150
14100SOL    HW145798   7.224   3.001   7.735  1.3320 -0.3361  0.1425
14100SOL    HW245799   7.113   3.025   7.835  0.0285 -2.1244 -0.8152
14101SOL     OW45800   9.961   3.703   3.171  0.1555  0.5596  0.0360
14101SOL    HW145801   9.916   3.635   3.121  0.3185 -0.1087  0.7670
14101SOL    HW245802   9.891   3.759   3.204 -0.1627 -0.3947  1.0548
14102SOL     OW45803   3.484   1.679   2.682  0.6926  0.5257 -0.3787
14102SOL    HW145804   3.418   1.681   2.752  1.2213  1.2242  0.1242
14102SOL    HW245805   3.451   1.741   2.617 -0.6211 -1.3352 -1.5524
14103SOL     OW45806   5.572   7.125   9.337 -0.5681 -0.4945 -0.3902
14103SOL    HW145807   5.498   7.097   9.283 -1.6321  0.1764  0.6606
14103SOL    HW245808   5.591   7.049   9.392 -0.3957 -0.7127 -0.7531
14104SOL     OW45809   6.631   3.189   9.953 -0.3371  1.0741 -0.4283
14104SOL    HW145810   6.675   3.227  10.029  1.3603  0.2537 -0.9375
14104SOL    HW245811   6.618   3.097   9.976 -1.4968  1.2263 -0.4346
14105SOL     OW45812   3.820   6.994  10.085 -0.1934 -0.0639 -0.2840
14105SOL    HW145813   3.753   7.061  10.068 -0.4360  0.3788  2.0645
14105SOL    HW245814   3.903   7.042  10.077 -0.2056 -0.2129 -1.5073
14106SOL     OW45815   6.733  10.396   0.676  0.3625 -0.0114  0.0231
14106SOL    HW145816   6.724  10.472   0.733 -0.3222  1.0142 -1.3947
14106SOL    HW245817   6.753  10.324   0.735 -0.9441  0.8743  1.6225
14107SOL     OW45818   1.093   8.137   0.091  0.4282  0.3145  0.0981
14107SOL    HW145819   1.143   8.206   0.135 -0.3046  0.2407  1.0682
14107SOL    HW245820   1.053   8.087   0.162 -1.1535  0.4604 -0.6530
14108SOL     OW45821   6.485   1.104   2.731 -0.2420 -0.2057 -0.1669
14108SOL    HW145822   6.500   1.010   2.720  0.4892 -0.0618 -0.4571
14108SOL    HW245823   6.434   1.111   2.811  0.0099 -0.8220  0.0527
14109SOL     OW45824   1.501   7.752   4.102  0.7177 -0.0276  0.7975
14109SOL    HW145825   1.424   7.755   4.046  1.4192  0.0019 -0.1985
14109SOL    HW245826   1.571   7.791   4.049  1.9535 -2.1122  0.7515
14110SOL     OW45827   3.234   2.877   5.629 -0.3141  0.0818  0.4726
14110SOL    HW145828   3.239   2.969   5.603 -1.4847  0.6589  2.1344
14110SOL    HW245829   3.221   2.829   5.547 -0.1510  1.4324 -0.3658
14111SOL     OW45830  10.275   1.296   6.546 -0.4221  0.2404 -0.4021
14111SOL    HW145831  10.334   1.309   6.620 -1.9154 -0.8780  1.0416
14111SOL    HW245832  10.187   1.306   6.583 -1.2649 -1.7580 -1.7032
14112SOL     OW45833   8.949   8.497   5.592 -0.2223  0.1491 -0.7069
14112SOL    HW145834   8.969   8.556   5.665 -1.3667  0.1022 -0.3351
14112SOL    HW245835   8.951   8.553   5.515 -1.3394  0.7092 -0.3502
14113SOL     OW45836   8.833   9.581   6.628  0.6196 -0.2079 -0.2313
14113SOL    HW145837   8.855   9.585   6.721  0.5871 -0.2847 -0.2201
14113SOL    HW245838   8.900   9.523   6.591  0.3627 -0.5437 -0.1736
14114SOL     OW45839   3.071   9.482   1.535  0.2240  0.1167 -1.1960
14114SOL    HW145840   3.133   9.541   1.491  0.1721  1.4033  0.3502
14114SOL    HW245841   3.120   9.447   1.609  0.0733 -1.3847 -1.7908
14115SOL     OW45842   1.627   7.500   4.027  0.0437  0.3563  0.0203
14115SOL    HW145843   1.591   7.572   4.079  0.8496 -1.1196  2.8148
14115SOL    HW245844   1.573   7.425   4.051  1.1186 -0.5990 -0.4724
14116SOL     OW45845   5.766   7.040   5.152  0.2653  0.2977 -0.8284
14116SOL    HW145846   5.750   6.979   5.223 -0.3176  1.4276  0.0479
14116SOL    HW245847   5.701   7.017   5.086 -0.7823  0.7339  0.0183
14117SOL     OW45848   6.206   8.565   5.649 -0.3419 -0.2508  0.1596
14117SOL    HW145849   6.181   8.622   5.722 -0.7619 -2.2232  1.6309
14117SOL    HW245850   6.194   8.476   5.683  0.0366 -1.2345 -2.1340
14118SOL     OW45851   1.845   2.659   3.572 -0.0801  0.8927  0.1755
14118SOL    HW145852   1.752   2.642   3.590 -0.6879  2.1550 -1.5133
14118SOL    HW245853   1.872   2.585   3.518  0.0058  0.3630  0.9237
14119SOL     OW45854   5.666   8.225   9.788  0.0666 -0.2511 -0.4603
14119SOL    HW145855   5.597   8.161   9.806 -0.5976  0.4132 -0.5935
14119SOL    HW245856   5.725   8.218   9.863  0.0980 -1.1501 -0.5651
14120SOL     OW45857   4.290   3.474  10.904  0.0167  0.2190  0.2805
14120SOL    HW145858   4.256   3.420  10.833 -0.1961 -1.0474  1.3129
14120SOL    HW245859   4.373   3.434  10.928 -0.9997 -0.8456  2.2835
14121SOL     OW45860   3.594   9.723   1.854 -0.1072 -0.2587  0.3001
14121SOL    HW145861   3.520   9.662   1.866 -0.0540 -0.2659  0.6054
14121SOL    HW245862   3.554   9.804   1.822 -0.3741  0.0704  1.4296
14122SOL     OW45863   7.258  10.555   5.712 -0.5912  0.2226  0.0875
14122SOL    HW145864   7.352  10.536   5.706 -0.5831  0.2391  0.1642
14122SOL    HW245865   7.230  10.565   5.621 -1.3192 -3.6518 -0.2971
14123SOL     OW45866   5.324   1.104  10.921 -1.0989  0.2705  0.0476
14123SOL    HW145867   5.287   1.020  10.893 -0.8274  0.2812 -0.3412
14123SOL    HW245868   5.300   1.110  11.013 -1.4696 -0.0474 -0.0257
14124SOL     OW45869   8.991   2.060   7.196 -0.4538  0.1531  0.0821
14124SOL    HW145870   9.053   2.050   7.269 -0.8614  1.8043  0.7075
14124SOL    HW245871   9.044   2.090   7.123 -0.4210  1.0306  0.4589
14125SOL     OW45872   8.406   4.388   0.958  0.1817  0.1415 -0.3045
14125SOL    HW145873   8.451   4.348   1.032  0.7643 -0.1461 -0.8067
14125SOL    HW245874   8.398   4.318   0.893  1.2298  0.8272 -1.2051
14126SOL     OW45875   8.513   2.241   5.251 -1.0715  0.5145  0.8543
14126SOL    HW145876   8.442   2.289   5.208 -0.6372  0.3191 -0.1110
14126SOL    HW245877   8.488   2.149   5.243  0.1228  0.2963 -1.1441
14127SOL     OW45878   7.415   7.059   0.267  0.3156  0.1380 -0.7272
14127SOL    HW145879   7.474   7.133   0.280 -1.4666  1.3573  0.9954
14127SOL    HW245880   7.348   7.092   0.207 -0.2416 -0.2094 -0.3123
14128SOL     OW45881   2.502   0.838   2.002 -0.2145 -0.1315  0.3780
14128SOL    HW145882   2.480   0.886   1.923 -1.3637 -0.3431  0.5475
14128SOL    HW245883   2.427   0.851   2.060  1.0375  0.8828  1.8651
14129SOL     OW45884   5.476   0.450   3.010 -0.3195 -0.8360  0.4343
14129SOL    HW145885   5.429   0.528   2.982  0.4570 -0.7384 -0.6758
14129SOL    HW245886   5.439   0.428   3.096 -0.3472  0.8980  0.8870
14130SOL     OW45887   3.960   9.590  10.291  0.1259  0.1017 -0.8433
14130SOL    HW145888   3.876   9.573  10.248 -2.0703  5.8323  0.3542
14130SOL    HW245889   3.946   9.566  10.382  0.3544 -0.3403 -0.9217
14131SOL     OW45890   8.516   0.595   7.869  0.0106  0.2555 -0.1513
14131SOL    HW145891   8.504   0.513   7.916 -0.1669  0.4369  0.1236
14131SOL    HW245892   8.514   0.662   7.937 -0.1430  0.5120 -0.4067
14132SOL     OW45893   5.432   8.740  10.381 -0.3995 -0.5032  0.0495
14132SOL    HW145894   5.403   8.803  10.315 -0.7177  0.7740  1.3510
14132SOL    HW245895   5.351   8.710  10.422 -0.1018  1.0924  1.9376
14133SOL     OW45896   6.784   8.695   1.191 -0.0506  0.1061  0.3314
14133SOL    HW145897   6.738   8.660   1.115  1.2596  0.1528 -0.4968
14133SOL    HW245898   6.736   8.775   1.213  0.2298  0.6984 -1.1479
14134SOL     OW45899   6.287   3.112   7.938 -0.2250  0.0710 -0.6629
14134SOL    HW145900   6.253   3.195   7.905 -1.2753 -0.8675 -2.0747
14134SOL    HW245901   6.326   3.070   7.861 -1.4561 -1.5756 -0.4426
14135SOL     OW45902   4.037   1.957   6.928 -0.3899 -0.0203 -0.1668
14135SOL    HW145903   3.977   1.937   6.856 -0.8041 -0.0777  0.1891
14135SOL    HW245904   4.008   2.042   6.960  1.2069  1.0915 -1.5081
14136SOL     OW45905   7.816   3.130   8.793  0.7984 -0.1339  0.1105
14136SOL    HW145906   7.765   3.196   8.746  0.2201 -0.5485  0.1466
14136SOL    HW245907   7.901   3.130   8.749  1.1982  1.4289  0.8237
14137SOL     OW45908   5.401   1.394   9.912 -0.2065 -0.2271  0.2308
14137SOL    HW145909   5.426   1.429   9.826 -0.1369 -0.8431 -0.0066
14137SOL    HW245910   5.386   1.301   9.896 -2.3362  0.0367  0.4233
14138SOL     OW45911   1.627   5.170   5.724 -0.3047 -0.2474  0.4134
14138SOL    HW145912   1.710   5.137   5.691 -0.2087  0.3805  0.0102
14138SOL    HW245913   1.651   5.248   5.775 -0.3825 -1.5136  2.4909
14139SOL     OW45914   9.155   6.231   3.349 -0.1116 -1.0133 -0.6579
14139SOL    HW145915   9.202   6.256   3.270  0.2200  0.9347  0.1044
14139SOL    HW245916   9.077   6.185   3.318 -0.1947  0.0795 -2.1332
14140SOL     OW45917   0.942   6.200   2.025 -0.0675  0.4515 -0.1502
14140SOL    HW145918   0.851   6.175   2.037  0.3068 -1.4359 -0.7883
14140SOL    HW245919   0.964   6.252   2.103 -1.5095  0.4198  0.2938
14141SOL     OW45920   3.527   2.099   4.780  0.2939 -0.4540 -0.7321
14141SOL    HW145921   3.594   2.160   4.810 -0.3031 -0.4754  0.7367
14141SOL    HW245922   3.445   2.147   4.786 -0.2348 -1.4455  0.7926
14142SOL     OW45923   8.323   5.506   2.180 -0.6083 -0.3303 -0.4185
14142SOL    HW145924   8.373   5.523   2.260  0.9068 -0.1232 -1.3640
14142SOL    HW245925   8.232   5.524   2.204  0.0044  1.4667  0.7838
14143SOL     OW45926   0.023   5.616  10.879  0.3745  0.8737  0.5028
14143SOL    HW145927   0.091   5.676  10.909  0.2269  1.6683 -0.6875
14143SOL    HW245928   0.048   5.596  10.788 -1.6405  2.1929 -0.3972
14144SOL     OW45929   7.150   4.039   1.505  0.1792  0.0903  0.9316
14144SOL    HW145930   7.231   4.088   1.489  0.0546  0.2977  0.9347
14144SOL    HW245931   7.109   4.084   1.579  1.2369 -1.4526  2.5349
14145SOL     OW45932   3.846   2.896   6.819  0.0449  0.2948 -0.0519
14145SOL    HW145933   3.868   2.895   6.726 -1.4439 -1.7289 -0.4394
14145SOL    HW245934   3.752   2.876   6.822 -0.1924  1.4552  1.8501
14146SOL     OW45935   1.087   7.243   3.968 -0.5587  0.0302 -0.1896
14146SOL    HW145936   1.036   7.301   4.026 -0.2553 -0.4329  0.5596
14146SOL    HW245937   1.178   7.263   3.989 -0.4388 -1.6278  1.0435
14147SOL     OW45938  10.951   5.025  10.240 -0.0125  0.3128 -0.3678
14147SOL    HW145939  10.900   5.098  10.276 -1.7189 -1.4585  1.0141
14147SOL    HW245940  11.010   5.066  10.178 -1.3736  2.7986 -0.1621
14148SOL     OW45941   2.862   9.539   4.404  0.4042 -0.0958  0.0858
14148SOL    HW145942   2.818   9.527   4.488 -0.5543 -2.0896 -0.6443
14148SOL    HW245943   2.833   9.625   4.374  0.9522  0.7603  1.8579
14149SOL     OW45944   5.952  10.042   0.268  0.4051 -0.2558 -0.1397
14149SOL    HW145945   5.873   9.994   0.244  1.8747 -2.3244 -1.1979
14149SOL    HW245946   5.971  10.098   0.193  0.6307 -0.7584 -0.4684
14150SOL     OW45947   5.973  10.236   0.673  0.4484  0.2601 -0.0435
14150SOL    HW145948   6.021  10.306   0.627  1.8374 -0.4226  0.2997
14150SOL    HW245949   5.921  10.282   0.739  1.2780  0.9989  0.1208
14151SOL     OW45950   1.283   2.122   2.001 -0.5089  0.2377  0.1632
14151SOL    HW145951   1.196   2.161   2.001 -0.2792  0.7914 -1.0708
14151SOL    HW245952   1.315   2.134   1.912  1.8001  2.2908  1.1397
14152SOL     OW45953   2.943   2.832   8.479 -0.2910  0.2058 -0.6987
14152SOL    HW145954   2.954   2.771   8.552  0.1243 -1.1109 -1.8092
14152SOL    HW245955   3.006   2.902   8.496  1.0369 -0.9568 -0.6376
14153SOL     OW45956  10.802   6.956   0.761  0.2635 -0.3191 -0.0797
14153SOL    HW145957  10.829   6.866   0.781  0.0319 -1.1670 -3.0583
14153SOL    HW245958  10.749   6.948   0.682  1.5148  2.5876 -1.3763
14154SOL     OW45959   3.611   3.419  10.343 -0.4902 -0.3437 -0.0725
14154SOL    HW145960   3.649   3.390  10.261  0.2816  1.7669 -0.5198
14154SOL    HW245961   3.686   3.443  10.398 -1.0399  1.6710 -0.1179
14155SOL     OW45962   4.071   0.312   4.725 -0.0844  0.3866  0.5486
14155SOL    HW145963   4.022   0.360   4.659 -0.3728  0.5402  0.8691
14155SOL    HW245964   4.162   0.315   4.695  0.1814  2.5674  1.3801
14156SOL     OW45965   5.117   7.073   9.067 -0.2542 -0.3693  0.0657
14156SOL    HW145966   5.084   7.156   9.032 -1.1133  0.1272  1.9729
14156SOL    HW245967   5.061   7.054   9.142  0.3325 -2.3712  0.0596
14157SOL     OW45968   7.782   6.668   5.451 -0.1677 -0.3565 -0.1222
14157SOL    HW145969   7.738   6.628   5.376 -0.0177  0.2719 -0.5604
14157SOL    HW245970   7.756   6.760   5.447 -2.2174 -0.7470  2.0748
14158SOL     OW45971   5.951   5.376   3.425  0.2681 -0.1860 -0.1225
14158SOL    HW145972   5.939   5.415   3.511 -0.0657 -0.8394  0.1297
14158SOL    HW245973   6.042   5.394   3.403 -0.1479  1.6476 -0.4754
14159SOL     OW45974   2.551   5.222   4.723 -0.2630  0.3114  1.1530
14159SOL    HW145975   2.538   5.316   4.738  0.5712  0.6841 -0.2814
14159SOL    HW245976   2.580   5.216   4.632 -0.4417 -1.3629  1.1746
14160SOL     OW45977   4.304   7.166   1.378  0.3485 -0.0850  0.5726
14160SOL    HW145978   4.277   7.253   1.350 -1.2124 -0.7167  0.0102
14160SOL    HW245979   4.257   7.151   1.460 -0.2778 -0.7950  0.1106
14161SOL     OW45980   7.811   5.191   4.297 -0.3494 -0.5045 -0.2209
14161SOL    HW145981   7.809   5.113   4.241 -0.0188  0.3229 -1.4056
14161SOL    HW245982   7.739   5.246   4.266  1.3022  1.0438 -1.4742
14162SOL     OW45983   4.410   8.044   3.920  1.1548 -0.4086  0.4859
14162SOL    HW145984   4.327   8.039   3.872  0.5233  0.9607  1.3808
14162SOL    HW245985   4.414   7.961   3.968  0.0479 -0.2941  0.8156
14163SOL     OW45986   4.688   0.055   4.395 -0.2107 -0.0325 -0.3813
14163SOL    HW145987   4.649   0.142   4.391 -0.6971 -0.1174  1.5753
14163SOL    HW245988   4.782   0.070   4.383 -0.0611  1.0162  1.6273
14164SOL     OW45989   4.134   6.244   0.267 -0.4942 -0.3232 -0.2683
14164SOL    HW145990   4.085   6.254   0.348  0.6086 -0.8987  0.4919
14164SOL    HW245991   4.200   6.313   0.269  0.1162 -0.8922 -0.2320
14165SOL     OW45992   3.447   1.574  10.027  0.0854 -0.2324 -0.5998
14165SOL    HW145993   3.421   1.627  10.102 -0.5367  0.0989 -1.0477
14165SOL    HW245994   3.515   1.625   9.983 -0.2107 -0.0061 -0.7901
14166SOL     OW45995   4.741   9.639   1.994 -0.6632 -0.5240 -0.2554
14166SOL    HW145996   4.646   9.642   1.987 -0.6178  1.8679 -0.5432
14166SOL    HW245997   4.771   9.626   1.904 -0.7106  0.1490 -0.3750
14167SOL     OW45998   8.128   5.291   7.477  0.4701 -0.6898 -0.3770
14167SOL    HW145999   8.212   5.328   7.449  0.1289  1.2843  0.9692
14167SOL    HW246000   8.076   5.284   7.396  0.2734  2.7210 -0.6985
14168SOL     OW46001   2.847   4.806   5.141 -0.6754 -0.8181 -0.1281
14168SOL    HW146002   2.835   4.896   5.172  0.1075 -0.9047  0.4550
14168SOL    HW246003   2.760   4.766   5.150 -0.5506 -0.7442  1.6815
14169SOL     OW46004   1.956   7.263   6.055  0.2262  0.0299 -0.0749
14169SOL    HW146005   2.003   7.257   5.972  1.4578 -1.0506  0.6754
14169SOL    HW246006   1.883   7.202   6.047  0.8099 -0.6683 -0.0732
14170SOL     OW46007   5.653   3.896   6.872 -0.0380  0.5455 -0.1681
14170SOL    HW146008   5.748   3.897   6.875  0.0617  0.0042 -1.9766
14170SOL    HW246009   5.627   3.837   6.943  1.1341 -1.5242 -1.3613
14171SOL     OW46010   5.408   1.875   3.488 -0.0785  0.4615 -0.3504
14171SOL    HW146011   5.475   1.842   3.548  0.6140 -0.9510 -1.8204
14171SOL    HW246012   5.453   1.939   3.433  0.0198 -0.3211 -1.1936
14172SOL     OW46013   6.262   7.343   1.310  0.4222 -0.0878 -0.2860
14172SOL    HW146014   6.207   7.398   1.367  2.6437  1.9272  0.0846
14172SOL    HW246015   6.200   7.296   1.255 -1.7730 -0.5737  2.3760
14173SOL     OW46016   5.519   5.887   5.000 -0.2792  0.3042 -0.0561
14173SOL    HW146017   5.429   5.875   4.971 -0.5134 -1.1133  1.1445
14173SOL    HW246018   5.531   5.822   5.069  1.1697  1.5551  0.9262
14174SOL     OW46019   9.167   1.985   3.713  0.1398 -0.4477 -0.2797
14174SOL    HW146020   9.161   1.985   3.617 -0.9054 -0.9903 -0.2382
14174SOL    HW246021   9.101   1.921   3.740 -0.3240  0.4812  0.8503
14175SOL     OW46022   5.281   7.017  10.981 -0.0257  0.4311 -0.5918
14175SOL    HW146023   5.279   6.931  11.025 -1.9455  1.3298  1.2807
14175SOL    HW246024   5.357   7.012  10.922  1.3979 -1.6872  1.2273
14176SOL     OW46025   5.057   1.917   5.778 -0.2348 -0.0635  0.3259
14176SOL    HW146026   5.135   1.916   5.833 -0.8750  0.9684  1.2994
14176SOL    HW246027   5.036   2.010   5.768 -2.6021 -0.3186  2.0059
14177SOL     OW46028   9.783   3.477   2.746 -0.2374 -0.2087 -0.2553
14177SOL    HW146029   9.834   3.506   2.671  1.1371 -0.2805  0.6337
14177SOL    HW246030   9.795   3.382   2.748 -2.8786 -0.6905 -1.7967
14178SOL     OW46031   5.721   3.166   0.224 -0.4037  0.2999  0.6068
14178SOL    HW146032   5.665   3.099   0.185  0.7097  0.1071 -0.7559
14178SOL    HW246033   5.782   3.116   0.279  2.3102 -0.3120 -2.6096
14179SOL     OW46034  10.001   9.645   8.842  0.2967 -0.5070  0.0067
14179SOL    HW146035  10.027   9.690   8.762  1.5510  0.0862  0.7045
14179SOL    HW246036   9.936   9.703   8.882 -1.3080 -1.4148 -1.1616
14180SOL     OW46037   0.297   8.400   5.331 -0.2433 -0.1781 -0.3107
14180SOL    HW146038   0.311   8.421   5.239  2.4390  0.4916  0.1637
14180SOL    HW246039   0.290   8.485   5.374  1.2515 -0.3864  0.4158
14181SOL     OW46040   8.075   8.768   3.361 -0.4501  0.3262 -0.2686
14181SOL    HW146041   7.998   8.786   3.307 -1.8274  1.2868  1.8854
14181SOL    HW246042   8.061   8.819   3.440  1.2857 -1.2941  1.1802
14182SOL     OW46043   6.815   3.955  10.323 -0.6956  0.0239  0.8847
14182SOL    HW146044   6.848   3.866  10.314  0.0391  0.3008  0.6895
14182SOL    HW246045   6.844   3.983  10.409  1.5349  1.0136 -0.1000
14183SOL     OW46046   9.496   7.644   1.964  0.0638 -0.0262 -0.1174
14183SOL    HW146047   9.476   7.604   2.048  0.0215 -0.4561 -0.3289
14183SOL    HW246048   9.418   7.627   1.910 -0.6376  1.7330  0.2748
14184SOL     OW46049   5.577   9.798   3.861 -0.5755 -0.0884  0.1220
14184SOL    HW146050   5.512   9.790   3.792 -0.3584  1.8254 -0.3672
14184SOL    HW246051   5.634   9.722   3.850 -1.9758 -1.1117 -0.2283
14185SOL     OW46052   9.215   2.831   5.357  0.9545 -0.6285  0.4934
14185SOL    HW146053   9.184   2.771   5.426  1.2000 -0.2959  0.8997
14185SOL    HW246054   9.307   2.808   5.345  0.2349 -2.7013 -1.8429
14186SOL     OW46055   1.297   8.449   0.374 -0.2479  0.4407  0.0939
14186SOL    HW146056   1.347   8.465   0.294 -0.3090  1.9647  0.3410
14186SOL    HW246057   1.345   8.380   0.419  0.4784  0.4511 -0.6511
14187SOL     OW46058   2.528   5.439   8.847 -0.2087 -0.5918  0.7038
14187SOL    HW146059   2.516   5.502   8.776  1.2188 -3.2501 -2.0851
14187SOL    HW246060   2.609   5.468   8.890 -0.3721  0.2958  0.4461
14188SOL     OW46061   9.389   3.757   5.701  0.0722  0.0866  0.0062
14188SOL    HW146062   9.432   3.821   5.758  0.6654  0.3557 -0.7304
14188SOL    HW246063   9.306   3.798   5.678 -0.0940  0.0536  0.5251
14189SOL     OW46064   6.842   5.822   8.492 -0.1166  0.3618 -0.7125
14189SOL    HW146065   6.824   5.805   8.400 -0.4737 -0.3129 -0.5192
14189SOL    HW246066   6.800   5.750   8.539  1.1510 -0.0041 -0.1029
14190SOL     OW46067  10.915   4.839   2.224  0.4575  0.2125 -0.0235
14190SOL    HW146068  10.853   4.782   2.179  1.6203 -0.7620 -0.4509
14190SOL    HW246069  10.920   4.804   2.313 -1.5389  1.8989  0.8370
14191SOL     OW46070   5.973   1.011  10.490  0.3176 -0.2343  0.5807
14191SOL    HW146071   5.887   1.052  10.504  0.8167  0.1051  3.1316
14191SOL    HW246072   5.983   1.008  10.394 -2.9724 -1.2941  0.1498
14192SOL     OW46073   7.281   6.226   9.575 -0.2762  0.1799 -0.7235
14192SOL    HW146074   7.207   6.166   9.567  0.5498 -0.8460 -0.8364
14192SOL    HW246075   7.317   6.232   9.486 -0.3912  0.9148 -0.7306
14193SOL     OW46076   2.167   8.781   0.633  0.1073  0.4069  0.4757
14193SOL    HW146077   2.101   8.753   0.570 -0.2529 -0.3831  1.1878
14193SOL    HW246078   2.118   8.798   0.713  0.2822  3.2453  0.0845
14194SOL     OW46079   1.114   7.591   3.248  0.4161 -0.2222  0.4193
14194SOL    HW146080   1.073   7.511   3.280 -0.4268 -0.9646 -2.2827
14194SOL    HW246081   1.204   7.565   3.228  0.7187  0.0461  1.3757
14195SOL     OW46082   4.295   6.862   2.331 -0.6557  0.1239  0.0910
14195SOL    HW146083   4.345   6.784   2.354 -0.8532  0.0400  0.2375
14195SOL    HW246084   4.205   6.842   2.358 -0.7015  0.4118  0.1571
14196SOL     OW46085   5.539   5.367   8.796  0.0342  0.3450 -0.2030
14196SOL    HW146086   5.584   5.412   8.724 -2.0584  2.6118 -0.2412
14196SOL    HW246087   5.456   5.337   8.758 -0.2896 -0.0962  0.8096
14197SOL     OW46088   4.485   7.253   3.534 -0.3275 -0.0841 -0.5438
14197SOL    HW146089   4.460   7.315   3.466 -0.5925 -0.6938 -1.0018
14197SOL    HW246090   4.491   7.168   3.490 -4.5773 -1.3645  0.8908
14198SOL     OW46091   6.611   1.347   2.183 -0.7779 -0.3046  0.2471
14198SOL    HW146092   6.585   1.437   2.163 -0.2424 -0.6920 -2.7214
14198SOL    HW246093   6.599   1.300   2.100 -0.5369 -2.8666  1.5699
14199SOL     OW46094   8.319   9.063   9.169  0.0254  0.0184  0.1560
14199SOL    HW146095   8.224   9.051   9.166 -0.5690  2.7882  2.7338
14199SOL    HW246096   8.349   8.997   9.230 -0.7780  0.9808  1.6735
14200SOL     OW46097  10.818   5.404   2.624  0.3106  1.0578 -0.3008
14200SOL    HW146098  10.770   5.480   2.590 -0.7269 -0.0575 -1.4034
14200SOL    HW246099  10.776   5.384   2.707 -0.2951  0.8867 -0.6429
14201SOL     OW46100   5.981   1.502   8.386  0.2922 -0.2950  0.4070
14201SOL    HW146101   5.970   1.426   8.329  0.8958 -0.0339 -0.0743
14201SOL    HW246102   5.977   1.577   8.327  2.2166 -0.0780  0.4651
14202SOL     OW46103   0.481   6.106   3.966  0.0136 -0.2263 -0.1057
14202SOL    HW146104   0.438   6.167   3.906 -0.5505  0.1031  0.6163
14202SOL    HW246105   0.433   6.116   4.048  0.1746 -1.3574  0.1370
14203SOL     OW46106   2.183   3.532   1.495 -0.5820  0.1804 -0.3115
14203SOL    HW146107   2.247   3.522   1.566 -2.2903 -0.5731  1.1940
14203SOL    HW246108   2.120   3.595   1.528 -1.5218 -0.3240 -1.0923
14204SOL     OW46109   1.390   9.600   7.280 -0.0958  0.2489 -0.4579
14204SOL    HW146110   1.435   9.671   7.233  3.6574 -1.6079 -0.0482
14204SOL    HW246111   1.400   9.622   7.372 -2.0138  0.8129 -0.3400
14205SOL     OW46112   5.890   8.264   3.505  0.3206 -0.2827 -0.2272
14205SOL    HW146113   5.857   8.174   3.502  1.7416 -0.8904  1.0347
14205SOL    HW246114   5.862   8.298   3.589 -2.5755  1.5078 -1.7600
14206SOL     OW46115   0.702   7.182   2.307 -0.2428 -0.0874 -0.2073
14206SOL    HW146116   0.740   7.197   2.220 -0.5569 -1.8583 -0.6818
14206SOL    HW246117   0.618   7.227   2.304  0.4603  1.2949 -0.2031
14207SOL     OW46118   8.297   5.606   0.944 -0.2814 -0.2491 -0.0650
14207SOL    HW146119   8.290   5.514   0.969  0.1013  0.2187  2.0260
14207SOL    HW246120   8.243   5.615   0.866  0.2819 -2.3813 -0.7567
14208SOL     OW46121   7.578   2.722   7.973 -0.8493 -0.1445 -0.4665
14208SOL    HW146122   7.670   2.744   7.990 -0.6809 -0.3008 -1.1554
14208SOL    HW246123   7.556   2.658   8.041 -0.3981 -0.2381 -0.4056
14209SOL     OW46124   6.698   3.653  10.793  0.6162  0.4002 -0.2283
14209SOL    HW146125   6.671   3.639  10.702  1.0259 -1.9311 -0.0655
14209SOL    HW246126   6.792   3.634  10.793  0.2756 -1.6152  0.9694
14210SOL     OW46127   6.704   6.195   5.805  0.4735 -0.2958 -0.5623
14210SOL    HW146128   6.797   6.202   5.784  0.4490 -0.5097 -0.7469
14210SOL    HW246129   6.667   6.279   5.778  0.4298 -0.5882 -1.4536
14211SOL     OW46130   3.675   5.603   1.625 -0.3375 -0.2629 -0.2146
14211SOL    HW146131   3.729   5.603   1.546 -1.1259  2.1650 -0.8438
14211SOL    HW246132   3.598   5.552   1.602 -0.1683 -0.2913 -0.7267
14212SOL     OW46133   0.075   4.161   0.164 -0.0321  0.2016  0.4875
14212SOL    HW146134   0.150   4.143   0.221 -0.1155 -3.3516 -0.2957
14212SOL    HW246135  -0.000   4.162   0.224  0.2688  0.5443  0.8737
14213SOL     OW46136   0.148   0.699   8.929  0.7290 -0.3769 -0.1038
14213SOL    HW146137   0.219   0.681   8.866 -0.3012 -0.1475 -1.3811
14213SOL    HW246138   0.100   0.772   8.889  0.3024  0.0771  1.1992
14214SOL     OW46139   6.265   4.588   3.844  0.0788 -0.6261  0.0079
14214SOL    HW146140   6.257   4.647   3.769  0.3913 -1.1316 -0.4280
14214SOL    HW246141   6.258   4.500   3.807  1.6495 -0.9382  0.3567
14215SOL     OW46142   8.202   5.221   8.512 -0.3080 -0.5967  0.9273
14215SOL    HW146143   8.172   5.184   8.594 -0.6126  2.2638  2.2328
14215SOL    HW246144   8.122   5.254   8.470 -0.0150 -1.0226  0.0028
14216SOL     OW46145   8.238   6.717   3.266  0.3982 -0.1008  0.4471
14216SOL    HW146146   8.333   6.731   3.258  0.9805 -2.7901  1.2965
14216SOL    HW246147   8.203   6.739   3.180  1.9278  0.2307 -0.1254
14217SOL     OW46148   3.526   9.730   5.766 -0.6533 -0.3687  0.4812
14217SOL    HW146149   3.573   9.813   5.767 -1.0595 -0.1370  1.1990
14217SOL    HW246150   3.446   9.748   5.716  0.6360 -1.1458 -2.0569
14218SOL     OW46151   9.863  10.901   2.181  0.4282  0.0286 -0.3516
14218SOL    HW146152   9.836  10.860   2.098  0.0797 -0.1433 -0.1557
14218SOL    HW246153   9.804  10.863   2.246 -0.6728  1.6676 -0.3300
14219SOL     OW46154   1.156   7.584   6.134  0.0604  0.4173 -0.7786
14219SOL    HW146155   1.189   7.672   6.119 -0.2146  0.6929  0.1581
14219SOL    HW246156   1.209   7.550   6.206 -0.2811  0.0685 -0.6882
14220SOL     OW46157   5.943   7.326   9.069 -0.1065  0.2936 -0.2864
14220SOL    HW146158   5.908   7.304   9.155 -0.3047  1.7987  0.0436
14220SOL    HW246159   6.028   7.282   9.065 -0.2669 -0.0999  0.5297
14221SOL     OW46160  10.994   6.464  10.460 -0.1319 -0.0191 -0.3810
14221SOL    HW146161  11.058   6.466  10.389  1.1071 -2.1258  0.5633
14221SOL    HW246162  10.910   6.484  10.418  0.8177  0.5966 -2.0740
14222SOL     OW46163  10.576   0.985   2.359 -0.2024  0.2928  0.4184
14222SOL    HW146164  10.517   0.910   2.346 -1.0293  0.8873  0.6790
14222SOL    HW246165  10.633   0.958   2.430 -0.5360 -0.0665  0.5548
14223SOL     OW46166   1.373   1.890   3.001 -0.0303 -0.4050  0.2101
14223SOL    HW146167   1.365   1.849   2.915  0.2739  0.6699 -0.3508
14223SOL    HW246168   1.436   1.836   3.048  0.8678 -0.2088 -0.7458
14224SOL     OW46169   8.245   8.044   3.301 -0.4845 -0.2208 -0.1288
14224SOL    HW146170   8.334   8.033   3.270 -0.6485 -0.6207 -0.4706
14224SOL    HW246171   8.192   7.990   3.242 -0.8992 -0.3163  0.3212
14225SOL     OW46172   4.859   5.741  10.697 -0.3949 -0.0642  0.0787
14225SOL    HW146173   4.953   5.726  10.704 -0.7566 -1.7188  2.0690
14225SOL    HW246174   4.851   5.834  10.672  1.7299 -0.0442 -0.7134
14226SOL     OW46175   1.438   3.652   2.426  0.5957 -0.0865  0.0557
14226SOL    HW146176   1.344   3.648   2.444  0.6043  0.9033  0.3587
14226SOL    HW246177   1.476   3.581   2.477 -0.1516 -1.4763 -1.2383
14227SOL     OW46178   6.719   7.833   1.233  0.4257  0.6172 -0.1583
14227SOL    HW146179   6.791   7.894   1.219 -1.0133  2.5283  0.4018
14227SOL    HW246180   6.642   7.877   1.197 -0.6657 -0.9213  0.1621
14228SOL     OW46181   2.678   8.070  10.143 -0.0144 -0.0053  0.1337
14228SOL    HW146182   2.642   7.982  10.153  2.2707 -1.1194 -0.6485
14228SOL    HW246183   2.730   8.066  10.063  0.9413  1.7603  0.5989
14229SOL     OW46184  10.947   4.640   2.430 -0.4213  0.4771 -0.4731
14229SOL    HW146185  10.957   4.639   2.525 -0.5191 -0.6551 -0.4630
14229SOL    HW246186  11.034   4.667   2.398 -0.4016  0.9096 -0.0763
14230SOL     OW46187   2.366   8.820   3.901  0.2951  0.4381  0.1039
14230SOL    HW146188   2.293   8.867   3.861 -0.5018 -0.8228  0.0138
14230SOL    HW246189   2.429   8.889   3.924 -0.8211  1.5415  0.0018
14231SOL     OW46190   0.440  10.945   6.355  0.8054  0.2687 -0.0953
14231SOL    HW146191   0.417  11.032   6.322  0.8128  0.4091  0.2679
14231SOL    HW246192   0.533  10.935   6.334  0.8133  0.3630 -0.1030
14232SOL     OW46193  10.629   5.766   7.871 -0.5870 -0.5033  0.4868
14232SOL    HW146194  10.571   5.706   7.825 -1.0592 -1.6580  2.4865
14232SOL    HW246195  10.590   5.775   7.958  0.2577  1.6101  0.7134
14233SOL     OW46196   8.113   1.766   1.033  0.1160  0.1772  0.0688
14233SOL    HW146197   8.112   1.671   1.038  0.9936  0.1693  0.3477
14233SOL    HW246198   8.134   1.795   1.122 -0.7013  0.6531  0.1166
14234SOL     OW46199   4.210   3.469   2.367  0.1314 -0.1424  0.7153
14234SOL    HW146200   4.210   3.412   2.290 -0.7021  0.8958 -0.0830
14234SOL    HW246201   4.284   3.528   2.352 -0.8109  0.9001  0.0395
14235SOL     OW46202   6.900   0.416   5.274 -0.3604 -0.0828 -0.2355
14235SOL    HW146203   6.857   0.379   5.351  0.9070  0.0501  0.5611
14235SOL    HW246204   6.833   0.473   5.234 -1.3009 -0.7930  0.2756
14236SOL     OW46205   0.142   1.704   0.299 -0.2722  0.0315  0.4064
14236SOL    HW146206   0.055   1.674   0.326 -0.7323  1.3709  0.5106
14236SOL    HW246207   0.133   1.723   0.206 -0.2315  0.6031  0.5136
14237SOL     OW46208   3.185   2.389   8.011 -0.0505  0.5223 -0.3166
14237SOL    HW146209   3.240   2.428   8.079 -1.2870  1.9427 -0.0897
14237SOL    HW246210   3.208   2.296   8.014  2.3840  1.0369 -0.3142
14238SOL     OW46211   6.779  10.805   7.191  0.4249  0.3230  0.3517
14238SOL    HW146212   6.697  10.797   7.239 -0.8790 -0.0604 -1.8234
14238SOL    HW246213   6.763  10.872   7.125  2.4137  1.3862  0.8494
14239SOL     OW46214   2.281  10.984   2.814  0.1949 -0.0472 -0.0620
14239SOL    HW146215   2.199  10.989   2.863  1.2728 -0.6752  1.8802
14239SOL    HW246216   2.295  10.890   2.800  1.0970 -0.0125  0.5391
14240SOL     OW46217   2.345   3.516   5.223  0.4922  0.3705  0.3109
14240SOL    HW146218   2.379   3.535   5.136  0.0472  0.7031  0.2020
14240SOL    HW246219   2.421   3.493   5.275  0.5716 -1.7776 -0.6574
14241SOL     OW46220   8.951   8.717  10.470 -1.3782 -0.7116  0.3785
14241SOL    HW146221   8.870   8.733  10.520 -0.6191 -0.5984  1.6146
14241SOL    HW246222   9.014   8.687  10.536 -0.7709 -2.0607 -0.7831
14242SOL     OW46223   4.576   1.589   0.336 -0.9081 -0.0029  0.1287
14242SOL    HW146224   4.547   1.680   0.333 -1.3415 -0.1303  0.4096
14242SOL    HW246225   4.639   1.586   0.408  0.6883  0.5185 -1.1809
14243SOL     OW46226   4.312   6.412   0.662  0.5928  0.0449  0.0768
14243SOL    HW146227   4.342   6.361   0.737 -0.3234  0.1671  0.5346
14243SOL    HW246228   4.226   6.445   0.687  0.2188  0.0015 -1.0667
14244SOL     OW46229   3.824   2.344   2.546 -0.1166 -0.1560  0.3681
14244SOL    HW146230   3.750   2.392   2.508 -0.0720 -0.6927 -0.4132
14244SOL    HW246231   3.896   2.358   2.485 -0.1535 -1.3540  0.0260
14245SOL     OW46232   3.478   8.776   8.649  0.1160  0.2092 -0.7948
14245SOL    HW146233   3.571   8.767   8.627 -0.1341 -0.4306 -1.6347
14245SOL    HW246234   3.432   8.739   8.574 -0.7845 -2.3652  0.9164
14246SOL     OW46235   5.787   5.770  10.353 -0.0388 -0.1012 -0.0480
14246SOL    HW146236   5.750   5.750  10.439 -0.9429 -0.5998 -0.5381
14246SOL    HW246237   5.712   5.768  10.293  0.5856  0.1662 -0.8601
14247SOL     OW46238   0.342   2.290   2.209 -0.0452  0.3420  0.6101
14247SOL    HW146239   0.269   2.344   2.179 -0.4200 -0.1398  0.6410
14247SOL    HW246240   0.385   2.262   2.129  0.4409  1.0715  0.6065
14248SOL     OW46241   1.967   1.275   1.131 -0.6693  0.0389 -0.0554
14248SOL    HW146242   2.055   1.289   1.095 -1.1535 -0.8398 -1.6738
14248SOL    HW246243   1.926   1.361   1.127  0.4385  0.7166  1.7717
14249SOL     OW46244   5.428   1.201   1.790  0.1749 -0.0878  0.2344
14249SOL    HW146245   5.394   1.112   1.782  1.8910 -0.7945  0.4297
14249SOL    HW246246   5.512   1.191   1.835  0.0869  1.7091  0.8902
14250SOL     OW46247   8.097  10.390  10.090  0.6937  0.4821  0.4865
14250SOL    HW146248   8.152  10.312  10.098  1.9840  1.0943 -1.4751
14250SOL    HW246249   8.118  10.442  10.168 -0.7099 -1.3700  2.1816
14251SOL     OW46250   4.107   9.997   3.166  0.7611  0.7890 -0.2553
14251SOL    HW146251   4.185  10.049   3.184 -0.6013  3.6888 -1.9565
14251SOL    HW246252   4.106   9.989   3.071  0.6530 -2.1058 -0.0728
14252SOL     OW46253  10.121   3.226   2.172  0.2693  0.6395  0.1615
14252SOL    HW146254  10.124   3.133   2.151  1.4375  0.8548 -0.7383
14252SOL    HW246255  10.029   3.249   2.166 -0.1394 -0.6262  1.2078
14253SOL     OW46256   7.631   3.093   1.670  0.4570 -0.3942  0.5301
14253SOL    HW146257   7.677   3.162   1.622  1.2316 -1.5227 -0.3877
14253SOL    HW246258   7.575   3.141   1.731  0.0957  1.0676 -0.8789
14254SOL     OW46259   9.320   8.616   5.192 -0.4280 -0.1665  0.1693
14254SOL    HW146260   9.359   8.675   5.128  1.1288 -0.0366  1.1713
14254SOL    HW246261   9.296   8.538   5.143 -2.5066  1.2381 -1.1841
14255SOL     OW46262   5.847   9.531   4.423 -0.1934  0.0172  0.0868
14255SOL    HW146263   5.759   9.492   4.427 -0.7443  1.2845  1.0312
14255SOL    HW246264   5.906   9.456   4.429 -1.2075 -0.8186 -0.0007
14256SOL     OW46265   6.334   3.025   8.221  0.4246 -0.8873 -0.0515
14256SOL    HW146266   6.317   3.060   8.134  0.2558 -0.7003  0.0567
14256SOL    HW246267   6.280   2.946   8.227 -1.7666  0.5739  0.8996
14257SOL     OW46268   3.106   8.190   7.337  0.3897 -0.1512 -0.5207
14257SOL    HW146269   3.097   8.154   7.426  0.9831  0.0099 -0.3930
14257SOL    HW246270   3.200   8.189   7.320  0.3108  0.1849 -0.9980
14258SOL     OW46271   7.495   0.170   8.258  0.3685  0.0053  0.0678
14258SOL    HW146272   7.437   0.129   8.194  0.5705  1.5720 -1.1681
14258SOL    HW246273   7.566   0.106   8.269 -0.6644 -1.1470  0.2576
14259SOL     OW46274   0.898   5.691   0.071  0.4518 -0.0878  0.4999
14259SOL    HW146275   0.927   5.781   0.085  0.9181  0.0033 -0.9016
14259SOL    HW246276   0.968   5.636   0.105  0.4858  0.0886  0.7113
14260SOL     OW46277  10.932  10.993   6.663  0.4246  0.5371 -0.2998
14260SOL    HW146278  11.003  10.985   6.600 -0.0551 -1.0237 -0.6729
14260SOL    HW246279  10.885  11.072   6.636 -1.4682 -1.5300 -3.7475
14261SOL     OW46280   1.508   7.389   1.068  0.3785  0.3923 -0.5496
14261SOL    HW146281   1.542   7.378   0.979 -2.0689 -1.7277 -1.3201
14261SOL    HW246282   1.556   7.325   1.120  0.8994  0.7331 -0.6034
14262SOL     OW46283   0.775   6.828   9.745 -0.3363  0.1723  0.8926
14262SOL    HW146284   0.853   6.805   9.694  0.9101  0.4310  2.5823
14262SOL    HW246285   0.712   6.759   9.725  1.2554 -1.5381  1.4319
14263SOL     OW46286   6.120  10.052   0.501 -0.2704 -0.4988 -0.0013
14263SOL    HW146287   6.060  10.032   0.430 -0.9843 -0.2183  0.5122
14263SOL    HW246288   6.067  10.100   0.565  0.7086  0.5455  0.0595
14264SOL     OW46289   2.242   7.874   9.932 -0.4363 -0.0380  0.5275
14264SOL    HW146290   2.167   7.845   9.880  0.7056  0.1939 -1.3504
14264SOL    HW246291   2.317   7.830   9.893  0.9548  2.8869 -0.4002
14265SOL     OW46292   0.434   1.962   1.743 -0.3274 -0.1552 -0.6578
14265SOL    HW146293   0.520   1.988   1.707  0.1635  1.7068  1.6223
14265SOL    HW246294   0.443   1.868   1.760  1.4908  0.0970  0.0371
14266SOL     OW46295   8.994   7.634   3.132  0.1687 -0.6901  0.7343
14266SOL    HW146296   9.034   7.602   3.213 -1.1978  0.3658  1.8668
14266SOL    HW246297   8.908   7.667   3.158  0.1977  0.8717 -0.9155
14267SOL     OW46298   2.306   5.337   3.758 -0.1116 -0.0465 -0.1320
14267SOL    HW146299   2.250   5.347   3.835 -1.3479  0.2345 -1.0390
14267SOL    HW246300   2.258   5.279   3.700  1.3166 -1.1620 -0.2609
14268SOL     OW46301   7.339   7.890  10.094  0.4575  0.3074 -0.2301
14268SOL    HW146302   7.264   7.893  10.035  0.5135 -0.0408 -0.3200
14268SOL    HW246303   7.325   7.964  10.154  0.5080  0.7798 -0.7977
14269SOL     OW46304   6.943   6.598   1.168  0.1329  0.0086  0.2060
14269SOL    HW146305   6.937   6.667   1.233  1.1843 -0.1357  0.4773
14269SOL    HW246306   6.935   6.517   1.218  2.1258 -0.1457  0.3785
14270SOL     OW46307   5.702   5.305   3.130 -0.2895  0.5349  0.1865
14270SOL    HW146308   5.751   5.223   3.130 -0.0750  0.6519 -0.6969
14270SOL    HW246309   5.767   5.371   3.154 -0.1473  0.6169 -0.4224
14271SOL     OW46310   6.248   7.094  10.559 -0.1035  0.1475  0.7044
14271SOL    HW146311   6.247   7.009  10.603  1.3033  0.0552  0.5799
14271SOL    HW246312   6.206   7.077  10.474  1.5222 -0.7995  0.0579
14272SOL     OW46313   9.031   9.429   7.669  0.0401 -0.4464  0.4877
14272SOL    HW146314   9.072   9.435   7.755  0.4654 -1.1518  0.3389
14272SOL    HW246315   9.102   9.446   7.607 -0.5700  1.6986  0.2790
14273SOL     OW46316   1.425   6.130   3.960 -1.1229 -0.1711  0.0608
14273SOL    HW146317   1.500   6.087   3.917  0.5281  1.6159  0.9944
14273SOL    HW246318   1.390   6.062   4.019  0.7552 -0.6401  0.7310
14274SOL     OW46319   4.379  10.843   0.769 -0.2031 -0.3135  0.4252
14274SOL    HW146320   4.360  10.932   0.738 -0.5855 -0.3356  0.5913
14274SOL    HW246321   4.396  10.793   0.689  1.2832  0.1904  0.3999
14275SOL     OW46322   0.773   6.472   1.045 -0.0133  0.3803 -0.3899
14275SOL    HW146323   0.786   6.400   0.982 -1.6754 -1.5463  1.3200
14275SOL    HW246324   0.822   6.445   1.123 -3.3954 -0.7403  1.5197
14276SOL     OW46325   9.501   4.812  10.882  0.2378  0.1959 -0.3913
14276SOL    HW146326   9.406   4.813  10.890  0.1390 -1.1675 -1.1583
14276SOL    HW246327   9.530   4.745  10.944  0.6652  0.3456 -0.4248
14277SOL     OW46328   5.663   4.804   2.996 -0.3037 -0.4285  0.2894
14277SOL    HW146329   5.585   4.844   2.958 -0.4278 -0.6064  0.3571
14277SOL    HW246330   5.678   4.726   2.943  0.4722  0.1874 -0.4286
14278SOL     OW46331   8.987  10.466   5.445  0.1160  0.3729  0.7751
14278SOL    HW146332   9.057  10.467   5.380 -0.6382  0.7139 -0.0477
14278SOL    HW246333   8.937  10.388   5.425 -0.0746  0.4381  0.9950
14279SOL     OW46334   5.689   7.160   3.824 -0.1044 -0.5668 -0.1061
14279SOL    HW146335   5.714   7.072   3.853  0.2883 -1.0011 -1.6421
14279SOL    HW246336   5.597   7.167   3.846 -0.0594 -1.2458  0.3254
14280SOL     OW46337   7.251   7.342   1.574 -0.1691 -0.2893  0.0037
14280SOL    HW146338   7.288   7.428   1.558  1.2785 -0.4716  2.0141
14280SOL    HW246339   7.286   7.287   1.504  0.6320  0.2930 -0.0677
14281SOL     OW46340   8.440   8.827   0.186  0.2797 -0.0559 -0.0077
14281SOL    HW146341   8.435   8.751   0.128  1.3155 -1.2215  1.3685
14281SOL    HW246342   8.350   8.861   0.188  0.1633 -0.1087 -2.0713
14282SOL     OW46343   8.820   1.029   8.147 -0.1866  0.0694  0.3977
14282SOL    HW146344   8.779   1.044   8.232 -0.9929  1.8038 -0.2538
14282SOL    HW246345   8.827   1.116   8.108 -1.4979 -0.8094 -2.0460
14283SOL     OW46346   4.234   5.178   7.835 -0.2064 -0.4699  0.2488
14283SOL    HW146347   4.313   5.172   7.888  0.8048  1.5777 -0.9057
14283SOL    HW246348   4.186   5.252   7.871  0.8572  1.4521 -1.9611
14284SOL     OW46349   5.747   2.407   8.283 -0.0066 -0.5518 -0.0907
14284SOL    HW146350   5.671   2.464   8.294  0.4583  0.1627 -0.5732
14284SOL    HW246351   5.809   2.436   8.350  0.7463  0.3736 -1.1742
14285SOL     OW46352   9.566   6.941  10.691  0.2833  0.3940 -0.1222
14285SOL    HW146353   9.644   6.886  10.681  0.6044  1.0568 -1.4073
14285SOL    HW246354   9.593   7.028  10.663 -0.8966  0.6527 -0.5470
14286SOL     OW46355   6.326   3.537   6.345  0.3223  0.6652 -0.3713
14286SOL    HW146356   6.349   3.448   6.373  1.0910  1.4015  1.5216
14286SOL    HW246357   6.392   3.559   6.279  0.9408  0.3041  0.1179
14287SOL     OW46358   0.817   5.069   1.888  0.3570 -0.0422  0.3643
14287SOL    HW146359   0.839   4.987   1.845 -2.8575 -0.7423 -0.1868
14287SOL    HW246360   0.765   5.117   1.824 -0.2906  1.1265  1.7029
14288SOL     OW46361   3.471   8.049   3.589 -0.4481 -0.6524 -0.3662
14288SOL    HW146362   3.559   8.065   3.623 -1.4042  0.5635  1.7497
14288SOL    HW246363   3.427   8.000   3.658 -1.8395 -0.0187 -0.7616
14289SOL     OW46364   4.057   2.129   9.429  0.2040  0.3206 -0.2710
14289SOL    HW146365   4.098   2.182   9.360 -1.1298  0.7674 -0.7438
14289SOL    HW246366   4.009   2.062   9.382  0.4862 -0.2805  0.2888
14290SOL     OW46367   0.008   5.707   9.142 -0.0733  0.0470  0.1881
14290SOL    HW146368   0.070   5.760   9.192 -2.9092  2.4729  1.4806
14290SOL    HW246369  -0.030   5.647   9.207 -0.8605  0.3454  0.0114
14291SOL     OW46370  10.941   6.915   8.622 -0.5505 -0.0255 -0.3606
14291SOL    HW146371  10.988   6.995   8.598 -0.4009 -0.2964 -0.9888
14291SOL    HW246372  10.855   6.945   8.650  0.4615  0.6424  2.3438
14292SOL     OW46373  10.748   8.237  10.565 -0.7499  0.2280 -0.1158
14292SOL    HW146374  10.778   8.152  10.533  0.3438  0.4035  0.4198
14292SOL    HW246375  10.669   8.255  10.514  0.7139  0.3468 -2.4916
14293SOL     OW46376   7.320   4.308   9.639  0.2317 -0.2606  0.1740
14293SOL    HW146377   7.364   4.224   9.626  0.6355 -0.1320  0.6744
14293SOL    HW246378   7.386   4.364   9.681  0.3504  0.6641 -1.1558
14294SOL     OW46379  10.476   8.651   1.244  0.5186  0.6496  0.7159
14294SOL    HW146380  10.416   8.626   1.174 -0.5159  1.8884  1.1290
14294SOL    HW246381  10.474   8.576   1.304  0.8951 -0.1348 -0.2130
14295SOL     OW46382   5.361   8.615   8.885 -0.3227  0.4133 -0.0783
14295SOL    HW146383   5.278   8.584   8.850 -0.1752  1.4363 -1.4071
14295SOL    HW246384   5.424   8.547   8.861 -0.5867  0.1184  0.0516
14296SOL     OW46385   2.368   3.681   3.562  0.1333  0.0034 -0.1111
14296SOL    HW146386   2.397   3.673   3.653  0.4026  0.2574 -0.1727
14296SOL    HW246387   2.354   3.775   3.550 -3.1558 -0.2481  0.6769
14297SOL     OW46388   1.067   3.359   7.896  0.2472 -0.2198  0.3823
14297SOL    HW146389   1.142   3.300   7.897  0.6918  0.3509  1.2668
14297SOL    HW246390   1.101   3.440   7.858 -0.3499 -0.4792 -0.7808
14298SOL     OW46391   5.075   6.900   1.999 -0.6431  0.0463 -0.2611
14298SOL    HW146392   5.156   6.949   1.985 -0.9971  0.9890  0.7558
14298SOL    HW246393   5.037   6.891   1.912  1.0498 -1.3703 -0.9249
14299SOL     OW46394   8.110   8.939  10.222  0.4311 -0.2380 -0.0061
14299SOL    HW146395   8.123   8.847  10.199  2.5487  0.1587 -0.6032
14299SOL    HW246396   8.183   8.960  10.280 -0.8510  0.7133  1.3494
14300SOL     OW46397   7.710   9.003   1.765 -0.2107 -0.2157 -0.0482
14300SOL    HW146398   7.696   9.052   1.684 -1.6116 -1.7539 -0.7902
14300SOL    HW246399   7.638   9.029   1.822  0.1498  0.0330  0.3021
14301SOL     OW46400   9.798   4.114   1.959 -0.0171 -0.1314 -0.0129
14301SOL    HW146401   9.783   4.173   2.033 -0.4997 -0.3245  0.0463
14301SOL    HW246402   9.792   4.026   1.996  1.8951 -0.2363  0.1289
14302SOL     OW46403   3.232   8.143   9.232  0.0160 -0.8624  0.6579
14302SOL    HW146404   3.236   8.201   9.307 -1.1661 -1.1977  1.0000
14302SOL    HW246405   3.246   8.200   9.156 -0.5445 -0.2339  1.0242
14303SOL     OW46406   3.660   4.839  10.163 -0.8555 -0.0508 -0.2734
14303SOL    HW146407   3.605   4.916  10.148 -0.0237  1.0628  1.8786
14303SOL    HW246408   3.723   4.841  10.091 -0.6628  1.4861 -0.1022
14304SOL     OW46409   2.711   2.189   2.263 -0.1734 -0.7679  0.8124
14304SOL    HW146410   2.646   2.118   2.260  0.0854 -1.0337  1.5256
14304SOL    HW246411   2.682   2.249   2.194 -1.3563 -0.7318  1.3109
14305SOL     OW46412   6.237   0.914   8.141 -0.0420 -0.2314 -0.2857
14305SOL    HW146413   6.153   0.870   8.125  0.4241 -1.3112  0.1089
14305SOL    HW246414   6.229   0.950   8.229 -0.0153 -0.5146 -0.1677
14306SOL     OW46415   4.429   8.845   1.436  0.2165  0.3520 -0.0734
14306SOL    HW146416   4.409   8.784   1.366  2.1339 -1.1311  0.5949
14306SOL    HW246417   4.375   8.816   1.510  0.1039  0.3283 -0.1650
14307SOL     OW46418   5.441   1.499   8.737 -0.3791 -0.6422 -0.3482
14307SOL    HW146419   5.493   1.573   8.767 -0.8923 -0.4194  0.0161
14307SOL    HW246420   5.501   1.447   8.684 -0.4403  0.8902 -2.0237
14308SOL     OW46421   6.018   3.292   6.696 -0.0668 -0.4269  0.4689
14308SOL    HW146422   6.108   3.323   6.698 -0.1426  0.2686 -2.4842
14308SOL    HW246423   6.021   3.212   6.643 -0.8164 -2.1351  2.8136
14309SOL     OW46424   8.235   1.642   9.869 -0.0952  0.4379  0.1206
14309SOL    HW146425   8.258   1.686   9.951 -4.4887  0.9865  1.3260
14309SOL    HW246426   8.241   1.548   9.889 -0.3452  0.5688  0.8419
14310SOL     OW46427   8.361  10.256   4.669  0.3566 -0.1566 -0.0147
14310SOL    HW146428   8.405  10.237   4.586 -1.5979 -1.6644 -0.7610
14310SOL    HW246429   8.332  10.347   4.659 -0.1057 -0.4050 -1.1212
14311SOL     OW46430   5.534   3.949   4.238 -0.2292 -0.0235  0.1707
14311SOL    HW146431   5.577   3.925   4.155 -1.1015 -0.6893 -0.1110
14311SOL    HW246432   5.454   3.995   4.211  0.4029  1.4344  0.6925
14312SOL     OW46433  10.867   6.681   9.523  0.2862  0.1024  0.0351
14312SOL    HW146434  10.828   6.696   9.436  0.2245  1.3061  0.2565
14312SOL    HW246435  10.947   6.633   9.505  0.2460  0.2937 -0.6894
14313SOL     OW46436   7.225   6.293   7.826  0.3574 -0.2309 -0.1681
14313SOL    HW146437   7.148   6.322   7.876 -0.2663 -0.2971 -1.0682
14313SOL    HW246438   7.196   6.294   7.735  1.8642  1.0622 -0.6657
14314SOL     OW46439   3.206   6.251   0.494  0.3174  0.8762 -0.9564
14314SOL    HW146440   3.225   6.305   0.417  1.2658  1.5177 -0.2897
14314SOL    HW246441   3.292   6.225   0.528 -0.1022 -1.0391 -1.2198
14315SOL     OW46442   4.312   0.643   0.317  0.4013 -0.3116  0.2398
14315SOL    HW146443   4.236   0.696   0.341  1.2833 -0.1290  2.9095
14315SOL    HW246444   4.284   0.552   0.333  0.7376 -0.2388  1.3115
14316SOL     OW46445   2.895   8.639   9.265 -0.4537 -0.0756 -0.0703
14316SOL    HW146446   2.804   8.666   9.275 -0.8889 -1.5094  0.0557
14316SOL    HW246447   2.921   8.609   9.352 -0.4148 -1.2405 -0.4609
14317SOL     OW46448   0.815   0.833   2.379  0.6188 -0.3669 -0.1382
14317SOL    HW146449   0.743   0.786   2.336  0.6933 -0.2917 -0.3465
14317SOL    HW246450   0.845   0.774   2.447 -0.7870  0.2900  1.1124
14318SOL     OW46451   7.681   0.764   8.959  0.1638 -0.5949  0.0435
14318SOL    HW146452   7.774   0.750   8.978  0.5827  1.3407 -0.2992
14318SOL    HW246453   7.659   0.843   9.008 -0.9824 -0.3737 -0.7893
14319SOL     OW46454   0.751   6.092   6.488 -0.2943 -0.6602 -0.8995
14319SOL    HW146455   0.773   6.166   6.544 -3.0434  0.7209 -1.5018
14319SOL    HW246456   0.790   6.016   6.532  1.9189  0.9597  0.1550
14320SOL     OW46457   1.468   1.395   9.173 -0.4329 -0.6710  0.7226
14320SOL    HW146458   1.410   1.470   9.180  0.6803  0.2717  0.2163
14320SOL    HW246459   1.473   1.376   9.080  1.6239  0.5870  0.5062
14321SOL     OW46460   6.154   8.276   8.275 -0.1358  0.0133  0.2541
14321SOL    HW146461   6.230   8.252   8.222 -0.0860 -0.0587  0.3590
14321SOL    HW246462   6.080   8.237   8.228 -0.3358  1.6371 -0.8713
14322SOL     OW46463   0.342   6.719   1.558  0.3503  0.3264 -0.3563
14322SOL    HW146464   0.358   6.738   1.465 -1.5926 -0.2819 -0.8663
14322SOL    HW246465   0.367   6.799   1.603  0.0477  1.1345 -1.5625
14323SOL     OW46466   1.380   7.867   3.450  0.3851 -0.3066  0.7065
14323SOL    HW146467   1.445   7.800   3.471  1.3035 -0.3653 -1.9418
14323SOL    HW246468   1.296   7.825   3.464  0.9476 -1.8823 -0.3810
14324SOL     OW46469   5.664   9.369   3.487  0.1897  0.0442 -0.0693
14324SOL    HW146470   5.734   9.337   3.544 -0.7027  0.0793  1.0878
14324SOL    HW246471   5.594   9.304   3.495  0.2739 -0.2837 -1.6491
14325SOL     OW46472   1.720   6.587   7.604 -0.0486 -0.0697  0.0257
14325SOL    HW146473   1.799   6.533   7.605 -1.2118 -1.8776 -0.7939
14325SOL    HW246474   1.687   6.580   7.515 -0.1682  2.2099 -0.1792
14326SOL     OW46475   3.942  10.448   3.650 -0.3143  0.3370 -0.5239
14326SOL    HW146476   3.913  10.363   3.681  0.4038 -0.0802 -0.9755
14326SOL    HW246477   4.018  10.469   3.705 -0.3681  0.5953 -0.5449
14327SOL     OW46478  10.832   5.892   6.601  0.2770 -0.1986  0.3286
14327SOL    HW146479  10.776   5.906   6.525  0.4948 -0.0475  0.1963
14327SOL    HW246480  10.845   5.798   6.605  1.4303 -0.1040 -0.6549
14328SOL     OW46481   9.013   9.958   8.244 -0.3022 -0.3327  0.4860
14328SOL    HW146482   9.105   9.945   8.219 -0.3896  0.2558 -0.1898
14328SOL    HW246483   9.010   9.937   8.337  0.6778  0.3860  0.6960
14329SOL     OW46484  10.036   9.953   9.871  0.1491  0.1099  0.1345
14329SOL    HW146485   9.948   9.984   9.894  0.2912  0.9333 -0.4124
14329SOL    HW246486  10.095  10.013   9.916  0.4993 -1.6642  2.2446
14330SOL     OW46487   6.492   9.750   1.920  0.2863 -0.2639 -0.3646
14330SOL    HW146488   6.520   9.661   1.900  0.0453 -0.3369 -0.3775
14330SOL    HW246489   6.564   9.787   1.971  0.0986 -0.6884  0.2224
14331SOL     OW46490   5.276   6.889  10.210  0.2934 -0.1682 -0.0431
14331SOL    HW146491   5.290   6.983  10.223  1.1065 -0.2956  0.0125
14331SOL    HW246492   5.214   6.885  10.137 -0.5069  0.4267  0.5825
14332SOL     OW46493   0.113  10.053   1.841  0.0044  0.0080 -0.2059
14332SOL    HW146494   0.038  10.110   1.830 -1.0822 -1.1995  0.5611
14332SOL    HW246495   0.157  10.086   1.920  0.5032  0.9262 -0.8528
14333SOL     OW46496   5.182   3.233   5.176  0.0732 -0.7203 -0.0763
14333SOL    HW146497   5.148   3.297   5.239  1.3143 -0.4348  0.3365
14333SOL    HW246498   5.137   3.254   5.094  2.9525  3.1663 -0.9582
14334SOL     OW46499   4.366   6.804   3.139 -0.4554  0.1538  0.0223
14334SOL    HW146500   4.440   6.798   3.199 -0.6584 -1.4003  0.1368
14334SOL    HW246501   4.289   6.799   3.195 -0.6455 -0.3951 -0.2790
14335SOL     OW46502   9.487   4.260   8.260 -0.2684 -0.2415 -0.4470
14335SOL    HW146503   9.515   4.173   8.289 -1.4597 -1.7992 -3.5621
14335SOL    HW246504   9.515   4.266   8.169 -0.2897  2.6676 -0.3706
14336SOL     OW46505   5.885   7.735   0.163  0.0005 -0.4040  0.0683
14336SOL    HW146506   5.887   7.666   0.229 -1.0872  0.9178  1.5671
14336SOL    HW246507   5.909   7.815   0.211 -2.7625  0.9499 -0.5983
14337SOL     OW46508   0.986   6.116   5.068  0.0572 -0.3507  0.3482
14337SOL    HW146509   0.941   6.170   5.133  0.6757 -0.2478  0.6975
14337SOL    HW246510   0.980   6.027   5.103 -0.4234 -0.4237  0.0802
14338SOL     OW46511   4.396   0.629   5.429  0.7948 -0.1045 -0.0958
14338SOL    HW146512   4.457   0.616   5.502  0.6360 -1.1104 -0.1281
14338SOL    HW246513   4.329   0.687   5.465  3.0464  3.2770 -0.8242
14339SOL     OW46514   8.376   8.059   1.818 -0.7309  0.0936 -0.2205
14339SOL    HW146515   8.408   8.107   1.741  0.4706 -0.9162 -0.3779
14339SOL    HW246516   8.351   7.973   1.784 -1.0172 -0.0651  0.3811
14340SOL     OW46517   0.803   2.555   4.168 -0.0792 -0.0430  0.1803
14340SOL    HW146518   0.760   2.640   4.170  1.8236  1.0966 -2.6600
14340SOL    HW246519   0.750   2.502   4.108  0.0490 -0.1298  0.1437
14341SOL     OW46520   5.028  10.936   2.272 -0.2537 -0.2559  0.3682
14341SOL    HW146521   5.015  11.025   2.305  0.2112  0.3674 -1.0209
14341SOL    HW246522   5.115  10.911   2.303 -0.0547  0.1028  0.1100
14342SOL     OW46523   8.274   6.705   5.739  0.3742 -0.4031 -0.6597
14342SOL    HW146524   8.180   6.720   5.739  0.0755 -2.0660 -0.6704
14342SOL    HW246525   8.306   6.752   5.663 -0.5152 -0.1911 -0.9093
14343SOL     OW46526   9.357   8.800   3.984 -0.5936 -0.3911 -0.1024
14343SOL    HW146527   9.383   8.802   3.892  1.0345 -0.2238  0.3275
14343SOL    HW246528   9.345   8.892   4.009 -2.6971 -0.4886 -0.5402
14344SOL     OW46529   2.741   0.396   8.014 -0.3230  0.2397 -0.4333
14344SOL    HW146530   2.740   0.446   8.096  0.7466  1.0552 -0.8964
14344SOL    HW246531   2.721   0.306   8.040 -0.1075  0.5094  0.6996
14345SOL     OW46532   2.751   5.708   2.771  0.0270  0.6715  0.2378
14345SOL    HW146533   2.815   5.709   2.842  1.3066 -0.3550 -0.8511
14345SOL    HW246534   2.771   5.786   2.719 -0.8500  1.3722  0.9139
14346SOL     OW46535  10.358   2.197   0.974  0.6922  0.1150  0.5664
14346SOL    HW146536  10.306   2.120   0.996  0.8664 -0.8448 -2.0386
14346SOL    HW246537  10.299   2.271   0.985 -0.7182 -0.7882 -0.6424
14347SOL     OW46538   1.662   3.296   4.074 -0.3127  0.2880 -0.1503
14347SOL    HW146539   1.568   3.284   4.062 -0.1374 -0.9458 -0.4402
14347SOL    HW246540   1.670   3.351   4.151 -1.2490 -1.0802  0.9814
14348SOL     OW46541   3.294   5.246   0.512  0.1832  0.0873  0.0918
14348SOL    HW146542   3.237   5.220   0.584  1.9796 -1.4593  1.0522
14348SOL    HW246543   3.357   5.306   0.552 -0.5464  1.5490 -0.8816
14349SOL     OW46544  10.873   3.492   1.407  0.0309  0.0372 -0.7582
14349SOL    HW146545  10.811   3.515   1.338 -0.1415  0.4751 -0.4655
14349SOL    HW246546  10.947   3.453   1.360 -0.9509 -1.6151 -1.0098
14350SOL     OW46547   9.211   5.470  10.824  0.6802  0.9052 -0.1021
14350SOL    HW146548   9.215   5.460  10.729 -0.1454  1.0366 -0.1626
14350SOL    HW246549   9.301   5.488  10.850  1.3134 -1.2318 -0.5950
14351SOL     OW46550   4.393   1.526   2.156 -0.7763  0.4735 -0.1780
14351SOL    HW146551   4.334   1.599   2.171  0.8397  1.9117 -0.5622
14351SOL    HW246552   4.431   1.507   2.242 -0.2404  0.9467 -0.3075
14352SOL     OW46553   6.705  10.775   7.873 -0.6762 -0.3642  0.0468
14352SOL    HW146554   6.665  10.696   7.910 -0.1007 -1.2392 -1.1343
14352SOL    HW246555   6.793  10.776   7.909  0.0164 -1.4293 -1.5093
14353SOL     OW46556   5.676   1.112   9.165 -1.0348 -0.4232 -0.7747
14353SOL    HW146557   5.654   1.180   9.102  3.3486  3.5557  1.3749
14353SOL    HW246558   5.754   1.070   9.130 -1.8298 -2.2322 -0.5287
14354SOL     OW46559   0.950   8.420   8.111  0.1887  0.3414 -0.6241
14354SOL    HW146560   0.933   8.326   8.103  1.3999  0.0912 -0.5491
14354SOL    HW246561   1.045   8.428   8.098  0.3830  1.3408  1.0392
14355SOL     OW46562   5.665   8.035   4.648 -0.2952  0.6891  0.3360
14355SOL    HW146563   5.632   7.950   4.677  0.3482  0.4137  0.2897
14355SOL    HW246564   5.759   8.031   4.665 -0.4371  1.8888  1.5545
14356SOL     OW46565   1.084   7.547   5.562 -0.0534  0.1144 -0.6765
14356SOL    HW146566   0.990   7.553   5.575  0.2261 -0.5143  2.6936
14356SOL    HW246567   1.119   7.625   5.605  1.0389 -0.7590  0.0958
14357SOL     OW46568   1.716   6.630   1.060  0.6813 -0.6054 -0.2481
14357SOL    HW146569   1.707   6.592   1.147 -1.1835 -2.7649 -1.2794
14357SOL    HW246570   1.749   6.559   1.005 -1.4224 -0.4073 -1.9377
14358SOL     OW46571   2.167  10.884   7.995 -0.1291  0.2397  0.4654
14358SOL    HW146572   2.111  10.828   7.941  0.2452 -0.2989  0.6165
14358SOL    HW246573   2.256  10.866   7.962 -0.0529  1.1584  0.1565
14359SOL     OW46574   1.057   7.303   9.319  0.3368  0.7638 -0.2289
14359SOL    HW146575   1.040   7.303   9.225  1.9684 -0.5708 -0.5660
14359SOL    HW246576   1.003   7.231   9.353  0.7119  0.4217 -0.3523
14360SOL     OW46577  10.034   5.307   8.332 -0.0809  0.5314 -0.5026
14360SOL    HW146578   9.977   5.383   8.343 -1.2012 -0.5050  1.4147
14360SOL    HW246579   9.975   5.237   8.306  0.4616 -0.3168  0.4819
14361SOL     OW46580   2.273   1.685   0.045  0.0379  0.2800 -0.4879
14361SOL    HW146581   2.290   1.642   0.128 -1.4251  1.5171  0.5033
14361SOL    HW246582   2.262   1.778   0.068  1.0916  0.9035 -2.2736
14362SOL     OW46583  10.864   3.955   5.662  0.0126  0.6524  0.1502
14362SOL    HW146584  10.898   3.889   5.723 -0.0695  2.2225  2.0061
14362SOL    HW246585  10.780   3.982   5.700 -1.1051  0.1918 -1.8488
14363SOL     OW46586   3.952   0.391   2.802  0.2360 -0.7187 -0.0563
14363SOL    HW146587   3.874   0.435   2.836  0.8891 -0.4308  1.1264
14363SOL    HW246588   3.929   0.368   2.712 -2.0559 -2.6596  0.9055
14364SOL     OW46589   8.514   8.402   1.641 -0.0070 -0.3336  0.2722
14364SOL    HW146590   8.589   8.447   1.603  1.5872 -1.2474  2.1431
14364SOL    HW246591   8.506   8.321   1.591 -0.2000  0.0961 -0.3953
14365SOL     OW46592   3.964   1.394   8.392  0.2260  0.0405  0.0874
14365SOL    HW146593   3.992   1.308   8.361  0.4922  0.4282 -0.7707
14365SOL    HW246594   4.023   1.455   8.349 -1.5681  0.8506 -1.3157
14366SOL     OW46595   8.432   0.592   4.702 -0.8672 -0.5219 -0.2258
14366SOL    HW146596   8.429   0.661   4.636  0.3043  1.7155  1.8611
14366SOL    HW246597   8.378   0.522   4.667 -2.5827  1.6733 -2.2659
14367SOL     OW46598   6.885   3.597   9.476 -0.1443  0.1592 -0.6434
14367SOL    HW146599   6.927   3.683   9.481  0.2547 -0.0540 -0.1843
14367SOL    HW246600   6.815   3.602   9.542  1.8596 -0.9036  1.7402
14368SOL     OW46601   8.157   6.598   3.493 -0.1270  0.0620 -0.0539
14368SOL    HW146602   8.238   6.604   3.544 -1.0979  1.1994  1.4411
14368SOL    HW246603   8.182   6.629   3.406  1.0835  0.2097  0.3163
14369SOL     OW46604   4.976   4.219   5.040 -0.4545  0.2296 -0.1330
14369SOL    HW146605   4.960   4.125   5.048  1.5307 -0.0916  0.8439
14369SOL    HW246606   4.890   4.257   5.024 -1.2763 -1.7675 -0.8066
14370SOL     OW46607   8.841   6.615   9.980  0.1223 -0.5679  0.6119
14370SOL    HW146608   8.749   6.589   9.969 -0.3437  0.1595  2.3908
14370SOL    HW246609   8.838   6.686  10.044  1.8062  0.5852 -0.5007
14371SOL     OW46610   1.765   6.120   1.236 -0.3899 -0.0584 -0.0167
14371SOL    HW146611   1.858   6.143   1.233 -0.5699  1.0766  1.6274
14371SOL    HW246612   1.744   6.091   1.147  1.5860 -0.6120 -0.3523
14372SOL     OW46613   8.607   8.959   6.064 -0.0467 -1.0066 -0.2007
14372SOL    HW146614   8.514   8.943   6.080 -0.0456  0.2122  1.1847
14372SOL    HW246615   8.651   8.921   6.140  0.4607 -0.1680 -0.0731
14373SOL     OW46616   0.051  10.181   2.344  0.7586  0.5044  0.0338
14373SOL    HW146617   0.136  10.137   2.334  1.5933  2.2763 -1.1744
14373SOL    HW246618   0.001  10.123   2.401  1.7772 -1.9891 -1.4286
14374SOL     OW46619   4.664   5.184   3.094  0.0732 -0.6150 -0.2343
14374SOL    HW146620   4.631   5.206   3.007 -1.0041 -1.9422 -0.1800
14374SOL    HW246621   4.666   5.089   3.096  0.7771 -0.5964  0.9585
14375SOL     OW46622   7.296   7.702  10.715 -0.1401 -0.6096  0.0130
14375SOL    HW146623   7.252   7.675  10.796 -0.7624  0.0069 -0.1085
14375SOL    HW246624   7.246   7.662  10.645 -2.4095  2.4293 -0.3023
14376SOL     OW46625   8.683   6.633   3.985  0.0177  0.0342 -0.5436
14376SOL    HW146626   8.661   6.544   3.958  0.6899  0.1325 -1.4828
14376SOL    HW246627   8.777   6.640   3.967  0.0941  0.7373  0.0992
14377SOL     OW46628   5.881   2.933   1.575 -0.4258  0.0334 -0.2478
14377SOL    HW146629   5.907   3.009   1.522 -0.3284  0.5755  0.5661
14377SOL    HW246630   5.816   2.967   1.636 -1.5315 -0.8668 -0.8731
14378SOL     OW46631   7.713   9.904   1.543  0.3093 -0.2315  0.1629
14378SOL    HW146632   7.708   9.808   1.543 -0.4095 -0.2058  0.7754
14378SOL    HW246633   7.650   9.931   1.476  0.3481 -0.1752  0.1485
14379SOL     OW46634   3.444   2.798  10.310  0.1004  0.6787 -0.5392
14379SOL    HW146635   3.369   2.790  10.369 -0.8106  1.7770 -1.5047
14379SOL    HW246636   3.415   2.859  10.243  1.8858  1.1453 -0.9271
14380SOL     OW46637   1.091   9.017   6.075  0.4001  0.0831  0.2582
14380SOL    HW146638   1.052   9.056   6.153 -0.6360 -0.4436  0.0197
14380SOL    HW246639   1.108   8.926   6.099  0.8922  0.1441  0.1487
14381SOL     OW46640   0.959   9.750   2.347  0.2147 -0.0074  0.1382
14381SOL    HW146641   0.964   9.744   2.442  1.0584  0.9202  0.1634
14381SOL    HW246642   1.029   9.811   2.322 -1.3144  1.4131 -0.8912
14382SOL     OW46643   2.400   8.616   7.959 -0.2721 -0.1847 -0.6293
14382SOL    HW146644   2.421   8.557   8.030  0.5437 -0.6113 -1.2138
14382SOL    HW246645   2.387   8.559   7.883 -0.9118  0.2790 -0.8824
14383SOL     OW46646   7.114   6.024   9.303 -0.0004 -0.4330  0.3846
14383SOL    HW146647   7.142   6.115   9.292 -0.8866 -0.2930 -0.9617
14383SOL    HW246648   7.076   6.021   9.391  0.2154  0.4424  0.5196
14384SOL     OW46649   2.681   4.923   5.457  0.1328 -0.4615  0.0346
14384SOL    HW146650   2.723   4.873   5.527 -0.7666 -1.5875 -0.2097
14384SOL    HW246651   2.731   5.005   5.453  0.3660 -0.4829  1.8032
14385SOL     OW46652   4.671   1.799   0.106  0.2455  0.5876 -0.0210
14385SOL    HW146653   4.696   1.826   0.194 -0.1368  2.2311 -0.3749
14385SOL    HW246654   4.702   1.871   0.050 -0.5969  0.1572 -1.0663
14386SOL     OW46655   0.439   3.750   1.883 -0.6802 -0.4740  0.4857
14386SOL    HW146656   0.350   3.728   1.857 -1.7182  2.9298  0.6892
14386SOL    HW246657   0.434   3.763   1.978 -0.6676  2.1499  0.1957
14387SOL     OW46658   8.078   7.066   7.334 -0.4290 -0.0560 -0.1980
14387SOL    HW146659   8.073   7.012   7.255  2.8694 -0.9944  0.0815
14387SOL    HW246660   8.107   7.152   7.303 -0.8895  0.1162 -0.1605
14388SOL     OW46661   3.149   8.382   2.749 -0.6543  0.3666  0.1208
14388SOL    HW146662   3.134   8.340   2.664 -1.2022  0.9855 -0.0942
14388SOL    HW246663   3.243   8.372   2.763 -0.8625 -1.6302  0.4609
14389SOL     OW46664   3.770  10.822   3.952  0.7308 -0.1737 -0.5975
14389SOL    HW146665   3.773  10.882   4.026 -0.7804  0.0799 -0.7088
14389SOL    HW246666   3.745  10.877   3.877  2.5181 -0.3628 -1.3966
14390SOL     OW46667   5.185   8.908   8.658 -0.0695  0.2343  0.2051
14390SOL    HW146668   5.125   8.861   8.716 -1.2397  1.9788  0.4789
14390SOL    HW246669   5.272   8.876   8.682 -0.7018 -0.6273  1.4433
14391SOL     OW46670   2.029   9.669  10.837  0.0588 -0.4364 -0.5962
14391SOL    HW146671   1.947   9.646  10.882  0.4404 -0.6851 -0.0191
14391SOL    HW246672   2.080   9.716  10.902  0.7078 -0.9954 -0.6865
14392SOL     OW46673   5.873   8.762   3.105  0.1488 -0.1601  0.1625
14392SOL    HW146674   5.958   8.751   3.147 -0.2172 -4.5272  0.2169
14392SOL    HW246675   5.887   8.831   3.040  2.8887  1.1981  1.9980
14393SOL     OW46676   2.076   6.576  10.224  0.3957  0.0285 -0.0128
14393SOL    HW146677   2.107   6.656  10.182 -0.1473 -0.6869 -1.8299
14393SOL    HW246678   1.995   6.554  10.180 -0.0182 -0.9776  1.1716
14394SOL     OW46679   6.872   7.126  10.056  0.7959  0.2557 -0.0719
14394SOL    HW146680   6.792   7.146  10.106 -1.0818 -2.9256 -1.4925
14394SOL    HW246681   6.895   7.208  10.013 -1.3895  1.4283  0.8466
14395SOL     OW46682   1.880   2.910   2.098 -0.2969  0.0491 -0.0580
14395SOL    HW146683   1.896   3.004   2.112  1.6202 -0.2970  0.3925
14395SOL    HW246684   1.934   2.867   2.164  0.5676 -1.4190 -1.6652
14396SOL     OW46685   7.466   8.956   1.927 -0.2020 -0.3797 -0.7277
14396SOL    HW146686   7.416   9.031   1.958  1.9088 -0.0889  2.3694
14396SOL    HW246687   7.401   8.899   1.886 -2.4667  1.4614  0.1098
14397SOL     OW46688   2.606   0.975   9.236  0.0521 -0.0290 -0.5086
14397SOL    HW146689   2.571   1.011   9.317 -3.2452 -1.2531 -1.2455
14397SOL    HW246690   2.629   1.052   9.184  0.4671  0.8008  0.8573
14398SOL     OW46691   0.352   5.594   8.699  0.1879 -0.2606 -0.5569
14398SOL    HW146692   0.266   5.581   8.739  0.4205  0.8186  0.3407
14398SOL    HW246693   0.382   5.506   8.677 -2.0215 -0.5728 -2.8324
14399SOL     OW46694   4.264   2.709   6.396  0.7791  0.3343  0.0232
14399SOL    HW146695   4.252   2.627   6.443  0.0124  0.7573  0.5935
14399SOL    HW246696   4.359   2.724   6.397  0.7216  0.7901  2.2546
14400SOL     OW46697   2.074   5.738   4.326 -0.4603  0.0929  0.0846
14400SOL    HW146698   2.006   5.804   4.311 -1.1353 -0.7335 -0.5941
14400SOL    HW246699   2.070   5.681   4.249 -0.2563 -1.0458  0.8930
14401SOL     OW46700   5.290   0.902   5.217  0.5486 -0.0741 -0.2269
14401SOL    HW146701   5.363   0.915   5.156  0.2634 -0.7625 -0.7208
14401SOL    HW246702   5.217   0.876   5.162 -0.1482  0.8290  0.2421
14402SOL     OW46703  10.007   8.862   3.297  0.1652 -0.2022  0.6373
14402SOL    HW146704   9.964   8.776   3.289 -1.1966  0.5313 -0.2791
14402SOL    HW246705  10.098   8.845   3.275  0.1037 -1.5715  1.3060
14403SOL     OW46706   7.023   5.508   3.282  0.0839  0.0060  0.0111
14403SOL    HW146707   7.047   5.521   3.374  0.7082  2.1694 -0.4017
14403SOL    HW246708   6.933   5.477   3.285  0.5451 -1.3034  1.3760
14404SOL     OW46709   4.875   1.692   6.404 -0.2264 -0.0103  0.2748
14404SOL    HW146710   4.820   1.658   6.333 -0.0782 -2.4924  1.2188
14404SOL    HW246711   4.954   1.724   6.361 -0.0451 -1.6479 -0.7176
14405SOL     OW46712   9.216   3.192   4.323 -0.8046 -0.1443 -0.5703
14405SOL    HW146713   9.163   3.226   4.250 -0.6364 -0.5520 -0.8839
14405SOL    HW246714   9.158   3.198   4.399 -0.9071  0.4915 -0.6930
14406SOL     OW46715   1.996  10.387   5.265  0.0459  0.5916  0.2826
14406SOL    HW146716   1.915  10.414   5.223 -0.2113  0.1839  0.5079
14406SOL    HW246717   2.062  10.447   5.231 -0.1834  0.3691 -0.5761
14407SOL     OW46718   7.294   7.657   8.784  0.1245 -0.0157  0.9818
14407SOL    HW146719   7.253   7.570   8.786  0.8434 -0.4463 -0.8920
14407SOL    HW246720   7.224   7.715   8.754  0.5164 -0.5716 -1.1661
14408SOL     OW46721   2.046   4.729   9.252  0.2086  0.6198 -0.3764
14408SOL    HW146722   2.042   4.738   9.157  1.1096 -1.3159 -0.6448
14408SOL    HW246723   2.107   4.798   9.280 -1.3958  2.3620 -0.9363
14409SOL     OW46724   8.751  10.586   4.588 -0.7721 -0.1977 -0.0058
14409SOL    HW146725   8.682  10.645   4.619 -0.3944 -0.4699  1.4058
14409SOL    HW246726   8.731  10.502   4.627  1.3900  0.1485  2.0731
14410SOL     OW46727   4.635   7.607   9.311  0.2220  0.1810 -0.2073
14410SOL    HW146728   4.568   7.595   9.243 -1.7981  1.8982  1.3361
14410SOL    HW246729   4.636   7.524   9.359 -1.6768  0.4709  0.4125
14411SOL     OW46730   7.442   2.336   8.674 -0.2664  0.4746  0.9609
14411SOL    HW146731   7.480   2.403   8.731  1.7915  0.7896 -0.6857
14411SOL    HW246732   7.403   2.273   8.735  0.3291  1.6551  2.6547
14412SOL     OW46733   9.024   6.701   7.901  0.1835 -0.4919  0.7700
14412SOL    HW146734   9.000   6.622   7.948 -3.0558  0.5245  1.0863
14412SOL    HW246735   9.069   6.670   7.822 -0.1261 -2.5772  1.3610
14413SOL     OW46736   0.081   5.619   2.856 -0.2409  0.3822  0.2888
14413SOL    HW146737   0.010   5.613   2.792 -1.0616  1.4185  1.0678
14413SOL    HW246738   0.156   5.650   2.805  0.0311 -1.8658 -0.7892
14414SOL     OW46739   3.459   9.466   3.045  0.5095  0.1117 -0.1104
14414SOL    HW146740   3.492   9.403   3.109 -2.6529  0.6226  2.3374
14414SOL    HW246741   3.499   9.549   3.071  1.0696 -0.0922 -0.3201
14415SOL     OW46742   2.151   7.288   9.988  0.5139 -0.2640  0.0862
14415SOL    HW146743   2.122   7.283  10.080 -1.6585 -0.3539 -0.5507
14415SOL    HW246744   2.126   7.203   9.951  1.0065 -0.0715 -0.7006
14416SOL     OW46745   7.265   3.485   6.158  0.2553 -0.0588 -0.2462
14416SOL    HW146746   7.236   3.568   6.121 -1.2518 -0.8856 -1.0170
14416SOL    HW246747   7.260   3.498   6.252 -1.3306  0.2971 -0.3555
14417SOL     OW46748   8.337  10.170   5.319  0.0945  0.3613 -0.7383
14417SOL    HW146749   8.285  10.176   5.238 -0.5087  0.5355 -0.3392
14417SOL    HW246750   8.327  10.256   5.360 -0.0386  0.0915 -0.2092
14418SOL     OW46751   2.884   6.734   3.252 -0.0518 -0.3584  0.2252
14418SOL    HW146752   2.797   6.770   3.236  0.3193  0.5008  0.1033
14418SOL    HW246753   2.877   6.642   3.225 -0.5963  0.0006 -0.9305
14419SOL     OW46754   0.330   9.048   5.040  0.1575 -0.0379  0.1128
14419SOL    HW146755   0.291   9.054   4.953  0.8729  0.1448 -0.2088
14419SOL    HW246756   0.392   8.975   5.033 -0.2349 -0.4283  0.6589
14420SOL     OW46757   1.984   6.422   7.140  0.2088 -0.2048  0.3425
14420SOL    HW146758   1.929   6.376   7.204 -1.2100  0.9490  0.0095
14420SOL    HW246759   2.062   6.368   7.132 -0.9742 -2.0472  0.6734
14421SOL     OW46760   0.863   8.331   7.210 -0.5039  0.3752 -0.2953
14421SOL    HW146761   0.958   8.342   7.215 -0.4176  0.7150 -1.9884
14421SOL    HW246762   0.846   8.247   7.251  0.8691 -0.9609 -2.3049
14422SOL     OW46763   4.874  10.557   4.247  0.7594  0.0316  1.0027
14422SOL    HW146764   4.852  10.551   4.154  2.2877 -0.4737  0.6394
14422SOL    HW246765   4.832  10.480   4.286 -1.8570  1.4487  1.2268
14423SOL     OW46766   3.136   7.992   0.297  0.6626 -0.2991  0.1889
14423SOL    HW146767   3.187   7.912   0.280  0.5386 -0.3460  0.0432
14423SOL    HW246768   3.087   8.008   0.217  2.6839  1.4209 -0.7865
14424SOL     OW46769   3.832   1.155   7.841 -0.3730 -0.9164 -0.6885
14424SOL    HW146770   3.740   1.145   7.863 -0.1567 -0.6618  0.4377
14424SOL    HW246771   3.846   1.250   7.838  0.4442 -0.8561  2.0959
14425SOL     OW46772   2.659   8.167  10.742  0.1115 -0.1623  0.6241
14425SOL    HW146773   2.750   8.140  10.732 -0.3939 -1.7942  0.0931
14425SOL    HW246774   2.617   8.094  10.787 -1.3248 -0.3380 -0.8721
14426SOL     OW46775   1.984   8.213   8.238 -0.3109  0.1648 -0.0805
14426SOL    HW146776   2.018   8.149   8.301 -1.4110  1.4332  1.9290
14426SOL    HW246777   2.050   8.218   8.170  0.2932 -2.3092  0.2363
14427SOL     OW46778   5.264   5.346   8.254  0.5036  0.3711  0.4472
14427SOL    HW146779   5.315   5.420   8.286  0.5743  1.0030 -1.0253
14427SOL    HW246780   5.180   5.353   8.299  0.5141  1.3553  0.3264
14428SOL     OW46781   1.649   2.036   9.739  0.1372 -0.5657  0.2837
14428SOL    HW146782   1.665   2.086   9.659 -1.7603 -0.1391  0.1248
14428SOL    HW246783   1.664   1.945   9.714  2.1674 -0.2618  0.1902
14429SOL     OW46784   6.649  10.124   7.240  0.3551  0.3617  0.0502
14429SOL    HW146785   6.672  10.135   7.332  1.0896  0.4265 -0.1375
14429SOL    HW246786   6.727  10.152   7.192  1.5621 -3.4894 -0.5214
14430SOL     OW46787   3.793   3.801   1.680 -0.8277  0.9490 -0.8246
14430SOL    HW146788   3.707   3.759   1.672 -1.0748  0.6140  2.3270
14430SOL    HW246789   3.774   3.891   1.706 -0.2448  0.9644 -0.4309
14431SOL     OW46790   1.765   8.278   6.488 -0.4747  0.2067 -0.2434
14431SOL    HW146791   1.769   8.182   6.495 -0.7132  0.1978 -0.2333
14431SOL    HW246792   1.838   8.309   6.542  0.8274 -0.0311 -1.7944
14432SOL     OW46793   4.151   7.470   8.276 -0.0699  0.1934  0.1593
14432SOL    HW146794   4.189   7.382   8.278 -0.5548 -0.0358 -0.5498
14432SOL    HW246795   4.112   7.481   8.362 -1.8575 -1.1215 -0.4338
14433SOL     OW46796   1.296   9.681   9.878  0.0359 -0.1299 -0.3185
14433SOL    HW146797   1.235   9.653   9.810 -1.0693  0.2259  0.4854
14433SOL    HW246798   1.305   9.605   9.935 -0.7190  0.2319  0.2955
14434SOL     OW46799   1.979   7.030   8.149  0.1839  0.5444 -0.4943
14434SOL    HW146800   1.907   7.094   8.153  0.0712  0.4682 -1.1782
14434SOL    HW246801   1.961   6.980   8.070 -0.5908 -1.3701  0.8304
14435SOL     OW46802   8.345   1.346   8.420  0.2494 -0.0686  0.2296
14435SOL    HW146803   8.269   1.331   8.364  1.3773 -0.0168 -1.3824
14435SOL    HW246804   8.327   1.431   8.461  0.0983  0.7039 -1.3285
14436SOL     OW46805  10.344   3.864   0.688  0.1043 -0.0502 -0.0919
14436SOL    HW146806  10.402   3.932   0.653  0.7780 -0.5977 -0.0674
14436SOL    HW246807  10.359   3.788   0.632 -1.3974  0.1089 -0.7471
14437SOL     OW46808   0.935   0.872   2.115  0.2857  0.0330 -0.5020
14437SOL    HW146809   0.901   0.844   2.200  0.7606  2.3974  0.5379
14437SOL    HW246810   1.002   0.808   2.093  0.3786 -0.4273  1.0639
14438SOL     OW46811   2.669   8.070   9.387  0.5500  0.4354 -0.4569
14438SOL    HW146812   2.611   8.144   9.370  0.6351  0.3910 -0.9328
14438SOL    HW246813   2.708   8.049   9.302 -1.0838 -1.5286 -0.7936
14439SOL     OW46814  10.561   6.842   7.061  0.4667  0.0429 -0.4792
14439SOL    HW146815  10.598   6.837   6.973  0.2219  1.2147 -0.6635
14439SOL    HW246816  10.483   6.897   7.052 -1.4435 -2.4152 -0.1111
14440SOL     OW46817   4.265   9.759   9.446  0.2203 -0.0235  0.0104
14440SOL    HW146818   4.213   9.679   9.451 -0.8092  0.6515  0.6325
14440SOL    HW246819   4.293   9.763   9.354  1.0588 -1.5344  0.1718
14441SOL     OW46820   2.426   4.850   2.658  0.0788  0.9996  0.0266
14441SOL    HW146821   2.479   4.883   2.585 -1.2242  0.4050 -1.2259
14441SOL    HW246822   2.372   4.782   2.619  0.5744 -0.5619  1.9279
14442SOL     OW46823   7.719   7.555   4.386 -0.2874  0.0730 -0.1029
14442SOL    HW146824   7.726   7.638   4.433  0.4561  0.0549 -0.1786
14442SOL    HW246825   7.741   7.578   4.295 -1.0588 -0.0183 -0.3205
14443SOL     OW46826   6.534   2.547   0.914 -0.2139  0.2895  0.6299
14443SOL    HW146827   6.541   2.567   0.821  1.2817  1.7849  1.0146
14443SOL    HW246828   6.623   2.559   0.948  0.4498 -4.7525  1.4749
14444SOL     OW46829   1.237   3.873   1.470  0.1548 -0.1651  0.3669
14444SOL    HW146830   1.215   3.780   1.476  0.0553 -0.1218  0.6970
14444SOL    HW246831   1.174   3.916   1.528 -0.9130  0.2979 -1.0551
14445SOL     OW46832  10.650   3.145   6.717 -0.4804  0.3437  0.3925
14445SOL    HW146833  10.580   3.186   6.667  0.1202  0.9144  0.0141
14445SOL    HW246834  10.654   3.194   6.799 -1.1120 -0.2576  0.7942
14446SOL     OW46835   5.621   1.967   8.042  0.1956  0.2154 -0.3444
14446SOL    HW146836   5.620   2.047   7.990  2.7561  0.8515  0.4380
14446SOL    HW246837   5.620   1.997   8.133  2.2156 -0.5091 -0.0233
14447SOL     OW46838   5.562   4.699  10.920  0.2968 -0.0076  0.0020
14447SOL    HW146839   5.553   4.620  10.865 -0.3593  0.9948 -1.4039
14447SOL    HW246840   5.555   4.772  10.858 -1.5474  1.2289  1.5458
14448SOL     OW46841   2.352   9.101   3.554 -0.5072 -0.0345 -0.5490
14448SOL    HW146842   2.303   9.183   3.541 -0.1937  0.3263  0.4766
14448SOL    HW246843   2.402   9.091   3.473 -1.8341 -0.1214 -1.3926
14449SOL     OW46844   5.182   6.387   6.670  0.0574 -0.0243 -0.2546
14449SOL    HW146845   5.142   6.302   6.689  1.2432 -0.3469  0.9133
14449SOL    HW246846   5.125   6.450   6.714 -0.3694 -0.2830 -0.4294
14450SOL     OW46847   3.832   7.390   1.758  0.1038 -0.3966 -0.1523
14450SOL    HW146848   3.779   7.395   1.679 -1.1958 -1.1892  0.6243
14450SOL    HW246849   3.786   7.446   1.821  1.1445  0.2620  0.0358
14451SOL     OW46850   0.327   4.840   1.059 -0.3238  0.4850 -0.9080
14451SOL    HW146851   0.267   4.766   1.057  0.8116 -0.5727  1.0793
14451SOL    HW246852   0.323   4.877   0.970  0.2371 -2.8909 -2.4869
14452SOL     OW46853  10.787   9.199   3.896  0.1845  0.2525  0.0170
14452SOL    HW146854  10.877   9.167   3.899 -0.2326 -0.8970  0.7081
14452SOL    HW246855  10.770   9.231   3.985  0.3065  1.6776 -0.4382
14453SOL     OW46856   3.691   9.770   1.267  0.3363 -0.0432  1.0824
14453SOL    HW146857   3.732   9.785   1.352  0.7338 -0.6199  1.0014
14453SOL    HW246858   3.738   9.695   1.231  1.1545  1.0649 -0.2714
14454SOL     OW46859   2.126   5.817   5.041 -0.1467 -0.1822  0.1562
14454SOL    HW146860   2.046   5.823   4.987  0.5879 -0.1135 -0.9576
14454SOL    HW246861   2.197   5.832   4.979  0.7762 -0.9444  1.0101
14455SOL     OW46862   3.118   6.614   6.366  0.2408  0.2179 -0.4900
14455SOL    HW146863   3.099   6.681   6.431  1.2653 -0.2360  0.3111
14455SOL    HW246864   3.044   6.554   6.371 -0.7757  1.3552 -1.3485
14456SOL     OW46865   5.956   9.878   8.692 -0.1718  0.2691 -0.3881
14456SOL    HW146866   5.940   9.971   8.673  0.0336  0.3888  0.0303
14456SOL    HW246867   5.901   9.832   8.628 -0.2664  0.6759 -0.6086
14457SOL     OW46868   0.247   5.733   2.114  0.3388 -0.0366 -0.2871
14457SOL    HW146869   0.302   5.744   2.036 -0.8156 -3.0290 -1.6715
14457SOL    HW246870   0.291   5.666   2.165 -1.3617 -1.7398 -0.9213
14458SOL     OW46871   5.291  10.996   8.976 -0.7185 -0.2047  0.0354
14458SOL    HW146872   5.345  10.922   8.948  1.4140  0.9491  0.8332
14458SOL    HW246873   5.235  11.015   8.901 -0.4539 -1.8546 -0.6082
14459SOL     OW46874   3.308   5.823   5.281 -0.2283  0.5873 -0.6311
14459SOL    HW146875   3.232   5.879   5.270 -0.3023  0.9727  1.3880
14459SOL    HW246876   3.293   5.750   5.221 -1.6285  1.2048 -1.0777
14460SOL     OW46877   0.405   6.646   6.994 -0.4158  0.5057 -0.2887
14460SOL    HW146878   0.370   6.562   6.966  0.9681 -1.1075  2.3882
14460SOL    HW246879   0.476   6.664   6.933  1.0107 -1.6873  0.5957
14461SOL     OW46880   6.582   6.349   0.577 -0.3455 -0.6424  0.0740
14461SOL    HW146881   6.507   6.407   0.573  0.7472  0.8472  0.3631
14461SOL    HW246882   6.605   6.346   0.670  0.2867 -0.6514 -0.0775
14462SOL     OW46883   8.160   3.991   2.253  0.0907 -0.1859 -0.1279
14462SOL    HW146884   8.248   3.981   2.290 -0.0181 -1.4681 -0.1606
14462SOL    HW246885   8.104   3.938   2.309 -0.5746  0.1856 -0.4299
14463SOL     OW46886   3.847   4.102   3.248 -0.2734 -0.3732  0.2664
14463SOL    HW146887   3.768   4.095   3.302 -0.4779  0.7555  0.1374
14463SOL    HW246888   3.837   4.185   3.201  1.0846 -0.1205  0.3852
14464SOL     OW46889   2.196   7.936   3.341  0.0114  0.0652  0.8240
14464SOL    HW146890   2.129   8.000   3.317 -0.0827 -0.1000  0.6431
14464SOL    HW246891   2.226   7.964   3.427  0.2666  0.5891  0.5670
14465SOL     OW46892   7.058  10.738   6.093  0.2422 -0.7590  0.0681
14465SOL    HW146893   6.998  10.746   6.020  0.0826  0.2679  0.2887
14465SOL    HW246894   7.136  10.696   6.057  0.5496  0.6048 -0.9511
14466SOL     OW46895   6.813   7.811   7.655  0.3048  0.1618  0.1376
14466SOL    HW146896   6.908   7.828   7.654  0.3715  0.1223 -2.7480
14466SOL    HW246897   6.782   7.851   7.736  2.3514  2.8970 -0.2901
14467SOL     OW46898   5.532   2.242   3.476  0.4952  0.2512 -0.1014
14467SOL    HW146899   5.440   2.230   3.502 -0.5074 -0.8172 -3.5925
14467SOL    HW246900   5.582   2.191   3.539 -1.5261 -0.9386  0.6292
14468SOL     OW46901   0.737   3.718   8.209 -0.1423  0.5668 -0.3114
14468SOL    HW146902   0.737   3.777   8.133  2.9257  3.2153  1.4842
14468SOL    HW246903   0.787   3.642   8.179  1.3420  1.7301 -0.9393
14469SOL     OW46904   7.881   4.407   9.407 -0.4102  0.0461  0.7928
14469SOL    HW146905   7.954   4.406   9.344 -1.6660  0.8873 -0.7696
14469SOL    HW246906   7.843   4.319   9.400  0.2321 -0.2960  1.3908
14470SOL     OW46907   5.443   0.267   0.029 -0.1840 -0.4730  0.0040
14470SOL    HW146908   5.517   0.229   0.076  0.0107  1.8822  1.7505
14470SOL    HW246909   5.373   0.271   0.094 -1.1903 -0.7172 -1.0318
14471SOL     OW46910   4.423   6.500   5.510  0.3156 -0.2320  0.0073
14471SOL    HW146911   4.448   6.422   5.460 -0.4559 -0.0984 -0.6111
14471SOL    HW246912   4.332   6.515   5.486  0.5840  1.1279 -0.2327
14472SOL     OW46913   9.276   1.920   8.127 -0.1208 -0.2002  0.2064
14472SOL    HW146914   9.328   1.993   8.157 -0.9278  0.6213 -0.3351
14472SOL    HW246915   9.186   1.954   8.124 -0.7729 -1.6843  1.5040
14473SOL     OW46916   8.221   8.731   2.258  0.0401  0.2859 -0.3886
14473SOL    HW146917   8.277   8.679   2.200  0.9479  1.3110 -0.4561
14473SOL    HW246918   8.181   8.667   2.317 -0.1796 -0.6707 -1.5469
14474SOL     OW46919   8.620   6.001   3.356 -0.1346 -0.1713 -0.9405
14474SOL    HW146920   8.641   6.089   3.322 -0.9816  1.1475  1.6638
14474SOL    HW246921   8.698   5.949   3.335  2.8706  2.6186  1.9140
14475SOL     OW46922  10.574   4.595   9.488 -0.0507  0.0836 -0.5899
14475SOL    HW146923  10.633   4.530   9.449  2.2507  0.7613  1.4456
14475SOL    HW246924  10.633   4.663   9.521 -1.9095  0.5371  2.0979
14476SOL     OW46925   4.355  10.079   4.117  0.5669  0.9985  0.1185
14476SOL    HW146926   4.280  10.133   4.093  0.7122  1.1143 -0.0806
14476SOL    HW246927   4.336  10.050   4.206 -0.3117 -0.0333 -0.3839
14477SOL     OW46928   4.761   5.213   4.086  0.6966 -0.1318  0.2236
14477SOL    HW146929   4.730   5.301   4.108  1.3414  0.4327 -1.0305
14477SOL    HW246930   4.856   5.221   4.082  0.8903 -1.2719  1.5772
14478SOL     OW46931   5.383   1.784   8.509 -0.0402 -0.6274 -0.0483
14478SOL    HW146932   5.432   1.826   8.438 -1.0740 -0.6572 -0.8019
14478SOL    HW246933   5.398   1.691   8.496  2.7772 -0.5855  2.0030
14479SOL     OW46934   8.659  10.203   0.052  0.2687 -0.0695  0.1741
14479SOL    HW146935   8.654  10.135   0.119 -0.1846 -0.5954 -0.3861
14479SOL    HW246936   8.753  10.219   0.041  0.3511 -0.1027  0.8094
14480SOL     OW46937   5.174   0.533   7.459 -0.1326  0.7148  0.5933
14480SOL    HW146938   5.151   0.454   7.411  1.5623  1.4907 -1.6456
14480SOL    HW246939   5.131   0.604   7.410 -0.7375  1.3119  1.9352
14481SOL     OW46940   5.241   7.515   5.423 -0.2096 -0.0999 -0.1064
14481SOL    HW146941   5.198   7.599   5.407 -0.4858 -0.6297 -2.7875
14481SOL    HW246942   5.249   7.509   5.518 -0.4093  2.8155  0.1874
14482SOL     OW46943   4.742   0.025   8.913 -0.3582  0.6156  0.3755
14482SOL    HW146944   4.684   0.056   8.983 -0.6532 -1.1253  0.9591
14482SOL    HW246945   4.829   0.023   8.953 -0.4565  0.0471  0.5782
14483SOL     OW46946   9.679   9.310   3.189 -1.1286 -0.1590 -0.3341
14483SOL    HW146947   9.711   9.328   3.278  0.4314  0.4434 -0.9845
14483SOL    HW246948   9.680   9.214   3.183  0.3376 -0.1825 -0.2140
14484SOL     OW46949   9.315   7.597   1.777  0.7322 -0.7430 -0.2730
14484SOL    HW146950   9.240   7.645   1.809 -0.9605 -2.9911 -0.6329
14484SOL    HW246951   9.300   7.588   1.682  2.5540  0.5548 -0.7447
14485SOL     OW46952   5.608   6.378   4.873  0.0305 -0.7236 -0.0180
14485SOL    HW146953   5.561   6.461   4.880 -0.6894 -0.9900 -1.3196
14485SOL    HW246954   5.654   6.384   4.789 -0.8417 -2.0074 -0.6301
14486SOL     OW46955   6.921   7.589  10.956  0.2945  0.5894 -0.1096
14486SOL    HW146956   6.925   7.540  11.038 -0.0370 -1.3950 -1.2170
14486SOL    HW246957   7.012   7.593  10.926  0.3871  1.1228  0.2254
14487SOL     OW46958   2.072   9.323   4.240  0.4952  0.4550 -0.3837
14487SOL    HW146959   2.110   9.289   4.321  1.0738 -2.9825 -1.9323
14487SOL    HW246960   1.977   9.316   4.254  0.5697 -2.1880 -0.6595
14488SOL     OW46961   4.639   2.806   3.648  0.0639  0.0619  0.1178
14488SOL    HW146962   4.597   2.810   3.734  0.2756 -2.3155  0.4130
14488SOL    HW246963   4.731   2.788   3.667  0.4320  1.0918 -0.5982
14489SOL     OW46964   8.930   7.820  10.243 -0.2223  0.5748 -0.4202
14489SOL    HW146965   8.935   7.737  10.289  2.0898 -0.5485 -2.4486
14489SOL    HW246966   8.996   7.875  10.284 -2.4924  1.9595  1.6591
14490SOL     OW46967   8.631   0.400   2.262 -0.7512  0.4735  0.7793
14490SOL    HW146968   8.643   0.309   2.236 -0.2360  0.9922 -0.9408
14490SOL    HW246969   8.548   0.401   2.308 -0.6168 -0.9126  1.1134
14491SOL     OW46970   5.021   4.742   2.041  0.1296  0.3082  0.9403
14491SOL    HW146971   4.940   4.700   2.073  0.0596 -0.1804  0.1312
14491SOL    HW246972   5.066   4.769   2.121 -1.3864  1.6482  1.3832
14492SOL     OW46973  10.104   2.269   7.135 -0.1160  1.0701  0.2806
14492SOL    HW146974  10.080   2.218   7.212  0.8922  0.7850  0.4103
14492SOL    HW246975  10.043   2.344   7.137 -1.1958  0.2138  0.4207
14493SOL     OW46976  10.536   4.914   7.913  0.4964  0.0082 -0.2297
14493SOL    HW146977  10.623   4.921   7.872 -0.1813 -0.4536 -1.8485
14493SOL    HW246978  10.481   4.974   7.863 -0.3105 -0.3438  0.2130
14494SOL     OW46979   2.787   1.348   2.977 -0.5926  0.1190  0.1316
14494SOL    HW146980   2.732   1.286   3.025 -0.1941 -0.1917  0.1899
14494SOL    HW246981   2.867   1.300   2.957 -0.0429  0.7839  0.6655
14495SOL     OW46982   2.145  10.338   2.022 -0.5545  0.5334 -0.2104
14495SOL    HW146983   2.204  10.339   1.946  0.1373  0.1276  0.3074
14495SOL    HW246984   2.146  10.428   2.054  0.1282  0.4420  0.0441
14496SOL     OW46985   8.552   0.569   4.084 -0.3359 -0.4787  0.9179
14496SOL    HW146986   8.460   0.547   4.096 -0.4893 -0.5218 -0.1646
14496SOL    HW246987   8.598   0.520   4.152 -1.1601 -0.0056  1.8244
14497SOL     OW46988   0.867   7.126   3.366  0.1604  0.2274 -0.0989
14497SOL    HW146989   0.897   7.126   3.456 -0.6637  0.6926  0.1886
14497SOL    HW246990   0.900   7.044   3.329 -0.6668 -0.6576  1.0447
14498SOL     OW46991   5.886   9.839   2.172 -0.0764 -0.2858 -0.1715
14498SOL    HW146992   5.947   9.767   2.190  0.6009  0.4639  0.6295
14498SOL    HW246993   5.868   9.832   2.079  0.6442 -0.9915 -0.2755
14499SOL     OW46994   6.974   1.669  10.085  0.0094  0.3213 -0.2356
14499SOL    HW146995   7.058   1.711  10.072 -0.6585  2.5000  1.8175
14499SOL    HW246996   6.953   1.630  10.000  2.7811  0.1728 -0.9400
14500SOL     OW46997   8.879   2.391   1.894  0.4002  0.2288  0.4558
14500SOL    HW146998   8.946   2.370   1.829 -1.5393 -1.0802 -1.2270
14500SOL    HW246999   8.837   2.469   1.861  0.2404  0.3084  0.8411
14501SOL     OW47000   5.133   0.367   6.552  0.0478 -0.2079  0.1590
14501SOL    HW147001   5.083   0.426   6.496 -0.2184 -0.7147 -0.1455
14501SOL    HW247002   5.221   0.366   6.514 -0.0615 -0.3436 -0.0964
14502SOL     OW47003   2.702   3.476  10.725 -0.5032 -0.4627 -0.2356
14502SOL    HW147004   2.714   3.480  10.630 -0.4226 -0.8555 -0.2438
14502SOL    HW247005   2.614   3.442  10.737 -2.9471  4.7946 -0.2050
14503SOL     OW47006  10.811   5.525   8.120 -0.2680 -0.0406  0.1338
14503SOL    HW147007  10.818   5.602   8.176  0.0685  0.1647 -0.1864
14503SOL    HW247008  10.872   5.461   8.158  0.8264  0.5096 -0.6559
14504SOL     OW47009   1.646   4.527   0.889 -0.5229  0.2626 -0.2132
14504SOL    HW147010   1.631   4.576   0.971 -1.7659 -0.4654  0.0247
14504SOL    HW247011   1.682   4.592   0.829  0.0193  0.9154  0.7828
14505SOL     OW47012   3.957   2.356   4.364 -0.0815  0.2744  0.7764
14505SOL    HW147013   4.002   2.299   4.302  0.5122 -0.0987  1.5272
14505SOL    HW247014   3.961   2.443   4.323  1.8852  0.3778  1.0591
14506SOL     OW47015   0.311   6.489   4.752  0.3792 -0.0041  0.0967
14506SOL    HW147016   0.235   6.446   4.790 -0.5350  1.7713  0.3848
14506SOL    HW247017   0.326   6.444   4.669 -1.5354  0.1527 -0.3827
14507SOL     OW47018   4.188   9.555   8.759  0.0593  0.6369  0.5728
14507SOL    HW147019   4.270   9.506   8.756 -0.8647 -1.0753  1.5419
14507SOL    HW247020   4.203   9.631   8.703  0.6349 -2.2177 -3.5836
14508SOL     OW47021   7.231   2.031   4.291 -0.6395  0.3363 -0.1220
14508SOL    HW147022   7.213   2.061   4.202 -0.3390  1.0181  0.0358
14508SOL    HW247023   7.270   1.945   4.280 -1.4284  0.0334 -0.6008
14509SOL     OW47024   0.953   0.260   1.971  0.3115  0.8891 -0.5282
14509SOL    HW147025   0.887   0.212   2.020 -0.0787  0.9040 -1.0379
14509SOL    HW247026   0.972   0.337   2.025  3.3223 -1.3644  1.9471
14510SOL     OW47027  10.152   0.228   2.484  0.6796  0.3298 -0.0184
14510SOL    HW147028  10.063   0.257   2.503  0.1374 -2.5868  3.0214
14510SOL    HW247029  10.200   0.241   2.566  2.1300 -1.0590 -0.5740
14511SOL     OW47030   9.284   4.681   6.780  0.0308  0.4325 -0.0627
14511SOL    HW147031   9.352   4.650   6.721 -1.4514  0.2299 -1.7297
14511SOL    HW247032   9.298   4.632   6.861  0.0520 -1.8324 -1.3656
14512SOL     OW47033   7.418   0.241   4.690 -0.0283  0.1227 -0.3388
14512SOL    HW147034   7.347   0.264   4.751  1.2316 -0.9655  1.6584
14512SOL    HW247035   7.378   0.249   4.604 -2.2377  0.7039  0.6471
14513SOL     OW47036   1.365   7.703   5.993  0.5018 -0.4581  0.1531
14513SOL    HW147037   1.426   7.666   6.057 -0.5718 -0.5021  1.1864
14513SOL    HW247038   1.404   7.787   5.969  1.1104 -0.6077  0.5771
14514SOL     OW47039   6.464   7.187   0.672 -0.1503 -0.3174  0.2475
14514SOL    HW147040   6.402   7.120   0.700 -0.8940  0.8781  1.6223
14514SOL    HW247041   6.469   7.177   0.577 -0.3842 -2.1611  0.3998
14515SOL     OW47042   7.209   8.872   4.364 -0.2181 -0.3097 -0.4122
14515SOL    HW147043   7.219   8.778   4.378  0.7179 -0.3130 -0.9957
14515SOL    HW247044   7.131   8.895   4.413 -0.7596 -1.4889 -0.6749
14516SOL     OW47045   0.746   3.824   9.741 -0.1295 -0.0328 -0.0756
14516SOL    HW147046   0.811   3.892   9.756 -0.1145 -0.2207  0.7664
14516SOL    HW247047   0.668   3.854   9.787 -0.1508 -0.5395  0.2297
14517SOL     OW47048   2.580   7.591   6.510 -0.2790 -0.6790 -0.1626
14517SOL    HW147049   2.671   7.606   6.533 -1.1146  1.5082  2.1297
14517SOL    HW247050   2.573   7.618   6.419  0.7021  2.7257  0.6284
14518SOL     OW47051   6.333   8.932   8.131 -0.5675 -0.3308  0.2368
14518SOL    HW147052   6.328   8.865   8.199 -0.3126  0.6290  1.2350
14518SOL    HW247053   6.246   8.973   8.132  0.1533  1.3106  1.7508
14519SOL     OW47054   2.866   1.771   2.634 -0.1336  0.0735 -0.7657
14519SOL    HW147055   2.829   1.828   2.701  2.1518 -0.4158  1.0376
14519SOL    HW247056   2.802   1.702   2.622 -1.8214  1.6231 -1.1738
14520SOL     OW47057   3.756   1.509   3.811 -0.2431 -0.4597  0.3292
14520SOL    HW147058   3.727   1.446   3.745  0.4519 -1.2623  0.7822
14520SOL    HW247059   3.705   1.488   3.889 -0.5268  0.0103  0.2768
14521SOL     OW47060   2.337   3.504   8.579  0.2802  0.6806 -0.4037
14521SOL    HW147061   2.346   3.568   8.508 -0.6615  1.8255  0.4559
14521SOL    HW247062   2.281   3.435   8.542 -1.9022  2.2493 -0.2221
14522SOL     OW47063   4.616   6.021   6.960  0.1450 -0.2663 -0.1961
14522SOL    HW147064   4.561   6.084   7.008  0.6193 -0.0704  0.0986
14522SOL    HW247065   4.648   5.961   7.028 -1.4980 -1.7466 -0.6653
14523SOL     OW47066   5.761   0.427   9.303  0.2618  0.3351  0.0974
14523SOL    HW147067   5.766   0.336   9.276 -0.8051  0.4954 -0.7206
14523SOL    HW247068   5.851   0.457   9.305  0.9936 -1.5774  3.5407
14524SOL     OW47069   4.526   3.342   2.031 -0.2296  0.6435 -0.7682
14524SOL    HW147070   4.586   3.274   2.001 -2.0418 -1.9419  1.0765
14524SOL    HW247071   4.534   3.411   1.965  2.7317 -0.6913 -2.0110
14525SOL     OW47072   6.933   7.994   1.241  0.5862 -0.6143 -0.3733
14525SOL    HW147073   6.995   7.981   1.313  1.5341  1.6835 -0.6602
14525SOL    HW247074   6.951   7.922   1.181  1.7538 -0.9913  0.3872
14526SOL     OW47075  10.482   9.468   7.849  0.5100 -0.1881  0.3086
14526SOL    HW147076  10.399   9.425   7.830  0.8399 -1.0244  0.7261
14526SOL    HW247077  10.457   9.552   7.886 -0.1529 -0.5593  0.7285
14527SOL     OW47078   7.883   2.964   2.214  0.0322  0.2992 -0.1454
14527SOL    HW147079   7.941   2.892   2.189  1.7175  1.5997 -0.2249
14527SOL    HW247080   7.873   3.015   2.134 -1.1265  0.1800 -0.0879
14528SOL     OW47081   7.758   5.930   9.362 -0.2960 -0.1556 -0.0969
14528SOL    HW147082   7.804   6.014   9.362 -0.7878  0.1183 -0.3812
14528SOL    HW247083   7.757   5.903   9.454  1.8940 -0.9898 -0.2677
14529SOL     OW47084   9.392   7.504   1.507 -0.0582  0.2632 -0.5626
14529SOL    HW147085   9.344   7.427   1.539  1.6466 -0.5748  0.1021
14529SOL    HW247086   9.468   7.467   1.462  0.5563  1.5627 -0.6275
14530SOL     OW47087   7.900   2.903   2.804  0.1009  0.5186 -0.3483
14530SOL    HW147088   7.932   2.817   2.778  2.1120  1.4677 -1.2735
14530SOL    HW247089   7.807   2.889   2.825  0.4308 -1.8940 -0.1665
14531SOL     OW47090   4.000   0.584   9.349 -0.0089  0.2190 -0.6773
14531SOL    HW147091   3.956   0.523   9.290  1.9587 -0.9942 -0.9884
14531SOL    HW247092   4.093   0.576   9.327  0.5190  1.7531  0.7554
14532SOL     OW47093   9.591   0.022   1.593 -0.4243  0.2639  0.2504
14532SOL    HW147094   9.605  -0.070   1.616  1.9884  0.6970  0.7612
14532SOL    HW247095   9.580   0.021   1.497  0.4100 -0.4814  0.1531
14533SOL     OW47096  10.924   6.022   0.735  0.2475  0.1479  0.2173
14533SOL    HW147097  10.997   6.078   0.710 -0.8106  1.5353  0.1520
14533SOL    HW247098  10.918   5.957   0.664  0.3835  1.0313 -0.6205
14534SOL     OW47099   9.816   9.214   4.691 -0.6561 -0.2197  0.1065
14534SOL    HW147100   9.909   9.190   4.700 -0.0818  1.5591 -0.6701
14534SOL    HW247101   9.803   9.224   4.597 -1.2280  1.0364  0.3029
14535SOL     OW47102   6.033   5.014   6.469 -0.1359 -0.6115 -0.0116
14535SOL    HW147103   5.955   4.998   6.416 -1.2321 -0.2771  1.4476
14535SOL    HW247104   6.097   4.950   6.437 -1.1281 -1.1698 -0.9519
14536SOL     OW47105   7.553   6.839   0.321 -0.0887  0.0683 -0.5189
14536SOL    HW147106   7.549   6.845   0.416  0.5364  0.6696 -0.5228
14536SOL    HW247107   7.509   6.918   0.290  1.1105  0.6960 -0.6927
14537SOL     OW47108   1.585   8.490   0.415  0.0936 -0.2454 -0.4445
14537SOL    HW147109   1.554   8.523   0.331  3.9852  0.3862 -1.8262
14537SOL    HW247110   1.572   8.564   0.475  1.4706  1.0345 -1.6512
14538SOL     OW47111   2.354   2.502   0.816  0.4502  0.2064 -0.7442
14538SOL    HW147112   2.353   2.574   0.753  0.6474  0.5804 -0.3253
14538SOL    HW247113   2.400   2.431   0.770  0.8651  0.5773 -0.9101
14539SOL     OW47114   9.606   7.066   8.578  0.4004 -0.2792 -0.5357
14539SOL    HW147115   9.646   7.063   8.491 -0.1002  0.8860 -0.8166
14539SOL    HW247116   9.626   7.154   8.611 -3.0527  0.9305 -1.2707
14540SOL     OW47117   8.368   6.313   9.265  0.0572 -0.0763 -0.3155
14540SOL    HW147118   8.307   6.291   9.336  0.5668  0.6302  0.3510
14540SOL    HW247119   8.394   6.228   9.230 -0.5269 -0.4228  0.0617
14541SOL     OW47120   1.009   7.913  10.477 -0.0672  0.5216 -0.2384
14541SOL    HW147121   1.055   7.835  10.508 -0.4172  0.2944 -0.2853
14541SOL    HW247122   1.006   7.971  10.554 -0.2171  0.2971 -0.0731
14542SOL     OW47123   2.950   4.478   6.291 -0.1392  0.1885  0.3664
14542SOL    HW147124   2.919   4.394   6.325  0.8830 -0.2646  0.2140
14542SOL    HW247125   2.957   4.534   6.369  0.3248 -0.2374  0.6304
14543SOL     OW47126   2.025   1.548   4.383 -0.1934 -0.6716  0.1820
14543SOL    HW147127   2.072   1.618   4.428 -2.3483  1.6220 -0.8718
14543SOL    HW247128   2.078   1.470   4.398  1.6584  0.8939  2.5533
14544SOL     OW47129   8.211   1.803   9.107 -0.3157  0.0081  0.1685
14544SOL    HW147130   8.266   1.788   9.184  0.1085  0.1979 -0.0923
14544SOL    HW247131   8.272   1.807   9.034 -0.6484  0.4853 -0.0943
14545SOL     OW47132   2.175   4.621   9.667  0.2691 -0.4812 -0.0580
14545SOL    HW147133   2.117   4.590   9.598 -1.3478  0.1298  0.9686
14545SOL    HW247134   2.259   4.635   9.623 -0.5759 -0.5807 -1.7900
14546SOL     OW47135   0.983   2.057   3.855 -0.0592  0.9193  0.4942
14546SOL    HW147136   0.988   2.007   3.936  2.9703 -1.2284 -0.8189
14546SOL    HW247137   1.029   2.139   3.874  3.2553 -0.7407  0.3873
14547SOL     OW47138   8.382   7.809   6.997 -0.3618  0.3415 -0.4792
14547SOL    HW147139   8.353   7.899   7.017  0.5563  0.7914 -1.1154
14547SOL    HW247140   8.410   7.774   7.082  1.8615  1.6294 -0.6161
14548SOL     OW47141   0.911   8.738   1.771  0.4007 -0.9558  0.6123
14548SOL    HW147142   0.822   8.704   1.786 -0.5237 -0.5733 -3.0680
14548SOL    HW247143   0.914   8.756   1.677  3.6078  1.4130  1.0204
14549SOL     OW47144  10.966   6.802   3.751 -0.1172  0.1158 -0.0664
14549SOL    HW147145  10.960   6.725   3.808  1.2359 -0.9856 -1.3380
14549SOL    HW247146  10.890   6.855   3.774 -0.2907 -0.8941  1.8645
14550SOL     OW47147   9.249   1.499  10.042 -0.2510  0.3327  0.0993
14550SOL    HW147148   9.333   1.497   9.996 -0.5003 -0.2296 -0.3348
14550SOL    HW247149   9.190   1.543   9.981 -0.8343 -1.3115 -0.5634
14551SOL     OW47150   3.896   2.766   0.827 -0.0367  0.1548 -0.0202
14551SOL    HW147151   3.920   2.857   0.809 -0.8556  0.4286  0.2417
14551SOL    HW247152   3.922   2.718   0.748 -0.5684  0.7931 -0.5898
14552SOL     OW47153   3.236   1.497  10.325 -0.3206  0.2692 -0.2874
14552SOL    HW147154   3.209   1.473  10.236  0.9355  3.2315 -1.6217
14552SOL    HW247155   3.161   1.543  10.362  0.2984  2.1239 -1.2273
14553SOL     OW47156  10.043   6.475   8.927  0.3831  0.3656 -0.2319
14553SOL    HW147157  10.124   6.432   8.954  0.3870  0.5040 -0.0209
14553SOL    HW247158  10.056   6.567   8.949 -0.2185  0.2402  0.7504
14554SOL     OW47159   2.263   3.381   4.107  0.7622 -0.0052  0.4674
14554SOL    HW147160   2.326   3.446   4.138  0.2547  0.1915  1.0909
14554SOL    HW247161   2.239   3.411   4.020  0.3148  0.8061  0.8594
14555SOL     OW47162   3.588   8.835   9.990  0.2722 -0.1250  0.1716
14555SOL    HW147163   3.662   8.894  10.004 -0.0404  0.4574 -0.5225
14555SOL    HW247164   3.516   8.894   9.967 -0.4690 -0.6604  1.0682
14556SOL     OW47165   3.045   2.466   3.877 -0.1351  0.1141 -0.1727
14556SOL    HW147166   2.979   2.534   3.873 -1.8905 -1.5336 -0.8959
14556SOL    HW247167   3.008   2.393   3.826  1.6726 -1.3401  0.4660
14557SOL     OW47168   8.483   1.919   3.589  0.1491  0.2468 -0.7520
14557SOL    HW147169   8.523   2.005   3.578  0.9857 -0.0957 -0.4942
14557SOL    HW247170   8.501   1.895   3.680 -0.5795  0.0407 -0.6534
14558SOL     OW47171   8.874   1.369   4.265 -0.6519 -0.4771  0.7422
14558SOL    HW147172   8.810   1.303   4.238  0.2418 -1.1866  0.3548
14558SOL    HW247173   8.938   1.372   4.195  0.1185 -0.2583  1.4325
14559SOL     OW47174   2.534   5.933   5.671  0.1822 -0.3315  0.1743
14559SOL    HW147175   2.591   5.862   5.702 -1.3450 -1.8101 -0.2245
14559SOL    HW247176   2.446   5.905   5.696 -0.3815  2.1468  1.2562
14560SOL     OW47177   7.328   6.404   5.546 -0.2179 -0.1935 -0.5012
14560SOL    HW147178   7.380   6.327   5.525  0.8067 -0.2542  1.9381
14560SOL    HW247179   7.350   6.424   5.638 -0.2544  3.1278 -1.0849
14561SOL     OW47180   3.075   1.456   0.912  0.2281  0.3929 -0.0112
14561SOL    HW147181   3.039   1.539   0.943 -1.6402  0.4445 -2.1176
14561SOL    HW247182   3.005   1.393   0.928  1.4254 -0.7105  1.0552
14562SOL     OW47183   8.646   0.998   3.880 -0.1867 -0.3634  0.2889
14562SOL    HW147184   8.723   0.947   3.854 -1.5857 -2.0512 -0.8369
14562SOL    HW247185   8.619   0.960   3.963  0.0431  0.0409  0.5470
14563SOL     OW47186  10.346   2.237   4.471 -0.0958 -0.2057  0.0046
14563SOL    HW147187  10.376   2.310   4.525  1.4551 -1.6269  1.1695
14563SOL    HW247188  10.255   2.258   4.450  0.7868  2.9483 -1.2964
14564SOL     OW47189  10.562   8.176   7.934 -0.1894 -0.3262  0.9661
14564SOL    HW147190  10.604   8.090   7.933 -0.2226 -0.3826  2.5304
14564SOL    HW247191  10.526   8.184   8.022 -0.6350  1.0812  0.6735
14565SOL     OW47192   0.045   3.376   9.367 -0.7495  0.4169 -0.7570
14565SOL    HW147193   0.032   3.381   9.273  2.5103  1.5319 -1.2591
14565SOL    HW247194   0.112   3.441   9.386  0.5760 -1.5378  1.9259
14566SOL     OW47195   5.134   2.026   7.195  0.0382 -0.2707  0.8849
14566SOL    HW147196   5.123   2.106   7.246 -2.7829  1.1471 -1.5897
14566SOL    HW247197   5.045   1.993   7.184  0.8434 -2.1096 -0.6460
14567SOL     OW47198   6.022   0.817   1.118 -0.2211  0.8648 -0.0549
14567SOL    HW147199   6.032   0.843   1.026  0.7041 -1.2920 -0.6452
14567SOL    HW247200   6.043   0.723   1.118 -2.1391  0.3417  2.0331
14568SOL     OW47201   8.175   8.644   5.883  0.0954  0.4438 -0.1840
14568SOL    HW147202   8.214   8.729   5.860 -1.1725  0.8217 -1.0092
14568SOL    HW247203   8.113   8.626   5.813 -1.4242 -0.0013  1.2131
14569SOL     OW47204   0.489   1.028   4.628 -0.6257  0.3067 -0.1812
14569SOL    HW147205   0.444   1.022   4.544 -0.0760 -1.6054 -0.3814
14569SOL    HW247206   0.516   0.939   4.648 -0.2706  0.7915  1.7878
14570SOL     OW47207   4.800   7.938   4.196 -0.2127 -0.0416 -0.3521
14570SOL    HW147208   4.888   7.957   4.228  0.2187  0.5026 -1.7913
14570SOL    HW247209   4.778   8.012   4.140 -0.5592 -1.3579 -2.0266
14571SOL     OW47210   4.860   9.506   7.822 -0.2871 -0.4853  0.8001
14571SOL    HW147211   4.840   9.488   7.730 -1.6773 -0.4739  1.0750
14571SOL    HW247212   4.805   9.444   7.870  0.7687 -0.7978  1.6199
14572SOL     OW47213   7.207   3.146   6.021 -0.3159 -0.1141  0.4562
14572SOL    HW147214   7.290   3.186   6.045 -0.5636  0.7806 -0.1631
14572SOL    HW247215   7.169   3.205   5.957 -1.5324 -0.4051  0.8796
14573SOL     OW47216   8.822   8.070   4.218  0.1193 -0.4330  0.5384
14573SOL    HW147217   8.816   8.137   4.149  1.2814  0.0500  0.8854
14573SOL    HW247218   8.763   8.102   4.287 -1.3137 -1.0950 -0.3525
14574SOL     OW47219   7.731   7.895   3.750 -0.3413 -0.2699  0.3008
14574SOL    HW147220   7.812   7.844   3.745 -0.0087  0.2248  0.5555
14574SOL    HW247221   7.731   7.932   3.838 -0.8061 -0.1932  0.2737
14575SOL     OW47222   9.475   6.968   2.021  0.0861 -0.2190  0.0073
14575SOL    HW147223   9.387   7.002   2.035  0.5172  1.1386 -0.3881
14575SOL    HW247224   9.491   6.979   1.928  0.0174 -2.1807 -0.2817
14576SOL     OW47225   1.374   4.278   2.735 -0.1271 -0.4328 -0.1163
14576SOL    HW147226   1.352   4.339   2.665  0.4991 -0.7210 -0.5780
14576SOL    HW247227   1.463   4.301   2.760  0.3195 -1.4893 -0.6700
14577SOL     OW47228   2.060   2.380   1.979  0.2283 -0.3170  0.3032
14577SOL    HW147229   2.035   2.428   1.900 -1.0062 -0.1393  0.7838
14577SOL    HW247230   1.983   2.328   2.001  0.6306 -0.5244  1.2692
14578SOL     OW47231   8.768  10.867   8.582 -0.1808 -0.0104 -0.3434
14578SOL    HW147232   8.829  10.935   8.609 -1.1774  0.1788  1.6398
14578SOL    HW247233   8.715  10.908   8.513 -0.3710  1.0333  0.4003
14579SOL     OW47234   7.131   6.200   3.589 -0.2184 -0.1283  0.1687
14579SOL    HW147235   7.152   6.288   3.622 -1.5363  0.2389  0.0703
14579SOL    HW247236   7.079   6.160   3.658 -0.9786 -0.2306 -0.4518
14580SOL     OW47237   2.183  10.783   0.271  0.4182  0.2553 -0.5521
14580SOL    HW147238   2.124  10.775   0.346  0.1384 -0.0053 -0.7972
14580SOL    HW247239   2.179  10.876   0.248  1.8981  0.7232  0.8654
14581SOL     OW47240   4.888   9.613   5.395  0.2288  0.8375  0.4452
14581SOL    HW147241   4.860   9.559   5.320 -1.2581  1.7213  0.3339
14581SOL    HW247242   4.962   9.565   5.432 -1.2387 -1.4829  0.5690
14582SOL     OW47243   6.118   0.078   1.375  0.6049  0.2000 -0.0295
14582SOL    HW147244   6.199   0.111   1.336  0.6485 -2.6503 -2.8043
14582SOL    HW247245   6.051   0.097   1.310 -0.3877 -0.1392  0.8741
14583SOL     OW47246   3.452   3.515   8.411  0.1377 -0.0452 -0.2077
14583SOL    HW147247   3.381   3.463   8.374  0.9476 -0.7534 -0.7732
14583SOL    HW247248   3.428   3.524   8.504 -2.1282  2.1288 -0.8912
14584SOL     OW47249  10.464   3.880   8.456  0.0025  0.6920 -0.0634
14584SOL    HW147250  10.458   3.974   8.443 -1.7104  0.7670  0.9606
14584SOL    HW247251  10.403   3.843   8.391 -0.6905  0.4231  0.7219
14585SOL     OW47252   9.590   5.487   8.436 -0.5333  0.3529  0.0940
14585SOL    HW147253   9.563   5.528   8.517 -0.1235  0.7110  0.0541
14585SOL    HW247254   9.610   5.396   8.460  0.9185  0.7972  0.6924
14586SOL     OW47255   6.330   7.559   8.297 -0.6304 -0.4618 -0.2925
14586SOL    HW147256   6.361   7.527   8.212 -0.3038 -1.7659  0.2898
14586SOL    HW247257   6.236   7.541   8.297 -0.5478 -0.9038 -0.1970
14587SOL     OW47258   8.561   3.568   5.483  0.4068 -0.2085  0.9442
14587SOL    HW147259   8.500   3.495   5.483  0.6775 -0.5397 -1.9576
14587SOL    HW247260   8.509   3.644   5.508 -0.6325 -0.8682  0.8054
14588SOL     OW47261   1.436   7.532   6.923  0.3835 -0.5082 -0.2232
14588SOL    HW147262   1.394   7.558   6.841 -2.4889  0.7116  1.5111
14588SOL    HW247263   1.389   7.453   6.950 -0.3698  0.4255  1.3607
14589SOL     OW47264   2.742   5.005   7.310  0.3366 -0.3178 -0.1381
14589SOL    HW147265   2.757   4.989   7.403  0.8546  1.8482  0.2100
14589SOL    HW247266   2.780   5.092   7.294 -1.5122  0.2567 -1.9168
14590SOL     OW47267   6.103   0.234   9.687 -0.3191  0.2383  0.2703
14590SOL    HW147268   6.037   0.225   9.756 -0.1165 -2.3738  0.2322
14590SOL    HW247269   6.061   0.201   9.608  0.4594  0.1965 -0.1444
14591SOL     OW47270   6.831   5.716   4.911  0.7978  0.2637 -0.2671
14591SOL    HW147271   6.842   5.789   4.971 -0.1963  0.0556  0.1864
14591SOL    HW247272   6.839   5.637   4.966 -0.4398  0.0801 -0.3360
14592SOL     OW47273   7.922   6.077   8.600  0.2269  0.2817  0.5562
14592SOL    HW147274   7.978   6.152   8.583 -0.5941  0.6405 -0.6429
14592SOL    HW247275   7.878   6.060   8.517  2.1054 -3.0140  0.0741
14593SOL     OW47276  10.820   6.576   1.102  0.1904  0.2393 -1.1336
14593SOL    HW147277  10.848   6.497   1.056 -0.0503  0.4492 -1.6376
14593SOL    HW247278  10.862   6.569   1.188  1.1868  0.1807 -1.6130
14594SOL     OW47279   9.312   4.013   7.547  0.4773 -0.3883 -0.0233
14594SOL    HW147280   9.389   4.022   7.491 -0.9371 -0.6036 -2.1202
14594SOL    HW247281   9.334   3.941   7.607  1.8253 -0.5812 -0.7118
14595SOL     OW47282   5.918  10.978   1.803 -0.1865  0.1326 -0.1848
14595SOL    HW147283   5.879  11.000   1.887  0.3193 -0.4947  0.2251
14595SOL    HW247284   5.851  10.924   1.759 -0.1555 -0.1629  0.1283
14596SOL     OW47285   2.870   2.030   3.704  0.3491 -0.0741  0.4444
14596SOL    HW147286   2.959   2.061   3.687  0.3915  0.2244  1.1871
14596SOL    HW247287   2.821   2.056   3.626  0.7465  0.4272  0.3547
14597SOL     OW47288   2.354   4.339   9.507  0.5884 -0.3672 -0.4426
14597SOL    HW147289   2.289   4.354   9.437 -0.6309  0.4763  0.8201
14597SOL    HW247290   2.311   4.278   9.567  0.5559  0.9155  0.8934
14598SOL     OW47291   3.851   5.424   9.975 -0.0885 -0.3759  0.1111
14598SOL    HW147292   3.858   5.355  10.040  0.4608 -1.6634 -1.2629
14598SOL    HW247293   3.805   5.384   9.901 -0.0249  0.8044 -0.6110
14599SOL     OW47294   0.256   7.445   8.491  0.4577 -0.1103 -0.2059
14599SOL    HW147295   0.251   7.394   8.410  1.8434  1.4549 -1.3622
14599SOL    HW247296   0.325   7.403   8.541  0.3655 -0.4296 -0.3425
14600SOL     OW47297   0.714   1.805   4.463 -0.0048 -0.2306  0.5073
14600SOL    HW147298   0.640   1.761   4.505 -1.5445  0.9583 -0.8259
14600SOL    HW247299   0.729   1.883   4.515 -1.4946  0.9083 -0.6656
14601SOL     OW47300  10.570   0.326   6.191 -0.2555  0.6239  0.2129
14601SOL    HW147301  10.518   0.395   6.232 -1.1551 -0.2936  0.6756
14601SOL    HW247302  10.549   0.247   6.241  1.5269  0.1904  0.3627
14602SOL     OW47303   1.933   7.469   3.988 -0.0560  0.0552 -0.3462
14602SOL    HW147304   1.842   7.480   4.014  0.2676  2.2953  0.1013
14602SOL    HW247305   1.946   7.533   3.918  1.0208 -0.6649 -0.8310
14603SOL     OW47306   1.262   7.642   3.810 -0.2380  0.2336 -0.4374
14603SOL    HW147307   1.295   7.574   3.752  0.5704  1.8547 -2.0085
14603SOL    HW247308   1.168   7.630   3.812 -0.3391  0.3810 -2.5149
14604SOL     OW47309   3.805   6.830   0.185 -0.2721 -0.0912 -0.1202
14604SOL    HW147310   3.732   6.790   0.232 -1.1886 -0.1987 -1.5589
14604SOL    HW247311   3.766   6.908   0.145  1.0112  1.1913  1.0548
14605SOL     OW47312   9.149   1.117   7.777 -0.1041 -0.1372 -0.1284
14605SOL    HW147313   9.105   1.032   7.779  1.4036 -0.9412  1.2602
14605SOL    HW247314   9.231   1.102   7.731  1.4744 -0.1877  2.5035
14606SOL     OW47315   2.350   3.461   0.876 -0.3750 -0.3747  0.0336
14606SOL    HW147316   2.295   3.421   0.943 -1.7406 -0.9816 -1.3768
14606SOL    HW247317   2.434   3.417   0.884 -0.4208 -0.2546  1.4792
14607SOL     OW47318   3.424   6.410   8.954  0.4367  0.0218  0.6594
14607SOL    HW147319   3.409   6.355   9.030 -0.9735 -0.7340 -0.1202
14607SOL    HW247320   3.372   6.489   8.971 -0.4603 -0.4501  0.1949
14608SOL     OW47321   8.821   5.588   5.296 -0.0396 -0.5821  0.0211
14608SOL    HW147322   8.868   5.589   5.380 -2.3735  0.4582  1.4230
14608SOL    HW247323   8.787   5.677   5.287  0.3753 -0.5866 -2.2353
14609SOL     OW47324   9.013   4.583   5.453  0.0032 -0.1008  0.0024
14609SOL    HW147325   8.961   4.657   5.421  1.3535  0.5751 -0.7550
14609SOL    HW247326   8.969   4.555   5.533 -0.1339  2.0433  0.7481
14610SOL     OW47327   3.543   4.143   5.652  0.2615 -0.1351 -0.2251
14610SOL    HW147328   3.509   4.082   5.718  1.0571 -0.8555 -0.4546
14610SOL    HW247329   3.477   4.144   5.583 -0.5231  0.5344  0.5123
14611SOL     OW47330   4.814   9.871   6.662  0.3531  0.1654  0.1385
14611SOL    HW147331   4.894   9.871   6.609  0.4375  0.0870  0.2628
14611SOL    HW247332   4.748   9.829   6.608 -0.2190  2.1963 -0.8543
14612SOL     OW47333   7.473   1.104   3.771 -0.2111  0.3433 -0.4137
14612SOL    HW147334   7.458   1.199   3.771 -1.3826  0.1704 -0.1620
14612SOL    HW247335   7.495   1.083   3.862  1.0789  0.5059 -0.6655
14613SOL     OW47336   2.344   3.142   9.079 -0.4942  0.2255 -0.0127
14613SOL    HW147337   2.347   3.048   9.090  0.2030  0.3519  1.0042
14613SOL    HW247338   2.374   3.156   8.989 -0.4361 -0.5132 -0.1119
14614SOL     OW47339   5.581   5.031   2.414  0.6011 -0.2266  0.3085
14614SOL    HW147340   5.618   5.118   2.402  1.6152 -0.7621 -0.5492
14614SOL    HW247341   5.528   5.039   2.493  0.8329  1.1099  0.3579
14615SOL     OW47342   4.923   8.063   8.065  0.2267 -0.3025 -0.7076
14615SOL    HW147343   4.851   8.064   8.128  1.1428 -2.1757  0.4612
14615SOL    HW247344   4.904   7.989   8.007  0.5463  0.0047 -1.2176
14616SOL     OW47345   7.879   7.052   3.189  0.5993  0.3166 -0.4688
14616SOL    HW147346   7.827   7.040   3.269  1.0811  1.2050  0.0047
14616SOL    HW247347   7.966   7.074   3.221  1.5849 -2.1393 -1.2426
14617SOL     OW47348   9.085   8.989   0.010  0.7075 -0.1818 -0.4614
14617SOL    HW147349   9.048   9.009   0.096 -1.6608 -0.6884 -1.2822
14617SOL    HW247350   9.144   9.062  -0.008 -0.5473  1.1776  0.6121
14618SOL     OW47351   5.715   8.150   7.457 -0.1261  0.0774 -0.3923
14618SOL    HW147352   5.738   8.227   7.405 -0.3510  1.7528  1.8526
14618SOL    HW247353   5.620   8.146   7.452 -0.1948  0.6047  0.3327
14619SOL     OW47354   7.289   6.721   0.814 -0.3474 -0.6169  0.3793
14619SOL    HW147355   7.318   6.777   0.885 -2.8750  2.2355 -0.6145
14619SOL    HW247356   7.226   6.662   0.854 -1.3717  0.6285  0.6879
14620SOL     OW47357   4.331   3.282   3.288  0.0423  0.4156 -0.2986
14620SOL    HW147358   4.416   3.326   3.284  0.5819 -0.6204 -0.6824
14620SOL    HW247359   4.310   3.264   3.197 -0.6759  0.7989 -0.2154
14621SOL     OW47360   6.259   6.790   0.794  0.8278  0.1080 -0.3399
14621SOL    HW147361   6.323   6.805   0.864  1.6841  0.3268 -1.1536
14621SOL    HW247362   6.223   6.877   0.775  0.1966 -0.0310  0.1939
14622SOL     OW47363   7.975   6.044   2.631  0.1754  0.2656 -0.3049
14622SOL    HW147364   7.955   6.072   2.720  0.2497  0.4974 -0.3609
14622SOL    HW247365   8.061   6.003   2.637 -1.0416 -2.4411  0.3020
14623SOL     OW47366   2.771   8.827   1.734  0.0843 -0.1715 -0.2932
14623SOL    HW147367   2.728   8.765   1.792 -0.7443  0.3864 -0.2965
14623SOL    HW247368   2.701   8.861   1.678  0.3445  1.4235  0.3017
14624SOL     OW47369   6.235   9.431   7.342  0.0704  0.5086 -0.3631
14624SOL    HW147370   6.167   9.376   7.379 -0.3940  1.1732 -0.2107
14624SOL    HW247371   6.313   9.375   7.340 -0.3685 -0.1193 -0.1420
14625SOL     OW47372   6.089   4.818  10.805 -0.3559  0.2215  0.3165
14625SOL    HW147373   6.154   4.749  10.814 -1.5731 -0.9456  0.5738
14625SOL    HW247374   6.081   4.832  10.710  1.7354  1.8944  0.3129
14626SOL     OW47375   6.173   1.166   6.027  0.7014 -0.2644 -0.6960
14626SOL    HW147376   6.231   1.131   6.095 -0.3002  0.9898  0.8990
14626SOL    HW247377   6.109   1.096   6.012  0.8238 -0.4949 -0.1882
14627SOL     OW47378  10.119   9.310   0.142 -0.6125 -0.6257 -0.0991
14627SOL    HW147379  10.185   9.249   0.109 -0.6228 -0.2824 -0.7769
14627SOL    HW247380  10.133   9.389   0.090 -1.1217 -0.3271  0.2204
14628SOL     OW47381  10.670   0.483  10.330  0.5406  0.4954  0.3508
14628SOL    HW147382  10.735   0.458  10.264 -0.1896  0.7944 -0.5080
14628SOL    HW247383  10.716   0.476  10.413  1.3823 -0.2573 -0.1593
14629SOL     OW47384   3.947   3.495   1.239 -0.0411  0.2311 -0.0895
14629SOL    HW147385   3.979   3.411   1.271  0.4099  1.0158  1.6355
14629SOL    HW247386   4.014   3.525   1.178  0.3952 -0.1172  0.2153
14630SOL     OW47387   0.654   1.322  10.963 -0.0120 -0.3268  0.2580
14630SOL    HW147388   0.717   1.344  10.894 -0.5469 -0.4600 -0.2887
14630SOL    HW247389   0.649   1.226  10.960  0.8316 -0.4236  1.2853
14631SOL     OW47390   0.696   3.335   5.277 -0.1579 -0.6008 -0.2830
14631SOL    HW147391   0.737   3.403   5.223  0.2762 -1.0403 -0.5212
14631SOL    HW247392   0.623   3.304   5.224 -1.3012  0.7164  0.4657
14632SOL     OW47393   8.526   5.676   0.310  0.1277 -0.3649  0.1652
14632SOL    HW147394   8.484   5.716   0.234 -0.5025 -2.1519 -0.4854
14632SOL    HW247395   8.618   5.669   0.285  0.3713  1.1842  0.5409
14633SOL     OW47396   9.874   6.476   3.757 -0.2490 -0.5184 -0.1345
14633SOL    HW147397   9.910   6.436   3.836  0.8514 -0.9126 -0.8249
14633SOL    HW247398   9.811   6.412   3.724 -1.0383 -0.1675  0.6355
14634SOL     OW47399   3.056   2.900   0.404 -0.7411  0.3460  0.0144
14634SOL    HW147400   3.008   2.831   0.449 -0.4803 -0.2055 -0.5471
14634SOL    HW247401   3.125   2.854   0.356  0.7840  1.1615  1.3148
14635SOL     OW47402   6.049   4.133   8.009 -0.4782 -0.4021  0.1126
14635SOL    HW147403   5.960   4.167   8.022 -0.3131 -0.0496  0.3361
14635SOL    HW247404   6.072   4.162   7.920 -1.6112 -2.8231 -1.0596
14636SOL     OW47405   2.280   0.579   5.476 -0.1290 -0.3001 -0.2096
14636SOL    HW147406   2.306   0.581   5.384 -1.6397 -0.2063 -0.6573
14636SOL    HW247407   2.321   0.657   5.514 -2.9744  2.2155 -1.8566
14637SOL     OW47408   7.067   9.450   0.305 -0.1380  0.2268  0.1282
14637SOL    HW147409   7.109   9.535   0.309 -2.0323  1.1720  1.7456
14637SOL    HW247410   7.134   9.391   0.271  1.0720  2.4200 -1.5437
14638SOL     OW47411   5.036   9.450   0.452  0.1291 -0.4171  0.4646
14638SOL    HW147412   4.964   9.440   0.515  0.3795 -0.8463  0.6810
14638SOL    HW247413   5.048   9.545   0.445 -0.6999 -0.3280  0.1505
14639SOL     OW47414   4.867   5.079   6.877  0.4635  0.0840 -0.2331
14639SOL    HW147415   4.904   5.128   6.804 -0.4348 -0.1057 -0.8343
14639SOL    HW247416   4.929   5.092   6.949 -0.2709  3.0404 -0.0171
14640SOL     OW47417   1.980   9.346   5.377  0.0727  0.2094 -0.0495
14640SOL    HW147418   2.043   9.306   5.436  0.3708  1.3425  0.4242
14640SOL    HW247419   1.900   9.353   5.428  0.2901  1.0591  0.1875
14641SOL     OW47420   2.214   4.663   3.907  0.2102 -0.5572  0.0327
14641SOL    HW147421   2.251   4.627   3.826 -0.2368 -1.6886  0.3208
14641SOL    HW247422   2.287   4.661   3.970  0.0786 -1.3566  0.1643
14642SOL     OW47423   0.289   1.227   4.227 -0.3688 -0.0643  0.1650
14642SOL    HW147424   0.252   1.307   4.264 -1.5442 -1.2101  1.6087
14642SOL    HW247425   0.372   1.254   4.188 -1.9289  2.3335 -1.7931
14643SOL     OW47426   3.542   8.017   8.153  0.3028 -0.3543  0.2180
14643SOL    HW147427   3.632   8.049   8.155  0.3862 -0.5834  0.1163
14643SOL    HW247428   3.541   7.943   8.213  0.5105 -1.1991 -0.7978
14644SOL     OW47429   8.559   1.207   6.066 -0.0564 -0.3192  0.0891
14644SOL    HW147430   8.469   1.238   6.064 -0.0751 -0.2753  1.0228
14644SOL    HW247431   8.611   1.288   6.067 -0.0694 -0.3034  1.2393
14645SOL     OW47432   8.443   4.531   5.492  0.3194 -0.3013 -0.7936
14645SOL    HW147433   8.487   4.494   5.568 -0.3870 -3.5383 -1.8065
14645SOL    HW247434   8.513   4.574   5.442  0.6408  2.7974  1.9936
14646SOL     OW47435   4.421   5.234   9.205  0.7279  0.5731 -0.2085
14646SOL    HW147436   4.431   5.307   9.266 -0.3729  1.5177 -1.1123
14646SOL    HW247437   4.326   5.221   9.199  0.8755 -2.4559  1.6543
14647SOL     OW47438   5.436  10.815   9.829  0.2327  0.2152  0.0262
14647SOL    HW147439   5.387  10.759   9.890 -0.5528  1.2025  0.3199
14647SOL    HW247440   5.472  10.753   9.765  1.2901 -0.8870  1.5892
14648SOL     OW47441   5.959   5.322  10.475 -0.0727 -0.0299 -0.4571
14648SOL    HW147442   5.896   5.361  10.535  0.4999 -0.2456  0.2878
14648SOL    HW247443   5.913   5.319  10.391 -0.5577  1.1127 -0.2498
14649SOL     OW47444   1.522   2.874   0.304  0.0951  0.7546 -0.1826
14649SOL    HW147445   1.560   2.804   0.251 -0.9403 -0.1556  0.2426
14649SOL    HW247446   1.514   2.836   0.392 -4.3153 -0.1814 -0.7745
14650SOL     OW47447   8.829   7.724   0.734  0.0170  0.7309 -0.0390
14650SOL    HW147448   8.763   7.659   0.707  0.7520  0.1586 -0.4907
14650SOL    HW247449   8.778   7.792   0.780 -1.1088  1.0467 -1.6542
14651SOL     OW47450   8.360  10.663   5.557 -0.0516  0.0474  0.1522
14651SOL    HW147451   8.417  10.684   5.483 -0.0121 -0.6180 -0.0183
14651SOL    HW247452   8.312  10.743   5.575  1.3911  0.8278  0.6967
14652SOL     OW47453   5.231  10.526   8.291 -1.0319  0.7850  0.0893
14652SOL    HW147454   5.304  10.464   8.293 -0.9352  0.8532 -0.8448
14652SOL    HW247455   5.154  10.472   8.308 -1.1075  0.1173 -2.0393
14653SOL     OW47456   3.208   7.805  10.648  0.1312  0.0889  0.0003
14653SOL    HW147457   3.290   7.775  10.688  0.0459 -0.0500  0.0704
14653SOL    HW247458   3.152   7.826  10.722  0.2054  0.4623 -0.0486
14654SOL     OW47459   8.127   6.095   6.520 -0.0549 -0.3994 -0.7348
14654SOL    HW147460   8.171   6.010   6.515 -0.0408 -0.4150 -0.3984
14654SOL    HW247461   8.163   6.136   6.598 -0.6273 -0.4060 -0.4570
14655SOL     OW47462  10.712   2.021   5.074 -0.2204  0.1317  0.2035
14655SOL    HW147463  10.705   1.997   4.982 -1.0279  0.9933  0.0207
14655SOL    HW247464  10.745   2.111   5.073  0.3917 -0.0754  0.7846
14656SOL     OW47465   3.450   7.775  10.946  0.1563  0.1823  0.0260
14656SOL    HW147466   3.503   7.850  10.973  1.0626 -0.4768  0.1123
14656SOL    HW247467   3.467   7.766  10.852  0.1746 -0.0182  0.0487
14657SOL     OW47468   9.557   2.846  10.102  0.2608  0.1859 -0.2003
14657SOL    HW147469   9.477   2.793  10.104  0.9853 -0.9462 -0.1846
14657SOL    HW247470   9.577   2.857  10.009  0.0014  0.6162 -0.2079
14658SOL     OW47471  10.148   3.280   3.336 -0.0448 -0.3203  0.0688
14658SOL    HW147472  10.078   3.284   3.401 -0.5952 -0.5381 -0.5044
14658SOL    HW247473  10.171   3.372   3.321 -0.9944 -0.1738 -0.5735
14659SOL     OW47474   5.873   4.709   0.396 -0.5430 -0.0605 -0.1216
14659SOL    HW147475   5.828   4.780   0.443 -0.2876 -0.5633  0.9233
14659SOL    HW247476   5.806   4.674   0.337 -0.9786  0.3922  0.0936
14660SOL     OW47477   5.545  10.856   2.234 -0.0788  0.3234 -0.8302
14660SOL    HW147478   5.576  10.804   2.160  0.1673  0.9536 -1.1797
14660SOL    HW247479   5.504  10.793   2.293  1.6148 -0.5067 -0.4747
14661SOL     OW47480   0.018   4.995   9.019 -0.3281  0.2259 -0.4678
14661SOL    HW147481   0.082   4.951   9.075 -1.6056  0.5715  1.3345
14661SOL    HW247482  -0.038   4.925   8.986 -1.8399  0.3144  1.7245
14662SOL     OW47483  10.942   9.489  10.687  0.1115  0.5115  0.0579
14662SOL    HW147484  10.944   9.400  10.720  0.9088  1.2019  2.0045
14662SOL    HW247485  11.027   9.525  10.710  0.6198  1.1965 -2.5325
14663SOL     OW47486   9.373   7.198   0.499 -0.1776 -0.3014  0.2919
14663SOL    HW147487   9.407   7.136   0.564  0.7947 -0.9329 -0.7805
14663SOL    HW247488   9.333   7.142   0.433  0.8198  0.1961 -0.7531
14664SOL     OW47489   1.811   2.325   9.538 -0.1217  0.2676 -0.2886
14664SOL    HW147490   1.838   2.358   9.624 -2.1298  0.0449  0.4828
14664SOL    HW247491   1.779   2.402   9.492 -0.3820  0.1647 -0.2837
14665SOL     OW47492   7.211   1.676   2.309  0.2460 -0.0635  0.1604
14665SOL    HW147493   7.154   1.753   2.307  1.7229  1.0875  0.4909
14665SOL    HW247494   7.166   1.614   2.366 -1.4246  0.1585 -0.8716
14666SOL     OW47495   1.979   6.088   6.302  0.4828 -0.6229  0.0568
14666SOL    HW147496   1.939   6.163   6.346  0.4422 -0.6452  0.0581
14666SOL    HW247497   1.936   6.011   6.341 -0.3118 -0.6048 -0.7774
14667SOL     OW47498   8.403   5.020   8.621 -0.2042 -0.2953 -0.0662
14667SOL    HW147499   8.381   5.105   8.658 -2.4893 -1.0496  0.4542
14667SOL    HW247500   8.421   4.965   8.698 -1.9567 -1.0696 -0.1496
14668SOL     OW47501   4.345   3.759  10.456 -0.0627  0.0018  0.2807
14668SOL    HW147502   4.412   3.696  10.430  1.9820  1.5727  1.4297
14668SOL    HW247503   4.312   3.793  10.373 -0.4997 -1.8056 -0.3361
14669SOL     OW47504   8.054   1.033   0.262 -0.2103 -0.6975  0.5853
14669SOL    HW147505   8.093   1.095   0.324  1.4879 -0.2611 -0.8587
14669SOL    HW247506   7.983   0.992   0.312 -0.1717  1.0262  2.1886
14670SOL     OW47507  10.669   2.888   1.041  0.0826  0.3071  0.2291
14670SOL    HW147508  10.683   2.836   0.963  3.5432  2.9851 -1.1915
14670SOL    HW247509  10.672   2.979   1.011  0.7423  1.4519  3.3483
14671SOL     OW47510   0.679   7.026  10.150  0.4519  0.0619 -0.2736
14671SOL    HW147511   0.628   7.101  10.118  0.6959  0.3099 -0.0901
14671SOL    HW247512   0.679   7.036  10.245  0.0023 -0.4939 -0.2176
14672SOL     OW47513   4.155   7.411   9.484  0.2134  0.1711 -0.0453
14672SOL    HW147514   4.216   7.340   9.462  0.2852 -0.1638  1.1540
14672SOL    HW247515   4.156   7.468   9.408 -0.6058 -1.6265 -1.4817
14673SOL     OW47516   9.551   7.132  10.013 -0.3213  0.2828 -0.7342
14673SOL    HW147517   9.644   7.136  10.037 -0.4320 -0.2059 -0.1801
14673SOL    HW247518   9.513   7.211  10.051 -0.1915  0.3166 -0.6739
14674SOL     OW47519   0.223   7.570   8.913  0.2378  0.5392  0.2096
14674SOL    HW147520   0.198   7.641   8.971  1.2061  0.0271  1.3176
14674SOL    HW247521   0.297   7.528   8.958  0.1740 -0.6869 -0.7726
14675SOL     OW47522   4.629   4.309   5.127  0.1050 -0.3057 -0.0431
14675SOL    HW147523   4.696   4.362   5.171  2.0865 -3.9194  1.7103
14675SOL    HW247524   4.546   4.345   5.159  1.2373  2.1410  0.4097
14676SOL     OW47525   2.799   6.296   7.240  0.1743 -0.2529  0.1810
14676SOL    HW147526   2.757   6.312   7.325  2.1440  3.6297  0.6676
14676SOL    HW247527   2.726   6.298   7.177 -1.0065  0.0041  1.5019
14677SOL     OW47528   3.628   6.958   7.856  0.1205  0.5282 -0.1219
14677SOL    HW147529   3.610   6.978   7.948  0.7085 -1.7261  0.5348
14677SOL    HW247530   3.561   6.894   7.832  1.2228 -0.4673 -0.6274
14678SOL     OW47531   9.595   2.888   3.508 -0.1204  0.3661  0.2200
14678SOL    HW147532   9.642   2.864   3.428 -1.7534 -0.9389 -0.3937
14678SOL    HW247533   9.562   2.805   3.542 -0.8628  1.1068  1.3582
14679SOL     OW47534   4.893   2.252   0.505 -0.0607 -0.3387  0.2572
14679SOL    HW147535   4.822   2.307   0.472  1.0697  1.4499  0.6437
14679SOL    HW247536   4.969   2.277   0.452  0.6023 -1.1860  0.7858
14680SOL     OW47537   9.601   4.994   7.541 -0.5099  0.6896  0.2777
14680SOL    HW147538   9.569   5.077   7.507 -1.7743  0.9741  2.0680
14680SOL    HW247539   9.526   4.954   7.584  0.2007 -1.1691 -0.1039
14681SOL     OW47540   1.676  10.620   3.631 -0.0669 -0.3259 -0.0970
14681SOL    HW147541   1.650  10.541   3.584 -2.6741  0.6517 -0.4618
14681SOL    HW247542   1.722  10.588   3.708  0.2640 -2.1190 -0.9895
14682SOL     OW47543  10.740  10.797   0.455  0.2649  0.1568  0.4294
14682SOL    HW147544  10.805  10.726   0.460  0.3215  0.2056  0.3952
14682SOL    HW247545  10.684  10.773   0.381 -0.0627 -0.1445  0.7729
14683SOL     OW47546   1.219   9.448   5.850  0.0649 -0.0665  0.5823
14683SOL    HW147547   1.167   9.511   5.898 -1.1294 -0.2646 -0.3877
14683SOL    HW247548   1.166   9.368   5.851  0.7846 -0.5548  0.3732
14684SOL     OW47549   2.487   5.072   6.650  0.1035  0.1165 -0.3424
14684SOL    HW147550   2.576   5.083   6.681 -0.5871  1.3325  1.3914
14684SOL    HW247551   2.432   5.101   6.723 -1.6890  0.7046 -1.8284
14685SOL     OW47552   3.599   9.295   8.294  0.3910  0.2200  0.5555
14685SOL    HW147553   3.665   9.228   8.275  1.0385  0.8110  0.6901
14685SOL    HW247554   3.557   9.267   8.375 -1.1417 -1.3773 -0.7005
14686SOL     OW47555   6.804  10.854   0.640  0.5726 -0.2697  0.1284
14686SOL    HW147556   6.813  10.762   0.667  1.4536 -0.2976 -0.2044
14686SOL    HW247557   6.724  10.884   0.683  0.4991 -1.0733  0.5827
14687SOL     OW47558   3.985   6.271   7.258  0.1929 -0.3866 -0.2909
14687SOL    HW147559   3.940   6.224   7.188 -0.3398 -0.0472 -0.1803
14687SOL    HW247560   4.018   6.202   7.315  2.7086 -0.8083 -2.0732
14688SOL     OW47561   6.667  10.159   7.540  0.3152 -0.4078 -0.4187
14688SOL    HW147562   6.693  10.227   7.603 -1.8363  0.8180 -0.7433
14688SOL    HW247563   6.738  10.095   7.543  1.9410  1.3350  0.6828
14689SOL     OW47564   3.766   5.745   4.726  0.3689 -0.3831  0.3517
14689SOL    HW147565   3.840   5.770   4.781  2.0394 -0.6804 -1.6261
14689SOL    HW247566   3.765   5.650   4.729  0.3826 -0.3966  0.0017
14690SOL     OW47567   8.040   9.173   5.150 -0.1808 -0.3222  0.5972
14690SOL    HW147568   8.130   9.202   5.167 -1.0627  2.0713  1.7577
14690SOL    HW247569   7.990   9.255   5.149 -2.6748 -1.7178  2.2030
14691SOL     OW47570   4.814   3.793   7.216  0.9024  0.1836  0.1038
14691SOL    HW147571   4.731   3.837   7.198  1.0604  0.6040  0.3926
14691SOL    HW247572   4.844   3.763   7.131  1.1921  1.3423 -0.2175
14692SOL     OW47573   6.223   5.860   4.457  0.3355 -0.4795 -0.6888
14692SOL    HW147574   6.302   5.865   4.510  0.5559 -2.1191 -0.8187
14692SOL    HW247575   6.165   5.927   4.493  1.3222 -0.0718  0.1790
14693SOL     OW47576  10.948   0.026  10.840 -0.1844  0.6075  0.1250
14693SOL    HW147577  10.876   0.022  10.778 -0.9393  0.1727  0.9968
14693SOL    HW247578  10.909   0.062  10.920  0.5909  0.4844  0.5781
14694SOL     OW47579   4.755   2.093   9.201  0.0510  0.3844 -0.3086
14694SOL    HW147580   4.669   2.127   9.227 -0.0226  0.6250 -0.8542
14694SOL    HW247581   4.807   2.171   9.184  0.5461  0.2513  0.5132
14695SOL     OW47582   2.482   7.342   9.326  0.1980 -0.0662 -0.1268
14695SOL    HW147583   2.536   7.298   9.393 -0.6249 -0.4281  0.3195
14695SOL    HW247584   2.542   7.356   9.253  1.2555  0.7707  0.8595
14696SOL     OW47585   7.719   0.452   2.750  0.0928 -0.6620 -0.4075
14696SOL    HW147586   7.651   0.502   2.705  0.7880  0.3002 -0.4064
14696SOL    HW247587   7.691   0.361   2.741 -1.5075 -0.2612  0.0924
14697SOL     OW47588   9.583   4.933   9.645  0.2753 -0.6149  0.4639
14697SOL    HW147589   9.594   4.988   9.722  0.5283 -0.9988  0.7078
14697SOL    HW247590   9.511   4.874   9.667 -1.3881  0.9244 -0.5708
14698SOL     OW47591   1.376   7.878   8.007 -0.2248  0.6792  0.1139
14698SOL    HW147592   1.294   7.836   8.032  0.6474 -1.0141  0.3303
14698SOL    HW247593   1.391   7.851   7.916  1.3748 -1.3700  0.8869
14699SOL     OW47594   8.730   0.329   5.150 -0.5805  0.4485 -0.0411
14699SOL    HW147595   8.707   0.342   5.058 -1.3079 -0.4712 -0.0083
14699SOL    HW247596   8.821   0.299   5.148  0.1880  2.6432 -0.2833
14700SOL     OW47597   5.183   6.374   5.521  0.2647  0.0579 -0.4730
14700SOL    HW147598   5.229   6.442   5.472  2.7937 -0.8851  0.4067
14700SOL    HW247599   5.199   6.293   5.471  0.3078 -0.4254  0.2990
14701SOL     OW47600   7.541   8.564   8.085 -0.5049 -0.0502  0.2321
14701SOL    HW147601   7.583   8.500   8.143 -1.4604  0.6794  1.7983
14701SOL    HW247602   7.572   8.541   7.997  1.0309 -1.1793  1.0177
14702SOL     OW47603   5.618   5.278   4.411 -0.2199 -0.1373 -0.0898
14702SOL    HW147604   5.589   5.284   4.320 -1.0631 -3.5098 -0.1766
14702SOL    HW247605   5.552   5.326   4.461 -1.3297 -0.6323 -1.0375
14703SOL     OW47606   8.584   2.617  10.286 -0.6438  0.1908 -0.1002
14703SOL    HW147607   8.571   2.634  10.379 -0.5194 -0.8097  0.1075
14703SOL    HW247608   8.615   2.701  10.251 -1.6136  0.8551  0.5648
14704SOL     OW47609   8.158   9.225  10.089 -0.1998 -0.2106 -0.2460
14704SOL    HW147610   8.199   9.300  10.131 -0.3799  0.1511 -0.6991
14704SOL    HW247611   8.190   9.149  10.137  2.6665 -0.1489 -1.8187
14705SOL     OW47612   3.870  10.037   7.774 -0.4776  0.2748 -0.0169
14705SOL    HW147613   3.819  10.003   7.848 -3.0249  0.3540 -1.6090
14705SOL    HW247614   3.907   9.959   7.732 -2.2367 -0.1754 -0.8215
14706SOL     OW47615   5.536  10.839   7.991 -0.4392  0.1244  0.2498
14706SOL    HW147616   5.491  10.757   8.013 -0.1676  0.0346  0.4832
14706SOL    HW247617   5.603  10.848   8.059 -0.5344  0.5941  0.2847
14707SOL     OW47618   2.803   5.563  10.550 -0.2069  0.4469 -0.0332
14707SOL    HW147619   2.757   5.487  10.515  0.2951  0.0584  0.1338
14707SOL    HW247620   2.769   5.637  10.500  1.7415 -0.2660 -2.6391
14708SOL     OW47621   0.825  10.895   2.260 -0.8259  0.6006  1.0627
14708SOL    HW147622   0.882  10.852   2.196  0.2320 -0.3097  2.5637
14708SOL    HW247623   0.747  10.920   2.210  0.7258  1.6040 -0.9998
14709SOL     OW47624   1.677  10.478  10.943 -0.0244  0.6544  0.5766
14709SOL    HW147625   1.600  10.481  10.999  0.7195  1.0365  1.6154
14709SOL    HW247626   1.643  10.484  10.854 -1.1968  0.5563  1.0070
14710SOL     OW47627  10.582   6.968   1.195 -0.1812  0.4858 -0.0717
14710SOL    HW147628  10.497   6.939   1.161 -0.4898  1.1146  0.1440
14710SOL    HW247629  10.604   7.044   1.142  1.0961 -0.6945 -1.2950
14711SOL     OW47630   2.457   3.502   1.994  0.0657 -0.1944 -0.2592
14711SOL    HW147631   2.440   3.592   1.965  1.5615 -0.1455 -1.0942
14711SOL    HW247632   2.378   3.454   1.970 -0.6945  0.8554  0.0530
14712SOL     OW47633   9.822   9.239   3.661 -0.7340  0.0689  0.5500
14712SOL    HW147634   9.856   9.151   3.679 -2.3815 -0.7942 -0.2333
14712SOL    HW247635   9.727   9.231   3.677 -1.0035  1.5436 -0.1579
14713SOL     OW47636   0.442   8.795   8.054  0.5257  0.3771 -0.1325
14713SOL    HW147637   0.431   8.788   7.960 -1.1332  0.1577  0.0490
14713SOL    HW247638   0.438   8.704   8.086 -0.7052  0.5671  0.3003
14714SOL     OW47639  10.490   2.395   9.776  0.4413  0.7216 -0.2417
14714SOL    HW147640  10.398   2.373   9.762 -0.1229  2.2479  0.7834
14714SOL    HW247641  10.535   2.365   9.697 -1.3526  2.3085 -1.9731
14715SOL     OW47642   8.768   5.217   1.662 -0.2473 -0.2191 -0.0369
14715SOL    HW147643   8.772   5.277   1.736 -1.8393 -0.5814  0.3725
14715SOL    HW247644   8.679   5.182   1.663  0.0481 -1.1240 -1.4255
14716SOL     OW47645  11.000   1.195   7.503  0.1633  0.1736 -0.3981
14716SOL    HW147646  11.051   1.258   7.453 -3.0621  3.4494  0.0625
14716SOL    HW247647  10.954   1.144   7.436  0.7823  0.0667 -0.7544
14717SOL     OW47648   9.089   1.712   8.513 -0.2671  0.2410  0.2058
14717SOL    HW147649   9.067   1.801   8.487  1.2776  1.0028  1.3192
14717SOL    HW247650   9.091   1.715   8.609 -1.1977 -1.2697  0.3057
14718SOL     OW47651   2.549  10.068   3.251 -0.1385  0.3062  0.4969
14718SOL    HW147652   2.517  10.144   3.203 -1.5390  0.0456  0.9774
14718SOL    HW247653   2.519  10.082   3.341  0.6153 -0.2408  0.8461
14719SOL     OW47654   1.667   6.025   5.077  0.3423  0.7556  0.1382
14719SOL    HW147655   1.757   6.057   5.080  0.0744  1.4442  1.7256
14719SOL    HW247656   1.620   6.092   5.026  0.7689  0.1851 -1.0586
14720SOL     OW47657  10.225   1.260  10.273 -0.2880  0.0062 -0.4295
14720SOL    HW147658  10.182   1.300  10.198  1.0913  0.1187 -1.1772
14720SOL    HW247659  10.236   1.168  10.249 -0.2750 -0.0664 -0.1597
14721SOL     OW47660   6.355  10.349   2.465 -0.4164 -0.6184 -0.1431
14721SOL    HW147661   6.408  10.419   2.427 -1.5372  0.9272  1.0025
14721SOL    HW247662   6.406  10.269   2.450 -0.2233  0.0092 -3.7328
14722SOL     OW47663   9.551   2.663   8.802 -0.0549  0.2440  0.1675
14722SOL    HW147664   9.550   2.658   8.707  1.7355  1.1898  0.0551
14722SOL    HW247665   9.588   2.749   8.822 -3.2255  1.3888  1.7743
14723SOL     OW47666   7.243   7.136   4.532 -0.6097 -0.2039  1.0140
14723SOL    HW147667   7.246   7.192   4.609  2.2048  0.5472  0.4722
14723SOL    HW247668   7.325   7.086   4.535 -1.0250 -1.0884 -0.8150
14724SOL     OW47669   2.475   6.839   1.860  0.0154  0.1374  0.0510
14724SOL    HW147670   2.457   6.770   1.924 -1.0208 -0.7139 -1.1219
14724SOL    HW247671   2.398   6.841   1.804  0.3720  1.7151 -0.4382
14725SOL     OW47672   9.739   7.528   6.993 -0.2381 -0.5502 -0.1326
14725SOL    HW147673   9.671   7.595   6.998  0.5623  0.4762 -1.8563
14725SOL    HW247674   9.808   7.558   7.052 -0.7365 -0.9430  0.6602
14726SOL     OW47675   5.364   2.855   3.988 -0.1961  0.7433  0.4869
14726SOL    HW147676   5.311   2.847   3.909 -0.1485  1.1015  0.4208
14726SOL    HW247677   5.416   2.774   3.990  1.0594  1.4779 -0.7487
14727SOL     OW47678   8.768   8.388   3.597  0.0920  0.6498  0.3311
14727SOL    HW147679   8.712   8.313   3.577 -0.1023  0.3369  1.9067
14727SOL    HW247680   8.727   8.429   3.674  1.0844  1.4290  0.4649
14728SOL     OW47681   0.941   1.185   7.222  0.0218 -0.2749  0.4718
14728SOL    HW147682   1.011   1.158   7.163  0.8829  1.1513  0.8123
14728SOL    HW247683   0.905   1.103   7.256  0.8579 -1.0463 -0.4649
14729SOL     OW47684  10.773   6.003   7.869  0.5252  0.3255  0.5639
14729SOL    HW147685  10.721   5.923   7.870  1.6463 -0.4362  0.7554
14729SOL    HW247686  10.815   6.005   7.956  0.9962  0.7769  0.3321
14730SOL     OW47687   2.724  10.908   3.703 -0.1796  0.0723 -0.7490
14730SOL    HW147688   2.732  10.847   3.630 -3.6934 -0.5652 -0.7976
14730SOL    HW247689   2.668  10.978   3.670  0.0180  0.9511  0.6851
14731SOL     OW47690   5.063   9.872  10.088 -0.1041  0.2610  0.9501
14731SOL    HW147691   5.028   9.943  10.033  1.2069  1.4915  1.6386
14731SOL    HW247692   5.082   9.801  10.026 -1.5190  0.4529  0.2517
14732SOL     OW47693   5.506   8.907   3.361 -0.4427 -0.4300  0.0508
14732SOL    HW147694   5.545   8.857   3.289 -0.4182 -1.0947  0.5156
14732SOL    HW247695   5.428   8.948   3.323 -0.3546 -0.6634 -0.3878
14733SOL     OW47696   9.500   8.236   7.489 -0.1426  0.3111 -0.0979
14733SOL    HW147697   9.487   8.152   7.444  0.0288 -0.8074  1.8673
14733SOL    HW247698   9.432   8.293   7.452  0.4442 -0.3117 -2.2749
14734SOL     OW47699   6.883  10.522   2.126 -0.0528  0.3309 -0.0219
14734SOL    HW147700   6.846  10.450   2.075 -1.5742  0.2824  1.0713
14734SOL    HW247701   6.849  10.508   2.215  0.6737  1.6861  0.5005
14735SOL     OW47702   9.599   1.270   1.547 -0.1688  0.0610  0.3231
14735SOL    HW147703   9.562   1.269   1.635 -0.1491 -0.0595  0.3299
14735SOL    HW247704   9.684   1.228   1.556  0.3740  1.1502  0.4841
14736SOL     OW47705   4.871  10.347   2.911  0.2060 -0.3904 -0.0231
14736SOL    HW147706   4.856  10.348   3.005 -0.6380 -0.8589 -0.1478
14736SOL    HW247707   4.823  10.424   2.878  0.9406  0.0844 -0.0167
14737SOL     OW47708  10.548   8.880   1.488 -0.0614  0.1643 -0.4325
14737SOL    HW147709  10.590   8.798   1.515  1.6126  1.5103  1.2960
14737SOL    HW247710  10.472   8.888   1.546 -0.8488 -0.5968 -1.2983
14738SOL     OW47711   8.039  10.264  10.654  0.0518 -0.4994  0.0729
14738SOL    HW147712   8.067  10.181  10.615  0.9544 -0.5385  0.7850
14738SOL    HW247713   8.000  10.239  10.738 -1.3850 -0.3586 -0.5196
14739SOL     OW47714  10.809   1.246   7.125  0.2711 -0.0579  0.0324
14739SOL    HW147715  10.808   1.196   7.044 -1.9991  0.2751 -0.2270
14739SOL    HW247716  10.765   1.328   7.103 -2.4280 -0.8092  1.9811
14740SOL     OW47717   8.189   9.330   8.260 -0.1748 -0.3241  0.4283
14740SOL    HW147718   8.259   9.388   8.288  1.2189 -1.1624 -1.0899
14740SOL    HW247719   8.163   9.363   8.174  1.8825 -2.8093 -1.3124
14741SOL     OW47720   1.058   0.017   6.179  0.4599 -0.8823 -0.0831
14741SOL    HW147721   1.087  -0.074   6.188  1.2098 -0.5919  0.5002
14741SOL    HW247722   1.109   0.051   6.105 -1.6678 -1.6485 -2.0033
14742SOL     OW47723   1.312   9.229   6.117  0.2297 -0.3657 -0.3569
14742SOL    HW147724   1.302   9.138   6.143  0.4711 -0.1115  0.6995
14742SOL    HW247725   1.266   9.236   6.034 -1.1907 -1.0875  0.3399
14743SOL     OW47726   4.862   7.359  10.956  1.1294 -0.1825  0.1620
14743SOL    HW147727   4.947   7.397  10.979  1.2239 -1.1913  1.5900
14743SOL    HW247728   4.879   7.265  10.947  0.6254 -0.1250 -1.9710
14744SOL     OW47729   0.391   9.318   2.769 -0.4846 -0.1263 -0.4047
14744SOL    HW147730   0.311   9.349   2.727 -1.5031 -1.3131  0.5673
14744SOL    HW247731   0.360   9.263   2.841  1.1965 -1.4938 -0.6630
14745SOL     OW47732   4.958  10.676  10.440  0.9201  0.1069 -0.2386
14745SOL    HW147733   4.870  10.708  10.420  1.9881  2.6069 -1.3782
14745SOL    HW247734   4.969  10.697  10.533 -0.0334 -1.2216  0.2052
14746SOL     OW47735   8.694   5.749   0.013 -0.1043  0.0480 -0.3526
14746SOL    HW147736   8.601   5.771   0.021 -0.6003 -1.7394 -0.8393
14746SOL    HW247737   8.705   5.728  -0.080  1.0164  1.1013 -0.4847
14747SOL     OW47738   0.423   3.792   2.473 -0.3532 -0.0773  0.4348
14747SOL    HW147739   0.356   3.860   2.464  0.8125  1.1279  0.5782
14747SOL    HW247740   0.506   3.840   2.474  0.5108 -1.5188  0.4511
14748SOL     OW47741   1.226   9.768  10.658 -0.3591 -0.4773 -0.7709
14748SOL    HW147742   1.163   9.833  10.689 -2.4354 -2.0775 -1.3649
14748SOL    HW247743   1.177   9.715  10.595  2.1622 -0.6463 -2.7742
14749SOL     OW47744   3.390   4.970  10.217  0.2070 -0.3758 -0.1650
14749SOL    HW147745   3.400   4.887  10.264 -1.6400  0.1884  1.3697
14749SOL    HW247746   3.325   4.950  10.149 -1.8957  0.1998  1.5411
14750SOL     OW47747   4.459   5.140   7.998 -0.2797  0.0537 -0.3902
14750SOL    HW147748   4.525   5.191   8.045 -1.7834  2.0270 -0.2713
14750SOL    HW247749   4.408   5.099   8.068 -1.1572  1.2114 -0.3107
14751SOL     OW47750   1.993   4.442   8.518 -0.0539  0.1007 -0.0022
14751SOL    HW147751   2.052   4.432   8.592 -0.2982 -0.7587  0.0893
14751SOL    HW247752   2.028   4.383   8.451 -1.4462 -1.3229  0.4727
14752SOL     OW47753   2.228   6.838   3.479  0.0411 -0.4077 -0.3438
14752SOL    HW147754   2.241   6.910   3.417  0.1255 -0.2931 -0.1926
14752SOL    HW247755   2.154   6.788   3.442 -0.7612  0.3937  0.1321
14753SOL     OW47756   9.475   3.325   6.671  0.4434  0.1502  1.2996
14753SOL    HW147757   9.402   3.355   6.726  0.3429  1.0568  0.6901
14753SOL    HW247758   9.436   3.257   6.616 -0.2475  1.3435  0.2446
14754SOL     OW47759   9.043  10.212   8.605 -0.2861 -0.4403  0.5723
14754SOL    HW147760   8.984  10.188   8.677  0.5333  0.2894  1.5161
14754SOL    HW247761   9.090  10.131   8.584 -1.0376 -0.8299  0.3638
14755SOL     OW47762   8.055   4.978   0.442  0.0064  0.7135  0.5503
14755SOL    HW147763   7.976   5.017   0.404  1.4170  2.5565 -0.6703
14755SOL    HW247764   8.022   4.906   0.496 -2.4429  0.9814 -0.4353
14756SOL     OW47765   5.720   6.564   3.186 -0.1193  0.5105  0.3092
14756SOL    HW147766   5.796   6.552   3.243 -0.0820 -0.9885 -0.0059
14756SOL    HW247767   5.646   6.530   3.237  0.1874 -2.6586 -1.1295
14757SOL     OW47768   0.564   8.472   6.887 -0.6455 -0.2585 -0.3345
14757SOL    HW147769   0.528   8.385   6.869  0.2785 -0.7489  0.1150
14757SOL    HW247770   0.659   8.460   6.885 -0.4974  0.4728  0.9148
14758SOL     OW47771   8.295   5.033   8.908  0.1281  0.5660 -0.5219
14758SOL    HW147772   8.353   5.110   8.913 -1.4542  1.7320  1.5776
14758SOL    HW247773   8.328   4.974   8.976 -0.1406  0.4932 -0.4535
14759SOL     OW47774   8.606   1.016   6.623  0.0482 -0.5783 -0.2401
14759SOL    HW147775   8.676   0.978   6.675  0.4393 -1.3470 -1.2945
14759SOL    HW247776   8.633   1.002   6.532 -1.7240 -1.4332 -0.6835
14760SOL     OW47777   6.427   9.235   7.720 -0.2415  0.1182  0.8385
14760SOL    HW147778   6.452   9.178   7.793 -1.5094 -0.3039  0.9666
14760SOL    HW247779   6.490   9.307   7.724  1.7092 -1.4608  0.3759
14761SOL     OW47780   5.602   8.762   3.118  0.5132 -0.2089  0.7043
14761SOL    HW147781   5.584   8.669   3.107 -1.4867  0.0878  1.0167
14761SOL    HW247782   5.693   8.766   3.147 -0.0898 -2.2415  3.2395
14762SOL     OW47783  10.579   8.603  10.751 -0.6899  0.1611  1.0009
14762SOL    HW147784  10.649   8.539  10.767  1.3694  2.2879  1.1024
14762SOL    HW247785  10.569   8.648  10.834 -2.2000 -0.0777  0.9629
14763SOL     OW47786   7.741   5.230   8.384  0.1363  0.2822  0.2227
14763SOL    HW147787   7.793   5.153   8.363  1.7437  1.1926  0.7037
14763SOL    HW247788   7.713   5.215   8.474 -1.9209 -0.9723 -0.5544
14764SOL     OW47789   9.923   4.280   9.374 -0.1047  0.0553  0.5650
14764SOL    HW147790   9.942   4.249   9.286  0.8384  0.0624  0.7650
14764SOL    HW247791   9.830   4.303   9.371 -0.0986 -0.0063 -0.4073
14765SOL     OW47792   2.590   2.212   5.482 -0.6492  0.8713  0.5398
14765SOL    HW147793   2.666   2.205   5.425 -0.8908  0.3803  0.2746
14765SOL    HW247794   2.519   2.240   5.424 -1.1183 -0.5481  0.4014
14766SOL     OW47795   4.010   3.249   0.552 -0.3218  0.2088  0.0392
14766SOL    HW147796   3.924   3.208   0.548  0.5774 -1.6791 -1.9958
14766SOL    HW247797   3.998   3.325   0.609 -3.1392 -0.3915  0.3732
14767SOL     OW47798   9.575   3.579   8.122  0.1876  0.2050 -0.3096
14767SOL    HW147799   9.529   3.526   8.057  1.0128 -1.3398  0.2942
14767SOL    HW247800   9.510   3.597   8.190 -0.2686  0.4912 -0.8264
14768SOL     OW47801   0.725   3.808   7.731 -0.1024 -0.2145 -0.0096
14768SOL    HW147802   0.764   3.892   7.753  0.8855 -0.3681 -1.0559
14768SOL    HW247803   0.798   3.755   7.699 -0.5906 -1.7063  1.2196
14769SOL     OW47804   4.512   6.538   7.474  0.7430 -0.1885 -0.2415
14769SOL    HW147805   4.525   6.610   7.536  0.1738 -0.6468  0.4329
14769SOL    HW247806   4.564   6.466   7.510  2.0521  0.1497 -1.4093
14770SOL     OW47807   6.659  10.670   6.899  0.7020 -0.0941  0.0707
14770SOL    HW147808   6.743  10.686   6.855  0.3136  0.8127 -0.3740
14770SOL    HW247809   6.665  10.580   6.931  1.3837 -0.4398 -0.9903
14771SOL     OW47810  10.318   2.420  10.470  0.2267  0.5790 -0.3499
14771SOL    HW147811  10.409   2.446  10.487  0.1417  2.0105 -1.8036
14771SOL    HW247812  10.268   2.459  10.542  0.5905  1.0927 -0.3704
14772SOL     OW47813   4.615   5.660   6.218  0.1734  0.0690 -0.3443
14772SOL    HW147814   4.575   5.618   6.143 -0.4688 -0.0234  0.0397
14772SOL    HW247815   4.604   5.597   6.290  1.6481 -0.2694 -0.3816
14773SOL     OW47816   0.324   7.792   4.205 -0.5205  0.5179  0.0816
14773SOL    HW147817   0.326   7.698   4.186 -0.7595  0.8997 -2.1503
14773SOL    HW247818   0.284   7.831   4.127  0.2638  2.5506  0.6352
14774SOL     OW47819   2.373   5.856   4.913 -0.0503  0.1347  0.1296
14774SOL    HW147820   2.405   5.875   4.825  0.5530 -1.9004 -0.1352
14774SOL    HW247821   2.406   5.928   4.967  0.2547  0.9807 -1.1475
14775SOL     OW47822   5.461   6.060   3.156  0.3527 -0.1377  0.3206
14775SOL    HW147823   5.429   6.115   3.084 -0.9884  0.9170  1.6380
14775SOL    HW247824   5.530   6.007   3.118 -0.2936  0.4181 -1.7234
14776SOL     OW47825  10.982   5.668   2.042 -0.0551 -0.6447 -0.4423
14776SOL    HW147826  11.069   5.708   2.047 -0.7362  0.8774 -0.4118
14776SOL    HW247827  10.988   5.591   2.100  0.9942 -0.0388  0.2867
14777SOL     OW47828   2.401   9.852   4.141  0.4388 -0.3525  0.5103
14777SOL    HW147829   2.390   9.823   4.231  0.6619 -0.0915  0.6213
14777SOL    HW247830   2.436   9.775   4.095  1.0940 -0.2494  0.8186
14778SOL     OW47831   6.019   9.053   2.475 -0.4549  0.1185 -0.6355
14778SOL    HW147832   6.022   9.085   2.385  0.0411 -3.2605 -1.9752
14778SOL    HW247833   6.111   9.048   2.502 -0.5696  0.4921 -0.1457
14779SOL     OW47834   8.264   7.534   2.485  0.0051  0.8711 -0.4495
14779SOL    HW147835   8.202   7.464   2.463  0.9863  0.2655 -1.3709
14779SOL    HW247836   8.274   7.528   2.580 -0.9306  0.6427 -0.3474
14780SOL     OW47837   6.641   7.779   2.450 -0.1041  0.6594  0.2966
14780SOL    HW147838   6.649   7.685   2.463  0.6963  0.7648  0.6666
14780SOL    HW247839   6.603   7.812   2.532  1.5296  0.8810  1.0274
14781SOL     OW47840   2.946  10.815   3.838 -0.2637  0.0808  0.1884
14781SOL    HW147841   2.897  10.734   3.827  0.0978 -0.6463  3.2374
14781SOL    HW247842   2.897  10.880   3.788 -0.7437 -1.8835 -2.0620
14782SOL     OW47843   8.507   1.318   8.100 -0.5104 -0.1828 -0.2118
14782SOL    HW147844   8.581   1.348   8.047 -1.0356 -0.7498 -1.2979
14782SOL    HW247845   8.468   1.398   8.134  0.3442  0.1426  0.0257
14783SOL     OW47846   7.393   8.729   0.651  0.4025 -0.6899 -0.2151
14783SOL    HW147847   7.472   8.695   0.693  0.7499 -1.9308 -1.7847
14783SOL    HW247848   7.342   8.765   0.723  3.3287  2.2734  0.6800
14784SOL     OW47849   9.215   6.973   2.153  0.2621 -0.5269  0.9549
14784SOL    HW147850   9.177   6.894   2.191  1.1297 -0.1916  2.6505
14784SOL    HW247851   9.247   7.022   2.229  0.5184  1.0426 -0.1227
14785SOL     OW47852   3.020  10.162   5.633  0.0992 -0.7482 -0.1509
14785SOL    HW147853   2.980  10.128   5.712  1.2916 -0.1442  0.7501
14785SOL    HW247854   2.956  10.224   5.598  0.1586  0.1020  1.1803
14786SOL     OW47855   3.971   3.630   0.061  0.2215 -0.1719  0.0533
14786SOL    HW147856   3.969   3.645   0.156 -0.0187 -2.1258  0.3987
14786SOL    HW247857   4.034   3.559   0.050  0.4423  0.2200 -1.2908
14787SOL     OW47858   9.785   0.180   6.786 -0.0562  0.1963  0.1146
14787SOL    HW147859   9.722   0.166   6.857  1.3257 -0.8699  1.1900
14787SOL    HW247860   9.731   0.208   6.712 -1.8569 -1.0472  0.8631
14788SOL     OW47861   4.995   9.681   2.117 -0.4992 -0.3097  0.3282
14788SOL    HW147862   5.005   9.772   2.147  0.3096  0.0592 -0.9620
14788SOL    HW247863   4.912   9.680   2.069 -0.3159 -0.1436  0.0027
14789SOL     OW47864   4.278   9.153   9.720  0.4502 -0.0941 -0.1369
14789SOL    HW147865   4.242   9.241   9.710 -0.1330 -0.4694 -1.5741
14789SOL    HW247866   4.332   9.140   9.642  0.5648 -1.0042  0.0829
14790SOL     OW47867   2.253   3.847   0.281  0.2406  0.1173 -0.6029
14790SOL    HW147868   2.276   3.801   0.362  0.9724 -0.1299 -0.9410
14790SOL    HW247869   2.228   3.935   0.310 -2.1048 -0.7429  0.1400
14791SOL     OW47870   2.790   3.132   9.233  0.8177  0.5470  0.2314
14791SOL    HW147871   2.756   3.098   9.316  0.5614 -2.1935 -0.8854
14791SOL    HW247872   2.885   3.122   9.241  0.7770  0.0299  0.1159
14792SOL     OW47873   3.526   1.047   0.264 -0.5529 -0.6196 -0.1792
14792SOL    HW147874   3.445   1.091   0.291  0.5515  0.9090  0.8331
14792SOL    HW247875   3.535   0.975   0.326 -1.1611 -0.8326 -0.3330
14793SOL     OW47876   4.728   3.890   9.380  0.1307  0.2412  0.0259
14793SOL    HW147877   4.668   3.882   9.455 -0.0203  0.6015 -0.0543
14793SOL    HW247878   4.675   3.931   9.311 -0.2738 -1.6988 -0.8954
14794SOL     OW47879   2.454   9.601   5.393 -0.5349 -0.2267  0.1632
14794SOL    HW147880   2.475   9.634   5.306  1.7158 -0.7466  0.4479
14794SOL    HW247881   2.523   9.636   5.450  0.2206 -2.8893  1.0249
14795SOL     OW47882   9.469   3.887   1.786  0.3418 -1.0306  0.0887
14795SOL    HW147883   9.526   3.962   1.774 -1.0664  0.4779  2.0821
14795SOL    HW247884   9.383   3.925   1.805 -0.4731 -3.1389  0.9555
14796SOL     OW47885   6.182   5.058   4.817  0.1319 -0.7295  0.3340
14796SOL    HW147886   6.189   5.147   4.852 -0.5419 -0.5981  0.1464
14796SOL    HW247887   6.111   5.018   4.867 -1.5205 -0.2289 -1.4957
14797SOL     OW47888   3.287   7.025   7.857  0.5695  0.6305 -0.3089
14797SOL    HW147889   3.222   7.086   7.890 -1.4525 -0.2811 -2.3744
14797SOL    HW247890   3.294   6.958   7.925 -2.5388 -0.5292 -0.9568
14798SOL     OW47891   6.159   5.318   6.881 -0.3953 -0.6520 -0.3452
14798SOL    HW147892   6.225   5.381   6.911 -1.5503  0.0269  0.9168
14798SOL    HW247893   6.174   5.310   6.787 -0.7972  2.2942 -0.7826
14799SOL     OW47894   8.152   4.981   2.414  0.3146  0.9101  0.0795
14799SOL    HW147895   8.059   4.963   2.422  0.4976 -0.8101 -1.1671
14799SOL    HW247896   8.176   4.947   2.328  2.1216  1.1796  0.4315
14800SOL     OW47897   1.332   7.466  10.616 -1.0086 -0.1177 -0.0488
14800SOL    HW147898   1.275   7.448  10.690 -0.1236 -2.5270  0.1413
14800SOL    HW247899   1.385   7.540  10.645 -1.5283 -0.2127  1.2355
14801SOL     OW47900   2.461   0.935   1.512 -0.9755  0.1786 -0.1474
14801SOL    HW147901   2.484   0.877   1.584 -1.4431 -0.6733 -0.6667
14801SOL    HW247902   2.373   0.906   1.485 -1.1285  0.9946 -0.5443
14802SOL     OW47903   0.403   2.062  10.383 -0.4856 -0.2682  0.0163
14802SOL    HW147904   0.405   1.982  10.331  0.6933 -0.2411 -0.0167
14802SOL    HW247905   0.310   2.079  10.399 -0.7760 -1.2426 -0.5816
14803SOL     OW47906   5.379   4.921   0.798 -0.1779 -0.1132  0.0782
14803SOL    HW147907   5.385   4.832   0.832 -0.7101 -0.2455 -0.1650
14803SOL    HW247908   5.328   4.912   0.717 -2.1755  0.7096  1.1828
14804SOL     OW47909   7.594   9.993   2.155  0.2768 -0.1523  0.3829
14804SOL    HW147910   7.638  10.012   2.238 -0.5621  0.3201  0.7402
14804SOL    HW247911   7.511   9.952   2.181 -0.3542  0.7304 -0.1668
14805SOL     OW47912   3.706   4.847   7.723  0.1635 -0.5829  0.3846
14805SOL    HW147913   3.701   4.768   7.669 -1.3254 -0.3788  0.1797
14805SOL    HW247914   3.620   4.853   7.764  1.0482 -0.3705  2.2991
14806SOL     OW47915   7.240   1.751  10.064 -0.5723  0.4690  0.7643
14806SOL    HW147916   7.323   1.705  10.081  0.1284  1.3082 -0.2345
14806SOL    HW247917   7.249   1.784   9.974 -1.7242  1.1494  0.8785
14807SOL     OW47918   2.680   6.631  10.074  0.1398 -0.1858 -0.8346
14807SOL    HW147919   2.757   6.600  10.026  2.8612  1.6514  1.9767
14807SOL    HW247920   2.675   6.575  10.151  0.4702  1.4219  0.4203
14808SOL     OW47921   7.522   7.033   8.212  0.1049 -0.2622  0.4051
14808SOL    HW147922   7.479   7.014   8.128  1.7786  1.7083 -1.0043
14808SOL    HW247923   7.575   6.956   8.230 -0.6219 -0.8980 -0.0932
14809SOL     OW47924   8.832   3.376   8.977  0.2044  0.0894  0.1150
14809SOL    HW147925   8.788   3.295   9.002  1.8549 -1.3249 -1.2557
14809SOL    HW247926   8.766   3.426   8.931 -0.3140 -1.4804 -0.9275
14810SOL     OW47927   2.556   2.413   4.164 -0.2733  0.2870  0.0498
14810SOL    HW147928   2.606   2.333   4.143 -0.7516 -0.1009  0.3613
14810SOL    HW247929   2.528   2.400   4.254 -1.4965  0.1986 -0.3288
14811SOL     OW47930   2.915   0.968   5.234  0.8714  0.1151 -0.1414
14811SOL    HW147931   2.954   1.037   5.180  1.2391  0.9583  1.1341
14811SOL    HW247932   2.989   0.925   5.276  0.5692  0.1037  0.4045
14812SOL     OW47933   3.741   7.112   1.323 -0.6694 -0.1075  0.0034
14812SOL    HW147934   3.772   7.135   1.235  1.2154 -2.0855  0.0779
14812SOL    HW247935   3.665   7.055   1.308  1.0732 -2.4436 -0.5117
14813SOL     OW47936   6.129   5.302   5.554  0.0239  0.0187 -0.3628
14813SOL    HW147937   6.083   5.257   5.625 -1.0775 -1.2557 -1.8372
14813SOL    HW247938   6.201   5.244   5.531  2.0008  1.6357  1.3913
14814SOL     OW47939   7.460  10.087   9.789 -0.0844 -0.1493  0.6180
14814SOL    HW147940   7.517  10.010   9.778 -3.4362 -2.7018 -0.7186
14814SOL    HW247941   7.413  10.070   9.871 -2.0613 -0.4985 -0.5247
14815SOL     OW47942   3.231   7.885   3.880  0.2781  0.7338  0.1886
14815SOL    HW147943   3.220   7.973   3.844 -0.1579  0.7080  0.2475
14815SOL    HW247944   3.157   7.875   3.940 -0.9147 -0.4400 -1.3779
14816SOL     OW47945   7.686   0.886   1.439  0.0275 -0.3925  0.1683
14816SOL    HW147946   7.724   0.960   1.486 -0.3310 -0.2364  0.2202
14816SOL    HW247947   7.758   0.849   1.388  0.5509 -0.8823  1.2290
14817SOL     OW47948   1.699   8.124   3.590 -0.6549 -0.3645 -0.4762
14817SOL    HW147949   1.676   8.032   3.601 -1.2905 -0.1092  0.4821
14817SOL    HW247950   1.654   8.169   3.661  0.8003  0.5078 -0.0408
14818SOL     OW47951   4.612   6.010   7.359 -0.4869 -0.5119 -0.0780
14818SOL    HW147952   4.554   5.960   7.416  2.3369 -1.3843  2.2768
14818SOL    HW247953   4.662   5.944   7.311 -1.0737  0.2200 -1.8034
14819SOL     OW47954   4.184   0.163   9.046 -0.3365 -0.3008 -0.1099
14819SOL    HW147955   4.222   0.117   9.120 -1.2684  1.1146  1.3161
14819SOL    HW247956   4.165   0.094   8.982  1.3285 -1.4361  0.5524
14820SOL     OW47957   4.999  10.705   3.033 -0.1410  0.0595 -0.0610
14820SOL    HW147958   4.979  10.744   2.948  1.6106 -0.0323 -0.5453
14820SOL    HW247959   4.917  10.710   3.082 -0.5714  2.2788 -0.9155
14821SOL     OW47960   0.183   1.186   2.464 -0.0946 -0.1785  0.0685
14821SOL    HW147961   0.237   1.189   2.385 -0.4192  1.1389 -0.1339
14821SOL    HW247962   0.093   1.179   2.431 -0.0989 -3.0782  0.4093
14822SOL     OW47963   3.976   5.993   5.648  0.5379  0.3961 -0.3035
14822SOL    HW147964   3.892   5.958   5.618  0.0936  1.5796 -0.5036
14822SOL    HW247965   4.042   5.937   5.608 -0.1340  0.0459 -0.9315
14823SOL     OW47966   4.391   2.573   3.652 -0.4104  0.0575 -0.1586
14823SOL    HW147967   4.327   2.503   3.640 -0.5416 -0.5075  2.8860
14823SOL    HW247968   4.364   2.641   3.590 -3.0835 -0.7477 -0.0302
14824SOL     OW47969   7.873   8.779   7.028  0.2536  0.4625 -0.5101
14824SOL    HW147970   7.900   8.701   6.980  0.6914  0.0938  0.3012
14824SOL    HW247971   7.781   8.791   7.006 -0.3484 -1.3630  0.7437
14825SOL     OW47972   0.343   1.488   5.501 -0.5842 -0.2392 -0.4746
14825SOL    HW147973   0.344   1.582   5.480 -1.3245 -0.6088 -2.3560
14825SOL    HW247974   0.430   1.472   5.538  0.3596  0.8217 -2.0613
14826SOL     OW47975   3.195   7.699   8.946  0.0494  0.1207  0.1122
14826SOL    HW147976   3.151   7.618   8.920  0.2498  0.2809 -0.7624
14826SOL    HW247977   3.254   7.719   8.873  0.6861  0.5571  0.7289
14827SOL     OW47978   6.360   8.472   1.213  0.0441 -0.7803  0.3730
14827SOL    HW147979   6.338   8.491   1.122  1.7681 -2.0236 -0.3518
14827SOL    HW247980   6.436   8.414   1.208  0.4773 -0.4964  2.6212
14828SOL     OW47981   8.789   4.700   2.481 -0.3263  0.2829  0.1479
14828SOL    HW147982   8.827   4.668   2.399  0.1536  1.7491 -0.2297
14828SOL    HW247983   8.852   4.763   2.514 -1.9101  1.9940  0.0567
14829SOL     OW47984   9.605  10.629   9.798 -1.1552  0.2529 -0.5045
14829SOL    HW147985   9.627  10.576   9.875  1.9122 -0.2176 -1.5770
14829SOL    HW247986   9.579  10.714   9.834  1.3747  0.4350  1.1049
14830SOL     OW47987   2.388   9.462   8.957  0.6394  0.5321 -0.1259
14830SOL    HW147988   2.449   9.495   8.891  0.9663 -0.8644 -0.5697
14830SOL    HW247989   2.322   9.414   8.906  0.8166 -0.4439  0.5360
14831SOL     OW47990  10.576   1.286   6.286  0.0345 -0.0709  0.2328
14831SOL    HW147991  10.535   1.370   6.305 -0.5028 -0.8433  2.8336
14831SOL    HW247992  10.638   1.305   6.215 -1.7151  1.9882 -0.8451
14832SOL     OW47993   3.862   5.848   9.106  0.8280 -0.2155  0.7174
14832SOL    HW147994   3.910   5.814   9.182 -2.2246 -0.2444  2.8727
14832SOL    HW247995   3.853   5.942   9.124  0.5763 -0.1178  0.0962
14833SOL     OW47996   5.961   6.678   2.221 -0.5830  0.5666  0.1907
14833SOL    HW147997   6.048   6.658   2.257  0.3523  1.5042 -1.4306
14833SOL    HW247998   5.937   6.600   2.171 -0.8794  0.1441  0.9741
14834SOL     OW47999   4.233   3.739   1.822 -0.0369 -0.1166 -0.4567
14834SOL    HW148000   4.240   3.805   1.891 -1.0560  0.5422 -0.9673
14834SOL    HW248001   4.217   3.789   1.743 -1.4632 -0.9996 -0.7570
14835SOL     OW48002   0.587   5.450   8.459  0.1003 -0.2313 -0.4959
14835SOL    HW148003   0.616   5.475   8.547 -1.1420  0.9424 -0.3735
14835SOL    HW248004   0.565   5.533   8.417  0.9144 -0.7522 -2.0287
14836SOL     OW48005   1.158   4.772   1.646  0.3759 -0.1240 -0.0895
14836SOL    HW148006   1.227   4.820   1.693  0.7259  0.9715 -1.6619
14836SOL    HW248007   1.077   4.815   1.673  0.4741 -0.1673  0.2892
14837SOL     OW48008   6.989   2.056   6.717  0.0626  0.2153 -0.3204
14837SOL    HW148009   7.024   1.974   6.682  0.0510  1.0751 -2.5659
14837SOL    HW248010   7.048   2.123   6.683 -1.3070  1.3178 -0.6269
14838SOL     OW48011   7.271   7.911  10.455 -0.0524 -0.2401  0.1216
14838SOL    HW148012   7.274   7.979  10.387 -0.9749 -0.2555  0.0407
14838SOL    HW248013   7.359   7.874  10.456  0.5697  1.1605  0.3854
14839SOL     OW48014   2.181   6.081   4.121 -0.1077 -0.3330  0.7476
14839SOL    HW148015   2.160   5.988   4.121 -2.3622  0.1311  0.8481
14839SOL    HW248016   2.277   6.084   4.126 -0.0225 -2.6203  1.4422
14840SOL     OW48017   1.682   7.906   2.462 -0.3752 -0.7464  0.6057
14840SOL    HW148018   1.603   7.856   2.483 -1.8683  2.0273  2.2232
14840SOL    HW248019   1.674   7.925   2.368 -0.7014 -1.9073  0.3768
14841SOL     OW48020  10.351   0.798   4.921  0.4359  0.3163 -0.1380
14841SOL    HW148021  10.266   0.843   4.919  0.9350  1.3112  0.2343
14841SOL    HW248022  10.389   0.823   5.006  0.3532 -1.5696  0.5132
14842SOL     OW48023   6.510   4.875   0.942  0.3151  0.1430  0.3783
14842SOL    HW148024   6.557   4.798   0.908 -2.0124 -1.6038  0.8548
14842SOL    HW248025   6.494   4.929   0.865 -0.1049 -1.0587 -0.4024
14843SOL     OW48026   6.094   8.860   7.560  0.4420 -0.2073 -0.0125
14843SOL    HW148027   6.021   8.805   7.587  0.7253 -0.6003 -0.0401
14843SOL    HW248028   6.079   8.876   7.467 -0.1725  0.5897  0.2122
14844SOL     OW48029   9.747   8.330   5.194  0.2403 -0.2093  0.2565
14844SOL    HW148030   9.784   8.310   5.280  0.3796  1.0226  0.4928
14844SOL    HW248031   9.682   8.397   5.211 -0.3986 -0.6248 -0.4895
14845SOL     OW48032   2.706   9.598   8.969 -0.3441 -0.2799 -0.1929
14845SOL    HW148033   2.785   9.619   9.018  0.7128 -1.7360 -1.1809
14845SOL    HW248034   2.677   9.514   9.005 -1.0774 -0.0784 -0.2833
14846SOL     OW48035   3.244   0.024   5.825  0.2421  0.4377 -0.2365
14846SOL    HW148036   3.156   0.057   5.809 -1.0466 -2.7253 -0.3796
14846SOL    HW248037   3.286   0.026   5.739 -1.1515 -1.6361 -1.0684
14847SOL     OW48038   0.263   7.749   3.570 -0.3287  0.1170  0.1227
14847SOL    HW148039   0.276   7.721   3.660 -0.3863 -0.4097 -0.0332
14847SOL    HW248040   0.227   7.673   3.525 -1.0408  0.6114 -0.1720
14848SOL     OW48041   0.284   1.263   3.072  0.0237 -0.2987  0.3496
14848SOL    HW148042   0.341   1.242   2.997  2.0063  1.9483  1.1102
14848SOL    HW248043   0.298   1.191   3.133  1.9721  0.1005  0.4357
14849SOL     OW48044   7.785   7.824   9.502  0.1234  0.1621  0.2762
14849SOL    HW148045   7.801   7.764   9.574 -1.1291 -0.1613  0.3231
14849SOL    HW248046   7.793   7.770   9.423 -1.1239 -0.1317  0.3242
14850SOL     OW48047   6.649  10.797   2.807  0.3064  0.6120 -0.1086
14850SOL    HW148048   6.705  10.721   2.821 -0.3643 -0.2974 -2.0121
14850SOL    HW248049   6.682  10.837   2.726 -1.2295  0.5391 -0.8080
14851SOL     OW48050   0.933  10.109   3.957  0.3597  0.0722 -0.1722
14851SOL    HW148051   0.999  10.040   3.945  0.3984  0.4904 -2.9188
14851SOL    HW248052   0.975  10.188   3.925 -0.6837  0.8131  0.2451
14852SOL     OW48053  10.400   3.097   1.634 -0.0525  0.3057 -0.5420
14852SOL    HW148054  10.438   3.019   1.594  2.4222  1.5829 -0.8327
14852SOL    HW248055  10.381   3.155   1.560 -4.8219 -1.0245 -0.6849
14853SOL     OW48056   9.342  10.555   7.442  0.0865  0.2374 -0.5764
14853SOL    HW148057   9.412  10.490   7.453  1.4936  1.9854  1.6083
14853SOL    HW248058   9.269  10.520   7.493 -0.5129 -1.2682 -2.3222
14854SOL     OW48059   2.505   9.472   5.725 -0.0961 -0.6819  0.1504
14854SOL    HW148060   2.419   9.506   5.752  0.1124  0.3703 -0.4604
14854SOL    HW248061   2.549   9.547   5.686  0.8845 -1.3624 -0.0779
14855SOL     OW48062   8.982   2.999   1.203 -0.0390 -0.7255 -0.1570
14855SOL    HW148063   8.890   3.021   1.191  0.1009 -0.6661 -1.1773
14855SOL    HW248064   9.028   3.083   1.203  0.0644 -0.7797 -0.0137
14856SOL     OW48065  10.350   8.600   1.017  0.3012  0.0795  0.0550
14856SOL    HW148066  10.312   8.516   0.995  0.4427  0.3897 -1.4794
14856SOL    HW248067  10.282   8.664   0.996 -0.6406  0.2940  3.2216
14857SOL     OW48068   1.854   6.614   8.006  0.0553 -0.2250 -0.1942
14857SOL    HW148069   1.875   6.580   8.093  2.6860  0.2693 -0.5482
14857SOL    HW248070   1.889   6.549   7.945 -1.1471 -0.2321 -0.9224
14858SOL     OW48071   2.724   9.485   4.627 -0.0531  0.1474 -0.0806
14858SOL    HW148072   2.649   9.500   4.685 -2.2561 -0.0809 -2.7138
14858SOL    HW248073   2.754   9.397   4.650 -1.3841 -0.2527  0.1922
14859SOL     OW48074   4.722  10.049   4.186 -0.4329 -0.1435 -0.0875
14859SOL    HW148075   4.675  10.078   4.108 -0.3785  0.7756  0.2085
14859SOL    HW248076   4.665  10.073   4.259  0.0566  0.1057  0.2182
14860SOL     OW48077   0.664   6.460   1.439  0.3809  0.6144 -0.1370
14860SOL    HW148078   0.581   6.492   1.404 -1.4800 -1.4154  2.0113
14860SOL    HW248079   0.651   6.458   1.534  2.4122 -0.9538  0.1915
14861SOL     OW48080   4.980   9.380   2.994 -0.2254  0.5558 -0.0757
14861SOL    HW148081   4.913   9.321   2.959  0.6444 -0.4655 -0.0832
14861SOL    HW248082   4.959   9.387   3.087  0.7780 -1.3931  0.3537
14862SOL     OW48083   3.476   5.639   9.526  0.2544 -0.5385  0.5133
14862SOL    HW148084   3.412   5.650   9.456  0.4633 -1.3837  0.1763
14862SOL    HW248085   3.561   5.637   9.482  0.3721 -1.2894  0.7513
14863SOL     OW48086   3.087   0.535   2.120  0.4374  0.4029  0.2366
14863SOL    HW148087   3.053   0.474   2.186 -1.1473  1.2057  0.2079
14863SOL    HW248088   3.094   0.619   2.166  1.3937  0.4890 -0.0512
14864SOL     OW48089   2.577   8.326   9.026  0.9172 -0.4953  0.4248
14864SOL    HW148090   2.544   8.260   8.966 -0.1105  2.4368 -2.5536
14864SOL    HW248091   2.663   8.295   9.052  0.3571 -3.0843 -0.5654
14865SOL     OW48092   7.121  10.309   4.310  0.6883 -0.2097  0.3018
14865SOL    HW148093   7.074  10.243   4.361 -1.3661  0.8245 -0.1414
14865SOL    HW248094   7.152  10.372   4.375 -0.1372  0.0362  0.4677
14866SOL     OW48095   8.863   3.461   9.470 -0.1416 -0.5757  0.2076
14866SOL    HW148096   8.905   3.502   9.395 -0.8310  0.1922  0.2286
14866SOL    HW248097   8.789   3.412   9.434  1.3825 -2.8717  0.0379
14867SOL     OW48098   2.433   1.198   3.327 -0.0346  0.2490  0.1522
14867SOL    HW148099   2.418   1.289   3.301 -1.0014 -0.3549 -1.5762
14867SOL    HW248100   2.347   1.168   3.357 -0.1491 -0.5816 -0.9608
14868SOL     OW48101   6.585   7.572   1.875 -0.1939  0.2375 -0.2808
14868SOL    HW148102   6.618   7.528   1.954 -1.3269 -1.4077 -0.6872
14868SOL    HW248103   6.490   7.573   1.886 -0.4155 -0.5652 -1.8935
14869SOL     OW48104   9.723   2.307   0.294 -0.0231 -0.1886  0.6056
14869SOL    HW148105   9.718   2.255   0.214 -2.2827  1.0464 -0.1394
14869SOL    HW248106   9.767   2.388   0.268 -0.3920  0.0457  0.7054
14870SOL     OW48107   7.487   0.228   1.031 -0.3208  0.5272 -0.3470
14870SOL    HW148108   7.404   0.220   0.984  0.5908 -0.1670 -1.9008
14870SOL    HW248109   7.543   0.281   0.974  0.9005 -0.5442 -0.2012
14871SOL     OW48110   1.171   1.510   7.524  0.0354 -0.1691  0.2028
14871SOL    HW148111   1.079   1.488   7.511 -0.0195  0.9259 -1.6971
14871SOL    HW248112   1.217   1.465   7.452  1.0614 -0.9489  1.2913
14872SOL     OW48113   1.443  10.424   1.652  0.2040 -0.4482  0.4147
14872SOL    HW148114   1.502  10.348   1.649  0.6163 -0.1038 -1.8955
14872SOL    HW248115   1.427  10.446   1.560 -2.0166  0.6734  1.0113
14873SOL     OW48116   8.554  10.681   8.569  0.2885 -0.3870  0.1386
14873SOL    HW148117   8.547  10.681   8.474  1.0905 -0.8211  0.0723
14873SOL    HW248118   8.630  10.737   8.587 -0.9319  1.1836  0.6250
14874SOL     OW48119   3.443   0.598   4.475  0.2809  0.3179 -0.0252
14874SOL    HW148120   3.437   0.510   4.513  0.3507  0.5419  0.5095
14874SOL    HW248121   3.362   0.608   4.425  0.0407  0.1348  0.3214
14875SOL     OW48122   8.875  10.250   5.291 -0.6774 -0.2426  0.0934
14875SOL    HW148123   8.782  10.239   5.272 -0.6050  1.7125 -1.8283
14875SOL    HW248124   8.916  10.170   5.259 -1.3549  0.3454 -2.4862
14876SOL     OW48125   6.960   9.093   5.499  0.2426 -0.1626 -0.0748
14876SOL    HW148126   6.937   9.061   5.412 -0.1728  0.2258 -0.1084
14876SOL    HW248127   7.039   9.146   5.486  0.2980 -0.2713 -0.1801
14877SOL     OW48128   7.133   9.648   5.575 -0.5361  0.4083  0.6847
14877SOL    HW148129   7.121   9.733   5.534  0.5823  1.6848  2.8282
14877SOL    HW248130   7.054   9.635   5.628 -1.3223 -0.5803 -0.6410
14878SOL     OW48131   3.516   8.613   9.810 -0.1293  0.4556  0.1115
14878SOL    HW148132   3.545   8.612   9.902 -1.1607  1.2727  0.4650
14878SOL    HW248133   3.491   8.704   9.794 -1.5529 -0.0125 -0.4631
14879SOL     OW48134   9.996   4.736  10.902  0.0020 -0.2535 -0.6353
14879SOL    HW148135  10.001   4.766  10.812  3.1058 -0.4976 -0.6540
14879SOL    HW248136  10.085   4.707  10.923 -1.0883 -2.2931  1.8027
14880SOL     OW48137   3.953   7.559  10.929 -0.3634  0.0579  0.7780
14880SOL    HW148138   3.937   7.464  10.935 -0.3333  0.0170  0.2004
14880SOL    HW248139   4.034   7.572  10.980  0.7021 -0.5139 -0.6942
14881SOL     OW48140   4.703   4.090   8.956 -0.3956 -0.0904  0.0385
14881SOL    HW148141   4.798   4.083   8.970 -0.4952 -1.1430  0.2639
14881SOL    HW248142   4.690   4.064   8.864 -0.6451 -1.9366  0.5495
14882SOL     OW48143   5.470   6.162   8.947 -0.2907  0.3654 -0.0117
14882SOL    HW148144   5.498   6.145   9.037  0.4407 -0.0693 -0.3167
14882SOL    HW248145   5.502   6.250   8.928  1.0504 -0.1761 -0.4059
14883SOL     OW48146   2.957   3.932   4.619 -0.1582  0.9372 -0.1208
14883SOL    HW148147   3.010   3.871   4.670  0.4396  1.6439  0.1181
14883SOL    HW248148   2.953   3.893   4.531 -0.4925  0.1411  0.2349
14884SOL     OW48149  10.484   4.360   0.999  0.2896 -0.5207  0.2468
14884SOL    HW148150  10.440   4.275   0.996 -0.1830 -0.2612 -0.3798
14884SOL    HW248151  10.464   4.393   1.087 -0.3188 -0.6485  0.1671
14885SOL     OW48152   5.241   5.809   4.963  0.3476  0.2426  0.0701
14885SOL    HW148153   5.210   5.749   4.896  0.0595  0.1905  0.2488
14885SOL    HW248154   5.244   5.757   5.043  1.4708  0.0923 -0.0624
14886SOL     OW48155   2.518   4.379   0.994 -0.5974  0.0339 -0.3088
14886SOL    HW148156   2.587   4.313   0.996  0.9929  1.6077  0.0752
14886SOL    HW248157   2.485   4.378   0.905  0.1687 -0.5282 -0.5933
14887SOL     OW48158  10.838   9.043   8.018  0.1450 -0.3915  0.1124
14887SOL    HW148159  10.804   9.017   7.932 -0.0623 -0.2645  0.1561
14887SOL    HW248160  10.795   9.126   8.037 -1.9196 -1.7070  1.5513
14888SOL     OW48161   7.887   7.705   3.149  0.0671  0.5133 -0.2135
14888SOL    HW148162   7.836   7.725   3.227 -0.0596 -1.4362  0.2452
14888SOL    HW248163   7.822   7.677   3.084  0.3796 -0.3661 -0.1633
14889SOL     OW48164   5.595   7.417   1.443  0.0596 -0.3278 -0.6597
14889SOL    HW148165   5.645   7.455   1.371  1.0776  1.8202  1.0804
14889SOL    HW248166   5.609   7.323   1.434  0.4013 -0.1136 -3.0466
14890SOL     OW48167   2.979   2.862   9.592 -0.4891 -0.1186  0.9640
14890SOL    HW148168   2.924   2.923   9.642 -1.0067  0.2327 -0.0259
14890SOL    HW248169   2.923   2.832   9.521 -0.2249 -1.7272  1.3928
14891SOL     OW48170   5.727   1.516   7.972  0.3437  0.3115  0.0982
14891SOL    HW148171   5.707   1.485   7.884 -0.1924 -1.4192  0.7974
14891SOL    HW248172   5.659   1.581   7.991 -0.5111 -0.5015 -0.1494
14892SOL     OW48173   7.887   0.954   6.689 -0.0999 -0.5223 -0.3699
14892SOL    HW148174   7.936   0.947   6.607  3.6121  1.1805  1.4796
14892SOL    HW248175   7.915   0.880   6.741  0.7401  0.5798  0.8032
14893SOL     OW48176   9.949   7.166   9.210 -0.1154  1.2059  0.0826
14893SOL    HW148177   9.872   7.201   9.164 -1.7091 -0.4662  1.3414
14893SOL    HW248178   9.915   7.135   9.294  1.0743 -3.0367 -0.7262
14894SOL     OW48179   6.241   4.878   5.387  0.2866  0.6384  0.1333
14894SOL    HW148180   6.311   4.909   5.445 -0.2102  2.1184 -0.0423
14894SOL    HW248181   6.229   4.948   5.323 -1.4643  0.4894  0.2542
14895SOL     OW48182   8.629   8.643   1.956  0.4277  0.5504  0.1466
14895SOL    HW148183   8.697   8.590   1.998 -0.7558 -1.7975 -0.7141
14895SOL    HW248184   8.663   8.659   1.868  1.9689  3.6916  1.1296
14896SOL     OW48185   6.195   1.749   7.975  0.3166 -0.2085 -0.3670
14896SOL    HW148186   6.265   1.696   7.938 -0.4098 -0.9361 -0.7142
14896SOL    HW248187   6.119   1.691   7.977 -0.5867  0.9183 -1.0858
14897SOL     OW48188   5.566   8.182   4.844 -0.1391  0.0307  0.0028
14897SOL    HW148189   5.620   8.132   4.782 -1.0128 -0.8036 -0.1188
14897SOL    HW248190   5.477   8.150   4.829 -0.5357  0.6860  0.8634
14898SOL     OW48191   7.604   5.919   4.729  0.7252  0.3905  0.5570
14898SOL    HW148192   7.567   5.980   4.665  0.7842  1.3522  1.4181
14898SOL    HW248193   7.562   5.836   4.710 -0.2443  0.9671  0.1233
14899SOL     OW48194   6.499   0.362   3.056 -0.0953  0.1497 -0.3134
14899SOL    HW148195   6.416   0.410   3.057 -1.3805 -1.9143  1.1762
14899SOL    HW248196   6.477   0.279   3.014  1.2103 -0.4365  0.1273
14900SOL     OW48197  10.092   4.311   0.476  0.4220 -0.0331  0.2536
14900SOL    HW148198  10.067   4.243   0.414  0.5467  0.0743  0.0823
14900SOL    HW248199  10.114   4.386   0.420 -2.0928  0.9723  0.4834
14901SOL     OW48200   7.327  10.823   1.114  0.5025  0.5026 -0.0659
14901SOL    HW148201   7.300  10.885   1.046 -0.0777 -0.1382 -0.4320
14901SOL    HW248202   7.320  10.737   1.072  1.3586  0.1873  0.4122
14902SOL     OW48203   0.917   9.650   3.399  0.4249  0.1045  0.6151
14902SOL    HW148204   0.837   9.676   3.445  1.6516  0.5972  2.5791
14902SOL    HW248205   0.950   9.576   3.450  1.7203  0.5259  0.4197
14903SOL     OW48206   0.381   8.763   1.146  0.3701  0.1779  0.0033
14903SOL    HW148207   0.293   8.780   1.179  0.5825  1.3066  0.0582
14903SOL    HW248208   0.371   8.756   1.051  0.2324  0.4818 -0.0075
14904SOL     OW48209   9.363   9.994   9.834  0.4746  0.0139  0.5736
14904SOL    HW148210   9.458   9.987   9.837  0.5947  0.8911 -0.6063
14904SOL    HW248211   9.335   9.918   9.783  0.6673  0.5052 -0.2818
14905SOL     OW48212   2.870  10.457   4.514 -0.3279 -0.0717  0.5622
14905SOL    HW148213   2.894  10.532   4.460 -1.2330 -0.3084 -0.1808
14905SOL    HW248214   2.833  10.496   4.594  0.0882  0.2657  0.5971
14906SOL     OW48215   0.319   9.379  10.859  0.1792 -0.7017 -0.0385
14906SOL    HW148216   0.298   9.354  10.948 -0.2435  0.5853  0.2458
14906SOL    HW248217   0.275   9.463  10.846  1.2287 -0.2698 -1.0395
14907SOL     OW48218   7.939  10.955  10.440 -0.1460  0.0469 -0.1632
14907SOL    HW148219   8.003  11.020  10.410  0.0905 -0.0790  0.0619
14907SOL    HW248220   7.866  10.964  10.379  0.8784 -1.1721 -1.6419
14908SOL     OW48221   9.459   5.368   1.841  0.0472 -0.5441  0.0845
14908SOL    HW148222   9.400   5.379   1.915 -0.1973 -0.0702 -0.1780
14908SOL    HW248223   9.520   5.300   1.869  1.7627  1.5649  1.8580
14909SOL     OW48224   7.603   3.033   6.730 -0.4331 -0.2376  0.1634
14909SOL    HW148225   7.595   2.938   6.720 -2.5873 -0.0715 -0.1542
14909SOL    HW248226   7.520   3.059   6.770 -0.4109  1.6683 -0.9391
14910SOL     OW48227   6.568   8.532   1.555  0.2120 -0.6894 -0.6091
14910SOL    HW148228   6.605   8.597   1.615  1.2204 -0.2213 -1.6966
14910SOL    HW248229   6.645   8.491   1.515 -0.4396 -1.1496 -1.4105
14911SOL     OW48230   6.441   6.165   5.628 -0.7136  0.4070 -0.1781
14911SOL    HW148231   6.397   6.248   5.644 -0.5996  0.9227 -2.2658
14911SOL    HW248232   6.516   6.166   5.687 -1.0801  1.4706  0.2920
14912SOL     OW48233   8.519   3.289   7.129  0.3066  0.2637 -0.7795
14912SOL    HW148234   8.441   3.246   7.163  0.7010  0.6002  0.6298
14912SOL    HW248235   8.504   3.382   7.146  1.0634  0.3205 -0.3518
14913SOL     OW48236   3.864   1.950   8.676 -0.2907  0.3752 -0.3110
14913SOL    HW148237   3.957   1.932   8.694 -0.2735  0.4196 -0.3537
14913SOL    HW248238   3.853   2.043   8.696 -0.6449  0.0618  1.0035
14914SOL     OW48239   8.064  10.057   9.809  0.3572  0.6426  0.4019
14914SOL    HW148240   8.132  10.119   9.783  0.0381  0.7739 -0.1287
14914SOL    HW248241   8.079   9.980   9.754  1.8096 -0.4602  2.2107
14915SOL     OW48242   4.321  10.182   0.884  0.0528 -0.0405 -0.3388
14915SOL    HW148243   4.273  10.100   0.902  0.2109  0.1678  1.2048
14915SOL    HW248244   4.388  10.157   0.820 -0.3530 -0.9605 -0.4286
14916SOL     OW48245   9.370   3.536   6.089  0.4482  0.3644  0.2994
14916SOL    HW148246   9.371   3.443   6.112  1.5356  0.5093  0.9230
14916SOL    HW248247   9.288   3.569   6.126 -0.1905 -0.4349 -0.3594
14917SOL     OW48248   8.828   1.930   7.916  0.3624 -0.0612 -0.0640
14917SOL    HW148249   8.783   2.014   7.925  2.2089  0.8768  1.0647
14917SOL    HW248250   8.909   1.952   7.870  0.5935 -1.3584 -0.3143
14918SOL     OW48251  10.305   5.242   7.156 -0.0971 -0.1357  0.3656
14918SOL    HW148252  10.238   5.286   7.105  0.6671 -0.6132 -1.0999
14918SOL    HW248253  10.266   5.232   7.243 -2.0898 -0.7801 -0.5423
14919SOL     OW48254   6.998   0.777   7.078 -0.1335 -0.5818  0.0021
14919SOL    HW148255   7.022   0.747   6.991 -3.2399 -0.7990 -0.8895
14919SOL    HW248256   6.985   0.697   7.129  2.1033 -0.4563  0.8935
14920SOL     OW48257   9.961   4.463   1.471  0.2322  0.2538 -0.4925
14920SOL    HW148258   9.869   4.438   1.480  0.0210 -0.0747 -2.8518
14920SOL    HW248259   9.967   4.548   1.515 -1.1609  0.2067 -0.1739
14921SOL     OW48260   7.649   1.186   5.402  0.6682 -0.1545 -0.1245
14921SOL    HW148261   7.709   1.245   5.449  0.2191 -0.3215  0.6660
14921SOL    HW248262   7.684   1.099   5.419  0.8330 -0.1821 -0.5861
14922SOL     OW48263   2.788   8.308   2.647  0.4035 -0.2527  0.1985
14922SOL    HW148264   2.823   8.356   2.572  1.8042 -3.1110 -1.1589
14922SOL    HW248265   2.812   8.361   2.723  2.4926  0.8356 -1.1143
14923SOL     OW48266   7.999  10.324   2.593 -0.2754 -0.6079  0.4131
14923SOL    HW148267   7.995  10.258   2.663 -0.2446 -1.6217 -0.5157
14923SOL    HW248268   8.005  10.273   2.512  1.1028  0.5471 -0.2557
14924SOL     OW48269   3.087   4.493  10.037 -0.1085  0.1519 -0.1278
14924SOL    HW148270   3.142   4.484   9.959  1.5124  0.6783  0.8896
14924SOL    HW248271   3.100   4.584  10.065  0.1979 -0.3117  1.3321
14925SOL     OW48272   4.999   0.982   3.879 -0.1456 -0.4220  0.5316
14925SOL    HW148273   4.982   1.075   3.893 -0.2030 -0.2035 -0.8379
14925SOL    HW248274   4.913   0.941   3.885 -0.1732 -0.3290  0.7704
14926SOL     OW48275   1.880   3.843   2.911 -0.2991  0.6009 -0.6282
14926SOL    HW148276   1.899   3.783   2.983 -0.7003  1.9714  0.6748
14926SOL    HW248277   1.874   3.929   2.952 -0.6177  1.4246 -2.2983
14927SOL     OW48278   4.172   2.584   2.060  0.1214  0.3979  0.0568
14927SOL    HW148279   4.205   2.552   2.144  1.3779 -0.0514 -0.5843
14927SOL    HW248280   4.227   2.660   2.040  0.4165 -0.0252 -0.7658
14928SOL     OW48281   0.065   1.622   1.050  0.0739  0.2849 -0.0715
14928SOL    HW148282   0.147   1.575   1.069  1.3864  1.7524 -1.7485
14928SOL    HW248283   0.072   1.646   0.958 -0.6115  3.5079  0.5837
14929SOL     OW48284   2.075   4.183   5.647  0.0514  0.6793 -0.4965
14929SOL    HW148285   2.121   4.130   5.582  1.1092  0.4511  0.3864
14929SOL    HW248286   2.016   4.121   5.691  0.3150  0.5203 -0.3593
14930SOL     OW48287  10.599   0.353   9.795  0.1763  0.6112 -0.1233
14930SOL    HW148288  10.652   0.396   9.862  0.3431  0.2927 -0.0509
14930SOL    HW248289  10.559   0.278   9.840 -1.0839  1.3570  0.0803
14931SOL     OW48290   0.187   1.430   4.390  0.5629 -0.3719  0.0790
14931SOL    HW148291   0.117   1.380   4.349  0.8598 -1.1381  0.4984
14931SOL    HW248292   0.162   1.435   4.482  1.9562 -2.2660  0.6143
14932SOL     OW48293   1.487   8.819   1.671  0.4601 -0.1303  0.4614
14932SOL    HW148294   1.478   8.884   1.740 -0.7808 -2.5873  2.7904
14932SOL    HW248295   1.397   8.800   1.644  0.8148 -0.7590 -0.3240
14933SOL     OW48296   0.660   2.824   1.497 -0.0816 -0.0552 -0.3386
14933SOL    HW148297   0.619   2.775   1.425  2.9940  0.1970 -2.4867
14933SOL    HW248298   0.646   2.916   1.475  0.2813  0.0153 -0.2917
14934SOL     OW48299   7.753   6.453   9.357 -0.2562 -0.3075 -0.4216
14934SOL    HW148300   7.832   6.501   9.384 -0.9279  0.7796 -0.3566
14934SOL    HW248301   7.684   6.519   9.356 -1.2328 -1.3005 -0.2254
14935SOL     OW48302   9.124   3.537  10.075 -0.4724  0.1862  0.0260
14935SOL    HW148303   9.193   3.472  10.060  0.4572  1.3609 -0.8951
14935SOL    HW248304   9.133   3.562  10.167 -0.5152 -0.5993  0.2516
14936SOL     OW48305  10.713   3.006   6.140 -0.0823  0.2155  0.3486
14936SOL    HW148306  10.725   3.030   6.048 -0.9408  0.1130  0.1996
14936SOL    HW248307  10.649   3.069   6.173 -1.0158 -0.7401  0.4299
14937SOL     OW48308  10.034   2.589   9.092  0.1959 -0.4015 -0.1464
14937SOL    HW148309  10.078   2.507   9.114  0.6661 -0.5123 -1.3905
14937SOL    HW248310   9.941   2.569   9.099  0.3178 -0.6966  0.7114
14938SOL     OW48311   7.441   5.869   9.441 -0.0642  0.0662 -0.0424
14938SOL    HW148312   7.361   5.817   9.431  0.5074 -0.6789 -0.9182
14938SOL    HW248313   7.497   5.840   9.370  0.7334  1.0682  0.1582
14939SOL     OW48314   7.238   8.725   8.367  0.2467 -0.2599 -0.7668
14939SOL    HW148315   7.257   8.653   8.306  0.1121  0.7282 -2.0070
14939SOL    HW248316   7.154   8.760   8.337  1.1965  1.6247 -1.4152
14940SOL     OW48317   4.917   0.299   0.035 -0.4450 -0.1011 -0.4650
14940SOL    HW148318   4.885   0.329   0.120 -1.8343  1.3385 -1.4335
14940SOL    HW248319   4.840   0.263  -0.009  0.5365 -2.1798 -0.6177
14941SOL     OW48320   5.359   1.898   8.256 -0.0013  0.6053  0.5580
14941SOL    HW148321   5.355   1.894   8.160  0.1152 -2.5079  0.5637
14941SOL    HW248322   5.281   1.851   8.284 -0.3519  2.0078  2.0466
14942SOL     OW48323   6.878   3.322   3.606  0.1855  0.3626  0.2449
14942SOL    HW148324   6.802   3.368   3.643 -0.3916 -0.2312 -0.1774
14942SOL    HW248325   6.859   3.316   3.513  1.8120  2.2126 -0.2795
14943SOL     OW48326   4.000   2.448   3.751  0.5410 -0.7306  0.0459
14943SOL    HW148327   4.058   2.462   3.675  0.0353 -1.2550 -0.4524
14943SOL    HW248328   3.914   2.431   3.712 -0.7242  3.1319  0.8187
14944SOL     OW48329   8.389   0.752   0.236  0.5060 -0.3657  0.0131
14944SOL    HW148330   8.422   0.667   0.207  2.3556  0.6794 -1.1869
14944SOL    HW248331   8.310   0.766   0.184  0.7519 -0.9326 -0.5319
14945SOL     OW48332   2.943   1.944   9.725 -0.3167 -0.3409 -0.2407
14945SOL    HW148333   2.952   1.887   9.649 -3.4114 -1.5363  0.1359
14945SOL    HW248334   3.032   1.978   9.741  0.6415 -0.8706 -3.6617
14946SOL     OW48335   6.717   4.061   1.553 -0.7099  0.2344  0.3556
14946SOL    HW148336   6.711   3.967   1.574 -0.3836  0.3003  0.7716
14946SOL    HW248337   6.729   4.103   1.638  2.1339  0.3865 -0.0273
14947SOL     OW48338   3.685  10.317   8.142 -0.2120  0.3057  0.4852
14947SOL    HW148339   3.611  10.257   8.129  0.9880 -1.0299 -0.4562
14947SOL    HW248340   3.726  10.288   8.223  0.0687  0.1779  0.2983
14948SOL     OW48341  10.122   1.014   5.507  0.1503  0.2125 -0.5152
14948SOL    HW148342  10.089   1.093   5.550  0.6640 -0.2778  0.8380
14948SOL    HW248343  10.069   0.943   5.543  1.4542 -0.3723  0.3408
14949SOL     OW48344  10.135   2.277   1.781  0.1591 -0.4527  0.0090
14949SOL    HW148345  10.081   2.212   1.827 -4.5149  2.0722 -1.3294
14949SOL    HW248346  10.159   2.340   1.849 -0.2167 -0.6169  0.3022
14950SOL     OW48347   8.298   6.788   4.738 -0.0300  0.1661  0.9376
14950SOL    HW148348   8.256   6.707   4.766 -0.5739 -1.0945 -3.0153
14950SOL    HW248349   8.384   6.761   4.707 -0.0565  1.1740 -0.0499
14951SOL     OW48350   2.760   3.125   9.998 -0.1288  0.4479  0.7803
14951SOL    HW148351   2.853   3.138  10.018 -0.1513  0.8285  0.6334
14951SOL    HW248352   2.715   3.196  10.045 -0.1422  1.7206 -1.0443
14952SOL     OW48353   0.822   1.033   6.212  0.2461 -0.2318  0.1694
14952SOL    HW148354   0.827   0.938   6.216  0.4983 -0.2337 -0.1498
14952SOL    HW248355   0.883   1.058   6.142  1.3028  0.2657  1.2335
14953SOL     OW48356   7.976   6.097  10.446 -0.2951  0.3374  0.2578
14953SOL    HW148357   7.916   6.128  10.513 -0.1116  1.0218  0.1190
14953SOL    HW248358   7.929   6.027  10.401 -1.3849  1.4916 -0.4772
14954SOL     OW48359   4.835   5.214   0.607 -0.3804 -0.0762 -0.6407
14954SOL    HW148360   4.899   5.157   0.651 -1.3835 -0.0124  1.0068
14954SOL    HW248361   4.779   5.245   0.678 -0.5521  2.1034 -1.6530
14955SOL     OW48362   3.943   0.399   3.938  0.1309 -0.1082  0.1808
14955SOL    HW148363   4.025   0.368   3.898 -0.8870 -2.7581 -0.0738
14955SOL    HW248364   3.966   0.420   4.028  0.8512 -2.3000  0.5545
14956SOL     OW48365   0.858   1.757   8.203  0.2540  0.4534  0.7282
14956SOL    HW148366   0.874   1.749   8.109 -0.5139  0.3555  0.5964
14956SOL    HW248367   0.791   1.691   8.221  0.9293 -0.0417  1.4925
14957SOL     OW48368   4.758   0.521   7.068 -0.5363 -0.3867  0.2977
14957SOL    HW148369   4.800   0.607   7.069 -0.0849 -0.6029  0.1523
14957SOL    HW248370   4.805   0.470   7.134 -0.9943 -0.4345  0.5906
14958SOL     OW48371   1.038  10.263   9.574 -0.1465  0.7437 -0.2026
14958SOL    HW148372   0.970  10.307   9.524 -0.2931 -0.2191 -0.8873
14958SOL    HW248373   0.990  10.203   9.632  0.0981 -0.1053 -0.8489
14959SOL     OW48374   7.123  10.276   7.535  0.0367 -0.1047 -0.0131
14959SOL    HW148375   7.142  10.338   7.604 -0.9870  2.0724 -1.5614
14959SOL    HW248376   7.182  10.301   7.463  1.0545 -2.2738 -0.0100
14960SOL     OW48377   5.682   8.586  10.834 -0.2226  0.4565  0.5906
14960SOL    HW148378   5.622   8.609  10.763  0.7763 -0.8804 -0.7525
14960SOL    HW248379   5.626   8.573  10.910 -1.8388 -1.8719 -0.8855
14961SOL     OW48380   0.303   6.144  10.301 -0.5883 -0.1209  0.3754
14961SOL    HW148381   0.239   6.074  10.304 -1.7994  0.9919  1.8123
14961SOL    HW248382   0.385   6.101  10.278 -1.8432 -1.5439 -1.7907
14962SOL     OW48383   5.456   0.381   2.381 -0.1556 -0.3882  0.3255
14962SOL    HW148384   5.480   0.307   2.324  0.1576  0.0544 -0.1256
14962SOL    HW248385   5.389   0.428   2.331  2.6209  2.0609 -1.3776
14963SOL     OW48386   2.142   2.317   9.643 -0.4840 -0.4313 -0.6437
14963SOL    HW148387   2.167   2.407   9.623  1.0752 -0.6024  0.3908
14963SOL    HW248388   2.216   2.264   9.615 -1.6355 -1.4904 -1.8073
14964SOL     OW48389   6.504   8.410   9.049 -0.5111 -0.0379 -0.3804
14964SOL    HW148390   6.535   8.417   8.958  0.4845  0.5881 -0.0142
14964SOL    HW248391   6.486   8.317   9.061  0.9457 -0.4003 -0.7414
14965SOL     OW48392   5.755   9.840  10.653  0.2832  0.4268  0.6036
14965SOL    HW148393   5.685   9.812  10.595  0.1529  0.7323  0.6123
14965SOL    HW248394   5.776   9.763  10.706  0.8350 -0.0385 -0.2738
14966SOL     OW48395   0.391   5.053   7.722 -0.2566  0.2421 -0.2164
14966SOL    HW148396   0.396   5.148   7.712  0.0463  0.5620  2.2104
14966SOL    HW248397   0.340   5.023   7.647 -2.0676  2.5483 -0.0297
14967SOL     OW48398   0.730   7.847   9.849  0.0868  0.1979  0.3395
14967SOL    HW148399   0.791   7.780   9.818 -1.8826 -1.0422 -1.0706
14967SOL    HW248400   0.728   7.835   9.944  1.7048  0.0169  0.3799
14968SOL     OW48401  10.054   6.697   8.060  0.3442  0.2682  0.3255
14968SOL    HW148402   9.999   6.767   8.023 -1.6325 -1.6591 -0.6710
14968SOL    HW248403  10.015   6.678   8.145 -1.1624 -1.5837 -0.6746
14969SOL     OW48404   9.807   2.733   6.770 -0.0217 -0.0106  0.6434
14969SOL    HW148405   9.774   2.817   6.736 -0.4179  0.8395  2.9127
14969SOL    HW248406   9.728   2.681   6.784  0.0667 -0.0786  0.8922
14970SOL     OW48407  10.308   3.899   4.551 -0.2118 -0.4915  0.2868
14970SOL    HW148408  10.311   3.805   4.567  0.9739 -0.2164  1.8952
14970SOL    HW248409  10.281   3.907   4.459  0.9106 -2.4401 -0.2560
14971SOL     OW48410   2.171   7.579   4.397 -0.0363 -0.1868 -0.4902
14971SOL    HW148411   2.245   7.519   4.392  0.4896  0.4045  0.1602
14971SOL    HW248412   2.193   7.650   4.336 -0.5165 -0.4811 -1.0217
14972SOL     OW48413   9.039   4.893   8.045  0.0434 -0.6728  0.6611
14972SOL    HW148414   9.127   4.931   8.042 -0.4010  0.3469 -0.8631
14972SOL    HW248415   9.019   4.873   7.954 -1.5142 -0.3641  0.9179
14973SOL     OW48416   0.867   7.625   6.217 -0.3912  0.2343 -0.0243
14973SOL    HW148417   0.850   7.589   6.303 -0.6416 -0.3997 -0.3317
14973SOL    HW248418   0.958   7.599   6.198  0.0921  1.4410  0.5582
14974SOL     OW48419   9.389   9.733   3.563 -0.1494 -0.0924  0.2065
14974SOL    HW148420   9.435   9.659   3.602  1.3867  0.5726 -0.2690
14974SOL    HW248421   9.402   9.805   3.625  0.7091  0.4802 -0.6181
14975SOL     OW48422   2.716   8.772   6.735 -0.0232  0.2257 -0.0849
14975SOL    HW148423   2.703   8.713   6.661  1.8461 -0.9890  0.4648
14975SOL    HW248424   2.810   8.767   6.753 -0.3733  0.6921  2.1937
14976SOL     OW48425   5.225   5.560   9.818 -0.2567  0.0165 -0.3379
14976SOL    HW148426   5.205   5.653   9.823 -1.4461 -0.2796  2.5235
14976SOL    HW248427   5.306   5.550   9.868 -0.2682 -0.5040 -0.4188
14977SOL     OW48428   7.788   5.848   4.063  0.2241 -0.2204 -0.0225
14977SOL    HW148429   7.794   5.817   4.153  1.0852  0.2138  0.0908
14977SOL    HW248430   7.871   5.820   4.023 -0.6870 -1.5168 -1.0583
14978SOL     OW48431   0.689   6.198   9.994  0.2727 -0.5726  0.2478
14978SOL    HW148432   0.625   6.230  10.058 -0.3397 -0.7512 -0.2665
14978SOL    HW248433   0.649   6.120   9.957  0.5501 -0.3796 -0.4745
14979SOL     OW48434   4.849  10.981   7.572  0.8516  0.0945 -0.1356
14979SOL    HW148435   4.779  10.920   7.594 -2.0665  2.3960 -2.1992
14979SOL    HW248436   4.870  10.961   7.480  0.8049  1.2253 -0.4112
14980SOL     OW48437   7.887   5.041   5.307 -0.0894  0.2311  0.0918
14980SOL    HW148438   7.846   5.007   5.227  0.5299  1.8389 -0.9365
14980SOL    HW248439   7.981   5.038   5.290  0.0014  2.3720 -0.0326
14981SOL     OW48440   5.159   0.481   8.701  0.1633  0.4950  0.1618
14981SOL    HW148441   5.124   0.458   8.787  0.9756  1.2192  0.6961
14981SOL    HW248442   5.252   0.459   8.707  0.2680  0.7644 -0.4584
14982SOL     OW48443   9.792   2.557   9.406  0.3836 -0.1373  0.2825
14982SOL    HW148444   9.706   2.598   9.395  0.2237 -0.5013  0.1373
14982SOL    HW248445   9.854   2.630   9.407 -0.0589  0.2509  2.0098
14983SOL     OW48446   0.569   5.440   8.927  0.5227 -0.4376 -0.2407
14983SOL    HW148447   0.475   5.435   8.947  0.0672  1.0573 -1.7171
14983SOL    HW248448   0.586   5.365   8.871 -0.0652 -0.1366 -0.8417
14984SOL     OW48449   2.110   6.084   2.137 -0.6799  0.2169 -0.2798
14984SOL    HW148450   2.131   6.121   2.051 -0.1566 -0.5293 -0.4801
14984SOL    HW248451   2.126   5.990   2.127 -0.5872  0.1278  0.6485
14985SOL     OW48452   4.073   1.336   4.451 -0.6728  0.0577 -0.1896
14985SOL    HW148453   4.054   1.242   4.452 -0.7091  0.0653  0.8787
14985SOL    HW248454   4.154   1.345   4.502  0.0708  0.4708 -1.3955
14986SOL     OW48455   1.033   9.395   1.669 -0.0659 -0.5216 -0.2180
14986SOL    HW148456   1.075   9.474   1.637 -0.0997 -0.7652 -0.9031
14986SOL    HW248457   0.940   9.408   1.650 -0.1569 -0.4504  0.2692
14987SOL     OW48458   5.998   1.736   2.447  0.1686  0.3515 -0.0452
14987SOL    HW148459   6.005   1.826   2.415  1.5547  0.5407  0.7013
14987SOL    HW248460   6.046   1.737   2.530  0.8917 -1.2533 -0.4169
14988SOL     OW48461  10.075  11.003   0.176 -0.2447  0.5276 -0.1533
14988SOL    HW148462  10.158  11.014   0.130 -0.1888  0.6866 -0.0151
14988SOL    HW248463  10.100  10.979   0.265 -0.3565 -0.3525 -0.3492
14989SOL     OW48464   2.666   5.996   4.238 -0.0896 -0.0106  0.7307
14989SOL    HW148465   2.654   6.036   4.152 -1.2984  1.2176  1.4426
14989SOL    HW248466   2.721   5.919   4.221 -1.7625 -0.8265 -1.3953
14990SOL     OW48467   5.600   3.813   1.841 -0.0011  0.1071  0.0859
14990SOL    HW148468   5.514   3.778   1.865  0.9048 -1.9254  0.5652
14990SOL    HW248469   5.622   3.874   1.912 -0.3775 -0.5712  0.7987
14991SOL     OW48470   1.864   3.051   4.678  0.0520  0.3126  0.2223
14991SOL    HW148471   1.792   2.997   4.711  0.2210  0.5098  0.9165
14991SOL    HW248472   1.829   3.139   4.676  0.1756  0.3632  0.2714
14992SOL     OW48473   1.190   7.840   8.598 -0.0046 -0.3005 -0.1964
14992SOL    HW148474   1.238   7.919   8.572 -1.9587  0.3839 -2.0089
14992SOL    HW248475   1.109   7.872   8.637  0.1406 -1.4349  1.0990
14993SOL     OW48476   6.261   1.196   8.042  0.1871 -0.1861 -0.6275
14993SOL    HW148477   6.355   1.201   8.025  0.0525  0.1092 -1.3283
14993SOL    HW248478   6.250   1.118   8.096  1.1571  1.1878  1.7287
14994SOL     OW48479   4.384   2.850   1.709 -0.5928  0.3365 -0.2135
14994SOL    HW148480   4.291   2.843   1.729 -0.3314  0.0892  0.9820
14994SOL    HW248481   4.409   2.938   1.737 -0.5163  0.5116 -0.8031
14995SOL     OW48482   3.935   8.884   4.390 -0.2595 -0.7270 -0.4703
14995SOL    HW148483   3.937   8.960   4.448 -0.1795 -0.3401 -0.9727
14995SOL    HW248484   3.926   8.809   4.448 -1.7182 -0.2438 -0.0380
14996SOL     OW48485   9.233   0.179   0.389 -0.3880 -0.0421 -0.6178
14996SOL    HW148486   9.315   0.228   0.382 -0.4385  0.0984 -0.2223
14996SOL    HW248487   9.164   0.245   0.381 -0.4556  0.1740  1.4118
14997SOL     OW48488   4.778   1.151   7.635 -0.0782 -0.0422  0.4991
14997SOL    HW148489   4.701   1.207   7.646 -0.0915  0.6886 -2.4849
14997SOL    HW248490   4.749   1.064   7.663 -2.7658 -0.2546 -2.4304
14998SOL     OW48491   1.122   6.154   4.067  0.2898 -0.1616  0.0073
14998SOL    HW148492   1.132   6.170   3.974 -0.1302 -1.7539 -0.3463
14998SOL    HW248493   1.175   6.221   4.109  3.2528 -1.3951 -1.4564
14999SOL     OW48494   3.526   8.538   2.237 -0.5396 -0.0977 -0.8024
14999SOL    HW148495   3.458   8.564   2.299 -0.6157  0.6423 -1.1850
14999SOL    HW248496   3.608   8.554   2.282 -0.5977 -1.4608 -0.1498
15000SOL     OW48497   1.359   2.294   0.412 -0.2341  0.1326 -0.3275
15000SOL    HW148498   1.415   2.217   0.424  0.9939  1.1242  0.5421
15000SOL    HW248499   1.273   2.266   0.445  0.2357 -0.8021  0.1531
15001SOL     OW48500   7.787   1.194   9.830 -0.1847 -0.3291  0.0009
15001SOL    HW148501   7.711   1.229   9.876 -0.5933 -1.4035  0.1763
15001SOL    HW248502   7.838   1.150   9.898  0.7396  0.5728 -0.0697
15002SOL     OW48503   7.250  10.041   8.980  0.1984  0.2515 -0.7818
15002SOL    HW148504   7.281   9.958   8.943  1.3735 -0.0963  0.8837
15002SOL    HW248505   7.262  10.104   8.909 -0.4746 -0.9356 -1.9960
15003SOL     OW48506   9.112   1.073   8.926  0.1017  0.1228 -0.0719
15003SOL    HW148507   9.120   0.998   8.868 -0.7184  0.5626 -0.7823
15003SOL    HW248508   9.168   1.052   9.001 -1.3635 -1.9079  0.5189
15004SOL     OW48509   4.206   7.732  10.596 -0.2691  0.0085  0.0264
15004SOL    HW148510   4.157   7.653  10.621 -0.3385 -0.4226 -1.3784
15004SOL    HW248511   4.295   7.715  10.626 -0.6132  0.0539  1.0841
15005SOL     OW48512   3.982   0.786   2.216  0.3637 -0.3779  0.2137
15005SOL    HW148513   3.926   0.738   2.154  0.2169 -2.2204  1.6946
15005SOL    HW248514   3.924   0.853   2.252 -0.6546 -1.6219  0.9885
15006SOL     OW48515   7.974   6.700   5.100 -0.1082  0.3027 -0.4149
15006SOL    HW148516   7.954   6.606   5.092  2.1838 -0.3712  0.9694
15006SOL    HW248517   7.892   6.738   5.132 -1.1549 -1.1676 -1.1759
15007SOL     OW48518   0.718   4.016   2.296 -0.5464 -0.4029  0.0120
15007SOL    HW148519   0.700   4.061   2.378 -2.6595 -2.2308  0.6616
15007SOL    HW248520   0.795   3.963   2.313  0.3204  0.8370  0.0810
15008SOL     OW48521   6.637   7.384   7.486  0.8507  0.0043 -0.2373
15008SOL    HW148522   6.623   7.362   7.394 -0.7669 -2.2693  0.4598
15008SOL    HW248523   6.704   7.453   7.485  2.4117 -1.4042 -2.9690
15009SOL     OW48524   6.368   2.006   8.340  0.5474  0.7784  0.0136
15009SOL    HW148525   6.329   1.931   8.297  1.4184 -1.2094  2.4586
15009SOL    HW248526   6.296   2.049   8.386  0.3956  0.1178  0.3954
15010SOL     OW48527   6.886  10.565   3.754  0.0520  0.3193  0.2366
15010SOL    HW148528   6.882  10.641   3.697 -0.3165 -0.5298 -0.8936
15010SOL    HW248529   6.912  10.493   3.697 -1.4529 -0.7909  0.8902
15011SOL     OW48530  10.738   1.299   5.307  0.5894 -0.1977 -0.0718
15011SOL    HW148531  10.833   1.289   5.317  0.7171  0.2836 -0.7817
15011SOL    HW248532  10.706   1.304   5.397  1.4474  1.5416  0.1754
15012SOL     OW48533   9.822   8.970   5.550  0.1961 -0.0972  0.1450
15012SOL    HW148534   9.812   8.875   5.556 -0.3324 -0.0683 -0.2054
15012SOL    HW248535   9.737   9.001   5.520  0.5359  0.4341 -0.2932
15013SOL     OW48536   6.249  11.004   0.650  0.1273  0.3203  0.5543
15013SOL    HW148537   6.202  11.049   0.720  0.4052  0.5974  0.5627
15013SOL    HW248538   6.336  11.044   0.649 -0.8746  2.8220 -2.2087
15014SOL     OW48539   0.767   6.072   2.881  0.0908 -0.2866 -0.1589
15014SOL    HW148540   0.745   5.980   2.872 -0.7488 -0.2675  1.4960
15014SOL    HW248541   0.686   6.118   2.860  1.1968  0.2928 -3.8633
15015SOL     OW48542   4.106   1.191   8.239  0.2638  0.3253  0.0602
15015SOL    HW148543   4.127   1.270   8.190 -2.7084  1.4261  0.3658
15015SOL    HW248544   4.049   1.140   8.181 -2.6292  1.2614  1.8844
15016SOL     OW48545  10.207   3.410   9.288 -0.2726 -0.4181  0.5746
15016SOL    HW148546  10.118   3.430   9.258 -0.1015 -1.0432 -0.4054
15016SOL    HW248547  10.259   3.485   9.258  0.1593 -1.6762 -2.0808
15017SOL     OW48548   9.788   9.334   0.859  0.2805  0.0240 -0.5371
15017SOL    HW148549   9.842   9.394   0.808  2.0423  0.4586  1.7004
15017SOL    HW248550   9.729   9.392   0.909 -1.8362 -0.4163 -2.3692
15018SOL     OW48551   7.021   1.205   5.391  0.8446  1.0130  0.3912
15018SOL    HW148552   6.989   1.295   5.391  1.9928  1.4462  1.2899
15018SOL    HW248553   6.959   1.157   5.444 -0.6846  0.8922 -1.3878
15019SOL     OW48554   9.086  10.045   7.745 -0.6809 -0.4471 -0.3737
15019SOL    HW148555   9.079   9.979   7.677 -0.4532  0.6836 -1.5327
15019SOL    HW248556   9.016  10.023   7.807 -2.1421 -0.4266 -1.9398
15020SOL     OW48557   2.211   0.771   3.714 -0.5672  0.1342 -0.1692
15020SOL    HW148558   2.154   0.712   3.664 -0.8283  0.5315 -0.3497
15020SOL    HW248559   2.259   0.713   3.773 -1.4179 -0.1799  0.2349
15021SOL     OW48560   8.824   7.552   2.920  0.1965 -0.1888  0.3543
15021SOL    HW148561   8.738   7.569   2.958  0.1774  2.2567 -0.5803
15021SOL    HW248562   8.883   7.613   2.965  1.0336 -0.3947 -0.4286
15022SOL     OW48563   9.050   6.620  10.659 -0.0070 -0.8150  0.3763
15022SOL    HW148564   9.023   6.539  10.617 -2.0583 -1.1261  2.1481
15022SOL    HW248565   9.002   6.689  10.612  0.7567 -0.7241 -0.2987
15023SOL     OW48566   3.641   6.230  10.960 -0.3771 -0.0792 -0.5775
15023SOL    HW148567   3.696   6.226  11.038 -0.2187 -0.2343 -0.6976
15023SOL    HW248568   3.603   6.142  10.954 -0.8527  0.1050 -0.3395
15024SOL     OW48569   0.907   5.844   4.358 -0.1830 -0.1899 -0.2473
15024SOL    HW148570   0.888   5.922   4.410 -0.9428 -0.3266 -0.3164
15024SOL    HW248571   0.838   5.841   4.292 -0.2578 -1.0117 -0.1435
15025SOL     OW48572   5.755  11.009   2.009 -0.3654 -0.7144 -0.6822
15025SOL    HW148573   5.720  10.920   2.022  1.0699 -0.9806  2.3240
15025SOL    HW248574   5.698  11.064   2.062 -1.4712  0.3188 -2.8253
15026SOL     OW48575   3.136   4.627  10.817 -0.1480  0.0776  0.2282
15026SOL    HW148576   3.214   4.596  10.771  1.3700  1.9967  1.3957
15026SOL    HW248577   3.127   4.568  10.892 -2.3832 -2.7940 -2.0695
15027SOL     OW48578   7.964   3.166  10.200 -0.3445 -0.1606 -0.1753
15027SOL    HW148579   7.870   3.176  10.189 -0.0989  1.6688 -0.8312
15027SOL    HW248580   7.991   3.107  10.129 -1.2001 -2.1162  1.0530
15028SOL     OW48581   2.002   1.655  10.957  0.2795 -0.3455 -0.1399
15028SOL    HW148582   2.090   1.673  10.992 -0.1619  1.2990  0.2074
15028SOL    HW248583   2.017   1.631  10.866  1.0394  1.1402 -0.4437
15029SOL     OW48584   6.237   1.195   1.006 -0.7459  0.2979 -0.5272
15029SOL    HW148585   6.146   1.223   1.001 -1.0295 -0.6649 -0.9277
15029SOL    HW248586   6.240   1.136   1.082 -0.9307 -1.3079 -1.7261
15030SOL     OW48587   2.475   8.544   9.170  0.0734  0.3639  0.5426
15030SOL    HW148588   2.398   8.512   9.217 -1.5645  0.9316 -1.6290
15030SOL    HW248589   2.494   8.476   9.106 -0.4227  1.4621 -0.8227
15031SOL     OW48590   3.414   4.213   7.768  0.5842  0.2493 -0.2039
15031SOL    HW148591   3.459   4.188   7.849  0.6398 -1.6303 -0.7743
15031SOL    HW248592   3.321   4.215   7.791  0.6900  1.0254  0.2021
15032SOL     OW48593   6.428   8.967   9.837  0.2376  0.0135 -0.3243
15032SOL    HW148594   6.466   9.000   9.755 -0.0570  0.4824 -0.2778
15032SOL    HW248595   6.495   8.909   9.873  0.2308 -0.4594 -1.0658
15033SOL     OW48596   0.724   4.921   9.194 -0.3475 -0.0356  0.7038
15033SOL    HW148597   0.799   4.913   9.253  0.5068  0.9243 -0.2035
15033SOL    HW248598   0.756   4.887   9.111 -0.0726  2.5909 -0.3491
15034SOL     OW48599   8.184   4.866   0.800 -0.7041 -0.0779  0.0343
15034SOL    HW148600   8.097   4.837   0.825 -0.6657  0.2655  0.5785
15034SOL    HW248601   8.243   4.798   0.832 -0.5976  0.6561  1.4643
15035SOL     OW48602   5.013   5.862   1.849 -0.1050 -0.2018  0.0292
15035SOL    HW148603   5.074   5.815   1.905 -1.2489 -2.2707 -0.3551
15035SOL    HW248604   5.068   5.916   1.793  1.4444 -2.2943 -0.5901
15036SOL     OW48605   6.671   9.199   2.205 -0.1101  0.3612 -0.8978
15036SOL    HW148606   6.754   9.218   2.249  0.5264 -0.8624 -1.5242
15036SOL    HW248607   6.676   9.106   2.182 -0.5977  0.8283 -3.1544
15037SOL     OW48608   0.454   8.211   6.844 -0.1670 -0.0295  0.1045
15037SOL    HW148609   0.431   8.193   6.935  0.0018  0.7760  0.3127
15037SOL    HW248610   0.469   8.124   6.806 -0.9333 -0.4194  0.6507
15038SOL     OW48611   5.884   0.774  10.740 -0.0576 -0.2340  0.2038
15038SOL    HW148612   5.821   0.718  10.693  1.4393 -1.1252 -0.8093
15038SOL    HW248613   5.831   0.847  10.772 -2.1910 -2.2999  1.8201
15039SOL     OW48614   6.907   0.570   0.834  0.0572  0.4150 -0.4867
15039SOL    HW148615   6.850   0.645   0.845  0.1390  0.3467  0.4880
15039SOL    HW248616   6.911   0.529   0.921 -0.1076 -0.8027 -1.0280
15040SOL     OW48617   3.275   5.647   6.009 -0.1912  0.1775 -0.4646
15040SOL    HW148618   3.222   5.697   5.948  0.2788  2.0949  0.6075
15040SOL    HW248619   3.215   5.628   6.082  0.4444  2.1502  0.6442
15041SOL     OW48620   8.797   9.638   6.883 -0.4158 -0.1265  0.6059
15041SOL    HW148621   8.745   9.564   6.914 -0.4693 -0.1223  0.5252
15041SOL    HW248622   8.739   9.714   6.893 -0.4381 -0.1273  0.4811
15042SOL     OW48623   3.743   7.890   0.976 -0.0950 -0.2496 -0.1487
15042SOL    HW148624   3.694   7.836   0.914 -2.4787  0.8488  0.6855
15042SOL    HW248625   3.726   7.849   1.062  1.8917 -0.8339  0.0240
15043SOL     OW48626   2.538   8.054   7.963  0.1548  0.6969  0.4492
15043SOL    HW148627   2.455   8.034   7.920  1.1590 -1.6951 -0.5837
15043SOL    HW248628   2.576   8.125   7.910 -0.7477  1.0793  0.3003
15044SOL     OW48629   9.052   0.517   1.271  0.1202 -0.1722  0.0504
15044SOL    HW148630   9.043   0.457   1.345 -0.6131  0.5199  0.5356
15044SOL    HW248631   9.124   0.481   1.219 -1.3829 -2.4457 -0.6107
15045SOL     OW48632   8.347   4.353   0.433 -0.0447 -0.6633 -0.3740
15045SOL    HW148633   8.355   4.441   0.397  0.5210 -0.3375  0.5031
15045SOL    HW248634   8.392   4.358   0.518 -0.2718 -1.7146 -0.1787
15046SOL     OW48635   1.229   6.493   5.262  0.1224  0.5342  0.1408
15046SOL    HW148636   1.139   6.465   5.244  0.0731  1.5878 -1.4834
15046SOL    HW248637   1.274   6.412   5.285 -0.6487 -0.4828 -1.6715
15047SOL     OW48638   7.530   6.687  10.964  0.2700 -0.4314 -0.8828
15047SOL    HW148639   7.475   6.764  10.952 -0.1755 -0.7410 -0.8715
15047SOL    HW248640   7.533   6.646  10.878  0.3703 -0.4908 -0.8513
15048SOL     OW48641   2.664  10.860   2.629 -0.3654  0.2548  0.7002
15048SOL    HW148642   2.629  10.776   2.660  1.8473 -0.6678  0.8689
15048SOL    HW248643   2.743  10.873   2.682  0.4461  1.4164 -0.7565
15049SOL     OW48644   2.342   6.428   3.960  0.4249  0.0266 -0.0646
15049SOL    HW148645   2.247   6.417   3.967  0.4480 -1.2401 -1.3546
15049SOL    HW248646   2.353   6.507   3.907  0.1393  0.9180  1.1502
15050SOL     OW48647   8.804   8.521   2.169  0.1099 -0.4983 -0.3545
15050SOL    HW148648   8.857   8.568   2.234  0.0235 -0.8137 -0.0545
15050SOL    HW248649   8.844   8.435   2.164  1.4068  0.1469 -2.2539
15051SOL     OW48650   7.948   2.348   6.024  0.6277  0.6422  0.1383
15051SOL    HW148651   7.923   2.410   5.956 -0.4212 -0.4154 -0.4918
15051SOL    HW248652   8.043   2.346   6.021  0.6158  0.9507 -1.0014
15052SOL     OW48653   1.956  10.255   4.772 -0.2654 -0.2238 -0.0514
15052SOL    HW148654   1.911  10.180   4.732 -0.7643  0.9468 -1.8194
15052SOL    HW248655   2.049  10.234   4.763 -0.3052 -2.3545  3.0287
15053SOL     OW48656  10.947   7.202   1.851 -0.3474  0.7777  0.2105
15053SOL    HW148657  10.955   7.170   1.761  0.4684  1.6398 -0.0362
15053SOL    HW248658  10.931   7.296   1.842 -0.6487  0.8109  0.9680
15054SOL     OW48659   7.604  10.313   6.757  0.2815 -0.4427 -0.3947
15054SOL    HW148660   7.672  10.380   6.751  1.9126 -1.9196  0.6580
15054SOL    HW248661   7.579  10.295   6.666  0.3183  1.0342 -0.7300
15055SOL     OW48662   1.749   6.849   1.896  0.4585 -0.1522 -0.1319
15055SOL    HW148663   1.717   6.914   1.833 -0.4951  1.4615  1.8808
15055SOL    HW248664   1.680   6.844   1.961  0.8830 -2.6621  0.2008
15056SOL     OW48665   1.158   2.036  10.840  0.1984 -0.4706 -0.2569
15056SOL    HW148666   1.199   2.063  10.923  0.0210 -0.3851 -0.1959
15056SOL    HW248667   1.212   2.075  10.772 -0.3757  0.5055 -0.1628
15057SOL     OW48668   6.505   0.909   0.706 -0.0258  0.6217  0.0363
15057SOL    HW148669   6.464   0.830   0.743  1.0670  0.3143  0.6227
15057SOL    HW248670   6.438   0.977   0.717 -0.9929 -0.2074 -0.4859
15058SOL     OW48671   3.349   1.050   7.074 -0.1452 -0.5951 -0.1185
15058SOL    HW148672   3.415   1.119   7.076 -0.7474 -0.0202  0.0379
15058SOL    HW248673   3.309   1.053   7.161  0.7606 -2.0597  0.3859
15059SOL     OW48674  10.488   4.004   5.093 -1.0207  0.3351  0.1173
15059SOL    HW148675  10.498   4.094   5.060 -0.9757  0.6445  0.9519
15059SOL    HW248676  10.408   4.006   5.144 -0.2758  0.2824  1.3281
15060SOL     OW48677   9.602  10.684   0.232 -0.4217  0.3359  0.5215
15060SOL    HW148678   9.598  10.777   0.208  2.0074  1.2911  3.2363
15060SOL    HW248679   9.695  10.666   0.243 -0.9775 -1.3480  3.6358
15061SOL     OW48680   7.263   9.073   7.644  0.6351 -0.5306  0.3056
15061SOL    HW148681   7.285   9.165   7.656 -0.0579 -0.0334 -1.7704
15061SOL    HW248682   7.294   9.052   7.555 -0.5441 -1.8603  0.1702
15062SOL     OW48683  10.080   9.142   1.671  0.7344  0.2317 -0.1748
15062SOL    HW148684  10.115   9.223   1.633 -0.2301  0.1417 -1.3347
15062SOL    HW248685  10.079   9.080   1.598  2.6810 -1.2948  0.9861
15063SOL     OW48686   8.430   2.482   9.409 -0.2812  0.4701  0.0798
15063SOL    HW148687   8.362   2.502   9.473 -0.6706  0.4963 -0.3396
15063SOL    HW248688   8.508   2.527   9.442 -0.9357  2.0582 -0.4319
15064SOL     OW48689  10.341   8.556   4.192 -0.4047  0.1168 -0.3010
15064SOL    HW148690  10.369   8.492   4.127  2.0648  1.2105 -0.4293
15064SOL    HW248691  10.347   8.640   4.147 -0.6657  0.7082  0.7355
15065SOL     OW48692  10.808   5.244  10.374  0.8366  0.2464 -0.1326
15065SOL    HW148693  10.712   5.237  10.376  0.8804 -0.8329 -0.9215
15065SOL    HW248694  10.833   5.254  10.466  0.0698 -1.4063  0.2969
15066SOL     OW48695   3.229   9.438   7.351 -0.3102 -0.1835 -0.2887
15066SOL    HW148696   3.224   9.344   7.334 -1.9028 -0.1434 -0.1586
15066SOL    HW248697   3.232   9.477   7.264 -1.8993 -0.2710 -0.4018
15067SOL     OW48698   3.163   2.715   9.746  0.3579  0.0693 -0.1140
15067SOL    HW148699   3.127   2.634   9.710  0.5826 -0.8975  1.6718
15067SOL    HW248700   3.120   2.785   9.697 -0.1543 -1.1176 -1.4238
15068SOL     OW48701   5.046   3.419   7.544  0.0348 -0.4133  0.1807
15068SOL    HW148702   4.989   3.495   7.547  0.3147 -0.2114  0.3762
15068SOL    HW248703   5.092   3.419   7.628  3.2365  1.6950 -1.3411
15069SOL     OW48704   1.795   1.482   1.001 -0.1260 -0.3466 -0.5118
15069SOL    HW148705   1.763   1.452   0.916  0.7567 -2.5337 -0.1429
15069SOL    HW248706   1.765   1.572   1.007 -0.2733 -0.1432 -3.0960
15070SOL     OW48707   9.861   5.483   5.605  0.3129  0.0018  0.8788
15070SOL    HW148708   9.872   5.507   5.697 -1.3386 -1.2559  1.4496
15070SOL    HW248709   9.853   5.388   5.605 -0.2016  0.0190 -0.5135
15071SOL     OW48710   7.103  10.166   3.025  0.0637 -0.1783  0.5546
15071SOL    HW148711   7.098  10.072   3.041  1.5897 -0.3707  0.0665
15071SOL    HW248712   7.133  10.174   2.934 -0.1076  0.7899  0.5648
15072SOL     OW48713   0.203   8.874   4.069 -0.0595 -0.0605  0.3190
15072SOL    HW148714   0.119   8.912   4.044 -0.3811 -1.1258 -0.2969
15072SOL    HW248715   0.258   8.885   3.991 -0.1416 -0.7616  0.1486
15073SOL     OW48716   3.861   9.994   8.178 -1.0942  0.0711  0.2069
15073SOL    HW148717   3.931   9.970   8.239  0.3684  0.9650 -1.0538
15073SOL    HW248718   3.832  10.080   8.208 -0.4529  0.4594 -0.2506
15074SOL     OW48719   0.743   6.662  10.369 -0.4333  0.4311  0.2748
15074SOL    HW148720   0.814   6.724  10.381 -0.9666  0.8921  1.1951
15074SOL    HW248721   0.775   6.581  10.406 -0.7285  0.8948  1.5838
15075SOL     OW48722   2.816  10.536   0.634 -0.6838  0.1543  0.0830
15075SOL    HW148723   2.811  10.589   0.555  1.1384  1.2566  0.6248
15075SOL    HW248724   2.904  10.498   0.632 -0.7317 -0.0947  1.3688
15076SOL     OW48725   2.685   8.291   3.419 -0.5581  0.1970 -0.1372
15076SOL    HW148726   2.763   8.314   3.368 -1.2118  0.6385 -0.9635
15076SOL    HW248727   2.675   8.196   3.406 -0.3918  0.2108 -0.3721
15077SOL     OW48728   0.163   5.452   6.633 -1.1602 -0.1779  0.8846
15077SOL    HW148729   0.162   5.380   6.569  0.5917  0.5516 -0.0105
15077SOL    HW248730   0.247   5.444   6.676 -0.6311  1.7375  0.2839
15078SOL     OW48731   7.717   0.395  10.538 -0.4329  0.3492 -0.1859
15078SOL    HW148732   7.768   0.364  10.463 -1.5216 -0.2970 -0.6704
15078SOL    HW248733   7.687   0.316  10.582 -0.2700  0.7259  0.6303
15079SOL     OW48734   2.190   5.164   4.660 -0.1028  0.5721  0.3162
15079SOL    HW148735   2.204   5.080   4.617  0.2139  1.3606 -1.1673
15079SOL    HW248736   2.188   5.228   4.589 -2.7336  1.5611  1.1905
15080SOL     OW48737   6.272   7.298   7.748 -0.3558  0.2427  0.2375
15080SOL    HW148738   6.216   7.220   7.748 -0.7594  0.5240  1.3239
15080SOL    HW248739   6.228   7.359   7.690  0.2635 -0.5293 -1.0962
15081SOL     OW48740   7.875   2.656   3.718  0.2072 -0.4786 -0.1137
15081SOL    HW148741   7.937   2.691   3.653 -1.7746  0.8731 -1.3948
15081SOL    HW248742   7.804   2.719   3.719 -0.1418 -0.7765  3.0157
15082SOL     OW48743   1.809   3.581   9.193 -0.4276 -0.2636  0.0863
15082SOL    HW148744   1.820   3.562   9.100  0.9617  1.8625 -0.2636
15082SOL    HW248745   1.893   3.556   9.232 -0.0665  1.1875  0.2863
15083SOL     OW48746   0.467  10.977   4.956 -0.2948 -0.4104  0.1504
15083SOL    HW148747   0.405  10.913   4.920 -0.7845 -0.2493  0.7006
15083SOL    HW248748   0.533  10.924   5.001 -0.0130 -0.5824 -0.4529
15084SOL     OW48749   4.447   8.193   7.492 -0.4680  0.2887  0.3591
15084SOL    HW148750   4.457   8.287   7.477 -0.4213  0.3029  0.4778
15084SOL    HW248751   4.382   8.186   7.562  1.5055  0.3466  2.3275
15085SOL     OW48752   2.205   9.261   9.695 -0.2714  0.0297 -0.7806
15085SOL    HW148753   2.168   9.204   9.762 -1.9420  1.6603 -0.2165
15085SOL    HW248754   2.129   9.302   9.653  0.7298 -0.6431 -3.4695
15086SOL     OW48755   3.786   7.343   9.439 -0.4417 -0.0028  0.4867
15086SOL    HW148756   3.695   7.373   9.441  0.0924  1.7391  0.5680
15086SOL    HW248757   3.815   7.360   9.350 -0.3773 -1.2078  0.2646
15087SOL     OW48758   6.048   3.399   0.221 -0.0307  0.0624 -0.0023
15087SOL    HW148759   6.106   3.326   0.198  0.4886  1.0117 -1.9686
15087SOL    HW248760   6.008   3.373   0.304 -0.4365 -2.7979 -0.9641
15088SOL     OW48761   4.792   0.254   7.546  0.8532  0.3006  0.2085
15088SOL    HW148762   4.858   0.298   7.600  1.4425  0.8470 -0.9040
15088SOL    HW248763   4.816   0.162   7.549  0.4173  0.2088  1.4729
15089SOL     OW48764   6.501   6.987  10.083 -0.0649  0.6986 -0.2644
15089SOL    HW148765   6.560   7.057  10.055  0.0597  0.0887 -1.5725
15089SOL    HW248766   6.520   6.976  10.176 -0.3031  2.6052  0.0609
15090SOL     OW48767   5.473   6.374   7.084  0.2503  0.1436 -0.5191
15090SOL    HW148768   5.564   6.369   7.055  0.9280 -2.2701  1.7073
15090SOL    HW248769   5.452   6.286   7.113 -2.4760  0.9038  0.1081
15091SOL     OW48770   7.509   6.654   2.411  0.5874  0.3450 -0.1871
15091SOL    HW148771   7.557   6.595   2.353  2.0525  0.2245  1.0766
15091SOL    HW248772   7.418   6.627   2.403  0.4480  1.3467 -3.5952
15092SOL     OW48773   9.341   8.563   2.962 -0.2137 -0.1310 -0.2297
15092SOL    HW148774   9.334   8.493   3.027 -2.0732  0.3656  0.1571
15092SOL    HW248775   9.365   8.640   3.013 -1.1453  0.1433 -0.1899
15093SOL     OW48776  10.268  10.025   7.492 -0.1699  0.0411  0.0479
15093SOL    HW148777  10.299  10.075   7.417 -1.1734  0.1594 -0.3136
15093SOL    HW248778  10.253   9.937   7.458  1.8840 -0.6243  0.7566
15094SOL     OW48779   6.280   2.943   3.603  0.0501  0.2385 -0.2678
15094SOL    HW148780   6.363   2.896   3.603  0.6179  1.1490  1.3895
15094SOL    HW248781   6.303   3.033   3.625 -1.5556 -0.0333  3.2462
15095SOL     OW48782   8.983   1.230   0.115 -0.3964 -0.6067 -0.6011
15095SOL    HW148783   9.005   1.284   0.191 -2.4286 -2.3802  1.3783
15095SOL    HW248784   9.062   1.179   0.098  0.2147  0.1128  0.0314
15096SOL     OW48785   4.035   9.819   3.849  0.4813  0.4574 -0.0986
15096SOL    HW148786   4.097   9.854   3.785 -0.2582 -0.3694 -1.3139
15096SOL    HW248787   4.000   9.741   3.807 -2.0850  1.3995  0.1155
15097SOL     OW48788   9.048   3.339   5.084 -0.3288  0.1230 -0.3649
15097SOL    HW148789   9.120   3.287   5.046 -0.3379  1.4426 -2.3736
15097SOL    HW248790   8.969   3.301   5.047 -0.6026 -0.6408  0.9802
15098SOL     OW48791   7.499   4.569   9.325  0.1920  0.3011 -0.4495
15098SOL    HW148792   7.459   4.496   9.278  1.4130 -0.5481 -0.2205
15098SOL    HW248793   7.484   4.645   9.269  0.1462 -0.3810 -1.3911
15099SOL     OW48794   3.515   0.578   3.161 -0.3643 -0.4529 -0.0680
15099SOL    HW148795   3.497   0.574   3.067 -2.5621  1.1703  0.1950
15099SOL    HW248796   3.556   0.494   3.181  1.6821 -0.2330 -2.7062
15100SOL     OW48797   5.016   5.087   8.440  0.2061  0.2109 -0.1774
15100SOL    HW148798   5.108   5.103   8.465 -0.4235  0.4687  2.3011
15100SOL    HW248799   4.979   5.040   8.515 -1.3441 -1.2532 -1.7742
15101SOL     OW48800   4.700   3.904   2.662 -0.3292 -0.2883 -0.1047
15101SOL    HW148801   4.722   3.858   2.581 -0.2183  1.1167 -0.8990
15101SOL    HW248802   4.723   3.995   2.645 -1.5636  0.2687  1.0336
15102SOL     OW48803   3.916   2.258   5.175  0.8559  0.3418  0.2793
15102SOL    HW148804   3.856   2.329   5.197  1.2023 -0.1152  3.1817
15102SOL    HW248805   3.987   2.266   5.239  2.0682 -1.2592 -0.7746
15103SOL     OW48806   8.267   2.879   5.591  0.1434  0.0971 -0.6029
15103SOL    HW148807   8.344   2.907   5.641 -0.4641 -0.4966  0.7053
15103SOL    HW248808   8.302   2.855   5.505  1.6037 -1.0898  0.2682
15104SOL     OW48809   7.291   9.051   8.830 -0.2456  0.1679  0.1571
15104SOL    HW148810   7.383   9.071   8.812 -0.4999 -0.6257 -2.5065
15104SOL    HW248811   7.286   9.044   8.925  2.4548  0.1639  0.3829
15105SOL     OW48812   9.107   0.240   0.972  0.5966 -0.2330  0.3475
15105SOL    HW148813   9.085   0.213   0.882  1.8575 -1.5071  0.3904
15105SOL    HW248814   9.110   0.158   1.021 -1.3460  0.5481  1.8999
15106SOL     OW48815   6.488   5.443   1.767 -0.2591  0.3996 -0.6173
15106SOL    HW148816   6.405   5.441   1.719 -1.3131  0.8295  1.1182
15106SOL    HW248817   6.481   5.519   1.825  1.8153  1.1032 -1.1826
15107SOL     OW48818   4.037   6.553   7.841 -0.0904 -0.2472  0.2975
15107SOL    HW148819   3.957   6.585   7.882 -0.8684 -0.4605 -0.9920
15107SOL    HW248820   4.020   6.560   7.747  2.2400  1.7586 -0.0632
15108SOL     OW48821   3.994   8.398   4.443  0.0243  0.1242  0.3220
15108SOL    HW148822   3.994   8.339   4.519 -0.7674  0.8566  0.9049
15108SOL    HW248823   3.902   8.401   4.416  0.3560 -0.4873 -0.9709
15109SOL     OW48824   5.029   5.952   7.142  0.0304 -0.0764  0.3424
15109SOL    HW148825   5.012   6.038   7.180  0.4433 -0.6222  1.8273
15109SOL    HW248826   4.946   5.905   7.151  0.3744 -0.5078  1.4600
15110SOL     OW48827   8.223   5.828   2.787  0.2383 -0.1109 -0.0747
15110SOL    HW148828   8.183   5.846   2.872  0.9284 -0.1876  0.2711
15110SOL    HW248829   8.286   5.900   2.775  0.9909 -0.7444  0.0233
15111SOL     OW48830   9.208  10.168   5.373 -0.1276 -0.3712 -0.2425
15111SOL    HW148831   9.242  10.197   5.458 -0.0218  1.7250 -0.9570
15111SOL    HW248832   9.274  10.107   5.340  0.0774 -0.8168  0.9212
15112SOL     OW48833   9.574   7.696   9.044 -0.7946 -0.0409  0.0226
15112SOL    HW148834   9.650   7.653   9.083 -1.9797 -1.1481  1.2182
15112SOL    HW248835   9.516   7.624   9.017 -0.3056  0.6745 -3.3760
15113SOL     OW48836   9.983   9.079   5.377 -0.2266 -0.2549 -0.4108
15113SOL    HW148837  10.009   9.161   5.417  3.7196 -1.6263  0.3021
15113SOL    HW248838   9.936   9.032   5.446  1.5390 -0.3395  0.8028
15114SOL     OW48839   3.282   4.291   4.975 -0.7380 -0.1375 -0.0384
15114SOL    HW148840   3.230   4.237   4.916  0.6651 -1.2456 -0.2998
15114SOL    HW248841   3.286   4.240   5.056 -2.5098  1.2931  1.0181
15115SOL     OW48842   8.256   1.848   7.225  0.2804 -0.0109 -0.2828
15115SOL    HW148843   8.338   1.887   7.195  1.0835 -0.8050  0.8278
15115SOL    HW248844   8.188   1.901   7.182  1.3408  1.3607 -0.3607
15116SOL     OW48845   2.465   4.311   7.644 -0.1747  0.2798  0.1650
15116SOL    HW148846   2.490   4.336   7.733 -2.2778  2.5002  0.2147
15116SOL    HW248847   2.382   4.264   7.655  0.3152 -0.8120 -0.5542
15117SOL     OW48848   6.356   4.969   3.158 -0.0819 -0.4160 -0.0551
15117SOL    HW148849   6.346   4.879   3.128 -1.5176  0.0529 -1.1167
15117SOL    HW248850   6.446   4.974   3.191 -0.1982 -2.4091  0.7024
15118SOL     OW48851   4.242   5.939  10.612 -0.3546 -0.6717 -0.3798
15118SOL    HW148852   4.260   5.889  10.533  0.3583  0.2737 -0.8298
15118SOL    HW248853   4.149   5.926  10.628 -0.3788 -1.3514 -1.0302
15119SOL     OW48854   6.933   6.438   3.889 -0.4058 -0.5375 -0.7460
15119SOL    HW148855   6.988   6.405   3.818  1.0458 -1.2684  0.6415
15119SOL    HW248856   6.941   6.533   3.884  1.2531 -0.6304 -0.4336
15120SOL     OW48857   1.216   3.890   0.760 -0.3261  0.2604 -0.6212
15120SOL    HW148858   1.253   3.802   0.763  0.3021  0.3142 -3.4903
15120SOL    HW248859   1.122   3.876   0.766 -0.1842 -0.4716  0.1667
15121SOL     OW48860   2.635   8.480   0.659 -0.3261  0.7237  0.0076
15121SOL    HW148861   2.674   8.501   0.574 -2.6249 -0.4972 -1.4513
15121SOL    HW248862   2.552   8.528   0.660 -1.1281 -0.6174  0.7971
15122SOL     OW48863   8.842   0.084   1.239 -0.0551 -0.1204 -0.4992
15122SOL    HW148864   8.901   0.054   1.170 -0.0725 -2.3200  0.3548
15122SOL    HW248865   8.872   0.038   1.318 -2.1350 -0.3623  0.2101
15123SOL     OW48866   7.715   3.993   1.249 -0.1118 -0.6236 -0.5761
15123SOL    HW148867   7.647   4.033   1.194  1.1029  2.1796 -0.1921
15123SOL    HW248868   7.682   4.005   1.338  1.1071  1.4359 -0.3360
15124SOL     OW48869   0.248  10.527   4.277  0.2626  0.1924  0.4434
15124SOL    HW148870   0.325  10.505   4.224 -0.2207 -1.0710  0.2325
15124SOL    HW248871   0.185  10.562   4.215  0.7127  1.4316  0.6477
15125SOL     OW48872   7.341   9.489   2.537  0.5778  0.1126  0.0207
15125SOL    HW148873   7.289   9.500   2.617  0.5468 -2.4641  0.4126
15125SOL    HW248874   7.378   9.576   2.521 -1.1276  1.2047  1.6183
15126SOL     OW48875  10.665   9.461   4.372  0.3794 -0.0245  0.2159
15126SOL    HW148876  10.708   9.536   4.332 -1.0926  0.6032 -0.2761
15126SOL    HW248877  10.617   9.420   4.300 -0.5231 -0.1902  0.8961
15127SOL     OW48878   9.662   3.208   7.721 -0.0939  0.1533  0.4603
15127SOL    HW148879   9.567   3.219   7.714 -0.3876 -0.9303  1.9516
15127SOL    HW248880   9.680   3.129   7.671  0.0650  0.4912 -0.0184
15128SOL     OW48881   7.618   2.709   0.717 -0.0070  0.3241 -0.1872
15128SOL    HW148882   7.698   2.746   0.681 -0.1703  0.6294 -0.2458
15128SOL    HW248883   7.637   2.695   0.810  0.3829 -0.3768 -0.3704
15129SOL     OW48884   0.348   0.174   3.031  0.4215 -0.1650  0.1835
15129SOL    HW148885   0.275   0.192   2.972 -0.3939 -0.2412  1.1430
15129SOL    HW248886   0.373   0.260   3.066  0.6320 -0.1711  0.0542
15130SOL     OW48887   9.941   2.875   3.730 -0.0065 -0.1135  0.0422
15130SOL    HW148888   9.893   2.904   3.808 -0.9219 -0.1679 -0.4950
15130SOL    HW248889   9.975   2.955   3.691 -1.0943  0.0941 -0.5016
15131SOL     OW48890   0.952  10.938   9.016  0.4891 -0.1521  0.4146
15131SOL    HW148891   0.986  10.883   9.087  0.4027  0.4578  0.9418
15131SOL    HW248892   0.897  11.003   9.061  0.3680  0.1934 -0.2231
15132SOL     OW48893   6.849   5.033   6.876 -0.6548  0.8458  0.2930
15132SOL    HW148894   6.793   5.012   6.800 -0.3585 -0.9434  0.5077
15132SOL    HW248895   6.854   5.128   6.877 -3.2186  1.0595 -0.0848
15133SOL     OW48896  10.148   1.097   1.296 -0.2897  0.1589  0.4976
15133SOL    HW148897  10.136   1.183   1.256  0.7235 -0.5255 -1.4314
15133SOL    HW248898  10.109   1.036   1.233  1.4596 -0.9873  0.4585
15134SOL     OW48899   0.256   1.140   9.861 -0.3761  0.3547  0.0869
15134SOL    HW148900   0.262   1.052   9.823  1.9719  0.2604  0.5118
15134SOL    HW248901   0.195   1.187   9.804 -0.5341 -1.1183 -1.0226
15135SOL     OW48902   3.171   1.116   5.677 -0.0507  0.1957 -0.2127
15135SOL    HW148903   3.152   1.194   5.624  1.4827 -0.0851 -1.2594
15135SOL    HW248904   3.196   1.151   5.762  0.4292  0.8475 -0.6101
15136SOL     OW48905   4.730   6.173   3.674 -0.0619  0.3086  0.0005
15136SOL    HW148906   4.715   6.093   3.724 -0.2747 -0.4067 -1.1510
15136SOL    HW248907   4.825   6.177   3.662 -0.1757 -0.8211 -1.5350
15137SOL     OW48908   6.535   6.581   3.987  0.4482 -0.3046 -0.6350
15137SOL    HW148909   6.447   6.566   4.023  0.3751 -0.2969 -0.8086
15137SOL    HW248910   6.568   6.494   3.968  0.5429 -0.3168 -0.4218
15138SOL     OW48911   6.878   9.527  10.090  0.3103 -0.2402 -0.1542
15138SOL    HW148912   6.931   9.511  10.168 -0.3051  2.2074  0.8870
15138SOL    HW248913   6.913   9.608  10.053 -2.1606  1.0966  0.1928
15139SOL     OW48914  10.400   2.893   4.717 -0.1520  0.3541 -0.1744
15139SOL    HW148915  10.360   2.816   4.678 -0.6884  0.4689  0.1395
15139SOL    HW248916  10.487   2.863   4.746 -0.5556 -0.2721  0.4172
15140SOL     OW48917   1.778   7.314   4.419 -0.0445 -0.1636 -0.3669
15140SOL    HW148918   1.809   7.401   4.395  1.9658 -0.2643  1.5438
15140SOL    HW248919   1.834   7.254   4.371  0.6526 -0.3582  0.6542
15141SOL     OW48920   4.851   4.401   4.516 -1.1205 -0.1667  0.3946
15141SOL    HW148921   4.925   4.350   4.481 -0.6178  0.7012  0.1747
15141SOL    HW248922   4.825   4.458   4.445 -2.1090 -0.5504  0.4258
15142SOL     OW48923   9.205   9.180   2.605 -0.0320  0.5239 -0.2985
15142SOL    HW148924   9.144   9.250   2.579  0.4734  0.3170 -2.1398
15142SOL    HW248925   9.200   9.116   2.534 -0.0213 -1.0527  1.0623
15143SOL     OW48926   6.824   6.123   2.716  0.5342  0.7410 -0.0916
15143SOL    HW148927   6.897   6.081   2.762 -1.8489 -0.0467  3.4268
15143SOL    HW248928   6.807   6.066   2.641  1.8377 -0.5596  0.5372
15144SOL     OW48929   7.388   2.269   4.317  0.0391 -1.1314 -0.0830
15144SOL    HW148930   7.315   2.207   4.321 -0.2344 -0.9437 -1.5961
15144SOL    HW248931   7.462   2.216   4.287  0.1957 -1.0401  0.1375
15145SOL     OW48932   4.507  10.693   8.413 -0.0207  0.0315 -0.6362
15145SOL    HW148933   4.540  10.666   8.327  2.4779  0.8129  0.0084
15145SOL    HW248934   4.484  10.785   8.403  0.4313  0.1682 -0.4334
15146SOL     OW48935   1.701   7.551  10.785  0.0701  0.0834  0.2417
15146SOL    HW148936   1.752   7.470  10.789 -0.6748 -0.4156 -0.0575
15146SOL    HW248937   1.676   7.559  10.692  1.0557  1.2495  0.0426
15147SOL     OW48938   9.349   0.262   7.495 -0.3255  0.2629  0.1749
15147SOL    HW148939   9.431   0.221   7.470  0.4031  0.2249  2.3712
15147SOL    HW248940   9.286   0.232   7.430  1.3236  0.1334 -1.4450
15148SOL     OW48941   0.447   2.929   8.951 -0.1427 -0.4146 -0.2228
15148SOL    HW148942   0.361   2.925   8.908  0.5418 -2.1660 -1.5525
15148SOL    HW248943   0.474   3.020   8.941 -0.8685 -0.3388 -1.8166
15149SOL     OW48944   1.049  10.877   4.439 -0.4783  0.2512  0.3809
15149SOL    HW148945   1.012  10.830   4.365  1.1756  0.7463 -0.8207
15149SOL    HW248946   1.026  10.824   4.516 -1.9298 -0.4473 -0.4981
15150SOL     OW48947   5.428   0.972   9.024 -0.0292  0.3307 -0.1485
15150SOL    HW148948   5.422   0.881   8.996  2.4214  0.5693 -1.7822
15150SOL    HW248949   5.479   0.969   9.105 -1.4097  0.1569  0.7382
15151SOL     OW48950   6.630   5.064  10.257  0.0071 -0.1753  0.3699
15151SOL    HW148951   6.541   5.076  10.291  0.4671  1.5471  1.0623
15151SOL    HW248952   6.668   5.151  10.258  1.6203 -0.8387 -0.2033
15152SOL     OW48953   4.443   6.994   7.554  0.9874 -0.7896 -0.3954
15152SOL    HW148954   4.428   7.038   7.471 -0.2526 -1.0390 -0.3218
15152SOL    HW248955   4.408   7.054   7.620 -0.3564 -1.6680 -0.2635
15153SOL     OW48956   0.272  10.518   1.433  0.1492  0.4396  0.0764
15153SOL    HW148957   0.288  10.452   1.365  0.7537 -0.5095  1.1162
15153SOL    HW248958   0.177  10.534   1.429 -0.2674 -1.5771  0.7563
15154SOL     OW48959  10.705   4.416  10.493 -0.0502 -0.0032 -0.0269
15154SOL    HW148960  10.744   4.433  10.579  0.7863  0.4303 -0.4755
15154SOL    HW248961  10.742   4.484  10.436  0.7598 -1.2915 -1.1200
15155SOL     OW48962   1.403   3.326   8.636  0.0044  0.5779  0.1207
15155SOL    HW148963   1.432   3.371   8.715  0.3670  0.7739 -0.1224
15155SOL    HW248964   1.351   3.392   8.589  0.2884  0.6547 -0.0920
15156SOL     OW48965   9.285   6.709  10.778 -0.2306 -0.1137 -0.8360
15156SOL    HW148966   9.224   6.656  10.728  1.3755 -2.6296 -0.3568
15156SOL    HW248967   9.366   6.657  10.779  1.2826  2.0948  0.2573
15157SOL     OW48968   1.194   0.844   0.133  0.6902  0.4069  0.0511
15157SOL    HW148969   1.132   0.911   0.161  1.1067  0.4418  0.9209
15157SOL    HW248970   1.149   0.761   0.148 -0.2583  0.4777 -2.0590
15158SOL     OW48971   3.585   9.021   4.376 -0.0743 -0.3833 -0.0212
15158SOL    HW148972   3.582   8.937   4.422 -0.8537 -0.1679  0.3467
15158SOL    HW248973   3.508   9.068   4.408 -0.2654  0.0352 -1.0678
15159SOL     OW48974   0.336   0.678   0.397 -0.0837 -0.2871 -0.1395
15159SOL    HW148975   0.315   0.771   0.409 -0.5591 -0.2116 -1.3873
15159SOL    HW248976   0.431   0.675   0.401 -0.0924  0.1599  0.5463
15160SOL     OW48977   6.899   2.127  10.908  0.2731  0.6169  0.1918
15160SOL    HW148978   6.924   2.060  10.971  0.1746 -1.3689 -1.7262
15160SOL    HW248979   6.972   2.130  10.846  0.6720  2.9767  0.6760
15161SOL     OW48980   1.603   0.236   2.759  0.2905  0.0404 -0.1471
15161SOL    HW148981   1.520   0.284   2.758 -0.7601 -1.6166 -2.0415
15161SOL    HW248982   1.662   0.289   2.811 -1.1932  2.6361 -0.9601
15162SOL     OW48983   2.090   7.306   5.496 -0.0864  0.8055  0.3149
15162SOL    HW148984   2.151   7.315   5.423 -0.1627 -0.5697  0.0429
15162SOL    HW248985   2.025   7.374   5.482 -0.9237 -0.3370 -1.7498
15163SOL     OW48986   7.381   5.191   0.514  0.2650  0.4412  0.1342
15163SOL    HW148987   7.465   5.146   0.521  0.0303  0.1331  1.1143
15163SOL    HW248988   7.403   5.284   0.516  0.5135  0.3719  1.6045
15164SOL     OW48989   4.590   0.499   9.227  0.1574 -0.3558  0.4286
15164SOL    HW148990   4.685   0.494   9.239  0.5561  2.9121 -0.5733
15164SOL    HW248991   4.559   0.556   9.297 -1.2668 -1.9825  1.2137
15165SOL     OW48992  10.760   9.678  10.797 -0.0585 -0.1414  0.2229
15165SOL    HW148993  10.749   9.718  10.711  2.1159  0.7243  0.2964
15165SOL    HW248994  10.834   9.619  10.788 -1.3270 -1.9215  0.9211
15166SOL     OW48995   6.180   1.227   5.525 -0.1051 -0.3851 -0.5520
15166SOL    HW148996   6.107   1.188   5.572 -1.0162 -0.9946 -2.3938
15166SOL    HW248997   6.227   1.153   5.486  0.4009  0.1197 -0.9298
15167SOL     OW48998   1.347   0.562   5.037 -0.2967 -0.0843  0.1711
15167SOL    HW148999   1.434   0.529   5.057 -0.1178  0.6830  0.6889
15167SOL    HW249000   1.314   0.503   4.969  0.5194 -0.5327  0.1537
15168SOL     OW49001  10.360   8.312   4.068 -0.3787  0.6977  0.7983
15168SOL    HW149002  10.434   8.277   4.118  1.2598 -0.5730 -2.3060
15168SOL    HW249003  10.400   8.362   3.997 -2.4693  0.0783 -0.9180
15169SOL     OW49004   3.306   8.699   4.156 -0.4879 -0.1136  0.0848
15169SOL    HW149005   3.246   8.625   4.165 -0.8970  0.3078  0.8853
15169SOL    HW249006   3.383   8.662   4.112 -2.4121 -0.0394 -3.7714
15170SOL     OW49007   8.999   7.284   2.405  0.6513 -0.1339 -0.4817
15170SOL    HW149008   9.025   7.277   2.497 -0.9134  2.0827  0.1993
15170SOL    HW249009   9.012   7.376   2.384  1.4098 -0.6900 -2.6604
15171SOL     OW49010   7.654  10.404   0.831 -0.1126 -0.5984 -0.3140
15171SOL    HW149011   7.652  10.499   0.819  1.3034 -0.4432  0.4178
15171SOL    HW249012   7.562  10.380   0.847 -0.5630  0.5576 -1.0254
15172SOL     OW49013   9.813   6.517   7.248 -0.4605 -0.2796 -0.2211
15172SOL    HW149014   9.741   6.479   7.198 -0.1663 -0.1669 -0.7366
15172SOL    HW249015   9.810   6.610   7.226  0.5827 -0.4561 -1.1903
15173SOL     OW49016   0.375   3.102   7.517 -0.4382  0.0342 -0.2468
15173SOL    HW149017   0.387   3.056   7.600  1.7834 -1.0198 -1.0804
15173SOL    HW249018   0.294   3.065   7.481 -1.8827  1.1051  1.7721
15174SOL     OW49019   1.815   3.698  10.205  0.2759 -0.1109 -0.2122
15174SOL    HW149020   1.886   3.762  10.199 -0.0432  0.2017 -0.7791
15174SOL    HW249021   1.735   3.752  10.207  0.0800 -0.4238  1.1473
15175SOL     OW49022   9.498   9.228   0.567  0.0869  0.3935 -0.0772
15175SOL    HW149023   9.462   9.300   0.515  1.2858  0.0900 -1.4067
15175SOL    HW249024   9.535   9.168   0.502  2.6456  0.5095  1.1591
15176SOL     OW49025   5.752   3.111   4.801 -0.1154 -0.0468 -0.2964
15176SOL    HW149026   5.836   3.098   4.755 -1.4239 -1.2035 -2.5295
15176SOL    HW249027   5.743   3.032   4.855  1.3705  1.2610  2.0224
15177SOL     OW49028   2.624   1.461   4.115  0.2098  0.2803  0.0299
15177SOL    HW149029   2.615   1.519   4.039 -0.0739 -0.3280 -0.4076
15177SOL    HW249030   2.676   1.387   4.083  1.3740  0.7229  0.8362
15178SOL     OW49031  10.381   6.990   1.792  0.3871 -0.1224  0.6033
15178SOL    HW149032  10.320   6.917   1.790  0.8006 -0.4564 -0.7791
15178SOL    HW249033  10.439   6.975   1.717  2.3125  0.0520  1.9826
15179SOL     OW49034   5.960   3.901   1.592 -0.2119 -0.5890  0.0070
15179SOL    HW149035   6.017   3.931   1.662 -0.7126 -1.5877  0.8751
15179SOL    HW249036   5.921   3.981   1.557 -0.1679 -0.0848  1.0644
15180SOL     OW49037   5.117   5.448   9.092 -0.1920  0.6265 -0.2388
15180SOL    HW149038   5.090   5.529   9.137 -1.2803 -0.1325  0.5334
15180SOL    HW249039   5.212   5.449   9.097 -0.2568  0.6344  2.0487
15181SOL     OW49040   9.444   6.644   0.862 -0.0386  0.2980  0.0835
15181SOL    HW149041   9.516   6.666   0.804  0.8199  0.9973  1.3525
15181SOL    HW249042   9.483   6.588   0.929 -0.7674  0.3139  0.5375
15182SOL     OW49043   2.342   3.574   9.418 -0.1138  0.2569  0.6786
15182SOL    HW149044   2.278   3.545   9.353  1.1336  1.6615 -1.3007
15182SOL    HW249045   2.290   3.601   9.493 -1.9126  1.4800 -0.9182
15183SOL     OW49046   9.824   4.602   1.831  0.8120 -0.6923 -0.2462
15183SOL    HW149047   9.866   4.539   1.890 -0.0918 -2.0381 -0.9947
15183SOL    HW249048   9.755   4.642   1.885  0.8341 -0.9643 -0.0134
15184SOL     OW49049   0.847  10.301   0.656 -0.3760 -0.1849  0.6317
15184SOL    HW149050   0.847  10.388   0.696  1.0169  0.3516 -0.4851
15184SOL    HW249051   0.908  10.250   0.709  0.8774  0.3073 -0.3028
15185SOL     OW49052   7.214   6.605   3.320  0.5375 -0.4089 -0.2522
15185SOL    HW149053   7.242   6.514   3.324  1.1257 -0.2253  3.1840
15185SOL    HW249054   7.122   6.604   3.346 -0.1045 -0.1410 -2.3207
15186SOL     OW49055  10.908   7.852   4.873  0.1396 -0.0170  0.5857
15186SOL    HW149056  10.902   7.784   4.940  0.2887  0.1936  0.8162
15186SOL    HW249057  10.927   7.805   4.792  1.9846 -0.1173  1.0378
15187SOL     OW49058   2.841   7.609  10.040 -0.0210  0.2853 -0.2036
15187SOL    HW149059   2.754   7.645  10.024  1.5036  4.7013 -0.0129
15187SOL    HW249060   2.867   7.645  10.125  1.8271 -1.3660  0.0251
15188SOL     OW49061   5.091   8.047   4.648  0.0425  0.1785 -0.7234
15188SOL    HW149062   5.179   8.009   4.647  0.2511  0.4646  1.4670
15188SOL    HW249063   5.106   8.141   4.660 -0.5604  0.1303  0.5086
15189SOL     OW49064   9.055   8.613   3.248 -1.1672 -0.4023  0.2426
15189SOL    HW149065   9.084   8.657   3.328  0.8024  1.8695 -1.5474
15189SOL    HW249066   8.984   8.668   3.215  2.0275  2.5275 -2.5910
15190SOL     OW49067   2.079   3.785   9.162 -0.8171  0.3741  0.6254
15190SOL    HW149068   2.137   3.716   9.130  0.4894  1.7071  0.0228
15190SOL    HW249069   2.072   3.769   9.257 -2.1841 -1.7305  0.2441
15191SOL     OW49070   3.522  10.895   6.920 -0.4375 -0.6283 -0.2781
15191SOL    HW149071   3.561  10.932   6.841 -2.3794 -0.2344 -1.0970
15191SOL    HW249072   3.552  10.952   6.991 -1.4302  1.1009 -1.2009
15192SOL     OW49073   2.855   5.211   5.523  0.1615 -0.4561 -0.0532
15192SOL    HW149074   2.828   5.219   5.614  0.7491 -0.2483  0.1077
15192SOL    HW249075   2.921   5.141   5.524  1.5454  0.8032  0.0000
15193SOL     OW49076   8.966   9.882   1.996 -0.1867  0.2625  0.1312
15193SOL    HW149077   8.871   9.876   2.010 -0.2761  0.6330 -0.3074
15193SOL    HW249078   8.997   9.792   2.004 -0.5872  0.1291  0.2117
15194SOL     OW49079   8.582   9.897   5.320 -0.6483  0.4039  0.1788
15194SOL    HW149080   8.643   9.862   5.255  0.2932 -0.1572  1.3258
15194SOL    HW249081   8.507   9.838   5.315 -0.1705 -0.2285  0.2706
15195SOL     OW49082   2.718   0.045   4.454  0.5071  0.2062  0.1261
15195SOL    HW149083   2.762   0.027   4.537 -0.8622 -2.2116  0.4214
15195SOL    HW249084   2.786   0.032   4.388  0.9562 -0.6964  0.7373
15196SOL     OW49085   9.448   5.257   9.697  0.3871 -0.5637  0.3313
15196SOL    HW149086   9.517   5.220   9.753  0.1239 -1.9404 -0.1936
15196SOL    HW249087   9.486   5.255   9.609 -0.5172 -1.9995 -0.0720
15197SOL     OW49088   2.005   5.271   5.113 -0.2703  0.1874 -0.0595
15197SOL    HW149089   1.987   5.250   5.021  1.3865  0.3219 -0.4431
15197SOL    HW249090   2.095   5.304   5.113  0.9102 -2.6642  2.0055
15198SOL     OW49091   2.915   1.226   5.056 -0.1574 -0.5519 -0.1538
15198SOL    HW149092   2.955   1.194   4.975  0.7030 -1.6020  0.6497
15198SOL    HW249093   2.829   1.258   5.030  0.9815  1.3486 -1.8709
15199SOL     OW49094   9.055   4.528   6.713  0.1920 -0.1365  0.4268
15199SOL    HW149095   9.088   4.461   6.654 -0.3235 -3.5557  3.6668
15199SOL    HW249096   9.122   4.596   6.713  2.4361 -2.2422 -0.5595
15200SOL     OW49097   1.177   5.133   8.868 -0.6079  0.3157  0.4465
15200SOL    HW149098   1.099   5.078   8.871  0.1024 -0.6947  1.9021
15200SOL    HW249099   1.224   5.105   8.789 -0.4934 -0.8762  0.9130
15201SOL     OW49100   3.627   7.208   0.311  0.1679 -0.5460 -0.3568
15201SOL    HW149101   3.547   7.257   0.293 -0.2426 -0.8249  0.6523
15201SOL    HW249102   3.600   7.141   0.374  1.3573 -0.1521  0.6062
15202SOL     OW49103   4.371   3.687   7.624 -0.1992  0.2354 -0.4323
15202SOL    HW149104   4.340   3.722   7.540  0.2993 -0.4898 -0.9328
15202SOL    HW249105   4.323   3.604   7.634  0.9376 -0.4843 -0.8121
15203SOL     OW49106   8.158   5.133   1.522  0.1612 -0.3649  0.1475
15203SOL    HW149107   8.190   5.096   1.605  0.8053 -0.0695  0.0375
15203SOL    HW249108   8.165   5.061   1.459 -1.4654 -0.9577  0.6026
15204SOL     OW49109   3.098   8.934   9.246  0.2792  0.0264 -0.2534
15204SOL    HW149110   3.124   9.020   9.212 -0.9587  1.4514  2.1277
15204SOL    HW249111   3.022   8.952   9.301 -0.1161 -2.6542  0.2151
15205SOL     OW49112   8.295  10.941   7.850 -0.0484  0.3045 -0.7090
15205SOL    HW149113   8.240  10.986   7.785  0.0037 -0.9282 -1.6476
15205SOL    HW249114   8.247  10.950   7.932  0.5415  3.1159 -0.5707
15206SOL     OW49115   3.761   4.166   3.732  0.5667 -0.0326  0.5946
15206SOL    HW149116   3.744   4.257   3.709  1.2746  0.2432  1.1167
15206SOL    HW249117   3.683   4.137   3.780  1.1032  0.8894  2.0824
15207SOL     OW49118   0.285   4.186   6.518 -0.4326  0.3088 -0.2656
15207SOL    HW149119   0.220   4.255   6.534 -0.6181  0.3642 -1.1786
15207SOL    HW249120   0.314   4.201   6.428  0.1728 -0.2784 -0.1759
15208SOL     OW49121   8.923   7.500   1.711 -0.1408 -0.4007 -0.3482
15208SOL    HW149122   8.925   7.540   1.624  0.4423 -0.3485 -0.3151
15208SOL    HW249123   8.850   7.543   1.755 -0.0897 -0.0242 -0.6263
15209SOL     OW49124   3.966   8.445   2.511 -0.1793  0.3153  0.0808
15209SOL    HW149125   3.970   8.353   2.535 -1.9232  0.0617 -0.4693
15209SOL    HW249126   4.009   8.491   2.583  0.9814 -0.9221  0.2124
15210SOL     OW49127   6.300   6.256   3.485  0.4433  0.5159 -0.5971
15210SOL    HW149128   6.350   6.266   3.566 -0.7254 -0.6141  0.3301
15210SOL    HW249129   6.267   6.344   3.466 -1.9665  0.3449  2.0550
15211SOL     OW49130   9.944   0.830   1.411 -0.2587 -0.2871 -0.8776
15211SOL    HW149131  10.038   0.838   1.423 -0.5678  0.3051  1.9897
15211SOL    HW249132   9.916   0.768   1.479 -2.2295  1.9644  0.5435
15212SOL     OW49133   2.899   1.849   0.725  0.4863 -0.0420  0.4102
15212SOL    HW149134   2.820   1.893   0.756 -1.0431 -2.0760 -0.4214
15212SOL    HW249135   2.971   1.901   0.761 -1.1900  0.6128  3.0882
15213SOL     OW49136   2.212   5.763  10.300  0.4657  0.1838 -0.0834
15213SOL    HW149137   2.287   5.713  10.267  0.2204  0.2139 -0.7010
15213SOL    HW249138   2.238   5.854  10.290 -0.1885  0.2190 -1.6004
15214SOL     OW49139   3.332   7.759   3.107  0.7057  0.3047 -0.1990
15214SOL    HW149140   3.361   7.837   3.154  0.1751  0.1864  0.3435
15214SOL    HW249141   3.341   7.688   3.171  0.2735  0.0847 -0.3784
15215SOL     OW49142   6.680   0.220   4.202  0.9822 -0.9202 -0.1309
15215SOL    HW149143   6.769   0.200   4.175  1.6130 -0.7000  1.6254
15215SOL    HW249144   6.689   0.298   4.258 -0.0885 -1.7009  1.2057
15216SOL     OW49145   0.978  10.373   4.289  0.1134 -0.6103 -0.0340
15216SOL    HW149146   1.072  10.359   4.277  0.1899  0.1910 -0.4239
15216SOL    HW249147   0.938  10.335   4.211  0.1807 -0.1752 -0.2784
15217SOL     OW49148   5.191   7.854   5.425 -0.0920  0.0062  0.3201
15217SOL    HW149149   5.134   7.922   5.463 -0.4520 -0.8339  1.3445
15217SOL    HW249150   5.238   7.818   5.500  0.5375 -0.4710 -0.2960
15218SOL     OW49151   5.941   0.323   1.270  0.2980 -0.2675 -0.2194
15218SOL    HW149152   5.877   0.393   1.257 -0.5161 -0.9955 -0.2044
15218SOL    HW249153   5.997   0.354   1.341 -0.7436 -0.0910  0.5577
15219SOL     OW49154   0.764   5.167   9.423  0.2148  0.0917  0.1826
15219SOL    HW149155   0.804   5.093   9.378  1.4234  0.5603  0.4442
15219SOL    HW249156   0.708   5.208   9.357 -1.2300 -1.6027  0.3181
15220SOL     OW49157   2.254   3.411   0.488  0.0587  0.1081 -0.4015
15220SOL    HW149158   2.174   3.360   0.481 -0.8948  1.1122  2.1357
15220SOL    HW249159   2.284   3.422   0.398 -2.6769 -0.2223 -1.4213
15221SOL     OW49160   7.089   9.908   3.122 -0.5116  0.1531 -0.5011
15221SOL    HW149161   7.007   9.923   3.169 -1.2962  0.9997 -2.0353
15221SOL    HW249162   7.079   9.821   3.084  0.6934 -1.1202  1.9050
15222SOL     OW49163   6.383  10.148   9.081 -0.3606  0.3794  0.2403
15222SOL    HW149164   6.418  10.111   9.162  0.8284  1.3068  0.1749
15222SOL    HW249165   6.289  10.159   9.098 -0.5095 -1.3652  0.7294
15223SOL     OW49166   4.783   8.615   0.890  0.7240  0.2781  0.1258
15223SOL    HW149167   4.713   8.671   0.854  1.3773  0.6011 -0.6670
15223SOL    HW249168   4.772   8.532   0.843  0.3828  0.0643  0.5770
15224SOL     OW49169   8.337   0.810   2.194 -0.2279 -0.3402 -0.0972
15224SOL    HW149170   8.295   0.866   2.129  0.7312  0.0507 -0.3954
15224SOL    HW249171   8.278   0.812   2.269 -0.8717 -0.0200 -0.6003
15225SOL     OW49172   9.124   8.675   4.058  0.2850  0.6489 -0.1024
15225SOL    HW149173   9.091   8.765   4.049 -0.2537  0.3701 -0.9764
15225SOL    HW249174   9.218   8.682   4.042  0.1097  0.9322 -1.0858
15226SOL     OW49175   6.954   0.864   6.505  0.1142  0.4855 -0.6322
15226SOL    HW149176   6.876   0.894   6.552 -0.3362 -0.2753 -0.8625
15226SOL    HW249177   7.004   0.943   6.488 -0.2865  0.9144  0.0991
15227SOL     OW49178  10.551   8.625   8.616  0.0989  0.1408  0.3259
15227SOL    HW149179  10.542   8.701   8.558  0.9669 -0.1248 -0.1830
15227SOL    HW249180  10.462   8.592   8.626 -0.2635  1.0779  0.3630
15228SOL     OW49181   6.647   6.477   7.394 -0.0359 -0.3172  0.6710
15228SOL    HW149182   6.575   6.446   7.450  1.6073 -2.7635  1.6083
15228SOL    HW249183   6.677   6.558   7.436 -0.2824 -0.9342  2.0899
15229SOL     OW49184   5.289   1.093   8.822  0.2859  0.4612 -0.0000
15229SOL    HW149185   5.325   1.053   8.901  1.9402  1.5749 -0.1411
15229SOL    HW249186   5.195   1.093   8.836  0.3177 -1.9657  0.6946
15230SOL     OW49187   3.354   8.867   7.460  0.8305 -0.8822  0.2324
15230SOL    HW149188   3.311   8.939   7.506 -0.9206  0.0275 -2.5430
15230SOL    HW249189   3.442   8.901   7.442  0.4865  0.0197  0.1719
15231SOL     OW49190  10.531  10.738   0.018  0.1487 -0.1433 -0.3768
15231SOL    HW149191  10.513  10.822  -0.024  1.3774  0.5802  0.4943
15231SOL    HW249192  10.540  10.676  -0.054 -1.8635  0.2207 -0.9935
15232SOL     OW49193  10.943   3.108   2.391  0.1028  0.1905  0.2367
15232SOL    HW149194  10.899   3.025   2.410 -0.4069  0.6975  1.4004
15232SOL    HW249195  10.877   3.175   2.411  0.2602  0.8624 -1.4009
15233SOL     OW49196   6.078   3.672   8.571  0.3303 -0.1297  0.4077
15233SOL    HW149197   6.124   3.603   8.524  1.6677 -0.6874  2.3704
15233SOL    HW249198   6.131   3.750   8.557  0.8461 -0.3417  1.0796
15234SOL     OW49199   9.055   4.576   0.590  0.0728 -0.4730  0.3014
15234SOL    HW149200   8.963   4.552   0.603 -0.8445  3.0021  1.3157
15234SOL    HW249201   9.086   4.517   0.521 -2.3961 -2.8126  1.0098
15235SOL     OW49202   5.319   8.233   4.112 -0.3712  0.0950  0.3598
15235SOL    HW149203   5.266   8.312   4.119 -0.0383  0.6573 -2.4371
15235SOL    HW249204   5.408   8.262   4.133 -0.4943  0.0830  0.9169
15236SOL     OW49205   2.614  10.035   5.022 -0.0125  0.0827 -0.5794
15236SOL    HW149206   2.576  10.064   5.105 -0.9563 -0.0754 -0.9404
15236SOL    HW249207   2.694  10.086   5.014  0.6625 -0.6710  0.9332
15237SOL     OW49208   6.353   9.980   8.803 -0.1330  0.0912  0.4549
15237SOL    HW149209   6.323  10.056   8.752 -3.6030 -1.3904  0.0437
15237SOL    HW249210   6.298   9.980   8.881  1.4383 -0.7555  1.6199
15238SOL     OW49211   9.863  10.966   9.315 -0.1603 -0.2376 -0.0350
15238SOL    HW149212   9.934  11.001   9.370  0.1526 -1.9261  0.6887
15238SOL    HW249213   9.796  11.034   9.318  0.8389  0.7706  0.4450
15239SOL     OW49214   5.252   2.160   3.842  0.4911 -0.2438 -0.0626
15239SOL    HW149215   5.214   2.103   3.909  0.5372 -1.1507 -0.7770
15239SOL    HW249216   5.346   2.155   3.857  0.4560  0.2014  0.3077
15240SOL     OW49217  10.002   1.723   0.991 -0.0510  0.2256  0.2075
15240SOL    HW149218   9.997   1.632   1.020  0.1946  0.3682  0.7309
15240SOL    HW249219  10.091   1.732   0.956 -0.3827  0.0296 -0.6806
15241SOL     OW49220  10.791   8.831   4.519  0.1442 -0.0358  0.6337
15241SOL    HW149221  10.755   8.809   4.433 -0.3187  1.1860  0.4956
15241SOL    HW249222  10.715   8.853   4.572  0.5761  1.2466  0.7400
15242SOL     OW49223   8.912   2.765   7.299 -0.2749 -0.5607 -0.1640
15242SOL    HW149224   8.887   2.853   7.271 -1.3870 -1.2018 -1.3568
15242SOL    HW249225   8.913   2.714   7.218  0.2343 -1.6646  0.5159
15243SOL     OW49226   5.461   6.703   5.828  0.3176  0.1845 -0.0673
15243SOL    HW149227   5.456   6.694   5.923  0.9471 -1.0014 -0.1218
15243SOL    HW249228   5.373   6.683   5.797  0.1361  0.4675  0.2663
15244SOL     OW49229   9.864   6.969   1.403  0.3043 -0.0350  0.1993
15244SOL    HW149230   9.858   6.922   1.320  0.7782 -0.0456  0.1672
15244SOL    HW249231   9.887   7.059   1.377 -0.6940  0.2441  0.2526
15245SOL     OW49232   9.165   0.389  10.442  0.2455  0.5321  0.3357
15245SOL    HW149233   9.186   0.471  10.399  1.4089 -0.0051 -0.1828
15245SOL    HW249234   9.236   0.330  10.416  1.3519  0.3186  3.4187
15246SOL     OW49235   0.953   9.328   9.313 -0.0074 -0.6007 -0.0066
15246SOL    HW149236   1.018   9.303   9.379 -0.1818 -0.7617  0.1050
15246SOL    HW249237   0.975   9.419   9.293  0.6874 -0.8694 -0.4916
15247SOL     OW49238   7.224   6.061   8.894  0.1436  0.2023  0.7626
15247SOL    HW149239   7.214   6.149   8.856  1.5260  0.4190  0.8662
15247SOL    HW249240   7.317   6.041   8.884 -0.1277 -1.1901  0.8986
15248SOL     OW49241   9.217   9.855   5.136  0.3947 -0.5965  0.1994
15248SOL    HW149242   9.275   9.901   5.197  0.1350 -0.5385  0.4008
15248SOL    HW249243   9.273   9.837   5.060  1.1500 -2.0084  1.0439
15249SOL     OW49244   4.634   8.355   2.369  0.0970 -0.1071  0.0410
15249SOL    HW149245   4.583   8.296   2.314 -0.4953 -1.3634  1.8440
15249SOL    HW249246   4.722   8.318   2.369  0.0011 -0.3383  0.2446
15250SOL     OW49247   3.840   9.953   2.685  0.1144 -0.2147 -0.4039
15250SOL    HW149248   3.895  10.030   2.671 -1.2171  1.4461  2.4096
15250SOL    HW249249   3.760   9.972   2.635 -1.0370  1.3857  1.8190
15251SOL     OW49250   2.100   9.110   1.977  0.3319  0.1890  0.1331
15251SOL    HW149251   2.022   9.055   1.966 -0.4243  1.1916  0.3108
15251SOL    HW249252   2.076   9.172   2.046  0.8805  1.2032 -0.5498
15252SOL     OW49253   0.782   6.806   4.510  0.2167 -0.4136  0.2450
15252SOL    HW149254   0.772   6.880   4.570  0.4075  0.1517 -0.4193
15252SOL    HW249255   0.737   6.734   4.554 -0.4615  0.2397  0.6382
15253SOL     OW49256   0.842   9.185   8.827  0.5253 -0.1678 -0.4343
15253SOL    HW149257   0.937   9.170   8.823  0.6895  0.9874 -1.4200
15253SOL    HW249258   0.817   9.206   8.737 -0.6993 -0.6140 -0.2126
15254SOL     OW49259   7.636   1.594   3.867  0.3673  0.1711  0.3142
15254SOL    HW149260   7.613   1.504   3.888 -0.5159  0.7333  1.8846
15254SOL    HW249261   7.553   1.639   3.854  0.7460  0.9624  0.4913
15255SOL     OW49262   4.065   4.032   2.390 -0.4158 -0.0216 -1.0462
15255SOL    HW149263   4.038   3.951   2.433 -0.4227  0.1287 -0.7693
15255SOL    HW249264   4.065   4.098   2.459 -0.7520  0.2933 -1.3450
15256SOL     OW49265   3.421   7.859   4.112 -0.5312 -0.5035 -0.0119
15256SOL    HW149266   3.468   7.937   4.083  0.7717 -0.8682  1.0244
15256SOL    HW249267   3.328   7.883   4.107 -0.2829  0.2534 -2.0714
15257SOL     OW49268   2.094   1.382   0.343  0.0542 -0.0713  0.3084
15257SOL    HW149269   2.153   1.345   0.277  0.2946 -0.1829  0.5839
15257SOL    HW249270   2.131   1.354   0.426  1.2856  2.2556  0.6271
15258SOL     OW49271   8.302   2.814   8.164  0.0153 -0.1925  0.7853
15258SOL    HW149272   8.282   2.757   8.238 -0.8050  1.5055  1.9249
15258SOL    HW249273   8.285   2.903   8.196 -3.8278  0.5373 -2.3743
15259SOL     OW49274   3.704   5.298   6.855  0.0428 -0.3390  0.1609
15259SOL    HW149275   3.673   5.325   6.941 -1.5400  2.3668 -1.1083
15259SOL    HW249276   3.649   5.347   6.793 -0.0301 -3.3994 -2.4702
15260SOL     OW49277   4.514   0.129   1.712 -0.1159  0.0062 -0.5546
15260SOL    HW149278   4.433   0.168   1.681  0.1641  1.1726  0.0949
15260SOL    HW249279   4.491   0.040   1.735 -0.7398 -0.3248 -2.3013
15261SOL     OW49280   5.106   0.052   8.050  0.2922 -0.2610 -0.2242
15261SOL    HW149281   5.198   0.069   8.070  0.2285 -2.1218  2.3174
15261SOL    HW249282   5.057   0.108   8.111 -0.0906 -1.8521  1.0223
15262SOL     OW49283   7.657   2.330   3.218 -0.0356 -0.1785  0.6315
15262SOL    HW149284   7.635   2.268   3.288 -1.2383 -1.2886 -0.6732
15262SOL    HW249285   7.582   2.391   3.215 -1.1300 -1.4978 -1.1088
15263SOL     OW49286   0.557   5.694   8.367  0.0999  0.2617  0.0441
15263SOL    HW149287   0.633   5.706   8.311  0.5727 -1.3407  0.3048
15263SOL    HW249288   0.489   5.750   8.328  1.0262  0.7492 -0.9034
15264SOL     OW49289  10.996   2.027   0.590  0.2857  0.0487  0.7927
15264SOL    HW149290  11.079   2.001   0.550  0.0307  0.2135  0.1543
15264SOL    HW249291  10.998   1.986   0.677 -0.0497 -2.0618 -0.1233
15265SOL     OW49292   6.787   1.578   8.314 -0.0746 -0.0060 -0.0666
15265SOL    HW149293   6.804   1.486   8.293 -1.4199 -0.0659 -1.0341
15265SOL    HW249294   6.856   1.626   8.269  0.2161 -0.5062 -0.1637
15266SOL     OW49295   6.362   9.357   1.070 -0.1425 -0.4680 -0.2380
15266SOL    HW149296   6.284   9.327   1.023 -1.4284  1.4170  0.5593
15266SOL    HW249297   6.404   9.418   1.009 -0.8284  0.6127  0.3516
15267SOL     OW49298   4.791  10.271   6.175 -0.0357 -0.3677  0.2544
15267SOL    HW149299   4.833  10.293   6.258  0.6195 -0.3623 -0.0717
15267SOL    HW249300   4.821  10.339   6.115  1.4423 -1.6902 -0.5832
15268SOL     OW49301  10.752   0.730   9.011 -0.3270  0.0971 -0.6096
15268SOL    HW149302  10.693   0.722   9.086 -0.3570  3.3846 -0.1462
15268SOL    HW249303  10.832   0.685   9.039 -0.6431  0.4954  1.0451
15269SOL     OW49304   9.339   2.517   2.088 -0.1548  0.0965  0.0983
15269SOL    HW149305   9.401   2.459   2.132  0.3379  0.3429 -0.2715
15269SOL    HW249306   9.392   2.570   2.029 -0.4769  1.4761  0.9874
15270SOL     OW49307   9.499   9.126   1.725 -0.4972 -0.2861  0.0982
15270SOL    HW149308   9.479   9.063   1.656 -1.3751 -0.5436  0.5682
15270SOL    HW249309   9.560   9.079   1.783  1.7538  0.5652 -1.4399
15271SOL     OW49310   2.629   3.977   0.438 -0.0184  0.4450 -0.4540
15271SOL    HW149311   2.697   3.976   0.505  0.3822 -1.1666 -0.8492
15271SOL    HW249312   2.613   3.885   0.417 -2.7790  0.7092  0.0598
15272SOL     OW49313   9.255   1.608   4.345  0.2324 -0.0107 -0.6141
15272SOL    HW149314   9.276   1.662   4.269 -0.1363 -1.5019 -1.7981
15272SOL    HW249315   9.160   1.610   4.351  0.2393 -0.2086 -0.4210
15273SOL     OW49316   1.780   5.118   0.803  0.3000 -0.2365 -0.2530
15273SOL    HW149317   1.736   5.176   0.741 -0.0893 -0.4245 -0.1547
15273SOL    HW249318   1.871   5.146   0.801  0.4848 -0.8591 -1.6244
15274SOL     OW49319   2.522   4.985   1.043  0.0106 -0.0096 -0.1077
15274SOL    HW149320   2.616   4.971   1.056 -0.0327  0.0115  0.2350
15274SOL    HW249321   2.492   4.905   1.000 -0.1327 -0.7820  1.3489
15275SOL     OW49322   1.084  10.128   0.728  0.3821 -0.0096 -0.0208
15275SOL    HW149323   1.142  10.053   0.736  2.0124  1.3949  3.6549
15275SOL    HW249324   1.051  10.142   0.817 -1.2583  2.5983 -0.9242
15276SOL     OW49325   2.224   9.227   0.104  0.3212 -0.0341  0.2845
15276SOL    HW149326   2.132   9.202   0.113  1.1716 -3.1571  1.7500
15276SOL    HW249327   2.266   9.195   0.184  2.7438  1.1488 -0.4043
15277SOL     OW49328   2.441   6.097   2.931  0.2406 -0.4200  0.3252
15277SOL    HW149329   2.449   6.100   2.835  1.3776  0.1668  0.4238
15277SOL    HW249330   2.399   6.013   2.948 -0.4831 -0.2958 -0.7129
15278SOL     OW49331   7.980   2.805   6.995 -0.3208 -0.0949 -0.3341
15278SOL    HW149332   7.965   2.897   6.976 -0.2559 -0.1746 -0.7796
15278SOL    HW249333   8.021   2.805   7.082 -3.2685  0.0970  1.1492
15279SOL     OW49334   8.968   6.495   6.338  0.1555 -0.5741  0.0998
15279SOL    HW149335   8.935   6.410   6.369  1.0294 -1.1644 -0.5560
15279SOL    HW249336   9.055   6.503   6.376  0.2468 -0.1695 -0.1866
15280SOL     OW49337   8.155   3.677   3.550 -0.1644 -0.1288 -0.0490
15280SOL    HW149338   8.224   3.673   3.484 -0.5115 -2.3825 -0.3466
15280SOL    HW249339   8.180   3.751   3.606  2.0997 -0.4301 -0.5607
15281SOL     OW49340   6.212   4.145   4.399 -0.3681 -0.4956 -0.6795
15281SOL    HW149341   6.139   4.199   4.430  0.1598 -0.0530 -0.2049
15281SOL    HW249342   6.269   4.135   4.475  0.2030 -0.6221 -1.1206
15282SOL     OW49343   4.557   3.381   8.567 -0.1065 -0.8139  0.5652
15282SOL    HW149344   4.523   3.450   8.510 -0.9058 -0.1575  1.7848
15282SOL    HW249345   4.557   3.303   8.512 -0.9837 -0.2377 -0.3040
15283SOL     OW49346  10.819   7.599   9.757  0.6604  0.0424 -0.5774
15283SOL    HW149347  10.897   7.593   9.812  0.3426 -0.6552 -0.1922
15283SOL    HW249348  10.848   7.567   9.671  0.5872 -1.0982 -0.1978
15284SOL     OW49349   9.267   4.229   8.580  0.0434  0.5708 -0.3057
15284SOL    HW149350   9.255   4.283   8.502  0.8398  0.4398 -0.5305
15284SOL    HW249351   9.179   4.218   8.616 -0.1726  1.7154 -0.4556
15285SOL     OW49352   5.841   9.389   1.662  0.4510 -0.2929 -0.0210
15285SOL    HW149353   5.927   9.348   1.670  0.8080  0.5153  0.3415
15285SOL    HW249354   5.788   9.324   1.616  1.2808 -0.7576 -0.3406
15286SOL     OW49355   8.464   8.887   7.401  0.3204  0.7222 -0.0366
15286SOL    HW149356   8.510   8.848   7.475  1.4176  1.8416 -0.0941
15286SOL    HW249357   8.399   8.945   7.440 -0.3039 -0.0127  0.0393
15287SOL     OW49358   6.373   6.088   2.685  0.5998 -0.2181 -0.4299
15287SOL    HW149359   6.301   6.060   2.741 -1.1049 -1.8254 -3.1670
15287SOL    HW249360   6.452   6.062   2.732 -0.7307 -1.9508  0.9815
15288SOL     OW49361   5.725   9.211   2.454 -0.2058  0.0106  0.0995
15288SOL    HW149362   5.653   9.160   2.492  1.7964 -2.7911  0.4420
15288SOL    HW249363   5.804   9.172   2.491  1.6327  1.2682 -2.2121
15289SOL     OW49364   5.483   4.132   2.764  0.2556 -0.2797  0.8231
15289SOL    HW149365   5.445   4.049   2.792 -1.6010  0.6818  1.2797
15289SOL    HW249366   5.484   4.186   2.843  2.7602 -0.2752  0.8690
15290SOL     OW49367   7.085   1.035  10.286 -0.3120  0.0565  0.1491
15290SOL    HW149368   7.172   1.020  10.248 -0.9055  0.0982 -1.2977
15290SOL    HW249369   7.103   1.064  10.376  1.3396  2.7882 -0.9078
15291SOL     OW49370   2.217   7.340   0.421  0.4523 -0.1931  0.0941
15291SOL    HW149371   2.268   7.421   0.414 -0.3031  0.1714 -1.6453
15291SOL    HW249372   2.133   7.367   0.458 -0.1135 -0.0075 -1.2776
15292SOL     OW49373   3.128   7.517   4.769  0.0545 -0.2744 -0.1431
15292SOL    HW149374   3.162   7.448   4.711 -0.7029  0.4225 -1.4729
15292SOL    HW249375   3.169   7.597   4.738  0.2778  0.0061  0.8443
15293SOL     OW49376   5.992   5.523   5.825 -0.3798  0.1391 -0.0531
15293SOL    HW149377   6.083   5.516   5.855 -0.9222 -1.1257  1.4372
15293SOL    HW249378   5.953   5.588   5.883 -0.7298 -0.2313  0.1282
15294SOL     OW49379   5.090   4.672   5.792 -0.3798  0.5102 -0.2716
15294SOL    HW149380   5.039   4.726   5.732 -0.9663  0.1852 -0.0651
15294SOL    HW249381   5.084   4.584   5.756  2.1669  0.8265 -1.7067
15295SOL     OW49382   4.473   5.619   7.202 -0.1133 -0.0055  0.1808
15295SOL    HW149383   4.504   5.538   7.162  0.5242 -0.4771  1.5607
15295SOL    HW249384   4.531   5.687   7.168  0.8342 -0.4996  0.7545
15296SOL     OW49385  10.735   8.015   7.461 -0.2492  0.2119  0.3455
15296SOL    HW149386  10.726   7.946   7.395  0.0913 -1.0817  1.5858
15296SOL    HW249387  10.665   8.077   7.441 -0.8466 -0.7200 -0.5608
15297SOL     OW49388   0.678   1.383   9.372  0.2997 -0.0774  0.1827
15297SOL    HW149389   0.713   1.364   9.459  1.6529 -1.3584 -0.5865
15297SOL    HW249390   0.703   1.475   9.356 -0.5551  0.3803  1.3876
15298SOL     OW49391   9.736   2.842   7.909 -0.3247  0.4425 -0.0518
15298SOL    HW149392   9.698   2.871   7.826 -0.4352 -0.9080 -0.4993
15298SOL    HW249393   9.822   2.808   7.885 -0.4390 -0.1481  0.3507
15299SOL     OW49394   9.919   4.525   2.106  0.8612  0.2896  0.7041
15299SOL    HW149395  10.003   4.571   2.104  1.1931 -0.3163 -0.8575
15299SOL    HW249396   9.934   4.452   2.166  2.3816 -1.3599 -1.4798
15300SOL     OW49397   6.688   3.486   4.271  0.7368  0.9485  1.0100
15300SOL    HW149398   6.699   3.486   4.366 -2.1105  0.8603  1.4366
15300SOL    HW249399   6.613   3.544   4.256  0.4047  0.0721 -1.0727
15301SOL     OW49400   9.254   6.263  10.416  0.8818 -0.0590 -0.2081
15301SOL    HW149401   9.240   6.358  10.407  1.5831  0.0263 -0.4542
15301SOL    HW249402   9.172   6.230  10.451 -0.1872  0.3268 -2.1933
15302SOL     OW49403   1.066   7.491   7.411  0.1611 -0.0578 -0.2766
15302SOL    HW149404   1.072   7.453   7.323  1.1298  0.7202 -0.5661
15302SOL    HW249405   1.034   7.580   7.396 -0.6325 -0.2358  0.2646
15303SOL     OW49406  10.091   9.210   6.871 -0.0890  0.5453 -0.0165
15303SOL    HW149407  10.113   9.119   6.887 -0.2446  0.5409  0.1795
15303SOL    HW249408   9.998   9.217   6.893 -0.1339  0.6998 -0.2458
15304SOL     OW49409   8.713   5.046   6.031  0.2072 -0.3439  0.3575
15304SOL    HW149410   8.776   5.097   6.082  0.6566 -0.7670  0.2312
15304SOL    HW249411   8.714   5.086   5.944  1.8804 -1.6426 -0.2635
15305SOL     OW49412   3.698  10.186   8.635  0.0605  0.2694 -0.1456
15305SOL    HW149413   3.756  10.233   8.694 -1.5498  0.8843  1.0236
15305SOL    HW249414   3.725  10.094   8.643  0.3353  0.4385  1.0309
15306SOL     OW49415   2.628   8.767   0.435  0.6692  0.4663  0.6519
15306SOL    HW149416   2.548   8.761   0.487 -0.0445  2.0303 -0.2001
15306SOL    HW249417   2.674   8.684   0.451  0.1739  0.6125  3.2276
15307SOL     OW49418   9.863   8.531   0.987 -0.0355 -0.2027  0.1090
15307SOL    HW149419   9.882   8.463   0.923 -0.1507 -0.0476 -0.0905
15307SOL    HW249420   9.923   8.514   1.059  0.5348  0.0015 -0.3103
15308SOL     OW49421   0.562   4.503   5.837 -0.2268 -0.2509  0.0868
15308SOL    HW149422   0.558   4.521   5.743  1.5712  0.8778  0.1781
15308SOL    HW249423   0.562   4.407   5.843  0.7582 -0.3508 -1.1583
15309SOL     OW49424   1.184   7.661  10.493 -0.8468  0.4825  0.4018
15309SOL    HW149425   1.205   7.574  10.526 -1.4610  0.3653  0.5001
15309SOL    HW249426   1.262   7.713  10.511 -1.4462  0.6717  2.9484
15310SOL     OW49427   7.106   9.654   6.144  0.3230 -0.1650 -0.1890
15310SOL    HW149428   7.098   9.719   6.074 -0.6116 -2.1607 -2.0484
15310SOL    HW249429   7.068   9.697   6.221  1.0440  1.9747 -0.9662
15311SOL     OW49430   8.565   9.326   0.555 -0.3029  0.1386  0.4317
15311SOL    HW149431   8.654   9.332   0.591 -0.2247  0.7938  0.1455
15311SOL    HW249432   8.552   9.233   0.539  0.0384 -0.0510  1.2054
15312SOL     OW49433   4.931   7.988   8.976 -0.1079 -0.0070 -0.1463
15312SOL    HW149434   4.876   8.054   9.019 -0.1157 -0.5169  0.6596
15312SOL    HW249435   4.891   7.977   8.890 -1.1254 -0.1602  0.3185
15313SOL     OW49436   2.275   0.377   2.043 -0.3098  0.2217  0.1617
15313SOL    HW149437   2.336   0.399   2.113 -0.3403 -0.5458  0.4316
15313SOL    HW249438   2.214   0.451   2.040  1.4310  1.7124 -1.0419
15314SOL     OW49439   7.660   1.323   0.372 -0.2005  0.0628  0.2573
15314SOL    HW149440   7.613   1.407   0.365 -1.4149 -0.6449 -0.4496
15314SOL    HW249441   7.747   1.347   0.402 -0.3865  1.6295 -0.3619
15315SOL     OW49442   5.371   7.439   8.338  0.1736  0.0393  0.0709
15315SOL    HW149443   5.465   7.437   8.316 -0.1310  0.0680 -1.3549
15315SOL    HW249444   5.328   7.407   8.258 -1.0907  1.0604  0.3262
15316SOL     OW49445   3.208   0.917   6.718 -0.1048  0.0990  0.2925
15316SOL    HW149446   3.147   0.900   6.646 -0.3887  1.3762  0.2122
15316SOL    HW249447   3.293   0.887   6.685 -0.4499 -0.4769 -0.0942
15317SOL     OW49448   9.225   2.956   3.901 -0.7656 -0.0537  0.5515
15317SOL    HW149449   9.203   3.030   3.956  1.0172 -0.6928  2.2358
15317SOL    HW249450   9.280   2.993   3.832  0.0621  0.2306  1.3444
15318SOL     OW49451   9.139  10.279   1.385  0.0958 -0.2265  0.6339
15318SOL    HW149452   9.048  10.268   1.360  0.0359 -0.5351  0.9732
15318SOL    HW249453   9.188  10.247   1.309 -0.0842 -2.8011  1.5094
15319SOL     OW49454   7.837   9.569   7.434  0.3416 -0.5957 -0.1086
15319SOL    HW149455   7.917   9.621   7.442  0.3395 -0.7918  1.3514
15319SOL    HW249456   7.865   9.489   7.388  1.0935 -0.8770  0.8108
15320SOL     OW49457   2.162   8.589   6.320 -0.3048 -0.2535 -0.4539
15320SOL    HW149458   2.183   8.600   6.412  1.6025  0.0338 -0.8780
15320SOL    HW249459   2.078   8.542   6.320  0.1740 -1.2084  1.4215
15321SOL     OW49460   8.572   6.469   3.335  0.0891  0.9000 -0.0491
15321SOL    HW149461   8.641   6.433   3.280  0.0198  1.7147 -0.6893
15321SOL    HW249462   8.536   6.542   3.285 -3.5914 -1.4790 -1.3308
15322SOL     OW49463   8.875   2.196   2.326  0.5295 -0.1555  0.2701
15322SOL    HW149464   8.804   2.157   2.376 -1.1117  1.3811 -0.7465
15322SOL    HW249465   8.842   2.200   2.236  1.1980  2.0765  0.0587
15323SOL     OW49466   7.420   3.478   9.416 -0.1316 -0.7301 -0.0955
15323SOL    HW149467   7.511   3.461   9.440  0.5816  1.2532 -1.1098
15323SOL    HW249468   7.397   3.558   9.464 -0.3878  0.3460 -1.9185
15324SOL     OW49469   9.013   4.234   3.213 -0.4838  0.3529  0.1285
15324SOL    HW149470   9.049   4.148   3.191 -0.9663  0.7278 -2.3840
15324SOL    HW249471   9.090   4.286   3.237 -0.2001 -0.7534  1.8801
15325SOL     OW49472   6.979   3.844  10.036  0.2344 -0.3679 -0.1510
15325SOL    HW149473   6.937   3.930  10.043 -2.5009 -1.5698 -0.2969
15325SOL    HW249474   7.022   3.831  10.120 -0.5135  0.5682  0.3937
15326SOL     OW49475   6.432   7.232   3.255 -0.2945 -0.1529 -0.0991
15326SOL    HW149476   6.514   7.190   3.230 -0.0522  0.6203 -0.6507
15326SOL    HW249477   6.382   7.163   3.299  0.4216 -0.7814 -0.2471
15327SOL     OW49478   7.092   9.254   8.774  0.2267 -0.1635 -0.4162
15327SOL    HW149479   7.139   9.219   8.699  2.8214  2.7432 -0.3593
15327SOL    HW249480   7.138   9.220   8.850  0.5586  0.5534 -0.2874
15328SOL     OW49481   9.122   4.773   6.455  0.1755  0.1788 -0.0094
15328SOL    HW149482   9.191   4.707   6.446 -0.2926 -0.2316 -0.6827
15328SOL    HW249483   9.138   4.813   6.540  2.3664  1.3848 -0.9185
15329SOL     OW49484   6.130   1.287   6.422 -0.1215 -0.0536  0.8070
15329SOL    HW149485   6.218   1.261   6.396 -1.4305 -2.1342 -2.0838
15329SOL    HW249486   6.112   1.236   6.501  1.0812  0.0706  1.1748
15330SOL     OW49487   7.386   7.800   6.581  0.2658 -0.5746  0.3271
15330SOL    HW149488   7.435   7.867   6.628 -1.9223  0.7828  0.8635
15330SOL    HW249489   7.399   7.821   6.489  0.8284 -0.3615  0.4521
15331SOL     OW49490   5.363   5.123   9.928  0.3816  0.4587 -0.1021
15331SOL    HW149491   5.403   5.114   9.841 -0.3514  2.6634 -0.7380
15331SOL    HW249492   5.427   5.084   9.988  0.8992 -1.1160 -1.6111
15332SOL     OW49493   8.731   9.030   8.822 -0.2674  0.2389  0.3962
15332SOL    HW149494   8.719   9.105   8.880 -0.4248  0.3581  0.2133
15332SOL    HW249495   8.643   8.995   8.810 -0.1624 -0.1146  0.6657
15333SOL     OW49496   4.823   3.258   6.788 -0.2785  0.0055 -0.1258
15333SOL    HW149497   4.832   3.187   6.724  2.6568  0.9464 -0.8934
15333SOL    HW249498   4.828   3.338   6.736  1.1732  0.7825  1.1680
15334SOL     OW49499   7.844   6.893   7.463  0.1721  0.6320  0.3767
15334SOL    HW149500   7.787   6.884   7.387 -0.0706 -0.3592  0.6589
15334SOL    HW249501   7.921   6.941   7.431  0.0207  0.3273 -0.4576
15335SOL     OW49502   6.174  10.295   5.818  0.4154 -0.2143  0.7034
15335SOL    HW149503   6.260  10.272   5.852 -0.0365 -0.2743  1.8556
15335SOL    HW249504   6.187  10.378   5.772  0.8990  0.3485  1.8167
15336SOL     OW49505   0.851   9.225   7.680  0.0421  0.2432  0.5026
15336SOL    HW149506   0.896   9.149   7.714 -0.2519 -0.3136 -0.3242
15336SOL    HW249507   0.858   9.218   7.585 -0.9086  0.6675  0.3792
15337SOL     OW49508   5.744   3.146  10.018 -0.3152 -0.2972  0.0183
15337SOL    HW149509   5.726   3.164  10.111  0.4240  0.4868  0.0275
15337SOL    HW249510   5.820   3.202   9.998  0.2275 -1.2908 -0.7635
15338SOL     OW49511   7.630   2.111   7.460 -0.0257 -0.3184  0.1254
15338SOL    HW149512   7.541   2.137   7.439 -0.6413 -0.7515  1.9869
15338SOL    HW249513   7.684   2.151   7.392 -1.5629  0.5162 -0.6467
15339SOL     OW49514   4.864   0.020   4.065 -0.0741 -0.1749 -0.6309
15339SOL    HW149515   4.895   0.055   4.148  1.8465  0.8960 -1.7292
15339SOL    HW249516   4.918  -0.058   4.050 -2.0647 -1.8254  0.2034
15340SOL     OW49517   7.815   9.986  10.854  0.3434 -0.0380  0.1708
15340SOL    HW149518   7.780  10.040  10.783  0.8476  0.6576  0.4515
15340SOL    HW249519   7.737   9.945  10.892  0.1639 -1.6442 -1.7354
15341SOL     OW49520   5.624   2.701  10.675  0.6774  0.3060  0.2136
15341SOL    HW149521   5.714   2.699  10.707  2.0768 -0.2979 -3.3431
15341SOL    HW249522   5.614   2.789  10.638  1.1267 -0.7151 -2.5362
15342SOL     OW49523   8.021   7.889   4.915  0.0508 -0.2041  0.3560
15342SOL    HW149524   8.004   7.929   4.830  0.2415  0.6923  0.7248
15342SOL    HW249525   8.104   7.843   4.905 -0.2349 -0.6219 -0.1110
15343SOL     OW49526   2.159   9.921   8.543 -0.2511  0.5033 -0.2477
15343SOL    HW149527   2.248   9.937   8.576 -0.2374  1.3601 -0.6768
15343SOL    HW249528   2.171   9.907   8.449 -0.4904 -0.1851 -0.1833
15344SOL     OW49529   9.773   3.481   0.127 -0.2545 -0.4374 -0.0570
15344SOL    HW149530   9.779   3.500   0.220  0.7061  3.3708 -0.7213
15344SOL    HW249531   9.863   3.458   0.102 -0.4846 -1.3226 -0.1064
15345SOL     OW49532   8.682   7.431   9.626 -0.3081 -0.2629  0.9050
15345SOL    HW149533   8.653   7.514   9.590 -0.9458 -0.4293  1.0158
15345SOL    HW249534   8.771   7.420   9.594 -0.5566  0.0057  0.1066
15346SOL     OW49535   9.786  10.840   3.030  0.1917 -0.3381  0.0044
15346SOL    HW149536   9.880  10.826   3.022  0.0216 -1.6327  0.1627
15346SOL    HW249537   9.754  10.764   3.079 -1.0885 -0.4344 -0.9378
15347SOL     OW49538   2.302   4.288   8.210  0.4777  0.7834  0.1125
15347SOL    HW149539   2.233   4.305   8.274 -0.1574 -0.9129 -0.0545
15347SOL    HW249540   2.329   4.198   8.228 -1.4652 -0.7400 -3.4877
15348SOL     OW49541  10.246  10.246   3.606 -0.1871  0.0107  0.2967
15348SOL    HW149542  10.217  10.155   3.595 -0.3231 -0.1113  1.5698
15348SOL    HW249543  10.335  10.247   3.570  0.0940 -0.8125  0.9351
15349SOL     OW49544   7.211   4.167   3.701 -0.6863  0.2177  0.3884
15349SOL    HW149545   7.211   4.249   3.651 -1.1901  2.1314  3.2779
15349SOL    HW249546   7.176   4.102   3.639  1.7234  1.5990 -2.7281
15350SOL     OW49547   2.989   6.505   1.561  0.2907  0.8053  0.4456
15350SOL    HW149548   3.040   6.441   1.511 -0.2127  0.7355  0.0083
15350SOL    HW249549   2.965   6.460   1.641 -1.9806 -0.3955 -0.8095
15351SOL     OW49550   5.812   5.813   3.298  0.4386 -0.3879  0.0248
15351SOL    HW149551   5.889   5.868   3.309  0.4330  0.2983 -2.6160
15351SOL    HW249552   5.757   5.832   3.374  1.6407  1.2209  0.5361
15352SOL     OW49553   3.212   5.664   6.315  0.2073 -0.3203 -0.6149
15352SOL    HW149554   3.139   5.709   6.272  2.0557  1.0759 -2.5057
15352SOL    HW249555   3.205   5.573   6.286 -0.9826 -0.3226 -0.3989
15353SOL     OW49556   5.979   7.954   0.311  0.3417 -0.2074 -0.3132
15353SOL    HW149557   6.070   7.938   0.335  1.3072  0.5793 -3.0447
15353SOL    HW249558   5.976   8.048   0.290 -1.2112 -0.1264  0.1730
15354SOL     OW49559   0.274   9.173   3.899  0.2610 -0.2087 -0.4609
15354SOL    HW149560   0.285   9.251   3.845  2.4751 -2.0953 -3.0264
15354SOL    HW249561   0.343   9.180   3.966  0.4349  0.0321 -0.6656
15355SOL     OW49562   1.539   0.885   2.978  0.2197 -0.1795 -0.5205
15355SOL    HW149563   1.619   0.937   2.966  0.5669 -1.0991 -2.7944
15355SOL    HW249564   1.564   0.816   3.040  1.1578 -0.3630 -1.0866
15356SOL     OW49565  10.770   7.900   6.215  0.5567  0.3959  0.3301
15356SOL    HW149566  10.752   7.993   6.230 -1.2097  0.2395 -0.5656
15356SOL    HW249567  10.775   7.862   6.302  1.1168  1.2734  0.7014
15357SOL     OW49568   2.673   5.225   4.989 -0.2059  0.5206  0.1211
15357SOL    HW149569   2.589   5.204   4.948  0.3406  0.2038 -0.8511
15357SOL    HW249570   2.737   5.216   4.919  0.7506 -0.0850  1.0522
15358SOL     OW49571   1.177   0.686   3.151  0.0553  0.5128 -0.5832
15358SOL    HW149572   1.202   0.777   3.137 -0.0832  0.6188 -0.1819
15358SOL    HW249573   1.197   0.670   3.243  0.4346  0.0194 -0.7505
15359SOL     OW49574   9.116   3.855   7.832 -0.1208  0.3430 -0.3012
15359SOL    HW149575   9.120   3.760   7.826 -0.8188  0.1866  1.1938
15359SOL    HW249576   9.038   3.873   7.884  0.5213  1.6835  0.2679
15360SOL     OW49577   4.773   5.541   6.595  0.2624  0.1725 -0.0385
15360SOL    HW149578   4.776   5.626   6.640  3.3629  0.7006 -1.0313
15360SOL    HW249579   4.771   5.476   6.666 -0.8675  1.0218  0.7415
15361SOL     OW49580  10.701   0.527   1.128 -0.1199  0.5262  0.4536
15361SOL    HW149581  10.664   0.586   1.062 -0.0490 -0.4998 -0.5170
15361SOL    HW249582  10.795   0.535   1.117 -0.1142 -0.0033  0.1051
15362SOL     OW49583   8.350   1.011   5.813  0.0965  0.2873 -0.1128
15362SOL    HW149584   8.414   0.952   5.773  0.1994  0.3876 -0.0958
15362SOL    HW249585   8.386   1.098   5.798  0.1502  0.3249  0.2236
15363SOL     OW49586  10.717   6.989   3.252 -0.1996  0.0433  0.2453
15363SOL    HW149587  10.704   6.929   3.178  1.6689  0.5072 -0.5293
15363SOL    HW249588  10.812   7.002   3.255 -0.4288  1.7399  1.3792
15364SOL     OW49589   8.229   2.208   3.665 -0.4925  0.4409 -0.0791
15364SOL    HW149590   8.244   2.215   3.571 -1.5431 -0.7174 -0.3564
15364SOL    HW249591   8.239   2.115   3.684 -1.5970  0.4717  0.7140
15365SOL     OW49592   7.432   8.006   2.006 -0.2079  0.1327 -0.5687
15365SOL    HW149593   7.455   7.942   2.073  0.8685  2.1618  1.0860
15365SOL    HW249594   7.339   7.990   1.988 -0.1417 -1.3966  0.3105
15366SOL     OW49595   9.526   7.275   8.196 -0.0318 -0.4147 -0.4852
15366SOL    HW149596   9.493   7.215   8.129 -1.4152 -0.0595 -0.1541
15366SOL    HW249597   9.469   7.260   8.272 -0.1889  1.0692 -0.2817
15367SOL     OW49598   6.351   0.514   4.739 -0.4272  0.4029 -0.0676
15367SOL    HW149599   6.352   0.608   4.721  0.5768  0.7014  1.3603
15367SOL    HW249600   6.414   0.503   4.810  0.0901 -1.4771 -0.7555
15368SOL     OW49601   2.146   5.158   7.579 -0.3966  0.1554  0.2080
15368SOL    HW149602   2.146   5.233   7.520 -1.4168  0.9704  1.1847
15368SOL    HW249603   2.161   5.196   7.666 -1.0385 -0.7502  0.7327
15369SOL     OW49604   0.924   1.019   2.594  0.2130 -0.1954  0.3104
15369SOL    HW149605   0.865   1.051   2.662 -0.3723  2.6058 -1.3678
15369SOL    HW249606   0.890   0.933   2.570  0.3097 -1.1699  3.3023
15370SOL     OW49607   2.332   9.246  10.820  0.3275 -0.1949  0.0037
15370SOL    HW149608   2.250   9.230  10.774  0.1730 -0.2599  0.2940
15370SOL    HW249609   2.317   9.210  10.908  0.6051 -0.0490  0.1122
15371SOL     OW49610   3.529   4.715   6.011  0.2466 -0.2059 -0.5496
15371SOL    HW149611   3.436   4.704   6.031  0.6170 -0.8889  0.9419
15371SOL    HW249612   3.536   4.803   5.976 -0.9009  0.0356 -0.1967
15372SOL     OW49613  10.441   5.495   1.590  0.2553 -0.2953  0.6868
15372SOL    HW149614  10.487   5.575   1.562 -1.3893  0.1245 -1.0617
15372SOL    HW249615  10.462   5.431   1.522  0.0870 -0.7924  1.1019
15373SOL     OW49616  10.037   4.848   7.467 -0.0204  0.8462  0.1434
15373SOL    HW149617   9.982   4.917   7.502 -0.9091  0.6548 -0.8107
15373SOL    HW249618  10.073   4.804   7.543 -2.6596 -0.1991  0.8762
15374SOL     OW49619   4.105   3.045   9.286 -0.0685  0.0536 -0.0240
15374SOL    HW149620   4.120   3.106   9.358 -0.0230 -1.4691  1.3234
15374SOL    HW249621   4.016   3.013   9.301  0.6298 -1.7400  0.5621
15375SOL     OW49622  10.060   2.348   5.805 -0.1600  0.4513 -0.2617
15375SOL    HW149623  10.002   2.398   5.862  0.5418  0.6473  0.3000
15375SOL    HW249624  10.105   2.414   5.752  1.0735  0.4875  0.7716
15376SOL     OW49625   4.916   5.429   2.889  0.0652  0.4607 -0.2086
15376SOL    HW149626   4.989   5.443   2.949  1.2423 -2.1479 -0.8802
15376SOL    HW249627   4.872   5.351   2.922  0.1372 -0.4497 -2.1292
15377SOL     OW49628  10.415   9.625   3.829 -0.0346  0.5245 -0.1165
15377SOL    HW149629  10.366   9.544   3.812 -0.7869  0.6194  1.3959
15377SOL    HW249630  10.478   9.631   3.757 -0.4276 -1.0459 -0.6274
15378SOL     OW49631   6.306   8.661   4.868 -0.0813 -0.2456  0.1250
15378SOL    HW149632   6.324   8.626   4.955 -0.3899 -1.3660 -0.2456
15378SOL    HW249633   6.375   8.625   4.812  0.5154  1.0024  0.0096
15379SOL     OW49634   0.389   2.579   5.068 -0.0375 -0.3494 -0.3495
15379SOL    HW149635   0.308   2.628   5.065 -0.8006 -1.6006 -1.5125
15379SOL    HW249636   0.443   2.624   5.133 -1.2446  1.1134 -0.3248
15380SOL     OW49637   2.778   5.911   1.202  0.5471  0.0371  0.1104
15380SOL    HW149638   2.873   5.923   1.198  0.7248 -1.1236  0.2948
15380SOL    HW249639   2.754   5.941   1.290  0.6016  1.1724 -0.2559
15381SOL     OW49640   3.971   9.152   3.066  0.1673 -0.5364  0.7783
15381SOL    HW149641   4.019   9.187   2.992 -2.0898  2.0057  0.3513
15381SOL    HW249642   4.022   9.177   3.143  0.3397  0.7418  0.2660
15382SOL     OW49643   6.282   7.258   8.155  0.3591 -0.0419 -0.0286
15382SOL    HW149644   6.339   7.185   8.180  0.1812 -0.8533 -1.8838
15382SOL    HW249645   6.343   7.326   8.125  0.4232 -0.2959 -0.4756
15383SOL     OW49646   1.589   5.882   6.688 -0.4694 -0.7793  0.2561
15383SOL    HW149647   1.503   5.842   6.703 -0.5214 -0.5718  0.5300
15383SOL    HW249648   1.629   5.885   6.775 -0.2687 -0.6813  0.1610
15384SOL     OW49649   4.030   4.888   5.219  0.2274  0.4331  0.0610
15384SOL    HW149650   4.118   4.894   5.255  0.7266 -1.6959 -0.6736
15384SOL    HW249651   4.040   4.839   5.137 -1.7056 -0.4996  0.3148
15385SOL     OW49652   3.163   6.650   2.610  0.6554 -0.0381 -0.6523
15385SOL    HW149653   3.158   6.668   2.704  0.2310 -0.3508 -0.6121
15385SOL    HW249654   3.175   6.555   2.604  2.0162  0.1239 -0.8879
15386SOL     OW49655   7.508   2.051   4.861  0.5209  0.3824  0.3267
15386SOL    HW149656   7.503   2.064   4.956  0.1778  0.1550  0.3379
15386SOL    HW249657   7.570   1.979   4.850 -1.1536 -1.1458  0.4991
15387SOL     OW49658   7.014   2.073   0.909 -0.2091  0.2292 -0.4900
15387SOL    HW149659   7.030   2.019   0.832  0.4175 -1.5689  0.8387
15387SOL    HW249660   6.920   2.091   0.907 -0.9749 -3.0341  0.2902
15388SOL     OW49661   8.090   4.061   6.653 -0.6095 -0.7824  0.0881
15388SOL    HW149662   8.016   4.001   6.649 -1.1437 -0.1495  0.2199
15388SOL    HW249663   8.066   4.132   6.593 -1.3758  0.7900  2.1338
15389SOL     OW49664  10.148   4.692   7.646  1.1468  0.3352 -0.2779
15389SOL    HW149665  10.208   4.719   7.715  0.3946  0.7136  0.2511
15389SOL    HW249666  10.140   4.597   7.656  1.5189  0.3070 -0.2446
15390SOL     OW49667   9.588   2.296   5.971 -0.4502 -0.5401 -0.3399
15390SOL    HW149668   9.568   2.205   5.948  3.4050 -0.9415 -3.1069
15390SOL    HW249669   9.607   2.294   6.064 -1.5631 -2.2822 -0.0994
15391SOL     OW49670   0.767   4.578   4.230  0.3282 -0.1996  0.0224
15391SOL    HW149671   0.711   4.562   4.154 -0.2325  2.0588 -0.0901
15391SOL    HW249672   0.751   4.503   4.287  1.2423 -2.3051 -2.2820
15392SOL     OW49673   2.108   7.278   9.622 -0.1296 -0.1671  0.3015
15392SOL    HW149674   2.175   7.308   9.684 -0.1829  0.3820  0.1053
15392SOL    HW249675   2.078   7.358   9.579  0.0568 -0.5525 -0.5848
15393SOL     OW49676   8.804   3.038   5.815 -0.2445 -0.2581  0.5089
15393SOL    HW149677   8.797   2.952   5.855 -2.5616 -0.1177  0.5523
15393SOL    HW249678   8.857   3.025   5.737 -0.2807 -1.6451  0.7010
15394SOL     OW49679   9.065  10.763   0.898  0.1103 -0.4736 -0.3471
15394SOL    HW149680   9.062  10.701   0.825  0.1090 -0.2701 -0.5222
15394SOL    HW249681   9.083  10.709   0.975  1.4425 -0.5433 -0.6815
15395SOL     OW49682   5.630   8.810   7.394  0.3597 -0.0281  0.0222
15395SOL    HW149683   5.581   8.892   7.395 -0.3643 -0.4582  0.6939
15395SOL    HW249684   5.717   8.834   7.425  0.2488  0.5414 -0.0920
15396SOL     OW49685   3.445   7.803   5.374  0.2471  0.3478  0.1068
15396SOL    HW149686   3.445   7.869   5.444 -0.2932  1.0383 -0.5283
15396SOL    HW249687   3.493   7.729   5.411  0.9020  1.1094  0.8249
15397SOL     OW49688   8.522   5.846   6.055  0.2999 -0.5021 -0.5125
15397SOL    HW149689   8.472   5.765   6.040 -1.5195  0.8116 -2.1390
15397SOL    HW249690   8.456   5.915   6.051  2.1358  1.2784 -1.8827
15398SOL     OW49691   5.688   4.288   2.545  0.0263 -0.2127  0.0487
15398SOL    HW149692   5.630   4.291   2.470 -0.3740 -0.2131  0.3527
15398SOL    HW249693   5.641   4.234   2.609  0.3294 -0.1518  0.3249
15399SOL     OW49694   7.286   5.102   6.314  0.2301  0.2081  0.1469
15399SOL    HW149695   7.275   5.014   6.278 -2.2960  0.5120  0.0165
15399SOL    HW249696   7.260   5.095   6.405 -1.2432  1.0230 -0.1763
15400SOL     OW49697   8.004  10.195   2.831 -0.6303  0.8539  0.0454
15400SOL    HW149698   8.034  10.132   2.896 -2.6454  0.1459  0.3458
15400SOL    HW249699   7.929  10.238   2.872 -0.1892  2.4402 -0.7275
15401SOL     OW49700   3.553   5.899   2.697  0.3520  0.1947 -0.4863
15401SOL    HW149701   3.464   5.934   2.696  0.7583  1.2930  0.1915
15401SOL    HW249702   3.560   5.849   2.616 -2.1913 -3.3575  1.2373
15402SOL     OW49703   3.338   1.209   0.362  0.0078  0.2657  0.6571
15402SOL    HW149704   3.347   1.190   0.456 -1.0996  1.2311  0.9837
15402SOL    HW249705   3.243   1.221   0.349  0.1840  0.4983 -0.5159
15403SOL     OW49706   0.514   0.636   7.134  0.1517  0.0285 -0.0472
15403SOL    HW149707   0.484   0.717   7.176  1.5821  0.4111  0.2848
15403SOL    HW249708   0.519   0.573   7.206 -0.3350 -0.1900 -0.1963
15404SOL     OW49709   7.217   6.040   2.442  0.1062  0.0304 -0.4483
15404SOL    HW149710   7.289   5.983   2.412 -1.3085 -0.9854 -2.0994
15404SOL    HW249711   7.145   5.980   2.459 -0.5500  1.0951  0.6505
15405SOL     OW49712   1.732  10.342   6.311  0.0314 -0.4920  0.4526
15405SOL    HW149713   1.693  10.426   6.331 -0.5215 -0.4778 -0.6088
15405SOL    HW249714   1.787  10.358   6.234  2.3678 -0.4608  2.0320
15406SOL     OW49715   0.777   6.103   7.638  0.0005 -0.4561  0.2198
15406SOL    HW149716   0.753   6.186   7.595 -0.9089 -0.9194 -0.2124
15406SOL    HW249717   0.726   6.037   7.591  1.6148 -1.4318 -0.2404
15407SOL     OW49718   7.751   5.136   9.562 -0.0691 -0.4123  0.0371
15407SOL    HW149719   7.675   5.117   9.618  0.6510 -0.7076  0.9454
15407SOL    HW249720   7.713   5.155   9.476 -1.1080 -1.5477  0.2076
15408SOL     OW49721   8.747   4.128   0.572 -0.3763 -0.1577  0.2297
15408SOL    HW149722   8.801   4.207   0.577 -0.7262  0.2666 -1.8166
15408SOL    HW249723   8.743   4.096   0.662  1.1797  1.1983  0.8334
15409SOL     OW49724   3.850   0.305   0.013  0.4198  0.3603  0.7279
15409SOL    HW149725   3.857   0.381   0.071 -0.3946  0.2873  0.9310
15409SOL    HW249726   3.938   0.294  -0.022  1.3867 -0.5987  3.2042
15410SOL     OW49727  10.312   0.309   0.775 -0.3898 -0.1367 -0.0131
15410SOL    HW149728  10.362   0.320   0.855  0.2271 -0.4733 -0.3479
15410SOL    HW249729  10.359   0.361   0.710 -1.2974  0.7379  0.0016
15411SOL     OW49730   6.490   9.635   1.087 -0.2290 -0.0296 -0.4354
15411SOL    HW149731   6.501   9.660   1.179 -3.5528 -4.3148  1.4739
15411SOL    HW249732   6.400   9.660   1.065  0.3037  0.3772 -2.4179
15412SOL     OW49733   9.331   3.500   6.443 -0.2909  0.4503 -0.4347
15412SOL    HW149734   9.264   3.510   6.375  0.6671  0.0575 -1.4604
15412SOL    HW249735   9.351   3.590   6.470  0.8670  0.8078 -2.2532
15413SOL     OW49736   8.014   7.452   8.404  0.3918 -0.1871  0.3380
15413SOL    HW149737   8.102   7.479   8.381  1.4027 -1.9431  1.8723
15413SOL    HW249738   8.001   7.369   8.358 -0.7380  0.3527 -0.3816
15414SOL     OW49739   5.180   4.790   4.293  0.2340 -0.6795 -0.1640
15414SOL    HW149740   5.232   4.711   4.274  0.0024 -0.2020 -3.4467
15414SOL    HW249741   5.245   4.856   4.317  0.7467 -1.0965 -0.3875
15415SOL     OW49742   8.137   2.787   7.947 -0.2222  0.6068  0.2008
15415SOL    HW149743   8.198   2.809   8.019  1.7796 -0.0664 -1.1986
15415SOL    HW249744   8.192   2.742   7.883 -2.7191 -2.3483 -0.0726
15416SOL     OW49745   1.190   5.372   2.125  0.1289 -1.1731 -0.8947
15416SOL    HW149746   1.130   5.423   2.180  1.0129 -0.1960 -0.7973
15416SOL    HW249747   1.133   5.320   2.069 -0.8103 -0.4857 -0.6040
15417SOL     OW49748   9.599   8.912   5.231 -0.2849 -0.2475  0.5935
15417SOL    HW149749   9.641   8.827   5.218  0.1722  0.0461  0.0784
15417SOL    HW249750   9.655   8.974   5.184 -2.0338 -0.0120 -1.3412
15418SOL     OW49751   1.600  10.311   7.606  0.6525  0.7581 -0.1690
15418SOL    HW149752   1.677  10.342   7.559  1.8171  1.2322  1.9014
15418SOL    HW249753   1.553  10.391   7.630 -0.0869  0.5085 -0.7559
15419SOL     OW49754   4.841   9.053   6.405  0.6491  0.2036  0.1808
15419SOL    HW149755   4.924   9.061   6.452  0.9532  0.5782 -0.4126
15419SOL    HW249756   4.864   9.011   6.322 -0.1889 -2.4391  1.1787
15420SOL     OW49757   8.917   8.164   4.865 -0.2165 -0.0037 -0.0085
15420SOL    HW149758   8.979   8.173   4.793 -0.2954  0.2092 -0.0493
15420SOL    HW249759   8.971   8.140   4.940  0.0483  1.1713  0.1931
15421SOL     OW49760   1.410   4.852   9.000  0.1373 -0.3231 -0.0869
15421SOL    HW149761   1.368   4.875   8.917  1.0458 -0.9116 -0.7201
15421SOL    HW249762   1.472   4.783   8.978  0.8718 -0.0271  0.9652
15422SOL     OW49763   4.104   1.676   7.393  0.0149  0.4162 -0.7942
15422SOL    HW149764   4.066   1.619   7.460 -1.6708  1.3636 -0.8940
15422SOL    HW249765   4.092   1.629   7.311 -1.2823  0.8327 -0.8649
15423SOL     OW49766   2.846   3.334   8.507  0.8042 -0.5547 -0.1262
15423SOL    HW149767   2.904   3.395   8.461  1.4035 -0.7491  0.3583
15423SOL    HW249768   2.758   3.364   8.486  1.0908  0.4798  0.1083
15424SOL     OW49769   6.823   9.118   0.042  0.1204  0.1043 -0.1253
15424SOL    HW149770   6.857   9.030   0.032 -0.8448 -0.3584  0.4919
15424SOL    HW249771   6.890   9.164   0.093  0.8158 -0.1411 -0.7998
15425SOL     OW49772   7.725   2.712   7.144  0.7489 -0.2727  0.0540
15425SOL    HW149773   7.652   2.737   7.088  1.0656 -0.8697 -0.6437
15425SOL    HW249774   7.799   2.763   7.112  0.7279  0.0452  0.5083
15426SOL     OW49775   0.801   3.424  10.676 -0.0616  0.0526 -0.3715
15426SOL    HW149776   0.868   3.368  10.636 -0.5698 -0.6016 -0.3344
15426SOL    HW249777   0.772   3.480  10.605 -1.3066 -1.4359 -1.0985
15427SOL     OW49778   4.087   1.375   5.070  0.2582  0.2797  0.1599
15427SOL    HW149779   3.996   1.396   5.050  0.2802  0.1174 -0.1087
15427SOL    HW249780   4.139   1.432   5.014  0.3247 -1.3915 -1.5911
15428SOL     OW49781   5.639   8.459  10.440 -0.0372  0.8992 -0.1314
15428SOL    HW149782   5.687   8.390  10.394 -1.4069  0.7063 -1.3462
15428SOL    HW249783   5.550   8.452  10.407 -0.3558  2.8499  0.2035
15429SOL     OW49784   9.276   0.862   3.664  0.3559  0.5636  0.1860
15429SOL    HW149785   9.248   0.952   3.647  0.1308  0.5721  0.5717
15429SOL    HW249786   9.206   0.825   3.719  0.4301  0.1433  0.0035
15430SOL     OW49787   6.670   7.564   0.445 -0.2449 -0.4371 -0.0213
15430SOL    HW149788   6.634   7.554   0.357 -1.4167  1.4266  0.1879
15430SOL    HW249789   6.755   7.606   0.431  0.2170 -1.4369 -0.3141
15431SOL     OW49790   0.499  10.212  10.267 -1.1634 -0.2064 -0.0675
15431SOL    HW149791   0.467  10.215  10.357 -1.2525  1.0808 -0.1291
15431SOL    HW249792   0.424  10.180  10.217 -1.6698  0.6840  0.0974
15432SOL     OW49793   8.468   8.727   6.655 -0.3515  0.1613  0.0816
15432SOL    HW149794   8.396   8.774   6.697 -0.6623 -0.2501  0.0157
15432SOL    HW249795   8.424   8.668   6.593  0.1018  1.1908 -1.2768
15433SOL     OW49796   9.782   5.685   6.924  0.2565 -0.3481 -0.2422
15433SOL    HW149797   9.717   5.723   6.864  2.1303  0.7057 -1.6883
15433SOL    HW249798   9.855   5.659   6.868  1.8239  0.0759  1.5063
15434SOL     OW49799   5.596   9.439   4.497  0.1533  0.4844  0.6318
15434SOL    HW149800   5.624   9.509   4.557  1.0576  0.5976  0.0979
15434SOL    HW249801   5.537   9.385   4.549  0.7605  0.6963  1.5697
15435SOL     OW49802   3.084   5.708   1.009 -0.6441  0.0228 -0.3044
15435SOL    HW149803   3.099   5.692   0.916 -1.9678 -0.5782 -0.4373
15435SOL    HW249804   3.163   5.754   1.039  0.5070 -1.1867 -1.3598
15436SOL     OW49805   1.577   8.490   1.879 -0.3181  0.0262 -0.2508
15436SOL    HW149806   1.643   8.422   1.867 -0.4064 -0.0864 -0.1139
15436SOL    HW249807   1.505   8.464   1.822  0.2528  0.8175 -1.3536
15437SOL     OW49808   7.480   3.493   3.103  0.6611 -0.6521 -0.3517
15437SOL    HW149809   7.435   3.515   3.185  1.9906 -0.5925  0.3841
15437SOL    HW249810   7.419   3.522   3.034 -1.2082 -2.1828  0.5712
15438SOL     OW49811   1.667   4.737   3.791 -0.4846 -0.3662 -0.2771
15438SOL    HW149812   1.735   4.671   3.780 -0.9047 -0.7685 -0.4952
15438SOL    HW249813   1.664   4.784   3.708  0.0387  0.1551 -0.0126
15439SOL     OW49814   4.441   2.220   3.274  0.3436  0.0557  0.1034
15439SOL    HW149815   4.425   2.155   3.205 -1.1157 -0.5346  0.9436
15439SOL    HW249816   4.354   2.247   3.303  0.8972  2.7270 -0.4620
15440SOL     OW49817   2.204   1.100  10.680 -0.7648  0.1994  0.1951
15440SOL    HW149818   2.124   1.088  10.731 -0.4323 -0.9108  0.4824
15440SOL    HW249819   2.217   1.016  10.636  2.0925 -0.9330  2.8355
15441SOL     OW49820   9.854   6.888   4.475 -0.1928 -0.1147  0.1650
15441SOL    HW149821   9.768   6.926   4.492  0.3802  0.6755  1.3917
15441SOL    HW249822   9.866   6.823   4.544  0.1639 -0.2916 -0.0602
15442SOL     OW49823   9.385  10.433  10.296 -0.3309 -0.1180 -0.2765
15442SOL    HW149824   9.476  10.448  10.319 -0.8925  0.8843  1.4080
15442SOL    HW249825   9.354  10.517  10.261 -0.8099 -0.2291 -0.1344
15443SOL     OW49826   5.984   2.754   1.760 -0.2790  0.0429  0.2942
15443SOL    HW149827   6.079   2.744   1.756 -0.1829  0.6537  0.8903
15443SOL    HW249828   5.961   2.806   1.683 -0.2761 -1.0925 -0.4861
15444SOL     OW49829   3.571   9.416   1.463  0.1798 -0.2290 -0.5424
15444SOL    HW149830   3.649   9.381   1.420  0.3118 -0.5368 -0.0633
15444SOL    HW249831   3.602   9.449   1.547 -0.3626 -1.3062  0.1117
15445SOL     OW49832   7.734   5.362   6.475 -0.6725 -0.6504 -0.4544
15445SOL    HW149833   7.829   5.358   6.463 -0.4317 -0.7373  1.2819
15445SOL    HW249834   7.722   5.404   6.560 -2.1733 -1.3185 -0.2997
15446SOL     OW49835   4.405   1.155   2.402 -0.2475 -0.2077  0.3497
15446SOL    HW149836   4.494   1.140   2.434 -0.2400 -0.9079  0.0133
15446SOL    HW249837   4.414   1.229   2.341 -0.2094  0.9157  1.6633
15447SOL     OW49838   1.279   0.910   3.071 -0.0335 -0.3778 -0.4239
15447SOL    HW149839   1.244   0.974   3.009  1.3193  2.0576  1.1372
15447SOL    HW249840   1.371   0.900   3.046  0.9999  1.8920  1.9216
15448SOL     OW49841   5.547   4.815   6.871  0.1609 -0.0066 -0.1094
15448SOL    HW149842   5.506   4.731   6.893  1.2230 -0.4989  0.0952
15448SOL    HW249843   5.608   4.793   6.801  0.1553  0.6784 -0.3321
15449SOL     OW49844   6.858   0.202   2.762  0.3613  0.4930  0.1045
15449SOL    HW149845   6.785   0.170   2.815  1.3727 -0.8140  0.7566
15449SOL    HW249846   6.862   0.296   2.783 -3.5523  1.6231 -2.9319
15450SOL     OW49847   1.009   5.903   3.721 -0.0485 -0.3314 -0.0880
15450SOL    HW149848   0.933   5.956   3.696 -0.7134 -1.3167 -0.2218
15450SOL    HW249849   0.990   5.874   3.810  0.4340 -0.1225  0.0821
15451SOL     OW49850   3.525   1.614   3.615  0.4352 -0.2251 -0.4193
15451SOL    HW149851   3.620   1.618   3.622  0.5077  0.5563 -1.4475
15451SOL    HW249852   3.509   1.551   3.545  0.1741 -0.6975  0.0637
15452SOL     OW49853  10.365   2.253   4.023 -0.3940  0.6011 -0.4078
15452SOL    HW149854  10.402   2.249   4.112 -3.1503  2.0516  0.9218
15452SOL    HW249855  10.418   2.319   3.978  0.9107  0.0033  0.1923
15453SOL     OW49856   0.858   2.380   7.432  0.0049  0.3754  0.0733
15453SOL    HW149857   0.912   2.446   7.476  1.3051 -1.5054  1.4921
15453SOL    HW249858   0.833   2.319   7.502 -2.4130  0.1204 -0.8979
15454SOL     OW49859  10.694   1.738   9.776 -0.8883 -0.1118 -0.8322
15454SOL    HW149860  10.661   1.740   9.866  0.9469 -2.4404 -0.0061
15454SOL    HW249861  10.699   1.830   9.750 -0.0766  0.7511  2.0210
15455SOL     OW49862   5.248   7.447   6.786  0.7814 -0.3620 -0.8221
15455SOL    HW149863   5.169   7.411   6.746 -0.7105  1.0371  0.7083
15455SOL    HW249864   5.301   7.371   6.809 -1.4447 -1.5622  0.6839
15456SOL     OW49865   6.812   5.015   2.152 -0.7790  0.1679 -0.0656
15456SOL    HW149866   6.740   4.996   2.212 -0.9807 -0.7206 -0.5699
15456SOL    HW249867   6.891   5.004   2.205 -0.9850  0.2449  0.2596
15457SOL     OW49868   1.170   5.477   9.053 -0.3197 -0.3377  0.6754
15457SOL    HW149869   1.129   5.531   8.985  1.3783  0.6318  0.3631
15457SOL    HW249870   1.101   5.465   9.119 -1.7761 -0.6647 -0.8400
15458SOL     OW49871   4.766  10.751   6.416  0.2402  0.4372 -0.3997
15458SOL    HW149872   4.776  10.737   6.322  1.1207  0.6712 -0.3485
15458SOL    HW249873   4.796  10.841   6.430  0.2335  0.3604  0.1199
15459SOL     OW49874   2.214   6.611   3.799  0.2136 -0.6567  0.7267
15459SOL    HW149875   2.304   6.620   3.770 -0.0811  0.5153  0.1027
15459SOL    HW249876   2.164   6.601   3.718 -0.0772 -2.9504  1.1331
15460SOL     OW49877   9.480   5.757   2.359 -0.0275 -0.6208  0.3457
15460SOL    HW149878   9.487   5.783   2.451 -0.3146  3.3721 -0.5849
15460SOL    HW249879   9.389   5.777   2.335  1.0644  2.5181 -1.7335
15461SOL     OW49880   3.207   4.094   8.139  0.2724  0.3866 -0.6048
15461SOL    HW149881   3.168   4.107   8.052 -0.0593  0.6229 -0.4211
15461SOL    HW249882   3.280   4.155   8.142 -0.6351  1.4989 -0.1495
15462SOL     OW49883   4.801  10.744   0.196 -0.4336 -0.1376 -0.2339
15462SOL    HW149884   4.793  10.672   0.133 -0.0828  0.4213 -0.9295
15462SOL    HW249885   4.877  10.794   0.166  0.9725 -0.9431  1.7431
15463SOL     OW49886   2.822   7.339   2.896 -0.0462 -0.3070  0.5260
15463SOL    HW149887   2.734   7.353   2.932  0.2391 -2.0028  2.0267
15463SOL    HW249888   2.868   7.421   2.912 -0.8710  0.0372  1.2262
15464SOL     OW49889   6.767   8.471   9.226 -0.0023  0.0070  0.3184
15464SOL    HW149890   6.685   8.454   9.273  0.0151  1.6532  1.0287
15464SOL    HW249891   6.744   8.540   9.163  0.7477  0.2342  0.2893
15465SOL     OW49892   3.331   1.760   6.553 -0.4959  0.1276 -0.1585
15465SOL    HW149893   3.329   1.687   6.616  1.1134  0.3378  0.1809
15465SOL    HW249894   3.254   1.746   6.498 -0.0499 -2.0359 -0.3340
15466SOL     OW49895   8.555   9.231  10.879  0.0971 -0.5823 -0.6051
15466SOL    HW149896   8.572   9.315  10.922  1.1894 -0.3850 -1.3828
15466SOL    HW249897   8.544   9.170  10.952  0.1958  0.0572 -0.0337
15467SOL     OW49898   2.809   8.962   2.063  0.3590  0.2433  0.1528
15467SOL    HW149899   2.787   9.026   1.995  0.7066 -0.2785 -0.4566
15467SOL    HW249900   2.726   8.919   2.083 -0.0814  1.5484  1.2832
15468SOL     OW49901   0.786   0.184  10.227  0.3953 -0.0681  0.2839
15468SOL    HW149902   0.786   0.190  10.132 -0.4024 -0.5008  0.2515
15468SOL    HW249903   0.717   0.245  10.255  0.0673 -0.5454  0.5363
15469SOL     OW49904   7.479   1.972   3.884 -0.2010 -0.9976 -0.1591
15469SOL    HW149905   7.469   2.044   3.946  1.2233 -0.6509 -0.3096
15469SOL    HW249906   7.390   1.939   3.873 -1.0668  1.3475 -0.8363
15470SOL     OW49907   2.120   6.574   4.826  0.3112  0.5446 -0.2310
15470SOL    HW149908   2.075   6.655   4.852  0.3453  0.4477  0.1221
15470SOL    HW249909   2.207   6.604   4.798  0.5534  0.5559  0.5242
15471SOL     OW49910   0.789   1.214  10.212  0.3910 -0.2756  0.3791
15471SOL    HW149911   0.864   1.156  10.201  0.3860 -0.3015  0.4785
15471SOL    HW249912   0.783   1.227  10.307 -0.4855 -1.2766  0.4787
15472SOL     OW49913   5.616   5.918   2.404 -0.5162  0.4041  0.1791
15472SOL    HW149914   5.537   5.964   2.432 -0.6620  0.0631  0.3231
15472SOL    HW249915   5.684   5.986   2.403 -0.7851  0.6729  0.1575
15473SOL     OW49916   2.963   0.441   0.031  0.4501 -0.0759 -0.6357
15473SOL    HW149917   2.936   0.499   0.103  1.4507 -1.8112  1.2611
15473SOL    HW249918   3.046   0.477   0.001 -0.5205  1.3120 -1.7525
15474SOL     OW49919   3.300   7.906   7.486 -0.2672  0.0246 -0.6096
15474SOL    HW149920   3.288   7.999   7.508 -0.2426 -0.2691  0.6535
15474SOL    HW249921   3.345   7.869   7.561 -3.4151 -1.8149  0.5108
15475SOL     OW49922   5.942   3.672   3.433 -0.3314  0.5443  0.1123
15475SOL    HW149923   5.919   3.723   3.510 -1.0050 -1.0385  0.9878
15475SOL    HW249924   5.898   3.717   3.361 -1.0450  1.0979  0.8781
15476SOL     OW49925   3.457   9.426  10.943  0.1562  0.3121 -0.2030
15476SOL    HW149926   3.538   9.413  10.992  0.1327 -0.3259 -0.3309
15476SOL    HW249927   3.388   9.393  11.001  0.0526  0.2584 -0.3545
15477SOL     OW49928   3.078   0.589   1.838 -0.3063 -0.0862 -0.3652
15477SOL    HW149929   3.061   0.573   1.931  1.2918 -0.9218 -0.1696
15477SOL    HW249930   3.167   0.625   1.836 -0.4358  0.2163 -1.5537
15478SOL     OW49931   2.332   5.310   1.948  0.7810  0.5290 -0.2054
15478SOL    HW149932   2.335   5.218   1.922  0.2385  0.1357  1.0242
15478SOL    HW249933   2.416   5.324   1.993  0.4312  0.3329  0.5193
15479SOL     OW49934   8.675   8.018   3.924  0.2154 -0.0084 -0.1710
15479SOL    HW149935   8.756   8.041   3.878  0.9154  0.3636  1.1912
15479SOL    HW249936   8.704   7.993   4.012 -1.1182 -0.3181  0.2018
15480SOL     OW49937   7.079   3.042   2.232  0.4134  0.0793  0.4749
15480SOL    HW149938   7.081   2.949   2.251  1.0811  0.0036  0.0506
15480SOL    HW249939   7.033   3.049   2.149 -1.1546  0.2858  1.3179
15481SOL     OW49940  10.149   1.293   4.499  0.1048  0.0759 -0.3327
15481SOL    HW149941  10.095   1.295   4.579  1.0203 -0.6964  0.3236
15481SOL    HW249942  10.173   1.384   4.484  0.9674  0.0969  1.0248
15482SOL     OW49943   0.880   8.366   5.742 -0.2168  0.4630 -0.4675
15482SOL    HW149944   0.819   8.298   5.713 -0.6166 -0.3573  2.0382
15482SOL    HW249945   0.924   8.327   5.817  1.0569  2.2609 -0.2247
15483SOL     OW49946   1.303   4.007   6.765  0.3625 -0.3975 -0.1519
15483SOL    HW149947   1.233   3.942   6.771  0.0367  0.0266  0.8791
15483SOL    HW249948   1.363   3.985   6.836  0.5342  0.1041 -0.1365
15484SOL     OW49949   7.314   1.960   6.445  1.0849 -0.4571 -0.5487
15484SOL    HW149950   7.311   2.049   6.478  0.1818 -0.8726  0.5466
15484SOL    HW249951   7.328   1.905   6.522 -0.2087 -1.3901 -0.9357
15485SOL     OW49952   8.910   0.910   5.817  0.4094  0.2380  0.3300
15485SOL    HW149953   8.839   0.910   5.881  1.1386  0.1360  1.1579
15485SOL    HW249954   8.902   0.994   5.773 -0.6026 -0.0278 -0.0326
15486SOL     OW49955   0.570   7.928   1.199 -0.1602  0.7617  0.1139
15486SOL    HW149956   0.475   7.941   1.210  0.0284  1.7923  0.6023
15486SOL    HW249957   0.577   7.869   1.124 -1.2222 -0.1663  0.7093
15487SOL     OW49958  10.161   6.809   1.799  0.2671  0.7035 -0.2439
15487SOL    HW149959  10.122   6.810   1.712 -0.5996  0.2263  0.1338
15487SOL    HW249960  10.214   6.729   1.801 -1.2894 -0.3531  0.3312
15488SOL     OW49961   3.355  10.400   1.972  0.1822 -0.0309 -0.1354
15488SOL    HW149962   3.348  10.340   1.898 -0.0282  1.1968 -1.1494
15488SOL    HW249963   3.288  10.466   1.956 -1.1405 -0.7258  2.1408
15489SOL     OW49964   5.488   7.363   2.387 -0.4700  0.2053 -0.2600
15489SOL    HW149965   5.501   7.364   2.482 -1.2283 -1.3185 -0.1164
15489SOL    HW249966   5.417   7.425   2.372 -0.0439  0.8005  0.0957
15490SOL     OW49967  10.578   7.643   5.490  0.0488  0.4484 -0.1797
15490SOL    HW149968  10.531   7.580   5.435  1.4172 -1.8989  1.1780
15490SOL    HW249969  10.543   7.630   5.578  0.5032  1.4598  0.1728
15491SOL     OW49970   0.209   3.893  10.269 -0.1781 -0.1348  0.6525
15491SOL    HW149971   0.170   3.810  10.295  0.8589 -0.5745  0.8706
15491SOL    HW249972   0.241   3.932  10.350 -0.2674  0.2685  0.4973
15492SOL     OW49973   3.449   2.201   3.796 -0.2009 -0.6920  0.3153
15492SOL    HW149974   3.366   2.173   3.757  0.0062 -1.0891  0.1538
15492SOL    HW249975   3.426   2.276   3.850 -0.6220 -0.6229  0.0461
15493SOL     OW49976   5.609   8.525   8.319 -0.3750  0.3437  0.0975
15493SOL    HW149977   5.635   8.446   8.272 -1.5681  0.0735 -0.1469
15493SOL    HW249978   5.627   8.506   8.411 -0.9707 -0.3503  0.0753
15494SOL     OW49979   8.210   1.607   5.930  0.3405 -0.0127 -0.3102
15494SOL    HW149980   8.158   1.688   5.931  1.3709  0.6713  0.1818
15494SOL    HW249981   8.271   1.619   5.858 -1.4420 -1.6877 -2.2057
15495SOL     OW49982  10.772   1.796   8.974 -0.2996  0.2360 -0.7509
15495SOL    HW149983  10.729   1.756   8.899 -1.1964  0.5011 -0.3929
15495SOL    HW249984  10.732   1.883   8.981 -0.8188 -0.0825  0.5087
15496SOL     OW49985   7.705   9.112   7.732  0.1360 -0.2135  0.0747
15496SOL    HW149986   7.656   9.175   7.785  0.6068 -1.0430  1.5647
15496SOL    HW249987   7.793   9.149   7.726 -0.0369  0.1101 -0.5565
15497SOL     OW49988   1.364   1.704   1.794 -0.2395 -0.2075  0.2984
15497SOL    HW149989   1.426   1.678   1.727 -1.8632 -0.1002 -1.3138
15497SOL    HW249990   1.332   1.790   1.765 -1.7395 -0.6316  0.6380
15498SOL     OW49991   3.767   2.520   9.623 -0.2419 -0.4644 -0.1027
15498SOL    HW149992   3.756   2.586   9.555 -0.6989 -0.7192 -0.2810
15498SOL    HW249993   3.695   2.458   9.608 -0.3463 -0.5243  0.6096
15499SOL     OW49994   4.893   7.474   2.509  0.6819 -0.2357 -0.2736
15499SOL    HW149995   4.969   7.435   2.551  0.9554 -0.2047 -0.7307
15499SOL    HW249996   4.909   7.462   2.415 -0.4979 -1.4173 -0.3521
15500SOL     OW49997   0.540   0.370   8.679  0.6158  0.4794  0.0133
15500SOL    HW149998   0.623   0.404   8.646 -0.2545  1.3968 -1.3524
15500SOL    HW249999   0.487   0.448   8.696  0.7662  0.0471  3.1422
15501SOL     OW50000   7.242   6.860   6.252 -0.2900 -0.0089  0.0913
15501SOL    HW150001   7.332   6.850   6.283  0.3639  1.5844 -1.2090
15501SOL    HW250002   7.244   6.936   6.195 -2.8242  1.0748  1.3161
15502SOL     OW50003  10.992   4.607  10.914 -0.4328 -0.4455 -0.3049
15502SOL    HW150004  11.059   4.660  10.872  0.3343 -0.8595  0.3589
15502SOL    HW250005  11.041   4.550  10.974 -1.4916  0.3963  1.4366
15503SOL     OW50006   2.054   0.070   1.102 -0.2176 -0.2741  0.1622
15503SOL    HW150007   2.143   0.104   1.102 -0.3182  0.0154 -0.5194
15503SOL    HW250008   2.056  -0.006   1.160  0.9272 -1.4404 -1.3269
15504SOL     OW50009   2.478   7.506   4.669  0.0333  0.6884  0.6440
15504SOL    HW150010   2.437   7.420   4.656 -0.7329  1.1913 -0.4793
15504SOL    HW250011   2.458   7.530   4.759 -1.5595  0.5951  0.3400
15505SOL     OW50012  10.958   2.269   8.627  0.2592 -0.0377 -0.1815
15505SOL    HW150013  10.955   2.300   8.536  2.0820 -1.7552 -0.8936
15505SOL    HW250014  10.907   2.188   8.627  1.8915 -1.1211 -0.2051
15506SOL     OW50015   8.307   7.784   3.803 -0.2429  0.0422  0.3323
15506SOL    HW150016   8.251   7.810   3.729 -2.1719 -0.1589  1.6324
15506SOL    HW250017   8.354   7.707   3.771 -0.8493  0.1123 -0.7886
15507SOL     OW50018   0.583   7.776   1.769  0.0961  0.4545 -0.4634
15507SOL    HW150019   0.646   7.705   1.754 -0.6422 -0.1390 -0.8636
15507SOL    HW250020   0.561   7.808   1.681  0.1092  0.8980 -0.3089
15508SOL     OW50021   5.328   3.020   5.337 -0.1533  0.3703 -0.3590
15508SOL    HW150022   5.315   3.059   5.251  1.8554  2.0082  0.0157
15508SOL    HW250023   5.281   3.077   5.397 -0.7387 -0.2221 -0.2414
15509SOL     OW50024   2.896   6.627   0.471  0.0689 -0.0590 -0.0068
15509SOL    HW150025   2.899   6.535   0.445  0.0548 -0.2956  0.7881
15509SOL    HW250026   2.985   6.659   0.459 -0.0298 -0.0399 -0.7388
15510SOL     OW50027   0.928   2.866   1.485  0.2916 -0.1890  0.1429
15510SOL    HW150028   0.834   2.860   1.500  0.3692 -0.6263  0.5105
15510SOL    HW250029   0.949   2.786   1.436  0.7933 -1.2119  1.9170
15511SOL     OW50030   7.286   6.082   7.547 -0.5010  0.1215 -0.4777
15511SOL    HW150031   7.264   6.175   7.558 -1.8947 -0.2212 -0.2643
15511SOL    HW250032   7.202   6.039   7.529  0.2115 -1.0092 -1.2360
15512SOL     OW50033  10.539   0.024   1.581 -0.0275  0.1321  0.5634
15512SOL    HW150034  10.569  -0.022   1.502 -0.6969  1.9140 -0.8015
15512SOL    HW250035  10.580   0.110   1.576 -1.9354  1.1102  0.8808
15513SOL     OW50036   0.020   0.406   2.385 -0.3553 -0.2311 -0.2878
15513SOL    HW150037  -0.060   0.426   2.337  0.3325 -2.0973 -2.3676
15513SOL    HW250038  -0.010   0.377   2.471 -1.6666  2.2905  0.2147
15514SOL     OW50039   3.865   8.636   1.357  0.3883  0.2047  0.2660
15514SOL    HW150040   3.807   8.661   1.285  0.8200 -0.1154 -0.2039
15514SOL    HW250041   3.831   8.553   1.387  0.3766  0.2005  0.2412
15515SOL     OW50042   1.268   0.796   1.244  0.0355  0.6116 -0.1246
15515SOL    HW150043   1.244   0.733   1.175 -1.3794  3.9676 -3.0141
15515SOL    HW250044   1.360   0.817   1.225  1.0142 -1.5308  1.8127
15516SOL     OW50045   1.985   9.364   6.139  0.2359 -0.6249  0.1449
15516SOL    HW150046   2.048   9.375   6.210 -0.7477 -2.5135  1.4041
15516SOL    HW250047   1.937   9.284   6.162 -0.2918 -1.1651 -2.5481
15517SOL     OW50048   9.195   7.761   7.704 -0.2504 -0.1834 -0.4979
15517SOL    HW150049   9.193   7.719   7.618  0.0571  0.6163 -0.9036
15517SOL    HW250050   9.140   7.705   7.759 -0.8758 -0.4173 -1.3379
15518SOL     OW50051   6.401   8.746  10.157  0.4457 -0.2910 -0.2381
15518SOL    HW150052   6.459   8.774  10.228  0.6938  2.9663 -1.5428
15518SOL    HW250053   6.314   8.774  10.186  0.0385 -1.8700  0.1292
15519SOL     OW50054   5.621   9.407   2.267  0.3219 -0.0113 -0.6417
15519SOL    HW150055   5.631   9.331   2.325 -0.6743  1.7132  1.9575
15519SOL    HW250056   5.691   9.467   2.294 -2.1106  2.2168  1.2423
15520SOL     OW50057   4.880   4.799   9.567 -0.1877  0.1724 -0.5213
15520SOL    HW150058   4.899   4.886   9.533  1.3182 -0.5453 -1.6662
15520SOL    HW250059   4.961   4.750   9.552 -1.1714 -1.5654 -0.4002
15521SOL     OW50060   3.950   0.987  10.475  0.2802  0.1315  0.5787
15521SOL    HW150061   3.959   0.910  10.418  2.7505  0.0695  0.9220
15521SOL    HW250062   3.919   0.951  10.558 -0.7983 -0.1456  0.0739
15522SOL     OW50063  10.649   9.008   5.716 -0.2452 -0.1583 -0.3734
15522SOL    HW150064  10.623   8.995   5.807  3.2273  1.8202  1.1275
15522SOL    HW250065  10.663   8.920   5.682 -1.4203 -0.9445  1.0809
15523SOL     OW50066   0.762   6.516   6.339 -0.1085 -0.4152 -0.5498
15523SOL    HW150067   0.848   6.501   6.377  0.7147 -0.7446 -2.4242
15523SOL    HW250068   0.709   6.442   6.369 -0.1814  0.4602  1.6841
15524SOL     OW50069   3.104   0.671   3.701 -0.3244 -0.3596  0.5465
15524SOL    HW150070   3.117   0.576   3.690  1.7629  0.0067 -0.8230
15524SOL    HW250071   3.159   0.693   3.776  0.8134  0.0192 -0.3626
15525SOL     OW50072   6.914   1.337   2.617 -0.3268 -0.1752 -0.2900
15525SOL    HW150073   6.941   1.245   2.615 -0.7582 -0.2997 -0.3749
15525SOL    HW250074   6.825   1.336   2.650  0.2337  0.3572  1.3417
15526SOL     OW50075   2.715   7.134   4.074  0.0295  0.5636  0.1157
15526SOL    HW150076   2.722   7.209   4.014 -0.0932 -0.8644 -1.7994
15526SOL    HW250077   2.625   7.137   4.105  0.0191  1.2050  0.0379
15527SOL     OW50078  10.231   0.284   7.289 -0.5388 -0.5341 -0.6814
15527SOL    HW150079  10.301   0.338   7.252  0.0833 -0.5277  0.4762
15527SOL    HW250080  10.218   0.214   7.225  0.0897 -0.1903 -1.1936
15528SOL     OW50081   9.623  10.962   9.918 -0.2776 -0.4608 -0.0153
15528SOL    HW150082   9.669  10.957  10.003  0.3792  0.2655 -0.3146
15528SOL    HW250083   9.610  11.056   9.904  1.7564 -0.3872 -1.8233
15529SOL     OW50084   5.542   3.194   7.238  0.0180 -0.3534  0.4206
15529SOL    HW150085   5.572   3.259   7.175 -0.1311 -0.5894  0.1008
15529SOL    HW250086   5.623   3.159   7.277  0.1280 -0.4220  0.1383
15530SOL     OW50087   0.549   8.016   3.868  0.1728 -0.6648  0.3974
15530SOL    HW150088   0.525   8.028   3.960 -2.8303 -1.9822 -0.0803
15530SOL    HW250089   0.562   7.921   3.859  1.7858 -0.3972 -0.2802
15531SOL     OW50090   2.349   3.408   7.433 -0.5408  0.2202  0.3822
15531SOL    HW150091   2.401   3.366   7.501 -1.4133 -1.3734  0.1084
15531SOL    HW250092   2.404   3.479   7.401  0.8851 -0.5557  1.0344
15532SOL     OW50093   0.046   8.385  10.247 -0.0070  0.2974  0.2486
15532SOL    HW150094  -0.026   8.355  10.191 -0.0579  0.1524  0.3924
15532SOL    HW250095   0.110   8.313  10.243  0.5991  0.8690 -0.7255
15533SOL     OW50096  10.429   8.929   3.512  0.8161  0.3330 -0.2633
15533SOL    HW150097  10.465   8.857   3.461 -0.2255 -1.1742  1.0069
15533SOL    HW250098  10.499   8.955   3.571  0.8164 -0.4940  0.1073
15534SOL     OW50099   7.390   0.439   9.479  0.2873  0.4635 -0.6290
15534SOL    HW150100   7.466   0.467   9.429 -0.6622  1.3172 -1.6728
15534SOL    HW250101   7.409   0.350   9.506  1.2653  0.3417 -1.6695
15535SOL     OW50102   7.657  10.275   2.361 -0.3007 -0.4745 -0.4427
15535SOL    HW150103   7.636  10.340   2.294 -0.2840  1.0808  0.9871
15535SOL    HW250104   7.753  10.276   2.366 -0.3165 -0.3181 -0.1509
15536SOL     OW50105   3.787   6.985   4.261  0.1747  0.3137  0.3065
15536SOL    HW150106   3.762   6.904   4.217  1.2029 -0.6384  1.4227
15536SOL    HW250107   3.704   7.025   4.287 -0.3587 -0.1031 -0.7283
15537SOL     OW50108   5.262   8.900   1.869 -0.0196 -0.2392 -0.1257
15537SOL    HW150109   5.296   8.916   1.781  1.5832 -1.2129  0.2770
15537SOL    HW250110   5.222   8.813   1.864 -0.7314  0.0821 -0.1053
15538SOL     OW50111   3.421  10.215   2.797  0.6286 -0.2041  0.5743
15538SOL    HW150112   3.414  10.128   2.837 -0.0478 -0.2387  0.3806
15538SOL    HW250113   3.509  10.216   2.759  0.0089 -1.4883 -1.0007
15539SOL     OW50114  10.331   6.995   2.807 -0.1535  0.2280  0.4181
15539SOL    HW150115  10.355   7.015   2.717  0.6878  0.7440  0.7432
15539SOL    HW250116  10.368   6.908   2.824 -1.5904 -0.5404 -0.1808
15540SOL     OW50117   0.455   7.342   7.844  0.2448  0.2079  0.6602
15540SOL    HW150118   0.496   7.261   7.873  1.3326  0.1620 -0.8226
15540SOL    HW250119   0.521   7.382   7.787 -1.3931  0.6391 -1.0549
15541SOL     OW50120   0.761   6.100   8.222  0.1130 -0.3062  0.4478
15541SOL    HW150121   0.857   6.097   8.219  0.1736 -2.0631  1.9809
15541SOL    HW250122   0.741   6.174   8.280  0.5234 -0.0012  0.2088
15542SOL     OW50123   9.414   6.347   8.566  0.1913  0.0340  0.4488
15542SOL    HW150124   9.487   6.315   8.513  0.0626  1.5476 -0.7089
15542SOL    HW250125   9.339   6.345   8.507  0.2533  2.7695  0.1338
15543SOL     OW50126   9.508   3.638   0.670  0.5318  0.8419  0.4484
15543SOL    HW150127   9.472   3.553   0.695  1.1187  0.2131 -0.7743
15543SOL    HW250128   9.433   3.686   0.634  0.8502 -0.5710 -2.3603
15544SOL     OW50129   5.063   7.830   7.705 -0.4854 -0.2996 -0.4837
15544SOL    HW150130   5.155   7.824   7.677 -0.4403 -0.0147 -0.4036
15544SOL    HW250131   5.044   7.924   7.704 -0.4367 -0.2652  0.5988
15545SOL     OW50132   5.607   6.907   9.492  0.2207  0.3127 -0.3989
15545SOL    HW150133   5.581   6.847   9.563  1.4667  0.0607 -0.1358
15545SOL    HW250134   5.701   6.917   9.502 -0.0154  2.9992  0.0999
15546SOL     OW50135   9.615   1.509   4.917 -0.3493 -0.4800  0.1038
15546SOL    HW150136   9.667   1.589   4.920  0.4449 -0.9121 -1.0455
15546SOL    HW250137   9.527   1.536   4.940  0.1042  0.5416  0.6857
15547SOL     OW50138   2.175   9.274   6.714 -0.0534  0.1100 -0.1783
15547SOL    HW150139   2.088   9.241   6.738 -0.6307  0.0233 -2.1965
15547SOL    HW250140   2.200   9.222   6.638  0.4641  2.0458 -1.4034
15548SOL     OW50141   9.107   2.696   7.515 -0.3270  0.4101 -0.0010
15548SOL    HW150142   9.057   2.727   7.441  0.2705  2.1028  0.2505
15548SOL    HW250143   9.079   2.751   7.588  1.2265  0.8145  0.3318
15549SOL     OW50144   4.401   0.866   3.309  0.0114  0.7748  0.1096
15549SOL    HW150145   4.465   0.815   3.358 -0.8019 -0.0856  0.3093
15549SOL    HW250146   4.443   0.884   3.225 -0.4263 -2.0803 -0.8125
15550SOL     OW50147   6.958   1.930   1.544 -0.3707 -0.0922  0.2679
15550SOL    HW150148   7.022   1.924   1.473 -0.5143 -0.8975  0.2017
15550SOL    HW250149   6.906   2.008   1.523  0.6183  0.6108  0.3556
15551SOL     OW50150   2.085   7.432   8.626 -0.5261 -0.3533 -0.0740
15551SOL    HW150151   2.055   7.475   8.706 -0.6975  0.4053 -0.5330
15551SOL    HW250152   2.024   7.462   8.559  1.4295  1.5805 -1.1263
15552SOL     OW50153   0.076   6.421   4.988 -0.1250 -0.2820 -0.5138
15552SOL    HW150154   0.074   6.458   5.077  2.5340 -2.0689  0.4132
15552SOL    HW250155  -0.014   6.428   4.957 -1.0031  1.0248  2.0670
15553SOL     OW50156   2.721   4.894   4.776 -0.0608  0.2810 -0.8752
15553SOL    HW150157   2.752   4.805   4.791  0.6890  0.7326  0.3729
15553SOL    HW250158   2.712   4.901   4.681  0.5889 -0.8844 -1.0337
15554SOL     OW50159   9.818   4.442   0.911  0.2325 -0.1055  0.2775
15554SOL    HW150160   9.825   4.351   0.938 -1.6358 -0.4742 -0.3745
15554SOL    HW250161   9.761   4.482   0.976  0.1105  0.3189 -0.0889
15555SOL     OW50162   8.319   2.945   1.466  0.1971  0.1809 -0.0267
15555SOL    HW150163   8.227   2.970   1.470  0.1498  0.3855 -1.7233
15555SOL    HW250164   8.319   2.850   1.480 -0.6839 -0.4175 -3.2023
15556SOL     OW50165   3.283   2.140   2.214 -0.1816  0.2542  0.2240
15556SOL    HW150166   3.280   2.079   2.140  0.7469  0.4436  0.0145
15556SOL    HW250167   3.232   2.096   2.282  1.7150 -1.5143  0.6091
15557SOL     OW50168   5.084   0.158   9.158  0.2054 -0.1719  0.3663
15557SOL    HW150169   5.155   0.119   9.209 -0.3162 -1.9454 -0.2233
15557SOL    HW250170   5.030   0.085   9.131 -1.3306  1.0551 -0.0309
15558SOL     OW50171   9.610   2.162   8.654 -0.0796  0.2077  0.6639
15558SOL    HW150172   9.620   2.173   8.559 -0.3901 -0.0740  0.5974
15558SOL    HW250173   9.577   2.247   8.685  1.2202  0.7281  0.7056
15559SOL     OW50174   5.259   5.596   3.336  0.4761 -0.8637 -0.4726
15559SOL    HW150175   5.320   5.530   3.305  0.7663 -0.7993 -0.0454
15559SOL    HW250176   5.233   5.566   3.423 -0.8149 -1.3711 -0.9961
15560SOL     OW50177   9.951  10.994   6.955 -0.1103  0.1011 -0.0760
15560SOL    HW150178   9.893  11.052   6.906 -1.5431 -0.8280  0.4571
15560SOL    HW250179   9.985  10.933   6.889  1.5142  1.5454 -0.6667
15561SOL     OW50180   5.511   6.612   8.801 -0.0498 -0.3324 -0.1003
15561SOL    HW150181   5.445   6.580   8.739  0.5150 -3.3540  0.7006
15561SOL    HW250182   5.460   6.638   8.878 -0.8188  4.0173 -1.7883
15562SOL     OW50183   9.837   3.421   9.497  0.2354 -0.5039  0.1976
15562SOL    HW150184   9.782   3.343   9.497  2.3578 -2.1005  0.6457
15562SOL    HW250185   9.872   3.426   9.407  0.0195  0.0206  0.1365
15563SOL     OW50186   8.584   9.472   3.307 -0.7600 -0.1521  0.1969
15563SOL    HW150187   8.611   9.415   3.235 -2.1665 -1.0294  0.3150
15563SOL    HW250188   8.600   9.560   3.274 -2.2077 -0.4878 -1.6121
15564SOL     OW50189   4.905   1.341   1.894 -0.6696 -0.5034 -0.0812
15564SOL    HW150190   4.974   1.386   1.941 -1.7613  0.4913  0.6172
15564SOL    HW250191   4.937   1.334   1.804 -0.0431  0.7497  0.0287
15565SOL     OW50192   8.544   2.325   6.586  0.0978 -0.0010 -0.2318
15565SOL    HW150193   8.479   2.333   6.516 -0.3417  0.8733  0.2509
15565SOL    HW250194   8.609   2.391   6.566  0.5265 -0.4702 -0.3892
15566SOL     OW50195  10.557   0.559   2.694 -0.7711  0.2873  0.4046
15566SOL    HW150196  10.530   0.478   2.737  0.5144 -1.1210 -1.3036
15566SOL    HW250197  10.498   0.568   2.619  0.1463 -0.0017 -0.3683
15567SOL     OW50198   5.952   2.314   2.060 -0.1428  0.1077  0.0135
15567SOL    HW150199   5.962   2.401   2.022  0.5065  0.5918  1.2386
15567SOL    HW250200   5.978   2.254   1.991 -0.7242  0.8728 -0.8921
15568SOL     OW50201   4.884   4.076   0.612  0.2254 -0.2335 -0.4732
15568SOL    HW150202   4.799   4.034   0.606 -0.1700  0.4307  0.3791
15568SOL    HW250203   4.922   4.065   0.524 -0.8760 -0.2097 -0.9675
15569SOL     OW50204   1.354   0.351   1.591  0.1559  0.3871 -0.7502
15569SOL    HW150205   1.326   0.322   1.677 -0.8287  1.6479 -0.6150
15569SOL    HW250206   1.277   0.342   1.536  0.0455  1.8596 -0.8938
15570SOL     OW50207   3.485   8.463   6.013  0.6229  0.4424  0.4214
15570SOL    HW150208   3.545   8.449   5.940  0.2965 -0.3753  0.2990
15570SOL    HW250209   3.474   8.376   6.052 -0.1749  0.6466  0.6732
15571SOL     OW50210   5.916   8.056   2.633 -0.0936  0.8509 -0.2867
15571SOL    HW150211   5.911   8.071   2.727  0.5695  0.8933 -0.2494
15571SOL    HW250212   6.010   8.061   2.613  0.1696 -2.4560 -0.3936
15572SOL     OW50213   4.899   7.216   8.317  0.1742  0.0686  0.3622
15572SOL    HW150214   4.872   7.275   8.247  0.0947  1.9565  1.8987
15572SOL    HW250215   4.873   7.129   8.287 -1.9732  1.0770 -0.9207
15573SOL     OW50216   3.960   5.288   1.893  0.5093  0.2248 -0.7153
15573SOL    HW150217   3.927   5.211   1.939  1.9990 -0.6634 -1.0818
15573SOL    HW250218   3.907   5.291   1.813 -0.4662  0.3898 -0.0838
15574SOL     OW50219   6.143   6.915   8.498 -0.0879 -0.1168 -0.1573
15574SOL    HW150220   6.076   6.848   8.512 -1.2241  0.9311 -0.3152
15574SOL    HW250221   6.132   6.940   8.406  1.6531 -1.0721 -0.6581
15575SOL     OW50222   6.094   3.448   4.483 -0.7787  0.5326  0.1398
15575SOL    HW150223   6.124   3.481   4.567  1.0910 -0.2996 -0.1577
15575SOL    HW250224   6.116   3.517   4.421  2.2495 -0.7311 -0.3351
15576SOL     OW50225  10.682   4.008   2.683 -0.0628  0.6003 -0.4701
15576SOL    HW150226  10.726   3.949   2.745  0.8380  0.0952 -1.5540
15576SOL    HW250227  10.671   3.955   2.604 -0.6677  1.4109 -0.9443
15577SOL     OW50228   9.219   8.036   1.943 -0.6540  0.0511 -0.2919
15577SOL    HW150229   9.243   8.034   1.850  1.0308 -0.9189  0.1208
15577SOL    HW250230   9.295   7.999   1.988 -1.0527  1.3584  1.5649
15578SOL     OW50231   8.785   4.623   8.974  0.2895  0.0177 -0.3553
15578SOL    HW150232   8.841   4.561   8.927  2.3109 -1.0804  3.1488
15578SOL    HW250233   8.825   4.709   8.957  2.4940 -0.6261  1.1694
15579SOL     OW50234   1.093   5.407   4.074  0.4200 -0.4164  0.7851
15579SOL    HW150235   1.055   5.389   3.988  0.3621 -0.4801  0.8246
15579SOL    HW250236   1.187   5.396   4.061  0.4758  0.2407  0.5603
15580SOL     OW50237   3.478   3.153  10.329  0.3008 -0.0427 -0.9392
15580SOL    HW150238   3.516   3.240  10.341  3.6344 -1.5722  1.3277
15580SOL    HW250239   3.499   3.130  10.238  0.7361  0.9288 -1.0994
15581SOL     OW50240   6.293   4.436   9.489 -0.2498 -0.0506  0.1991
15581SOL    HW150241   6.279   4.465   9.579  2.0358  2.2933 -0.0911
15581SOL    HW250242   6.332   4.349   9.498  0.7559  0.4946  1.5695
15582SOL     OW50243   6.596   0.427   6.224 -0.0400 -0.1132 -0.2477
15582SOL    HW150244   6.613   0.424   6.130  1.1047 -0.0419 -0.0570
15582SOL    HW250245   6.643   0.505   6.255  0.4610 -0.7093  0.5414
15583SOL     OW50246   5.112   6.378   4.169  0.3085  0.4757 -0.5767
15583SOL    HW150247   5.127   6.288   4.139 -2.1962 -0.1051 -0.2944
15583SOL    HW250248   5.184   6.428   4.130  0.7474 -1.3381 -2.2714
15584SOL     OW50249  10.513   5.853   7.512 -0.1283 -0.1028 -0.8560
15584SOL    HW150250  10.475   5.905   7.583 -0.7577  0.0504 -1.2953
15584SOL    HW250251  10.484   5.764   7.529  1.5295 -0.4707  0.2918
15585SOL     OW50252   0.420   6.350   2.947 -1.0019 -0.3896 -0.4853
15585SOL    HW150253   0.389   6.381   2.862 -0.3171 -0.1084 -0.6360
15585SOL    HW250254   0.349   6.372   3.007 -0.9945  0.4802 -0.7810
15586SOL     OW50255   0.079   3.514   6.130  0.0220 -0.4030  0.1775
15586SOL    HW150256   0.146   3.537   6.066  0.5477 -0.7269  0.6083
15586SOL    HW250257   0.035   3.597   6.149 -0.5755 -0.4026 -1.0755
15587SOL     OW50258   6.704   3.487   6.895  0.1833  0.4273 -0.2583
15587SOL    HW150259   6.658   3.504   6.812  0.2003  1.0630 -0.1348
15587SOL    HW250260   6.797   3.489   6.871  0.1834  0.4383 -0.2571
15588SOL     OW50261   6.695   7.460   1.046 -0.3424  0.2553 -0.3983
15588SOL    HW150262   6.679   7.539   0.995  1.0639  2.0383  1.7467
15588SOL    HW250263   6.782   7.431   1.018  0.4634  1.2795  0.9423
15589SOL     OW50264   4.545   9.553   1.177 -0.2190 -0.0886 -0.0374
15589SOL    HW150265   4.586   9.629   1.218  1.1561  0.3459 -2.0417
15589SOL    HW250266   4.485   9.591   1.112 -1.0387 -0.7345  0.3240
15590SOL     OW50267   7.337   2.582   4.686  0.0454 -0.3440  0.0684
15590SOL    HW150268   7.361   2.567   4.778  0.3545  0.8850  0.2062
15590SOL    HW250269   7.313   2.495   4.653  0.0470 -0.8235  1.2742
15591SOL     OW50270   9.356   7.914   2.936 -0.9498  0.0296  0.6766
15591SOL    HW150271   9.297   7.918   2.862 -1.1682  1.1945  0.9012
15591SOL    HW250272   9.435   7.872   2.902 -0.6603  1.4669 -0.4859
15592SOL     OW50273   9.318   0.947  10.089  0.4177 -0.5718 -0.0322
15592SOL    HW150274   9.307   0.874  10.029 -2.2828 -0.9816  0.8264
15592SOL    HW250275   9.337   0.907  10.173 -0.2298 -0.2539  0.2702
15593SOL     OW50276   3.176   6.343   3.876 -0.4452 -0.3159  0.0435
15593SOL    HW150277   3.264   6.314   3.902 -0.2847  0.9298  0.9644
15593SOL    HW250278   3.169   6.319   3.783  0.5271 -1.2159  0.1909
15594SOL     OW50279   7.018   2.488   3.781 -0.3846 -0.3418  0.0746
15594SOL    HW150280   6.949   2.446   3.833 -1.3662  0.0018 -0.9318
15594SOL    HW250281   7.061   2.548   3.843 -0.1113 -1.4930  1.0524
15595SOL     OW50282   0.050   5.163   8.537 -0.1006 -0.4044  0.1619
15595SOL    HW150283  -0.038   5.156   8.573  0.0079 -0.6895  0.3705
15595SOL    HW250284   0.088   5.240   8.579  0.0025 -0.6963  0.6175
15596SOL     OW50285  10.484  10.808   7.057 -0.2831 -0.0957 -0.6009
15596SOL    HW150286  10.460  10.718   7.037  0.1230 -0.1193 -0.9883
15596SOL    HW250287  10.472  10.855   6.975 -0.1792  0.1373 -0.4833
15597SOL     OW50288   7.058   3.989   8.492  0.4346 -0.5082  0.2187
15597SOL    HW150289   7.152   3.976   8.504  0.7219 -1.6271 -2.3538
15597SOL    HW250290   7.037   3.938   8.413 -2.2405  0.1177  0.4118
15598SOL     OW50291   9.451   8.788   2.098 -0.1555 -0.1703 -0.2934
15598SOL    HW150292   9.383   8.807   2.034 -0.4140 -0.6743 -0.1714
15598SOL    HW250293   9.421   8.832   2.178 -0.9970 -1.4645  0.1238
15599SOL     OW50294   5.055   9.667  10.286  0.1805 -0.6676 -0.2219
15599SOL    HW150295   5.059   9.741  10.226 -2.5202  0.4159  0.7371
15599SOL    HW250296   5.097   9.698  10.366  0.5088 -0.7580 -0.3616
15600SOL     OW50297   4.537   0.170  10.103 -0.4589  0.4549  0.0216
15600SOL    HW150298   4.488   0.088  10.096 -2.9451  1.9504 -1.4293
15600SOL    HW250299   4.537   0.206  10.014  1.9810  1.3410  0.2807
15601SOL     OW50300   3.344   3.451   6.048  0.2843  0.2610 -0.1642
15601SOL    HW150301   3.408   3.499   6.102  0.8534 -0.2128 -0.4061
15601SOL    HW250302   3.397   3.392   5.995 -0.2562  0.8754 -1.4144
15602SOL     OW50303   2.959   8.590   5.359  0.0741 -0.1022 -0.8022
15602SOL    HW150304   2.889   8.580   5.294  0.9309  2.0742 -2.1380
15602SOL    HW250305   2.948   8.679   5.392  1.4400 -0.1900 -0.0717
15603SOL     OW50306   3.031   8.357   5.471 -0.1055  0.4888 -0.0358
15603SOL    HW150307   2.974   8.425   5.434 -1.2470 -0.6557 -0.4353
15603SOL    HW250308   3.064   8.309   5.395 -1.1869 -0.8663  0.3048
15604SOL     OW50309   3.504   6.514   2.485 -0.2354  0.4942  0.6756
15604SOL    HW150310   3.534   6.433   2.443 -0.0218  1.2750 -0.7260
15604SOL    HW250311   3.416   6.493   2.516  0.3444 -0.6996  1.6045
15605SOL     OW50312   6.608   4.633   0.834 -0.2163  0.4829 -0.2256
15605SOL    HW150313   6.692   4.589   0.852  0.1119  0.7941 -0.9427
15605SOL    HW250314   6.542   4.569   0.860  0.2494 -0.2761 -0.8183
15606SOL     OW50315   6.921   2.406  10.873  0.1749  0.9967 -0.1302
15606SOL    HW150316   6.995   2.428  10.931  1.1949  1.5756 -1.5873
15606SOL    HW250317   6.904   2.314  10.889  2.7369  0.2235 -1.3478
15607SOL     OW50318  10.889   5.973   3.640  0.1545 -0.2334  0.5455
15607SOL    HW150319  10.901   6.019   3.723  0.3526 -1.7816  1.4238
15607SOL    HW250320  10.976   5.976   3.599  0.4101 -0.6025  1.0351
15608SOL     OW50321   5.758   5.995   1.320 -0.5980  0.0311  0.5847
15608SOL    HW150322   5.690   5.966   1.381 -1.2524 -0.3508 -0.3098
15608SOL    HW250323   5.753   6.091   1.322  0.0206  0.0488  1.8235
15609SOL     OW50324   3.657  10.629   2.983  0.4208  0.6438 -0.1164
15609SOL    HW150325   3.640  10.617   2.890  0.0754  1.0115 -0.1039
15609SOL    HW250326   3.617  10.713   3.004  3.1857  2.1287 -0.3282
15610SOL     OW50327   5.404   0.386   6.760 -0.0737 -0.6042  0.0845
15610SOL    HW150328   5.376   0.297   6.736 -1.9462 -0.5989  1.8878
15610SOL    HW250329   5.492   0.375   6.796 -0.4614 -1.8378  0.7138
15611SOL     OW50330   3.421   2.813   1.087 -0.9200  0.1312  0.8533
15611SOL    HW150331   3.360   2.764   1.032 -1.4252  0.0715  1.4459
15611SOL    HW250332   3.403   2.905   1.068  1.7574  0.1997 -2.1569
15612SOL     OW50333  10.886  10.662   2.409  0.0043  0.5452 -0.4800
15612SOL    HW150334  10.815  10.724   2.395 -1.5298 -1.0237 -0.0410
15612SOL    HW250335  10.889  10.650   2.504  1.4340  1.1973 -0.4204
15613SOL     OW50336   5.893   8.820   2.586 -0.6720  0.5142  0.4749
15613SOL    HW150337   5.953   8.822   2.660 -0.0093 -1.8596  0.0919
15613SOL    HW250338   5.915   8.898   2.535  1.2582  0.3630  0.9991
15614SOL     OW50339   7.421   1.062  10.964  0.3583 -0.9815  0.6567
15614SOL    HW150340   7.516   1.075  10.960  0.3438 -0.6845  1.1874
15614SOL    HW250341   7.405   1.023  11.050 -0.0765 -0.3106  0.8923
15615SOL     OW50342   6.106  10.814   4.099  0.5825 -0.1946 -0.0575
15615SOL    HW150343   6.141  10.826   4.011 -2.2225  1.0517 -1.1300
15615SOL    HW250344   6.075  10.901   4.124 -0.2210 -0.8780  1.4557
15616SOL     OW50345   8.294   1.177   2.295 -0.1456  0.2039  0.3254
15616SOL    HW150346   8.203   1.148   2.291  0.4610 -1.8833  0.0025
15616SOL    HW250347   8.338   1.107   2.345  1.4775  0.5414 -0.5586
15617SOL     OW50348  10.389   8.981   0.274  1.2178  0.0027  0.1194
15617SOL    HW150349  10.360   8.969   0.364  1.7085  1.0120  0.4345
15617SOL    HW250350  10.437   8.901   0.253  0.5319 -0.5216  0.5150
15618SOL     OW50351   7.803   8.247   6.268 -0.0363 -0.0089 -0.5049
15618SOL    HW150352   7.783   8.332   6.228 -0.5226  1.4414  2.5031
15618SOL    HW250353   7.718   8.206   6.281 -0.7229  2.1239  3.9409
15619SOL     OW50354  10.632   0.245   2.376  1.0659  0.2820  0.8847
15619SOL    HW150355  10.551   0.211   2.414  1.0603 -0.7112  0.0130
15619SOL    HW250356  10.615   0.338   2.362 -0.3098 -0.1125 -0.2651
15620SOL     OW50357   0.256   7.540   1.398 -0.0816  0.7072 -0.8385
15620SOL    HW150358   0.344   7.512   1.425 -0.8888 -0.9900  0.1934
15620SOL    HW250359   0.269   7.584   1.315  1.7122  0.1594 -0.8824
15621SOL     OW50360   9.770   3.353   3.341  0.3927 -0.0502  0.8899
15621SOL    HW150361   9.835   3.341   3.410 -0.7924 -0.6238  1.9487
15621SOL    HW250362   9.766   3.268   3.297 -2.2418 -1.3278  3.2438
15622SOL     OW50363   4.765   9.911  10.686 -0.3481 -0.0087 -0.1588
15622SOL    HW150364   4.813   9.914  10.769 -1.5207  1.1037  0.5158
15622SOL    HW250365   4.736   9.820  10.679 -0.7925  0.0236  0.9997
15623SOL     OW50366   6.170   5.899   5.473 -0.2833 -0.1592  0.0694
15623SOL    HW150367   6.082   5.929   5.496 -0.1225  0.9448 -0.7015
15623SOL    HW250368   6.168   5.887   5.378  0.5727  0.4839 -0.0383
15624SOL     OW50369   8.690   5.460   6.533 -0.2004 -0.6882 -0.5459
15624SOL    HW150370   8.627   5.451   6.604 -0.6392 -0.8765 -0.9506
15624SOL    HW250371   8.640   5.438   6.454 -0.1145  0.8782 -1.0873
15625SOL     OW50372   8.841  10.693   5.929 -0.1727 -0.5918 -0.1788
15625SOL    HW150373   8.791  10.761   5.974 -1.5758 -2.5477  1.4167
15625SOL    HW250374   8.776  10.628   5.903  1.0173 -0.9972 -2.4102
15626SOL     OW50375   8.406   6.728   8.271  0.1422 -0.6752 -0.2506
15626SOL    HW150376   8.323   6.683   8.257 -0.7918  0.3165  1.6647
15626SOL    HW250377   8.436   6.697   8.357  1.4734 -0.5715 -0.6464
15627SOL     OW50378   8.479   8.499   5.113  0.1223 -0.5005  0.3909
15627SOL    HW150379   8.422   8.476   5.040 -0.5132 -0.5374  0.8916
15627SOL    HW250380   8.488   8.594   5.108  2.3039 -0.7164 -1.3491
15628SOL     OW50381   6.406   1.645   1.177  0.4240 -0.2967 -0.2359
15628SOL    HW150382   6.370   1.560   1.205  0.4297  0.0030  0.7184
15628SOL    HW250383   6.500   1.630   1.172  0.3140 -0.6727 -1.2567
15629SOL     OW50384   9.279   5.358   6.891  0.3531  0.0845 -0.0043
15629SOL    HW150385   9.298   5.446   6.924 -0.9389  0.0451  0.9361
15629SOL    HW250386   9.216   5.323   6.954 -0.2270 -0.9869 -1.1548
15630SOL     OW50387   1.847   2.471   4.933 -0.1790 -0.2683  0.1392
15630SOL    HW150388   1.803   2.426   5.004 -0.2196 -0.4306  0.0133
15630SOL    HW250389   1.833   2.564   4.950 -1.7923 -0.3320 -0.6633
15631SOL     OW50390   8.288   8.917  10.773  0.3318 -0.5130  0.2007
15631SOL    HW150391   8.336   8.845  10.813  0.7172 -1.8754 -2.4699
15631SOL    HW250392   8.286   8.985  10.840  4.8202 -0.8626  0.9967
15632SOL     OW50393   4.005  10.068   1.867  0.6232  0.0909 -0.1155
15632SOL    HW150394   3.934  10.009   1.839  0.6424  0.7423 -1.6572
15632SOL    HW250395   4.063  10.013   1.918  0.6725 -1.2731 -1.5643
15633SOL     OW50396   0.191   3.924   5.701 -0.4311  0.0489  0.2666
15633SOL    HW150397   0.146   3.891   5.779 -0.7225  0.1277  0.1317
15633SOL    HW250398   0.173   4.018   5.702 -2.6480 -0.2946 -1.3250
15634SOL     OW50399   2.957   5.246   7.331 -0.0739 -0.4109  0.0586
15634SOL    HW150400   3.005   5.324   7.302  0.3483 -1.0543 -1.0460
15634SOL    HW250401   2.975   5.240   7.424 -0.1777  0.8541  0.1836
15635SOL     OW50402   3.699   9.390   1.908  0.2125  0.0856  0.5470
15635SOL    HW150403   3.755   9.312   1.907 -0.5603 -0.4799  0.0784
15635SOL    HW250404   3.686   9.409   2.001  0.0615 -0.5964  0.6695
15636SOL     OW50405   8.667   1.453   6.091 -0.3517 -0.0594 -0.2221
15636SOL    HW150406   8.718   1.533   6.079 -0.3600 -0.2355 -1.6136
15636SOL    HW250407   8.580   1.483   6.118 -0.0744  0.3410  0.2408
15637SOL     OW50408   4.046   5.237   5.821  0.2225 -0.2975  0.1151
15637SOL    HW150409   4.132   5.280   5.828  0.4454 -0.6979 -0.1190
15637SOL    HW250410   4.063   5.160   5.767 -0.9709  1.5241 -3.2331
15638SOL     OW50411   0.764   2.002   8.866 -0.1792  0.1954  0.3370
15638SOL    HW150412   0.824   2.077   8.858  0.6176 -0.4572  0.0222
15638SOL    HW250413   0.793   1.941   8.798  1.1095 -1.6897  2.4334
15639SOL     OW50414   2.267   6.401   2.873 -0.0747  0.5975 -0.3216
15639SOL    HW150415   2.354   6.436   2.856  0.8206 -0.0444  2.3973
15639SOL    HW250416   2.282   6.313   2.907 -1.7311  0.6467  0.6847
15640SOL     OW50417   4.499   0.586   5.015  0.0945  0.3991 -0.0531
15640SOL    HW150418   4.438   0.512   5.008  0.1478  0.1391  1.8237
15640SOL    HW250419   4.452   0.651   5.068  1.4297  0.1818  1.4429
15641SOL     OW50420   3.429   5.060   8.522  0.8659 -0.3805  0.4557
15641SOL    HW150421   3.427   5.152   8.497 -0.2913 -0.8526 -1.3999
15641SOL    HW250422   3.478   5.017   8.452  0.9478 -1.2371  1.0261
15642SOL     OW50423   4.546   9.152   7.186 -0.0404 -0.1793  0.5549
15642SOL    HW150424   4.495   9.108   7.255 -0.8128 -0.5320 -0.2244
15642SOL    HW250425   4.595   9.081   7.144 -1.3856 -0.3556 -0.7893
15643SOL     OW50426   7.389   5.645   2.086  0.0122 -0.4150 -0.0847
15643SOL    HW150427   7.312   5.594   2.060 -0.5255 -0.0977  0.8278
15643SOL    HW250428   7.434   5.590   2.150  0.6223 -0.6520 -0.7058
15644SOL     OW50429   7.135  10.483   4.508  0.2103 -0.2343  0.8313
15644SOL    HW150430   7.142  10.426   4.585 -0.7363 -0.3411  0.8534
15644SOL    HW250431   7.120  10.570   4.544  2.0382  0.1431  0.8086
15645SOL     OW50432   2.652   7.905   6.452  0.1662 -0.7681 -0.5358
15645SOL    HW150433   2.561   7.880   6.436 -0.3847  2.4014 -3.6412
15645SOL    HW250434   2.648   7.962   6.529 -0.6011 -0.3188 -0.8924
15646SOL     OW50435   0.317   6.591   6.161  0.2414 -0.7666 -0.4672
15646SOL    HW150436   0.386   6.658   6.156  0.1232 -0.5159  0.8350
15646SOL    HW250437   0.341   6.538   6.238  0.2947 -2.1996 -1.4384
15647SOL     OW50438   1.159   0.487   5.942 -0.3465  0.6205 -0.5121
15647SOL    HW150439   1.203   0.416   5.987  0.8623  1.1582 -0.8138
15647SOL    HW250440   1.066   0.466   5.950 -0.0151 -2.1802 -2.4972
15648SOL     OW50441   1.868   3.960   8.233  0.3119  0.5065  0.4491
15648SOL    HW150442   1.849   4.001   8.149 -0.8147 -0.0848  0.3935
15648SOL    HW250443   1.782   3.942   8.271  0.7738 -0.9612  0.8739
15649SOL     OW50444   9.866   6.988   0.283  0.6257 -0.6598 -0.0579
15649SOL    HW150445   9.887   7.054   0.217  0.6900 -2.1038 -1.5426
15649SOL    HW250446   9.770   6.987   0.286  0.5050 -2.5288 -2.2640
15650SOL     OW50447   1.089   8.032   9.601  0.3634 -0.0043 -0.8057
15650SOL    HW150448   1.148   7.957   9.588  1.6141  0.8794 -0.4293
15650SOL    HW250449   1.133   8.105   9.560 -1.5628  0.2765 -2.5231
15651SOL     OW50450   1.753   8.578   0.791 -0.0930  0.2075 -0.5523
15651SOL    HW150451   1.659   8.565   0.803  0.1507 -1.9450 -0.6741
15651SOL    HW250452   1.766   8.571   0.696  0.1660  0.8636 -0.5747
15652SOL     OW50453  10.352   9.073   5.623 -0.1339  0.3926 -0.4822
15652SOL    HW150454  10.268   9.037   5.649 -0.0896  1.1608  0.7923
15652SOL    HW250455  10.405   8.997   5.599 -0.6058 -0.2494  0.4598
15653SOL     OW50456   6.726   3.180   1.930 -0.1571 -0.7394 -0.2122
15653SOL    HW150457   6.766   3.252   1.882 -0.8695  0.3876  0.8332
15653SOL    HW250458   6.646   3.161   1.882 -0.4781 -0.1394  0.0766
15654SOL     OW50459   0.275   4.467   4.058  0.6431 -0.7805 -0.0150
15654SOL    HW150460   0.354   4.440   4.104  0.2731 -1.4067  0.2787
15654SOL    HW250461   0.207   4.408   4.091  0.1140 -0.4408 -0.4703
15655SOL     OW50462   1.149  10.604   8.797 -0.2913 -0.5642  0.0009
15655SOL    HW150463   1.151  10.553   8.877 -0.1344 -1.5790 -0.6270
15655SOL    HW250464   1.061  10.641   8.794 -0.2658 -0.4421  0.6835
15656SOL     OW50465   2.570   8.374   5.797  0.9123 -0.2097  0.3287
15656SOL    HW150466   2.529   8.371   5.711 -0.2901  2.6547  0.7005
15656SOL    HW250467   2.646   8.432   5.785  0.7677  0.1655  1.1804
15657SOL     OW50468   9.202   0.290   7.737 -0.1121  0.2334  0.3013
15657SOL    HW150469   9.239   0.289   7.649  0.3276 -0.3544  0.4819
15657SOL    HW250470   9.271   0.252   7.792 -0.5036  0.2967  0.8450
15658SOL     OW50471   6.506   7.378   6.576 -0.1404  0.0577  0.0425
15658SOL    HW150472   6.513   7.290   6.615  0.9261 -0.9469 -2.2500
15658SOL    HW250473   6.420   7.380   6.536  0.0677 -0.1769 -0.4201
15659SOL     OW50474   2.895   8.712   7.411  0.0538 -0.5580  0.2516
15659SOL    HW150475   2.807   8.739   7.439 -0.2117 -1.0865 -0.0474
15659SOL    HW250476   2.918   8.773   7.342  0.0264 -0.2665  0.4964
15660SOL     OW50477   4.680   7.584   2.643 -0.1311 -0.0226 -0.0527
15660SOL    HW150478   4.752   7.552   2.588  1.3881  1.5939  0.9186
15660SOL    HW250479   4.659   7.510   2.700  1.1664 -0.3416  0.0394
15661SOL     OW50480   3.871   8.047   0.367 -0.3015  0.3577 -0.3610
15661SOL    HW150481   3.807   8.102   0.412 -0.5488  1.4975 -2.0238
15661SOL    HW250482   3.955   8.069   0.408 -0.5611  1.1217 -0.2236
15662SOL     OW50483   7.876   9.147   9.408 -0.1585  0.4636  0.3822
15662SOL    HW150484   7.854   9.240   9.397 -1.9941 -0.1195 -1.4472
15662SOL    HW250485   7.813   9.115   9.473 -0.6144  0.1566 -0.2038
15663SOL     OW50486   0.159   7.864   8.022 -0.7245 -0.1752 -0.0922
15663SOL    HW150487   0.223   7.903   7.962  1.9011 -3.0500  0.5821
15663SOL    HW250488   0.113   7.799   7.970 -1.4543  0.2354  0.0247
15664SOL     OW50489   2.602   3.505   1.024  0.7887 -0.0956 -0.0191
15664SOL    HW150490   2.551   3.581   0.997 -0.8143 -0.4847  1.6865
15664SOL    HW250491   2.684   3.541   1.058  0.5613  0.7656 -0.3784
15665SOL     OW50492  10.843   7.467   1.824  0.2714  0.3577 -0.4257
15665SOL    HW150493  10.764   7.517   1.847 -1.1239 -0.9108 -2.1396
15665SOL    HW250494  10.879   7.513   1.749  1.8633  1.5482  0.9871
15666SOL     OW50495   2.669   3.157   2.921  0.0335  0.2035 -0.0902
15666SOL    HW150496   2.751   3.192   2.886  0.6443 -1.5669 -0.5220
15666SOL    HW250497   2.696   3.107   2.998 -0.7621  0.3582  0.2930
15667SOL     OW50498   4.811   6.128   1.326 -0.1059  0.5772  0.0321
15667SOL    HW150499   4.889   6.114   1.379 -0.3975  1.0593  0.5936
15667SOL    HW250500   4.806   6.050   1.270  1.2436  0.9230 -0.6105
15668SOL     OW50501   3.116   0.181   7.089 -0.3109  0.4705  0.0817
15668SOL    HW150502   3.205   0.188   7.056 -0.6951  3.7816 -0.6131
15668SOL    HW250503   3.124   0.134   7.172  2.0162  0.5326 -0.0597
15669SOL     OW50504   5.583   6.653   2.020 -0.5544  0.1641  0.0439
15669SOL    HW150505   5.663   6.604   2.002  0.4891  0.4791  3.1386
15669SOL    HW250506   5.581   6.721   1.953  1.4746 -0.2174 -0.4777
15670SOL     OW50507   3.030   2.705   7.682 -0.1809 -0.4795 -0.4761
15670SOL    HW150508   3.054   2.764   7.753 -0.9574 -2.0788  1.2141
15670SOL    HW250509   2.942   2.733   7.656 -0.2041 -0.3654 -0.2748
15671SOL     OW50510   3.996   5.389   0.642  0.2080 -0.0492 -0.3649
15671SOL    HW150511   4.054   5.372   0.567 -1.2034  0.0229 -1.5210
15671SOL    HW250512   3.950   5.469   0.619 -0.9028 -0.5110  0.1617
15672SOL     OW50513   1.192   0.996   4.499 -0.1037 -0.1872  0.4677
15672SOL    HW150514   1.193   1.079   4.451 -0.4775  0.6356  1.8247
15672SOL    HW250515   1.260   0.944   4.457  0.1178  0.7924 -0.4433
15673SOL     OW50516   0.645   5.522   2.998  0.1924  0.2766 -0.3961
15673SOL    HW150517   0.698   5.552   2.924 -0.8967 -0.0559 -1.3560
15673SOL    HW250518   0.568   5.579   2.997  0.2916  0.4417  0.6640
15674SOL     OW50519   4.612   3.966   7.148  0.5222  0.2800  0.1570
15674SOL    HW150520   4.578   3.991   7.063  0.1763 -0.0866  0.1900
15674SOL    HW250521   4.537   3.971   7.207  0.9460  1.4089  0.6230
15675SOL     OW50522   6.909   9.998   5.283 -0.5367  0.1091  0.3750
15675SOL    HW150523   6.924   9.904   5.287  0.6780  0.3485  2.2851
15675SOL    HW250524   6.814  10.007   5.275 -0.6610 -1.2526  0.2001
15676SOL     OW50525   0.782   4.371   7.357 -0.0089 -0.0382  0.0296
15676SOL    HW150526   0.706   4.327   7.317 -0.2440 -1.0161  1.4692
15676SOL    HW250527   0.799   4.321   7.437  1.6669  0.6659  0.1437
15677SOL     OW50528   1.039   3.237   9.839  0.1405  0.0460 -0.0093
15677SOL    HW150529   1.082   3.251   9.755  0.7050  1.1997  0.4519
15677SOL    HW250530   0.962   3.184   9.819  0.3820  0.1449 -1.2209
15678SOL     OW50531   5.890   1.876  10.182  0.0767  0.3531  0.4782
15678SOL    HW150532   5.858   1.817  10.114  0.2087  0.1685  0.5724
15678SOL    HW250533   5.931   1.948  10.135 -0.3086  0.4940  0.3600
15679SOL     OW50534   2.953   2.494   4.394 -0.0091 -0.0079 -0.3459
15679SOL    HW150535   3.027   2.449   4.435  0.1177 -1.4539 -2.0257
15679SOL    HW250536   2.891   2.424   4.374  0.1784  0.4789 -3.0228
15680SOL     OW50537   8.122   4.752   4.201 -0.4365  0.3573 -0.0907
15680SOL    HW150538   8.133   4.819   4.268 -0.6753  0.6338 -0.3250
15680SOL    HW250539   8.044   4.704   4.229  0.1635 -0.3091  0.4801
15681SOL     OW50540   6.139   7.222   8.787 -0.1633  0.3092 -0.1033
15681SOL    HW150541   6.198   7.295   8.768  2.3202 -1.6280 -0.4071
15681SOL    HW250542   6.135   7.219   8.883  0.3014  0.4586 -0.0745
15682SOL     OW50543   8.014   0.621   2.774  0.2019 -0.6916 -0.6602
15682SOL    HW150544   8.044   0.656   2.690  0.6073  0.0836 -0.2056
15682SOL    HW250545   7.926   0.588   2.757 -0.1717  0.5163 -1.1191
15683SOL     OW50546   7.232   8.852   0.457 -0.0900  0.4702 -0.2782
15683SOL    HW150547   7.157   8.798   0.482  1.6035 -1.3215  1.2968
15683SOL    HW250548   7.305   8.814   0.505  1.9499  1.7989 -2.1523
15684SOL     OW50549   4.330   2.466   0.741 -0.8639  0.0434  0.3143
15684SOL    HW150550   4.341   2.391   0.800 -2.2838  0.0399  0.5982
15684SOL    HW250551   4.305   2.539   0.798 -0.9749  0.3661 -0.1386
15685SOL     OW50552   5.973   0.753   7.612  1.0146  0.3605  0.8802
15685SOL    HW150553   5.945   0.707   7.691 -0.3320  1.0401  0.8263
15685SOL    HW250554   5.983   0.684   7.547 -2.1296  0.1329  0.4549
15686SOL     OW50555   0.364   5.586   7.569  0.3276 -0.1166 -0.8059
15686SOL    HW150556   0.367   5.664   7.624 -0.2538 -0.7891  0.2021
15686SOL    HW250557   0.451   5.547   7.577  0.6966  0.5497 -1.5045
15687SOL     OW50558   7.400   0.156   7.483  0.2183  0.2567 -0.1715
15687SOL    HW150559   7.429   0.070   7.454 -0.3491 -0.3633  1.0226
15687SOL    HW250560   7.393   0.207   7.402  0.0491 -0.9677 -0.9611
15688SOL     OW50561   3.541   0.468   0.119 -0.1763  0.0584 -0.0046
15688SOL    HW150562   3.617   0.412   0.104 -0.5795 -0.1885 -1.3082
15688SOL    HW250563   3.574   0.557   0.106  0.2776  0.0880  1.2374
15689SOL     OW50564   7.876   7.671   4.983  0.5635  0.2074  0.1329
15689SOL    HW150565   7.922   7.754   4.978 -0.0607  0.5222 -0.5799
15689SOL    HW250566   7.940   7.605   4.958  0.3467  0.7470 -2.0401
15690SOL     OW50567   4.111   4.170   8.682 -0.0622  0.5146 -0.7435
15690SOL    HW150568   4.123   4.253   8.636  0.6131  1.0289  0.3195
15690SOL    HW250569   4.169   4.176   8.758 -2.2451  0.3798  1.0716
15691SOL     OW50570   0.951   7.524   1.398 -0.2756  0.0744  0.2096
15691SOL    HW150571   1.023   7.468   1.371 -0.2547  0.6005 -0.9127
15691SOL    HW250572   0.900   7.538   1.318 -1.0216  0.5765  0.7491
15692SOL     OW50573   1.570   3.569   4.721 -0.1533 -0.1293 -0.2735
15692SOL    HW150574   1.608   3.634   4.662 -1.4554 -0.0488 -1.0652
15692SOL    HW250575   1.511   3.518   4.666 -0.3567 -0.9571  0.6763
15693SOL     OW50576   7.399   8.924   6.282 -0.4981 -0.3115 -0.0070
15693SOL    HW150577   7.335   8.893   6.218  0.7204  0.6188 -1.7671
15693SOL    HW250578   7.445   8.995   6.236  2.4292 -1.5757  0.8025
15694SOL     OW50579   8.402   2.260   7.909 -0.3700  0.4356 -0.1313
15694SOL    HW150580   8.406   2.327   7.841 -0.3821 -1.1269 -1.7516
15694SOL    HW250581   8.396   2.178   7.861  0.0807 -0.7761  1.7797
15695SOL     OW50582   5.878   4.902   8.771 -0.3445  0.8358 -0.3354
15695SOL    HW150583   5.818   4.976   8.779 -0.5021  0.8054 -1.1500
15695SOL    HW250584   5.884   4.886   8.677 -1.4200 -1.0789 -0.1296
15696SOL     OW50585   9.016   6.172   4.308  0.4940  0.3255  0.9488
15696SOL    HW150586   8.926   6.142   4.298  0.7570 -0.1656 -0.0390
15696SOL    HW250587   9.055   6.110   4.369  0.2168  0.4446  1.2541
15697SOL     OW50588   4.884  10.815   1.021 -0.2059 -0.1172 -0.0599
15697SOL    HW150589   4.815  10.876   0.993 -0.6532 -0.3144  0.5926
15697SOL    HW250590   4.965  10.865   1.010 -0.4525  0.1518 -0.7372
15698SOL     OW50591   8.836   2.064   3.839  0.1223 -0.1709  0.2659
15698SOL    HW150592   8.868   2.150   3.867  0.4585  0.3834 -1.6528
15698SOL    HW250593   8.752   2.054   3.884  0.6097  0.6358  1.4033
15699SOL     OW50594   9.776   9.564   8.101 -0.3644 -0.0116  0.0785
15699SOL    HW150595   9.749   9.506   8.029  0.4640 -1.1918  0.6958
15699SOL    HW250596   9.865   9.590   8.078  1.0505 -2.7223  2.0186
15700SOL     OW50597   0.080   7.977   1.382 -0.0868  0.2316 -0.0139
15700SOL    HW150598   0.063   8.039   1.453 -0.7987  0.3123 -0.2499
15700SOL    HW250599   0.099   7.894   1.425 -2.2721 -0.1640  0.2516
15701SOL     OW50600   3.518   4.003   8.328 -0.3802 -0.2030 -0.3360
15701SOL    HW150601   3.442   3.946   8.347  0.1117 -0.2835  1.6836
15701SOL    HW250602   3.567   4.004   8.410  0.7670  1.4520 -1.0023
15702SOL     OW50603   9.092   5.847   3.931  0.0098 -0.3102 -0.5172
15702SOL    HW150604   9.116   5.937   3.952 -1.1761 -0.4700  1.8425
15702SOL    HW250605   9.125   5.796   4.005  0.3709 -1.7856 -1.6622
15703SOL     OW50606   4.316   9.804   5.428  0.1583  0.3520 -0.2615
15703SOL    HW150607   4.253   9.732   5.436  0.1261  0.0780 -2.3556
15703SOL    HW250608   4.401   9.760   5.423  0.3420  0.6053  0.4294
15704SOL     OW50609   8.670   7.430   5.268 -0.7640 -0.0144 -0.2873
15704SOL    HW150610   8.576   7.416   5.258 -0.5451  0.0870 -3.4669
15704SOL    HW250611   8.679   7.525   5.280 -1.0384  0.0828 -0.8312
15705SOL     OW50612   5.438   7.142   3.908  0.2667 -0.4811  0.1748
15705SOL    HW150613   5.391   7.225   3.899  0.1144 -0.6396 -0.5695
15705SOL    HW250614   5.401   7.101   3.986  0.6346  0.3375  0.7864
15706SOL     OW50615   1.351   4.316   8.582 -0.0503  0.0551  0.0164
15706SOL    HW150616   1.332   4.391   8.637  1.0485  0.2750  0.1306
15706SOL    HW250617   1.301   4.331   8.502 -1.2863 -0.0342  0.7522
15707SOL     OW50618   6.564   2.678  10.071  0.5739  0.1204  0.0872
15707SOL    HW150619   6.480   2.671  10.115  0.3786  0.1425 -0.2774
15707SOL    HW250620   6.616   2.605  10.106 -0.0407 -0.6825 -0.6333
15708SOL     OW50621  10.815   1.566   9.434  0.1437 -0.4784 -0.3074
15708SOL    HW150622  10.843   1.638   9.378  0.6927 -0.5887 -0.1753
15708SOL    HW250623  10.730   1.539   9.398 -0.9081  1.3398  0.6576
15709SOL     OW50624   4.537  10.107   5.716 -0.5563  0.3276 -0.0072
15709SOL    HW150625   4.611  10.151   5.674 -0.8002  0.5072 -0.2520
15709SOL    HW250626   4.577  10.037   5.768 -0.1992  0.5486  0.0209
15710SOL     OW50627   6.467   4.937   4.407  0.4541 -0.4366 -0.0194
15710SOL    HW150628   6.467   4.846   4.378  0.7705 -0.5344  0.2708
15710SOL    HW250629   6.487   4.932   4.501  0.3998 -0.0744  0.0132
15711SOL     OW50630   5.420   9.764   3.646 -0.2481  0.2309 -0.3904
15711SOL    HW150631   5.355   9.826   3.613  0.1575 -0.2307 -2.1603
15711SOL    HW250632   5.381   9.678   3.628 -0.3257 -0.0719  1.0541
15712SOL     OW50633   2.123   6.601   9.534  0.6934 -0.0363  0.0677
15712SOL    HW150634   2.074   6.587   9.615  0.1758 -0.4957 -0.3160
15712SOL    HW250635   2.179   6.523   9.526  0.7631  0.0201 -0.0033
15713SOL     OW50636   4.739  10.517   7.216  0.4985 -0.1274  0.2090
15713SOL    HW150637   4.795  10.505   7.293 -0.5003 -0.5519  0.8928
15713SOL    HW250638   4.651  10.501   7.249 -0.0962  1.1681 -0.7044
15714SOL     OW50639   8.412   9.567   1.642  0.0498  0.0132 -0.3139
15714SOL    HW150640   8.393   9.508   1.714  0.0649 -0.2330 -0.5098
15714SOL    HW250641   8.400   9.654   1.678 -1.8067 -0.1262 -0.5323
15715SOL     OW50642   3.220   6.811   2.280 -0.1803  0.4638  0.1338
15715SOL    HW150643   3.284   6.862   2.231  0.9733  0.3582  1.4429
15715SOL    HW250644   3.250   6.815   2.371 -2.7635  1.5160  1.0543
15716SOL     OW50645   9.009   4.600   7.683  0.3276  0.1644  0.3772
15716SOL    HW150646   9.004   4.567   7.773 -1.5981 -0.9476 -0.0606
15716SOL    HW250647   9.007   4.695   7.691 -2.5784  0.1073  1.4966
15717SOL     OW50648   6.223   9.508   7.840 -0.4317  0.4675  1.0560
15717SOL    HW150649   6.195   9.597   7.860 -0.6101  0.4766  0.7719
15717SOL    HW250650   6.277   9.517   7.761 -1.6822  0.1472  0.1351
15718SOL     OW50651   4.249   7.814   2.403  0.1204 -0.3019  0.1580
15718SOL    HW150652   4.224   7.731   2.364 -2.0625  0.0061  0.7690
15718SOL    HW250653   4.174   7.839   2.457  0.2166  2.5957 -0.8760
15719SOL     OW50654   8.267   8.433   9.610  0.3674 -0.1586 -0.0871
15719SOL    HW150655   8.298   8.350   9.647  0.9132  0.1750  0.2237
15719SOL    HW250656   8.172   8.423   9.603  0.5000 -1.0942 -0.7534
15720SOL     OW50657   3.309   8.967   8.217  0.4505 -0.3223  0.3836
15720SOL    HW150658   3.302   8.973   8.312  0.7282 -0.1971  0.3975
15720SOL    HW250659   3.301   9.057   8.186 -0.5674 -0.4627  0.2220
15721SOL     OW50660   3.402   4.171   1.540 -0.4013 -0.2236  0.1523
15721SOL    HW150661   3.338   4.183   1.611 -1.2170 -0.9262 -0.4395
15721SOL    HW250662   3.438   4.084   1.555 -1.5976 -0.9714 -1.0518
15722SOL     OW50663   7.941  10.414   1.046 -0.2049 -0.0992 -0.4026
15722SOL    HW150664   7.970  10.331   1.007  0.5918  0.5857 -1.3128
15722SOL    HW250665   7.917  10.468   0.971 -0.7078  0.5025  0.1853
15723SOL     OW50666   1.316   9.056   2.574 -0.5805 -0.2209 -0.4724
15723SOL    HW150667   1.392   9.012   2.536 -0.0159 -1.3089  1.7677
15723SOL    HW250668   1.345   9.146   2.588 -0.4657 -0.0645 -1.6339
15724SOL     OW50669   1.278  10.608   7.906 -0.2152 -0.1348  0.0239
15724SOL    HW150670   1.261  10.638   7.996 -0.9989 -1.5751  0.3903
15724SOL    HW250671   1.276  10.688   7.854 -0.4634  0.6511  1.1824
15725SOL     OW50672   6.760   8.066   1.835  0.4422 -0.0399 -0.0305
15725SOL    HW150673   6.712   8.032   1.910 -0.4124 -0.3124 -0.6820
15725SOL    HW250674   6.806   7.991   1.799 -1.1464 -0.4905 -1.2450
15726SOL     OW50675  10.147   0.679   5.945 -0.2380  0.3724  0.3471
15726SOL    HW150676  10.235   0.693   5.978 -0.3445  2.2582 -0.1027
15726SOL    HW250677  10.159   0.647   5.856 -0.0121  0.9966  0.1535
15727SOL     OW50678  10.100   6.630   9.620 -0.3385  0.3627  0.5784
15727SOL    HW150679  10.057   6.715   9.616 -0.2951  0.3752  0.3907
15727SOL    HW250680  10.029   6.569   9.641 -0.4356  0.3956  0.3536
15728SOL     OW50681   3.968   7.926   2.678  0.0102  0.5902 -0.3873
15728SOL    HW150682   4.056   7.899   2.705 -0.5804  0.5980  1.7561
15728SOL    HW250683   3.923   7.843   2.660  0.0259  0.4928  0.0064
15729SOL     OW50684   1.003   7.094   7.393 -0.8396 -0.0178  0.5990
15729SOL    HW150685   0.915   7.056   7.397 -0.2815 -1.5243 -0.7167
15729SOL    HW250686   1.062   7.021   7.407  0.2590  0.3376 -1.6223
15730SOL     OW50687   3.941   7.092   7.209  0.0748 -0.1651 -0.6350
15730SOL    HW150688   3.896   7.121   7.130  1.3234 -0.8774 -1.6448
15730SOL    HW250689   3.950   6.997   7.198 -0.3932 -0.3809  0.7232
15731SOL     OW50690   0.358   3.863   4.144  0.2186  0.0510 -0.6819
15731SOL    HW150691   0.442   3.886   4.103  0.7863  1.9291  1.3164
15731SOL    HW250692   0.350   3.769   4.131  0.8816  0.3024 -3.9692
15732SOL     OW50693   7.803   2.154   9.478  0.0761 -0.0329  0.0968
15732SOL    HW150694   7.756   2.071   9.478  1.3493 -0.7808  0.2429
15732SOL    HW250695   7.865   2.146   9.405  0.4431  0.6409  0.3260
15733SOL     OW50696   4.595  10.852   2.434 -0.2752  0.1171 -0.3716
15733SOL    HW150697   4.663  10.915   2.409  0.0984  0.3599  1.1852
15733SOL    HW250698   4.516  10.905   2.446 -0.9510 -0.2266 -2.6925
15734SOL     OW50699   9.102   3.828  10.021  0.3012  0.2000 -0.2866
15734SOL    HW150700   9.130   3.874  10.101 -0.4563 -0.3465  0.3041
15734SOL    HW250701   9.121   3.736  10.039  0.4601  0.1107 -0.8879
15735SOL     OW50702   4.638   8.268   1.209 -1.0203  0.2471  0.2644
15735SOL    HW150703   4.628   8.363   1.198  0.8335  0.4878  0.3216
15735SOL    HW250704   4.728   8.257   1.242  0.8062 -1.8105 -4.4478
15736SOL     OW50705   3.609  10.973   8.094 -0.0580  0.6042 -0.2075
15736SOL    HW150706   3.664  11.016   8.029  1.1925 -1.8930 -0.9291
15736SOL    HW250707   3.669  10.920   8.145 -1.4314  0.1589  1.0202
15737SOL     OW50708   7.630   9.452   9.150  0.4380  0.4077  0.1379
15737SOL    HW150709   7.634   9.357   9.137  0.6199  0.5339 -0.8038
15737SOL    HW250710   7.577   9.484   9.078 -1.4446  0.8366  1.6264
15738SOL     OW50711   7.052   1.946   6.301 -0.3752 -0.0163 -0.1294
15738SOL    HW150712   7.114   1.907   6.240  0.3671 -0.8593  1.1243
15738SOL    HW250713   7.081   1.917   6.388 -2.0715  0.1936  0.5603
15739SOL     OW50714   0.561   1.831   0.243  0.1708 -0.2110 -0.0107
15739SOL    HW150715   0.557   1.921   0.274 -0.0533 -1.2109  3.2444
15739SOL    HW250716   0.652   1.805   0.253 -0.2034 -1.0482  1.4716
15740SOL     OW50717   2.886   0.938   1.099  0.0746  0.6088  0.2314
15740SOL    HW150718   2.842   1.023   1.100 -0.5101  0.3060  0.1973
15740SOL    HW250719   2.840   0.886   1.164 -1.0317 -0.4149 -1.3289
15741SOL     OW50720   6.007   5.079   9.795 -0.2343  0.5671  0.4388
15741SOL    HW150721   5.949   5.011   9.829 -1.1835  0.7938 -0.6780
15741SOL    HW250722   6.081   5.031   9.758 -0.6835  0.1570  0.0578
15742SOL     OW50723   9.962   3.477   6.342  0.4777 -0.0193 -0.0239
15742SOL    HW150724   9.881   3.445   6.381 -0.0779  0.3884 -0.8017
15742SOL    HW250725  10.016   3.399   6.329 -0.0120 -0.3671  0.0113
15743SOL     OW50726   6.217   1.483   9.720  0.3273  0.1575 -0.5171
15743SOL    HW150727   6.127   1.499   9.747 -0.2625 -0.9619 -1.6847
15743SOL    HW250728   6.231   1.390   9.740  1.1595  0.2749 -0.5291
15744SOL     OW50729   7.150   1.947   4.591 -0.3364 -0.1428  0.2347
15744SOL    HW150730   7.090   1.885   4.549 -1.0677  1.3340 -1.0208
15744SOL    HW250731   7.175   2.007   4.521  0.8985  0.5680  1.2481
15745SOL     OW50732  10.440   6.319   3.291  0.1445  0.2286  0.1841
15745SOL    HW150733  10.356   6.301   3.249 -0.1715  0.4268  0.7159
15745SOL    HW250734  10.435   6.271   3.374  1.1165 -0.8883 -0.3867
15746SOL     OW50735   3.175   1.982   8.018  0.0870 -0.1109  0.5955
15746SOL    HW150736   3.096   1.940   7.984 -0.7167  2.1608 -0.5755
15746SOL    HW250737   3.243   1.963   7.953 -0.4203  0.8722 -0.2323
15747SOL     OW50738   6.505   3.881   1.372  0.0726 -0.3468 -0.3145
15747SOL    HW150739   6.416   3.886   1.408  0.3222  2.3656  0.1422
15747SOL    HW250740   6.556   3.837   1.440 -0.2071  1.4850  1.1765
15748SOL     OW50741   9.307   3.193   1.178 -0.7618  0.7665  0.2870
15748SOL    HW150742   9.383   3.140   1.153 -0.9404 -0.9640  3.0175
15748SOL    HW250743   9.338   3.283   1.171  0.7520  0.2008 -0.9900
15749SOL     OW50744   8.735   2.185   7.948  0.0647 -0.8654  0.4813
15749SOL    HW150745   8.684   2.235   7.886  1.5232 -0.9043 -0.8201
15749SOL    HW250746   8.739   2.239   8.027  0.5421  0.4945 -0.4536
15750SOL     OW50747   1.937   7.056   1.148  0.2309  0.1169 -0.3130
15750SOL    HW150748   1.958   6.995   1.219 -1.4231  0.4404  0.5228
15750SOL    HW250749   1.903   7.001   1.078 -4.2138  0.0668  1.5440
15751SOL     OW50750   0.410   7.404  10.186  0.0441 -0.0997 -0.0865
15751SOL    HW150751   0.348   7.333  10.204 -0.9418  0.5086 -0.9975
15751SOL    HW250752   0.485   7.385  10.243  0.2511 -2.4472 -1.0134
15752SOL     OW50753   0.404   7.170   3.931  0.1419 -0.2569  0.1208
15752SOL    HW150754   0.477   7.205   3.881  1.4347 -0.6849  1.5983
15752SOL    HW250755   0.325   7.200   3.885  1.1573  2.8905  0.2033
15753SOL     OW50756   9.410   0.805   8.003  0.7823  0.5137 -0.1403
15753SOL    HW150757   9.336   0.771   8.054  0.9018 -2.4628 -1.7550
15753SOL    HW250758   9.380   0.802   7.912  2.8611 -0.8055 -0.8409
15754SOL     OW50759   7.694   7.859  10.315 -0.5275  0.1203 -0.4522
15754SOL    HW150760   7.742   7.938  10.341 -1.2255  0.7253 -0.9490
15754SOL    HW250761   7.731   7.835  10.230  1.0838 -1.2948  0.5888
15755SOL     OW50762  10.988   2.155   1.493  0.4096  0.5198 -0.0747
15755SOL    HW150763  11.005   2.066   1.523  1.4611  0.1995 -1.5131
15755SOL    HW250764  10.893   2.159   1.481  0.4529 -0.7944 -1.0770
15756SOL     OW50765   6.326   1.388   2.354  0.2846 -0.3663 -0.0490
15756SOL    HW150766   6.380   1.385   2.275 -0.6329  1.1279 -0.7786
15756SOL    HW250767   6.343   1.474   2.392 -1.6395  0.2166 -0.3883
15757SOL     OW50768  10.618   1.683   0.209  0.1569  0.3676  0.5865
15757SOL    HW150769  10.544   1.735   0.179  0.3823 -0.0125 -0.7125
15757SOL    HW250770  10.579   1.609   0.256 -0.3636 -0.2689 -0.7836
15758SOL     OW50771   1.498   8.300   9.423  0.0346 -0.0337 -0.1138
15758SOL    HW150772   1.495   8.275   9.516 -0.4512 -1.7875 -0.5595
15758SOL    HW250773   1.406   8.316   9.400  0.2567  1.5020 -0.0537
15759SOL     OW50774   4.813  10.119   4.946  0.5516 -0.1093  0.2229
15759SOL    HW150775   4.758  10.052   4.987 -0.4780 -0.2620 -1.3189
15759SOL    HW250776   4.859  10.160   5.019 -0.1981 -1.2488  1.3834
15760SOL     OW50777   2.429   8.089  10.514  0.3744 -0.4261  1.0214
15760SOL    HW150778   2.461   8.177  10.534  0.2968 -0.1968  0.1792
15760SOL    HW250779   2.507   8.042  10.483  0.3508 -0.5613  1.1650
15761SOL     OW50780   2.714   1.824   9.774  0.7552  0.0310 -0.6441
15761SOL    HW150781   2.802   1.862   9.776  1.7416 -1.9056 -2.8455
15761SOL    HW250782   2.724   1.738   9.814  0.0520 -0.5249 -1.6309
15762SOL     OW50783   9.063   7.496   5.009  0.5717  0.3745 -0.2682
15762SOL    HW150784   9.095   7.564   4.951  1.2113 -1.3051 -1.9851
15762SOL    HW250785   9.055   7.419   4.953  0.6099 -1.1622  1.7435
15763SOL     OW50786   2.609   7.892   4.277 -0.3131 -0.4250  0.0684
15763SOL    HW150787   2.698   7.918   4.300 -0.4155 -0.7412  0.8432
15763SOL    HW250788   2.570   7.865   4.360 -1.5970  1.0580 -0.0126
15764SOL     OW50789   0.203   8.730   3.007 -0.7425 -0.4541  0.1922
15764SOL    HW150790   0.243   8.719   3.093  0.3580  1.9199  0.0653
15764SOL    HW250791   0.123   8.781   3.023 -0.7825 -0.4100 -0.1251
15765SOL     OW50792   1.007  10.255   3.446 -0.5989 -0.8622 -0.1051
15765SOL    HW150793   0.965  10.271   3.531 -1.1147 -0.5566 -0.4156
15765SOL    HW250794   0.994  10.336   3.397  0.9707 -0.5053  0.0386
15766SOL     OW50795   6.761   1.150   4.725  0.1982  0.1360 -0.5117
15766SOL    HW150796   6.848   1.182   4.703 -0.1848  0.8431 -1.0755
15766SOL    HW250797   6.740   1.192   4.809 -0.6132  2.0952 -1.6154
15767SOL     OW50798   8.713   6.135   9.352 -0.0672  0.0404 -0.4045
15767SOL    HW150799   8.626   6.126   9.391 -0.0277 -0.5587 -0.4409
15767SOL    HW250800   8.767   6.172   9.422 -0.5338  1.2317 -0.6456
15768SOL     OW50801   0.969   5.740   8.279 -0.0113 -0.1757 -0.1775
15768SOL    HW150802   0.963   5.768   8.370  0.3228 -0.6642 -0.0017
15768SOL    HW250803   0.903   5.792   8.234  0.3862  0.6632  0.1930
15769SOL     OW50804   9.360   1.283   7.637  0.2118 -0.1046 -0.3648
15769SOL    HW150805   9.334   1.317   7.551 -1.3286  0.6488  0.3540
15769SOL    HW250806   9.383   1.361   7.687 -1.7287 -0.1989  0.7825
15770SOL     OW50807   7.529   3.251   5.553  0.4255  0.2665  0.0983
15770SOL    HW150808   7.481   3.296   5.622 -0.0257  0.3226 -0.2496
15770SOL    HW250809   7.477   3.172   5.536  0.2742  0.4956 -0.5154
15771SOL     OW50810   8.686   5.131   7.038  0.1728  0.3960  0.0182
15771SOL    HW150811   8.756   5.066   7.046  0.2511  0.1935 -1.7378
15771SOL    HW250812   8.607   5.085   7.068  0.4924  0.0170  0.2910
15772SOL     OW50813   2.344   3.106   4.014 -0.1685 -0.1837  0.1774
15772SOL    HW150814   2.427   3.148   4.038 -1.7467  4.1535 -0.9852
15772SOL    HW250815   2.277   3.164   4.050 -2.8312 -3.3652  0.8270
15773SOL     OW50816   7.474   0.963   2.615 -0.3234 -0.4679  0.2775
15773SOL    HW150817   7.439   0.980   2.527  0.8181 -0.8097 -0.2705
15773SOL    HW250818   7.431   1.027   2.671  0.8006  1.4913 -0.9799
15774SOL     OW50819   1.366   3.455   1.232 -0.4961  0.0304 -0.4186
15774SOL    HW150820   1.377   3.465   1.327 -0.8771  0.3696 -0.4057
15774SOL    HW250821   1.331   3.539   1.203 -0.3924 -0.0761 -0.8593
15775SOL     OW50822   3.961   4.171   4.107 -0.2297  0.3569  0.8536
15775SOL    HW150823   3.914   4.099   4.065 -1.2085  1.3880  0.1209
15775SOL    HW250824   3.895   4.240   4.118  1.0970  1.9257 -0.3638
15776SOL     OW50825   8.411   3.917   6.251  0.1653  0.2498  0.4570
15776SOL    HW150826   8.323   3.881   6.264 -0.2961  1.5872  1.1276
15776SOL    HW250827   8.448   3.863   6.180 -1.4327  0.1110 -0.3148
15777SOL     OW50828   2.681   1.321  10.138 -0.1518  0.0130 -0.2939
15777SOL    HW150829   2.674   1.416  10.139 -0.9790 -0.0230  1.1081
15777SOL    HW250830   2.775   1.303  10.137  0.0687  0.8856  1.3372
15778SOL     OW50831   2.130   3.468   7.841  0.9391 -0.1316  0.0184
15778SOL    HW150832   2.161   3.545   7.889  0.2272  0.9474 -1.1839
15778SOL    HW250833   2.145   3.489   7.749  0.4104 -1.2906 -0.3600
15779SOL     OW50834   4.730  10.459   6.500 -0.2385  0.6407  0.5278
15779SOL    HW150835   4.813  10.412   6.493 -0.7285 -1.0645  4.0011
15779SOL    HW250836   4.752  10.550   6.479  2.2497  0.0468  0.2508
15780SOL     OW50837   7.206   0.568  10.107  0.1838 -0.3934  0.3834
15780SOL    HW150838   7.208   0.616  10.024  1.8450  0.5365  0.9162
15780SOL    HW250839   7.138   0.612  10.158  2.7993  2.7304  1.5217
15781SOL     OW50840   9.453  10.925   3.116  0.1491 -0.3593  0.2173
15781SOL    HW150841   9.416  10.857   3.172  1.7200 -0.4344  1.2163
15781SOL    HW250842   9.430  10.898   3.027 -0.2641 -1.5602  0.6710
15782SOL     OW50843   0.747  10.316   5.132 -0.0128  0.5298 -0.1692
15782SOL    HW150844   0.718  10.326   5.223 -2.5159 -1.5632 -0.6163
15782SOL    HW250845   0.832  10.273   5.139 -0.5402 -0.3515  1.1853
15783SOL     OW50846   6.380   4.280   2.470  0.0265  0.1425 -0.2159
15783SOL    HW150847   6.307   4.272   2.531 -0.4728  2.0019 -0.5132
15783SOL    HW250848   6.346   4.334   2.399  1.2337 -0.2448 -1.1184
15784SOL     OW50849   4.974   7.872   5.896 -0.7501  0.2848  0.4172
15784SOL    HW150850   5.045   7.920   5.852 -1.6471  1.9256  0.6776
15784SOL    HW250851   4.965   7.791   5.845  0.4996  0.5941 -0.3444
15785SOL     OW50852   1.326   3.117   7.176  0.2402  0.7799  0.0135
15785SOL    HW150853   1.312   3.039   7.122  0.3461  1.0496 -0.4111
15785SOL    HW250854   1.400   3.095   7.232  0.8187  0.8825 -0.7067
15786SOL     OW50855   6.941   8.468   6.260  0.1470  0.2610 -0.1238
15786SOL    HW150856   6.928   8.502   6.172  0.9925  2.1833  0.4407
15786SOL    HW250857   6.939   8.373   6.250  0.7204  0.4348 -2.2895
15787SOL     OW50858   7.336   8.312   6.375  0.0879 -0.0428  0.3058
15787SOL    HW150859   7.280   8.331   6.451  0.4218  1.8740  0.1192
15787SOL    HW250860   7.344   8.396   6.330  2.7037 -0.3737  0.0252
15788SOL     OW50861   2.387  10.283   6.451  0.0251  0.7416  0.1295
15788SOL    HW150862   2.384  10.242   6.537  0.8442  0.1538 -0.1114
15788SOL    HW250863   2.473  10.327   6.448  0.5261 -0.2613 -0.8321
15789SOL     OW50864   3.278   8.360   3.281 -0.6140  0.0866 -0.4472
15789SOL    HW150865   3.367   8.360   3.246 -0.6211  0.8783 -0.4883
15789SOL    HW250866   3.280   8.423   3.353 -1.3735  0.8812 -1.0990
15790SOL     OW50867   6.629   1.308   0.994 -0.1304 -0.0450 -0.0844
15790SOL    HW150868   6.585   1.286   1.076 -0.8429 -0.9626 -0.6929
15790SOL    HW250869   6.581   1.260   0.927  0.4324  0.6987 -1.0517
15791SOL     OW50870   8.626   1.973   1.273  0.2755  0.3043  0.0602
15791SOL    HW150871   8.585   1.888   1.263  1.5522 -0.1041 -2.4689
15791SOL    HW250872   8.659   1.973   1.363  1.1097 -2.2992 -0.1676
15792SOL     OW50873   5.992   2.963   8.400 -0.7383  0.2845 -0.7516
15792SOL    HW150874   6.079   2.931   8.377 -1.2543  0.4967 -3.2549
15792SOL    HW250875   5.984   2.945   8.494  1.3096 -1.3043 -0.8113
15793SOL     OW50876   9.644   7.956   4.069 -0.1194  0.0892 -0.0067
15793SOL    HW150877   9.599   7.892   4.124 -0.9396 -0.4032 -1.1900
15793SOL    HW250878   9.595   7.954   3.986  0.5850  1.3699 -0.4789
15794SOL     OW50879   5.114   6.554   2.689  0.2315  0.2202  0.1046
15794SOL    HW150880   5.052   6.483   2.672  0.3150 -0.0048  0.7330
15794SOL    HW250881   5.100   6.577   2.781  0.9887  0.2538  0.2160
15795SOL     OW50882  10.658   9.445   2.855  0.6272  0.0313 -0.0348
15795SOL    HW150883  10.584   9.428   2.912 -0.8371  1.7245 -1.3424
15795SOL    HW250884  10.698   9.525   2.888  0.9371 -0.0235 -0.2610
15796SOL     OW50885   6.906   5.717   3.460 -0.3845  0.0356 -0.6239
15796SOL    HW150886   6.951   5.661   3.523 -2.0859 -1.0121 -0.2990
15796SOL    HW250887   6.973   5.736   3.394  0.7260 -0.9167  0.1801
15797SOL     OW50888  10.129  10.933   5.072  0.3593  0.1636  0.2648
15797SOL    HW150889  10.221  10.933   5.045  0.6933 -0.4046  1.3143
15797SOL    HW250890  10.122  10.860   5.134 -0.5572  0.8014  0.9566
15798SOL     OW50891   6.658   8.285   6.970 -0.2282  0.5366  0.2064
15798SOL    HW150892   6.602   8.271   6.893 -0.6014  0.8677  0.4115
15798SOL    HW250893   6.663   8.199   7.012  0.6893  0.1539 -0.6537
15799SOL     OW50894   6.157   6.664   0.450 -0.0779  0.1535 -0.4071
15799SOL    HW150895   6.200   6.727   0.392 -0.6763  1.6304  0.6865
15799SOL    HW250896   6.065   6.689   0.448 -0.1913 -0.1216  0.7230
15800SOL     OW50897   0.778   3.101   8.669 -0.1025 -0.0330 -0.0635
15800SOL    HW150898   0.845   3.149   8.620 -0.8140 -0.6425 -1.7241
15800SOL    HW250899   0.695   3.142   8.643 -0.4486  0.2823  1.4482
15801SOL     OW50900   9.649  10.728   6.887  0.0604  0.0497 -0.3997
15801SOL    HW150901   9.647  10.636   6.914 -0.2004  0.6390  1.7882
15801SOL    HW250902   9.717  10.731   6.819  2.0106 -1.3286  1.3448
15802SOL     OW50903   8.220   1.090   4.132  0.1766  0.1950 -0.4444
15802SOL    HW150904   8.192   1.081   4.041 -1.6648  0.2592  0.0722
15802SOL    HW250905   8.140   1.074   4.183  1.6962 -2.7255  1.2988
15803SOL     OW50906   0.274   7.039   9.342 -0.1188  0.4439 -0.2733
15803SOL    HW150907   0.234   6.956   9.320 -0.2948 -0.3162  2.5354
15803SOL    HW250908   0.368   7.021   9.343  0.0277  0.9435 -1.9690
15804SOL     OW50909   8.773   2.245   5.758 -0.0516  0.4086  0.4348
15804SOL    HW150910   8.709   2.286   5.699  0.4161  0.8884  0.2553
15804SOL    HW250911   8.723   2.178   5.804 -0.3932 -0.1114 -0.6452
15805SOL     OW50912   9.766   7.040   5.059  0.2243  0.1844 -0.0873
15805SOL    HW150913   9.672   7.055   5.067  0.4566  1.9355 -0.4584
15805SOL    HW250914   9.795   7.098   4.989  1.3700 -1.3995 -1.0183
15806SOL     OW50915   1.791   4.100   1.777  0.0878 -0.0740 -0.1379
15806SOL    HW150916   1.802   4.084   1.871  0.7014 -0.3238 -0.2452
15806SOL    HW250917   1.707   4.146   1.770 -1.3896 -2.5574  0.2661
15807SOL     OW50918   9.965   7.885   5.492  0.0101 -0.1280  0.6095
15807SOL    HW150919  10.025   7.821   5.454 -0.9990 -1.8949  1.8625
15807SOL    HW250920  10.020   7.961   5.511  1.2986 -0.7024 -0.6827
15808SOL     OW50921   0.057  10.347   5.937 -0.0908  0.6435  0.2634
15808SOL    HW150922   0.146  10.314   5.928 -0.2351  0.3713 -0.1893
15808SOL    HW250923   0.054  10.424   5.879 -0.4485  0.0419 -0.5337
15809SOL     OW50924   8.851   2.535  10.091 -0.2668  0.3714  0.2198
15809SOL    HW150925   8.891   2.485  10.020 -1.3597  1.2597 -1.0743
15809SOL    HW250926   8.823   2.470  10.155 -0.6358 -0.5795 -0.8892
15810SOL     OW50927  10.178   7.877   0.216 -0.0960  0.7976 -0.2967
15810SOL    HW150928  10.093   7.897   0.254 -0.7946  0.9489 -1.8683
15810SOL    HW250929  10.225   7.961   0.216 -0.9361  1.3105 -1.7552
15811SOL     OW50930   4.479   8.180   4.388  0.8090 -0.1533  0.2744
15811SOL    HW150931   4.517   8.260   4.425  1.0988  1.0041 -2.3011
15811SOL    HW250932   4.555   8.129   4.359  0.6319 -1.5099  2.0702
15812SOL     OW50933   7.373  10.971   5.200  0.1623  0.1028 -0.0493
15812SOL    HW150934   7.378  10.877   5.218 -0.0313  0.0248 -0.3926
15812SOL    HW250935   7.322  10.978   5.119 -1.6030  0.6117  1.0517
15813SOL     OW50936   0.400   8.484   0.899  0.4529  0.3696  0.8869
15813SOL    HW150937   0.380   8.577   0.903  3.1266  1.0308  0.5585
15813SOL    HW250938   0.388   8.460   0.807  2.6386  1.1717  0.3421
15814SOL     OW50939   8.002   2.649   2.733  0.0821  0.1759 -0.1191
15814SOL    HW150940   8.087   2.618   2.702 -1.0840 -2.4524 -0.9582
15814SOL    HW250941   7.938   2.608   2.674 -1.7991  2.2936  0.2845
15815SOL     OW50942   5.356   8.854   3.794  0.0206  0.0416 -0.2517
15815SOL    HW150943   5.419   8.919   3.825 -0.3990  0.6150 -0.5726
15815SOL    HW250944   5.302   8.834   3.870 -0.3316  0.6426 -0.3389
15816SOL     OW50945   7.534   4.579   0.339 -0.4282 -0.2100  0.5218
15816SOL    HW150946   7.565   4.655   0.289 -2.4756  0.6968  0.5049
15816SOL    HW250947   7.440   4.595   0.350 -1.1984 -3.3314 -0.4951
15817SOL     OW50948   6.354   0.845   1.632  0.0870  0.2076 -0.0826
15817SOL    HW150949   6.314   0.929   1.610  0.1462  0.0843 -0.6611
15817SOL    HW250950   6.304   0.814   1.707 -1.2285 -0.1628 -1.0833
15818SOL     OW50951   2.650   6.119   8.696  0.0772 -0.2803  0.6186
15818SOL    HW150952   2.694   6.203   8.705 -0.1386 -0.2724  1.8318
15818SOL    HW250953   2.702   6.070   8.632  0.5736  0.5269  0.3964
15819SOL     OW50954   6.502   6.198   1.558  0.4447 -0.0342  0.3274
15819SOL    HW150955   6.589   6.161   1.549 -0.6032 -2.6260 -0.1099
15819SOL    HW250956   6.478   6.182   1.649  0.4044  0.6304  0.4365
15820SOL     OW50957   7.180   5.190   3.033 -0.0444  0.4065  0.0017
15820SOL    HW150958   7.108   5.214   2.975  0.6192  1.1810 -0.5319
15820SOL    HW250959   7.255   5.176   2.975  0.6332  1.1899  0.6547
15821SOL     OW50960   4.534   6.109   4.825 -0.0605 -0.0575  0.3195
15821SOL    HW150961   4.474   6.127   4.898 -1.9192 -0.5633 -1.0295
15821SOL    HW250962   4.549   6.195   4.785  0.1009  0.0618  0.6270
15822SOL     OW50963   6.069   4.279   0.415 -0.8548  0.1507  0.6096
15822SOL    HW150964   6.005   4.262   0.483 -1.2083  1.4096  0.6139
15822SOL    HW250965   6.098   4.192   0.386  0.5669 -0.4687  3.5198
15823SOL     OW50966   0.266   2.165   2.526  0.0451  0.1351 -0.1614
15823SOL    HW150967   0.320   2.092   2.555 -0.1000 -0.0904 -0.4597
15823SOL    HW250968   0.275   2.165   2.431  0.1457  0.5834 -0.1538
15824SOL     OW50969   7.837   9.067   8.651 -0.0398  0.2474  0.0760
15824SOL    HW150970   7.894   8.995   8.679 -1.3040 -0.1947  1.6468
15824SOL    HW250971   7.892   9.145   8.662  0.7166 -0.2935  0.2478
15825SOL     OW50972   7.732   3.604  10.709 -0.4815 -0.4474 -0.2386
15825SOL    HW150973   7.731   3.698  10.725 -2.0902 -0.3900 -0.4570
15825SOL    HW250974   7.688   3.566  10.785 -1.2847 -0.8610 -0.8924
15826SOL     OW50975   4.367   2.845   0.189 -0.2430  0.1730  0.0850
15826SOL    HW150976   4.356   2.759   0.227  0.5228 -0.2806 -0.6873
15826SOL    HW250977   4.333   2.837   0.100 -1.7782  1.1465  0.5328
15827SOL     OW50978   8.055   5.521  10.198 -0.3224  0.3096 -0.8488
15827SOL    HW150979   8.083   5.552  10.112 -0.2004  1.6809 -0.3360
15827SOL    HW250980   7.973   5.473  10.180 -0.9175  1.5548 -1.5971
15828SOL     OW50981   0.497   2.368   2.429  0.2122  0.1037  0.0680
15828SOL    HW150982   0.518   2.460   2.412 -1.0356  0.2827 -0.6553
15828SOL    HW250983   0.426   2.348   2.367  0.0403 -1.1670  0.6453
15829SOL     OW50984   8.855   3.000   9.654 -0.1924  0.3705  1.0244
15829SOL    HW150985   8.815   3.069   9.708  0.4130  0.9682  0.7203
15829SOL    HW250986   8.946   3.029   9.642 -0.3883  0.3985 -0.5588
15830SOL     OW50987   7.884   5.476   2.974 -0.8144  0.3474  0.2593
15830SOL    HW150988   7.904   5.555   2.923 -0.5210  0.6936  0.9088
15830SOL    HW250989   7.963   5.422   2.966 -1.3374 -0.2992 -0.9246
15831SOL     OW50990   6.039   6.536   7.916  0.4020  0.0218 -0.2439
15831SOL    HW150991   6.006   6.589   7.989 -0.8405 -0.9547 -0.0651
15831SOL    HW250992   6.041   6.596   7.842 -0.7283  0.4093  0.0108
15832SOL     OW50993   2.664   3.205   7.420 -0.1895 -0.0909  0.2049
15832SOL    HW150994   2.708   3.198   7.335  0.3981 -1.3597  0.5909
15832SOL    HW250995   2.695   3.288   7.456 -0.6819  0.6078 -0.9368
15833SOL     OW50996   8.272  10.568   0.868 -0.1967 -0.8096 -0.2520
15833SOL    HW150997   8.257  10.652   0.826 -1.4224 -0.4296  0.8965
15833SOL    HW250998   8.368  10.560   0.872 -0.0305 -0.4660 -2.2285
15834SOL     OW50999  10.978   0.025   2.269 -0.2170  0.4649 -0.6340
15834SOL    HW151000  10.955   0.047   2.360  0.9036  0.2576 -0.2853
15834SOL    HW251001  10.896   0.035   2.221 -0.8400  0.5523  0.4048
15835SOL     OW51002   6.833   3.850   5.407 -0.7465 -0.4453  0.5641
15835SOL    HW151003   6.849   3.900   5.487 -0.8986  1.3581 -0.4766
15835SOL    HW251004   6.908   3.871   5.351 -1.1897 -0.8165 -0.1811
15836SOL     OW51005   0.304  10.577   6.401  0.5536 -0.1695 -0.7966
15836SOL    HW151006   0.390  10.594   6.361  1.4945 -1.9072  0.3851
15836SOL    HW251007   0.258  10.522   6.336  0.8020 -0.2484 -0.9064
15837SOL     OW51008   0.516   5.947   1.243  0.2922 -0.2536 -0.0545
15837SOL    HW151009   0.584   5.885   1.270  0.7121  0.8829  1.5896
15837SOL    HW251010   0.489   5.991   1.323  0.3035  2.0065 -1.2187
15838SOL     OW51011   5.089   8.627   9.923 -0.4201 -0.7071 -0.2469
15838SOL    HW151012   5.048   8.551   9.965 -2.8255  1.1773  1.1296
15838SOL    HW251013   5.020   8.693   9.922  1.4807  1.3973 -1.6055
15839SOL     OW51014   0.888   7.535   6.604  0.0538 -0.2398 -0.2701
15839SOL    HW151015   0.908   7.444   6.580 -0.2811 -0.3201 -0.2502
15839SOL    HW251016   0.795   7.535   6.622  0.2774 -0.1573  0.9580
15840SOL     OW51017   2.007   5.300   4.055 -0.4337 -0.0019  0.3131
15840SOL    HW151018   1.988   5.274   4.146  1.2098  0.4955  0.8324
15840SOL    HW251019   1.925   5.286   4.009 -1.1916 -0.6817  1.7896
15841SOL     OW51020   2.222   1.314   5.487  0.4241  0.5598  0.4993
15841SOL    HW151021   2.304   1.287   5.445  0.4814  0.9578  0.3576
15841SOL    HW251022   2.167   1.346   5.416  0.3950  0.9148  0.6802
15842SOL     OW51023  10.360   4.450   3.028 -0.2399  0.5507  0.5917
15842SOL    HW151024  10.374   4.394   3.104 -2.3967  0.7724  1.2064
15842SOL    HW251025  10.438   4.506   3.025  0.6337 -0.5499  1.6445
15843SOL     OW51026   5.673   5.351   9.736  0.2945  0.0015  0.1753
15843SOL    HW151027   5.721   5.362   9.817 -0.4746 -0.5846  0.7249
15843SOL    HW251028   5.650   5.440   9.709  1.6520  0.2929 -0.0990
15844SOL     OW51029   3.523   3.862   3.578  0.4053 -0.5364 -0.7858
15844SOL    HW151030   3.489   3.889   3.492 -0.6317  1.4499  0.1677
15844SOL    HW251031   3.446   3.825   3.623  0.3317  0.6713  0.1205
15845SOL     OW51032   8.107   2.127   4.229  0.2481  0.4349  0.0536
15845SOL    HW151033   8.091   2.143   4.136  0.2649 -0.2576 -0.0762
15845SOL    HW251034   8.075   2.205   4.273  1.5693  1.4232 -0.6498
15846SOL     OW51035   4.223  10.184   0.370  0.0091 -0.2529  0.5136
15846SOL    HW151036   4.295  10.246   0.368  0.6818 -1.0260 -0.0822
15846SOL    HW251037   4.153  10.229   0.418  1.0314  0.3377  1.4883
15847SOL     OW51038   4.799   4.365   0.184 -0.1375 -0.3973 -0.3620
15847SOL    HW151039   4.779   4.458   0.185  0.9514 -0.1526  0.0432
15847SOL    HW251040   4.892   4.360   0.206  0.1799 -1.4943 -1.7561
15848SOL     OW51041   2.360  10.557   2.316 -0.2241 -0.1913 -0.7098
15848SOL    HW151042   2.291  10.593   2.260 -0.0747  1.0065 -0.1579
15848SOL    HW251043   2.313  10.518   2.389 -0.3349  1.3531  0.0897
15849SOL     OW51044   0.808   7.366   0.767 -0.8417  0.3175  0.0975
15849SOL    HW151045   0.728   7.418   0.774 -1.1976 -0.1812 -0.2524
15849SOL    HW251046   0.790   7.289   0.821 -0.5854  0.2131  0.0315
15850SOL     OW51047   8.546   2.731   1.763  0.4117  0.1068  0.2699
15850SOL    HW151048   8.561   2.763   1.674 -1.5526  0.2790 -0.0358
15850SOL    HW251049   8.594   2.792   1.818  1.5426  0.0808 -0.6414
15851SOL     OW51050   1.367   8.242   4.470  0.2399  0.3504 -0.3556
15851SOL    HW151051   1.299   8.208   4.528 -0.4241  0.7334 -0.8930
15851SOL    HW251052   1.413   8.165   4.438  0.2171  0.1022  0.1986
15852SOL     OW51053   7.919   9.382   1.624  0.1835  0.0176  0.0662
15852SOL    HW151054   7.932   9.311   1.687  1.0156  0.1518  0.0518
15852SOL    HW251055   7.930   9.341   1.539  1.5160  0.3192  0.0770
15853SOL     OW51056   5.991   2.941   5.062 -0.5658  0.7961 -0.1144
15853SOL    HW151057   6.077   2.901   5.050 -0.1988  1.7734 -0.8605
15853SOL    HW251058   6.009   3.033   5.081 -1.4400  0.9602 -0.0387
15854SOL     OW51059   1.414   6.249  10.741 -0.1316 -0.2469 -0.5975
15854SOL    HW151060   1.476   6.320  10.725 -0.3445 -0.1239 -0.8802
15854SOL    HW251061   1.363   6.278  10.817 -0.0492 -0.2139 -0.5538
15855SOL     OW51062  10.659   0.360   5.286 -0.0914  0.7574  0.0232
15855SOL    HW151063  10.749   0.354   5.255 -0.0149 -1.6224  0.5170
15855SOL    HW251064  10.668   0.370   5.381 -0.3743  1.9391 -0.0560
15856SOL     OW51065   2.828   8.074   8.514 -0.0140  0.0050  0.1113
15856SOL    HW151066   2.790   8.073   8.426 -1.6954 -1.2299  0.8005
15856SOL    HW251067   2.903   8.015   8.509  0.2150  0.3455 -0.6085
15857SOL     OW51068   9.009   2.900   9.919  0.1553  0.3172  0.1431
15857SOL    HW151069   9.034   2.843   9.847 -2.5721 -2.7986  1.4151
15857SOL    HW251070   8.990   2.984   9.878 -0.6317 -1.1267 -2.6839
15858SOL     OW51071  10.860   0.825   0.778 -0.2282  0.0136  0.6022
15858SOL    HW151072  10.950   0.859   0.781  0.3292 -1.3981  0.8424
15858SOL    HW251073  10.837   0.828   0.685 -0.5820  1.9164  0.7119
15859SOL     OW51074   7.612   4.781   2.822 -0.2515 -0.4651  0.6720
15859SOL    HW151075   7.562   4.862   2.811 -0.4201 -0.6991 -0.4004
15859SOL    HW251076   7.671   4.779   2.747  2.3421  0.4481  2.5617
15860SOL     OW51077   8.195   0.868   0.074 -0.2755 -0.2478  0.0800
15860SOL    HW151078   8.225   0.922   0.001 -1.0841  0.2174  0.0800
15860SOL    HW251079   8.173   0.930   0.143 -0.2638 -0.6411  0.4437
15861SOL     OW51080   2.308   9.379   2.840 -0.3416  0.0548  0.1934
15861SOL    HW151081   2.388   9.377   2.788 -0.5234  1.3044 -0.1824
15861SOL    HW251082   2.245   9.329   2.789 -0.0392 -0.1762  0.0469
15862SOL     OW51083   9.709   6.560   6.205 -0.0674 -0.2413 -0.1846
15862SOL    HW151084   9.667   6.519   6.129 -1.3843  0.3260  0.2089
15862SOL    HW251085   9.706   6.493   6.273  0.0956 -0.3583 -0.2901
15863SOL     OW51086   9.472   3.009   0.068  0.2740 -0.5132  0.0117
15863SOL    HW151087   9.414   3.069   0.115 -0.1762 -1.1115  0.2356
15863SOL    HW251088   9.437   2.922   0.088 -0.2419 -0.7615 -1.8529
15864SOL     OW51089   9.952   5.756   9.378 -0.2131 -0.1213 -0.4076
15864SOL    HW151090   9.857   5.763   9.387 -0.1812  0.1160 -0.2282
15864SOL    HW251091   9.986   5.772   9.466  0.0319  0.6877 -0.6391
15865SOL     OW51092   0.866   8.851   3.616  0.3442 -0.3709 -0.2126
15865SOL    HW151093   0.774   8.853   3.641  0.1557 -2.1755 -0.5765
15865SOL    HW251094   0.913   8.885   3.693 -0.4717 -2.1033  1.1221
15866SOL     OW51095   9.295   0.568   7.572  0.0398  0.0983 -0.2357
15866SOL    HW151096   9.205   0.576   7.540 -0.4627 -1.6597  0.6249
15866SOL    HW251097   9.328   0.488   7.532  0.3682 -0.5912  1.3372
15867SOL     OW51098   5.544   0.174   2.091 -0.3372 -0.3352  0.1328
15867SOL    HW151099   5.574   0.225   2.015 -0.3115  1.3250  1.1924
15867SOL    HW251100   5.449   0.182   2.089 -0.2843  3.3061  2.4539
15868SOL     OW51101   6.720   1.999   9.883 -0.9638  0.0660 -0.1463
15868SOL    HW151102   6.662   1.996   9.959 -0.0466 -0.3648  0.5497
15868SOL    HW251103   6.730   2.092   9.865  0.6212  0.3164  1.6971
15869SOL     OW51104  10.676   3.601   5.676  0.3517 -0.6428 -0.2620
15869SOL    HW151105  10.751   3.624   5.622  0.8234 -0.3383  0.5152
15869SOL    HW251106  10.708   3.533   5.735  0.7691  1.1766  1.7594
15870SOL     OW51107   8.972   3.068   8.479 -0.0226 -0.0697  0.7226
15870SOL    HW151108   8.890   3.099   8.440  0.1725 -0.5707 -0.1208
15870SOL    HW251109   8.977   3.111   8.564 -0.2045  1.5056 -0.0286
15871SOL     OW51110  10.620   0.771   5.482  0.3124 -0.1310 -0.5333
15871SOL    HW151111  10.654   0.860   5.475 -0.1527  0.1549  0.5766
15871SOL    HW251112  10.639   0.731   5.397 -0.7027  1.4576 -1.5538
15872SOL     OW51113   0.069  10.894   4.711 -0.2337 -0.0224  0.1086
15872SOL    HW151114  -0.002  10.942   4.754  0.2238  1.4695 -0.7292
15872SOL    HW251115   0.142  10.897   4.772 -0.2690  0.1851  0.1412
15873SOL     OW51116   8.332   1.481   7.839 -0.0270  0.5112 -0.4519
15873SOL    HW151117   8.415   1.513   7.873  0.5548 -2.2402  0.9836
15873SOL    HW251118   8.265   1.522   7.895  0.5499  0.6467  0.1491
15874SOL     OW51119   1.151   1.573   1.944  0.1101  0.4893 -0.0978
15874SOL    HW151120   1.217   1.602   1.881  0.5954  2.7989  1.3544
15874SOL    HW251121   1.084   1.530   1.891  1.7899 -0.1126 -1.8422
15875SOL     OW51122   6.586   8.074   2.484  0.1730 -0.1554  0.6787
15875SOL    HW151123   6.664   8.041   2.528  2.1524  1.6931 -1.1968
15875SOL    HW251124   6.545   7.997   2.444  2.9746 -0.8551 -1.1077
15876SOL     OW51125   5.284   0.406   9.181  0.3925  0.0736  0.0953
15876SOL    HW151126   5.326   0.325   9.151  0.2859 -0.0933  0.3889
15876SOL    HW251127   5.353   0.453   9.228  0.5792  0.3684 -0.4643
15877SOL     OW51128   6.223   3.455   8.061  0.0841  0.6110  0.2698
15877SOL    HW151129   6.305   3.502   8.049  0.6198 -0.1486  0.8413
15877SOL    HW251130   6.228   3.419   8.150  0.6960 -2.3209 -0.8148
15878SOL     OW51131   0.713  10.034   4.153  0.4696 -0.3090 -0.5781
15878SOL    HW151132   0.775  10.054   4.083  1.5388  0.0055  0.4157
15878SOL    HW251133   0.633  10.007   4.108  0.7134  1.0801 -1.9364
15879SOL     OW51134   7.823   4.310   7.448 -0.1015 -0.0656  0.2216
15879SOL    HW151135   7.914   4.329   7.468  0.1056 -0.4032 -0.3816
15879SOL    HW251136   7.786   4.393   7.420  0.4806 -0.2663 -1.2166
15880SOL     OW51137   7.963   7.171   1.076  0.5502 -0.1927  0.2821
15880SOL    HW151138   7.950   7.256   1.118 -0.0202 -0.7512  1.2756
15880SOL    HW251139   8.056   7.170   1.053  0.3012  1.2282 -0.9884
15881SOL     OW51140   3.323   2.754   3.319  0.3539 -0.0419 -0.5467
15881SOL    HW151141   3.415   2.727   3.314  0.5891  0.9287 -2.2266
15881SOL    HW251142   3.319   2.836   3.269 -1.1689  0.7111  0.6926
15882SOL     OW51143   5.314   8.195   2.182 -0.1193  0.4462 -0.2530
15882SOL    HW151144   5.401   8.167   2.157 -0.0551  0.2642  0.1636
15882SOL    HW251145   5.323   8.289   2.200  0.3034  0.1673  1.1103
15883SOL     OW51146   9.227   4.396   3.237  0.0346  0.3582 -0.2326
15883SOL    HW151147   9.256   4.333   3.171 -1.3002  0.6543 -1.1539
15883SOL    HW251148   9.303   4.411   3.293  0.5155 -1.6870 -0.2955
15884SOL     OW51149   1.818   0.087   0.229  0.5340  0.0622 -0.2965
15884SOL    HW151150   1.798   0.178   0.246 -0.8015 -0.4772  1.2579
15884SOL    HW251151   1.764   0.038   0.290  3.1391 -1.7125  0.7964
15885SOL     OW51152   0.304   8.031   8.847 -0.1686  0.4625 -0.6723
15885SOL    HW151153   0.218   7.990   8.857  0.5092 -0.7185  0.6418
15885SOL    HW251154   0.357   7.992   8.915  1.2539  1.6636 -1.0393
15886SOL     OW51155   6.459   1.300   6.901 -0.1175 -0.0873  0.0119
15886SOL    HW151156   6.410   1.351   6.966 -0.5353 -1.3000  0.6779
15886SOL    HW251157   6.550   1.307   6.929 -0.2295 -0.1230  0.3933
15887SOL     OW51158   9.504  10.522   2.676  0.1192  0.1365  0.5664
15887SOL    HW151159   9.492  10.517   2.771 -0.7938  1.4465  0.5326
15887SOL    HW251160   9.420  10.493   2.640  0.1879  0.4255  0.1708
15888SOL     OW51161   8.706   2.446   5.233 -0.5862 -0.0927  0.2427
15888SOL    HW151162   8.696   2.358   5.271 -1.0722 -0.0613  0.1981
15888SOL    HW251163   8.660   2.441   5.149 -1.2749  0.4174  0.5780
15889SOL     OW51164   1.943   2.752   6.791  0.1856  0.2938 -0.7395
15889SOL    HW151165   1.907   2.802   6.864 -2.3361 -0.6859 -1.2163
15889SOL    HW251166   1.982   2.675   6.831  0.0492  0.4303 -0.3407
15890SOL     OW51167   0.156   2.870   9.186  0.1722 -0.2750 -0.0474
15890SOL    HW151168   0.105   2.827   9.254  0.6950 -1.3420 -0.3121
15890SOL    HW251169   0.226   2.916   9.233  0.1723 -0.5055  0.1765
15891SOL     OW51170   4.771   6.642   1.536 -0.2246 -0.0926  0.6478
15891SOL    HW151171   4.710   6.645   1.609  0.1770 -0.7986  1.0241
15891SOL    HW251172   4.763   6.728   1.494 -1.6388 -0.2657  0.5338
15892SOL     OW51173   8.173   3.566   5.790 -0.2068  0.3614  0.1754
15892SOL    HW151174   8.135   3.642   5.833  1.1616 -0.1065  2.3802
15892SOL    HW251175   8.267   3.586   5.783  0.0816 -0.8452  0.2199
15893SOL     OW51176   9.817   3.528   3.013 -0.1675  0.8076  0.4942
15893SOL    HW151177   9.895   3.474   3.020 -0.8259 -0.0132  1.9293
15893SOL    HW251178   9.794   3.525   2.920 -0.4304 -1.8101  0.5767
15894SOL     OW51179   0.961  10.486   5.874  0.1806 -0.0250 -0.5674
15894SOL    HW151180   0.968  10.582   5.879  2.8956 -0.2122  0.6909
15894SOL    HW251181   0.985  10.466   5.783 -1.7506  0.5155 -1.2415
15895SOL     OW51182   2.096   3.111   7.468  0.2494 -0.5119  0.1110
15895SOL    HW151183   2.031   3.052   7.432  1.1033 -1.1411 -0.4220
15895SOL    HW251184   2.143   3.145   7.392  0.8247 -0.3955  0.5146
15896SOL     OW51185   6.748  10.916  10.770  0.5939  0.0458  0.2263
15896SOL    HW151186   6.840  10.890  10.778  0.7495  0.9342  1.8131
15896SOL    HW251187   6.752  11.011  10.758 -0.1274  0.1186  0.5754
15897SOL     OW51188   8.364  10.908   9.530  0.5162  0.1189 -0.0421
15897SOL    HW151189   8.425  10.938   9.462 -0.5944 -2.9354 -2.6980
15897SOL    HW251190   8.403  10.827   9.563 -1.8271 -1.8405 -1.7143
15898SOL     OW51191   1.231   7.797   5.565  0.9566 -0.2273  0.2776
15898SOL    HW151192   1.255   7.889   5.558  0.5949 -0.0553  1.2331
15898SOL    HW251193   1.312   7.752   5.588  0.8473  0.0476  1.2265
15899SOL     OW51194   9.246   3.291   6.828 -0.1672 -0.4353 -0.6118
15899SOL    HW151195   9.211   3.305   6.916  0.4111  0.5263 -0.5182
15899SOL    HW251196   9.293   3.207   6.834 -1.8852 -1.4465 -0.5883
15900SOL     OW51197   6.389   1.558   7.859  0.7407  0.0322 -0.9164
15900SOL    HW151198   6.408   1.579   7.768  3.1521  1.3185 -0.2204
15900SOL    HW251199   6.475   1.555   7.901 -0.3293  0.3773  1.4852
15901SOL     OW51200   7.186   6.754   7.094 -0.0752  0.2406 -0.2933
15901SOL    HW151201   7.118   6.786   7.153 -0.4873 -0.9152 -0.1076
15901SOL    HW251202   7.265   6.749   7.148 -0.0972  0.5766 -0.2285
15902SOL     OW51203   9.664   2.412   6.222  0.0330  0.1682  0.2975
15902SOL    HW151204   9.670   2.423   6.317  0.4159  1.1188  0.1753
15902SOL    HW251205   9.707   2.328   6.205 -0.0636 -0.0229  0.9628
15903SOL     OW51206   9.146   6.986   4.532  0.5681  0.6765  0.5164
15903SOL    HW151207   9.201   6.917   4.569  0.2561 -0.0112 -0.2698
15903SOL    HW251208   9.078   7.000   4.598 -0.3887 -1.0234 -0.0330
15904SOL     OW51209   0.588   3.301   9.488  0.3532 -0.2316  0.3410
15904SOL    HW151210   0.516   3.355   9.520 -0.3511 -0.8280 -0.2366
15904SOL    HW251211   0.634   3.357   9.425 -1.0742 -0.7023 -1.1475
15905SOL     OW51212   2.699   2.562   2.965  0.1077  0.2243 -0.2241
15905SOL    HW151213   2.636   2.629   2.941  0.0916  0.3992  0.2977
15905SOL    HW251214   2.749   2.600   3.038  0.5263 -0.0780 -0.3454
15906SOL     OW51215   9.554   4.381   6.826 -0.4370  0.0085 -0.4508
15906SOL    HW151216   9.471   4.370   6.874  1.0410  0.3563  2.3569
15906SOL    HW251217   9.584   4.469   6.849  0.8811 -0.2394 -1.1469
15907SOL     OW51218   7.827   4.730   0.308  0.4707 -0.6393  0.0842
15907SOL    HW151219   7.751   4.756   0.256  0.0001 -1.2394  0.4645
15907SOL    HW251220   7.899   4.724   0.245  0.4613  0.9539 -0.1216
15908SOL     OW51221   1.182   8.069   6.200 -0.0227  0.1661 -0.0543
15908SOL    HW151222   1.116   8.118   6.248 -0.3464 -0.0827 -0.2449
15908SOL    HW251223   1.137   7.990   6.169  0.4124 -0.1121 -0.0042
15909SOL     OW51224  10.963   7.483   7.139 -0.0971 -0.3978  0.4299
15909SOL    HW151225  10.976   7.430   7.060  0.8476  2.3126 -1.3794
15909SOL    HW251226  11.023   7.445   7.203  0.4727 -1.5805 -0.7561
15910SOL     OW51227   5.110   3.767   3.951  0.2268  0.0843 -1.1071
15910SOL    HW151228   5.063   3.689   3.981  2.2773 -1.7804 -2.4554
15910SOL    HW251229   5.087   3.834   4.015 -1.1254 -1.7652  0.4856
15911SOL     OW51230   7.548   7.737   9.757 -0.1480 -0.4003  0.4842
15911SOL    HW151231   7.633   7.694   9.753  0.2161  0.3646 -0.0670
15911SOL    HW251232   7.495   7.691   9.692 -0.6979 -1.9710  1.9458
15912SOL     OW51233   0.522   4.561   2.462 -0.3154  0.5385 -0.3899
15912SOL    HW151234   0.552   4.646   2.494  0.0992  0.9387 -1.7619
15912SOL    HW251235   0.553   4.557   2.372  2.1267 -2.2272  0.3954
15913SOL     OW51236   8.028   2.942   1.451 -0.3999  0.3237 -0.1564
15913SOL    HW151237   8.018   3.037   1.448 -0.2358  0.3163 -1.1031
15913SOL    HW251238   7.951   2.908   1.405 -1.3514 -0.0712  1.6517
15914SOL     OW51239   4.003   8.549   7.503 -0.1320 -0.4459 -0.1178
15914SOL    HW151240   4.030   8.463   7.471 -0.6657 -1.1173  1.1792
15914SOL    HW251241   4.064   8.568   7.575  1.2441  1.1784 -1.6031
15915SOL     OW51242   3.888   8.981   5.164 -0.0231  0.3028 -0.4259
15915SOL    HW151243   3.864   9.073   5.172  0.2877  0.2944  0.6460
15915SOL    HW251244   3.831   8.935   5.225  1.4192  0.0740  0.8186
15916SOL     OW51245   5.578   6.292   3.321 -0.1345  0.1340 -0.3167
15916SOL    HW151246   5.605   6.249   3.240 -0.3177  0.7948 -0.7314
15916SOL    HW251247   5.640   6.260   3.386  0.2045 -0.1644 -0.7769
15917SOL     OW51248   8.439   4.190   3.427 -0.5285  0.6540  0.3577
15917SOL    HW151249   8.435   4.247   3.503  0.2233  1.3815 -0.1222
15917SOL    HW251250   8.416   4.247   3.353  2.0770  0.8849 -0.3784
15918SOL     OW51251   3.837   4.989   9.033  0.5789  0.4158  0.3703
15918SOL    HW151252   3.781   5.044   9.087  1.4314  2.7944 -1.0215
15918SOL    HW251253   3.854   4.912   9.087 -1.8408  0.8243  1.8472
15919SOL     OW51254   4.902   5.179   4.750 -0.5072  0.4455 -0.2984
15919SOL    HW151255   4.829   5.240   4.760 -0.0674  1.1725 -1.3143
15919SOL    HW251256   4.862   5.092   4.753 -1.1839  0.7677  0.8718
15920SOL     OW51257   2.386   5.583   3.650  0.1633  0.7268 -0.1409
15920SOL    HW151258   2.359   5.496   3.680  0.9068  0.2356 -0.8731
15920SOL    HW251259   2.303   5.629   3.632 -0.2443  0.3766  0.7833
15921SOL     OW51260   4.190  10.731   7.286  0.0908  0.1743  0.4120
15921SOL    HW151261   4.214  10.673   7.358  1.1282  1.3020  1.0070
15921SOL    HW251262   4.274  10.768   7.256 -0.5087  1.1377 -0.1358
15922SOL     OW51263   1.530   4.680   1.117  0.1432  0.2927 -0.1712
15922SOL    HW151264   1.494   4.766   1.095 -1.3173 -0.5880 -1.4258
15922SOL    HW251265   1.489   4.656   1.200 -0.5017  0.2447 -0.4966
15923SOL     OW51266   0.677   7.808   2.379 -0.0773  0.7158 -0.3767
15923SOL    HW151267   0.682   7.803   2.474 -0.0807  2.4004 -0.2591
15923SOL    HW251268   0.585   7.827   2.361  0.1509  1.6037 -0.6380
15924SOL     OW51269   3.885   6.332   8.526  0.0519 -0.1757  0.7544
15924SOL    HW151270   3.968   6.342   8.572  0.2020 -0.5308  0.5593
15924SOL    HW251271   3.891   6.391   8.451 -0.3308  0.6704  1.3776
15925SOL     OW51272   8.888   5.375   5.840 -0.0447  0.7647 -0.3104
15925SOL    HW151273   8.951   5.447   5.836 -1.1677  1.8373  0.6274
15925SOL    HW251274   8.842   5.388   5.923 -0.0988 -1.2004  0.0132
15926SOL     OW51275   9.558   8.588   9.990  0.3136 -0.4626  0.2456
15926SOL    HW151276   9.523   8.508   9.951 -0.2023  2.0788 -5.3853
15926SOL    HW251277   9.649   8.591   9.962  0.4624  0.6842  0.7810
15927SOL     OW51278   0.449   9.774  10.375 -0.0364 -0.2087  0.1302
15927SOL    HW151279   0.529   9.815  10.408  1.4064  0.1729 -3.3361
15927SOL    HW251280   0.446   9.689  10.419  1.9067  0.0429  0.8749
15928SOL     OW51281   8.010   1.098   3.381 -0.5537  0.3825 -0.4280
15928SOL    HW151282   8.012   1.004   3.398 -0.8619  0.6160  1.0411
15928SOL    HW251283   7.917   1.122   3.389 -0.2572  1.1135  1.1744
15929SOL     OW51284   8.077   1.578   6.531 -0.0692 -0.0399 -0.6136
15929SOL    HW151285   8.089   1.483   6.524 -0.5866 -0.0155 -2.0237
15929SOL    HW251286   8.165   1.613   6.518 -0.0917 -0.2763 -1.4595
15930SOL     OW51287   7.958   5.260   5.523  0.2218 -0.1553 -0.3565
15930SOL    HW151288   7.884   5.242   5.465 -0.4700  1.6868 -0.1051
15930SOL    HW251289   7.923   5.243   5.611  0.7131 -1.1595 -0.3415
15931SOL     OW51290   6.789   2.257   5.095 -0.1369  0.5159 -0.0827
15931SOL    HW151291   6.762   2.348   5.101 -0.2490  0.4560  0.3099
15931SOL    HW251292   6.829   2.249   5.008 -2.2294  0.3727 -1.0785
15932SOL     OW51293   0.147   4.640   1.000 -0.8091  0.1766 -0.4089
15932SOL    HW151294   0.082   4.669   1.064 -0.2312 -0.2332  0.3746
15932SOL    HW251295   0.112   4.670   0.916 -1.6046  0.6772  0.0833
15933SOL     OW51296   7.443   7.871   3.291  0.1237 -0.4695  0.1743
15933SOL    HW151297   7.376   7.913   3.345  0.3981  1.9893 -1.2541
15933SOL    HW251298   7.520   7.869   3.347 -0.3454 -0.6088  0.8288
15934SOL     OW51299   8.105   0.952   7.580 -0.1485  0.0679  1.0739
15934SOL    HW151300   8.040   1.009   7.539  1.3312  0.5282 -0.7680
15934SOL    HW251301   8.156   1.010   7.636 -0.1443  0.0668  1.0711
15935SOL     OW51302   8.947   4.857   8.914  0.1473  0.6511 -0.0179
15935SOL    HW151303   8.877   4.886   8.855  0.8467  2.6290  0.0547
15935SOL    HW251304   9.026   4.899   8.879  0.8179  0.7213  1.5026
15936SOL     OW51305   6.919   1.610   7.341  0.1208 -0.8286  0.1945
15936SOL    HW151306   6.832   1.609   7.380 -0.6760  0.2332 -1.4778
15936SOL    HW251307   6.905   1.633   7.249  2.3329  1.7031  0.3636
15937SOL     OW51308   9.618   7.545   9.664  0.0864  0.0803 -0.5440
15937SOL    HW151309   9.653   7.610   9.725 -0.4809 -0.6804  0.6331
15937SOL    HW251310   9.558   7.594   9.608  2.2375  1.2220 -1.9783
15938SOL     OW51311   5.014   7.320   0.620 -0.0072  0.0808 -0.1890
15938SOL    HW151312   5.093   7.354   0.577  0.4234 -2.0332 -1.2303
15938SOL    HW251313   4.978   7.395   0.666  1.5457  1.5979 -1.2811
15939SOL     OW51314   7.201   7.253   3.547 -0.2206 -0.0352 -0.0671
15939SOL    HW151315   7.180   7.320   3.613 -2.0452  0.0281 -0.6345
15939SOL    HW251316   7.190   7.170   3.593  2.0209 -0.0070  0.6314
15940SOL     OW51317   6.745   2.508   8.940 -0.4017 -0.0876 -0.4873
15940SOL    HW151318   6.788   2.443   8.884 -0.1046  0.3906 -0.8203
15940SOL    HW251319   6.817   2.560   8.977 -0.6077 -0.2782  0.1924
15941SOL     OW51320   4.054   8.276   1.800  0.0678 -0.2173 -0.7175
15941SOL    HW151321   4.013   8.247   1.719  1.1433 -0.3324 -1.2398
15941SOL    HW251322   3.993   8.340   1.837 -0.1995  0.1954 -1.8612
15942SOL     OW51323   9.246   3.192   9.282  0.2346  0.2178 -0.0623
15942SOL    HW151324   9.153   3.194   9.259  0.1742  0.4394  0.1958
15942SOL    HW251325   9.291   3.227   9.206 -0.0217  1.7129  0.4477
15943SOL     OW51326   0.250  10.798  10.607 -0.1238  0.2667 -0.2935
15943SOL    HW151327   0.303  10.782  10.528  0.1549  0.3136 -0.1193
15943SOL    HW251328   0.170  10.839  10.575  0.8532  2.2359 -0.3748
15944SOL     OW51329   4.034   9.673   4.306 -0.0148 -0.1027 -0.0961
15944SOL    HW151330   4.037   9.606   4.238 -1.9359 -1.3375  0.9590
15944SOL    HW251331   4.086   9.745   4.271  1.7109 -1.9237 -1.4841
15945SOL     OW51332   1.191   4.345   9.990  0.3909 -0.3897 -0.0042
15945SOL    HW151333   1.138   4.368   9.914  0.1989  2.3788  0.8588
15945SOL    HW251334   1.127   4.331  10.061  0.6581  1.7943  0.7476
15946SOL     OW51335   6.457   5.464   4.440 -0.0336 -0.3368 -0.0186
15946SOL    HW151336   6.519   5.397   4.469  1.3908  0.1949 -1.6720
15946SOL    HW251337   6.459   5.530   4.509  0.0336 -1.0397  0.6761
15947SOL     OW51338   6.571   6.676  10.703  0.1057  0.0756  0.3184
15947SOL    HW151339   6.639   6.726  10.747  0.3806 -1.2615  1.5055
15947SOL    HW251340   6.492   6.729  10.713  0.9781  1.8191 -1.3949
15948SOL     OW51341   4.155   7.830  10.325 -0.7088  0.4391  0.4140
15948SOL    HW151342   4.239   7.875  10.328 -0.0521 -0.4494 -2.0861
15948SOL    HW251343   4.135   7.809  10.416  1.3007  1.5249  1.1429
15949SOL     OW51344   6.585   1.302   7.623  0.0825 -0.4071 -0.5130
15949SOL    HW151345   6.551   1.321   7.535  0.4792  0.7604 -0.4387
15949SOL    HW251346   6.587   1.387   7.666  0.6243 -0.8567  0.3719
15950SOL     OW51347   3.037   5.314   2.181 -0.6843 -0.3886 -0.3051
15950SOL    HW151348   2.973   5.369   2.227 -0.4523 -1.5653  1.5179
15950SOL    HW251349   3.090   5.275   2.250  1.0262 -0.6892 -1.6889
15951SOL     OW51350   6.983  10.334   5.391  0.2895 -0.2752 -0.1268
15951SOL    HW151351   7.031  10.416   5.403  1.6079 -1.2173  1.6790
15951SOL    HW251352   6.917  10.353   5.325  2.8801  1.2419 -2.4858
15952SOL     OW51353   1.180   8.051   9.911  0.2462 -0.0937 -0.1985
15952SOL    HW151354   1.132   8.079   9.833 -0.8442  0.0881  0.4995
15952SOL    HW251355   1.249   8.116   9.922 -0.2561  0.4853 -0.4193
15953SOL     OW51356   1.668   3.920   1.402  0.1810  0.4073 -0.0885
15953SOL    HW151357   1.748   3.921   1.351 -0.0413  1.3470 -0.4457
15953SOL    HW251358   1.695   3.893   1.490  0.4958 -1.7063 -0.7906
15954SOL     OW51359   7.752   9.695   1.851  0.6175 -0.1454  0.1122
15954SOL    HW151360   7.838   9.670   1.817  0.8633 -0.9044  1.2422
15954SOL    HW251361   7.693   9.627   1.819  0.2926  0.6728 -1.1352
15955SOL     OW51362   5.619  10.475   8.481 -0.3756 -0.2841  0.0632
15955SOL    HW151363   5.551  10.443   8.421 -1.4147  1.6595  0.1238
15955SOL    HW251364   5.573  10.533   8.541  1.4313  1.7909 -0.4112
15956SOL     OW51365   3.059   8.075   2.785  0.0815 -0.7220 -0.4313
15956SOL    HW151366   3.025   8.038   2.867  0.2677  0.4964  0.2335
15956SOL    HW251367   2.980   8.093   2.733 -0.2911  1.1358  0.6834
15957SOL     OW51368   3.205  10.277   4.804  0.4665  0.2505  0.0581
15957SOL    HW151369   3.171  10.337   4.869 -0.8401 -0.9215  0.5106
15957SOL    HW251370   3.129  10.254   4.750  0.6193 -1.8759  0.6442
15958SOL     OW51371  10.579   5.599   4.710  0.5323 -0.1302  0.3802
15958SOL    HW151372  10.611   5.586   4.621 -1.2016  1.1436 -0.4915
15958SOL    HW251373  10.568   5.511   4.745  0.2318 -0.6844 -1.0566
15959SOL     OW51374   5.695   1.703   0.257 -0.0785 -0.2691 -0.2203
15959SOL    HW151375   5.669   1.714   0.165 -1.1016 -0.6183  0.0068
15959SOL    HW251376   5.679   1.788   0.297 -2.1191 -0.7703  0.1776
15960SOL     OW51377   5.121   1.525   5.448  0.4372 -0.0593 -0.3415
15960SOL    HW151378   5.157   1.458   5.390  1.3959 -1.3509  1.6399
15960SOL    HW251379   5.176   1.521   5.527 -1.5916  0.7265  1.1892
15961SOL     OW51380   2.911   0.711   2.689  0.5661  0.3527 -0.5675
15961SOL    HW151381   2.906   0.677   2.778  1.5858 -0.1039 -0.6739
15961SOL    HW251382   2.989   0.766   2.688  1.7881 -1.2991 -1.6983
15962SOL     OW51383   2.779   9.173   1.890 -0.0799  0.1111  0.3552
15962SOL    HW151384   2.871   9.167   1.863  0.0242  0.6046  0.5882
15962SOL    HW251385   2.774   9.255   1.940 -0.9047  0.7213 -0.6809
15963SOL     OW51386  10.599   1.959  10.945  0.4430 -0.2090 -0.4114
15963SOL    HW151387  10.552   1.908  10.878  0.1800 -1.8380  0.9453
15963SOL    HW251388  10.531   2.011  10.987  0.2446 -0.7392 -0.0627
15964SOL     OW51389   3.017   1.626  10.406  0.5061  0.4325 -0.5564
15964SOL    HW151390   2.988   1.652  10.318  0.6696 -0.4524 -0.8885
15964SOL    HW251391   2.940   1.588  10.447  0.3165  1.2528 -0.1481
15965SOL     OW51392   1.972   8.235   0.292  0.1966  0.0777  0.2706
15965SOL    HW151393   1.999   8.327   0.285 -0.1793  0.1993  0.3933
15965SOL    HW251394   2.026   8.190   0.227  1.6186  0.0933  1.3959
15966SOL     OW51395   5.259   9.006   9.187 -0.3398 -0.6734  0.6973
15966SOL    HW151396   5.306   9.073   9.139 -1.9982 -0.1543 -0.2971
15966SOL    HW251397   5.315   8.985   9.262  1.5719 -0.3517 -0.5911
15967SOL     OW51398   2.398   3.263   1.517  0.1059 -0.0873  0.7315
15967SOL    HW151399   2.487   3.236   1.496  0.3497  0.9768  0.3610
15967SOL    HW251400   2.408   3.345   1.566 -0.6690  0.0190  0.7339
15968SOL     OW51401   5.881   1.782   1.502 -0.1417  0.1804 -0.3578
15968SOL    HW151402   5.908   1.716   1.565  1.8377  2.1834  1.0341
15968SOL    HW251403   5.955   1.788   1.441  0.4458  2.1420  0.4704
15969SOL     OW51404   5.953   1.976   4.818  0.1240  0.2775  0.3183
15969SOL    HW151405   6.044   2.003   4.801  0.3324  0.8573  2.1339
15969SOL    HW251406   5.962   1.892   4.864 -0.2459  0.5491  0.8856
15970SOL     OW51407   7.294   0.896  10.123 -0.3643  0.2677 -0.4178
15970SOL    HW151408   7.249   0.841  10.058  1.8325 -2.1360 -0.0786
15970SOL    HW251409   7.359   0.838  10.163  0.8056  2.6445  1.4117
15971SOL     OW51410   8.344   4.215   8.851 -0.0031 -0.4134 -0.0442
15971SOL    HW151411   8.416   4.185   8.906 -1.6179 -1.2036  1.7471
15971SOL    HW251412   8.292   4.136   8.834 -1.0481  0.3147 -0.3735
15972SOL     OW51413   1.010   3.946   2.810 -0.7231  0.1066 -0.0088
15972SOL    HW151414   1.030   3.927   2.901 -0.4579  2.2113  0.4151
15972SOL    HW251415   1.095   3.950   2.767 -0.7011  1.1691  0.1104
15973SOL     OW51416  10.665  10.743   1.555 -0.0942 -0.0366  0.1235
15973SOL    HW151417  10.660  10.813   1.489  0.5919  1.7290  1.8208
15973SOL    HW251418  10.586  10.691   1.542 -0.8203  1.2859 -1.0025
15974SOL     OW51419   9.982   0.463   4.909  0.0935  0.0357  0.2935
15974SOL    HW151420  10.041   0.529   4.946  1.5274 -0.1163 -1.5660
15974SOL    HW251421   9.915   0.514   4.865  1.4707  0.3582 -1.5692
15975SOL     OW51422   9.653   8.213   4.176  0.1920 -0.0145  0.0391
15975SOL    HW151423   9.675   8.123   4.150  0.4971  0.2806 -0.7547
15975SOL    HW251424   9.699   8.225   4.259  0.3536 -0.5107  0.0262
15976SOL     OW51425   5.775   6.057   4.095 -0.3389  0.4379 -0.1175
15976SOL    HW151426   5.747   6.116   4.024  0.8483 -0.3915 -1.3251
15976SOL    HW251427   5.797   5.975   4.050 -0.5030 -0.4374  1.3466
15977SOL     OW51428   0.726   2.450   0.848  0.3847  0.0953 -0.2299
15977SOL    HW151429   0.735   2.491   0.762  1.2034 -0.1392 -0.2589
15977SOL    HW251430   0.669   2.509   0.897  0.3402  0.4969 -0.7600
15978SOL     OW51431  10.100   3.856   1.682 -0.0876  0.3151  0.5268
15978SOL    HW151432  10.071   3.778   1.635  0.8782  0.0199  0.4157
15978SOL    HW251433  10.081   3.929   1.623  1.2383 -0.0618 -0.3930
15979SOL     OW51434   4.459   8.608   3.556 -0.0058 -0.2632  0.6987
15979SOL    HW151435   4.489   8.541   3.495  0.5519  0.2064  0.4447
15979SOL    HW251436   4.512   8.596   3.634  0.4716  0.2209  0.4523
15980SOL     OW51437   9.681   0.805   8.808  0.1303 -0.1992  0.0440
15980SOL    HW151438   9.712   0.877   8.862 -1.2810 -0.1369  0.8362
15980SOL    HW251439   9.734   0.729   8.835  1.7607  0.5466 -0.9406
15981SOL     OW51440   7.290   2.831   2.189 -0.6604 -0.1628 -0.2637
15981SOL    HW151441   7.308   2.737   2.181  2.0803  0.2689 -0.0933
15981SOL    HW251442   7.242   2.853   2.109  0.2205 -1.4154 -1.1789
15982SOL     OW51443   4.585   8.926   4.379 -0.4080 -0.2380 -0.2887
15982SOL    HW151444   4.522   8.907   4.448 -1.0329  0.1780 -0.7311
15982SOL    HW251445   4.606   9.019   4.391 -0.7932 -0.0717 -0.8690
15983SOL     OW51446   3.090   9.660   6.417 -0.5046 -0.6714  1.0266
15983SOL    HW151447   3.065   9.741   6.374  0.4125 -0.4279  0.9350
15983SOL    HW251448   3.052   9.591   6.362  0.2329 -0.3470  0.0973
15984SOL     OW51449   2.670   3.056   9.465 -0.1692 -0.0616  0.1092
15984SOL    HW151450   2.673   3.114   9.541 -0.3916 -1.6888  1.4178
15984SOL    HW251451   2.577   3.050   9.443 -0.0921  0.5165 -0.3909
15985SOL     OW51452   4.441   1.013   5.927  0.0006 -0.2110 -0.2700
15985SOL    HW151453   4.463   0.942   5.988  0.7197  0.7857  0.6567
15985SOL    HW251454   4.443   0.971   5.841  1.5026 -1.0889  0.1469
15986SOL     OW51455   8.084   4.811   7.977  0.9766  0.1367  0.1909
15986SOL    HW151456   8.048   4.899   7.970 -2.2063 -0.8207  2.3699
15986SOL    HW251457   8.129   4.811   8.062  0.9521 -0.3593  0.2046
15987SOL     OW51458   4.831   6.348   8.684  0.2180  0.1208 -0.0118
15987SOL    HW151459   4.781   6.300   8.618  0.6540 -0.7003  0.2384
15987SOL    HW251460   4.796   6.437   8.680 -1.2434 -0.4151  0.1417
15988SOL     OW51461   8.970   1.966   8.370  0.4477 -0.0150 -0.2358
15988SOL    HW151462   8.883   1.939   8.400  0.3834 -0.6869 -0.9848
15988SOL    HW251463   9.013   1.999   8.449 -0.4831  0.3272  0.1424
15989SOL     OW51464   1.596   3.940   2.972  0.5554  0.4348 -0.5368
15989SOL    HW151465   1.562   4.019   3.013 -0.4181  0.0943 -0.6468
15989SOL    HW251466   1.647   3.897   3.040  3.5854  2.5468 -1.2745
15990SOL     OW51467   7.493   9.736   2.056 -0.3603  0.4825  0.1680
15990SOL    HW151468   7.536   9.655   2.082 -1.3604 -0.9963 -2.4719
15990SOL    HW251469   7.563   9.801   2.053  0.5669 -0.3814  1.7169
15991SOL     OW51470  10.831   8.168   4.397  0.0608 -0.1292 -0.0561
15991SOL    HW151471  10.841   8.129   4.310 -1.1926 -2.5594  0.8174
15991SOL    HW251472  10.738   8.188   4.404  0.0982 -0.2150  0.8235
15992SOL     OW51473   7.984   6.940   8.085 -0.7605  0.5408 -0.5893
15992SOL    HW151474   8.022   7.021   8.051 -1.9780  1.8151  0.9431
15992SOL    HW251475   7.923   6.911   8.017 -1.0712  1.4776 -0.7169
15993SOL     OW51476   6.167   2.193   5.006 -0.2668 -0.3845 -0.5323
15993SOL    HW151477   6.251   2.238   5.004 -0.4439 -0.0625 -1.6061
15993SOL    HW251478   6.143   2.183   4.914 -1.9811  0.6481 -0.2545
15994SOL     OW51479   9.340   2.471   7.608  0.4915 -0.0583 -0.8122
15994SOL    HW151480   9.285   2.478   7.686 -1.1908 -0.1734 -1.9236
15994SOL    HW251481   9.365   2.561   7.589  0.5443  0.0191 -0.3978
15995SOL     OW51482  10.615   4.361   4.242  0.6536 -0.1736  0.2747
15995SOL    HW151483  10.637   4.341   4.151  0.3082  1.0810 -0.1111
15995SOL    HW251484  10.531   4.318   4.258  0.9978 -0.8795  0.1890
15996SOL     OW51485   2.107   6.474   3.503 -0.0993 -0.7937  0.2289
15996SOL    HW151486   2.105   6.553   3.449  0.2828  0.2538  1.6787
15996SOL    HW251487   2.021   6.471   3.544 -0.1060 -1.1274  0.1951
15997SOL     OW51488  10.450   2.672   1.676  0.2239  0.0607 -0.1046
15997SOL    HW151489  10.452   2.646   1.768  0.3555  0.7891  0.0983
15997SOL    HW251490  10.530   2.634   1.640 -0.3160 -1.0839 -0.1686
15998SOL     OW51491   8.532   9.171  10.265 -0.1761  0.2150 -0.2663
15998SOL    HW151492   8.502   9.185  10.175 -0.9823  1.9423  0.2320
15998SOL    HW251493   8.451   9.165  10.317  0.2068 -2.6228  0.1598
15999SOL     OW51494   8.221  10.961  10.106  0.0539 -0.1614  0.7065
15999SOL    HW151495   8.126  10.968  10.105  0.0648 -0.0025  0.5952
15999SOL    HW251496   8.241  10.890  10.045  0.0124 -0.1338  0.6611
16000SOL     OW51497   6.309   7.319   5.861  0.3187 -0.2432  0.6980
16000SOL    HW151498   6.399   7.288   5.859  0.4165 -0.3449  3.1266
16000SOL    HW251499   6.256   7.240   5.852  0.4979 -0.3539  0.6142
16001SOL     OW51500   3.084   4.939   8.814 -0.1182 -0.1016  0.4203
16001SOL    HW151501   3.006   4.886   8.796 -0.9877  0.6304  1.8132
16001SOL    HW251502   3.139   4.883   8.868 -0.3577 -0.1334  0.6372
16002SOL     OW51503   6.453  10.552   2.755  0.0438  0.4742 -0.2677
16002SOL    HW151504   6.546  10.544   2.777  0.5570 -0.4387 -2.5219
16002SOL    HW251505   6.412  10.476   2.796  0.2771  0.8184  0.6422
16003SOL     OW51506   1.868   0.546   5.295 -0.1576 -0.2146  0.6105
16003SOL    HW151507   1.844   0.609   5.227  1.8993 -3.0757 -3.1237
16003SOL    HW251508   1.929   0.594   5.352  0.2413  1.5834 -1.2227
16004SOL     OW51509   2.214   1.353   1.257  0.4919  0.1618 -0.4347
16004SOL    HW151510   2.231   1.267   1.221  2.4902 -0.0688  0.9155
16004SOL    HW251511   2.202   1.338   1.351  0.0146  1.2562 -0.3033
16005SOL     OW51512   4.356   2.633   7.839  0.0597 -0.7263 -0.1661
16005SOL    HW151513   4.315   2.695   7.779 -1.2104 -0.5131  0.8467
16005SOL    HW251514   4.442   2.615   7.802  0.0694  0.8846 -0.9994
16006SOL     OW51515   6.614   6.610   4.423  0.2364  0.9263  0.1850
16006SOL    HW151516   6.543   6.652   4.472  0.7640 -0.0842  1.8996
16006SOL    HW251517   6.659   6.683   4.379 -2.5691  1.4881 -2.0287
16007SOL     OW51518   6.548   6.896   5.167 -0.1244 -0.7565  0.4700
16007SOL    HW151519   6.593   6.893   5.083 -3.2794 -2.4130 -1.3535
16007SOL    HW251520   6.595   6.832   5.222  0.6649 -1.2758 -0.7755
16008SOL     OW51521   5.920   0.130   3.017 -0.2499  0.1595  0.0391
16008SOL    HW151522   5.917   0.049   2.965 -0.5827 -0.1575  0.5385
16008SOL    HW251523   5.840   0.177   2.993 -0.2019  0.2023 -0.0364
16009SOL     OW51524   4.102   6.583   0.761 -0.5108 -0.2431  0.4215
16009SOL    HW151525   4.018   6.627   0.747  0.3161  1.3908  0.3753
16009SOL    HW251526   4.159   6.650   0.797  0.5958 -1.5154  1.1611
16010SOL     OW51527   6.063   1.220   2.460  0.2211  0.2852  0.3347
16010SOL    HW151528   6.093   1.178   2.541 -0.4175  1.7944  1.4269
16010SOL    HW251529   6.109   1.304   2.459  1.0231 -0.1272 -1.4677
16011SOL     OW51530   0.889   4.092   0.732  0.0232 -0.3260 -0.0459
16011SOL    HW151531   0.841   4.149   0.792  0.5324  1.6473 -1.4024
16011SOL    HW251532   0.964   4.145   0.704  2.5047 -2.8880  1.1646
16012SOL     OW51533   7.262   2.227   6.194 -0.3138  0.0678 -0.4389
16012SOL    HW151534   7.213   2.145   6.199 -1.0251  0.4282 -1.2294
16012SOL    HW251535   7.194   2.294   6.183  0.3501  0.6000 -1.3547
16013SOL     OW51536   3.835   9.550   3.320 -0.1999 -0.2077  0.6206
16013SOL    HW151537   3.872   9.638   3.314  1.2150 -0.8331 -0.4451
16013SOL    HW251538   3.780   9.553   3.398 -0.1947  1.6154  0.6083
16014SOL     OW51539   1.324   7.209   6.549 -0.1279 -0.2652 -0.1983
16014SOL    HW151540   1.374   7.245   6.622  0.4084  1.0387 -1.1705
16014SOL    HW251541   1.388   7.195   6.480 -0.4814 -2.3144 -0.1747
16015SOL     OW51542   0.385   2.105   3.993  0.0068 -0.0738  0.1598
16015SOL    HW151543   0.390   2.170   4.064  0.2323  0.6930 -0.5418
16015SOL    HW251544   0.385   2.157   3.913  0.0047 -0.9409 -0.4175
16016SOL     OW51545   0.541   7.149   8.005 -0.2336 -0.0476 -0.5893
16016SOL    HW151546   0.588   7.202   8.070 -1.2057  0.6491 -0.4260
16016SOL    HW251547   0.484   7.092   8.057 -1.2012  0.6892 -0.8151
16017SOL     OW51548   5.371   7.847  10.273  0.0833 -0.5082 -0.0156
16017SOL    HW151549   5.361   7.866  10.366  1.1141  2.1441 -0.3485
16017SOL    HW251550   5.408   7.759  10.271  0.3051 -0.5250  2.0934
16018SOL     OW51551  10.338   0.149   4.817  0.0931 -0.0803 -0.1063
16018SOL    HW151552  10.293   0.207   4.877  0.7973 -0.3395  0.7003
16018SOL    HW251553  10.325   0.061   4.853 -0.2923 -0.3500 -0.8724
16019SOL     OW51554   2.709   0.017   1.111  0.0881 -0.3455 -0.1649
16019SOL    HW151555   2.659  -0.043   1.166  0.1643  0.7155  1.0963
16019SOL    HW251556   2.791  -0.029   1.094  0.4124 -0.3795  1.3232
16020SOL     OW51557   7.609   0.892   3.095 -0.5209  0.1457  0.3189
16020SOL    HW151558   7.687   0.868   3.045 -2.6223 -2.4963 -2.0411
16020SOL    HW251559   7.639   0.895   3.186  2.0322 -2.4360 -0.2929
16021SOL     OW51560  10.412   6.490   5.272 -0.2467 -0.6653 -0.1316
16021SOL    HW151561  10.474   6.425   5.237 -0.6937 -1.4526  0.5224
16021SOL    HW251562  10.336   6.483   5.215 -1.1378 -2.2349  1.1711
16022SOL     OW51563   5.631  10.924  10.778  0.0980 -0.2210  0.2605
16022SOL    HW151564   5.568  10.852  10.773  1.5773 -1.5339 -0.3527
16022SOL    HW251565   5.716  10.881  10.782  1.0169  1.5062  0.2783
16023SOL     OW51566   4.868   2.758   0.054  0.1266 -0.2697 -0.0380
16023SOL    HW151567   4.900   2.821  -0.010  0.5418  0.7220  1.1046
16023SOL    HW251568   4.796   2.803   0.098  0.5685 -0.4889  0.9378
16024SOL     OW51569   3.189   5.671  10.995  0.4486  0.5561 -0.2832
16024SOL    HW151570   3.196   5.582  11.029 -0.0167  0.7383  0.3124
16024SOL    HW251571   3.160   5.724  11.070 -1.8100  0.7571 -1.2071
16025SOL     OW51572   2.158   8.970   6.793 -0.2513  0.5617  0.0707
16025SOL    HW151573   2.140   8.894   6.848  0.5865  0.4614  0.2088
16025SOL    HW251574   2.194   8.933   6.712  0.1178  0.8078  0.1221
16026SOL     OW51575   1.956   7.844   8.040 -0.1593  0.1397 -0.4607
16026SOL    HW151576   1.929   7.811   7.954 -0.3976  0.5394 -0.5406
16026SOL    HW251577   1.902   7.922   8.054 -0.6444 -0.3244  0.3753
16027SOL     OW51578   0.647   5.305   9.864 -0.6531  0.0620  0.4380
16027SOL    HW151579   0.616   5.325   9.775 -1.3776 -0.5649  0.5386
16027SOL    HW251580   0.720   5.244   9.850  1.2017  2.2267  0.1573
16028SOL     OW51581   4.556   2.068   9.663  0.4094  0.2070 -0.3829
16028SOL    HW151582   4.486   2.103   9.606  0.5216  0.3077 -0.4592
16028SOL    HW251583   4.524   1.981   9.688  0.7209 -0.1728 -1.2490
16029SOL     OW51584   3.258   4.316  10.693  0.1280 -0.1593 -0.2424
16029SOL    HW151585   3.263   4.272  10.608 -0.9824  0.0465 -0.4252
16029SOL    HW251586   3.168   4.304  10.721  0.0317  1.2537  0.1077
16030SOL     OW51587   9.729   1.300   1.233 -0.5198  0.0820 -0.4744
16030SOL    HW151588   9.646   1.316   1.278  0.7609  1.4948  1.5392
16030SOL    HW251589   9.760   1.217   1.270  0.3039  1.0047  0.9906
16031SOL     OW51590   8.212  10.076   1.136 -0.1270 -0.2943 -0.3684
16031SOL    HW151591   8.151  10.084   1.063 -0.2564 -0.1555 -0.2470
16031SOL    HW251592   8.289  10.127   1.110 -0.6114  0.6941  0.0466
16032SOL     OW51593   8.746   8.148   9.760 -0.0766 -0.1871  0.6473
16032SOL    HW151594   8.841   8.157   9.763 -0.1317  0.4675  0.7130
16032SOL    HW251595   8.720   8.133   9.851 -0.1597  1.1761  0.8707
16033SOL     OW51596   1.666   5.710   2.837 -0.1015  0.4838 -0.0006
16033SOL    HW151597   1.690   5.731   2.747  0.3511  2.0274  0.4556
16033SOL    HW251598   1.660   5.614   2.838 -0.6350  0.4528 -1.7827
16034SOL     OW51599   8.493   9.923   3.960 -0.3080  0.4369  0.0632
16034SOL    HW151600   8.465   9.882   3.878 -1.6352  0.4488  0.4850
16034SOL    HW251601   8.585   9.898   3.970 -0.5937 -0.9469 -0.5928
16035SOL     OW51602   8.374  10.744  10.630 -0.3351  0.3872 -0.1283
16035SOL    HW151603   8.337  10.831  10.646  0.0370  0.5215  0.0203
16035SOL    HW251604   8.299  10.685  10.633 -0.3641  0.4554  1.6861
16036SOL     OW51605  10.676   9.781   5.469  0.2816  0.2449  0.3902
16036SOL    HW151606  10.590   9.820   5.483 -0.0429 -0.8620  1.7214
16036SOL    HW251607  10.736   9.839   5.517  0.3345  1.1536 -0.7421
16037SOL     OW51608   7.500   8.376   9.075  0.3385 -0.7214  0.0999
16037SOL    HW151609   7.428   8.352   9.016  0.4475 -0.1515 -0.2703
16037SOL    HW251610   7.577   8.379   9.018  0.3775  0.2215  0.1945
16038SOL     OW51611   8.506   2.792   4.329 -0.1409 -0.2713  0.4023
16038SOL    HW151612   8.425   2.778   4.378 -0.4873  0.1900 -0.0273
16038SOL    HW251613   8.573   2.746   4.380 -0.8577 -1.6312  0.1633
16039SOL     OW51614   6.902   5.318   0.137  0.9893  0.5641 -0.2378
16039SOL    HW151615   6.972   5.315   0.072  0.3326  1.9095 -1.0407
16039SOL    HW251616   6.875   5.410   0.139  0.6753  0.4620  1.6027
16040SOL     OW51617   2.982   6.527   8.608 -0.1347  0.2918  0.1917
16040SOL    HW151618   2.937   6.471   8.546 -1.2709 -0.0473  1.2834
16040SOL    HW251619   2.920   6.597   8.627 -0.0962  0.0294  1.4164
16041SOL     OW51620   6.753   2.971   5.406  0.2439 -0.3550  0.5750
16041SOL    HW151621   6.723   2.957   5.496  0.4758 -0.1662  0.6833
16041SOL    HW251622   6.725   2.893   5.359 -0.8731  0.0414  0.5535
16042SOL     OW51623   2.866   7.415   5.925 -0.5306 -0.6680  0.1636
16042SOL    HW151624   2.874   7.508   5.907 -0.0636 -0.8210 -0.4559
16042SOL    HW251625   2.953   7.379   5.907 -0.6849 -1.2102  0.4690
16043SOL     OW51626  10.835   1.790   9.254  0.6432  0.1899  0.4396
16043SOL    HW151627  10.823   1.788   9.159  2.0988 -1.4347  0.2415
16043SOL    HW251628  10.752   1.825   9.288  0.1377  0.9093 -1.4127
16044SOL     OW51629   2.926  10.268  10.704 -0.2252 -0.0881  0.1587
16044SOL    HW151630   2.998  10.331  10.697 -1.4095  1.3443  0.2010
16044SOL    HW251631   2.865  10.309  10.765 -1.3243 -1.0057 -0.2937
16045SOL     OW51632   5.009   5.307   2.132 -0.3712  0.8620 -0.4701
16045SOL    HW151633   5.039   5.389   2.094  0.4332 -0.3622 -2.7016
16045SOL    HW251634   5.087   5.271   2.175 -0.1512  0.3612 -1.2603
16046SOL     OW51635   3.726   6.060   0.504 -0.6873  0.1006 -0.5516
16046SOL    HW151636   3.724   6.021   0.416  0.3084 -0.1668 -0.4636
16046SOL    HW251637   3.792   6.129   0.498  2.8691 -2.7860  1.1047
16047SOL     OW51638   6.385   2.027   9.105 -0.5003 -0.3010 -0.3715
16047SOL    HW151639   6.298   2.047   9.070 -1.2158 -0.4268  1.2523
16047SOL    HW251640   6.399   2.092   9.173  1.6999  1.1715 -2.0860
16048SOL     OW51641   0.921   3.806  10.052 -0.2121 -0.7819 -0.8951
16048SOL    HW151642   0.954   3.821   9.964  2.0700  0.5706  0.0960
16048SOL    HW251643   0.999   3.791  10.105 -1.4109 -0.3728  1.1087
16049SOL     OW51644   5.657   6.596   4.329  0.2460  0.2046  0.1849
16049SOL    HW151645   5.575   6.556   4.356 -0.7541  2.8811  1.4636
16049SOL    HW251646   5.724   6.532   4.356 -1.2673 -1.1640  0.8895
16050SOL     OW51647   3.678  10.242   4.807 -0.0042 -0.2674  0.4327
16050SOL    HW151648   3.641  10.289   4.881 -1.0937 -0.6160  0.1284
16050SOL    HW251649   3.602  10.210   4.758  0.6987 -0.4692 -0.5596
16051SOL     OW51650   6.448   4.072   6.213  0.1841 -0.3569 -0.1876
16051SOL    HW151651   6.449   4.133   6.140 -2.8134 -1.5291 -1.4026
16051SOL    HW251652   6.513   4.006   6.190 -0.2994 -0.3924 -1.5464
16052SOL     OW51653   7.802   2.652   8.882 -0.0484 -0.9998  0.2315
16052SOL    HW151654   7.799   2.736   8.929  1.1569  0.5187 -2.2125
16052SOL    HW251655   7.890   2.619   8.898 -0.3522 -1.5550  0.7702
16053SOL     OW51656   7.888   9.592   6.505  0.3247  0.4646  0.4402
16053SOL    HW151657   7.864   9.506   6.539  1.3279  0.0008  0.0371
16053SOL    HW251658   7.858   9.654   6.571  1.3041 -0.3391  1.6842
16054SOL     OW51659  10.613   6.875   9.640 -0.3360  0.5883 -0.2312
16054SOL    HW151660  10.565   6.792   9.645 -0.8692  0.9060 -0.0087
16054SOL    HW251661  10.697   6.851   9.602 -0.2058 -0.1846  0.4960
16055SOL     OW51662  10.742   5.141   7.583  0.4994  0.1883 -0.5761
16055SOL    HW151663  10.836   5.126   7.585  0.4873  0.0786  1.9008
16055SOL    HW251664  10.731   5.229   7.619 -0.3858  0.0536 -0.4949
16056SOL     OW51665   2.434   5.877   3.558  0.0448  0.1711  0.2879
16056SOL    HW151666   2.462   5.789   3.531 -0.0004 -0.0833  1.0521
16056SOL    HW251667   2.458   5.882   3.650  0.5797  1.1806  0.1088
16057SOL     OW51668   9.014   5.803   0.748  0.0134  0.1518 -0.0376
16057SOL    HW151669   9.084   5.868   0.740  1.0575 -0.8128  0.9488
16057SOL    HW251670   8.982   5.792   0.659  0.7028  1.0576 -0.4175
16058SOL     OW51671   9.011  10.309   6.800 -0.0648  0.1308  0.5585
16058SOL    HW151672   9.048  10.392   6.831 -0.1326  0.7393 -0.9027
16058SOL    HW251673   9.087  10.252   6.789 -0.0257 -0.0467  1.6518
16059SOL     OW51674   9.689   2.115   9.108 -0.5025 -0.4588 -0.0585
16059SOL    HW151675   9.696   2.041   9.048  0.5873  0.0259 -0.5629
16059SOL    HW251676   9.778   2.150   9.113 -1.2097  1.6288 -0.8872
16060SOL     OW51677  10.550   7.505   8.433  0.4087  0.8797  0.0081
16060SOL    HW151678  10.569   7.449   8.358  1.2824 -2.0063  2.2112
16060SOL    HW251679  10.454   7.503   8.440  0.4417 -0.9336  0.3918
16061SOL     OW51680   2.890   8.790   7.874 -0.4638 -0.2372  0.2056
16061SOL    HW151681   2.850   8.706   7.849  0.5904 -0.3963 -1.0440
16061SOL    HW251682   2.976   8.767   7.909 -0.1690  0.3155 -0.1407
16062SOL     OW51683   5.091   0.856   9.953 -0.5420  0.1615  0.1636
16062SOL    HW151684   5.114   0.938   9.996  0.5045  1.0310 -1.9052
16062SOL    HW251685   5.145   0.790   9.996 -1.5739  0.4594  2.0231
16063SOL     OW51686   1.974   1.311   2.003  0.4631  0.7756 -0.3693
16063SOL    HW151687   1.954   1.341   2.092 -1.0353 -2.4430  0.5426
16063SOL    HW251688   1.907   1.246   1.984  2.0933 -0.3018 -2.9651
16064SOL     OW51689   4.094   1.209   9.035 -0.1868  0.5534  0.2067
16064SOL    HW151690   4.165   1.226   8.973  0.8694  0.3020  1.2942
16064SOL    HW251691   4.116   1.263   9.111 -0.0705 -0.9879  1.3273
16065SOL     OW51692   1.495   9.451   3.281  0.6084 -0.2536  0.7136
16065SOL    HW151693   1.473   9.431   3.372  2.2681 -2.9565  0.6268
16065SOL    HW251694   1.590   9.456   3.279  0.5200  2.0017 -0.5135
16066SOL     OW51695   6.629   1.228  10.935 -0.3340 -1.0045 -0.1109
16066SOL    HW151696   6.603   1.215  10.843  0.7264  2.0177 -0.9616
16066SOL    HW251697   6.704   1.170  10.946 -0.5645 -1.5267 -1.0951
16067SOL     OW51698   6.777   2.811   3.386  0.1455  0.2427  0.1104
16067SOL    HW151699   6.788   2.871   3.459  1.4491  1.0014 -0.6753
16067SOL    HW251700   6.792   2.864   3.308  1.5889 -1.1299 -0.6031
16068SOL     OW51701   0.455   6.060   3.027  0.5002  0.7980  0.0505
16068SOL    HW151702   0.461   6.096   3.115  2.2310  0.7322 -0.0114
16068SOL    HW251703   0.434   6.135   2.972 -0.2811  0.8924  0.4564
16069SOL     OW51704   8.695   7.965   0.811 -0.0442 -0.6138 -0.2395
16069SOL    HW151705   8.618   7.973   0.754 -1.1725  0.8140  1.3483
16069SOL    HW251706   8.705   8.052   0.850  2.7010 -0.6254 -0.7132
16070SOL     OW51707  10.220   6.042   1.891  0.2551 -0.1563  0.2379
16070SOL    HW151708  10.165   6.006   1.961 -1.2058  0.7892 -0.3774
16070SOL    HW251709  10.200   6.136   1.890  1.8729  0.2196 -0.0457
16071SOL     OW51710  10.053   9.880   2.408 -0.0034 -0.0744  0.4266
16071SOL    HW151711  10.135   9.884   2.357  0.7830  0.1871  1.6581
16071SOL    HW251712   9.988   9.846   2.346  0.8074  0.6373 -0.8718
16072SOL     OW51713  10.562   9.906   4.697  0.6488  0.5370  0.0187
16072SOL    HW151714  10.636   9.916   4.638  1.4712 -0.9921  0.7255
16072SOL    HW251715  10.507   9.839   4.656  0.1158  1.0009 -0.0456
16073SOL     OW51716   5.315   7.739   6.694  0.0908  0.5088 -0.0336
16073SOL    HW151717   5.246   7.686   6.733  1.2012 -0.5084  0.6348
16073SOL    HW251718   5.346   7.795   6.765  0.8782 -0.0410  0.0738
16074SOL     OW51719   5.146  10.232   1.793  0.0436  0.2487 -0.2009
16074SOL    HW151720   5.082  10.276   1.738  0.1120  2.0879  1.1114
16074SOL    HW251721   5.161  10.148   1.749 -3.2919 -0.3211 -0.5313
16075SOL     OW51722   2.419   4.256   1.380  0.3581 -0.7578 -0.2329
16075SOL    HW151723   2.458   4.172   1.357 -1.0980 -1.3860 -0.4951
16075SOL    HW251724   2.325   4.239   1.383 -0.2566  1.4773 -3.0077
16076SOL     OW51725   5.905   1.274   7.861 -0.0153  0.0594  0.4562
16076SOL    HW151726   5.852   1.337   7.811  1.4268  0.0814 -1.1434
16076SOL    HW251727   5.892   1.191   7.816  2.9816  0.4818 -1.4452
16077SOL     OW51728  10.340   0.218   5.209 -0.2951  0.4626 -0.4828
16077SOL    HW151729  10.301   0.248   5.127  0.9930  0.7436 -1.0094
16077SOL    HW251730  10.427   0.186   5.184  0.3016  0.9941  0.8365
16078SOL     OW51731   2.999   8.871   9.653 -0.5984  0.7621 -0.6275
16078SOL    HW151732   2.987   8.813   9.578  0.4403  1.5455 -1.4344
16078SOL    HW251733   3.022   8.956   9.615 -2.9189  1.9734  0.4912
16079SOL     OW51734   8.669   0.548   9.322  0.2244 -0.6097 -0.0797
16079SOL    HW151735   8.636   0.598   9.247  2.3524  2.5095  0.8494
16079SOL    HW251736   8.602   0.557   9.389  0.0225 -0.0530 -0.3523
16080SOL     OW51737   3.039   3.029   6.481  0.2184  0.0176  0.4327
16080SOL    HW151738   3.033   3.030   6.386 -0.4752  2.4849  0.4441
16080SOL    HW251739   2.948   3.020   6.511  0.2357  1.0467  0.8327
16081SOL     OW51740   5.902   2.486   4.226 -0.1681 -0.9674 -0.1187
16081SOL    HW151741   5.991   2.463   4.252 -0.8271 -1.8839  1.4202
16081SOL    HW251742   5.859   2.515   4.307 -0.8447  0.9479 -1.0979
16082SOL     OW51743   2.884   7.083   7.111  0.5785  0.0844  0.2209
16082SOL    HW151744   2.894   7.175   7.084 -2.1922 -0.2565 -2.5101
16082SOL    HW251745   2.863   7.087   7.204  0.2062  2.2561  0.0969
16083SOL     OW51746   4.501   9.333   9.777 -0.0346  0.1031  0.2539
16083SOL    HW151747   4.572   9.336   9.713 -0.1794  0.1825  0.0964
16083SOL    HW251748   4.512   9.412   9.829 -1.4058  1.3677 -1.2752
16084SOL     OW51749   0.481   1.571   4.284 -0.2413 -0.1611 -0.5750
16084SOL    HW151750   0.485   1.613   4.370 -0.7536  0.4729 -0.8614
16084SOL    HW251751   0.571   1.578   4.250 -0.3651  0.8868 -0.7074
16085SOL     OW51752   6.331  10.285   3.016  0.4461 -0.1340  0.4644
16085SOL    HW151753   6.326  10.195   3.048 -0.6539  0.0146  0.7513
16085SOL    HW251754   6.392  10.281   2.943 -0.4848 -1.3577 -0.2868
16086SOL     OW51755   3.736   3.339   0.352 -0.0905 -0.5222  0.1158
16086SOL    HW151756   3.820   3.312   0.315  0.9094  0.6943  1.3763
16086SOL    HW251757   3.724   3.282   0.428  0.9958  1.0729  1.5500
16087SOL     OW51758   4.239   4.177   9.215 -0.2872 -0.0354  0.0270
16087SOL    HW151759   4.224   4.086   9.239 -1.1623  0.7019  2.6440
16087SOL    HW251760   4.323   4.199   9.257  0.0021  0.3251 -0.7276
16088SOL     OW51761   1.930   8.057   3.486  0.6473  0.1359  0.1235
16088SOL    HW151762   1.846   8.086   3.522 -0.5063 -1.3745 -1.2659
16088SOL    HW251763   1.952   8.123   3.420  0.2636  0.2214  0.0826
16089SOL     OW51764   3.905  10.906   1.623  0.0563  0.2373 -0.5984
16089SOL    HW151765   3.925  10.814   1.607  1.3999  0.3151  0.4706
16089SOL    HW251766   3.930  10.921   1.714 -0.3403  1.6138 -0.6871
16090SOL     OW51767   5.380   6.254   3.511  0.0917  0.3994  0.3927
16090SOL    HW151768   5.301   6.308   3.500 -0.8284 -0.8260  0.7330
16090SOL    HW251769   5.430   6.268   3.431 -1.1868  0.0819 -0.4878
16091SOL     OW51770   4.934  10.676   4.760 -0.1335 -0.2175 -0.0944
16091SOL    HW151771   4.912  10.637   4.845 -0.6091 -0.1946 -0.2048
16091SOL    HW251772   4.867  10.643   4.701 -0.0318  0.0826 -0.3761
16092SOL     OW51773   2.621   5.494   1.737  0.2900 -0.3246  0.0631
16092SOL    HW151774   2.700   5.473   1.687  1.4279 -0.0515  1.6791
16092SOL    HW251775   2.652   5.511   1.826 -1.5002  0.5867  0.5681
16093SOL     OW51776   9.576   7.638   4.890  0.0558 -0.2134 -0.2270
16093SOL    HW151777   9.519   7.572   4.929 -1.8312 -0.0496 -2.4788
16093SOL    HW251778   9.664   7.602   4.899 -0.7493 -2.2100  0.1959
16094SOL     OW51779   6.805   1.532   1.995  0.0546  0.1077 -0.1546
16094SOL    HW151780   6.742   1.557   2.062  0.1817  0.3811 -0.1393
16094SOL    HW251781   6.830   1.442   2.018 -0.2147  0.0528 -0.0740
16095SOL     OW51782   1.408   5.988  10.689  0.1127 -0.8615  0.7625
16095SOL    HW151783   1.428   5.950  10.774 -1.6056  0.7893  1.9693
16095SOL    HW251784   1.407   6.083  10.704 -1.4872 -0.5808 -0.7677
16096SOL     OW51785   8.651   9.952   1.824  0.1735  0.2066  0.2954
16096SOL    HW151786   8.694   9.867   1.818 -0.6654 -0.1279 -1.4530
16096SOL    HW251787   8.666   9.992   1.738 -2.1653  0.4695 -0.0462
16097SOL     OW51788   8.365   7.460   6.777  0.2758  0.6003 -0.2231
16097SOL    HW151789   8.431   7.500   6.721 -0.6890  0.4538 -1.4907
16097SOL    HW251790   8.282   7.494   6.745 -0.3019  0.5834  1.1902
16098SOL     OW51791   0.822   8.151   0.862 -0.0908 -0.4438  0.2088
16098SOL    HW151792   0.859   8.229   0.821  0.3876 -0.8355 -0.1263
16098SOL    HW251793   0.863   8.148   0.949 -0.6203  0.0400  0.4777
16099SOL     OW51794   3.098   6.859   9.250 -0.3446  0.9040  0.3887
16099SOL    HW151795   3.188   6.851   9.217 -0.6171  1.2631 -0.4853
16099SOL    HW251796   3.102   6.825   9.339  0.4203 -0.1605 -0.0254
16100SOL     OW51797   9.855   1.219   0.984 -0.1836 -0.3708 -0.4577
16100SOL    HW151798   9.797   1.159   0.937 -2.0468  0.1601  1.0268
16100SOL    HW251799   9.798   1.261   1.049  1.2771  2.2460 -0.7510
16101SOL     OW51800   4.100   6.581   9.163 -0.4589  0.3122 -0.6463
16101SOL    HW151801   4.031   6.622   9.215  0.9414  1.1996  0.5844
16101SOL    HW251802   4.148   6.655   9.125  1.7787 -0.0700  1.1774
16102SOL     OW51803   7.253   5.796   1.272  0.1319 -0.2470  0.2431
16102SOL    HW151804   7.175   5.831   1.228  0.1526 -0.6441 -0.1207
16102SOL    HW251805   7.326   5.837   1.226  0.1393 -0.1746  0.3216
16103SOL     OW51806   4.604   6.474   6.069  0.2694  0.2353 -0.3381
16103SOL    HW151807   4.606   6.490   5.975  1.1203  0.6634 -0.2535
16103SOL    HW251808   4.625   6.381   6.078  1.1904  0.4113 -0.5309
16104SOL     OW51809  10.054   8.035   4.409  0.4268  0.4585 -0.2105
16104SOL    HW151810  10.089   8.113   4.364  2.9639  0.0550  0.9020
16104SOL    HW251811  10.086   8.043   4.499 -1.6227 -0.5127  0.6686
16105SOL     OW51812   4.547   1.215   0.117 -0.6252  0.1133  0.3746
16105SOL    HW151813   4.490   1.272   0.169  0.5079  0.1493  1.6315
16105SOL    HW251814   4.629   1.263   0.111 -0.9897  0.5236 -2.2961
16106SOL     OW51815   5.681   4.066   9.418 -0.1147 -0.2485  0.2895
16106SOL    HW151816   5.674   4.144   9.473  0.0248  1.7956 -2.3647
16106SOL    HW251817   5.590   4.036   9.406 -0.1588 -0.5914  1.4130
16107SOL     OW51818   2.048   9.760   3.785 -0.6372  0.5716  0.3603
16107SOL    HW151819   2.001   9.681   3.811 -0.7958  0.7076  0.4855
16107SOL    HW251820   2.069   9.746   3.693 -1.8309  0.9567  0.0153
16108SOL     OW51821   4.802   5.376   7.398 -0.0729  0.1971 -0.0453
16108SOL    HW151822   4.847   5.381   7.483 -0.3410 -0.3950  0.1402
16108SOL    HW251823   4.802   5.282   7.377  0.1438  0.3590 -0.7892
16109SOL     OW51824   7.842   0.412   4.433  0.6511 -0.1086 -0.2868
16109SOL    HW151825   7.834   0.316   4.430  0.5252 -0.1092  0.0536
16109SOL    HW251826   7.752   0.443   4.437  0.6437  0.0676 -1.3911
16110SOL     OW51827   1.563   7.117   5.673 -0.0280  0.5322 -1.0148
16110SOL    HW151828   1.636   7.057   5.689 -1.4714 -1.1618 -0.4109
16110SOL    HW251829   1.492   7.060   5.644 -0.9780  2.1999 -2.1001
16111SOL     OW51830   8.491   7.811   4.360  0.1285  0.1697 -0.2103
16111SOL    HW151831   8.490   7.716   4.346 -0.5978 -0.0647  1.1870
16111SOL    HW251832   8.404   7.831   4.394  0.4977  1.2343  0.1570
16112SOL     OW51833   2.304   7.678   0.675 -0.0318 -0.1264  0.0881
16112SOL    HW151834   2.374   7.736   0.704  1.0498  0.1580 -2.7566
16112SOL    HW251835   2.316   7.671   0.580 -2.6586 -1.7009 -0.2374
16113SOL     OW51836  10.446   7.599   4.862 -0.5816  0.1390  0.3014
16113SOL    HW151837  10.534   7.585   4.825 -0.1582 -0.8067  1.5964
16113SOL    HW251838  10.463   7.630   4.951 -1.5453 -0.5972  0.7564
16114SOL     OW51839   3.168   0.259   5.104 -0.5733 -0.0148 -0.3385
16114SOL    HW151840   3.167   0.267   5.199  0.6232  0.0712 -0.3162
16114SOL    HW251841   3.215   0.337   5.074 -0.5801 -0.2521 -0.9715
16115SOL     OW51842   8.428   9.337   2.098 -0.3128 -0.0369  0.2216
16115SOL    HW151843   8.473   9.266   2.052 -2.3151 -0.6054 -1.0035
16115SOL    HW251844   8.408   9.400   2.029 -1.3911  0.1882  0.7287
16116SOL     OW51845   5.466   9.411   8.025 -0.2691  0.3434  0.2249
16116SOL    HW151846   5.454   9.486   7.966 -0.2733 -0.6672 -1.1088
16116SOL    HW251847   5.531   9.356   7.981 -0.8578 -0.8345  0.7770
16117SOL     OW51848   8.140   4.253   5.275 -0.0086 -0.1673  0.0887
16117SOL    HW151849   8.113   4.299   5.354 -0.8768 -0.6031  0.0573
16117SOL    HW251850   8.058   4.233   5.230  0.3622 -1.5493 -0.0115
16118SOL     OW51851   9.821   9.688   7.323  0.3759  0.3308  0.8326
16118SOL    HW151852   9.773   9.621   7.372 -0.8858  0.4698 -0.1486
16118SOL    HW251853   9.892   9.640   7.281 -1.1527 -0.6744 -0.7510
16119SOL     OW51854   1.556   8.931   7.656 -0.3799 -0.3693 -0.1280
16119SOL    HW151855   1.638   8.947   7.608  0.4188  1.3150  1.6515
16119SOL    HW251856   1.550   9.004   7.717 -3.3059 -0.3867 -0.2585
16120SOL     OW51857   2.196   7.636   9.252  0.6646 -0.3199 -0.1472
16120SOL    HW151858   2.201   7.550   9.211  0.1248 -0.5457  0.2515
16120SOL    HW251859   2.219   7.620   9.344 -2.1577 -0.5428  0.5941
16121SOL     OW51860   0.445   7.979   2.258 -0.0273 -0.4530 -0.4911
16121SOL    HW151861   0.464   7.990   2.164  1.6932 -3.7501 -0.6860
16121SOL    HW251862   0.356   8.013   2.269  0.5105  2.0878 -2.7856
16122SOL     OW51863  10.902   3.427   7.372 -0.1349 -0.0730 -0.3314
16122SOL    HW151864  10.915   3.430   7.467  1.5691 -2.0200 -0.4372
16122SOL    HW251865  10.956   3.498   7.338 -1.8489  1.5670  0.1628
16123SOL     OW51866   5.427   1.875   1.459 -0.1186 -0.1239  0.2128
16123SOL    HW151867   5.385   1.918   1.534  0.0532 -0.9563  0.8053
16123SOL    HW251868   5.521   1.889   1.473 -0.0841 -0.3148  0.1737
16124SOL     OW51869   8.605   8.235   9.094  0.6564  0.2447  0.4868
16124SOL    HW151870   8.696   8.211   9.107  0.6489 -0.2179 -0.2388
16124SOL    HW251871   8.580   8.191   9.013 -0.1386  0.5685  0.5435
16125SOL     OW51872   5.926   6.192  10.349 -0.5521  0.1182 -0.1497
16125SOL    HW151873   5.993   6.171  10.414 -0.8660  0.5314  0.3177
16125SOL    HW251874   5.918   6.113  10.296 -0.1221 -0.1384  0.1607
16126SOL     OW51875   0.626   4.432   7.588  0.1344  0.5535 -0.1506
16126SOL    HW151876   0.692   4.363   7.584  0.4430  0.8762 -0.6691
16126SOL    HW251877   0.657   4.490   7.658  1.6933  1.9921 -1.9277
16127SOL     OW51878   2.599   1.909   2.137 -0.1074  0.0839  0.0008
16127SOL    HW151879   2.540   1.980   2.163  0.4138  0.3258  0.5471
16127SOL    HW251880   2.611   1.858   2.217 -0.7713 -0.8450 -0.4762
16128SOL     OW51881   7.321   7.882   8.426  0.3896  0.4076 -0.0774
16128SOL    HW151882   7.266   7.958   8.444  0.8770  1.1693 -1.6205
16128SOL    HW251883   7.397   7.893   8.484  0.2201  0.8392  0.0607
16129SOL     OW51884   5.406   7.469   1.646  0.3848 -0.1615 -0.1628
16129SOL    HW151885   5.471   7.433   1.586  1.5700  1.2327  0.2392
16129SOL    HW251886   5.433   7.560   1.660 -1.5215  0.3879  0.2083
16130SOL     OW51887   3.268   1.808   4.077 -0.4375  0.0660  0.1596
16130SOL    HW151888   3.265   1.728   4.024 -0.3838  0.3719 -0.3090
16130SOL    HW251889   3.274   1.776   4.167  0.2894 -0.4625 -0.0613
16131SOL     OW51890  10.710   5.019   5.638  0.3304 -0.2477 -0.1456
16131SOL    HW151891  10.622   5.052   5.619  0.4986  0.1110 -0.3092
16131SOL    HW251892  10.702   4.924   5.630 -0.5962 -0.4396  2.0808
16132SOL     OW51893   8.350   9.448   1.170 -0.0484  0.7053 -0.3837
16132SOL    HW151894   8.399   9.420   1.247 -1.1252 -2.5126 -0.7283
16132SOL    HW251895   8.416   9.457   1.101  0.5065  0.2458  0.0843
16133SOL     OW51896   3.762   5.914   0.785 -0.7197  0.4329 -0.3608
16133SOL    HW151897   3.853   5.894   0.808 -1.0610 -1.0614 -0.2029
16133SOL    HW251898   3.767   5.996   0.737  0.6153  0.8222  0.3978
16134SOL     OW51899   8.829   2.807  10.595  0.1327  0.7118 -0.0961
16134SOL    HW151900   8.866   2.787  10.681  1.1668  0.3502 -0.6139
16134SOL    HW251901   8.905   2.822  10.539 -0.5287  3.1883 -0.4443
16135SOL     OW51902   0.451   0.527   2.886  0.4677  0.0147  0.1136
16135SOL    HW151903   0.413   0.536   2.974  1.4742  1.4276  0.4472
16135SOL    HW251904   0.380   0.491   2.833 -0.5018  0.1368  1.2726
16136SOL     OW51905  10.560  10.123   0.198 -0.2514  0.0400  0.0907
16136SOL    HW151906  10.519  10.206   0.176  1.2469  0.5195 -1.0597
16136SOL    HW251907  10.565  10.076   0.115  2.5329  0.4954 -0.0696
16137SOL     OW51908   9.192  10.231  10.299 -0.3866  0.0039 -0.1297
16137SOL    HW151909   9.267  10.258  10.247  0.4495  0.1883  1.1148
16137SOL    HW251910   9.191  10.292  10.373 -1.8096  0.0484 -0.1591
16138SOL     OW51911   3.892   3.649   6.664  0.3916  0.6511 -0.4050
16138SOL    HW151912   3.808   3.603   6.669 -0.0308  1.0081 -2.8900
16138SOL    HW251913   3.872   3.738   6.693 -0.0555  0.6770 -0.7760
16139SOL     OW51914   3.116   6.819  10.872 -1.0096  0.8861  0.0377
16139SOL    HW151915   3.160   6.834  10.956 -0.7725 -1.8758  0.5009
16139SOL    HW251916   3.179   6.848  10.806 -0.6566  1.8568  0.7803
16140SOL     OW51917   7.884   6.311   0.318 -0.1405  0.3323  0.6731
16140SOL    HW151918   7.850   6.355   0.240 -0.1782  0.3548  0.7024
16140SOL    HW251919   7.979   6.309   0.305 -0.2421 -0.8788 -0.0213
16141SOL     OW51920   4.200   3.167  10.093 -0.7249  0.2998  0.0099
16141SOL    HW151921   4.160   3.080  10.088  0.1520 -0.1674  0.7904
16141SOL    HW251922   4.248   3.176  10.010 -0.3891 -0.1842  0.1476
16142SOL     OW51923   1.059   2.773   3.784  0.2163  0.5910  0.2974
16142SOL    HW151924   1.107   2.833   3.841  0.0152  2.4093 -1.3629
16142SOL    HW251925   1.127   2.732   3.730  0.2553  0.0070  0.7712
16143SOL     OW51926  10.332   7.829   2.428 -0.0480  0.5371 -0.2779
16143SOL    HW151927  10.391   7.754   2.424  0.6609  1.1242 -1.0048
16143SOL    HW251928  10.390   7.905   2.434 -0.7580  0.9950  1.3713
16144SOL     OW51929   9.224  10.119   6.767 -0.1925 -0.0466  0.0939
16144SOL    HW151930   9.212  10.057   6.695  1.3483 -0.4530  0.1572
16144SOL    HW251931   9.302  10.169   6.743  0.9836 -0.8895  1.9231
16145SOL     OW51932   7.615   6.559   5.038  0.3891  0.4042 -0.7150
16145SOL    HW151933   7.554   6.517   4.978 -1.1262  0.3925  0.7513
16145SOL    HW251934   7.568   6.563   5.122  1.0192  3.6246 -0.3808
16146SOL     OW51935   1.767   4.294   3.249 -0.7206  0.1110  0.4995
16146SOL    HW151936   1.761   4.207   3.288 -0.1976 -0.4474 -0.6258
16146SOL    HW251937   1.859   4.303   3.223 -0.9192  0.7018 -0.0385
16147SOL     OW51938   1.045   3.887   8.953  0.0330 -0.0338 -0.1035
16147SOL    HW151939   0.984   3.958   8.934  0.8385  0.7897  0.2987
16147SOL    HW251940   1.022   3.818   8.890 -0.3368  0.8387 -0.9518
16148SOL     OW51941  10.839   6.249   8.531  0.7068 -0.4618  0.4551
16148SOL    HW151942  10.885   6.250   8.615  0.7282 -0.7009  0.4475
16148SOL    HW251943  10.813   6.340   8.516  2.9342  0.0910 -0.4953
16149SOL     OW51944   7.624   9.342   1.409  0.0598  0.8205  0.5875
16149SOL    HW151945   7.625   9.310   1.499  1.1619  1.1852  0.7141
16149SOL    HW251946   7.575   9.424   1.414 -0.4996  0.4918  0.7137
16150SOL     OW51947   1.581   3.693   8.338 -0.2181 -0.0875  0.0814
16150SOL    HW151948   1.546   3.770   8.294 -1.0297 -1.0136 -0.9623
16150SOL    HW251949   1.597   3.722   8.428 -1.1406  1.1115 -0.1121
16151SOL     OW51950   7.912   0.157   3.680 -0.5934  0.0181 -0.4693
16151SOL    HW151951   7.891   0.230   3.622 -1.3867 -0.9184 -1.3799
16151SOL    HW251952   7.924   0.198   3.766 -0.2554  1.3096 -1.1042
16152SOL     OW51953   5.621   0.392   6.440  0.4700 -0.0416 -0.4696
16152SOL    HW151954   5.575   0.438   6.370 -0.6635 -0.1306  0.1932
16152SOL    HW251955   5.613   0.450   6.516  1.1097 -0.2481 -0.2410
16153SOL     OW51956   8.637   9.284   4.581 -0.1407 -0.3807 -0.0333
16153SOL    HW151957   8.693   9.352   4.617  0.7275  0.0643 -2.1402
16153SOL    HW251958   8.614   9.230   4.657 -2.4932  3.2713  2.1311
16154SOL     OW51959   9.477   0.815   6.494 -0.2534  0.0906  0.6128
16154SOL    HW151960   9.503   0.904   6.469  0.7617 -0.0538  1.1213
16154SOL    HW251961   9.530   0.758   6.438 -1.3152 -0.2124 -0.1188
16155SOL     OW51962  10.667   0.548   4.431  0.2318  0.2137 -0.2487
16155SOL    HW151963  10.677   0.593   4.515  0.7971 -0.6103  0.1403
16155SOL    HW251964  10.752   0.559   4.388  0.2550 -0.1839 -0.3011
16156SOL     OW51965   0.312   7.015   6.643  0.0209  0.2980  0.1431
16156SOL    HW151966   0.362   7.002   6.724  0.9754  0.3571 -0.4253
16156SOL    HW251967   0.232   7.061   6.672 -0.2196 -0.7375  1.2068
16157SOL     OW51968   9.134   6.039   6.706 -0.2621  0.3401 -0.2250
16157SOL    HW151969   9.081   6.079   6.776 -2.2327  1.1305 -2.0375
16157SOL    HW251970   9.114   6.091   6.628  1.1322 -1.0594 -1.5992
16158SOL     OW51971   5.725   8.735   7.071  0.1831 -0.4705 -0.3138
16158SOL    HW151972   5.716   8.640   7.068 -5.6250 -0.2846 -0.0819
16158SOL    HW251973   5.697   8.759   7.159  0.0489  1.5614 -0.8738
16159SOL     OW51974   0.557   3.214   0.242  0.3586 -0.1578 -0.1679
16159SOL    HW151975   0.539   3.181   0.329 -0.9577  0.4951 -0.1626
16159SOL    HW251976   0.484   3.181   0.188 -1.3880  3.0500 -0.0378
16160SOL     OW51977   5.128   8.189   7.355  0.4565  0.2887  0.1342
16160SOL    HW151978   5.168   8.102   7.360  2.6436  1.2152 -0.2191
16160SOL    HW251979   5.164   8.228   7.276 -1.1906  1.2095 -0.2032
16161SOL     OW51980  10.579  10.981   9.757  0.1569 -0.2479 -0.6034
16161SOL    HW151981  10.565  11.003   9.849 -2.4638 -1.6332 -0.5807
16161SOL    HW251982  10.652  11.037   9.730 -1.3481  2.9351  1.3147
16162SOL     OW51983   6.145   0.298   2.743  0.0447  0.1603  0.0276
16162SOL    HW151984   6.092   0.369   2.779 -0.9065 -0.0093 -0.9952
16162SOL    HW251985   6.097   0.218   2.769 -0.0824 -0.0025 -0.6995
16163SOL     OW51986   7.927   5.989   6.721 -0.0826 -0.7239  0.2303
16163SOL    HW151987   7.955   6.080   6.710  1.0678 -0.8390  1.8953
16163SOL    HW251988   7.939   5.950   6.634 -0.2617  0.6152 -0.4138
16164SOL     OW51989   2.809   6.014  10.563  0.0814  0.0924  0.4285
16164SOL    HW151990   2.884   6.063  10.597  0.9364 -0.1779 -1.0111
16164SOL    HW251991   2.748   6.012  10.637 -0.1779  3.6002  0.5030
16165SOL     OW51992   9.610   0.266   4.207 -0.6099  0.0711 -0.0914
16165SOL    HW151993   9.682   0.229   4.258  1.1486  0.5380 -2.0890
16165SOL    HW251994   9.570   0.190   4.164 -0.8423 -0.1114  0.4405
16166SOL     OW51995   7.426   9.548   0.024  0.3003  0.1761 -0.5346
16166SOL    HW151996   7.356   9.606   0.054  2.7915  1.3958  3.7542
16166SOL    HW251997   7.430   9.479   0.091  2.2073 -0.7168 -1.4800
16167SOL     OW51998  10.062   3.413   0.241  0.2949 -0.7893 -0.4249
16167SOL    HW151999  10.130   3.480   0.248 -0.7740  0.2179  0.7153
16167SOL    HW252000  10.050   3.400   0.147  1.8344 -0.7680 -0.6437
16168SOL     OW52001   5.849   5.605   5.085 -0.5646  0.0246  0.2319
16168SOL    HW152002   5.865   5.691   5.046 -2.2602  0.7652  1.0501
16168SOL    HW252003   5.771   5.572   5.039 -0.3996 -0.7283  0.4726
16169SOL     OW52004   9.231   7.697   2.179 -0.1975 -0.0816 -0.2864
16169SOL    HW152005   9.196   7.702   2.090 -0.0371  0.0870 -0.3396
16169SOL    HW252006   9.264   7.785   2.197 -3.6461  1.0442  1.3521
16170SOL     OW52007   4.353   4.570   0.836 -0.3641  0.1371  0.2945
16170SOL    HW152008   4.292   4.614   0.777  0.0615  0.2174 -0.0919
16170SOL    HW252009   4.408   4.517   0.779  0.6656  0.9329  0.5022
16171SOL     OW52010   0.836   1.478  10.804 -0.3084 -0.6459 -0.4698
16171SOL    HW152011   0.788   1.549  10.846  2.3518  1.0520 -0.0563
16171SOL    HW252012   0.828   1.496  10.710  2.8589  2.2236 -0.3754
16172SOL     OW52013   6.557   3.363   1.151  0.5756 -0.2248  0.3768
16172SOL    HW152014   6.552   3.457   1.136 -0.0463 -0.1229  1.1436
16172SOL    HW252015   6.566   3.355   1.246 -0.6802 -0.9657  0.4584
16173SOL     OW52016   8.264   6.191   6.732  0.5439 -0.1095  0.0192
16173SOL    HW152017   8.194   6.227   6.787  0.3953  0.5877 -0.6040
16173SOL    HW252018   8.343   6.236   6.762  0.9292 -1.6686  1.4392
16174SOL     OW52019   3.937   0.264   2.308  0.3746 -0.2009  0.0768
16174SOL    HW152020   4.015   0.298   2.265  0.1003  0.0809 -0.2042
16174SOL    HW252021   3.868   0.328   2.288  0.5936  0.7944  2.2110
16175SOL     OW52022   7.192   6.416   3.734  0.0806 -0.3147  0.3730
16175SOL    HW152023   7.269   6.359   3.741  0.9694  0.7682 -0.1721
16175SOL    HW252024   7.220   6.499   3.774 -0.6835  0.1939 -0.1116
16176SOL     OW52025   8.221   9.549   9.283  0.2728  0.2332  0.2894
16176SOL    HW152026   8.138   9.539   9.236  1.5689  1.6887 -2.5769
16176SOL    HW252027   8.195   9.568   9.373 -2.5034  0.6278 -0.4916
16177SOL     OW52028   5.338   4.836   3.597  0.4060  0.5533 -0.0214
16177SOL    HW152029   5.309   4.759   3.647  1.2499 -0.1052 -0.5250
16177SOL    HW252030   5.414   4.868   3.644 -0.5826  1.7728  0.8132
16178SOL     OW52031   3.415   9.919  10.762 -0.0094 -0.2330  0.2448
16178SOL    HW152032   3.434   9.829  10.789  2.7149  0.0346 -0.5159
16178SOL    HW252033   3.465   9.974  10.823  1.5715  0.5615 -1.6620
16179SOL     OW52034   0.177   8.351   1.887  0.2640 -0.3337 -0.1023
16179SOL    HW152035   0.253   8.409   1.888 -1.1390  1.5876 -0.5889
16179SOL    HW252036   0.111   8.397   1.938 -0.8012 -1.7068 -0.1823
16180SOL     OW52037   3.373   4.156   3.860 -0.2147  0.2757 -0.1219
16180SOL    HW152038   3.447   4.101   3.885 -0.9992 -0.4789  0.6277
16180SOL    HW252039   3.407   4.245   3.863  0.7482 -0.0856 -0.1185
16181SOL     OW52040   3.101  10.458   1.189 -0.2631  0.1528  0.5516
16181SOL    HW152041   3.034  10.399   1.223  1.2633 -1.4315  0.9714
16181SOL    HW252042   3.111  10.526   1.257 -2.6584  1.5066 -0.3316
16182SOL     OW52043   7.757   7.363  10.627 -0.0153 -0.3602 -0.0272
16182SOL    HW152044   7.731   7.414  10.551 -0.2969  0.0934  0.3677
16182SOL    HW252045   7.831   7.411  10.664 -0.3330 -0.1889  0.3918
16183SOL     OW52046   9.793   4.860   2.233  0.5920  0.2463  0.6476
16183SOL    HW152047   9.818   4.770   2.214  0.9060  0.1282  1.5681
16183SOL    HW252048   9.726   4.852   2.301  0.7915  0.7097  0.9051
16184SOL     OW52049   1.808   8.486   6.014 -0.1024  0.0332 -0.7117
16184SOL    HW152050   1.893   8.445   5.997 -2.0800 -4.0587 -2.0724
16184SOL    HW252051   1.787   8.530   5.932  1.2124  2.4252  0.1316
16185SOL     OW52052   7.275   1.078   1.755  0.1188 -0.4225 -0.4665
16185SOL    HW152053   7.355   1.118   1.722  0.8690 -0.1180  1.6326
16185SOL    HW252054   7.304   1.012   1.818 -1.2543 -1.4346 -0.8232
16186SOL     OW52055   7.690   1.732   3.611  0.0604 -0.6101  0.0576
16186SOL    HW152056   7.680   1.673   3.685  1.1613 -3.5601 -1.9263
16186SOL    HW252057   7.632   1.696   3.544  1.5789 -0.1312 -1.5984
16187SOL     OW52058   7.663  10.135   0.450  0.4891 -0.0912 -0.3736
16187SOL    HW152059   7.572  10.141   0.423  0.6918 -0.4043 -1.1691
16187SOL    HW252060   7.662  10.154   0.544 -0.3381  0.2979 -0.4548
16188SOL     OW52061   2.559   4.658   7.941  0.6577 -0.0000 -0.5203
16188SOL    HW152062   2.604   4.732   7.983 -3.1407  2.4602 -0.3437
16188SOL    HW252063   2.508   4.618   8.011 -2.1009  1.2134 -1.6915
16189SOL     OW52064   5.522   0.209   4.523  0.5343  0.0319  0.3143
16189SOL    HW152065   5.451   0.273   4.532  0.5020  0.0324  0.0870
16189SOL    HW252066   5.601   0.262   4.513  0.3604  0.0825 -1.1401
16190SOL     OW52067   7.296   6.279  10.883 -0.1323 -0.6138 -0.4863
16190SOL    HW152068   7.295   6.229  10.801  0.5249 -2.4475  0.5546
16190SOL    HW252069   7.389   6.290  10.902 -0.2718 -1.0077  0.4555
16191SOL     OW52070   7.664   4.784   9.624 -0.6013 -0.1828 -0.1580
16191SOL    HW152071   7.643   4.697   9.588  1.3265 -0.1797 -1.4640
16191SOL    HW252072   7.680   4.838   9.546 -0.6189  1.0403  0.6681
16192SOL     OW52073   1.420   6.680   0.073 -0.2546 -0.2707  0.3358
16192SOL    HW152074   1.390   6.771   0.078 -0.6286 -0.1498 -2.5218
16192SOL    HW252075   1.367   6.634   0.138  0.6110  1.6482  2.5533
16193SOL     OW52076   7.675   2.048   6.419 -0.1444 -0.1735 -0.8866
16193SOL    HW152077   7.619   2.124   6.405  0.6399  0.1833 -2.3300
16193SOL    HW252078   7.689   2.013   6.331 -1.6456 -2.8811 -0.1779
16194SOL     OW52079   6.483   7.602   9.729  0.4825 -0.2219  0.0861
16194SOL    HW152080   6.455   7.577   9.640  0.3249 -1.8282  0.5541
16194SOL    HW252081   6.401   7.626   9.773  0.5409  0.4095 -0.1332
16195SOL     OW52082   5.277   6.072   9.255  0.4216  0.3877 -0.5161
16195SOL    HW152083   5.181   6.074   9.261  0.4584  2.1524  0.1122
16195SOL    HW252084   5.303   6.005   9.318 -0.4137 -1.2479 -1.8037
16196SOL     OW52085   9.662   7.049   4.123 -0.1722 -0.0131  0.1427
16196SOL    HW152086   9.639   6.956   4.124 -1.2502  0.2328 -0.2603
16196SOL    HW252087   9.757   7.050   4.123 -0.1187 -1.1561 -1.1388
16197SOL     OW52088   6.088   0.454   8.659  0.5538 -0.8209 -0.2013
16197SOL    HW152089   6.109   0.361   8.659 -1.0575 -1.2342  0.7462
16197SOL    HW252090   6.080   0.477   8.567 -1.0984 -2.1766 -0.4497
16198SOL     OW52091   1.238   6.952   1.812  0.6889  0.1364  0.5184
16198SOL    HW152092   1.251   6.926   1.721 -0.8754  0.0654  0.2976
16198SOL    HW252093   1.321   6.993   1.837  1.4986 -0.7423 -0.6125
16199SOL     OW52094   4.181   9.420   1.580 -0.2906 -0.2209 -0.9252
16199SOL    HW152095   4.238   9.496   1.572  0.0009 -0.4887 -1.4642
16199SOL    HW252096   4.191   9.374   1.497 -2.9117  0.8600 -1.9702
16200SOL     OW52097   0.118   5.550   5.843  0.3037 -0.1074 -0.2716
16200SOL    HW152098   0.027   5.522   5.853 -0.7692  2.0063 -2.8508
16200SOL    HW252099   0.159   5.481   5.791 -0.1425 -0.5385 -0.0511
16201SOL     OW52100   3.470   5.848   5.977  0.0191  0.1708  0.1593
16201SOL    HW152101   3.441   5.865   5.887 -0.0781  3.0375  0.6638
16201SOL    HW252102   3.445   5.756   5.992 -4.0590  0.8121 -1.2715
16202SOL     OW52103   1.310   7.410   5.083  0.0840 -0.0809 -1.1239
16202SOL    HW152104   1.234   7.353   5.070 -0.4827 -0.4527  2.7775
16202SOL    HW252105   1.383   7.361   5.045 -0.8634 -2.0816 -0.5018
16203SOL     OW52106   2.933   1.565   6.455  0.5294  0.4767 -0.4049
16203SOL    HW152107   2.872   1.628   6.417 -1.8867 -0.9296  0.9357
16203SOL    HW252108   2.914   1.482   6.411  0.3447 -0.3213  1.1108
16204SOL     OW52109   6.592   0.644   8.409  0.5779 -0.2666 -0.1541
16204SOL    HW152110   6.622   0.679   8.493  0.6846  0.0526 -0.3221
16204SOL    HW252111   6.592   0.720   8.351 -1.2946 -0.0755  0.0338
16205SOL     OW52112   5.862   2.205   3.372 -0.1064  0.0870 -0.1523
16205SOL    HW152113   5.924   2.206   3.300 -1.2992  0.8998 -1.2080
16205SOL    HW252114   5.788   2.152   3.340 -1.2911  1.6573 -0.1273
16206SOL     OW52115   8.896   8.364   6.740  0.4016 -0.0724  0.3375
16206SOL    HW152116   8.982   8.401   6.759  0.3591  0.5394 -0.6221
16206SOL    HW252117   8.886   8.374   6.646 -1.5615  1.6736  0.6798
16207SOL     OW52118   4.144  10.747   0.910 -0.0327 -0.4644  0.2581
16207SOL    HW152119   4.227  10.760   0.865  0.4533 -0.8501  1.0279
16207SOL    HW252120   4.167  10.741   1.002 -0.9061 -0.6641  0.4736
16208SOL     OW52121   2.300   8.545   7.205 -0.0715  0.6052  0.2634
16208SOL    HW152122   2.360   8.616   7.228 -0.5011  1.3381 -0.7762
16208SOL    HW252123   2.316   8.531   7.111  0.1105 -0.7855  0.4843
16209SOL     OW52124  10.152   2.576   8.811  0.2685 -0.2806 -0.2342
16209SOL    HW152125  10.108   2.608   8.732  0.3141 -0.0470 -0.1653
16209SOL    HW252126  10.238   2.617   8.809 -0.3104  1.0500  0.7923
16210SOL     OW52127   6.903   7.586   8.849  0.5527 -0.2544  0.4806
16210SOL    HW152128   6.840   7.646   8.889 -0.1997 -0.2287 -0.6943
16210SOL    HW252129   6.849   7.528   8.794  1.6156  0.3080 -1.2301
16211SOL     OW52130   6.699   2.097   8.575  0.1670  0.2303 -0.4105
16211SOL    HW152131   6.710   2.112   8.481 -1.4207 -1.8180 -0.9970
16211SOL    HW252132   6.758   2.024   8.594 -0.5533 -0.2891 -0.1356
16212SOL     OW52133   6.211   4.597   2.417  0.2333  0.0359  0.3153
16212SOL    HW152134   6.118   4.605   2.398  0.0825 -0.5583  0.7762
16212SOL    HW252135   6.214   4.563   2.506  0.9042  1.0846  0.7092
16213SOL     OW52136   0.997   9.559   5.218 -0.1907  0.5137  0.5163
16213SOL    HW152137   1.090   9.554   5.238 -0.2707  1.4909  1.2343
16213SOL    HW252138   0.983   9.651   5.196 -0.8307  0.2074 -0.4082
16214SOL     OW52139   8.371  10.715   0.510  0.4619  0.1101 -0.3775
16214SOL    HW152140   8.382  10.799   0.554  0.1336  0.2063 -0.4769
16214SOL    HW252141   8.400  10.731   0.420  0.3787  0.1202 -0.4020
16215SOL     OW52142   7.581   3.437   0.424 -0.5871  0.6093  0.2019
16215SOL    HW152143   7.620   3.394   0.348 -1.8273  0.2598 -0.2700
16215SOL    HW252144   7.608   3.384   0.499  0.3723  0.7648 -0.0285
16216SOL     OW52145   6.260   5.654   1.361  0.0484 -0.4773  0.1078
16216SOL    HW152146   6.235   5.562   1.375  1.0327 -1.2007 -2.2927
16216SOL    HW252147   6.349   5.649   1.326  0.1707  1.4158  0.0738
16217SOL     OW52148   3.038   2.491   4.716 -0.4228 -0.2597 -0.2099
16217SOL    HW152149   3.071   2.432   4.784 -1.5689  0.0626  0.6594
16217SOL    HW252150   3.089   2.571   4.727 -1.2596  0.1491  0.9670
16218SOL     OW52151   8.015   8.753   9.603  0.2091 -0.1932 -0.3451
16218SOL    HW152152   8.038   8.708   9.684 -0.6941 -1.0474 -0.5398
16218SOL    HW252153   8.039   8.844   9.618  1.6415 -0.6351  0.2443
16219SOL     OW52154   7.686   3.830   7.551  0.2960 -0.2220  0.3735
16219SOL    HW152155   7.745   3.901   7.526  2.7501 -1.5023  2.1108
16219SOL    HW252156   7.704   3.761   7.487 -2.8111  0.8785 -1.9405
16220SOL     OW52157   4.389  10.540   6.973 -0.0528  0.4854 -0.5204
16220SOL    HW152158   4.451  10.613   6.972 -0.0457  0.5264  1.1049
16220SOL    HW252159   4.444  10.462   6.984 -0.0394  0.1488 -2.4639
16221SOL     OW52160   2.248   4.238   5.393 -0.0394 -0.0468  0.4323
16221SOL    HW152161   2.195   4.162   5.367  0.0516  0.2708 -0.7204
16221SOL    HW252162   2.320   4.200   5.444 -0.0833 -0.7291  0.0117
16222SOL     OW52163   9.239   9.424  10.379  0.1010 -0.1882  0.1176
16222SOL    HW152164   9.295   9.368  10.433  0.1919 -1.7136 -1.4507
16222SOL    HW252165   9.289   9.505  10.369  0.8207 -0.5168  0.9472
16223SOL     OW52166   1.208   1.793   5.617 -0.1196  0.4707  0.0719
16223SOL    HW152167   1.194   1.772   5.709  1.4729  1.4584  0.5785
16223SOL    HW252168   1.301   1.778   5.603 -0.5811 -1.0261 -1.7779
16224SOL     OW52169   3.394   3.816   0.201  0.1059  0.3970  0.4529
16224SOL    HW152170   3.325   3.882   0.189 -0.9211 -0.6919  0.2415
16224SOL    HW252171   3.378   3.752   0.132 -0.2071 -1.1669  1.9266
16225SOL     OW52172   2.384  10.557   5.512 -0.5525  0.1773  0.7828
16225SOL    HW152173   2.372  10.630   5.451  1.5464 -0.4295 -0.4323
16225SOL    HW252174   2.469  10.575   5.553 -0.3377 -1.2266  0.9775
16226SOL     OW52175   9.299   8.139   7.681 -0.1524  0.1844 -0.0987
16226SOL    HW152176   9.372   8.139   7.619  0.1026 -0.6547  0.1882
16226SOL    HW252177   9.339   8.159   7.765 -0.2536 -0.3180  0.0671
16227SOL     OW52178   8.646  10.823   6.072  0.1337 -0.8888  0.3123
16227SOL    HW152179   8.643  10.918   6.060  0.8012 -0.9003  0.0282
16227SOL    HW252180   8.572  10.790   6.022  0.9373 -0.6529 -1.0861
16228SOL     OW52181  10.773   0.484   2.319 -0.2756 -0.3763  0.3144
16228SOL    HW152182  10.804   0.569   2.287 -0.2028 -0.1925  0.8658
16228SOL    HW252183  10.782   0.489   2.414 -0.1532 -1.0509  0.3427
16229SOL     OW52184   1.372   8.172   0.192  0.4881  0.1186  0.3581
16229SOL    HW152185   1.359   8.089   0.146  0.1502  0.2160  0.2726
16229SOL    HW252186   1.461   8.198   0.170  0.9908 -0.7716  1.2830
16230SOL     OW52187   2.633   4.630   6.589  0.3835  0.0972 -0.2039
16230SOL    HW152188   2.632   4.703   6.651  1.1165  0.5672 -0.7243
16230SOL    HW252189   2.726   4.618   6.568  0.2054 -0.5306 -0.6559
16231SOL     OW52190   3.856   6.418   5.663  0.0117  0.2024  0.1189
16231SOL    HW152191   3.949   6.425   5.644  0.3184  0.5487  1.6268
16231SOL    HW252192   3.824   6.354   5.599  1.0808  0.7370 -1.0018
16232SOL     OW52193   3.742   7.598   6.896 -0.4895  0.0001 -0.4414
16232SOL    HW152194   3.793   7.678   6.908 -1.2815  0.6543 -1.2798
16232SOL    HW252195   3.652   7.624   6.920 -0.4764 -1.1084  0.9566
16233SOL     OW52196   1.059   2.834   4.930  0.2605  0.1433 -0.3322
16233SOL    HW152197   1.117   2.794   4.865  0.5072 -1.5544  0.8613
16233SOL    HW252198   1.116   2.894   4.979  0.4380  0.2466 -0.6590
16234SOL     OW52199   9.157   2.175   2.559  0.3162 -0.6889  0.2535
16234SOL    HW152200   9.193   2.087   2.551  0.8537 -0.4373 -0.2708
16234SOL    HW252201   9.227   2.226   2.601  0.5416 -0.2211 -0.6546
16235SOL     OW52202  10.943  10.200   9.871 -0.1542 -0.1591 -0.6787
16235SOL    HW152203  10.984  10.241   9.947 -1.0037 -1.2035  0.3871
16235SOL    HW252204  10.888  10.269   9.834 -1.6663 -0.2910  1.1717
16236SOL     OW52205   2.811  10.848   5.967 -0.9494 -0.1364  0.1672
16236SOL    HW152206   2.855  10.853   5.882 -1.7828  0.9974 -0.2179
16236SOL    HW252207   2.737  10.908   5.959 -0.3450  0.9208  2.1213
16237SOL     OW52208   2.357   6.825   2.903 -0.1124  0.3865  0.5036
16237SOL    HW152209   2.416   6.840   2.977  1.3395  0.7102 -0.6639
16237SOL    HW252210   2.400   6.868   2.829  0.5248 -3.1011 -1.4093
16238SOL     OW52211   2.595   3.217   4.105  0.5487 -0.6173  0.1056
16238SOL    HW152212   2.591   3.251   4.016 -0.6778  0.7346  0.6274
16238SOL    HW252213   2.607   3.295   4.160 -2.6845 -0.8552  1.3861
16239SOL     OW52214   3.417   0.216   2.706  0.4956  0.3647  0.3213
16239SOL    HW152215   3.381   0.146   2.652  1.2356 -1.3986  2.0343
16239SOL    HW252216   3.441   0.284   2.643 -0.9838 -0.5544 -1.3173
16240SOL     OW52217   7.278   7.996   3.883  0.2783  0.4637 -0.0738
16240SOL    HW152218   7.344   8.054   3.847  0.5911  0.3926  0.3776
16240SOL    HW252219   7.271   7.925   3.819  2.1237 -0.5952  0.8080
16241SOL     OW52220   4.844   3.984   4.685 -0.2617  0.5931 -0.4173
16241SOL    HW152221   4.788   3.927   4.737  0.4716 -1.8637 -2.1491
16241SOL    HW252222   4.922   3.997   4.740 -1.1274  1.3701  0.6725
16242SOL     OW52223   9.474   8.697   4.955 -0.6653  0.4067  0.0767
16242SOL    HW152224   9.428   8.677   4.874 -0.9453 -0.1743  0.3705
16242SOL    HW252225   9.566   8.689   4.933 -0.7044  1.3075 -0.4469
16243SOL     OW52226   7.928   7.289   7.780  0.5058  0.3371  0.1193
16243SOL    HW152227   7.842   7.329   7.795  1.2886  2.2056 -0.2483
16243SOL    HW252228   7.923   7.255   7.690  0.1040  0.2790  0.1601
16244SOL     OW52229   9.644   5.232   3.215  0.1802 -0.1290 -0.0313
16244SOL    HW152230   9.738   5.230   3.201 -0.1666 -0.3454 -2.8798
16244SOL    HW252231   9.625   5.324   3.237  0.9972 -0.0171  0.2502
16245SOL     OW52232   2.296   4.984   2.860  0.2690 -0.1053 -0.1173
16245SOL    HW152233   2.348   4.949   2.788 -1.2528 -1.0294 -0.8304
16245SOL    HW252234   2.209   4.996   2.822 -0.5906 -0.6567  1.5710
16246SOL     OW52235   6.038  10.706   3.297  0.2258 -0.4475 -0.2692
16246SOL    HW152236   6.037  10.703   3.201 -2.8032  0.7608 -0.3750
16246SOL    HW252237   5.953  10.671   3.323  0.5162  0.3278  1.9213
16247SOL     OW52238   1.311   6.545   2.431  0.1901  0.2315  0.5213
16247SOL    HW152239   1.297   6.608   2.360  0.7906 -0.6826 -0.4241
16247SOL    HW252240   1.266   6.466   2.403  2.5619 -0.9812 -0.0656
16248SOL     OW52241  10.301   5.959   8.738 -0.2237 -0.3716 -0.4005
16248SOL    HW152242  10.219   5.909   8.732  1.3330 -3.0415 -0.7444
16248SOL    HW252243  10.335   5.939   8.824  0.6316 -0.1917 -0.6881
16249SOL     OW52244   6.561   9.973   1.321 -0.0631  0.3437 -0.3255
16249SOL    HW152245   6.498  10.025   1.372 -0.2987  0.1249 -0.3924
16249SOL    HW252246   6.598  10.036   1.259 -2.6461 -0.1495 -2.5886
16250SOL     OW52247   8.576   6.369   0.757 -0.5233  0.0539 -0.1994
16250SOL    HW152248   8.575   6.328   0.670 -0.8436  0.4978 -0.4111
16250SOL    HW252249   8.612   6.302   0.815  0.3968  0.0144 -0.8057
16251SOL     OW52250   1.711   1.972   0.694  0.2306 -0.3157  0.2210
16251SOL    HW152251   1.661   1.994   0.615  1.7107 -0.3737 -0.7795
16251SOL    HW252252   1.679   2.032   0.761 -0.2500  0.5312 -0.7518
16252SOL     OW52253   6.534   3.618   0.011 -0.0659  0.2833 -0.1759
16252SOL    HW152254   6.520   3.527   0.038 -1.0574  0.2660 -0.6950
16252SOL    HW252255   6.615   3.615  -0.040  0.6224 -0.0677  0.8934
16253SOL     OW52256   2.935   0.540   8.873  0.0189 -0.6085 -0.0091
16253SOL    HW152257   2.902   0.455   8.904 -0.3296 -0.5681 -0.2668
16253SOL    HW252258   2.902   0.547   8.783  0.9175 -0.6728 -0.3607
16254SOL     OW52259   0.327   1.259   7.739 -0.0270  0.6105  0.4505
16254SOL    HW152260   0.264   1.323   7.771 -0.5508 -0.4009  1.5290
16254SOL    HW252261   0.394   1.311   7.694 -0.4862  1.8906  1.2059
16255SOL     OW52262   2.220   6.573   0.017  0.3005  0.4228  0.1768
16255SOL    HW152263   2.217   6.487  -0.025  0.1688  1.8794 -3.1277
16255SOL    HW252264   2.278   6.561   0.092  1.0840 -2.3208 -0.7345
16256SOL     OW52265   6.328   5.444   7.574  0.2251 -0.0124  0.1091
16256SOL    HW152266   6.306   5.360   7.533 -1.2739 -0.2016  1.2544
16256SOL    HW252267   6.246   5.475   7.611  1.3510  0.5269  2.2976
16257SOL     OW52268   7.837   7.437   4.746 -0.5202  0.5039 -0.2933
16257SOL    HW152269   7.783   7.415   4.670 -3.0791  1.4185  1.1048
16257SOL    HW252270   7.852   7.531   4.737  0.8663  0.2679 -0.6301
16258SOL     OW52271  10.203   3.449   4.776 -0.0334  0.1702  0.5037
16258SOL    HW152272  10.179   3.404   4.695  0.7243 -0.5572  0.6626
16258SOL    HW252273  10.135   3.425   4.838 -0.4927  0.5426  0.1481
16259SOL     OW52274   4.321   8.345  10.245  0.1015  0.2242 -0.2469
16259SOL    HW152275   4.259   8.275  10.226  1.0446 -0.6344 -0.2506
16259SOL    HW252276   4.338   8.386  10.160 -1.6660  1.5527 -0.0295
16260SOL     OW52277   8.078  10.913   7.351 -0.1978  0.4423  0.3393
16260SOL    HW152278   8.081  10.856   7.274 -1.4140  0.5800  0.1662
16260SOL    HW252279   7.984  10.922   7.371 -0.0176  1.9503  0.6751
16261SOL     OW52280   0.545   4.292   3.321  0.5617  0.0951  0.4873
16261SOL    HW152281   0.603   4.343   3.265  1.6489 -0.6815  0.8644
16261SOL    HW252282   0.520   4.353   3.391  1.4547  0.2613  0.6723
16262SOL     OW52283   2.113   8.047   6.430  0.0413  0.3245 -0.9630
16262SOL    HW152284   2.189   8.035   6.372  0.9792 -0.3254  0.3476
16262SOL    HW252285   2.148   8.094   6.506 -0.7499 -0.3722 -0.1392
16263SOL     OW52286   9.064  10.783   6.272  0.0283 -0.6874 -0.5760
16263SOL    HW152287   8.969  10.779   6.275 -0.1161  1.6088  1.0048
16263SOL    HW252288   9.082  10.866   6.226  1.3067 -1.5698 -1.7362
16264SOL     OW52289   1.242   8.662   3.268 -0.1098  0.1922  0.1737
16264SOL    HW152290   1.209   8.659   3.177 -0.8584  0.0854  0.4391
16264SOL    HW252291   1.194   8.592   3.312  0.8886 -0.3277  0.4570
16265SOL     OW52292   7.708   3.159   5.277  0.1903 -0.2782  0.2358
16265SOL    HW152293   7.695   3.116   5.361  1.5908 -0.5558  0.3267
16265SOL    HW252294   7.659   3.241   5.285 -0.1180 -0.5343  1.1203
16266SOL     OW52295   7.791   0.797   0.638 -0.3117  0.7376 -0.6990
16266SOL    HW152296   7.776   0.867   0.702 -0.8059  0.6539 -0.7176
16266SOL    HW252297   7.706   0.786   0.595 -0.2541  0.0764 -0.6458
16267SOL     OW52298   9.661   4.760   7.802 -0.1641 -0.4823 -0.1618
16267SOL    HW152299   9.753   4.741   7.818  0.4400 -0.3462 -2.8558
16267SOL    HW252300   9.640   4.712   7.721 -1.7616  1.3120 -0.9050
16268SOL     OW52301   8.745   4.083   7.299 -0.1428 -0.4601 -0.0227
16268SOL    HW152302   8.650   4.080   7.307 -0.1443  0.0965  0.1736
16268SOL    HW252303   8.760   4.123   7.213 -0.0788 -0.4076  0.0135
16269SOL     OW52304   8.075   4.401   7.438  0.2132  0.2460  0.2032
16269SOL    HW152305   8.093   4.329   7.379  2.0864  1.8344 -1.2998
16269SOL    HW252306   8.160   4.424   7.476 -0.3007  1.6917  0.5714
16270SOL     OW52307   9.372   2.352   5.513 -0.5341  0.0751 -0.3150
16270SOL    HW152308   9.417   2.343   5.429  1.0018 -1.5396  0.6143
16270SOL    HW252309   9.368   2.263   5.548 -2.1252  0.5633  0.8477
16271SOL     OW52310   6.774   9.579   1.227 -0.5378  0.4089  0.4606
16271SOL    HW152311   6.699   9.565   1.284  0.0959 -1.5542  0.8572
16271SOL    HW252312   6.772   9.505   1.166  0.8471  0.5606  0.2121
16272SOL     OW52313   5.649   7.303   0.353 -0.3788 -0.0905 -0.2377
16272SOL    HW152314   5.657   7.217   0.311  0.4143  0.6773 -1.7586
16272SOL    HW252315   5.592   7.353   0.294 -2.4452 -0.1098  1.6043
16273SOL     OW52316   0.157   7.335   3.427  0.0083  0.3538 -0.0650
16273SOL    HW152317   0.064   7.328   3.448  0.3968 -0.0214  1.7205
16273SOL    HW252318   0.160   7.386   3.346 -1.9108 -2.3783 -2.0398
16274SOL     OW52319   5.853  10.200   6.391 -0.0650  0.2815  0.6074
16274SOL    HW152320   5.866  10.141   6.316  0.6678  1.1086  0.0626
16274SOL    HW252321   5.814  10.145   6.458 -1.3327 -0.3474 -0.5850
16275SOL     OW52322   4.121   2.414   7.488  0.3090 -0.1160 -0.2469
16275SOL    HW152323   4.173   2.431   7.567 -1.3769 -0.8722  1.0890
16275SOL    HW252324   4.186   2.409   7.418  2.2024 -2.1162  1.4863
16276SOL     OW52325   0.524   1.161   0.891  0.3125  0.0231  0.0898
16276SOL    HW152326   0.480   1.118   0.964  1.0028  0.4671  0.7742
16276SOL    HW252327   0.481   1.247   0.885  1.1181  0.4948  0.8196
16277SOL     OW52328   3.205   5.161   8.675  0.2286  0.2089 -0.5089
16277SOL    HW152329   3.269   5.127   8.612  1.3690 -1.2827  1.3278
16277SOL    HW252330   3.150   5.086   8.695  0.7314  0.2646  1.2205
16278SOL     OW52331   5.923   9.917  10.046 -0.3914  0.2729  0.1392
16278SOL    HW152332   5.895   9.837  10.091 -0.9436  0.8488  0.8649
16278SOL    HW252333   5.920   9.984  10.114  0.0364  0.9145 -0.4669
16279SOL     OW52334   9.322   2.664   7.302  0.9087  0.2399  0.3549
16279SOL    HW152335   9.261   2.684   7.373  0.9299 -1.1177  0.7747
16279SOL    HW252336   9.296   2.577   7.272  0.8015  0.8462 -1.4124
16280SOL     OW52337   8.811  10.355   1.644  0.6003  0.0532  0.0303
16280SOL    HW152338   8.874  10.416   1.682  0.5298 -0.1388  0.4629
16280SOL    HW252339   8.748  10.411   1.598  0.2422  0.3455  0.8617
16281SOL     OW52340   7.901   5.861   2.446 -0.9542 -0.4177  0.0847
16281SOL    HW152341   7.806   5.866   2.453 -0.8968  0.4240  0.4248
16281SOL    HW252342   7.933   5.924   2.510 -0.2515  1.7930 -2.2455
16282SOL     OW52343   3.928   7.089   6.249 -0.9629  0.8625  0.4372
16282SOL    HW152344   3.933   6.994   6.258 -0.2488  0.6912 -1.2784
16282SOL    HW252345   3.944   7.105   6.156 -2.3948  2.5889  0.4351
16283SOL     OW52346  10.318   0.040   9.802  0.1195 -0.2527 -0.1802
16283SOL    HW152347  10.337   0.062   9.893  0.7681 -1.0312 -0.1169
16283SOL    HW252348  10.401   0.009   9.766  0.0060  0.5644 -1.2045
16284SOL     OW52349   0.063   5.079   2.226 -0.1734 -0.0555  0.7407
16284SOL    HW152350   0.030   5.151   2.174 -1.9995 -0.6026  1.0946
16284SOL    HW252351   0.002   5.007   2.210  0.2243 -0.7764  2.2733
16285SOL     OW52352   0.615   8.509   7.682  0.7190 -1.1434 -0.1111
16285SOL    HW152353   0.565   8.471   7.609  0.3072 -0.1004 -0.3883
16285SOL    HW252354   0.674   8.571   7.640  1.1766 -1.2494  0.3667
16286SOL     OW52355   2.750   7.842   5.554 -0.6033 -0.1059  0.0172
16286SOL    HW152356   2.701   7.879   5.480 -1.3373  1.5267  1.2458
16286SOL    HW252357   2.840   7.874   5.541 -1.1040  1.7635  0.7443
16287SOL     OW52358   3.729   6.183   8.942  0.2205  0.3259 -0.2481
16287SOL    HW152359   3.824   6.177   8.937  0.2343 -0.9587  1.0145
16287SOL    HW252360   3.706   6.249   8.877  1.9725  0.7279 -0.5097
16288SOL     OW52361   1.690  10.723   2.689 -0.1051  0.0769 -0.3271
16288SOL    HW152362   1.767  10.666   2.689 -0.4740 -0.4435  0.4107
16288SOL    HW252363   1.660  10.723   2.598  0.9282  0.5159 -0.6709
16289SOL     OW52364   4.697   2.893   9.179 -0.4856  0.5529 -0.1471
16289SOL    HW152365   4.631   2.960   9.199 -2.1874 -1.2240  0.5828
16289SOL    HW252366   4.656   2.839   9.111  1.2747  0.7925 -1.4847
16290SOL     OW52367   5.708   1.406   0.097  0.1428 -0.4024  0.0912
16290SOL    HW152368   5.789   1.433   0.142 -0.5021  1.0934  0.4218
16290SOL    HW252369   5.652   1.373   0.167  0.3987 -1.3128 -0.1200
16291SOL     OW52370   5.914   7.897   9.621 -0.1676  0.1146  0.0544
16291SOL    HW152371   5.876   7.846   9.692 -0.1151 -0.2046 -0.1482
16291SOL    HW252372   5.860   7.877   9.545  0.1460 -0.0156 -0.1380
16292SOL     OW52373   2.922   8.716   4.532 -0.2520  0.1781 -0.4820
16292SOL    HW152374   2.996   8.683   4.583  0.1127  1.6153 -0.0355
16292SOL    HW252375   2.945   8.698   4.441  0.7636  0.8258 -0.3579
16293SOL     OW52376  10.252   4.016  10.389 -0.0366 -0.2261  0.0287
16293SOL    HW152377  10.196   4.049  10.318 -0.3883  3.2652  1.7012
16293SOL    HW252378  10.334   3.994  10.346 -0.1080  2.1232 -1.5329
16294SOL     OW52379   9.877   9.140   4.098  0.2185  0.1912 -0.5190
16294SOL    HW152380   9.783   9.147   4.083  0.1175 -0.6044 -0.2922
16294SOL    HW252381   9.916   9.198   4.032 -0.3962  0.0297 -1.0327
16295SOL     OW52382   5.036   6.075   1.459  0.2042  0.2051  0.2210
16295SOL    HW152383   5.044   6.067   1.554 -0.8037 -1.5562  0.1971
16295SOL    HW252384   5.113   6.029   1.425 -0.5627 -1.1094  0.1933
16296SOL     OW52385   5.694   1.925   5.501 -0.1477  0.6339  0.0385
16296SOL    HW152386   5.780   1.918   5.542 -0.2454  1.8196  0.4864
16296SOL    HW252387   5.671   2.018   5.509 -0.6885  0.6881 -1.6565
16297SOL     OW52388   8.350   5.975   0.765  0.2844  0.3977 -0.2352
16297SOL    HW152389   8.264   5.943   0.791  0.8785  0.2608  1.6934
16297SOL    HW252390   8.338   6.069   0.753 -0.2243  0.3070 -0.4828
16298SOL     OW52391   3.161   4.021   6.687 -0.0147 -0.3155 -0.4963
16298SOL    HW152392   3.101   4.045   6.758 -2.5973 -2.2272 -1.9050
16298SOL    HW252393   3.131   4.073   6.612  1.4046  0.1579 -0.7732
16299SOL     OW52394   3.637   9.818   4.653  0.0226  0.5267  0.5123
16299SOL    HW152395   3.633   9.832   4.558 -0.6011  1.0118  0.6064
16299SOL    HW252396   3.570   9.876   4.689 -1.2603 -1.2118  1.0712
16300SOL     OW52397   6.003   8.452   3.824 -0.3614 -0.5857  0.1892
16300SOL    HW152398   6.060   8.487   3.893 -0.0206 -1.0571  0.1492
16300SOL    HW252399   6.002   8.521   3.757  0.5384 -0.7636 -0.0198
16301SOL     OW52400   1.375   1.541   0.298 -0.0976  0.2878  0.2050
16301SOL    HW152401   1.288   1.556   0.335  0.0809 -0.2581  0.8579
16301SOL    HW252402   1.390   1.617   0.241 -0.3802  1.1305  1.2305
16302SOL     OW52403   4.118   3.600   1.470 -0.3964 -0.0711 -0.0439
16302SOL    HW152404   4.137   3.513   1.507  0.5140 -0.1096 -0.5590
16302SOL    HW252405   4.037   3.588   1.421  0.6286 -1.1084 -1.5727
16303SOL     OW52406   4.638   5.573   8.135 -0.5822 -0.2027  0.2358
16303SOL    HW152407   4.632   5.478   8.141 -0.5213 -0.2946 -0.9970
16303SOL    HW252408   4.560   5.599   8.086 -0.6729  0.4107  0.6811
16304SOL     OW52409   5.225   6.602   0.883  0.0745 -0.3806  0.0620
16304SOL    HW152410   5.204   6.620   0.791  1.0530  1.0426  0.0763
16304SOL    HW252411   5.317   6.627   0.891 -0.3397  0.7191  1.7173
16305SOL     OW52412   9.361   2.087   5.534  0.1143  0.4072  0.0963
16305SOL    HW152413   9.392   2.001   5.563 -0.5942  0.7914  2.1161
16305SOL    HW252414   9.314   2.069   5.452  1.6924 -0.8046 -0.6114
16306SOL     OW52415  10.817   1.175   8.170 -0.2440  0.4782 -0.1010
16306SOL    HW152416  10.761   1.145   8.241  0.6597  1.9569  1.3019
16306SOL    HW252417  10.808   1.270   8.171  0.8371  0.6146 -1.0937
16307SOL     OW52418   1.470   9.671  10.861  0.6696 -0.0548 -0.0966
16307SOL    HW152419   1.418   9.736  10.814  0.5898  0.0737  0.1711
16307SOL    HW252420   1.519   9.626  10.792  2.2913  1.6471 -0.1386
16308SOL     OW52421   1.542   9.840   7.238  0.4802 -0.0250  0.0874
16308SOL    HW152422   1.600   9.819   7.312  0.2924 -1.5960 -0.1819
16308SOL    HW252423   1.505   9.926   7.261  1.5632  0.2024  1.0966
16309SOL     OW52424   2.190   8.196   8.030 -0.9271  0.6944 -0.2686
16309SOL    HW152425   2.253   8.235   7.969 -0.0515  1.2195  0.9233
16309SOL    HW252426   2.193   8.103   8.012 -1.5230  0.9356 -1.7741
16310SOL     OW52427   5.118   1.475   7.516  0.2781  0.1879 -0.2478
16310SOL    HW152428   5.139   1.471   7.609 -2.3012 -1.0799  0.3570
16310SOL    HW252429   5.056   1.548   7.508  0.6533  0.4351 -1.0381
16311SOL     OW52430   6.433  10.266   5.210  0.0491 -0.0133  0.4545
16311SOL    HW152431   6.394  10.192   5.164  1.1584 -1.5705  1.9109
16311SOL    HW252432   6.499  10.299   5.150  0.3405 -0.9551  0.2365
16312SOL     OW52433   6.849   5.308   3.552 -0.4343  0.1245  0.4800
16312SOL    HW152434   6.795   5.243   3.597 -0.7760  0.0182 -0.0798
16312SOL    HW252435   6.936   5.295   3.588 -0.4949 -0.6579  0.3644
16313SOL     OW52436   0.252   5.030  10.495 -0.0594  0.1981  0.0314
16313SOL    HW152437   0.203   4.998  10.419 -0.3089  0.4292  0.0941
16313SOL    HW252438   0.192   5.091  10.539  0.4226  0.7960 -0.1193
16314SOL     OW52439   3.908   2.570  10.702 -0.3584 -0.6228 -0.2614
16314SOL    HW152440   3.816   2.558  10.725 -0.7105 -0.5837 -1.5805
16314SOL    HW252441   3.948   2.485  10.719 -1.0380 -1.2023 -1.3926
16315SOL     OW52442  10.301   2.303   6.502 -0.3707 -0.3992 -0.6213
16315SOL    HW152443  10.374   2.361   6.479  0.9120 -1.4135  0.6284
16315SOL    HW252444  10.236   2.360   6.541  0.2208  0.4032 -0.7880
16316SOL     OW52445   5.906   9.702   6.015  0.7426  0.3563 -1.0887
16316SOL    HW152446   5.844   9.685   5.944 -0.3013 -0.9053  0.0749
16316SOL    HW252447   5.921   9.617   6.055  0.0436  1.2264  1.1967
16317SOL     OW52448   0.872   0.073   1.104  0.4861 -0.6678  0.3303
16317SOL    HW152449   0.815  -0.002   1.087 -0.4577  0.4939 -2.1327
16317SOL    HW252450   0.815   0.140   1.140  0.7307 -0.1956 -0.1487
16318SOL     OW52451   5.522   6.221   5.110  0.3018  0.1438  0.3100
16318SOL    HW152452   5.513   6.134   5.072 -0.6368  0.5174 -0.3590
16318SOL    HW252453   5.574   6.270   5.046  1.6401 -0.1676  1.1191
16319SOL     OW52454   3.148   3.107   2.267  0.2367 -0.6973  0.1421
16319SOL    HW152455   3.105   3.189   2.290 -1.8813 -0.9470 -2.3885
16319SOL    HW252456   3.232   3.132   2.230 -0.1214  0.3066 -0.0186
16320SOL     OW52457   6.517   8.240   0.400  0.1661  0.1794 -0.3483
16320SOL    HW152458   6.455   8.271   0.335  0.3940  0.1806 -0.5665
16320SOL    HW252459   6.543   8.153   0.368  0.2102  0.1422 -0.2109
16321SOL     OW52460   3.430   8.555   7.253 -0.1574 -0.1773 -0.0990
16321SOL    HW152461   3.416   8.597   7.168 -1.7289  0.4425  0.4112
16321SOL    HW252462   3.370   8.480   7.254 -0.8651  0.3629  0.7780
16322SOL     OW52463   7.396   5.695   1.645 -0.3985 -0.4851 -0.4828
16322SOL    HW152464   7.335   5.764   1.673  1.0029  1.0968 -1.0957
16322SOL    HW252465   7.341   5.618   1.632 -2.3109  0.9076 -1.2141
16323SOL     OW52466   6.780   4.587   6.322  0.7148  0.7186  0.6172
16323SOL    HW152467   6.856   4.587   6.263  2.2504 -1.4368  2.3978
16323SOL    HW252468   6.794   4.662   6.380  2.5893 -0.6455  2.0739
16324SOL     OW52469   7.608   9.501   2.130  0.7823 -0.4056 -0.2336
16324SOL    HW152470   7.615   9.484   2.224  0.2464  2.6402  0.4692
16324SOL    HW252471   7.686   9.460   2.092  1.8655 -0.3378  1.7874
16325SOL     OW52472   3.903   0.675   1.243 -0.5731 -0.6382  0.1605
16325SOL    HW152473   3.993   0.695   1.268 -0.8043 -1.4614  1.8488
16325SOL    HW252474   3.899   0.694   1.150  1.1726  0.0058  0.1736
16326SOL     OW52475   0.260   3.671   7.654  0.9430 -0.2514  0.2056
16326SOL    HW152476   0.257   3.684   7.559 -0.0007  1.3514  0.4292
16326SOL    HW252477   0.349   3.697   7.678  0.4937  1.6300  0.0196
16327SOL     OW52478   0.526   3.863   8.655 -0.0593  0.7042  0.0913
16327SOL    HW152479   0.461   3.829   8.716 -0.7407  2.4575  0.4003
16327SOL    HW252480   0.608   3.864   8.705  0.0642 -0.7576 -0.0428
16328SOL     OW52481   1.566   4.864   8.400 -0.3874  0.2552  0.0117
16328SOL    HW152482   1.539   4.773   8.391  0.0150  0.1712 -0.3842
16328SOL    HW252483   1.651   4.860   8.445 -0.3597  0.4341 -0.0219
16329SOL     OW52484   3.507   0.093   5.896 -0.1818  0.2071  0.1485
16329SOL    HW152485   3.523   0.077   5.989 -0.5457  0.5014  0.2655
16329SOL    HW252486   3.414   0.116   5.892  0.0341  1.0495 -0.1702
16330SOL     OW52487  10.120   5.671   2.806  0.2712 -0.3386  0.1956
16330SOL    HW152488  10.160   5.652   2.891  1.7620  1.6614  0.0044
16330SOL    HW252489  10.028   5.689   2.826  0.7080  0.5882  1.4749
16331SOL     OW52490   2.127   8.254   1.895 -0.0378 -0.5195 -0.0495
16331SOL    HW152491   2.120   8.213   1.809 -1.9942  0.2448 -0.3031
16331SOL    HW252492   2.174   8.190   1.948 -1.5991 -2.4361 -0.8475
16332SOL     OW52493   9.575   0.119   7.413 -0.3721  0.2413  0.1512
16332SOL    HW152494   9.661   0.105   7.373  0.8954 -0.8954  3.0120
16332SOL    HW252495   9.514   0.078   7.351  1.4107 -1.1393 -0.8129
16333SOL     OW52496   6.948   4.567   0.049  0.4643  0.1664 -0.3760
16333SOL    HW152497   6.877   4.607  -0.001  1.0309  0.6219 -0.8390
16333SOL    HW252498   6.959   4.625   0.124  1.1313  0.7898 -0.9281
16334SOL     OW52499   7.073   7.640   7.382 -0.1119 -0.0782 -0.3370
16334SOL    HW152500   7.083   7.670   7.291 -0.6023 -1.6093 -0.9290
16334SOL    HW252501   7.137   7.692   7.431 -0.0676  1.0144 -1.4962
16335SOL     OW52502   9.098   8.908   6.113  0.1885 -0.2843  0.1275
16335SOL    HW152503   9.129   8.989   6.074  1.5923 -1.1177 -0.5495
16335SOL    HW252504   9.054   8.862   6.041  1.1873 -1.0077 -0.0482
16336SOL     OW52505   1.611   6.204   2.391  0.0089  0.3637 -0.0856
16336SOL    HW152506   1.524   6.237   2.374  0.2660  0.7656 -0.6298
16336SOL    HW252507   1.618   6.201   2.487 -0.4478  0.7137 -0.0439
16337SOL     OW52508   2.738  10.967   3.400 -0.6401 -0.3907 -0.1408
16337SOL    HW152509   2.676  10.895   3.410 -0.9928 -0.0964 -0.1892
16337SOL    HW252510   2.812  10.929   3.353 -1.2941 -0.4522 -1.1553
16338SOL     OW52511   8.586   6.775   0.555 -0.5924  0.2267 -0.1547
16338SOL    HW152512   8.569   6.734   0.470  0.1713  1.1013 -0.7472
16338SOL    HW252513   8.571   6.868   0.540 -2.4474  0.2091  1.2055
16339SOL     OW52514  10.934   7.927   2.560 -0.1323 -0.1724  0.0689
16339SOL    HW152515  10.901   7.840   2.582  3.3264 -1.4578  0.8144
16339SOL    HW252516  10.939   7.974   2.643  0.9241 -0.4137  0.1534
16340SOL     OW52517   7.717   4.667  10.275  0.1144 -0.1607 -0.2193
16340SOL    HW152518   7.738   4.612  10.351  1.8725  0.8486  0.0932
16340SOL    HW252519   7.799   4.672  10.226 -0.5766  0.4900 -1.3526
16341SOL     OW52520   1.035   2.805   7.042 -0.5147 -0.5433  0.1932
16341SOL    HW152521   1.031   2.716   7.007 -0.9105  0.1059 -1.4897
16341SOL    HW252522   0.962   2.850   7.000 -0.2263  0.6265  0.9081
16342SOL     OW52523   9.558   7.329   2.091 -0.4614  0.2584 -0.1332
16342SOL    HW152524   9.509   7.407   2.118 -1.6598 -0.6461  0.4087
16342SOL    HW252525   9.568   7.278   2.171  1.4227  0.3973 -0.2199
16343SOL     OW52526   1.410   6.376   3.832  0.5887  0.5405 -0.4124
16343SOL    HW152527   1.495   6.392   3.790  1.1998  1.4919  1.1161
16343SOL    HW252528   1.415   6.286   3.863  1.1036  0.6397 -0.2046
16344SOL     OW52529   1.669   9.676   4.365  0.2275 -0.1384  0.4785
16344SOL    HW152530   1.739   9.724   4.410 -1.0076  0.9165  1.3299
16344SOL    HW252531   1.634   9.738   4.301 -0.1339 -0.5504  0.2717
16345SOL     OW52532   9.520   9.757  10.285  0.0816  0.1380  0.1403
16345SOL    HW152533   9.447   9.749  10.223  0.9066 -2.3330 -0.6140
16345SOL    HW252534   9.486   9.723  10.368 -0.0542  0.3700  0.1800
16346SOL     OW52535   9.543   3.555   6.882 -0.2655  0.7131  0.1941
16346SOL    HW152536   9.572   3.487   6.942  1.6580  0.8405 -0.5328
16346SOL    HW252537   9.464   3.591   6.922 -0.9497 -1.4737  0.9326
16347SOL     OW52538   0.811  10.735   6.359 -0.0273 -0.5167 -0.0196
16347SOL    HW152539   0.820  10.699   6.448  1.5588 -0.9872 -0.3548
16347SOL    HW252540   0.827  10.661   6.301 -1.2658 -0.2612 -0.7337
16348SOL     OW52541   2.416   4.046   0.651  0.0124  0.4320 -0.0967
16348SOL    HW152542   2.352   3.982   0.620 -0.8511  1.5616 -0.7536
16348SOL    HW252543   2.479   4.053   0.580  0.4193 -0.0856  0.2087
16349SOL     OW52544   9.938   7.954   7.853  0.3718 -0.4868  0.0242
16349SOL    HW152545   9.844   7.960   7.832  0.2037 -2.3716  0.1017
16349SOL    HW252546   9.974   7.898   7.784  1.7660  1.3766 -0.8393
16350SOL     OW52547  10.902   3.067   4.832 -0.3236 -0.0291  0.3083
16350SOL    HW152548  10.889   3.029   4.919 -0.0257  0.2299  0.4705
16350SOL    HW252549  10.936   3.155   4.849  1.4162 -0.5742 -0.0534
16351SOL     OW52550   3.435   9.828   2.687  0.0658  0.0247  0.4495
16351SOL    HW152551   3.444   9.855   2.779  0.6552  1.8920 -0.1114
16351SOL    HW252552   3.488   9.891   2.638 -0.9197 -0.4085 -1.2585
16352SOL     OW52553   2.685   3.699   4.504 -0.0439 -0.1806  0.0248
16352SOL    HW152554   2.652   3.769   4.448  1.2693 -0.2729 -0.9133
16352SOL    HW252555   2.716   3.632   4.444  1.5497 -0.2181  0.8182
16353SOL     OW52556  10.579   5.083   0.113 -0.0261  0.0082 -0.2405
16353SOL    HW152557  10.647   5.129   0.162  0.9867 -0.9036 -0.7540
16353SOL    HW252558  10.583   5.121   0.026  0.5780 -0.7694 -0.5696
16354SOL     OW52559   7.183   7.602   1.870 -0.0227  0.3091 -0.6480
16354SOL    HW152560   7.130   7.545   1.815  1.0356 -0.0677 -1.3026
16354SOL    HW252561   7.119   7.653   1.919 -0.9948 -0.6740 -0.8370
16355SOL     OW52562   7.426   0.865   9.563  0.0960 -0.5088 -0.1206
16355SOL    HW152563   7.510   0.839   9.525  0.0276 -0.0606 -0.5832
16355SOL    HW252564   7.431   0.960   9.570 -0.2204 -0.5142  0.2200
16356SOL     OW52565   8.531  10.847   7.895 -0.5472 -0.4946 -0.4597
16356SOL    HW152566   8.542  10.824   7.803 -0.2114  0.4096 -0.6524
16356SOL    HW252567   8.455  10.905   7.897  1.4091  2.2939 -0.6963
16357SOL     OW52568  10.185   7.164   3.417  0.3283 -0.1394 -0.0949
16357SOL    HW152569  10.260   7.106   3.434 -0.1122 -0.5268  0.5713
16357SOL    HW252570  10.185   7.226   3.490  0.1174 -0.0114 -0.2003
16358SOL     OW52571   0.693   1.502   2.342  0.2977 -0.6909  0.1686
16358SOL    HW152572   0.671   1.586   2.304  0.9402 -1.1640 -1.3057
16358SOL    HW252573   0.788   1.495   2.332  0.4438 -0.9903  1.5575
16359SOL     OW52574   2.562   5.908   7.335 -0.6533  0.1393  0.2704
16359SOL    HW152575   2.508   5.843   7.291 -1.7305  1.4035 -0.3522
16359SOL    HW252576   2.508   5.987   7.338  0.4888  0.9337  1.2710
16360SOL     OW52577   0.787   4.431   4.924 -0.1052  0.3751  1.1332
16360SOL    HW152578   0.803   4.516   4.966 -0.0672  1.3577 -0.7560
16360SOL    HW252579   0.705   4.443   4.877  0.3664 -0.3257  0.0958
16361SOL     OW52580   7.204   1.485  10.773  0.1199 -0.6454 -0.1298
16361SOL    HW152581   7.117   1.476  10.735  0.3392  1.6248 -1.3595
16361SOL    HW252582   7.204   1.425  10.847 -3.3555  0.9687  1.4269
16362SOL     OW52583   7.755  10.153   7.246 -0.1563  0.4383  0.4532
16362SOL    HW152584   7.699  10.088   7.204 -1.0029  1.5402 -0.1781
16362SOL    HW252585   7.812  10.102   7.304  0.8674 -1.1528 -1.7801
16363SOL     OW52586   0.402   8.397  10.285  0.6171  0.1470 -1.1337
16363SOL    HW152587   0.451   8.352  10.353  1.0406 -0.2907 -1.7148
16363SOL    HW252588   0.445   8.482  10.276 -0.0769  0.6193 -0.1556
16364SOL     OW52589   1.314   6.668   3.175 -0.5239  0.2649  0.8534
16364SOL    HW152590   1.232   6.653   3.128  0.2243  0.9379 -0.7523
16364SOL    HW252591   1.287   6.699   3.262 -1.9635  0.3390  0.4004
16365SOL     OW52592   4.767   3.735   5.276 -0.1195 -0.2367 -0.0636
16365SOL    HW152593   4.713   3.656   5.279  0.1427 -0.5125 -1.5166
16365SOL    HW252594   4.815   3.728   5.193  2.1386  0.0011  1.1327
16366SOL     OW52595   3.341   5.831   9.372 -0.0503 -0.0435  0.2382
16366SOL    HW152596   3.246   5.836   9.365 -0.2019 -1.2092  1.2334
16366SOL    HW252597   3.369   5.923   9.378 -1.0405  0.3453 -0.6719
16367SOL     OW52598   4.735   1.250   5.431  0.0667  0.1671  0.2435
16367SOL    HW152599   4.679   1.247   5.353  1.4199 -2.0733 -0.7399
16367SOL    HW252600   4.824   1.245   5.397  0.7320  0.2026  1.9128
16368SOL     OW52601   6.155   9.979   2.069  0.2652  0.1283 -0.2583
16368SOL    HW152602   6.153   9.967   2.164  1.3318  0.8638 -0.1233
16368SOL    HW252603   6.085  10.041   2.050  0.3289  0.3075  0.0982
16369SOL     OW52604  10.322   9.428   1.671  0.7911 -0.6709  0.2856
16369SOL    HW152605  10.392   9.390   1.618 -0.6565 -1.0605 -1.4417
16369SOL    HW252606  10.242   9.405   1.625 -0.4640  0.2428  1.9027
16370SOL     OW52607   7.117   4.688   3.534 -0.0302  0.3574 -0.5479
16370SOL    HW152608   7.157   4.772   3.558  1.6740 -0.7542  0.7129
16370SOL    HW252609   7.179   4.622   3.564 -2.1799 -1.4564  0.1725
16371SOL     OW52610   8.675   2.520   0.838 -0.2653  0.0395 -0.2790
16371SOL    HW152611   8.643   2.445   0.888 -0.4064 -0.5450 -1.2162
16371SOL    HW252612   8.746   2.484   0.785  1.8947  1.2548  1.6030
16372SOL     OW52613  10.196   9.314   5.631 -0.1410 -0.3248 -0.2671
16372SOL    HW152614  10.266   9.264   5.674  0.9097  0.9380 -0.4695
16372SOL    HW252615  10.174   9.383   5.693 -0.3692  0.0043 -0.7136
16373SOL     OW52616   2.721   5.155   3.984 -0.4568  0.7094  0.3100
16373SOL    HW152617   2.796   5.100   3.963  0.5085  0.7206  3.1930
16373SOL    HW252618   2.656   5.135   3.916  2.0232  0.5883 -2.1756
16374SOL     OW52619   2.398   8.012   1.316  0.2769  0.0707 -0.0918
16374SOL    HW152620   2.423   8.064   1.393 -0.6659  0.8603 -0.2948
16374SOL    HW252621   2.399   8.075   1.244  2.5328 -0.9348 -1.0469
16375SOL     OW52622   7.646   4.213   5.171 -0.2271 -0.0488 -0.2200
16375SOL    HW152623   7.722   4.269   5.153 -0.0131  0.1271  1.1550
16375SOL    HW252624   7.669   4.129   5.132  0.8896 -0.1358  0.5861
16376SOL     OW52625   5.923   8.565   6.322  0.4439 -0.1886  0.2006
16376SOL    HW152626   5.864   8.500   6.360 -0.9442  1.0149  0.1813
16376SOL    HW252627   5.954   8.526   6.240 -0.1926 -0.9018  0.2980
16377SOL     OW52628   7.963   9.243   1.350  0.5740 -0.4593  0.1382
16377SOL    HW152629   7.888   9.226   1.293  0.0141 -0.3865  0.8259
16377SOL    HW252630   7.999   9.325   1.318  0.8597 -0.9113 -0.7106
16378SOL     OW52631   9.833   4.231   0.150  0.1121 -0.7150 -0.0391
16378SOL    HW152632   9.838   4.311   0.203  0.0513 -2.0268  2.0659
16378SOL    HW252633   9.892   4.170   0.193 -2.4392 -2.9473  0.5738
16379SOL     OW52634   5.253   2.473   9.365  0.4571  0.1887  0.1913
16379SOL    HW152635   5.226   2.445   9.277 -0.5543 -0.6810  0.7471
16379SOL    HW252636   5.171   2.497   9.409  0.7515 -0.8448  1.3751
16380SOL     OW52637   9.432   4.131   7.213  0.5282  0.1089 -0.2504
16380SOL    HW152638   9.346   4.147   7.173  0.0630 -0.0768  0.6632
16380SOL    HW252639   9.469   4.218   7.227  0.4842  0.1898 -0.6141
16381SOL     OW52640   9.819   5.280   1.911 -0.1387 -0.5169 -0.0837
16381SOL    HW152641   9.807   5.242   1.824 -2.5871  0.1890 -0.1230
16381SOL    HW252642   9.788   5.212   1.971 -0.1520 -0.3233  0.1289
16382SOL     OW52643   7.719   6.830   1.628  0.4365  0.6736 -0.3766
16382SOL    HW152644   7.770   6.796   1.555  0.2583 -0.8924  0.1740
16382SOL    HW252645   7.782   6.842   1.698  0.1713 -0.8860  0.1793
16383SOL     OW52646   7.048   1.671   9.796 -0.2758 -0.4213 -0.4813
16383SOL    HW152647   7.107   1.745   9.806 -0.7229 -0.2979  1.8683
16383SOL    HW252648   6.963   1.710   9.776 -0.3665 -0.3213  0.0751
16384SOL     OW52649   6.901   0.942   4.080  0.1594 -0.2223 -0.2021
16384SOL    HW152650   6.925   0.961   3.989 -0.2416  2.8193  0.2348
16384SOL    HW252651   6.858   1.021   4.111  0.0971 -1.2404  2.6072
16385SOL     OW52652   9.829   8.973   6.985 -0.5819 -0.9099  0.3230
16385SOL    HW152653   9.856   8.957   6.894 -0.0938  0.8848  0.1014
16385SOL    HW252654   9.747   9.022   6.977 -0.3364 -0.4092  0.8297
16386SOL     OW52655   4.421   1.745   1.071 -0.3159  0.1027 -0.3942
16386SOL    HW152656   4.352   1.707   1.016  1.8898  0.0023 -3.3452
16386SOL    HW252657   4.427   1.836   1.041  0.3634  0.2947  0.3104
16387SOL     OW52658   7.151   9.008  10.938 -0.2949 -0.7074  0.0941
16387SOL    HW152659   7.231   8.960  10.958 -0.6926 -0.5866  2.2012
16387SOL    HW252660   7.081   8.945  10.952 -0.6738 -0.2177  0.4605
16388SOL     OW52661   1.495   8.060   4.252  0.4138  0.1676 -0.2021
16388SOL    HW152662   1.526   8.021   4.334  0.7993  0.0101 -0.4191
16388SOL    HW252663   1.537   8.008   4.183 -0.6003 -0.2697 -0.5154
16389SOL     OW52664   0.745   0.367   3.100 -0.2189  0.0021 -0.4827
16389SOL    HW152665   0.710   0.335   3.017 -1.8212  3.1349 -1.1672
16389SOL    HW252666   0.755   0.289   3.154 -0.3195 -1.9918 -3.1655
16390SOL     OW52667   7.028   4.885   9.424 -0.4523 -0.2564  0.4199
16390SOL    HW152668   6.950   4.846   9.384  0.1168 -3.0390  1.7523
16390SOL    HW252669   6.999   4.915   9.510 -0.2709 -0.4255  0.5412
16391SOL     OW52670   6.130   4.485   3.001 -0.0581  0.1270 -0.2824
16391SOL    HW152671   6.177   4.424   2.943  1.1646  0.4853  0.2931
16391SOL    HW252672   6.043   4.448   3.009  0.3061 -0.9107 -0.8965
16392SOL     OW52673   4.381   2.725   7.317  0.1603 -0.1271 -0.3617
16392SOL    HW152674   4.422   2.777   7.386 -0.1073  0.5807 -0.7214
16392SOL    HW252675   4.435   2.742   7.239 -1.4531  1.8277 -1.1671
16393SOL     OW52676   7.993   2.060  10.059  0.1583  0.2873  0.7289
16393SOL    HW152677   7.963   2.013   9.982  0.3954 -0.4739  1.0904
16393SOL    HW252678   8.074   2.103  10.032 -1.2657  2.5068 -0.3105
16394SOL     OW52679   5.236  10.422   2.797 -0.2326  0.2613 -0.2155
16394SOL    HW152680   5.148  10.457   2.812 -0.5614 -0.0288 -1.3752
16394SOL    HW252681   5.227  10.365   2.721  0.7597 -0.5728  0.2618
16395SOL     OW52682   2.644   9.879   2.231  0.0102  0.0259 -0.2727
16395SOL    HW152683   2.684   9.808   2.281  1.4137 -0.0537 -1.4390
16395SOL    HW252684   2.702   9.954   2.247 -0.5502  0.4778 -0.3363
16396SOL     OW52685  10.025   8.355   8.171  0.1379  0.5631  0.5113
16396SOL    HW152686  10.115   8.377   8.191  0.8143 -1.5158  0.0059
16396SOL    HW252687  10.029   8.309   8.087 -1.4696  0.8951  0.2135
16397SOL     OW52688   2.427   9.994  10.800 -0.0964 -0.1631  0.0627
16397SOL    HW152689   2.445  10.023  10.890 -1.1952 -1.4341  0.7297
16397SOL    HW252690   2.489   9.923  10.785 -0.0974 -0.1323 -0.0907
16398SOL     OW52691   2.563   9.781   3.644  0.6141  0.1223  0.4960
16398SOL    HW152692   2.584   9.872   3.668  1.4204 -0.5719  2.6699
16398SOL    HW252693   2.613   9.728   3.707  0.6538 -1.8562 -1.1173
16399SOL     OW52694   6.781   2.406   1.914 -0.8875 -0.0934 -0.3436
16399SOL    HW152695   6.697   2.368   1.941 -1.0832  1.8837  2.1580
16399SOL    HW252696   6.771   2.500   1.929  2.1363  0.1034  1.2020
16400SOL     OW52697   6.956   7.041   4.109  0.0753  0.1468  0.6795
16400SOL    HW152698   7.043   7.050   4.148  0.2767  1.2355  0.0365
16400SOL    HW252699   6.966   6.971   4.044  0.5942  0.5661  0.3008
16401SOL     OW52700   7.081   5.503   4.364 -0.0113  0.1196  0.2145
16401SOL    HW152701   7.114   5.459   4.443  0.5975  1.1370  0.5428
16401SOL    HW252702   6.986   5.505   4.376  0.1719  2.4994  2.1937
16402SOL     OW52703   3.087   8.105   7.597 -0.7890  0.0701  0.0896
16402SOL    HW152704   3.012   8.045   7.590 -1.8623  1.3034  0.6224
16402SOL    HW252705   3.096   8.121   7.691 -0.3125  0.5023 -0.0263
16403SOL     OW52706   5.954   3.176   8.239 -0.5693 -0.0292 -0.4236
16403SOL    HW152707   5.973   3.092   8.282  0.2017  0.0234 -0.6454
16403SOL    HW252708   5.914   3.152   8.156  0.2189 -0.2021 -0.7609
16404SOL     OW52709   5.685   4.349   1.434  0.1470 -0.1943  0.1043
16404SOL    HW152710   5.746   4.422   1.447  0.3169 -0.3515  0.2062
16404SOL    HW252711   5.615   4.385   1.379 -0.2083  0.2896  0.8514
16405SOL     OW52712   0.119   5.782   9.869  0.6911  0.0475 -0.1288
16405SOL    HW152713   0.136   5.869   9.906  1.1238  0.0875 -0.4037
16405SOL    HW252714   0.203   5.757   9.830  0.4669 -0.3416 -0.3612
16406SOL     OW52715   1.048   5.148   9.141 -0.1288  0.2517  0.1209
16406SOL    HW152716   1.122   5.174   9.196 -0.2164  0.4566  0.1470
16406SOL    HW252717   1.086   5.132   9.055 -0.3658  2.7916 -0.5398
16407SOL     OW52718   0.388  10.168   6.766 -0.2230 -0.7741 -0.3121
16407SOL    HW152719   0.414  10.255   6.733 -0.5295 -0.0380  1.2679
16407SOL    HW252720   0.308  10.147   6.718  1.0000 -1.2149 -2.2855
16408SOL     OW52721  10.695   5.705   6.185  0.0568  0.1676  0.1892
16408SOL    HW152722  10.678   5.794   6.154 -2.0395  0.0628  0.8681
16408SOL    HW252723  10.631   5.651   6.138  2.3800 -1.3143 -1.4839
16409SOL     OW52724   1.662   9.118   5.318  0.0933  0.4389 -0.1407
16409SOL    HW152725   1.709   9.050   5.366  0.2303 -0.6849 -1.7748
16409SOL    HW252726   1.618   9.170   5.385 -0.6469 -1.7432  1.1503
16410SOL     OW52727  10.962   0.537   9.057 -0.1111  0.1433  0.1613
16410SOL    HW152728  10.971   0.442   9.067 -0.5616  0.1271  0.4007
16410SOL    HW252729  11.045   0.564   9.017  0.5635 -0.1716  1.3050
16411SOL     OW52730   8.458   5.632   0.603 -0.3696  0.3070 -0.0956
16411SOL    HW152731   8.461   5.630   0.507 -1.1822 -0.1072 -0.1211
16411SOL    HW252732   8.499   5.715   0.626 -1.4887  1.1210 -0.8834
16412SOL     OW52733   6.408   3.614   8.569 -0.0304  0.2042  0.7292
16412SOL    HW152734   6.445   3.702   8.568 -1.1373  0.6875  1.1016
16412SOL    HW252735   6.360   3.608   8.652  0.4215 -0.9196  0.9266
16413SOL     OW52736   6.899   3.120   2.632 -0.4598  0.7891  0.2962
16413SOL    HW152737   6.995   3.123   2.635 -0.2665 -1.7790 -0.9142
16413SOL    HW252738   6.878   3.029   2.612 -3.1800  1.3064  0.3895
16414SOL     OW52739   6.723   2.971   5.063 -0.2199  0.3940  0.3385
16414SOL    HW152740   6.634   3.000   5.082 -0.5197 -0.7054  0.6870
16414SOL    HW252741   6.747   2.915   5.138 -0.0675 -1.1022 -0.7861
16415SOL     OW52742   1.672   6.849   2.569  0.1317 -0.3673 -0.4915
16415SOL    HW152743   1.591   6.895   2.588  0.4656 -0.1441  0.4822
16415SOL    HW252744   1.645   6.759   2.549 -0.2918 -0.6250  1.0736
16416SOL     OW52745   1.538   0.053   9.845  0.6835  0.1527 -0.4949
16416SOL    HW152746   1.474   0.085   9.782  1.8934 -0.5268 -2.1566
16416SOL    HW252747   1.543  -0.042   9.828  1.9644  0.1600 -0.3142
16417SOL     OW52748   1.404   5.108   9.151 -0.4100 -0.1372  0.4853
16417SOL    HW152749   1.500   5.116   9.152 -0.4408  0.6103  2.4109
16417SOL    HW252750   1.387   5.038   9.088  1.1889  1.5929 -2.0368
16418SOL     OW52751   8.321   7.493   3.767  0.5566 -0.3900  0.1288
16418SOL    HW152752   8.391   7.461   3.709  0.4483  0.5731 -0.5580
16418SOL    HW252753   8.240   7.464   3.725  0.4634  0.6134 -0.4197
16419SOL     OW52754  10.700   3.523   1.208  0.2694 -0.4116  0.1132
16419SOL    HW152755  10.715   3.458   1.140 -0.5906 -1.1087  0.5723
16419SOL    HW252756  10.610   3.553   1.193  0.5090  0.3771  0.1677
16420SOL     OW52757   7.686   6.847   4.385 -0.3529  0.2506  0.3353
16420SOL    HW152758   7.608   6.826   4.437  0.2167 -2.0901  0.3592
16420SOL    HW252759   7.759   6.818   4.440  0.6242  2.8659  0.5373
16421SOL     OW52760  10.644   1.922   5.488 -0.9569  0.6740 -0.0340
16421SOL    HW152761  10.570   1.941   5.431 -0.1418  0.6693 -1.1258
16421SOL    HW252762  10.647   1.826   5.493  0.3164  0.5689 -1.8689
16422SOL     OW52763   0.942   7.706   7.332  0.4852  0.0965 -0.3045
16422SOL    HW152764   0.924   7.685   7.240  0.7632  1.4001 -0.6881
16422SOL    HW252765   0.876   7.771   7.354  0.0513 -0.6445  0.6195
16423SOL     OW52766   9.354   1.788   4.165  0.0934  0.3300 -1.0085
16423SOL    HW152767   9.406   1.844   4.223 -0.2387 -0.1838 -0.2049
16423SOL    HW252768   9.397   1.797   4.080  0.7731  0.8596 -0.6274
16424SOL     OW52769   5.873   5.667   0.551 -0.3287  0.3346  0.2383
16424SOL    HW152770   5.876   5.719   0.631  0.7977 -0.1514  0.5370
16424SOL    HW252771   5.941   5.600   0.563 -1.4964 -1.0047 -0.2634
16425SOL     OW52772   5.886   9.746   3.781  0.9379 -0.3353 -0.3322
16425SOL    HW152773   5.808   9.713   3.736 -0.5612  2.1029  0.2925
16425SOL    HW252774   5.898   9.688   3.855 -1.4358  0.2372  0.5968
16426SOL     OW52775   1.543   3.139   1.220 -0.2003  0.0288  0.4559
16426SOL    HW152776   1.583   3.140   1.307  2.0957  1.4680 -0.5123
16426SOL    HW252777   1.589   3.070   1.173 -0.6437 -0.0041  0.0656
16427SOL     OW52778   1.466   7.902   7.018 -0.4598  0.0206  0.1047
16427SOL    HW152779   1.381   7.913   6.973 -1.2028  0.4057  1.5366
16427SOL    HW252780   1.453   7.945   7.102  0.8476 -0.8257  0.7524
16428SOL     OW52781   8.779   5.049   3.570  0.6372  0.3179  0.1148
16428SOL    HW152782   8.739   5.013   3.649  0.8375  0.0303  0.0873
16428SOL    HW252783   8.823   5.129   3.600 -0.3731  0.9084  0.0497
16429SOL     OW52784   3.336  10.912  10.226 -0.5351  0.5776 -0.3603
16429SOL    HW152785   3.282  10.834  10.212 -0.8922  0.7498  0.0448
16429SOL    HW252786   3.373  10.931  10.139 -2.7725  1.6780 -1.1553
16430SOL     OW52787   4.271   7.567   2.843  0.2528  0.7469 -0.1798
16430SOL    HW152788   4.356   7.560   2.887  0.1722  0.9241  0.0054
16430SOL    HW252789   4.207   7.563   2.914  0.1403  1.5490 -0.2350
16431SOL     OW52790  10.414   2.636   8.788 -0.4068  0.2283  0.2435
16431SOL    HW152791  10.437   2.647   8.695 -0.9562  0.3006  0.1127
16431SOL    HW252792  10.498   2.636   8.834 -0.1719  0.9424 -0.1749
16432SOL     OW52793   9.524   4.939   3.883 -0.3531 -0.5396  0.2519
16432SOL    HW152794   9.478   5.013   3.842 -0.4266  0.2801  1.7561
16432SOL    HW252795   9.534   4.875   3.812  4.9431  3.0559 -2.9551
16433SOL     OW52796   1.590   8.185   1.058  0.5416 -0.5422 -0.1987
16433SOL    HW152797   1.568   8.130   0.984  0.4083 -0.5128 -0.1824
16433SOL    HW252798   1.684   8.201   1.050  0.3597  0.2649 -0.9110
16434SOL     OW52799   5.303   4.024   1.503 -0.0058 -0.0039 -0.3611
16434SOL    HW152800   5.324   3.933   1.527  0.5508  0.3255  0.4892
16434SOL    HW252801   5.377   4.074   1.538 -1.0166  0.9351  0.4961
16435SOL     OW52802   6.311   9.565   4.981  0.4074 -0.2168  0.0314
16435SOL    HW152803   6.371   9.568   4.906 -1.3002 -2.1311 -1.5541
16435SOL    HW252804   6.249   9.637   4.965 -1.1786 -1.8325 -1.6460
16436SOL     OW52805   3.325   3.707   3.732 -0.2428  0.4673  0.2870
16436SOL    HW152806   3.286   3.620   3.725 -2.0972  1.2019  0.9276
16436SOL    HW252807   3.402   3.693   3.788 -0.0345 -0.8833 -0.2903
16437SOL     OW52808   1.018   5.126   9.563 -0.6313  0.1716 -0.8698
16437SOL    HW152809   1.038   5.159   9.651 -1.0980 -2.6007  0.3962
16437SOL    HW252810   0.926   5.149   9.550 -0.9309 -0.4965 -0.0486
16438SOL     OW52811   8.272   6.021   6.032 -0.0441 -0.3325  0.1558
16438SOL    HW152812   8.209   5.950   6.024  0.1894 -0.7779  1.8116
16438SOL    HW252813   8.231   6.082   6.094 -0.0685  0.7906 -0.9405
16439SOL     OW52814   7.303   9.158   2.830  0.2876 -0.2826 -0.5396
16439SOL    HW152815   7.376   9.199   2.784  1.1674 -0.3808  0.7009
16439SOL    HW252816   7.225   9.190   2.785  1.0730  0.0028 -1.7575
16440SOL     OW52817   1.512   0.092   0.776 -0.1142 -0.5303 -0.0102
16440SOL    HW152818   1.431   0.143   0.772  0.0455 -0.2438  0.3207
16440SOL    HW252819   1.511   0.053   0.863  0.3787 -0.0582  0.2134
16441SOL     OW52820   3.963   1.874   0.763  0.5623  0.2654 -0.3744
16441SOL    HW152821   3.970   1.831   0.848 -3.9117 -0.3952 -0.0615
16441SOL    HW252822   3.936   1.804   0.703 -0.8707  1.4982 -1.2352
16442SOL     OW52823  10.136   3.861   0.887  0.6531 -0.1934 -0.3897
16442SOL    HW152824  10.108   3.952   0.891  1.9068  0.1630  0.7040
16442SOL    HW252825  10.209   3.861   0.824  1.6670 -0.1349  0.7492
16443SOL     OW52826   3.258   8.180   0.685 -0.0282  0.2546  0.2284
16443SOL    HW152827   3.275   8.232   0.607  1.9586  0.4829  0.7499
16443SOL    HW252828   3.221   8.242   0.748  0.1574  0.5056  0.0906
16444SOL     OW52829   7.080  10.639   1.723 -0.7956 -0.2655  0.1609
16444SOL    HW152830   7.017  10.566   1.721 -1.5638  0.4066 -0.8284
16444SOL    HW252831   7.163  10.599   1.697 -1.0532 -0.9328  0.3298
16445SOL     OW52832   1.501   4.618   6.554  0.5089 -0.0611 -0.2767
16445SOL    HW152833   1.595   4.633   6.552  0.7443 -1.4500 -0.2824
16445SOL    HW252834   1.471   4.636   6.465  0.5931  1.2849 -0.0610
16446SOL     OW52835   0.719   7.242   3.150 -0.0369 -0.0865 -0.5662
16446SOL    HW152836   0.750   7.208   3.234 -1.8200 -1.1905 -0.2900
16446SOL    HW252837   0.784   7.214   3.087 -0.7202 -2.9037 -0.1257
16447SOL     OW52838   1.853   6.244   4.802 -0.1879  0.0086  0.0578
16447SOL    HW152839   1.824   6.154   4.787 -1.4937  0.5765 -1.0804
16447SOL    HW252840   1.781   6.298   4.769  1.1812  1.4859 -0.6788
16448SOL     OW52841   9.228  10.971   7.002 -0.1147 -0.3330  0.4404
16448SOL    HW152842   9.216  10.895   7.059  0.4622 -0.7952 -0.0366
16448SOL    HW252843   9.283  10.939   6.931  0.5363  0.6489  0.4696
16449SOL     OW52844   4.237   6.435   3.019 -0.3554 -0.1734 -0.6624
16449SOL    HW152845   4.282   6.517   2.997 -1.2243  0.3376 -0.5939
16449SOL    HW252846   4.167   6.429   2.955 -0.7419 -0.4886 -0.2167
16450SOL     OW52847   0.916   8.176   1.101  0.2885 -0.2174  0.2075
16450SOL    HW152848   0.961   8.128   1.170  3.0159 -1.1443 -2.0287
16450SOL    HW252849   0.961   8.260   1.097 -2.3937  1.4539  1.9798
16451SOL     OW52850   4.456  10.213   2.552 -0.1579 -0.5419 -0.1672
16451SOL    HW152851   4.414  10.254   2.477  0.2277 -0.0250 -0.1037
16451SOL    HW252852   4.493  10.286   2.602 -0.2141 -0.8958  0.4039
16452SOL     OW52853   6.362  10.238   7.561  0.4076 -0.0168  0.1655
16452SOL    HW152854   6.453  10.251   7.588  0.0235  2.3484  0.4956
16452SOL    HW252855   6.315  10.313   7.595 -1.6020 -0.8894 -0.4898
16453SOL     OW52856   1.044   0.516   3.011  0.9461  0.4552 -0.7588
16453SOL    HW152857   0.956   0.509   3.048  1.1292 -1.3811 -0.5883
16453SOL    HW252858   1.081   0.595   3.052 -0.6713  1.4017 -1.0179
16454SOL     OW52859   9.208   5.226   3.786  0.0819 -0.0629  0.1494
16454SOL    HW152860   9.205   5.233   3.881  1.0169 -0.6518  0.2242
16454SOL    HW252861   9.294   5.190   3.766 -0.0168  0.2533 -0.9359
16455SOL     OW52862   8.640   3.925  10.078  0.2049  0.4933  0.0267
16455SOL    HW152863   8.667   3.929   9.987  0.7829  3.3357  0.2456
16455SOL    HW252864   8.548   3.951  10.077  0.5336  1.7541  0.3179
16456SOL     OW52865   6.006   7.308   8.559  0.2822  0.4340 -0.5298
16456SOL    HW152866   6.025   7.250   8.633 -1.7417 -0.6232 -0.7733
16456SOL    HW252867   6.024   7.255   8.482 -0.1379  0.6210 -0.7628
16457SOL     OW52868   3.420   3.861   9.474  0.0440 -0.0603 -0.4940
16457SOL    HW152869   3.460   3.927   9.531  0.1930  0.9637 -1.7119
16457SOL    HW252870   3.350   3.822   9.526 -1.8211  2.9234 -0.4944
16458SOL     OW52871   5.726   0.476   2.077 -0.3792  0.0005 -0.5441
16458SOL    HW152872   5.781   0.521   2.014 -0.6502 -0.0079 -0.7899
16458SOL    HW252873   5.646   0.529   2.082  0.6616  1.5537  1.8208
16459SOL     OW52874   7.731   7.341   3.995  0.6181 -0.3689  0.2265
16459SOL    HW152875   7.806   7.387   3.957  1.3007  0.1314  2.1032
16459SOL    HW252876   7.770   7.278   4.056 -0.4486 -1.2533  0.0287
16460SOL     OW52877   8.199   0.844   2.412 -0.0095 -0.4854  0.5705
16460SOL    HW152878   8.255   0.816   2.484 -0.5399 -1.1207  0.7484
16460SOL    HW252879   8.127   0.892   2.453 -0.3843 -0.9645  0.4882
16461SOL     OW52880   9.240   4.336   9.097 -0.1008  0.3837 -0.2724
16461SOL    HW152881   9.167   4.290   9.138 -1.2407  0.0953 -2.4722
16461SOL    HW252882   9.316   4.282   9.117 -0.7075 -0.0931  0.8548
16462SOL     OW52883   4.888   6.876   2.699 -0.0262 -0.0240  0.0342
16462SOL    HW152884   4.849   6.858   2.614  1.5419  0.3273 -0.7977
16462SOL    HW252885   4.817   6.916   2.750 -0.1471  3.0535 -2.2581
16463SOL     OW52886   8.033   4.051   9.165 -0.7917  0.0705  0.0240
16463SOL    HW152887   8.091   4.033   9.239 -1.6481 -0.1229  0.6631
16463SOL    HW252888   8.026   4.146   9.163  0.7068  0.1993 -0.9899
16464SOL     OW52889   2.191   0.456   3.360  0.1806 -0.4355 -0.9632
16464SOL    HW152890   2.280   0.442   3.393  0.1698 -0.8841 -1.1313
16464SOL    HW252891   2.141   0.380   3.390 -0.0239 -0.4474 -1.3316
16465SOL     OW52892  10.039  10.354   6.510 -0.0307  0.1137 -0.6498
16465SOL    HW152893   9.989  10.276   6.488 -0.8707  0.1596  0.9061
16465SOL    HW252894   9.972  10.421   6.528  0.5274  0.1958  1.4055
16466SOL     OW52895   2.566   3.383   8.482 -0.2135 -0.3252  0.2371
16466SOL    HW152896   2.534   3.304   8.437 -0.9191  0.3281 -0.4260
16466SOL    HW252897   2.487   3.430   8.506  0.2113  1.0411 -0.9140
16467SOL     OW52898   7.340   1.450   5.949  0.5481  0.0162  0.4357
16467SOL    HW152899   7.416   1.454   5.892  0.1913 -2.7827 -0.3972
16467SOL    HW252900   7.269   1.488   5.898  1.0618  1.3918  0.7008
16468SOL     OW52901   9.192   1.355   4.061 -0.0552 -0.2949 -0.6272
16468SOL    HW152902   9.264   1.410   4.029 -0.2901  0.0253 -0.6120
16468SOL    HW252903   9.178   1.291   3.992  1.0539 -1.1230 -0.1072
16469SOL     OW52904   4.431   9.646   2.044  0.1710  0.4599 -0.0194
16469SOL    HW152905   4.484   9.674   2.118 -1.1839 -0.8779  1.5207
16469SOL    HW252906   4.369   9.583   2.080 -0.1907 -0.6724 -2.3847
16470SOL     OW52907   4.165   7.567   2.358 -0.4982  0.5028 -0.1300
16470SOL    HW152908   4.229   7.543   2.425 -0.5757  0.4957 -0.0586
16470SOL    HW252909   4.112   7.488   2.345  1.0781 -0.3348 -1.9941
16471SOL     OW52910   0.025   6.842   2.785 -0.0646  0.0826  0.3623
16471SOL    HW152911   0.054   6.826   2.695 -0.1722  0.3466  0.2781
16471SOL    HW252912  -0.067   6.818   2.785  0.3682 -1.6676  0.8733
16472SOL     OW52913   5.049   4.785   8.359 -0.6575 -0.1672  0.1688
16472SOL    HW152914   5.083   4.765   8.272  1.7223  1.0395  0.7508
16472SOL    HW252915   4.961   4.747   8.359 -0.8567  0.0360 -2.8304
16473SOL     OW52916   4.567   7.932   8.917 -0.1554 -0.3094 -0.0284
16473SOL    HW152917   4.618   7.855   8.943 -0.4954 -0.3058  0.6767
16473SOL    HW252918   4.624   8.006   8.935  0.4703 -0.4208 -1.4329
16474SOL     OW52919   6.340   8.926   0.306 -0.3643  0.1773  0.2152
16474SOL    HW152920   6.306   9.001   0.257 -0.4533  0.6204  0.9345
16474SOL    HW252921   6.384   8.965   0.381 -0.0311 -0.4803  0.3663
16475SOL     OW52922   3.045   1.423   7.133  0.2190  0.4659 -0.0998
16475SOL    HW152923   3.139   1.407   7.138  0.1926  0.6934  2.3167
16475SOL    HW252924   3.036   1.517   7.151 -0.4543  0.4553 -0.3628
16476SOL     OW52925   6.107   6.338   7.432  0.0552 -0.0417  0.3780
16476SOL    HW152926   6.191   6.293   7.431 -0.3105 -0.7489  1.2424
16476SOL    HW252927   6.130   6.431   7.424  0.8442 -0.3018 -0.6636
16477SOL     OW52928   6.378   4.896   8.707  0.3847  0.4053 -0.2058
16477SOL    HW152929   6.360   4.909   8.614  0.5760  0.5984 -0.2151
16477SOL    HW252930   6.306   4.941   8.751 -0.2295 -0.4879 -0.2706
16478SOL     OW52931   0.388   8.827   6.263  0.5583 -0.3179 -0.0547
16478SOL    HW152932   0.439   8.886   6.207 -0.5209  1.2011  0.4855
16478SOL    HW252933   0.358   8.758   6.205 -1.0626  1.5543 -1.5755
16479SOL     OW52934   1.913   8.828   6.080 -0.1514 -0.3120 -0.0595
16479SOL    HW152935   1.850   8.819   6.008 -1.5628  4.3077  0.2510
16479SOL    HW252936   1.992   8.861   6.038  1.4299 -3.6850 -0.0921
16480SOL     OW52937   7.386   0.270   4.072  0.1391 -0.2058 -0.0610
16480SOL    HW152938   7.470   0.315   4.083 -0.6407  1.7220 -1.3649
16480SOL    HW252939   7.398   0.218   3.992  0.3851 -0.6807  0.2832
16481SOL     OW52940   6.617   2.510   6.895  0.0275  0.5837  0.1360
16481SOL    HW152941   6.611   2.486   6.802  0.4828  2.0482 -0.3001
16481SOL    HW252942   6.664   2.593   6.895 -1.3438  1.4004  1.5801
16482SOL     OW52943   5.352   0.726   9.197 -0.3386 -0.4695  0.0101
16482SOL    HW152944   5.381   0.663   9.132 -1.2534 -1.0977  0.1846
16482SOL    HW252945   5.422   0.727   9.263  0.0696 -0.6691 -0.4177
16483SOL     OW52946   5.886   3.161   4.082 -0.0107 -0.0330  0.2543
16483SOL    HW152947   5.900   3.151   4.176  0.2232  2.5759  0.5654
16483SOL    HW252948   5.805   3.113   4.065 -1.3015  1.2534  2.2682
16484SOL     OW52949   4.949   7.540  10.305 -0.2688 -0.0320 -0.5067
16484SOL    HW152950   4.857   7.565  10.290  0.0642  0.3883 -2.0699
16484SOL    HW252951   4.999   7.610  10.264  0.7406 -1.1508 -1.2386
16485SOL     OW52952   0.792   6.876   7.875  0.1655 -0.0252  0.0626
16485SOL    HW152953   0.815   6.948   7.932 -1.8147  0.0867  0.8078
16485SOL    HW252954   0.866   6.816   7.880  1.0025  1.0525  0.9515
16486SOL     OW52955   5.539   1.428   7.141  0.0189  0.0595 -0.0249
16486SOL    HW152956   5.604   1.476   7.089  0.7784 -0.8670  0.0352
16486SOL    HW252957   5.460   1.430   7.087  0.5657 -0.1949 -0.8574
16487SOL     OW52958   7.995   5.089   7.935  0.0986 -0.3270  0.3952
16487SOL    HW152959   8.001   5.067   7.841  1.2108  0.3775  0.2816
16487SOL    HW252960   7.999   5.185   7.937  1.0476 -0.3759  1.2155
16488SOL     OW52961   6.924   4.141   7.473 -0.0851  0.6450 -0.1296
16488SOL    HW152962   6.998   4.202   7.468  0.4912 -0.0438 -0.2714
16488SOL    HW252963   6.961   4.057   7.445 -0.9870  0.3408 -0.4497
16489SOL     OW52964   6.260   0.881   8.641 -0.1844 -0.0721 -0.2565
16489SOL    HW152965   6.224   0.878   8.552 -1.5846 -1.2605  0.3002
16489SOL    HW252966   6.290   0.792   8.657 -0.9935 -0.1629  0.8527
16490SOL     OW52967   0.232   7.231   2.300  0.7085 -0.4230  0.5896
16490SOL    HW152968   0.142   7.262   2.299 -0.2062 -2.7860  1.9734
16490SOL    HW252969   0.244   7.187   2.216  0.7156  0.2040  0.2566
16491SOL     OW52970   6.874  10.909  10.328  0.4765  0.2268 -0.3134
16491SOL    HW152971   6.823  10.840  10.371  1.9933 -2.4070 -2.4114
16491SOL    HW252972   6.943  10.931  10.390 -0.3352  0.2524  0.5952
16492SOL     OW52973   6.770   9.770   0.618 -0.4378  0.0193 -0.3697
16492SOL    HW152974   6.744   9.772   0.710  0.6209 -3.9737  0.2319
16492SOL    HW252975   6.709   9.708   0.577  0.1674  0.4184 -1.9445
16493SOL     OW52976   9.442   0.972   5.742 -0.3076  0.0277 -0.1487
16493SOL    HW152977   9.459   1.043   5.679 -1.1838  0.2743 -0.1142
16493SOL    HW252978   9.524   0.922   5.743 -0.2241  0.0831 -1.4086
16494SOL     OW52979   9.191   7.920   8.011  0.2071  0.1289  0.4763
16494SOL    HW152980   9.142   7.892   7.934  0.0139 -1.1999  1.0553
16494SOL    HW252981   9.233   8.002   7.984 -0.0032 -0.2075 -0.9717
16495SOL     OW52982   5.038   9.247  10.919 -0.1443  0.4936 -0.2149
16495SOL    HW152983   5.112   9.229  10.861 -1.1428 -0.0458 -1.3638
16495SOL    HW252984   5.079   9.276  11.001  1.3702 -1.3463 -0.2526
16496SOL     OW52985   3.677   1.853   2.928 -0.1793  0.0507 -0.7569
16496SOL    HW152986   3.771   1.866   2.936 -0.3340  0.2849  1.3657
16496SOL    HW252987   3.664   1.759   2.937 -0.2130  0.1402  0.2717
16497SOL     OW52988   7.994   5.966   8.958 -0.2986 -0.2752  0.3589
16497SOL    HW152989   8.067   6.005   9.006  1.9962 -2.7569 -0.8531
16497SOL    HW252990   7.956   5.904   9.020 -0.5056  0.0665  0.5722
16498SOL     OW52991   5.394   3.698   7.969  0.7917 -0.5354 -0.3849
16498SOL    HW152992   5.475   3.658   8.001 -0.7072 -1.7838  2.2158
16498SOL    HW252993   5.347   3.626   7.927  1.3939  0.4159 -2.8267
16499SOL     OW52994   5.635   3.224   4.575  0.1263  0.5948  0.2959
16499SOL    HW152995   5.676   3.160   4.633 -0.4750  1.0912  1.2864
16499SOL    HW252996   5.708   3.278   4.545  0.2947  1.2555  1.7754
16500SOL     OW52997   9.731   7.974   3.531  0.1354 -0.3710  0.3318
16500SOL    HW152998   9.797   7.932   3.586  0.5925  1.2725  1.0964
16500SOL    HW252999   9.648   7.934   3.558  0.5801 -0.9245  0.8878
16501SOL     OW53000   8.015   1.137   2.332  0.5292  0.4165  0.5857
16501SOL    HW153001   8.001   1.199   2.260 -0.7365 -1.7953 -1.2188
16501SOL    HW253002   7.936   1.143   2.385 -0.0058 -0.2051 -0.1033
16502SOL     OW53003   1.370   2.665   8.159  0.9390 -0.3747 -0.1067
16502SOL    HW153004   1.409   2.718   8.230  0.3476 -0.5032  0.3237
16502SOL    HW253005   1.311   2.604   8.204  0.6070 -0.5078 -0.7083
16503SOL     OW53006   6.448   5.768   1.828  0.1107  0.0374  0.0196
16503SOL    HW153007   6.365   5.737   1.793  0.0329 -0.3558  0.5392
16503SOL    HW253008   6.424   5.833   1.893  0.1956 -0.2633  0.3555
16504SOL     OW53009   6.401   0.440  10.182  0.1624  0.2297 -0.3071
16504SOL    HW153010   6.394   0.432  10.277 -1.9039 -0.2828 -0.4558
16504SOL    HW253011   6.418   0.533  10.166  1.3552  0.1846  0.5667
16505SOL     OW53012   0.665   5.499   3.259 -0.0836  0.2656 -0.2915
16505SOL    HW153013   0.665   5.491   3.164 -0.4549  0.2472 -0.2916
16505SOL    HW253014   0.661   5.409   3.291 -0.1789  0.2800 -0.2615
16506SOL     OW53015   3.931   7.510   5.456 -0.3703  0.0377  0.2386
16506SOL    HW153016   3.926   7.434   5.398  2.1595  0.5157 -0.7102
16506SOL    HW253017   3.880   7.578   5.410 -1.4624 -0.6384  0.4160
16507SOL     OW53018  10.732   1.402   9.869 -0.3049 -0.4331  0.0442
16507SOL    HW153019  10.701   1.350   9.795 -0.7610 -0.5305  0.3003
16507SOL    HW253020  10.726   1.343   9.944 -0.5740 -0.1025  0.2886
16508SOL     OW53021   4.143   2.672   2.347 -0.0735  0.3852 -0.2050
16508SOL    HW153022   4.120   2.755   2.304  1.1730  1.5857  1.3258
16508SOL    HW253023   4.101   2.677   2.433 -0.5529 -0.8997 -0.3465
16509SOL     OW53024  11.006   5.425   8.722 -0.1659 -0.4998  0.0222
16509SOL    HW153025  10.996   5.471   8.639 -1.0677  1.3245  1.0695
16509SOL    HW253026  11.024   5.494   8.786  0.1956 -1.8069  1.3988
16510SOL     OW53027   9.809  10.312   0.207  0.0851 -0.0659  0.1745
16510SOL    HW153028   9.812  10.284   0.299 -0.5774  0.0007  0.2236
16510SOL    HW253029   9.847  10.400   0.208  0.6844 -0.3221  0.2775
16511SOL     OW53030   9.908   8.190   7.979 -0.2195 -0.5414 -0.1258
16511SOL    HW153031   9.945   8.110   7.941 -2.2515 -0.9570 -1.3658
16511SOL    HW253032   9.850   8.159   8.048 -0.2394 -0.0715  0.0720
16512SOL     OW53033   7.193   8.326   7.056 -0.1942  0.1186  0.1664
16512SOL    HW153034   7.166   8.373   7.134  0.2622 -0.6597  0.8034
16512SOL    HW253035   7.114   8.322   7.002 -1.2631 -1.6117  1.7389
16513SOL     OW53036   7.850   9.653   2.483  0.2867  0.1642 -0.1207
16513SOL    HW153037   7.855   9.653   2.388  1.9840 -2.1957 -0.1348
16513SOL    HW253038   7.939   9.676   2.512 -0.3692  1.5327  0.9478
16514SOL     OW53039   7.150   9.771   7.293 -0.4087 -0.2129  0.1962
16514SOL    HW153040   7.080   9.762   7.359 -1.0647  1.2994 -0.2396
16514SOL    HW253041   7.111   9.827   7.226  0.9270 -0.1145 -0.5137
16515SOL     OW53042   1.048   7.911   0.739 -0.3071  0.4558  0.1327
16515SOL    HW153043   1.134   7.885   0.705 -0.5506 -0.0400 -0.1244
16515SOL    HW253044   1.043   7.871   0.826 -0.7987 -0.6329 -0.3797
16516SOL     OW53045   7.495  10.283  10.063 -0.8535  0.3614 -0.5617
16516SOL    HW153046   7.559  10.331  10.116 -0.7755 -0.5799  0.2324
16516SOL    HW253047   7.498  10.325   9.977  0.3204  0.7816 -0.3317
16517SOL     OW53048   0.084   6.659   7.985  0.0781 -0.2865 -0.6538
16517SOL    HW153049   0.173   6.691   8.000  0.4658 -1.7327  0.2774
16517SOL    HW253050   0.091   6.564   7.986 -1.5108 -0.4421 -0.3220
16518SOL     OW53051  10.183   0.289   4.984  0.1436  0.1057  0.5759
16518SOL    HW153052  10.204   0.381   4.999  0.7078 -0.0949  1.0783
16518SOL    HW253053  10.094   0.289   4.951  0.6353  0.9511 -0.8419
16519SOL     OW53054   3.567   7.198  10.937 -0.1890 -0.0442 -0.3295
16519SOL    HW153055   3.474   7.201  10.960  0.2826  0.5090  1.7536
16519SOL    HW253056   3.577   7.266  10.870 -0.8775  1.8238  1.3476
16520SOL     OW53057   8.552   7.026  10.751  0.1303  0.2677 -0.3931
16520SOL    HW153058   8.610   6.975  10.808 -0.0197 -0.0887 -0.5591
16520SOL    HW253059   8.590   7.016  10.664 -0.9481 -1.1140 -0.7394
16521SOL     OW53060   4.198   8.094  10.141  0.1794 -0.4174  0.1555
16521SOL    HW153061   4.146   8.079  10.062 -0.0182  0.8090  0.0331
16521SOL    HW253062   4.219   8.006  10.172  1.0041 -0.9412 -1.7364
16522SOL     OW53063   3.671   0.837   1.345  0.3270 -0.3065  0.0465
16522SOL    HW153064   3.707   0.926   1.344 -0.7850  0.1782  0.8726
16522SOL    HW253065   3.710   0.795   1.269 -1.1855  1.7240 -1.9929
16523SOL     OW53066   6.092   1.899   4.094  0.1299  0.1248  0.2455
16523SOL    HW153067   6.012   1.847   4.086  0.2700 -0.4298  1.9304
16523SOL    HW253068   6.063   1.990   4.084 -0.5907 -0.1199  0.0853
16524SOL     OW53069   6.838   3.818   7.373  0.3417  0.0290  0.2865
16524SOL    HW153070   6.894   3.751   7.412  0.1563 -0.3907 -0.1551
16524SOL    HW253071   6.749   3.795   7.401  0.5269  2.1324  3.1458
16525SOL     OW53072   9.757   1.411   7.923 -0.1547  0.0276 -0.0867
16525SOL    HW153073   9.688   1.475   7.939  0.7703  0.6500  1.7398
16525SOL    HW253074   9.817   1.454   7.863  1.4333  1.7491  2.5443
16526SOL     OW53075  10.849   7.264  10.130 -0.9200  0.3076 -0.2102
16526SOL    HW153076  10.899   7.333  10.172 -0.1837  0.1001 -0.7234
16526SOL    HW253077  10.757   7.290  10.141 -0.7364  0.4463  1.1570
16527SOL     OW53078   1.775   2.568   0.347 -0.4290 -0.3193  0.0546
16527SOL    HW153079   1.723   2.488   0.345  0.0048 -0.5958 -1.6266
16527SOL    HW253080   1.761   2.608   0.262  1.2897  0.1227 -0.0647
16528SOL     OW53081   7.577   1.665   0.127 -0.1098  0.4319 -0.0795
16528SOL    HW153082   7.513   1.732   0.152 -0.0322  0.5458 -0.1810
16528SOL    HW253083   7.565   1.655   0.033  1.2680  1.7938 -0.4413
16529SOL     OW53084   7.568   8.057   6.576 -0.5198  0.5072 -0.1003
16529SOL    HW153085   7.655   8.020   6.565 -0.0577  0.7333  2.3094
16529SOL    HW253086   7.552   8.105   6.494  0.9242 -0.8244 -1.2239
16530SOL     OW53087   5.190   0.787   3.571 -0.3483 -0.6088  0.0923
16530SOL    HW153088   5.205   0.761   3.662 -0.9923 -1.0003  0.0968
16530SOL    HW253089   5.221   0.877   3.567  1.3540 -1.1508  0.2388
16531SOL     OW53090   9.431   4.610   4.658 -0.7884 -0.6990  0.1917
16531SOL    HW153091   9.514   4.565   4.645 -1.8334 -2.2953 -1.5651
16531SOL    HW253092   9.450   4.701   4.637  0.3665 -1.1740 -0.9523
16532SOL     OW53093   8.756   8.769   4.222 -0.5594  0.1579  0.4314
16532SOL    HW153094   8.838   8.801   4.182  0.7030 -1.9094  1.2230
16532SOL    HW253095   8.763   8.796   4.314 -0.4508 -0.5796  0.6432
16533SOL     OW53096   7.510   2.077   0.319  0.3115 -0.4282 -0.0843
16533SOL    HW153097   7.493   1.983   0.329  0.0952 -0.2710  1.2904
16533SOL    HW253098   7.435   2.120   0.360  0.1701  0.3663 -1.1325
16534SOL     OW53099   7.112   2.322   8.796  0.7457  0.6048 -0.3808
16534SOL    HW153100   7.017   2.329   8.789  0.7123  0.3289 -0.2275
16534SOL    HW253101   7.140   2.406   8.831  0.5627  0.7066 -0.4793
16535SOL     OW53102   2.361   9.414   7.400 -0.3395  0.1817 -0.1079
16535SOL    HW153103   2.297   9.406   7.329 -0.8885 -0.6118  0.4715
16535SOL    HW253104   2.316   9.463   7.468 -1.6482 -3.2459  1.7329
16536SOL     OW53105   0.267   3.629   2.111  0.0828  0.1647 -0.1226
16536SOL    HW153106   0.210   3.672   2.047 -0.8345  0.7666  1.0449
16536SOL    HW253107   0.299   3.550   2.067  1.4359  1.7653 -2.1583
16537SOL     OW53108  10.554   5.407   1.356  0.2088  0.3961 -0.3538
16537SOL    HW153109  10.587   5.322   1.327 -0.5328 -0.2079  0.5425
16537SOL    HW253110  10.620   5.469   1.325  0.7720 -0.4954 -1.0060
16538SOL     OW53111   8.639   8.087   2.620 -0.1597  0.3136 -0.3470
16538SOL    HW153112   8.645   8.051   2.708  0.7871  0.7991 -0.2041
16538SOL    HW253113   8.607   8.177   2.632  0.2539  0.4814 -0.4634
16539SOL     OW53114   6.654   1.037   6.090  0.1650 -0.2055  0.4233
16539SOL    HW153115   6.742   1.023   6.124  1.2557  2.3243 -1.1222
16539SOL    HW253116   6.650   0.984   6.010 -1.3206 -3.6579  2.5433
16540SOL     OW53117   9.727   3.471   9.914  0.3172 -0.2236  0.5034
16540SOL    HW153118   9.806   3.525   9.917  0.6482 -0.6030 -0.6745
16540SOL    HW253119   9.695   3.470  10.004  1.0101  0.8811  0.7828
16541SOL     OW53120   3.083   7.352  10.719  0.0871 -0.7677 -0.4473
16541SOL    HW153121   3.010   7.414  10.712  2.0504  1.6327 -1.4548
16541SOL    HW253122   3.152   7.402  10.763  0.9317 -3.1882  1.1946
16542SOL     OW53123   9.039   3.409   2.353 -0.1385 -0.4894 -0.2361
16542SOL    HW153124   9.035   3.400   2.257 -0.7934  0.7956 -0.3519
16542SOL    HW253125   8.948   3.402   2.382 -0.6092  3.4499 -0.2098
16543SOL     OW53126   6.767   4.735   0.500 -0.6303 -0.3564 -0.0525
16543SOL    HW153127   6.732   4.646   0.501 -1.1006 -0.2348 -1.7439
16543SOL    HW253128   6.700   4.785   0.453 -0.2039  0.8302  0.5663
16544SOL     OW53129   0.098   7.285   9.962  0.6819  0.6402  0.5187
16544SOL    HW153130   0.024   7.289  10.023  0.8954  1.4530  0.7356
16544SOL    HW253131   0.174   7.269  10.018  0.5482 -1.4586  0.1841
16545SOL     OW53132   1.824   3.280   3.310 -0.5463  0.1891  0.0317
16545SOL    HW153133   1.845   3.373   3.323  0.8329 -0.3425  2.1026
16545SOL    HW253134   1.854   3.262   3.221 -2.0999  1.9989 -0.9482
16546SOL     OW53135   7.143   0.678   6.874  0.4612  0.2901 -0.0903
16546SOL    HW153136   7.111   0.679   6.784 -0.2347 -1.0524  0.1196
16546SOL    HW253137   7.160   0.586   6.893  0.7530  0.5648  1.1072
16547SOL     OW53138   1.074   9.655   6.103  0.0670  0.1345 -0.7508
16547SOL    HW153139   1.105   9.693   6.185  0.1097  1.8929 -1.5361
16547SOL    HW253140   1.020   9.580   6.130  2.4786 -1.1828  0.7389
16548SOL     OW53141   4.754   4.161   8.666  0.0615 -0.5140 -0.5649
16548SOL    HW153142   4.715   4.169   8.579  0.7067 -3.9711 -1.3130
16548SOL    HW253143   4.838   4.118   8.651  0.5050 -0.6000  1.7331
16549SOL     OW53144  10.142   3.061   2.467 -0.7993  0.0987 -0.5461
16549SOL    HW153145  10.115   3.150   2.442 -0.1784  1.2563  2.3950
16549SOL    HW253146  10.071   3.030   2.523 -0.7063 -1.0215 -1.0321
16550SOL     OW53147   7.044   1.991   0.087  0.2125 -0.2351  0.5510
16550SOL    HW153148   7.073   1.919   0.031  2.5966  0.8916  0.2005
16550SOL    HW253149   7.026   1.951   0.172  0.5455 -1.3830  0.0917
16551SOL     OW53150   7.205   7.354  10.337 -0.0090  0.3204 -0.2323
16551SOL    HW153151   7.154   7.287  10.292 -1.0082  0.1146  1.1687
16551SOL    HW253152   7.296   7.326  10.325 -0.1870  0.4963 -2.4426
16552SOL     OW53153   9.268   0.189   9.981  0.2522  0.2910  0.2993
16552SOL    HW153154   9.349   0.185  10.033 -0.7096  0.0519  1.8304
16552SOL    HW253155   9.273   0.274   9.937  1.0288  0.5771  0.9033
16553SOL     OW53156   4.074   0.050   7.391  0.3287  0.1300 -0.3552
16553SOL    HW153157   4.047   0.130   7.435  2.0129  2.0094 -2.5005
16553SOL    HW253158   4.004   0.031   7.329 -0.2935 -0.4018  0.4779
16554SOL     OW53159   5.211   3.367  10.016 -0.3029 -0.0637 -0.5432
16554SOL    HW153160   5.290   3.322   9.984  0.0403  0.5429 -0.5659
16554SOL    HW253161   5.240   3.457  10.031 -0.6202 -0.1718  0.8627
16555SOL     OW53162   1.715   9.112  10.596  0.6721 -0.1825  0.0724
16555SOL    HW153163   1.728   9.206  10.582 -3.5154  0.8473  1.7994
16555SOL    HW253164   1.772   9.092  10.670  0.3373  1.4686  0.8372
16556SOL     OW53165   8.218   8.363   5.866 -0.3728  0.1989  0.4357
16556SOL    HW153166   8.218   8.340   5.773  2.0670 -1.1101  0.6847
16556SOL    HW253167   8.220   8.459   5.867 -2.5704  0.3318 -0.7501
16557SOL     OW53168   3.290   3.859   4.680 -0.0883 -0.2555 -0.8037
16557SOL    HW153169   3.297   3.950   4.710 -0.3432  0.0172 -1.5577
16557SOL    HW253170   3.307   3.862   4.586  2.2376 -1.3186 -0.4798
16558SOL     OW53171   8.497   1.064  10.801  0.4705 -0.0466  1.0464
16558SOL    HW153172   8.557   1.121  10.753 -1.2396  1.1062  0.1837
16558SOL    HW253173   8.554   1.009  10.855  2.2571  1.4189  0.7422
16559SOL     OW53174   6.952   4.467   5.239  0.0998  0.1319 -0.2653
16559SOL    HW153175   6.867   4.500   5.208 -0.9256 -1.4951  0.6726
16559SOL    HW253176   6.966   4.387   5.190  0.2872 -0.4871  0.7719
16560SOL     OW53177   4.138   2.817   2.970 -0.7278  0.3024 -0.4364
16560SOL    HW153178   4.186   2.777   2.897  0.7382  0.2962  0.4866
16560SOL    HW253179   4.053   2.773   2.969 -0.5582 -0.0552 -1.8166
16561SOL     OW53180   4.600   2.114   3.521  0.0739 -0.2612 -0.2424
16561SOL    HW153181   4.580   2.134   3.430  0.1438  0.4391 -0.1114
16561SOL    HW253182   4.689   2.146   3.534  0.1810 -0.6525 -0.0172
16562SOL     OW53183   6.205   0.458   2.992  0.3999 -0.6932  0.0702
16562SOL    HW153184   6.219   0.495   2.906 -0.0816  0.0968  0.3253
16562SOL    HW253185   6.111   0.439   2.996  0.4615 -0.9638  0.3334
16563SOL     OW53186   0.225   5.759   0.364  0.0150  0.4187  0.0780
16563SOL    HW153187   0.154   5.703   0.331  1.4530 -1.0859 -0.6062
16563SOL    HW253188   0.235   5.826   0.297  0.4658 -0.4821 -0.7928
16564SOL     OW53189   9.146  10.298   4.642 -0.4366  0.4934  0.4546
16564SOL    HW153190   9.078  10.329   4.582 -1.4622 -0.5586  1.0331
16564SOL    HW253191   9.162  10.208   4.615 -0.1971  0.3297  1.1402
16565SOL     OW53192   2.688   5.455   2.664 -0.7044  0.1153  0.1664
16565SOL    HW153193   2.757   5.390   2.665  0.0076  0.7619 -1.7742
16565SOL    HW253194   2.719   5.525   2.721 -0.8247 -0.5906  1.1148
16566SOL     OW53195   3.122   8.067  10.431  0.7973  0.3659  0.3740
16566SOL    HW153196   3.132   7.982  10.388  1.2791  0.0951  1.0022
16566SOL    HW253197   3.104   8.128  10.360  1.7464 -0.0460 -0.2370
16567SOL     OW53198   3.292   1.361   2.868  0.1497 -0.0273 -0.4670
16567SOL    HW153199   3.229   1.420   2.826  0.3924  0.2179 -0.4956
16567SOL    HW253200   3.274   1.275   2.830  1.1950  0.4078 -2.0336
16568SOL     OW53201   2.415   2.008   1.215 -0.4985  0.5680 -0.1823
16568SOL    HW153202   2.320   2.010   1.232 -0.4534  0.9935  0.0319
16568SOL    HW253203   2.455   2.039   1.296 -0.2238  1.3335 -0.5906
16569SOL     OW53204   4.998   9.796   3.096 -0.5125 -0.3574 -0.5086
16569SOL    HW153205   4.926   9.764   3.151 -0.8065  1.6485  0.3412
16569SOL    HW253206   4.957   9.814   3.012 -0.3225 -2.2077 -1.0409
16570SOL     OW53207   9.072   6.458  10.192 -0.0456  0.9195 -0.4554
16570SOL    HW153208   9.147   6.493  10.240  0.6824 -1.0518 -0.0666
16570SOL    HW253209   8.997   6.502  10.231  0.6696  0.6132  1.3836
16571SOL     OW53210   7.815   8.605   0.948  0.4777 -0.5218  0.1467
16571SOL    HW153211   7.908   8.582   0.940  0.6091 -0.0026  0.1348
16571SOL    HW253212   7.768   8.524   0.927  0.9524 -1.3155  1.9245
16572SOL     OW53213   1.596   2.748   9.593 -0.5240 -0.6862 -0.3948
16572SOL    HW153214   1.644   2.690   9.653 -1.2157 -0.2941  0.5803
16572SOL    HW253215   1.534   2.794   9.650 -0.8964  0.0374 -1.3609
16573SOL     OW53216   6.009   8.929   5.056 -0.5833 -0.1248  0.0341
16573SOL    HW153217   6.027   9.016   5.093 -0.2889  0.3071 -1.0806
16573SOL    HW253218   6.023   8.869   5.129  1.7742  0.5327  0.2192
16574SOL     OW53219   3.056   0.414   6.858  0.2080 -0.2422 -0.5872
16574SOL    HW153220   3.103   0.444   6.780  0.6609  0.2806 -0.1167
16574SOL    HW253221   2.979   0.368   6.823 -0.0117  0.6623 -1.3370
16575SOL     OW53222   6.477   7.688   1.379  0.4334  0.0599 -0.0941
16575SOL    HW153223   6.434   7.748   1.440  1.3114  2.0457 -1.3442
16575SOL    HW253224   6.570   7.696   1.398  0.7209  0.6790 -1.6321
16576SOL     OW53225   2.166   9.166   4.447 -0.2287 -0.2314 -0.2123
16576SOL    HW153226   2.119   9.083   4.462 -1.8770  0.7467  0.3097
16576SOL    HW253227   2.249   9.140   4.407 -1.1340 -2.0784 -0.9968
16577SOL     OW53228   0.825   1.046   0.130 -0.2222 -0.5012  0.2509
16577SOL    HW153229   0.835   0.952   0.144  0.8317 -0.4662 -0.1152
16577SOL    HW253230   0.736   1.057   0.098 -0.6930 -1.2470  1.2674
16578SOL     OW53231   5.903   9.484  10.061  0.0638  0.0320  0.1361
16578SOL    HW153232   5.898   9.468   9.966  0.8806  2.2202 -0.3299
16578SOL    HW253233   5.887   9.398  10.100 -1.5955 -0.7068 -1.9349
16579SOL     OW53234   5.989   3.241   7.794  0.1927  0.4262  0.1392
16579SOL    HW153235   6.000   3.332   7.821 -0.5923  0.8416 -0.8870
16579SOL    HW253236   6.014   3.240   7.701  0.3617 -0.4467  0.1824
16580SOL     OW53237   3.373  10.182   6.165 -0.5523 -0.4007  0.0325
16580SOL    HW153238   3.370  10.170   6.070 -1.8223  1.7452 -0.2642
16580SOL    HW253239   3.412  10.268   6.177 -1.2351 -0.2558  1.4073
16581SOL     OW53240   6.734   5.599   6.306  1.1439 -0.2185  0.0157
16581SOL    HW153241   6.653   5.597   6.356  1.9866 -1.3577  1.3934
16581SOL    HW253242   6.735   5.686   6.265 -0.1616  0.2733  0.9895
16582SOL     OW53243   1.686   9.138   4.321 -0.1065  0.1574 -0.1657
16582SOL    HW153244   1.607   9.112   4.368 -1.6821 -1.5358 -3.3705
16582SOL    HW253245   1.734   9.056   4.309  1.1808  0.8576  0.0394
16583SOL     OW53246   5.639   5.825   1.813  0.5173  0.1643 -0.3580
16583SOL    HW153247   5.657   5.754   1.875  1.1234  0.7613  0.1559
16583SOL    HW253248   5.627   5.781   1.729 -2.4613 -0.9122  0.4892
16584SOL     OW53249   6.049   4.231   8.453  0.1531 -0.1656  0.3511
16584SOL    HW153250   6.105   4.246   8.377  0.3892 -0.3531  0.4892
16584SOL    HW253251   6.109   4.212   8.525 -0.0761 -0.1501  0.5493
16585SOL     OW53252   7.114   1.453  10.381  0.6798 -0.1482  0.4400
16585SOL    HW153253   7.115   1.373  10.327 -1.1545  1.1591 -1.7502
16585SOL    HW253254   7.059   1.430  10.456 -0.9023 -0.6487 -0.8065
16586SOL     OW53255   9.724   0.512   2.220  0.1281  0.4731 -0.6830
16586SOL    HW153256   9.713   0.535   2.128 -0.8625  1.0161 -0.4462
16586SOL    HW253257   9.638   0.530   2.260  0.3318 -0.4113  0.2030
16587SOL     OW53258   5.840   3.454   1.836 -0.5608  0.3389 -0.2377
16587SOL    HW153259   5.858   3.376   1.890  0.6369 -0.4400 -1.6939
16587SOL    HW253260   5.750   3.442   1.806 -0.5634 -0.2292 -0.0195
16588SOL     OW53261   1.812   7.121  10.388 -0.0816 -0.3420 -0.8966
16588SOL    HW153262   1.720   7.132  10.408  0.0058  0.1301 -0.7478
16588SOL    HW253263   1.818   7.131  10.293 -0.1268  0.0575 -0.8602
16589SOL     OW53264   7.228   9.184   1.574  0.2290  0.2497  0.2556
16589SOL    HW153265   7.197   9.096   1.598  0.7437  0.1875  0.7050
16589SOL    HW253266   7.312   9.170   1.532  1.0356  0.6216  1.6817
16590SOL     OW53267   9.862   3.217   5.308 -0.0644  0.2765 -0.0439
16590SOL    HW153268   9.942   3.169   5.288  0.0551  0.4925 -0.0894
16590SOL    HW253269   9.871   3.243   5.399  0.4903  1.3871 -0.3989
16591SOL     OW53270   8.415   1.122   2.933  0.5778  0.1062 -0.2041
16591SOL    HW153271   8.456   1.041   2.962  0.4617  0.0338 -0.2419
16591SOL    HW253272   8.359   1.148   3.006 -1.6280 -1.3688 -1.2667
16592SOL     OW53273   6.245   0.844   3.774 -0.2242 -0.0321 -0.2340
16592SOL    HW153274   6.206   0.873   3.857  1.1096 -0.1974  0.4774
16592SOL    HW253275   6.320   0.791   3.800  0.3907  0.1533 -1.5464
16593SOL     OW53276   4.658   5.614   9.964 -0.4131 -0.2311  0.4316
16593SOL    HW153277   4.681   5.637  10.055  0.2699 -1.6761  0.6539
16593SOL    HW253278   4.709   5.536   9.946 -0.5180  0.0588 -1.2393
16594SOL     OW53279   5.290   9.924   2.907  0.2144  0.7255 -0.0189
16594SOL    HW153280   5.209   9.959   2.871  0.2360 -0.1931 -1.0015
16594SOL    HW253281   5.289   9.951   2.999 -0.6939  1.6044 -0.2678
16595SOL     OW53282   6.119   4.191  10.278 -0.0062  0.2652  0.2662
16595SOL    HW153283   6.132   4.125  10.210  2.3721  0.7577  0.1415
16595SOL    HW253284   6.112   4.140  10.359  0.7038 -0.2069  0.0433
16596SOL     OW53285   5.965   3.370   6.332 -0.5940 -0.0226 -0.5276
16596SOL    HW153286   5.942   3.295   6.277 -3.9202  0.7610 -0.4244
16596SOL    HW253287   5.979   3.333   6.419 -1.3610 -0.6580 -0.6595
16597SOL     OW53288  10.312   6.281   5.819 -0.0819 -0.1681 -0.0566
16597SOL    HW153289  10.320   6.211   5.883  0.1552  0.3935  0.5356
16597SOL    HW253290  10.388   6.270   5.762  0.2234 -0.0934  0.3342
16598SOL     OW53291   9.098   4.427   9.453 -0.1994 -0.2643  0.1178
16598SOL    HW153292   9.055   4.477   9.384 -0.0792  0.9791  0.9083
16598SOL    HW253293   9.129   4.348   9.410  1.1882  1.1513 -1.6102
16599SOL     OW53294   0.055   1.255   9.646 -0.1546 -0.3592  0.1766
16599SOL    HW153295   0.014   1.300   9.572  0.8002 -0.5595 -0.4979
16599SOL    HW253296   0.061   1.321   9.715  0.4328  0.2995 -0.4997
16600SOL     OW53297   5.258   6.700   2.095  0.1785  0.0132 -0.1092
16600SOL    HW153298   5.196   6.770   2.077 -1.0015 -1.6158 -3.1125
16600SOL    HW253299   5.208   6.635   2.143  0.2950 -0.1871 -0.2542
16601SOL     OW53300   6.743   4.358   8.888  0.3792  0.2483  0.2563
16601SOL    HW153301   6.814   4.417   8.916 -0.0178  0.0295  1.7600
16601SOL    HW253302   6.737   4.293   8.957 -0.4650 -0.4717 -0.4811
16602SOL     OW53303   0.889   0.051   5.439  0.4240 -0.1306 -0.3583
16602SOL    HW153304   0.833   0.072   5.364  0.8237  3.3792  0.1951
16602SOL    HW253305   0.976   0.080   5.414  0.5668  1.1213  1.3979
16603SOL     OW53306   1.751   1.982   3.905 -0.2172  0.3744  0.6086
16603SOL    HW153307   1.755   1.946   3.993 -2.3131  1.5808  1.2618
16603SOL    HW253308   1.731   1.907   3.848  1.1202 -0.4012  1.1296
16604SOL     OW53309   4.837   4.767   7.895  0.0308 -0.1973  0.1911
16604SOL    HW153310   4.785   4.845   7.916  0.1165  0.4329 -1.7815
16604SOL    HW253311   4.901   4.762   7.967 -0.4935  1.0663  0.7869
16605SOL     OW53312   9.496   4.668   6.271 -0.0213 -0.4002 -0.5231
16605SOL    HW153313   9.507   4.752   6.316  0.3437 -1.7778  2.1336
16605SOL    HW253314   9.585   4.637   6.256 -0.1529 -1.1341  0.1810
16606SOL     OW53315   2.569   7.114  10.534 -0.1840  0.1241 -0.5659
16606SOL    HW153316   2.559   7.054  10.460 -1.3936 -2.1619  1.3352
16606SOL    HW253317   2.480   7.128  10.566  0.4022  0.2653  1.0701
16607SOL     OW53318   9.879   4.779   5.106 -0.1195 -0.3107 -0.0675
16607SOL    HW153319   9.830   4.710   5.062  0.7294 -1.0967  0.1695
16607SOL    HW253320   9.907   4.739   5.189  0.2176  0.3831  0.1601
16608SOL     OW53321   4.500   1.823   9.736 -0.4517 -0.6004 -0.1252
16608SOL    HW153322   4.573   1.762   9.752 -0.1055  0.1975  1.6554
16608SOL    HW253323   4.437   1.772   9.686 -0.1669 -2.4409  1.2716
16609SOL     OW53324   1.865   5.711   9.394 -0.5964  0.3483 -0.2962
16609SOL    HW153325   1.812   5.715   9.314 -2.2942  0.5351  0.7809
16609SOL    HW253326   1.949   5.675   9.366 -1.2059  0.2594 -2.1240
16610SOL     OW53327   8.615   2.479   7.379 -0.0118  0.1444 -0.0655
16610SOL    HW153328   8.667   2.468   7.300  1.8921  0.0813  1.1312
16610SOL    HW253329   8.608   2.573   7.391  1.2534  0.1655  0.6304
16611SOL     OW53330   3.045  10.475   2.911  0.0202 -0.3242  0.4166
16611SOL    HW153331   2.996  10.393   2.914 -0.4548 -0.0171  1.2543
16611SOL    HW253332   3.125  10.457   2.962 -1.1981  0.4303  2.7154
16612SOL     OW53333   6.373   2.352   4.771 -0.3962 -0.0271  0.6953
16612SOL    HW153334   6.458   2.325   4.737 -1.5308 -2.6772 -0.2661
16612SOL    HW253335   6.393   2.391   4.856  1.6531 -2.0467  1.2361
16613SOL     OW53336   0.169   4.496   2.154  0.4649 -0.1396 -0.2010
16613SOL    HW153337   0.082   4.512   2.116  0.1825  0.2536  0.5713
16613SOL    HW253338   0.174   4.558   2.227  0.6636 -1.3915  0.8842
16614SOL     OW53339  10.408   0.896   2.627  0.3688 -0.2573  0.3181
16614SOL    HW153340  10.418   0.912   2.720 -0.2297 -0.5206  0.4347
16614SOL    HW253341  10.344   0.825   2.621  0.7282 -0.5438 -0.2772
16615SOL     OW53342   3.722   3.654   8.443 -0.6010  0.6964 -0.2639
16615SOL    HW153343   3.657   3.608   8.496 -0.6588  2.1984  1.0510
16615SOL    HW253344   3.715   3.615   8.356 -2.3680 -0.0501  0.1770
16616SOL     OW53345   6.395  10.753   8.369 -0.6053 -0.1063 -0.6237
16616SOL    HW153346   6.413  10.687   8.436 -1.8616 -1.1963 -1.3155
16616SOL    HW253347   6.482  10.775   8.333  0.0835  0.4709  1.2732
16617SOL     OW53348   0.486  10.323   3.318 -0.1531 -0.1089 -0.1650
16617SOL    HW153349   0.462  10.334   3.226 -0.5076 -1.9831 -0.3490
16617SOL    HW253350   0.494  10.228   3.329 -0.2888  0.0635  1.7874
16618SOL     OW53351   9.646   5.637   4.680 -0.1238  0.0567  0.1673
16618SOL    HW153352   9.738   5.660   4.690  0.2291 -1.2856  0.2357
16618SOL    HW253353   9.599   5.719   4.692  1.0951  0.8917 -0.5329
16619SOL     OW53354   3.004   5.747   6.158 -0.4936 -0.2173  0.2444
16619SOL    HW153355   2.984   5.817   6.096  1.0731 -0.1670 -0.2394
16619SOL    HW253356   2.998   5.666   6.106  0.4061 -0.2083  0.1163
16620SOL     OW53357  10.569   8.589   0.769  0.4087  0.6828  0.0969
16620SOL    HW153358  10.504   8.545   0.714  0.5318  0.5716  0.0393
16620SOL    HW253359  10.529   8.592   0.856  0.9547 -0.8070  0.4392
16621SOL     OW53360   3.552   1.452   4.015 -0.0740 -0.9252  0.3795
16621SOL    HW153361   3.470   1.443   4.065 -1.0210  2.3282 -0.3445
16621SOL    HW253362   3.545   1.385   3.947 -1.0880 -2.1300  1.5914
16622SOL     OW53363   5.127   2.950   9.759  0.2973  0.3749 -0.1277
16622SOL    HW153364   5.187   3.022   9.741 -1.4524  1.6260 -1.2651
16622SOL    HW253365   5.177   2.871   9.739  1.9733  1.2942  0.2819
16623SOL     OW53366   1.155   4.304   1.927 -0.6001 -0.3919  0.9224
16623SOL    HW153367   1.172   4.397   1.915  0.4777 -0.7899 -0.9260
16623SOL    HW253368   1.076   4.287   1.875 -0.0824 -0.7457  0.2479
16624SOL     OW53369   5.319   6.413   3.178  0.1003 -0.3607  0.4539
16624SOL    HW153370   5.370   6.371   3.109 -0.5475 -0.5037  0.0538
16624SOL    HW253371   5.242   6.356   3.189  1.8251 -2.3732  3.7762
16625SOL     OW53372   7.090  10.276   6.786 -0.3074 -0.3078  0.1995
16625SOL    HW153373   7.158  10.290   6.852 -0.0733  1.7263 -0.4212
16625SOL    HW253374   7.135  10.233   6.714  1.0944  3.3129 -1.3075
16626SOL     OW53375   0.795  10.408   7.828  0.2262 -0.2634  0.7207
16626SOL    HW153376   0.767  10.493   7.862 -0.8695 -1.0728  1.8901
16626SOL    HW253377   0.868  10.382   7.885 -0.6049 -0.9108  1.5098
16627SOL     OW53378   4.136   2.469   2.689 -1.0613  0.1064 -0.4861
16627SOL    HW153379   4.109   2.404   2.754 -0.9619  0.1412 -0.4104
16627SOL    HW253380   4.054   2.510   2.662 -1.0821  0.2462 -0.2195
16628SOL     OW53381   1.823  10.344   6.045  0.4008 -0.0355  0.1668
16628SOL    HW153382   1.792  10.270   5.992 -0.0563 -0.0543  0.4533
16628SOL    HW253383   1.887  10.388   5.990 -0.1070 -0.0213 -0.4296
16629SOL     OW53384   3.507   1.995  10.917 -0.2520 -0.2854  0.1243
16629SOL    HW153385   3.575   2.033  10.973  0.0798  0.6060 -0.8372
16629SOL    HW253386   3.523   1.901  10.920  0.8480 -0.1164  0.1649
16630SOL     OW53387   9.254   8.137  10.806 -0.4446 -0.1244 -0.2979
16630SOL    HW153388   9.186   8.167  10.746 -1.6498  1.7536  1.8459
16630SOL    HW253389   9.206   8.102  10.882  1.0060 -1.0295  0.2574
16631SOL     OW53390   2.131   1.517   5.675  0.4160 -0.1057 -0.0605
16631SOL    HW153391   2.165   1.526   5.765  0.8483  0.7150 -0.2946
16631SOL    HW253392   2.174   1.438   5.642  0.9142  0.0571  0.1762
16632SOL     OW53393  10.929  10.866   5.513 -0.1024  0.2546 -0.0581
16632SOL    HW153394  11.021  10.857   5.537  0.0104  0.4132 -0.4352
16632SOL    HW253395  10.883  10.868   5.598  0.3611  1.4486  0.1827
16633SOL     OW53396   6.707   4.694   4.267 -0.1705 -0.4747 -0.7021
16633SOL    HW153397   6.615   4.714   4.284  0.2969  1.1737  0.1389
16633SOL    HW253398   6.755   4.751   4.327  1.4035 -1.4923 -0.9351
16634SOL     OW53399   6.840   4.022  10.595 -0.6405  0.3497  0.0115
16634SOL    HW153400   6.816   3.973  10.674  3.8666 -0.7561  0.9515
16634SOL    HW253401   6.872   4.106  10.628 -2.0570  1.3540 -1.0423
16635SOL     OW53402   4.466   0.533   1.537  0.1777 -0.2524 -0.0566
16635SOL    HW153403   4.505   0.607   1.582  0.3247 -0.6509  0.4826
16635SOL    HW253404   4.372   0.541   1.553  0.1933 -0.1755 -0.0055
16636SOL     OW53405   5.709   0.777   6.374  0.6049  0.7115 -0.0962
16636SOL    HW153406   5.704   0.806   6.465 -0.7403 -0.1678  0.1305
16636SOL    HW253407   5.631   0.814   6.333  0.3095 -0.2754 -0.4590
16637SOL     OW53408   5.053   9.722   6.147  0.0677  0.1494 -0.1952
16637SOL    HW153409   4.971   9.767   6.127  1.3518  2.5717 -0.3744
16637SOL    HW253410   5.065   9.735   6.241  0.4377  0.1724 -0.2441
16638SOL     OW53411   4.187   2.039   8.414 -0.2679 -0.3850 -0.2840
16638SOL    HW153412   4.210   1.976   8.346 -1.0435  1.0916 -1.9620
16638SOL    HW253413   4.250   2.110   8.404 -1.3048  0.5299 -0.4357
16639SOL     OW53414  10.450  10.129   2.060  0.5956  0.0876 -0.1650
16639SOL    HW153415  10.501  10.179   1.997  1.1018 -0.9391 -0.5986
16639SOL    HW253416  10.361  10.126   2.023  0.2169  1.7678  0.5283
16640SOL     OW53417   4.299   8.016   8.975 -0.0051  0.3770 -0.4120
16640SOL    HW153418   4.275   8.099   9.016  0.4319  0.1506  0.3157
16640SOL    HW253419   4.394   8.019   8.968  0.0331 -0.1687 -0.1467
16641SOL     OW53420   5.099   0.130   0.685  0.1928  0.0801 -0.3444
16641SOL    HW153421   5.085   0.036   0.699  0.8554  0.0142 -0.0620
16641SOL    HW253422   5.036   0.154   0.617  0.0922 -0.5929 -0.4984
16642SOL     OW53423   1.581   8.568   9.949  0.8718  0.0311 -0.0793
16642SOL    HW153424   1.636   8.489   9.955 -0.7588 -1.0368  2.1229
16642SOL    HW253425   1.495   8.540   9.981 -0.1977  2.3528 -0.7201
16643SOL     OW53426   1.909   5.680   2.958 -0.4920  0.0273  0.8498
16643SOL    HW153427   1.928   5.590   2.930 -0.8505 -0.7778  2.9629
16643SOL    HW253428   1.814   5.688   2.949 -0.1541  1.5894 -2.9298
16644SOL     OW53429   8.835   0.477   2.854 -0.1001  0.3452 -0.3362
16644SOL    HW153430   8.911   0.458   2.799 -0.9689 -3.2947 -0.4806
16644SOL    HW253431   8.762   0.482   2.792 -0.7083 -1.3103  0.2146
16645SOL     OW53432   7.638   9.725  10.342 -0.0904 -0.4785  0.1379
16645SOL    HW153433   7.725   9.756  10.320 -0.2635  1.3978  1.8829
16645SOL    HW253434   7.581   9.766  10.277  0.1691 -0.6914 -0.2282
16646SOL     OW53435  10.960   7.177   0.955 -0.3440 -0.0387  0.2961
16646SOL    HW153436  11.020   7.224   1.014 -0.2239 -1.1532  1.0957
16646SOL    HW253437  10.938   7.096   1.002 -0.7027 -0.6999 -0.9553
16647SOL     OW53438   3.557   1.097  10.830 -0.0841  0.2431  0.0493
16647SOL    HW153439   3.580   1.026  10.890 -0.1785 -0.2290 -0.4603
16647SOL    HW253440   3.639   1.144  10.816 -0.1276  0.5523  0.7909
16648SOL     OW53441   6.207   7.174   6.854 -0.1768 -0.5704  0.1386
16648SOL    HW153442   6.118   7.180   6.817  0.3149 -2.7159 -1.6328
16648SOL    HW253443   6.209   7.088   6.896  1.0884 -0.5721  0.1006
16649SOL     OW53444   3.162   6.926   0.153 -0.0449 -0.3212 -0.0009
16649SOL    HW153445   3.138   6.846   0.201  1.0707  0.8470  2.7082
16649SOL    HW253446   3.086   6.983   0.161  0.0400 -0.2297  0.1658
16650SOL     OW53447   0.962   3.600   9.338 -0.4729  0.2475  0.3549
16650SOL    HW153448   0.949   3.543   9.413 -0.2262  2.4468  2.1748
16650SOL    HW253449   0.883   3.653   9.334 -0.5257  0.0913 -1.0260
16651SOL     OW53450   3.029   1.268   8.313  0.2811  0.0641 -0.2055
16651SOL    HW153451   3.099   1.331   8.299  1.6485 -0.9501  1.6213
16651SOL    HW253452   3.056   1.219   8.390 -1.1400 -2.1750 -1.0272
16652SOL     OW53453   2.621   4.893  10.345  0.3702 -0.3001  0.8857
16652SOL    HW153454   2.543   4.943  10.319 -0.1358 -1.0727  0.9106
16652SOL    HW253455   2.691   4.958  10.346 -0.2681  0.4028  0.8489
16653SOL     OW53456   0.461   0.010   5.407  0.7092 -0.3857 -0.2040
16653SOL    HW153457   0.472   0.096   5.366 -0.6940  0.5366  1.2423
16653SOL    HW253458   0.414  -0.042   5.342 -0.3949  0.6621 -0.2801
16654SOL     OW53459   9.771   4.875   6.652  0.0518  0.3252  0.3256
16654SOL    HW153460   9.739   4.819   6.582 -2.0917  1.4766  0.2821
16654SOL    HW253461   9.777   4.962   6.612 -0.4348  0.8406  1.3276
16655SOL     OW53462   8.295   1.803   8.700  0.1487  0.3351  0.0727
16655SOL    HW153463   8.360   1.828   8.767  0.3254 -1.7177  0.7271
16655SOL    HW253464   8.219   1.774   8.750  0.5426 -1.9288 -0.5341
16656SOL     OW53465   4.317   8.557  10.061  0.3661 -0.3569  0.3472
16656SOL    HW153466   4.265   8.615  10.005 -0.4796 -0.5778  0.9024
16656SOL    HW253467   4.330   8.606  10.142  1.4911 -0.0881  0.0268
16657SOL     OW53468   1.521   9.395   2.275 -0.1287  0.2492 -0.1601
16657SOL    HW153469   1.502   9.397   2.181  1.1782  0.1668 -0.4475
16657SOL    HW253470   1.522   9.302   2.297  0.8166  0.2040 -0.3528
16658SOL     OW53471   5.686   7.653  10.465  0.5646 -0.0496  0.6128
16658SOL    HW153472   5.689   7.706  10.545 -1.6923  1.3502 -0.1383
16658SOL    HW253473   5.643   7.572  10.491  1.1502 -0.2080  1.1032
16659SOL     OW53474   6.902   5.909   6.562 -0.1215  0.0824 -0.0644
16659SOL    HW153475   6.880   5.976   6.497  1.0440  1.2024  0.6326
16659SOL    HW253476   6.990   5.933   6.591  0.0093 -1.3285  0.7711
16660SOL     OW53477   9.372   3.090   3.455 -0.4337 -0.5241  0.9302
16660SOL    HW153478   9.446   3.038   3.487 -0.2457 -0.7374  0.1584
16660SOL    HW253479   9.296   3.033   3.466 -0.5735 -0.1164  2.2059
16661SOL     OW53480   2.626   7.891   7.299 -0.4732  0.3049 -0.0151
16661SOL    HW153481   2.592   7.867   7.213 -0.9672  1.1322 -0.0598
16661SOL    HW253482   2.611   7.813   7.354 -1.0043  0.1081 -0.4364
16662SOL     OW53483   3.408   6.655   6.522  0.0059  0.1535  0.8105
16662SOL    HW153484   3.381   6.598   6.450  0.5865  0.2762  0.4842
16662SOL    HW253485   3.419   6.596   6.596  0.6493 -0.1800  0.4621
16663SOL     OW53486   0.680   9.102  10.123 -0.0693 -0.2437 -0.6922
16663SOL    HW153487   0.640   9.187  10.102  0.3782 -0.1116 -1.0197
16663SOL    HW253488   0.699   9.063  10.038 -2.5936 -1.8129 -0.6587
16664SOL     OW53489   1.241   7.906   1.790  0.0990  0.0656  0.2206
16664SOL    HW153490   1.185   7.959   1.846  1.0436  0.5507  0.7370
16664SOL    HW253491   1.198   7.821   1.787  0.5516 -0.3384  2.6055
16665SOL     OW53492   9.174   4.392   7.213 -0.2138  1.1814  0.1849
16665SOL    HW153493   9.169   4.394   7.309  1.0611 -0.5705  0.3280
16665SOL    HW253494   9.159   4.301   7.190  1.3817  1.2136 -1.1396
16666SOL     OW53495   6.286   3.344   8.308 -0.0286 -0.1103  0.3248
16666SOL    HW153496   6.369   3.391   8.316  0.1639 -0.3308 -0.3257
16666SOL    HW253497   6.310   3.252   8.310 -0.3138 -0.1821  0.6544
16667SOL     OW53498   2.020   2.611   6.142 -0.0281  0.2870  0.0918
16667SOL    HW153499   1.994   2.531   6.096  0.3342 -0.2712  0.8376
16667SOL    HW253500   1.946   2.671   6.129 -0.6098 -0.4170  0.1141
16668SOL     OW53501   5.167   1.793   0.404 -0.0325  0.0052 -0.4243
16668SOL    HW153502   5.192   1.707   0.440 -0.8960  0.2877  0.9150
16668SOL    HW253503   5.214   1.856   0.459 -1.1068  0.4386  0.0123
16669SOL     OW53504   7.955   2.484   7.803 -0.4437  0.4089 -0.1451
16669SOL    HW153505   7.995   2.491   7.890 -0.2686  0.6093 -0.2410
16669SOL    HW253506   7.976   2.567   7.760  0.6435 -0.1993 -0.8635
16670SOL     OW53507   2.755   7.802   1.362 -0.4573 -0.3308 -0.0368
16670SOL    HW153508   2.818   7.752   1.310  0.1186  1.1227 -0.8139
16670SOL    HW253509   2.699   7.736   1.403  0.6142 -1.6052 -0.5537
16671SOL     OW53510   7.005  10.134   9.450 -0.4536 -0.0767  0.0279
16671SOL    HW153511   7.026  10.109   9.540 -0.2663 -0.3181 -0.0806
16671SOL    HW253512   7.044  10.065   9.397  1.8715  1.4597 -0.4031
16672SOL     OW53513   1.205   5.193   7.602  0.4058  0.3893 -0.4869
16672SOL    HW153514   1.153   5.191   7.522 -1.5030 -1.4502  0.6805
16672SOL    HW253515   1.244   5.106   7.608  0.6083  0.5298  0.5044
16673SOL     OW53516   3.812   2.859   8.577 -0.1974 -0.7261  0.3525
16673SOL    HW153517   3.878   2.792   8.560  1.3201  0.6813  0.5073
16673SOL    HW253518   3.849   2.940   8.540 -2.2195 -0.0524 -0.3453
16674SOL     OW53519  10.215  10.332   3.888  0.3363  0.1566  0.2573
16674SOL    HW153520  10.229  10.315   3.795  0.3321  0.7039  0.1537
16674SOL    HW253521  10.303  10.340   3.924  0.5377  5.1762 -0.6812
16675SOL     OW53522  10.513   4.900   2.577 -0.5826 -0.4715  0.1465
16675SOL    HW153523  10.471   4.925   2.494  0.4508  1.0762  0.0601
16675SOL    HW253524  10.596   4.860   2.551  0.5757  1.6262  0.4250
16676SOL     OW53525   8.457   7.342   4.511 -0.3516  0.0696  0.5476
16676SOL    HW153526   8.448   7.261   4.562  1.8703 -0.9890 -0.5716
16676SOL    HW253527   8.502   7.403   4.570 -0.6999 -0.0224  0.9095
16677SOL     OW53528   6.075   0.698   6.265 -0.2544 -0.1535  0.3508
16677SOL    HW153529   6.084   0.603   6.262  0.6464 -0.0693 -0.3026
16677SOL    HW253530   6.148   0.730   6.211 -0.7461  0.8928  0.2849
16678SOL     OW53531   1.970   0.836   4.115  0.1860  0.3645  0.3286
16678SOL    HW153532   2.036   0.869   4.053  0.1061  0.9452  0.5500
16678SOL    HW253533   1.905   0.906   4.120  0.0812  0.2266  0.9029
16679SOL     OW53534   8.961   1.823   3.751 -0.4216  0.0477  0.0977
16679SOL    HW153535   8.918   1.897   3.794 -1.6375 -0.1374 -0.7712
16679SOL    HW253536   8.907   1.805   3.674  1.0767 -0.3490 -0.9049
16680SOL     OW53537   1.948   6.684   5.453  0.0473  0.0759  0.3849
16680SOL    HW153538   2.027   6.716   5.410 -0.2390  2.2893  1.3178
16680SOL    HW253539   1.939   6.593   5.425  1.8179  0.3656 -1.3006
16681SOL     OW53540  10.652  10.747   7.255 -0.3384 -0.3269  0.7798
16681SOL    HW153541  10.731  10.726   7.205 -1.0040  0.6126 -0.7412
16681SOL    HW253542  10.595  10.791   7.192 -0.9207  1.6307  2.5564
16682SOL     OW53543   0.237   8.374   7.866 -0.4540  0.3333 -0.6927
16682SOL    HW153544   0.149   8.352   7.898  0.1242 -0.4647  0.4335
16682SOL    HW253545   0.253   8.310   7.796 -0.4686 -0.0211 -0.3728
16683SOL     OW53546   5.853   1.498   1.415 -0.3121 -0.1318  0.1761
16683SOL    HW153547   5.773   1.457   1.448  0.5661 -1.7040  0.4355
16683SOL    HW253548   5.922   1.469   1.475  0.4270  1.4623  0.1491
16684SOL     OW53549   2.665   8.476   3.932  0.2022  0.0141 -0.3491
16684SOL    HW153550   2.685   8.462   4.024  1.1470  1.9058 -0.2289
16684SOL    HW253551   2.573   8.505   3.932 -0.1266 -0.9798 -0.1319
16685SOL     OW53552   2.747   4.477   1.711 -0.3449  0.4380  0.3900
16685SOL    HW153553   2.839   4.503   1.707 -0.6246  1.4474  0.1903
16685SOL    HW253554   2.720   4.467   1.620  0.0009 -1.5616  0.4574
16686SOL     OW53555   4.546   8.245   9.889  0.1267 -0.5679 -0.0384
16686SOL    HW153556   4.641   8.259   9.892  0.3406 -1.9634  0.7137
16686SOL    HW253557   4.536   8.160   9.846 -0.5559 -1.9557  2.6418
16687SOL     OW53558   6.684   0.951   2.378  0.3753 -0.2193  0.5850
16687SOL    HW153559   6.718   0.893   2.310 -1.2311 -0.2770 -0.2310
16687SOL    HW253560   6.722   1.036   2.359  3.0405 -1.0009  1.9956
16688SOL     OW53561   3.996   1.871   5.381 -0.4311 -0.2277  0.0717
16688SOL    HW153562   3.965   1.935   5.445 -1.5556 -1.2240  0.5736
16688SOL    HW253563   3.983   1.786   5.424  2.4303 -0.7919  0.0530
16689SOL     OW53564   0.852  10.219   7.609 -0.0951 -0.4364 -0.2174
16689SOL    HW153565   0.839  10.124   7.604 -0.1603 -0.4033 -0.6565
16689SOL    HW253566   0.818  10.243   7.696 -1.0174 -0.6664 -0.5091
16690SOL     OW53567   5.550   3.947   7.853  0.3928  0.3550  0.3301
16690SOL    HW153568   5.635   3.918   7.820  0.4184  0.6392  0.1452
16690SOL    HW253569   5.568   4.033   7.892  0.5520 -0.3407  1.8899
16691SOL     OW53570   2.322  10.720   4.984  0.1650 -0.3651 -0.0763
16691SOL    HW153571   2.243  10.727   5.038 -0.1943  2.0334 -0.7908
16691SOL    HW253572   2.289  10.727   4.894  1.1506  0.3060 -0.3920
16692SOL     OW53573   5.534   2.795   1.306 -0.6029 -0.2667 -0.2128
16692SOL    HW153574   5.566   2.771   1.393 -3.2098 -1.0300  0.6287
16692SOL    HW253575   5.563   2.885   1.294  0.9364 -0.5757  0.8316
16693SOL     OW53576  10.755   0.917  10.612  0.2472  0.3548 -0.6234
16693SOL    HW153577  10.698   0.954  10.545 -0.7465  0.1978  0.1248
16693SOL    HW253578  10.698   0.901  10.687  0.7865 -1.9349 -0.6233
16694SOL     OW53579   5.321   0.023   2.038 -0.2936 -0.6945  0.0899
16694SOL    HW153580   5.359  -0.044   1.980  1.6391  0.7621 -0.4180
16694SOL    HW253581   5.288  -0.027   2.113  2.0488 -2.1693  0.2434
16695SOL     OW53582   6.376   9.263   7.143  0.0765 -0.4475  0.5472
16695SOL    HW153583   6.290   9.305   7.151  0.6506  1.2006 -1.2421
16695SOL    HW253584   6.435   9.321   7.191  1.1026  1.7709 -3.0119
16696SOL     OW53585   6.518   7.912   6.867  0.2755  0.0897 -0.0918
16696SOL    HW153586   6.536   7.843   6.931 -0.4620  1.0318  1.1895
16696SOL    HW253587   6.552   7.878   6.784  1.2583 -1.1781  0.7921
16697SOL     OW53588  10.760   9.198   0.774 -0.0411  0.1206 -0.1709
16697SOL    HW153589  10.749   9.263   0.843 -0.2717  1.4166 -1.3819
16697SOL    HW253590  10.673   9.162   0.760  0.0171 -0.1808  0.2487
16698SOL     OW53591   5.565   3.139   8.576 -0.2183 -0.4263 -0.6571
16698SOL    HW153592   5.632   3.094   8.626 -0.6345 -0.7378 -0.3739
16698SOL    HW253593   5.611   3.174   8.500  0.3562 -0.2190 -0.2182
16699SOL     OW53594   5.971   5.680   3.010 -0.5479 -0.9546  0.0844
16699SOL    HW153595   6.043   5.718   3.061 -1.2653  0.9759 -0.2244
16699SOL    HW253596   5.936   5.611   3.066 -0.5278  0.2875  1.7309
16700SOL     OW53597   6.769   9.735   4.494 -0.6042 -0.0283  0.3677
16700SOL    HW153598   6.850   9.740   4.546 -1.2843  0.4676  1.4089
16700SOL    HW253599   6.791   9.776   4.411  0.5020 -0.8012  0.2486
16701SOL     OW53600  10.417   1.803   8.097 -0.6986 -0.0364  0.5431
16701SOL    HW153601  10.369   1.879   8.064 -1.9881 -1.5433 -1.2718
16701SOL    HW253602  10.349   1.747   8.135 -0.1087 -1.2628 -0.1448
16702SOL     OW53603   7.393   0.113   1.530 -0.3825 -0.1198 -0.2111
16702SOL    HW153604   7.446   0.177   1.578 -0.9222 -0.0433  0.2967
16702SOL    HW253605   7.374   0.155   1.446  0.7396 -0.3346 -0.5866
16703SOL     OW53606   2.557   2.621   3.668 -0.7347 -0.0677  0.6962
16703SOL    HW153607   2.577   2.650   3.757 -4.3218  2.1577  0.9718
16703SOL    HW253608   2.506   2.541   3.680 -0.6796 -0.1163  0.6047
16704SOL     OW53609   8.587   2.782   1.479 -0.1349  0.3682 -0.0407
16704SOL    HW153610   8.546   2.698   1.455 -0.6878  0.6598 -0.1480
16704SOL    HW253611   8.582   2.834   1.399 -0.1989  0.6568  0.1500
16705SOL     OW53612   5.810   3.510   6.627 -0.0856  0.9354  0.1106
16705SOL    HW153613   5.882   3.462   6.667 -1.7584 -1.1011  0.8761
16705SOL    HW253614   5.737   3.499   6.687 -1.1248  2.7583 -0.7274
16706SOL     OW53615   0.074   1.208   3.350 -0.2750 -0.1011 -0.1664
16706SOL    HW153616   0.016   1.189   3.277  0.1642 -0.7353 -0.3563
16706SOL    HW253617   0.094   1.301   3.342  0.1827 -0.2723 -1.1604
16707SOL     OW53618   1.158   4.084   1.319  0.1794  0.6374  0.2919
16707SOL    HW153619   1.199   4.017   1.373 -1.0662 -1.5304 -1.2784
16707SOL    HW253620   1.213   4.089   1.241 -0.3809  0.5422 -0.1169
16708SOL     OW53621   2.501   7.587   8.280 -0.2517 -0.3618  0.1519
16708SOL    HW153622   2.437   7.604   8.348 -1.3097 -2.4017 -0.2511
16708SOL    HW253623   2.503   7.667   8.228 -1.7151  0.1162  0.7851
16709SOL     OW53624   9.016   7.064   8.497 -0.2411 -0.2585 -0.1773
16709SOL    HW153625   9.089   7.014   8.459 -0.0017  0.8506 -1.2532
16709SOL    HW253626   9.059   7.131   8.550 -0.3310  1.6166 -2.3280
16710SOL     OW53627   5.771   9.005   4.632 -0.0751 -0.0967 -0.4950
16710SOL    HW153628   5.823   9.031   4.708 -2.0808  0.7886  0.6615
16710SOL    HW253629   5.694   9.062   4.635 -1.4202 -1.7313 -1.7605
16711SOL     OW53630  10.016   4.254   6.081  0.1864  0.1239 -0.4772
16711SOL    HW153631  10.076   4.180   6.087 -0.7784 -0.5925  0.9542
16711SOL    HW253632  10.025   4.285   5.991  3.1045  0.4406 -0.1723
16712SOL     OW53633  10.070   2.587   9.781 -0.3995  0.9219  0.3987
16712SOL    HW153634  10.076   2.515   9.718 -0.3078  0.8568  0.4828
16712SOL    HW253635  10.161   2.611   9.799 -0.4270  0.9845  0.4563
16713SOL     OW53636   8.256   2.836   7.551 -0.1690  0.3348 -0.2778
16713SOL    HW153637   8.305   2.809   7.473 -0.8688  0.5425 -0.8009
16713SOL    HW253638   8.177   2.879   7.516 -0.0518  1.2480  0.5468
16714SOL     OW53639   7.679   2.151   0.759 -0.4886  0.3954 -0.3892
16714SOL    HW153640   7.751   2.096   0.727  1.3203  1.2573  1.8679
16714SOL    HW253641   7.664   2.215   0.690  0.9070  0.1623 -0.9324
16715SOL     OW53642   8.371   8.872   0.917 -0.0833  0.0917  0.0652
16715SOL    HW153643   8.323   8.862   1.000  2.1800  1.1441  1.6153
16715SOL    HW253644   8.461   8.848   0.939  0.7138  1.0178 -1.9629
16716SOL     OW53645   9.517   7.225   7.686  0.1766 -0.1567 -0.1382
16716SOL    HW153646   9.496   7.224   7.780  1.0950  0.6942  0.0927
16716SOL    HW253647   9.594   7.169   7.678  0.6126  0.4571 -0.2500
16717SOL     OW53648   1.336   7.011   6.990 -0.6402 -0.3155 -0.0787
16717SOL    HW153649   1.272   7.064   6.941  0.4565  1.4536  0.2982
16717SOL    HW253650   1.283   6.950   7.041 -1.9189 -0.4678 -1.5085
16718SOL     OW53651   5.339   5.595   3.973 -0.4269 -0.3296  0.1146
16718SOL    HW153652   5.335   5.624   3.882 -1.6946  2.5841  0.9782
16718SOL    HW253653   5.250   5.566   3.993 -0.4132 -0.0053  0.6773
16719SOL     OW53654   6.363   9.388   2.586 -0.2452  0.2842 -0.4468
16719SOL    HW153655   6.309   9.336   2.527  3.4962 -2.0505 -2.1317
16719SOL    HW253656   6.407   9.452   2.529  3.5430 -2.1007 -0.5195
16720SOL     OW53657  10.689   9.196   4.784 -0.5208  0.0554  0.0615
16720SOL    HW153658  10.678   9.290   4.772 -0.3140  0.1310  0.4513
16720SOL    HW253659  10.605   9.159   4.758 -0.0799  0.1873 -1.7037
16721SOL     OW53660   8.147   3.531   9.457 -0.2088 -0.0669 -0.0668
16721SOL    HW153661   8.170   3.601   9.397 -1.5883 -0.3289 -0.9558
16721SOL    HW253662   8.069   3.563   9.503 -1.9483 -1.5960 -1.7368
16722SOL     OW53663   7.956   1.655  10.102 -0.1202  0.5228  0.2328
16722SOL    HW153664   7.921   1.566  10.093  1.3577 -0.1582  0.8660
16722SOL    HW253665   8.050   1.645  10.090 -0.1780  2.5996 -3.6735
16723SOL     OW53666   5.032   2.035   9.634  0.5232  0.1804 -0.2253
16723SOL    HW153667   5.059   2.120   9.667  0.6740  0.1594 -0.2937
16723SOL    HW253668   5.096   2.014   9.566  0.3735  0.1009 -0.3431
16724SOL     OW53669   4.337   9.565   4.911 -0.5202 -0.4668  0.1901
16724SOL    HW153670   4.254   9.578   4.958 -0.5226 -1.0397  0.3516
16724SOL    HW253671   4.403   9.564   4.980 -0.2748  0.8509 -0.0128
16725SOL     OW53672   9.666   0.321   3.275 -0.5178  0.0071  0.1795
16725SOL    HW153673   9.676   0.243   3.220  1.4886  0.4214 -0.1498
16725SOL    HW253674   9.744   0.321   3.330 -0.9619  1.2737  0.8447
16726SOL     OW53675   9.530   4.190   8.553 -0.4390 -0.2967  0.3518
16726SOL    HW153676   9.552   4.135   8.478 -1.6432  0.6734 -0.7504
16726SOL    HW253677   9.435   4.197   8.552 -0.4342  0.2563  1.5984
16727SOL     OW53678   9.499   2.283   6.630  0.0606  0.2723  0.6105
16727SOL    HW153679   9.531   2.350   6.569  0.2258 -0.7641 -0.4704
16727SOL    HW253680   9.404   2.291   6.626  0.0273 -0.4631 -0.5925
16728SOL     OW53681   9.411   6.564   9.861  0.2591 -0.3742 -0.0744
16728SOL    HW153682   9.392   6.545   9.769  1.4403  1.4301 -0.7463
16728SOL    HW253683   9.349   6.633   9.884 -0.4260 -1.2242  0.6975
16729SOL     OW53684   7.050   9.284   7.696 -0.2584 -0.6562  0.3416
16729SOL    HW153685   7.137   9.322   7.681 -0.3399 -0.4783  0.3221
16729SOL    HW253686   6.999   9.355   7.734 -0.0125 -1.1374  1.6182
16730SOL     OW53687   0.218  10.979   4.236 -0.0051  0.0896  0.4361
16730SOL    HW153688   0.143  10.981   4.296 -0.2479  1.6578  0.1168
16730SOL    HW253689   0.183  10.938   4.156  0.2066 -1.6071  1.1731
16731SOL     OW53690   8.526   0.005   7.318  0.5882  0.4808 -0.0150
16731SOL    HW153691   8.553  -0.016   7.228  0.6075 -0.1222  0.1288
16731SOL    HW253692   8.467   0.080   7.308 -0.6925 -0.5664 -0.7027
16732SOL     OW53693  10.037   1.028   0.361  0.3454  0.4288 -0.5613
16732SOL    HW153694   9.999   1.107   0.324  1.3561  1.2096 -0.0005
16732SOL    HW253695   9.967   0.963   0.359 -0.6993  1.5329 -0.4437
16733SOL     OW53696   4.783   6.938   7.938 -0.0553 -0.7165 -0.3227
16733SOL    HW153697   4.800   6.943   7.844 -1.3487 -0.8307 -0.5815
16733SOL    HW253698   4.832   6.862   7.967  1.6531  0.2338 -0.5847
16734SOL     OW53699   5.930   0.950   6.300 -0.1675 -0.9592  0.1873
16734SOL    HW153700   6.000   0.907   6.349 -0.7162 -0.8755  1.0567
16734SOL    HW253701   5.852   0.899   6.321 -0.6576 -0.0909  0.4948
16735SOL     OW53702   1.225   3.857  10.943  0.3272 -0.2882 -0.3182
16735SOL    HW153703   1.242   3.833  11.034  0.8144 -0.4445 -0.4503
16735SOL    HW253704   1.299   3.822  10.894  0.1957  0.0181 -0.7426
16736SOL     OW53705   6.852   9.724   9.010 -0.0815 -0.4966  0.4646
16736SOL    HW153706   6.899   9.660   8.956 -1.2478 -0.0165 -1.1970
16736SOL    HW253707   6.868   9.695   9.100  2.5253 -0.9213 -0.0483
16737SOL     OW53708   9.599   2.681   0.674 -0.2572 -0.5113 -0.0636
16737SOL    HW153709   9.576   2.631   0.752  0.7393 -0.6392  0.1576
16737SOL    HW253710   9.570   2.626   0.601 -0.6776 -0.6493  0.2047
16738SOL     OW53711   0.463   6.182   8.305 -0.0289 -0.8242 -0.1195
16738SOL    HW153712   0.488   6.192   8.213 -1.6286 -2.1435 -0.7433
16738SOL    HW253713   0.539   6.215   8.354  2.1276 -2.7871 -1.8800
16739SOL     OW53714   4.922   8.965   9.627  0.7780 -0.7623 -0.3140
16739SOL    HW153715   5.015   8.989   9.622  0.9200 -1.3115 -0.3910
16739SOL    HW253716   4.880   9.015   9.557  0.5642  1.4791  1.3029
16740SOL     OW53717   2.050   3.545   3.918 -0.2960 -0.1220 -0.0570
16740SOL    HW153718   1.988   3.543   3.991  0.0176 -1.6606  0.1858
16740SOL    HW253719   2.011   3.487   3.852 -0.0141  0.3602 -0.6560
16741SOL     OW53720   1.691   8.792   5.926  0.7046  0.9176 -0.4145
16741SOL    HW153721   1.605   8.810   5.963  0.9034  1.0927 -0.0408
16741SOL    HW253722   1.684   8.818   5.834  0.0792  0.0743 -0.6191
16742SOL     OW53723   2.042   6.483   0.228  0.7921  0.2637  0.5310
16742SOL    HW153724   2.128   6.485   0.185  0.5088 -0.8875 -0.1260
16742SOL    HW253725   2.045   6.406   0.285  1.0879  1.6559  2.5183
16743SOL     OW53726   5.976   3.119   9.361 -0.1887 -0.0494  0.1521
16743SOL    HW153727   6.045   3.101   9.298 -1.9940 -1.2765 -1.6318
16743SOL    HW253728   6.003   3.073   9.441  0.8052 -0.9669 -0.6829
16744SOL     OW53729  10.226   0.373   2.712 -0.3663 -0.0159 -0.3196
16744SOL    HW153730  10.204   0.460   2.744 -1.1350 -0.0120 -0.8302
16744SOL    HW253731  10.315   0.358   2.742 -1.0892 -0.0833  1.9467
16745SOL     OW53732   4.119   3.067  10.839  0.0225  0.4128  0.2025
16745SOL    HW153733   4.077   3.060  10.754  0.5598 -0.1010 -0.0287
16745SOL    HW253734   4.051   3.044  10.902 -0.7406  1.9976  0.0174
16746SOL     OW53735  10.723   2.173   1.838  0.4637  0.4412 -0.5632
16746SOL    HW153736  10.764   2.252   1.803  0.7231 -0.7632 -3.2153
16746SOL    HW253737  10.777   2.102   1.806 -0.8603 -0.9198  0.1129
16747SOL     OW53738   9.947   6.126  10.647  0.2563  0.1959  0.7028
16747SOL    HW153739   9.874   6.158  10.594  0.8736 -0.2762 -0.4675
16747SOL    HW253740  10.016   6.191  10.635  0.6637 -0.3015  0.2968
16748SOL     OW53741   9.146   7.244   2.908 -0.1801  0.0672  0.1312
16748SOL    HW153742   9.228   7.293   2.905  0.5425 -1.0245  0.9690
16748SOL    HW253743   9.094   7.287   2.975 -0.3478  0.8164 -0.4640
16749SOL     OW53744   4.070   7.454   5.677  0.4026 -0.1605 -0.4099
16749SOL    HW153745   4.037   7.487   5.594  0.9105 -0.2131 -0.6371
16749SOL    HW253746   4.125   7.379   5.653  0.8539  0.0541 -0.0566
16750SOL     OW53747   4.375   8.068   5.853  0.0748  0.1883  0.0911
16750SOL    HW153748   4.455   8.051   5.903 -1.1524 -0.3505  1.9740
16750SOL    HW253749   4.345   7.982   5.825  0.6180  0.4683 -1.4367
16751SOL     OW53750   9.418   3.273   8.361  0.4460 -0.0882  0.5314
16751SOL    HW153751   9.409   3.280   8.266  0.4863  0.2488  0.5508
16751SOL    HW253752   9.328   3.271   8.393  0.4096  1.4301  0.5930
16752SOL     OW53753   6.697   4.209   1.810 -0.0290  0.5137  0.5233
16752SOL    HW153754   6.629   4.162   1.858 -0.5146  0.7266  0.0423
16752SOL    HW253755   6.650   4.267   1.751  0.5703  0.7330  0.2520
16753SOL     OW53756   8.664   4.317   3.010  0.1703 -0.4512  0.3474
16753SOL    HW153757   8.677   4.341   3.102 -1.7579  0.7512  0.3498
16753SOL    HW253758   8.727   4.370   2.962  1.2193 -1.1135  0.9373
16754SOL     OW53759   8.924   0.254   0.345  0.1178 -0.1043 -0.4318
16754SOL    HW153760   8.906   0.190   0.413  2.8191 -0.3318  0.1883
16754SOL    HW253761   8.898   0.210   0.264  1.7729 -2.0193 -0.0145
16755SOL     OW53762   1.033   7.225   4.522  0.5043 -0.1651  0.1953
16755SOL    HW153763   1.083   7.182   4.591  1.9333 -0.6967 -1.1241
16755SOL    HW253764   1.055   7.177   4.442 -1.7452 -0.1014 -0.5364
16756SOL     OW53765   6.721   5.256   1.229 -0.4675 -0.0171 -0.3023
16756SOL    HW153766   6.648   5.285   1.174  0.3433 -0.2179 -1.5306
16756SOL    HW253767   6.788   5.324   1.218 -0.3691  0.0361  0.5974
16757SOL     OW53768   8.270   2.808   3.017  0.3309  0.3163  0.2882
16757SOL    HW153769   8.198   2.749   3.039 -0.7638  1.5082  0.0403
16757SOL    HW253770   8.265   2.878   3.082  0.8562  0.7379 -0.1141
16758SOL     OW53771   0.444  10.504   1.658 -0.0119 -0.4727 -0.3384
16758SOL    HW153772   0.422  10.565   1.588 -1.3445 -0.8057 -0.2319
16758SOL    HW253773   0.394  10.534   1.734  0.5739 -0.7553  0.1703
16759SOL     OW53774   8.378   1.304   0.780  0.1871  0.2838  0.0500
16759SOL    HW153775   8.354   1.267   0.695 -0.3255 -1.8061  1.0421
16759SOL    HW253776   8.371   1.230   0.841 -1.8572  2.2348  2.3683
16760SOL     OW53777   4.056   9.141   1.813  0.2238  0.0331  0.1612
16760SOL    HW153778   4.041   9.049   1.832 -1.1286  0.3337  0.7017
16760SOL    HW253779   4.054   9.147   1.717 -0.5804 -0.3869  0.1410
16761SOL     OW53780   1.020  10.010   1.793 -0.1173  0.5318 -0.0778
16761SOL    HW153781   1.026  10.084   1.853 -0.9366  1.2453 -0.8397
16761SOL    HW253782   1.108   9.973   1.791  0.1309  1.0488  0.8615
16762SOL     OW53783   6.571   0.252   1.178 -0.1072  0.2390  0.1408
16762SOL    HW153784   6.665   0.263   1.191 -0.0522  0.3599 -0.3455
16762SOL    HW253785   6.552   0.297   1.096 -0.4323 -0.5594 -0.2320
16763SOL     OW53786   0.264   7.452   9.332  0.0007  0.4775  0.0217
16763SOL    HW153787   0.318   7.373   9.324 -1.6650 -0.7471  0.3542
16763SOL    HW253788   0.299   7.495   9.410  1.9950  0.9787 -1.0817
16764SOL     OW53789   1.657   2.273   9.885  0.0750  0.3113  0.1450
16764SOL    HW153790   1.668   2.187   9.843  0.9088 -0.1252  1.2061
16764SOL    HW253791   1.690   2.335   9.820  4.9267 -0.5928  1.3163
16765SOL     OW53792   2.224   6.837  10.972  0.0779  0.6301 -0.3475
16765SOL    HW153793   2.198   6.831  10.880 -0.3874 -1.3357 -0.1239
16765SOL    HW253794   2.240   6.747  10.999 -1.5095  0.9328  1.9635
16766SOL     OW53795   8.978   7.550   0.616  0.2456 -0.1180 -0.2242
16766SOL    HW153796   8.924   7.604   0.673 -0.7164 -1.0897 -0.1802
16766SOL    HW253797   8.996   7.471   0.668  0.1066 -0.6256 -0.9322
16767SOL     OW53798   9.831   7.546   4.867 -0.6603  0.0810 -0.3963
16767SOL    HW153799   9.876   7.628   4.847  1.0082 -1.2132 -2.2268
16767SOL    HW253800   9.819   7.503   4.783 -1.2049 -1.7194  0.5416
16768SOL     OW53801   5.080   3.107   4.814 -0.3499 -0.2691 -0.0422
16768SOL    HW153802   5.030   3.114   4.733 -0.4865  0.0309  0.0623
16768SOL    HW253803   5.128   3.189   4.820 -0.7706 -0.0502  0.4521
16769SOL     OW53804   5.740   9.371   2.812  0.1774  0.3403 -0.0483
16769SOL    HW153805   5.701   9.311   2.876  2.3612  0.8009  1.8342
16769SOL    HW253806   5.810   9.321   2.772 -1.1452  0.0718 -2.1812
16770SOL     OW53807  10.885   1.875   8.384  0.1508  0.2496  0.1019
16770SOL    HW153808  10.790   1.881   8.375 -0.0046  1.4812  2.0690
16770SOL    HW253809  10.918   1.890   8.296 -1.4291  1.1879 -0.3708
16771SOL     OW53810   8.577   6.575   1.148 -0.5201 -0.4792  0.3776
16771SOL    HW153811   8.518   6.530   1.087 -0.8069  0.3630  0.0289
16771SOL    HW253812   8.562   6.668   1.133  1.7712 -0.2069 -0.5933
16772SOL     OW53813   8.018   8.055   8.280 -0.2757 -0.0766  0.3118
16772SOL    HW153814   8.034   8.121   8.348  0.2045  0.3945 -0.2407
16772SOL    HW253815   8.035   8.101   8.198  0.3237 -0.9708 -0.0777
16773SOL     OW53816  10.169   7.656   4.437 -0.0970 -0.5438  0.2252
16773SOL    HW153817  10.170   7.565   4.466 -0.4289 -1.3593 -2.1013
16773SOL    HW253818  10.221   7.655   4.356 -1.4725  0.9910 -0.7208
16774SOL     OW53819   9.357   6.972   3.267  0.4889  0.9397  0.3762
16774SOL    HW153820   9.401   7.010   3.344  0.0698  1.5464  0.3224
16774SOL    HW253821   9.424   6.917   3.226  1.0056  1.3512  0.6532
16775SOL     OW53822   8.982  11.002   2.791  0.0134  0.6469  0.2846
16775SOL    HW153823   8.979  10.956   2.707 -1.1793  0.4578  0.4142
16775SOL    HW253824   8.907  10.968   2.839  1.2205  0.0395  1.8174
16776SOL     OW53825   2.263   4.719   2.482 -0.4500 -1.1594  0.5937
16776SOL    HW153826   2.213   4.801   2.475  0.3640 -0.5096  1.9745
16776SOL    HW253827   2.222   4.660   2.419 -1.5041  0.0874  0.0774
16777SOL     OW53828   4.745   8.903   9.028  0.3278 -0.2962 -0.1626
16777SOL    HW153829   4.838   8.906   9.004  0.3705 -0.7240 -0.0705
16777SOL    HW253830   4.706   8.977   8.982  0.7211 -0.0874 -0.1727
16778SOL     OW53831   6.373  10.956   7.249 -0.2056 -0.0372  0.0004
16778SOL    HW153832   6.370  11.028   7.312 -1.6848  0.2943 -0.4052
16778SOL    HW253833   6.430  10.987   7.179  0.5674  0.0345  0.6576
16779SOL     OW53834   7.373   0.028   0.685  0.1230  0.1991 -0.8149
16779SOL    HW153835   7.316   0.006   0.611  0.1020 -1.8409 -0.2744
16779SOL    HW253836   7.319   0.008   0.762  1.0545 -0.3857 -0.2960
16780SOL     OW53837   6.077  10.039   5.881  0.5281 -0.7714  0.2601
16780SOL    HW153838   6.114   9.998   5.802  1.9809 -1.6150  1.3236
16780SOL    HW253839   6.096  10.132   5.872  1.5034 -0.9859  0.0271
16781SOL     OW53840   6.362   2.050  10.134  0.6596 -0.2728  0.0307
16781SOL    HW153841   6.438   2.100  10.165  0.1327  0.1436  0.6833
16781SOL    HW253842   6.287   2.092  10.176  0.3154 -2.5197  1.8356
16782SOL     OW53843   6.370   5.503   9.558 -0.1207  0.3077  0.8014
16782SOL    HW153844   6.406   5.569   9.619 -0.9573  1.3639  0.1777
16782SOL    HW253845   6.444   5.444   9.542  0.5780  0.9303  1.5892
16783SOL     OW53846   9.140   7.860   1.497  0.1049 -0.3503  0.1013
16783SOL    HW153847   9.225   7.902   1.482 -1.0927  1.7259 -1.2271
16783SOL    HW253848   9.151   7.772   1.461  1.2429  0.3928 -1.5042
16784SOL     OW53849   7.418   5.617   7.521  0.7125 -0.0684  0.4889
16784SOL    HW153850   7.505   5.635   7.557  1.2686 -1.1150 -0.2898
16784SOL    HW253851   7.425   5.530   7.481 -0.5379  0.0570 -0.0697
16785SOL     OW53852   2.474   6.256   3.603  0.2197  0.0832 -0.4961
16785SOL    HW153853   2.427   6.325   3.557 -2.0469 -1.4158 -0.5939
16785SOL    HW253854   2.483   6.185   3.539  0.2253 -0.6691  0.3056
16786SOL     OW53855   8.963   7.830  10.584 -0.1869 -0.1332 -0.0972
16786SOL    HW153856   9.045   7.783  10.568  0.2788  0.6521 -0.0624
16786SOL    HW253857   8.895   7.762  10.577  0.3885 -0.6470 -0.9086
16787SOL     OW53858   5.372   5.379   2.528  0.0186 -0.1162  0.0479
16787SOL    HW153859   5.444   5.368   2.466  0.7972  1.3211  0.6510
16787SOL    HW253860   5.311   5.438   2.484 -0.4775 -0.7855 -0.1826
16788SOL     OW53861   5.035   9.396   2.097  0.3875  0.0962 -0.5036
16788SOL    HW153862   4.965   9.374   2.036  0.3800 -1.0300 -0.1085
16788SOL    HW253863   5.014   9.484   2.128 -1.0329 -0.3507 -0.1504
16789SOL     OW53864   4.724   7.744   9.040  0.0956  0.0649  0.0083
16789SOL    HW153865   4.774   7.714   9.116 -0.3995  0.4971  0.5130
16789SOL    HW253866   4.789   7.752   8.970  0.3166 -1.7935 -0.0404
16790SOL     OW53867   8.333   3.680   4.001 -0.4997  0.4304 -1.1648
16790SOL    HW153868   8.393   3.606   4.012  0.9052  1.8970  2.5386
16790SOL    HW253869   8.250   3.650   4.038 -0.2196  0.3658 -0.5838
16791SOL     OW53870   9.156   9.534   1.628  0.5606  0.7008 -0.2693
16791SOL    HW153871   9.226   9.572   1.576 -0.4500  1.3791 -1.1670
16791SOL    HW253872   9.104   9.609   1.658  1.2336  0.3573  1.9341
16792SOL     OW53873  10.219  10.365   4.216 -0.2887  0.2026 -0.4357
16792SOL    HW153874  10.285  10.303   4.185 -1.0648 -0.6216 -0.4684
16792SOL    HW253875  10.269  10.444   4.237  0.5323  0.0606 -1.7339
16793SOL     OW53876   4.300   2.740  10.185  0.4885 -0.0590  0.3956
16793SOL    HW153877   4.368   2.781  10.132 -0.7910 -0.7787 -1.9077
16793SOL    HW253878   4.227   2.802  10.183  0.4610 -0.0245  1.4941
16794SOL     OW53879   5.838   0.169   9.228 -0.3594  0.3088  0.2479
16794SOL    HW153880   5.802   0.116   9.158  0.6401  0.0020 -0.0497
16794SOL    HW253881   5.890   0.236   9.183 -1.6801  1.6415  0.6026
16795SOL     OW53882  10.145   5.156   4.920  0.6311  0.8508 -0.1564
16795SOL    HW153883  10.182   5.154   4.832  1.8345  1.5809  0.3008
16795SOL    HW253884  10.197   5.223   4.966 -0.1213  0.6456  1.0361
16796SOL     OW53885   8.992   4.310   8.437 -0.4633 -0.1250  0.1862
16796SOL    HW153886   9.064   4.365   8.405 -1.2827 -0.4245 -2.4653
16796SOL    HW253887   8.930   4.372   8.475  1.4218  0.0680  3.1955
16797SOL     OW53888   9.577   6.212   7.277  0.2243  0.2299 -0.7115
16797SOL    HW153889   9.645   6.145   7.270 -0.0319 -0.1357  0.2473
16797SOL    HW253890   9.495   6.165   7.267 -0.1033 -0.0624  2.4359
16798SOL     OW53891   5.482   9.746   5.024 -0.3109 -0.7146 -0.2285
16798SOL    HW153892   5.460   9.837   5.004  0.6790 -0.0347  1.5550
16798SOL    HW253893   5.576   9.739   5.008 -0.3450 -1.3828 -0.2041
16799SOL     OW53894   9.661   6.953   8.218  0.2573  0.3306  0.0429
16799SOL    HW153895   9.699   6.957   8.130  1.2759  0.2763  0.4560
16799SOL    HW253896   9.677   7.040   8.255  1.9081 -0.2987  0.9594
16800SOL     OW53897   8.948  10.776   0.467  0.2072 -0.1392  0.5049
16800SOL    HW153898   8.871  10.773   0.523  0.2465 -0.0808  0.5606
16800SOL    HW253899   8.979  10.866   0.472 -1.2491  0.5620 -1.5800
16801SOL     OW53900  10.149   2.169   6.899  0.4694  0.5787  0.0563
16801SOL    HW153901  10.131   2.205   6.986  0.3678 -0.5185  0.4982
16801SOL    HW253902  10.224   2.111   6.912 -0.6426 -0.9829 -0.2073
16802SOL     OW53903   1.536   4.633   2.264 -0.0094  0.4105 -0.0206
16802SOL    HW153904   1.615   4.649   2.213 -0.1589 -0.6708 -0.6376
16802SOL    HW253905   1.568   4.604   2.349  0.2893 -0.3912 -0.3863
16803SOL     OW53906   1.111   6.636   7.132 -0.1981 -0.6218 -0.3066
16803SOL    HW153907   1.031   6.585   7.122 -1.1106  0.5133  0.8060
16803SOL    HW253908   1.148   6.641   7.044 -0.1105 -3.0579 -0.4735
16804SOL     OW53909   9.314   9.433   0.915  0.2556  0.6129 -0.1321
16804SOL    HW153910   9.309   9.520   0.953  0.7116  0.8355 -0.5741
16804SOL    HW253911   9.380   9.388   0.967 -2.3381 -0.6355  2.3540
16805SOL     OW53912   7.329   5.853   0.809 -0.3114  0.4491  0.2641
16805SOL    HW153913   7.408   5.902   0.785 -0.4137  0.7373  0.5197
16805SOL    HW253914   7.261   5.886   0.750 -0.7520  1.7060  1.4333
16806SOL     OW53915   9.966   6.570   2.064  0.5960  0.5633  0.5814
16806SOL    HW153916  10.005   6.493   2.106 -0.4362  0.3507  1.1744
16806SOL    HW253917  10.040   6.630   2.051  1.4885 -0.6525 -0.2088
16807SOL     OW53918   7.423   9.983  10.714  0.0332 -0.3505  0.2104
16807SOL    HW153919   7.369   9.936  10.777  0.1339  0.4943  0.9422
16807SOL    HW253920   7.506   9.935  10.713 -0.8908 -2.0227 -1.3756
16808SOL     OW53921   3.027   9.100   8.355 -0.3913 -1.1762 -0.0459
16808SOL    HW153922   2.993   9.048   8.428 -0.6559 -1.4026 -0.3297
16808SOL    HW253923   3.100   9.148   8.393 -0.7273 -1.0456  0.4531
16809SOL     OW53924   6.175   0.341   4.359  0.4178 -0.0027 -0.0041
16809SOL    HW153925   6.098   0.317   4.410  0.0516 -1.6521 -1.2490
16809SOL    HW253926   6.139   0.376   4.277  0.9208 -1.6186 -0.9736
16810SOL     OW53927   4.751   1.310   4.224  0.3784  0.1642 -0.4250
16810SOL    HW153928   4.714   1.225   4.249  1.3189 -0.2502 -0.3922
16810SOL    HW253929   4.769   1.354   4.307 -1.2388  0.9314 -0.4371
16811SOL     OW53930   5.093   8.159   9.919  0.0907 -0.1178 -0.1766
16811SOL    HW153931   5.090   8.076   9.966  0.0059  0.5243  1.0029
16811SOL    HW253932   5.114   8.135   9.829 -1.0520 -1.4983 -0.1080
16812SOL     OW53933   9.186   2.806   1.972 -0.4608 -0.1584  0.6078
16812SOL    HW153934   9.159   2.866   2.043  0.7835 -0.7591  1.6180
16812SOL    HW253935   9.249   2.748   2.013  1.5897  0.5245 -1.4184
16813SOL     OW53936   0.028   4.050   2.756 -0.7673 -0.4685  0.1717
16813SOL    HW153937   0.078   4.130   2.772 -1.9190  0.4616 -0.6542
16813SOL    HW253938   0.068   3.985   2.813  0.8808  0.4157  0.1046
16814SOL     OW53939   2.681   8.892   5.688 -0.2491  0.3954  0.2608
16814SOL    HW153940   2.687   8.987   5.705  0.3922  0.4656 -0.3305
16814SOL    HW253941   2.628   8.886   5.608  2.5838  0.4840 -1.7458
16815SOL     OW53942   1.554   3.652   1.742 -0.3028  0.0507 -0.0986
16815SOL    HW153943   1.474   3.689   1.779 -0.5203  0.7292 -1.2078
16815SOL    HW253944   1.603   3.727   1.709 -0.1571 -0.5209 -1.2463
16816SOL     OW53945   3.111   5.830   0.193 -0.2302  0.5841  0.6094
16816SOL    HW153946   3.154   5.868   0.270  0.1360  0.8821  0.2612
16816SOL    HW253947   3.072   5.749   0.225  1.7103 -0.3794  0.6466
16817SOL     OW53948  10.770   7.601   7.301 -0.7373  0.4012  0.0631
16817SOL    HW153949  10.741   7.681   7.256  1.6600  0.5578 -1.3780
16817SOL    HW253950  10.838   7.565   7.244  0.8814 -0.6588  2.5138
16818SOL     OW53951   4.779   4.230   6.262  0.3547 -0.7539  0.3074
16818SOL    HW153952   4.847   4.175   6.300  3.8316  2.6064 -0.4110
16818SOL    HW253953   4.743   4.177   6.190  2.0719 -2.7655  0.8212
16819SOL     OW53954  10.297   0.588  10.617  0.1993  0.0077  0.5380
16819SOL    HW153955  10.260   0.541  10.543  0.6577 -0.8370  0.8275
16819SOL    HW253956  10.390   0.596  10.596  0.3271 -0.2148  1.0053
16820SOL     OW53957   7.756   0.234   5.641  0.2985 -0.0149 -0.0638
16820SOL    HW153958   7.672   0.277   5.658 -0.0795 -0.3922 -0.9412
16820SOL    HW253959   7.807   0.301   5.594  0.1605 -0.0940 -0.3280
16821SOL     OW53960   7.858   6.180   1.901 -0.2537 -0.3978  0.5765
16821SOL    HW153961   7.842   6.160   1.994 -1.1866 -1.2635  0.2462
16821SOL    HW253962   7.806   6.259   1.885  0.7993  0.4174  1.0533
16822SOL     OW53963   9.809   4.914   5.720  0.2493 -0.0281  0.2824
16822SOL    HW153964   9.736   4.955   5.766  0.2591 -1.3114  1.4865
16822SOL    HW253965   9.768   4.846   5.666  0.5429 -0.7215  0.9284
16823SOL     OW53966   8.546   5.344   7.989  0.2868 -0.2343 -0.0219
16823SOL    HW153967   8.633   5.384   7.991 -0.1120  0.6646  1.3100
16823SOL    HW253968   8.557   5.264   7.939  1.9329 -0.2577  0.3249
16824SOL     OW53969   3.339   4.876   9.607  0.2892  0.2248 -0.8739
16824SOL    HW153970   3.406   4.809   9.620  1.7585  1.9439  1.2455
16824SOL    HW253971   3.265   4.829   9.569  2.0391 -2.1063 -1.6403
16825SOL     OW53972  10.241   2.366   8.560 -0.1453  0.1692  0.6476
16825SOL    HW153973  10.163   2.310   8.553 -0.9084  1.3238 -0.7156
16825SOL    HW253974  10.210   2.444   8.606 -0.3134  1.4075 -1.4489
16826SOL     OW53975   3.356   7.661   9.808  0.0675 -0.5702  0.0958
16826SOL    HW153976   3.362   7.753   9.783 -0.3197 -0.5087  0.2255
16826SOL    HW253977   3.298   7.660   9.884  1.5711 -0.7023  1.2902
16827SOL     OW53978   3.389   2.683   0.076  0.2385  0.1178 -0.3878
16827SOL    HW153979   3.439   2.727   0.007  1.0839 -0.1500  0.0419
16827SOL    HW253980   3.322   2.633   0.028 -0.1794  1.1686 -0.9153
16828SOL     OW53981   4.380   4.514   3.031  0.3517 -0.0186 -0.1267
16828SOL    HW153982   4.321   4.568   3.084  0.5954  0.2637 -0.1369
16828SOL    HW253983   4.408   4.444   3.090 -2.7092 -2.2654 -1.0787
16829SOL     OW53984   3.529   5.338   9.927  0.0164  0.2353  0.0931
16829SOL    HW153985   3.610   5.316   9.973  1.1195  2.2304 -0.7694
16829SOL    HW253986   3.467   5.358   9.997  0.7999  0.4548  0.7422
16830SOL     OW53987   8.114   0.146   1.461 -0.0196  0.1966 -0.0383
16830SOL    HW153988   8.129   0.059   1.424  0.8270  1.3243 -2.5352
16830SOL    HW253989   8.041   0.134   1.523 -0.8730 -2.0098 -1.3883
16831SOL     OW53990   8.044   2.788   5.055 -0.2444  0.5018  0.2196
16831SOL    HW153991   8.112   2.721   5.065  0.8788  1.4684 -0.5475
16831SOL    HW253992   8.082   2.866   5.095 -0.6586  1.2119 -0.7367
16832SOL     OW53993  10.511   0.458   4.749  0.3670 -0.0951 -0.1706
16832SOL    HW153994  10.544   0.381   4.702  0.8778 -0.0185  0.0569
16832SOL    HW253995  10.561   0.459   4.831 -0.9093 -0.5698  0.6487
16833SOL     OW53996   3.126   0.164   1.383  0.0851 -0.0809 -0.7193
16833SOL    HW153997   3.092   0.222   1.451  1.3072  1.0889 -1.0578
16833SOL    HW253998   3.141   0.080   1.427  0.5376  0.5631  0.3776
16834SOL     OW53999   3.472   5.597   8.796  0.4796  0.1356  0.2837
16834SOL    HW154000   3.401   5.534   8.794  0.2684  0.3745 -1.2656
16834SOL    HW254001   3.525   5.573   8.872 -0.3691 -1.0211  0.5200
16835SOL     OW54002   2.075   3.274   5.474  0.6422 -0.0518 -0.0922
16835SOL    HW154003   2.053   3.349   5.530  0.5917  0.3522 -0.6471
16835SOL    HW254004   2.069   3.308   5.385 -1.1230 -1.1469 -0.4536
16836SOL     OW54005   3.404   1.802   9.207  0.1939 -0.6809 -0.1170
16836SOL    HW154006   3.482   1.756   9.238 -0.4678 -1.1818  0.8735
16836SOL    HW254007   3.436   1.885   9.174  1.6519 -2.3161 -3.3095
16837SOL     OW54008   7.805   6.343   4.412  0.3055 -0.0976 -0.4461
16837SOL    HW154009   7.829   6.364   4.502  0.5466  1.1867 -0.7850
16837SOL    HW254010   7.733   6.403   4.392 -1.1980 -1.8056 -0.4439
16838SOL     OW54011   1.901  10.303   4.339  0.7000 -0.3290  0.5213
16838SOL    HW154012   1.873  10.378   4.286  0.7537  1.4232  2.8434
16838SOL    HW254013   1.824  10.280   4.390  0.4504 -2.4279 -0.6984
16839SOL     OW54014   0.717   4.936  10.381 -0.2405  0.1336 -0.6881
16839SOL    HW154015   0.714   4.934  10.285 -0.5241  1.0730 -0.7149
16839SOL    HW254016   0.689   5.025  10.403 -0.1928 -0.0833  0.2694
16840SOL     OW54017   4.414  10.317   3.633 -0.2939  0.7575  0.2323
16840SOL    HW154018   4.354  10.384   3.665 -0.6647  0.8725 -0.6847
16840SOL    HW254019   4.497  10.363   3.621  0.1698  0.4751  2.0414
16841SOL     OW54020   5.627   0.709   5.787 -0.0228  0.3125  0.5984
16841SOL    HW154021   5.662   0.638   5.841  0.9099  0.6113  0.4015
16841SOL    HW254022   5.588   0.770   5.850 -1.2956 -0.5919  0.7399
16842SOL     OW54023   3.382  10.034   2.349  0.0843 -0.1882 -0.5135
16842SOL    HW154024   3.346  10.052   2.262  0.4364  0.2749 -0.5699
16842SOL    HW254025   3.353   9.946   2.369  1.2735 -0.9006 -1.7689
16843SOL     OW54026   7.328   1.151   2.772  0.1720  0.0715 -0.0655
16843SOL    HW154027   7.235   1.152   2.795 -0.1121  0.8285 -1.2119
16843SOL    HW254028   7.373   1.137   2.856 -1.0000 -1.2406  0.3814
16844SOL     OW54029   3.807   4.714   3.023  0.3630  0.1255  0.0056
16844SOL    HW154030   3.882   4.772   3.034  0.8488 -0.6678  1.0762
16844SOL    HW254031   3.836   4.650   2.957  0.6936 -0.2555  0.5094
16845SOL     OW54032   7.769   4.451   5.402 -0.2704  1.2624  0.2093
16845SOL    HW154033   7.701   4.497   5.352 -1.0584 -0.9150 -0.8614
16845SOL    HW254034   7.782   4.505   5.480 -2.7440  2.1178  0.1263
16846SOL     OW54035   0.487   7.938   9.802  0.8956 -0.5276 -0.1068
16846SOL    HW154036   0.475   7.980   9.888 -0.2944 -4.5267  1.9419
16846SOL    HW254037   0.569   7.890   9.811  1.2091 -0.2973 -1.6054
16847SOL     OW54038   3.156   3.376   2.420 -0.2467  0.7678 -0.5137
16847SOL    HW154039   3.142   3.447   2.357  0.6037 -0.6778 -2.4511
16847SOL    HW254040   3.250   3.359   2.417 -0.4758 -0.6957 -0.4251
16848SOL     OW54041   7.478  10.389   8.645 -0.0786 -0.1412  0.1078
16848SOL    HW154042   7.549  10.326   8.657 -0.8053 -0.5797  2.6448
16848SOL    HW254043   7.523  10.474   8.642  0.6291 -0.4664  0.9039
16849SOL     OW54044   5.633   3.717   7.451  0.2595 -0.3890  0.3449
16849SOL    HW154045   5.608   3.651   7.386 -1.6323  0.6160 -0.0191
16849SOL    HW254046   5.702   3.767   7.409  1.6409 -2.0011  0.5742
16850SOL     OW54047   5.092   9.661   5.720  0.4260 -0.3422 -0.5710
16850SOL    HW154048   5.156   9.696   5.658 -1.3139  0.9280 -1.7595
16850SOL    HW254049   5.007   9.682   5.681 -0.7502 -2.3450  0.7166
16851SOL     OW54050   7.069   5.027   8.952 -0.5937 -0.1374  0.0530
16851SOL    HW154051   7.038   4.960   8.891 -1.6250 -0.2590  0.6800
16851SOL    HW254052   7.003   5.097   8.946  0.0642  0.4844 -0.0318
16852SOL     OW54053   7.037   6.515   2.818  0.2791  0.5066  1.0388
16852SOL    HW154054   6.970   6.450   2.842 -1.0822  1.6835  0.5664
16852SOL    HW254055   7.066   6.551   2.901  0.6224 -0.2734  1.2718
16853SOL     OW54056   8.155   4.424   8.816 -0.3923 -0.1419  0.7640
16853SOL    HW154057   8.225   4.367   8.848 -1.7151 -1.9396  0.6206
16853SOL    HW254058   8.164   4.422   8.721 -0.5084 -0.1784  0.7543
16854SOL     OW54059   3.917   4.685   2.515 -0.2864  0.1411 -0.2735
16854SOL    HW154060   3.893   4.709   2.426 -1.0326 -0.1692 -0.1645
16854SOL    HW254061   3.857   4.615   2.538  0.2619 -0.1611  0.2824
16855SOL     OW54062  10.727  10.033   6.989 -0.2520 -0.4300  0.1317
16855SOL    HW154063  10.680  10.004   7.067 -1.6758 -2.4410 -1.3862
16855SOL    HW254064  10.673  10.104   6.953 -0.8618 -1.1012 -0.2925
16856SOL     OW54065   9.835   5.030   1.391  0.2201 -0.1070 -0.1912
16856SOL    HW154066   9.828   4.952   1.446  0.0100  0.7880  1.1085
16856SOL    HW254067   9.746   5.063   1.384  0.3201  0.0750 -0.6642
16857SOL     OW54068   3.258   4.660   9.284  0.3632  0.0103  0.0829
16857SOL    HW154069   3.245   4.752   9.261 -1.5478 -0.1595  0.3765
16857SOL    HW254070   3.233   4.654   9.376 -0.2592 -0.9416 -0.1322
16858SOL     OW54071  10.359   9.180   0.966 -0.4456 -0.2364  0.4585
16858SOL    HW154072  10.432   9.204   1.024  0.8844 -1.0243 -0.8129
16858SOL    HW254073  10.380   9.091   0.937 -1.9026 -0.4550 -0.0021
16859SOL     OW54074   7.238   7.458   6.145  0.4010 -0.2170 -0.3683
16859SOL    HW154075   7.170   7.392   6.129  0.4343 -0.4374  0.3637
16859SOL    HW254076   7.317   7.421   6.106  0.0276  0.2202 -1.5833
16860SOL     OW54077   2.659   1.124   2.768  0.1490 -0.0367 -0.0326
16860SOL    HW154078   2.708   1.050   2.805 -2.0932 -2.4411 -1.4989
16860SOL    HW254079   2.571   1.114   2.804 -0.4048  1.5050 -0.8939
16861SOL     OW54080   0.786   2.447   5.487  0.0967 -0.1780 -0.2628
16861SOL    HW154081   0.867   2.445   5.436  0.4589 -1.5772  0.3043
16861SOL    HW254082   0.800   2.382   5.556 -1.7355 -0.8879 -0.5110
16862SOL     OW54083   6.742   9.253   9.053  0.0028 -0.1210 -0.8058
16862SOL    HW154084   6.802   9.271   8.980  1.0695 -0.1554  0.0316
16862SOL    HW254085   6.656   9.278   9.020  0.4748 -0.0410 -2.0403
16863SOL     OW54086   4.275   2.956  10.390  1.1996  0.1566 -0.4763
16863SOL    HW154087   4.335   2.910  10.331  1.0241 -0.0166 -0.5218
16863SOL    HW254088   4.285   2.910  10.474 -0.0333 -0.9172 -0.8773
16864SOL     OW54089   4.501   5.007   3.305 -0.0457  0.1375 -0.1983
16864SOL    HW154090   4.565   4.967   3.246 -1.3955  0.3490 -1.8573
16864SOL    HW254091   4.529   5.099   3.310 -0.0937  0.1891 -0.7700
16865SOL     OW54092   0.410   1.376   8.374  0.1891 -0.1984 -0.0104
16865SOL    HW154093   0.451   1.444   8.320  1.3216 -1.1775 -0.4287
16865SOL    HW254094   0.414   1.411   8.463 -0.2002  0.7253 -0.3422
16866SOL     OW54095   2.265   6.245   9.122  0.2523 -0.5930  0.3815
16866SOL    HW154096   2.217   6.163   9.135 -1.5328  0.5227  1.2917
16866SOL    HW254097   2.221   6.308   9.180  0.0520  1.5891 -1.9605
16867SOL     OW54098   6.312   7.517   3.161 -0.1502 -0.3845  0.4707
16867SOL    HW154099   6.332   7.537   3.253  0.3425 -0.0229  0.2860
16867SOL    HW254100   6.233   7.566   3.142  1.2468  1.7753 -0.0930
16868SOL     OW54101   1.138  10.329   1.617  0.2811  0.3122 -0.0560
16868SOL    HW154102   1.094  10.315   1.701 -1.3045  0.0758 -0.8871
16868SOL    HW254103   1.131  10.424   1.602 -1.1918  0.1178 -0.7986
16869SOL     OW54104   9.556   5.088   0.077  0.2944 -0.0510 -0.1030
16869SOL    HW154105   9.628   5.054   0.130  0.5197 -0.1727 -0.4835
16869SOL    HW254106   9.483   5.027   0.093  0.5045 -0.3541 -0.2900
16870SOL     OW54107   3.235   3.700   6.821  0.6975  0.2889 -0.2384
16870SOL    HW154108   3.256   3.652   6.900 -0.0070  0.6980  0.2178
16870SOL    HW254109   3.186   3.777   6.852 -0.1230  0.1403 -1.1083
16871SOL     OW54110   5.424   8.611   7.143  0.0699 -0.1711  0.1454
16871SOL    HW154111   5.459   8.571   7.063 -2.9948  0.7474 -1.8169
16871SOL    HW254112   5.395   8.698   7.116 -1.6545 -0.0709  2.0645
16872SOL     OW54113   5.291   7.830   7.517 -0.3480  0.2335  0.0673
16872SOL    HW154114   5.340   7.761   7.472 -1.5017 -1.6989  1.6143
16872SOL    HW254115   5.220   7.852   7.457 -0.3055 -0.3656 -0.2073
16873SOL     OW54116   6.822   9.273   8.788 -0.2867  0.2979 -0.2673
16873SOL    HW154117   6.805   9.362   8.758  0.0012 -0.3049 -2.3218
16873SOL    HW254118   6.907   9.251   8.752 -1.1741 -1.4672 -1.4190
16874SOL     OW54119   4.844   3.925   3.352  0.5219 -0.4844 -0.4732
16874SOL    HW154120   4.897   3.935   3.430  0.9455  0.7536 -0.8862
16874SOL    HW254121   4.826   4.015   3.324  0.4355 -0.8977 -1.8309
16875SOL     OW54122   5.609   1.450   8.537  0.5849 -0.0978  0.2649
16875SOL    HW154123   5.583   1.515   8.471 -1.0710  0.2805  1.2376
16875SOL    HW254124   5.613   1.367   8.489 -2.1009 -0.1160 -0.1015
16876SOL     OW54125   6.658   3.566   7.147  0.4726 -0.0111 -0.9539
16876SOL    HW154126   6.685   3.517   7.070 -0.8216 -1.8600 -0.3201
16876SOL    HW254127   6.722   3.542   7.214  0.0757 -0.5664 -0.7581
16877SOL     OW54128   1.357  10.921   7.226 -0.6581 -0.0644 -0.0733
16877SOL    HW154129   1.284  10.895   7.169 -0.6226 -0.3042 -0.0079
16877SOL    HW254130   1.406  10.985   7.174 -0.2361 -0.7881 -0.5830
16878SOL     OW54131   2.627   5.671   7.741  0.0293  0.1656 -0.2098
16878SOL    HW154132   2.571   5.697   7.814  0.3748 -0.4772  0.2882
16878SOL    HW254133   2.689   5.743   7.732 -0.5160  0.6266 -0.4076
16879SOL     OW54134   7.480   3.222   6.054 -0.4573 -0.1077  0.7739
16879SOL    HW154135   7.510   3.277   6.127 -0.1088 -0.7165  1.1010
16879SOL    HW254136   7.533   3.142   6.062  0.3068  0.2164 -0.7391
16880SOL     OW54137   6.426   5.371   5.226 -0.0208 -0.0415  0.0670
16880SOL    HW154138   6.455   5.413   5.145  0.2265  1.6079  0.9557
16880SOL    HW254139   6.359   5.430   5.261  2.0138  0.9972  2.5806
16881SOL     OW54140   1.038   8.865   0.280  0.2526 -0.0289  0.2771
16881SOL    HW154141   1.060   8.958   0.268  0.5285 -0.1174  0.0786
16881SOL    HW254142   1.034   8.830   0.191 -0.4137 -0.0817  0.3240
16882SOL     OW54143   4.726   6.304   7.104  0.3477 -0.4227  0.0806
16882SOL    HW154144   4.782   6.281   7.178  0.4315  0.1405  0.1998
16882SOL    HW254145   4.646   6.254   7.118  0.0294  0.3166  1.0199
16883SOL     OW54146   8.487   1.034   5.141  0.4396 -0.1682 -1.0184
16883SOL    HW154147   8.413   0.984   5.104  0.8488  0.0538 -2.1985
16883SOL    HW254148   8.460   1.125   5.132 -0.4808 -0.1185  1.5172
16884SOL     OW54149   7.034   3.861   5.182  0.5059 -0.3255  0.3896
16884SOL    HW154150   7.040   3.949   5.145 -1.1566  0.1074  1.0572
16884SOL    HW254151   7.102   3.811   5.136  1.0164  1.1167 -0.4995
16885SOL     OW54152   9.509   8.317   1.433 -0.1460  0.3502 -0.0550
16885SOL    HW154153   9.508   8.401   1.387 -1.5037  0.2744 -0.2133
16885SOL    HW254154   9.431   8.272   1.401  1.0836 -1.4138 -0.7545
16886SOL     OW54155   5.828   7.248   8.811  0.4083  0.1979 -0.4503
16886SOL    HW154156   5.869   7.163   8.827  0.5212  0.1990 -0.7277
16886SOL    HW254157   5.846   7.299   8.890  0.0227 -0.1602 -0.1295
16887SOL     OW54158   5.453   1.378   7.888 -0.1343 -0.4205  0.4071
16887SOL    HW154159   5.459   1.325   7.809 -0.5130 -0.3499  0.3306
16887SOL    HW254160   5.367   1.419   7.884  0.5145  0.9718 -0.0136
16888SOL     OW54161   0.377   1.316   6.016 -0.0797  0.1429  0.6068
16888SOL    HW154162   0.353   1.376   5.946 -1.9994 -2.2656 -0.9431
16888SOL    HW254163   0.301   1.315   6.074 -0.6420 -1.6858 -0.0968
16889SOL     OW54164   4.494   9.523   9.508 -0.1761  0.0916 -0.1336
16889SOL    HW154165   4.559   9.459   9.538 -0.4766 -1.0370 -1.7622
16889SOL    HW254166   4.541   9.576   9.444 -0.8985 -0.9370 -1.5626
16890SOL     OW54167   3.044   4.362   7.939  0.6114  0.1466  0.1837
16890SOL    HW154168   3.103   4.372   8.013  0.9634  1.4784 -0.2442
16890SOL    HW254169   2.957   4.364   7.978  0.8139 -0.7157  0.7067
16891SOL     OW54170   0.747   9.064   2.015  0.2695 -0.4252 -0.2692
16891SOL    HW154171   0.729   8.997   2.081 -1.2948 -0.1810 -0.4102
16891SOL    HW254172   0.751   9.146   2.065 -1.0561 -0.2219 -0.4789
16892SOL     OW54173   7.773  10.095   4.054 -0.8070 -0.4112 -0.2748
16892SOL    HW154174   7.727  10.024   4.099 -2.0347 -0.0132 -0.8552
16892SOL    HW254175   7.846  10.052   4.010 -1.0862 -1.1936  0.0034
16893SOL     OW54176   6.796   7.798   2.210  0.0246 -0.2330 -0.1706
16893SOL    HW154177   6.768   7.772   2.298  0.4285 -1.2605 -0.3293
16893SOL    HW254178   6.715   7.814   2.163 -0.2752 -1.5337 -0.1412
16894SOL     OW54179   4.902   0.729   7.776  0.4510 -0.8509 -0.2642
16894SOL    HW154180   4.839   0.801   7.785  2.5282  1.0040  0.4858
16894SOL    HW254181   4.927   0.731   7.683  1.9350  0.8019  0.1047
16895SOL     OW54182   6.836   9.932   6.837  0.0064  0.2176 -0.1452
16895SOL    HW154183   6.770   9.981   6.788 -0.0178  0.0237 -0.3069
16895SOL    HW254184   6.905   9.914   6.774 -0.6188 -1.1913 -0.4763
16896SOL     OW54185   6.293   7.415   6.945 -0.1219 -0.8125 -0.3634
16896SOL    HW154186   6.273   7.481   6.880 -0.7381 -0.6532 -0.0143
16896SOL    HW254187   6.253   7.335   6.912  0.6580 -1.0343 -0.8064
16897SOL     OW54188   2.159   2.285   3.808 -0.2422  0.4778  0.2651
16897SOL    HW154189   2.181   2.326   3.891  3.0989 -1.1487  0.3122
16897SOL    HW254190   2.082   2.231   3.828 -0.4153  1.2582  1.8884
16898SOL     OW54191   6.288   9.566   9.306 -0.4561  0.1281  0.3497
16898SOL    HW154192   6.298   9.642   9.364 -0.9123 -0.4431  1.1911
16898SOL    HW254193   6.343   9.587   9.230 -2.3760  2.3402 -0.5403
16899SOL     OW54194  10.722   9.494   1.213 -0.1239  0.3306 -0.1836
16899SOL    HW154195  10.683   9.554   1.277 -0.3695  0.2240 -0.2334
16899SOL    HW254196  10.814   9.487   1.240  0.3272  1.9895 -1.1049
16900SOL     OW54197   6.277   1.809   6.157 -0.5884  0.0532 -0.0013
16900SOL    HW154198   6.318   1.852   6.231  1.5325 -0.5136 -0.7797
16900SOL    HW254199   6.263   1.719   6.186 -1.5522  0.2942  0.3342
16901SOL     OW54200   0.382   6.163  10.624 -0.0062  0.2443 -0.1962
16901SOL    HW154201   0.296   6.194  10.593 -0.5425 -0.9287  0.0870
16901SOL    HW254202   0.430   6.244  10.642 -0.6854  0.9388 -1.3155
16902SOL     OW54203  10.369   3.641   9.286 -0.0924  0.1341 -0.4627
16902SOL    HW154204  10.384   3.716   9.343  2.5914  0.5871 -1.5786
16902SOL    HW254205  10.414   3.569   9.329 -0.1566 -0.1159 -0.8078
16903SOL     OW54206   6.218   1.847  10.004 -0.3872  0.2774  0.3133
16903SOL    HW154207   6.268   1.894  10.071 -0.1742 -1.5184  1.4781
16903SOL    HW254208   6.143   1.903   9.986  1.3267  2.4452 -0.5462
16904SOL     OW54209   7.596   4.242   3.155 -0.0148 -0.3250 -0.0522
16904SOL    HW154210   7.644   4.278   3.229 -1.7694 -1.0778  1.5395
16904SOL    HW254211   7.663   4.222   3.090  1.6198  0.1087  1.4323
16905SOL     OW54212   3.665   4.741  11.002 -0.3273  0.4502  0.1838
16905SOL    HW154213   3.634   4.749  10.912 -1.9351  1.2978  0.7699
16905SOL    HW254214   3.586   4.727  11.054  0.6425 -0.9775  1.3953
16906SOL     OW54215   5.401   9.393   6.911 -0.0675  0.0081 -0.6276
16906SOL    HW154216   5.349   9.473   6.923  0.7816  0.4020  0.6928
16906SOL    HW254217   5.415   9.361   7.001  0.1476 -1.2791 -1.1017
16907SOL     OW54218   9.297   8.163   7.975 -0.2851  1.3575  0.2829
16907SOL    HW154219   9.258   8.240   8.017  1.8912  2.7780 -0.1277
16907SOL    HW254220   9.391   8.171   7.993  0.1494 -0.5005 -0.9040
16908SOL     OW54221   2.149   8.167   1.548  0.3208  0.4132  0.1337
16908SOL    HW154222   2.179   8.178   1.458  2.2760  0.4300  0.7368
16908SOL    HW254223   2.107   8.081   1.549  1.8856 -0.4009 -0.4303
16909SOL     OW54224   4.959   7.527   5.214 -0.0236  0.0613 -0.5334
16909SOL    HW154225   4.872   7.562   5.192  0.5215  1.8157 -0.0335
16909SOL    HW254226   4.943   7.467   5.286 -0.8113  0.4853 -0.3425
16910SOL     OW54227   2.724   4.489   3.572  0.1436 -0.6747  0.3879
16910SOL    HW154228   2.647   4.527   3.528 -0.1441 -1.3164  0.3276
16910SOL    HW254229   2.687   4.429   3.637  0.5929 -1.1614  0.2035
16911SOL     OW54230   6.430   1.324   2.942 -0.1094 -0.1990  0.6372
16911SOL    HW154231   6.497   1.359   2.883  0.0585  2.2659  2.1472
16911SOL    HW254232   6.356   1.303   2.885  0.6824  0.3839 -0.6426
16912SOL     OW54233   4.242   5.275   8.524 -0.4312 -0.6749  0.2166
16912SOL    HW154234   4.241   5.183   8.496 -0.7701 -1.2617  1.9809
16912SOL    HW254235   4.153   5.305   8.508  0.2341  0.1272 -2.5304
16913SOL     OW54236   9.547   1.246   8.754  0.1518 -0.3006 -0.0611
16913SOL    HW154237   9.522   1.324   8.804  0.5468 -0.2284  0.0244
16913SOL    HW254238   9.565   1.179   8.821  0.1926 -0.3507 -0.1227
16914SOL     OW54239   6.222   1.198   4.707  0.3096  0.7897  0.2719
16914SOL    HW154240   6.212   1.170   4.616 -1.4428 -0.9776  0.9439
16914SOL    HW254241   6.205   1.292   4.704 -0.6662  0.6130 -1.1170
16915SOL     OW54242   2.461   8.131   2.486  0.2216 -0.3868  0.4195
16915SOL    HW154243   2.377   8.086   2.481  0.2863 -0.4823  0.1225
16915SOL    HW254244   2.523   8.071   2.445  0.3588 -0.1487  0.2727
16916SOL     OW54245   0.629   9.738   4.705  0.3909 -0.1332 -0.1802
16916SOL    HW154246   0.607   9.794   4.780  0.9196  0.6516 -0.5967
16916SOL    HW254247   0.573   9.769   4.634  1.2677  0.4323 -0.6435
16917SOL     OW54248  10.952   8.637   4.933  0.1181  0.3347  0.9616
16917SOL    HW154249  10.945   8.567   4.998  1.4578  1.2983  2.2182
16917SOL    HW254250  11.018   8.605   4.871 -0.9888 -0.4842  0.1709
16918SOL     OW54251   3.305   4.952   1.064  0.2799  0.1861  0.3031
16918SOL    HW154252   3.397   4.929   1.050 -0.0945 -0.9086 -0.5346
16918SOL    HW254253   3.307   5.041   1.101  1.6593  0.2248  0.1683
16919SOL     OW54254   9.112   4.255   2.409 -0.3897 -0.4798 -0.1108
16919SOL    HW154255   9.041   4.301   2.364 -0.6067  1.4756  2.0456
16919SOL    HW254256   9.087   4.256   2.501  2.0011 -0.5441  0.5988
16920SOL     OW54257   0.600   0.500   3.759  0.0453  0.0081 -0.5957
16920SOL    HW154258   0.693   0.513   3.743  0.1519 -0.4658 -0.4041
16920SOL    HW254259   0.572   0.579   3.805  0.0171  0.8070 -1.9392
16921SOL     OW54260   8.356   7.322   9.712  0.7607  0.2188 -0.4593
16921SOL    HW154261   8.341   7.345   9.620 -0.9125  0.5111 -0.1486
16921SOL    HW254262   8.438   7.273   9.711  1.5863  1.5184 -1.8930
16922SOL     OW54263   8.183   0.432   9.336  0.5147  0.5373  0.5282
16922SOL    HW154264   8.212   0.396   9.252  0.4159  0.6944  0.4255
16922SOL    HW254265   8.217   0.522   9.337 -0.8141  1.0660 -0.0378
16923SOL     OW54266   8.203   4.587   4.533 -0.5747 -0.9323 -0.5109
16923SOL    HW154267   8.168   4.674   4.552  0.4090 -0.6613  0.1443
16923SOL    HW254268   8.298   4.600   4.528 -0.1565 -2.3543  1.9589
16924SOL     OW54269   4.366   0.451   9.506 -0.2328  0.1316  0.0496
16924SOL    HW154270   4.453   0.489   9.495 -0.5882  2.1637  2.9614
16924SOL    HW254271   4.365   0.420   9.597 -1.9155 -1.7276 -0.5299
16925SOL     OW54272   7.067   1.432   6.867 -0.1553  0.4271  0.4509
16925SOL    HW154273   7.124   1.431   6.944  1.0487 -0.7662 -0.4021
16925SOL    HW254274   6.983   1.399   6.899  0.4202 -0.3640  1.1944
16926SOL     OW54275   6.643   1.498  10.974  0.0568 -0.2317 -0.3429
16926SOL    HW154276   6.662   1.503  11.067 -2.5833 -0.1915  0.2827
16926SOL    HW254277   6.656   1.406  10.951  2.1115  0.0110 -0.3359
16927SOL     OW54278   8.573   6.157   7.458 -0.7642 -0.5212  0.2742
16927SOL    HW154279   8.628   6.157   7.536 -1.2175  1.1589  0.6341
16927SOL    HW254280   8.484   6.154   7.492 -0.9400 -1.2196 -0.2365
16928SOL     OW54281   0.258   6.785   2.936 -0.3738 -1.2207 -0.4887
16928SOL    HW154282   0.183   6.788   2.877 -0.3089 -0.6789 -0.5495
16928SOL    HW254283   0.227   6.823   3.018 -0.6288 -2.4842  0.0374
16929SOL     OW54284   3.733   6.183   9.551 -0.1211 -0.5465 -0.5643
16929SOL    HW154285   3.765   6.180   9.641  1.1112 -0.2860 -0.9781
16929SOL    HW254286   3.812   6.182   9.497 -0.8305 -0.3569 -1.6370
16930SOL     OW54287   5.131   9.755   5.126 -0.0172 -0.5481  0.0702
16930SOL    HW154288   5.107   9.692   5.193  2.0836 -1.2706  0.2290
16930SOL    HW254289   5.176   9.825   5.173  0.5810 -0.5658 -0.4582
16931SOL     OW54290   3.441   9.069   2.450  0.4129 -0.3191 -0.1366
16931SOL    HW154291   3.431   9.022   2.533 -1.0039 -0.3245 -0.2877
16931SOL    HW254292   3.427   9.003   2.382 -1.5634  0.2643 -0.3511
16932SOL     OW54293   2.833   9.493   3.764 -0.1035  0.4494 -0.4806
16932SOL    HW154294   2.847   9.445   3.682  0.5478 -0.9991  0.4402
16932SOL    HW254295   2.776   9.436   3.816 -1.3940  1.8360 -0.3143
16933SOL     OW54296   5.205   1.927   1.278  0.0512  0.6373 -0.2466
16933SOL    HW154297   5.246   1.874   1.346  0.1327 -0.1621 -0.9040
16933SOL    HW254298   5.274   1.984   1.246 -0.5861  2.9421  2.1187
16934SOL     OW54299   5.974   0.998   9.720 -0.1986  0.1496 -0.2636
16934SOL    HW154300   5.883   0.988   9.750  0.0804  0.9242  0.9017
16934SOL    HW254301   5.996   1.088   9.742  0.9163 -0.0861 -0.3839
16935SOL     OW54302   3.994   9.348   3.896 -0.1620 -0.0043  0.2195
16935SOL    HW154303   3.998   9.266   3.944  1.0150  0.6360  1.2750
16935SOL    HW254304   3.905   9.380   3.910 -0.3476 -0.6508  0.5460
16936SOL     OW54305  10.154   8.601   1.368 -0.5900  0.1681  0.5080
16936SOL    HW154306  10.180   8.609   1.460 -0.3448  1.0905  0.3701
16936SOL    HW254307  10.228   8.639   1.320  0.0908 -1.9156 -0.1784
16937SOL     OW54308   9.379   7.981   1.174  0.2524 -0.1779 -0.0186
16937SOL    HW154309   9.462   8.028   1.176  1.4427 -2.1837  0.8510
16937SOL    HW254310   9.329   8.017   1.247  0.1873  1.2839 -0.7553
16938SOL     OW54311   5.743   7.908   1.587 -0.1595 -0.1028  0.2543
16938SOL    HW154312   5.692   7.848   1.641  1.1406 -1.1398  0.3789
16938SOL    HW254313   5.814   7.937   1.645 -0.8373  1.7050  0.2508
16939SOL     OW54314   9.460   8.563   0.392 -0.3584  0.3336 -0.1845
16939SOL    HW154315   9.468   8.593   0.483  0.7052  2.0520 -0.7987
16939SOL    HW254316   9.394   8.494   0.395 -0.2178  0.2397  1.9196
16940SOL     OW54317   7.574   6.355  10.341 -0.4299  0.3478  0.5650
16940SOL    HW154318   7.539   6.443  10.342 -3.0696 -0.5889 -0.7117
16940SOL    HW254319   7.579   6.331  10.249 -0.2749 -1.0198  0.8973
16941SOL     OW54320   6.158   6.099   4.304  0.7340 -0.2494 -0.3383
16941SOL    HW154321   6.110   6.056   4.375  1.5790 -2.0104 -0.7730
16941SOL    HW254322   6.167   6.190   4.333  1.0493 -0.9073  1.8019
16942SOL     OW54323   9.781   8.252   7.528  0.0962 -0.1130  0.7165
16942SOL    HW154324   9.711   8.188   7.537  0.5715 -0.5682  1.2747
16942SOL    HW254325   9.828   8.224   7.449  0.0316 -0.1869  0.7040
16943SOL     OW54326   8.532   6.750   3.213  0.0597  0.4345 -0.3440
16943SOL    HW154327   8.622   6.756   3.181  0.5329  0.8567  0.9810
16943SOL    HW254328   8.518   6.832   3.261 -1.6236  1.1264 -1.9090
16944SOL     OW54329   3.129   7.272   8.689  0.2264 -0.1646  0.1061
16944SOL    HW154330   3.121   7.180   8.666 -0.5811  0.0508 -0.5236
16944SOL    HW254331   3.137   7.317   8.604 -1.3844  0.5196  0.2919
16945SOL     OW54332   7.821   2.216   1.531  0.0389  0.7603  0.1742
16945SOL    HW154333   7.798   2.149   1.467  2.2468 -0.3245  0.4306
16945SOL    HW254334   7.843   2.293   1.479  0.0272  0.4669 -0.2697
16946SOL     OW54335   0.872   5.489   5.914  0.2256  0.1465 -0.4963
16946SOL    HW154336   0.826   5.572   5.901  1.7514  1.1044 -0.0368
16946SOL    HW254337   0.964   5.511   5.901  0.6635 -1.4930 -0.3587
16947SOL     OW54338   1.666   4.414   2.999  0.2397 -0.5574 -0.6818
16947SOL    HW154339   1.699   4.377   3.081 -0.4432  0.2928 -0.0081
16947SOL    HW254340   1.735   4.474   2.970 -0.1225  0.2129  0.0267
16948SOL     OW54341   5.071   0.330   8.948  0.1681 -0.8396 -0.2353
16948SOL    HW154342   5.077   0.267   9.020 -1.2523  0.3659  1.0171
16948SOL    HW254343   5.099   0.413   8.986 -2.8361  0.3273 -0.2835
16949SOL     OW54344  10.206   0.713   2.586 -0.4302 -0.1544  0.0474
16949SOL    HW154345  10.135   0.752   2.536 -0.4936  2.2960  1.8520
16949SOL    HW254346  10.163   0.654   2.647 -0.7407 -0.0678 -0.0890
16950SOL     OW54347   1.550   4.230   9.162  0.2591 -0.5864  0.6024
16950SOL    HW154348   1.575   4.271   9.079 -1.3799 -1.3537 -0.3403
16950SOL    HW254349   1.617   4.164   9.178  0.3072 -0.8091 -0.4399
16951SOL     OW54350   5.870   6.211   8.671 -0.1524  0.2819  0.1289
16951SOL    HW154351   5.807   6.277   8.645  0.0788  0.0821 -0.9848
16951SOL    HW254352   5.882   6.156   8.594  0.5470 -0.3533  0.6619
16952SOL     OW54353   0.946   3.551   0.792 -0.2922  0.5711  0.0221
16952SOL    HW154354   0.903   3.481   0.743  0.3065  0.5346 -0.4716
16952SOL    HW254355   0.916   3.632   0.750 -0.0690  0.5554 -0.1714
16953SOL     OW54356   6.791   9.029   8.611  0.1278 -0.1955  0.2479
16953SOL    HW154357   6.751   9.089   8.673  0.6572  1.3466 -0.8425
16953SOL    HW254358   6.775   9.069   8.525  2.5423 -0.3476 -0.3395
16954SOL     OW54359   0.178   6.173   5.007 -0.4192  0.3621 -0.6688
16954SOL    HW154360   0.147   6.137   5.090  2.4809  0.1184  0.4474
16954SOL    HW254361   0.142   6.261   5.005 -1.8699 -0.1802  0.0327
16955SOL     OW54362   4.086   9.715   0.474  0.5016 -0.0572 -0.4546
16955SOL    HW154363   4.010   9.744   0.424  1.5990  2.3579 -0.8693
16955SOL    HW254364   4.158   9.715   0.410  1.3948  0.5190  0.5154
16956SOL     OW54365   7.040   9.187   3.412 -0.7234 -0.0684 -0.0112
16956SOL    HW154366   6.983   9.171   3.487  0.1627  0.6297  0.8257
16956SOL    HW254367   7.010   9.271   3.377  0.2768  0.6857  0.9044
16957SOL     OW54368  11.000   8.194   9.387 -0.1608  0.6211 -0.2213
16957SOL    HW154369  11.070   8.140   9.350 -0.8178 -1.3962  1.3043
16957SOL    HW254370  11.033   8.220   9.473 -0.9643  0.2763  0.2016
16958SOL     OW54371   5.820   4.291   6.247 -0.5310  0.1351  0.1455
16958SOL    HW154372   5.902   4.296   6.296 -0.3140  1.5079 -0.3083
16958SOL    HW254373   5.753   4.323   6.308 -0.4452  0.6779 -0.0341
16959SOL     OW54374   4.277   3.530   0.752  0.1259  0.3609  0.5196
16959SOL    HW154375   4.340   3.601   0.755 -0.9844  1.3880  0.0345
16959SOL    HW254376   4.221   3.544   0.829 -0.5287  0.4393  0.0414
16960SOL     OW54377   8.401   4.107   6.458 -0.4341 -0.2614 -0.3031
16960SOL    HW154378   8.404   4.023   6.411  0.0373 -0.8117  0.6921
16960SOL    HW254379   8.340   4.093   6.529 -0.9597  0.5004 -0.5899
16961SOL     OW54380  10.914   7.587   4.430 -0.4154  0.2181  0.2967
16961SOL    HW154381  10.960   7.599   4.513  1.5926 -0.9134 -0.5613
16961SOL    HW254382  10.831   7.634   4.440  1.0853  2.7747  1.8193
16962SOL     OW54383   0.128  10.575   0.269  0.1851 -0.6141  0.2463
16962SOL    HW154384   0.168  10.630   0.202 -0.6934  0.3545  0.4873
16962SOL    HW254385   0.194  10.508   0.288  0.5552 -0.7416 -1.3695
16963SOL     OW54386   8.180   2.614   4.307 -0.0134 -0.3619  0.3577
16963SOL    HW154387   8.209   2.574   4.225 -1.7676 -0.7622 -0.0974
16963SOL    HW254388   8.150   2.701   4.282 -2.7711 -1.2949  0.0840
16964SOL     OW54389   2.557   5.214   3.741  0.1101  0.3638 -0.0933
16964SOL    HW154390   2.606   5.291   3.769  0.2777  0.6137 -1.0440
16964SOL    HW254391   2.469   5.248   3.722  0.0031  0.1997  0.1051
16965SOL     OW54392   6.501   0.778   8.990 -0.2600 -0.2477 -0.2400
16965SOL    HW154393   6.550   0.695   8.985 -0.4591 -0.3011 -3.3841
16965SOL    HW254394   6.409   0.751   8.988 -0.3827  0.0096  1.1841
16966SOL     OW54395   2.305   0.899   4.500 -0.8958 -0.2422 -1.2502
16966SOL    HW154396   2.257   0.968   4.455 -1.8901 -0.6591 -0.8459
16966SOL    HW254397   2.262   0.891   4.585  0.1082 -0.3913 -0.7335
16967SOL     OW54398   4.966   6.172   4.865  0.1947  0.2698 -0.3325
16967SOL    HW154399   5.006   6.227   4.797  2.7679 -0.1991  0.7034
16967SOL    HW254400   5.039   6.144   4.920 -1.3398 -2.2723  0.5885
16968SOL     OW54401   0.164   1.773   4.414 -0.2483 -0.2706 -0.0095
16968SOL    HW154402   0.169   1.685   4.451  0.5636 -0.0322  0.4692
16968SOL    HW254403   0.119   1.824   4.481  1.7719  0.3048  0.9852
16969SOL     OW54404   9.408   2.769   1.329 -0.6712  0.4995  0.7566
16969SOL    HW154405   9.442   2.798   1.245  0.2147 -2.6580 -0.1135
16969SOL    HW254406   9.481   2.779   1.390 -0.2503 -0.1915  0.3800
16970SOL     OW54407   9.915   8.737   4.706 -0.2148 -0.3265 -0.2816
16970SOL    HW154408   9.947   8.673   4.770  1.8746 -0.2321 -1.1259
16970SOL    HW254409   9.993   8.789   4.684 -0.4613 -1.1103 -3.7236
16971SOL     OW54410   3.094   0.763   1.315 -0.2987  0.9912  0.2307
16971SOL    HW154411   3.154   0.732   1.383 -0.6230 -2.9369 -1.0322
16971SOL    HW254412   3.008   0.764   1.357 -0.2591  0.1966  0.3476
16972SOL     OW54413   5.914   4.066   0.607 -0.2762 -0.6971  0.2976
16972SOL    HW154414   5.857   4.141   0.593  2.3497  1.3360 -0.4536
16972SOL    HW254415   5.914   4.020   0.523  0.7404  0.5022 -0.3871
16973SOL     OW54416   6.586   8.383   7.963  0.2513  0.2401 -0.4241
16973SOL    HW154417   6.523   8.375   7.892 -0.0331  1.6110 -0.3545
16973SOL    HW254418   6.658   8.435   7.927  0.3614  0.4753  0.1103
16974SOL     OW54419   6.944   0.054   7.808 -0.1858  0.4354 -0.4908
16974SOL    HW154420   7.031   0.075   7.772 -0.4424  0.8979 -0.8489
16974SOL    HW254421   6.963  -0.001   7.884  0.5182  2.0710  0.5635
16975SOL     OW54422   1.872   9.487   3.008 -0.8743  0.4472 -0.1207
16975SOL    HW154423   1.958   9.520   2.982 -0.2762 -0.2682  0.8839
16975SOL    HW254424   1.852   9.419   2.943 -0.0022 -0.3982  0.4686
16976SOL     OW54425   7.592  10.084   5.637  0.1832 -0.6085  0.2002
16976SOL    HW154426   7.545  10.009   5.674  1.9782 -1.5481  0.7108
16976SOL    HW254427   7.583  10.153   5.703  0.3454 -1.1093  0.7587
16977SOL     OW54428   7.995   1.355   2.584  0.3155  0.1436  0.0545
16977SOL    HW154429   7.955   1.385   2.666  0.6981 -0.4004  0.4537
16977SOL    HW254430   7.974   1.261   2.581 -0.0820  0.2495 -0.7054
16978SOL     OW54431  10.182   8.002   9.025  0.2753 -0.3894  0.8960
16978SOL    HW154432  10.249   8.058   8.985 -0.3041 -0.5031 -0.2803
16978SOL    HW254433  10.143   7.955   8.951 -1.4053 -0.0011  1.4959
16979SOL     OW54434   7.134   9.174   4.816  0.3982  0.2983  0.2456
16979SOL    HW154435   7.135   9.176   4.720  0.3746 -2.4916  0.1104
16979SOL    HW254436   7.188   9.098   4.839  0.2099  0.7617  2.4460
16980SOL     OW54437   1.043   2.601   7.486 -0.0443  0.0796  0.1141
16980SOL    HW154438   1.060   2.663   7.415 -2.1543 -0.3346 -0.8510
16980SOL    HW254439   1.089   2.637   7.562 -0.4145  2.3134 -0.6464
16981SOL     OW54440   9.167   6.493   8.109 -0.7112 -0.3781 -0.1533
16981SOL    HW154441   9.103   6.454   8.170 -0.1059 -0.6781  0.3006
16981SOL    HW254442   9.204   6.419   8.063  1.3007 -0.5152  1.5462
16982SOL     OW54443   3.107   9.743   9.584 -0.2735  0.6919  0.1809
16982SOL    HW154444   3.034   9.739   9.646 -0.7144  1.1389 -0.3026
16982SOL    HW254445   3.185   9.733   9.639 -0.6794  0.5609  0.7469
16983SOL     OW54446   6.502   2.020   0.412 -0.5281  0.4103  0.5132
16983SOL    HW154447   6.568   2.089   0.417 -0.5241  0.3400  1.6891
16983SOL    HW254448   6.531   1.965   0.338  0.5099  0.6111  0.7453
16984SOL     OW54449   6.312   9.820  10.038  0.2326  0.2274  0.0664
16984SOL    HW154450   6.249   9.882  10.074  1.1502  0.3116  1.6202
16984SOL    HW254451   6.261   9.740  10.021 -0.5802  0.7901 -0.1977
16985SOL     OW54452   2.175   4.770   0.096  0.1207  0.2881  0.0234
16985SOL    HW154453   2.129   4.851   0.117 -0.1041  0.5220 -1.2875
16985SOL    HW254454   2.104   4.705   0.088  0.2678  0.0418  0.7238
16986SOL     OW54455   2.285   5.308   4.903  0.2784 -0.0074  0.6593
16986SOL    HW154456   2.242   5.375   4.850  1.3949  0.5424  0.3982
16986SOL    HW254457   2.324   5.249   4.838 -0.8953 -1.0726  0.8847
16987SOL     OW54458  10.299   2.324   1.556 -0.3654 -0.5500 -0.3885
16987SOL    HW154459  10.384   2.283   1.569 -0.5139 -1.2554 -1.5076
16987SOL    HW254460  10.242   2.285   1.622 -0.4176 -1.9243 -1.2140
16988SOL     OW54461   0.825   1.202   9.889  0.1939 -0.0992  0.2206
16988SOL    HW154462   0.900   1.178   9.942 -0.0780  1.2825  1.2909
16988SOL    HW254463   0.750   1.192   9.947 -0.1385  1.1722  0.0363
16989SOL     OW54464   5.595   8.580   6.362  0.0011 -0.1889  0.0170
16989SOL    HW154465   5.598   8.508   6.298 -0.2198 -0.2606  0.0856
16989SOL    HW254466   5.527   8.638   6.329  1.1494  0.7229 -0.8029
16990SOL     OW54467   0.323   3.174  10.687  0.0046 -0.0241 -0.0557
16990SOL    HW154468   0.319   3.229  10.765  0.1549  2.4796 -1.6858
16990SOL    HW254469   0.415   3.175  10.661  0.1437 -1.7064  0.2765
16991SOL     OW54470   5.446   3.533   6.269  0.0324  0.4670 -0.2878
16991SOL    HW154471   5.510   3.587   6.313  0.9911 -0.3025 -0.6925
16991SOL    HW254472   5.498   3.468   6.221 -1.0614 -1.8376  1.4511
16992SOL     OW54473   4.551   0.566   0.401 -0.0784  0.1210 -0.4069
16992SOL    HW154474   4.515   0.532   0.483  1.1955 -1.0074 -0.2926
16992SOL    HW254475   4.476   0.607   0.358 -1.2171 -1.0215  0.4137
16993SOL     OW54476   5.898   4.990   7.883  0.2738 -0.5360  0.2467
16993SOL    HW154477   5.854   4.967   7.801 -0.1680 -1.7568  0.8066
16993SOL    HW254478   5.926   4.906   7.920  0.2854 -0.0224  1.4538
16994SOL     OW54479   8.277   5.185   4.051 -0.6495  0.1236  0.1026
16994SOL    HW154480   8.364   5.179   4.013  0.6288 -0.0497  2.8448
16994SOL    HW254481   8.292   5.195   4.144 -3.5614 -3.5034  1.2181
16995SOL     OW54482   3.478   9.196  10.277 -0.2456  0.2699  0.2213
16995SOL    HW154483   3.521   9.223  10.358  1.2497 -0.3427 -0.3318
16995SOL    HW254484   3.487   9.271  10.219 -1.0677  0.6065  0.5218
16996SOL     OW54485   8.531  10.168   8.375 -0.2075 -0.2026 -0.2254
16996SOL    HW154486   8.597  10.101   8.361  0.1394  0.4396 -1.9046
16996SOL    HW254487   8.451  10.132   8.338 -0.9474 -1.0823  2.0225
16997SOL     OW54488  10.046   9.136   0.580 -0.2231 -0.4864 -0.3526
16997SOL    HW154489   9.968   9.168   0.626 -1.0842  0.2927 -2.2412
16997SOL    HW254490  10.044   9.041   0.594 -1.6227 -0.5001 -0.5232
16998SOL     OW54491   6.668   6.417   2.660  0.3346 -0.1646  0.6052
16998SOL    HW154492   6.575   6.434   2.675 -0.1391 -1.6849 -0.3935
16998SOL    HW254493   6.700   6.380   2.743 -0.1618 -0.4843  0.6534
16999SOL     OW54494   2.385   3.849   9.394  0.5013 -0.0705 -0.5594
16999SOL    HW154495   2.388   3.753   9.394  1.0041 -0.0806  0.7125
16999SOL    HW254496   2.308   3.870   9.342  0.0560 -1.1934 -0.3960
17000SOL     OW54497   6.151   3.317   0.809 -0.1425 -0.3462 -0.1009
17000SOL    HW154498   6.153   3.230   0.848 -1.2861 -1.6279 -2.6911
17000SOL    HW254499   6.063   3.349   0.825 -0.6276 -0.8925 -1.5638
17001SOL     OW54500   5.974   7.019   8.844  0.7056 -0.5613  0.4288
17001SOL    HW154501   6.008   6.930   8.846  1.0937 -0.4086  1.1577
17001SOL    HW254502   6.042   7.070   8.800  0.2002 -0.7277 -0.5706
17002SOL     OW54503   3.640  10.866   5.819 -0.3236 -0.9029  0.3410
17002SOL    HW154504   3.597  10.951   5.826 -0.1848 -0.8477  0.5357
17002SOL    HW254505   3.585  10.816   5.758 -0.3001 -0.6097  0.0826
17003SOL     OW54506   5.686   7.572   7.631  0.0768  0.1750 -0.2278
17003SOL    HW154507   5.675   7.653   7.582 -1.7183  0.6603  0.8956
17003SOL    HW254508   5.680   7.503   7.564  0.7669  0.9092 -1.0695
17004SOL     OW54509   9.130   7.953   3.380  1.0286 -0.4440 -0.3467
17004SOL    HW154510   9.224   7.971   3.372  0.8987 -0.5045 -2.6927
17004SOL    HW254511   9.104   7.923   3.293 -1.1102 -0.7845  0.3573
17005SOL     OW54512   4.686   1.125   6.863 -0.0811 -0.2683  0.1504
17005SOL    HW154513   4.746   1.144   6.791 -0.5057  0.1917 -0.0933
17005SOL    HW254514   4.610   1.084   6.821  0.7997 -2.5961  0.6585
17006SOL     OW54515   4.344  10.652   5.921  0.3090 -0.0966 -0.3169
17006SOL    HW154516   4.341  10.742   5.955 -1.2136 -0.5368  0.7928
17006SOL    HW254517   4.355  10.597   5.998  0.7385 -0.9171 -0.9414
17007SOL     OW54518  10.764   5.600   7.474 -0.0824  0.3740 -0.1067
17007SOL    HW154519  10.816   5.539   7.422  1.6161  1.6253  0.0524
17007SOL    HW254520  10.722   5.658   7.411 -1.6305 -0.8222 -0.2535
17008SOL     OW54521   5.168   9.271   7.821 -0.2056 -0.1354  0.6823
17008SOL    HW154522   5.119   9.247   7.899  0.1364 -0.9461  0.6599
17008SOL    HW254523   5.152   9.365   7.809 -3.5924 -0.7518 -0.6096
17009SOL     OW54524  10.934   6.675   8.823 -0.5578  0.5944 -0.4745
17009SOL    HW154525  11.000   6.743   8.810  0.1586 -0.2579 -1.4574
17009SOL    HW254526  10.978   6.594   8.801 -1.6471 -0.1169 -0.1416
17010SOL     OW54527   9.026   5.598  10.964  0.2827 -0.2949  0.0876
17010SOL    HW154528   9.097   5.560  10.911  0.6745 -0.4956  0.7456
17010SOL    HW254529   8.946   5.567  10.922  0.5374  1.3103 -1.6897
17011SOL     OW54530   3.217   0.326   4.175 -0.2289 -0.0353 -0.1270
17011SOL    HW154531   3.211   0.253   4.113 -0.5243  1.3463 -1.8001
17011SOL    HW254532   3.136   0.322   4.225  0.4632 -1.7830  0.9294
17012SOL     OW54533   1.518   8.206   3.846  0.2294  0.1365 -0.1729
17012SOL    HW154534   1.451   8.186   3.912 -1.1114 -0.0058 -1.5194
17012SOL    HW254535   1.478   8.180   3.763  0.7709  2.8413 -1.3693
17013SOL     OW54536   5.887   8.405   1.819  0.1357 -0.3146 -0.6317
17013SOL    HW154537   5.920   8.381   1.905 -0.8877 -1.7270 -0.5754
17013SOL    HW254538   5.826   8.477   1.835  0.6902  0.0807 -0.3084
17014SOL     OW54539   2.536   4.275   2.793 -0.1147  0.0615  0.2931
17014SOL    HW154540   2.467   4.339   2.779  0.4256  0.4886 -0.5096
17014SOL    HW254541   2.514   4.202   2.735  0.3740  0.4265 -0.3702
17015SOL     OW54542   6.212   5.071   0.362 -0.1797 -0.2799  0.5991
17015SOL    HW154543   6.285   5.012   0.342 -1.1539 -2.0896  2.0339
17015SOL    HW254544   6.254   5.155   0.381  1.5944 -1.3578  1.7839
17016SOL     OW54545   1.646  10.851   1.549  0.3395 -0.4024 -0.1493
17016SOL    HW154546   1.587  10.880   1.618 -0.2882 -0.8439 -0.4888
17016SOL    HW254547   1.691  10.775   1.585  3.2324  1.8197  1.3862
17017SOL     OW54548   1.985   5.907   5.454  0.1909  0.2454  0.1648
17017SOL    HW154549   2.080   5.902   5.459  0.1446 -0.0506  0.8218
17017SOL    HW254550   1.960   5.837   5.393  0.5168  1.5940 -1.5927
17018SOL     OW54551  10.299   4.398  10.506 -0.8296  0.0377 -0.6268
17018SOL    HW154552  10.244   4.321  10.523 -0.7564  0.1179 -0.0404
17018SOL    HW254553  10.249   4.448  10.441 -0.5706 -0.8303 -1.5361
17019SOL     OW54554   1.317   1.220   0.499 -0.2016  0.0932  0.1045
17019SOL    HW154555   1.313   1.194   0.591  0.7129  0.5010  0.2662
17019SOL    HW254556   1.226   1.241   0.477 -0.5365 -0.6454  0.7170
17020SOL     OW54557   5.004  10.020   8.914  0.5815  0.2324  0.3180
17020SOL    HW154558   5.057  10.023   8.994  0.9929 -1.5928  0.1580
17020SOL    HW254559   5.044   9.951   8.861 -0.2670  0.7552 -1.0499
17021SOL     OW54560   2.977   1.005   0.691 -0.0857  0.1026 -0.0383
17021SOL    HW154561   3.016   1.092   0.705 -0.1959 -0.2065  2.4873
17021SOL    HW254562   3.042   0.958   0.639  1.4208  0.6869  1.2480
17022SOL     OW54563   0.955   9.117   6.309  0.2333 -0.4343 -0.1463
17022SOL    HW154564   0.911   9.194   6.346 -0.0217 -0.0390 -1.2584
17022SOL    HW254565   1.000   9.078   6.384  2.7886  2.4129 -0.0023
17023SOL     OW54566   9.516   5.800   5.295 -0.4031 -0.2328 -0.1589
17023SOL    HW154567   9.585   5.738   5.319 -3.0407 -2.6674  1.8145
17023SOL    HW254568   9.458   5.749   5.238 -0.2750  1.9834 -2.4267
17024SOL     OW54569   9.153   8.883   1.877 -0.3025  0.2484  0.6607
17024SOL    HW154570   9.105   8.809   1.913 -2.0079  1.0609  0.1779
17024SOL    HW254571   9.094   8.958   1.888  0.4640  1.1286 -0.8257
17025SOL     OW54572   4.919   2.348   1.885 -0.0229  0.2975  0.1481
17025SOL    HW154573   5.003   2.390   1.867  0.1968  0.0608  0.6238
17025SOL    HW254574   4.889   2.387   1.967 -0.9140  1.2027 -0.5768
17026SOL     OW54575   9.921  10.785   8.805  0.4873 -0.0461  0.2758
17026SOL    HW154576   9.946  10.795   8.897  0.6023 -0.3213  0.2774
17026SOL    HW254577   9.885  10.697   8.799 -0.6159  0.3973  0.2930
17027SOL     OW54578   8.869   3.382   8.308 -0.2466 -0.0529  0.2576
17027SOL    HW154579   8.799   3.412   8.249  0.2103  0.3953 -0.0665
17027SOL    HW254580   8.906   3.462   8.344 -0.6627 -0.3306  1.3405
17028SOL     OW54581   6.067   3.385   5.490  0.2941 -0.5152  0.1896
17028SOL    HW154582   6.136   3.439   5.451 -0.2259  0.2844  0.3529
17028SOL    HW254583   5.999   3.448   5.515 -1.2965 -1.4375 -1.5566
17029SOL     OW54584   1.861   8.846   0.689  0.3399  0.2085  0.1307
17029SOL    HW154585   1.803   8.775   0.717  1.0606 -0.5308 -0.2159
17029SOL    HW254586   1.848   8.914   0.754 -1.8030  0.5578 -0.5653
17030SOL     OW54587  10.570   2.675   6.220 -0.1436  0.6220 -0.3797
17030SOL    HW154588  10.536   2.601   6.270  0.7385 -0.0688 -0.7978
17030SOL    HW254589  10.535   2.752   6.266  1.0985  0.0431  1.6988
17031SOL     OW54590   8.222   8.446   7.509  0.2894  0.2125 -0.2130
17031SOL    HW154591   8.235   8.364   7.557  1.0409  1.2646  1.4904
17031SOL    HW254592   8.171   8.421   7.432  1.6241 -2.0615 -0.4526
17032SOL     OW54593   4.840   2.251   3.561 -0.1788  0.2721 -0.5679
17032SOL    HW154594   4.780   2.326   3.566 -2.3604 -1.3101 -1.0677
17032SOL    HW254595   4.878   2.245   3.648  1.3431  2.8675 -0.9495
17033SOL     OW54596   9.087   3.860   5.187  0.2543  0.0303 -0.4979
17033SOL    HW154597   9.014   3.847   5.125  3.1117 -0.8857 -4.0372
17033SOL    HW254598   9.122   3.772   5.200  0.1594  0.3136  2.0568
17034SOL     OW54599   2.547   8.373   3.064  0.4465  0.2873 -0.3370
17034SOL    HW154600   2.568   8.383   2.971 -0.0895 -0.7800 -0.5887
17034SOL    HW254601   2.630   8.350   3.105  0.6244  0.4502 -0.6013
17035SOL     OW54602   1.388   4.083   5.956  0.7056  0.2361  0.0671
17035SOL    HW154603   1.412   4.173   5.976 -0.7294  0.5819  0.3566
17035SOL    HW254604   1.424   4.068   5.868  1.7215  0.7799  0.3775
17036SOL     OW54605   1.072   8.892   0.558 -0.1942 -0.4447 -0.4153
17036SOL    HW154606   1.020   8.960   0.599  0.3427  0.4893 -1.2296
17036SOL    HW254607   1.038   8.886   0.469  0.7454 -0.1468 -0.8183
17037SOL     OW54608   1.772   3.532  10.469  0.3332  0.4920  0.2361
17037SOL    HW154609   1.778   3.543  10.374  0.5701  0.7650  0.2801
17037SOL    HW254610   1.843   3.586  10.503 -1.0071  2.0705  0.6753
17038SOL     OW54611   2.662   1.272   0.088 -0.6369 -0.5606  1.0485
17038SOL    HW154612   2.656   1.361   0.123  1.1464 -0.5163  1.3279
17038SOL    HW254613   2.642   1.215   0.162 -4.4355 -0.4806  0.2992
17039SOL     OW54614   7.149   5.621   5.406 -0.3887 -0.1110 -0.2603
17039SOL    HW154615   7.117   5.701   5.448  0.4091 -1.1807  2.5911
17039SOL    HW254616   7.236   5.644   5.374 -0.1227  0.1528  0.6285
17040SOL     OW54617   4.283   2.736   9.299  0.4778  0.5126 -0.1358
17040SOL    HW154618   4.216   2.744   9.366 -0.9264 -1.9027 -1.1367
17040SOL    HW254619   4.365   2.752   9.345 -0.5717  0.9118  1.7036
17041SOL     OW54620   7.805   4.148   1.776 -0.2366 -0.0593 -0.2696
17041SOL    HW154621   7.739   4.079   1.774 -0.3861  0.0914 -0.6102
17041SOL    HW254622   7.796   4.187   1.863 -1.3891  0.7093 -0.6913
17042SOL     OW54623   1.801   4.628   2.890  0.0216  0.0712  0.3078
17042SOL    HW154624   1.752   4.690   2.836 -1.8915 -1.8787 -0.3368
17042SOL    HW254625   1.883   4.616   2.844 -0.0762  1.1795 -0.1983
17043SOL     OW54626   2.950   8.279   9.496  0.6632 -0.7020  0.1219
17043SOL    HW154627   2.940   8.184   9.483  0.1556 -0.6816  0.3242
17043SOL    HW254628   2.860   8.310   9.507  0.9223 -0.4969  2.1074
17044SOL     OW54629   1.850   4.369   1.011 -0.0852  0.5812  0.2893
17044SOL    HW154630   1.812   4.393   0.927  1.4790 -0.1420 -0.6830
17044SOL    HW254631   1.882   4.451   1.048  0.1408  0.7676 -0.3141
17045SOL     OW54632   4.082   1.832   3.711  0.8080  0.0413 -0.4439
17045SOL    HW154633   4.024   1.823   3.635  1.6024 -0.5901 -0.9977
17045SOL    HW254634   4.083   1.925   3.730 -0.3597  0.0707 -0.4406
17046SOL     OW54635   6.130   7.746   5.886 -0.0687 -0.1468  0.0227
17046SOL    HW154636   6.221   7.718   5.898 -0.0549 -0.9702 -1.7558
17046SOL    HW254637   6.098   7.695   5.812 -1.1285  2.1086 -1.1843
17047SOL     OW54638   3.724   5.652   9.354 -0.1840 -0.4819  0.0717
17047SOL    HW154639   3.803   5.706   9.359 -1.0276  0.8304 -0.4006
17047SOL    HW254640   3.746   5.584   9.290  0.0041  0.9069 -1.4036
17048SOL     OW54641   5.058   7.422   4.069 -0.1456  0.5410 -0.5720
17048SOL    HW154642   5.035   7.495   4.126  3.1951 -0.6838  2.7277
17048SOL    HW254643   5.001   7.350   4.096 -0.2043  0.6328 -0.4533
17049SOL     OW54644   1.302   8.951  10.063  0.0754 -0.1171 -0.5044
17049SOL    HW154645   1.335   8.923   9.978  1.5113  0.0126 -0.0115
17049SOL    HW254646   1.245   9.026  10.043  0.8436  0.2750 -1.3061
17050SOL     OW54647   1.121  10.922   0.862  1.0094  0.0920 -0.2724
17050SOL    HW154648   1.161  10.944   0.946 -1.2516 -0.4269  1.0273
17050SOL    HW254649   1.090  11.005   0.827  1.0816  0.1777 -0.1351
17051SOL     OW54650   2.901   6.713   1.815 -0.1820 -0.8182  0.5423
17051SOL    HW154651   2.912   6.717   1.720 -0.3307  0.9544  0.5681
17051SOL    HW254652   2.962   6.645   1.843  0.9917 -0.3163 -0.6796
17052SOL     OW54653   6.112   0.693  10.017 -0.0342 -0.4721  0.0122
17052SOL    HW154654   6.201   0.727  10.012 -0.7950  1.5178 -0.9205
17052SOL    HW254655   6.108   0.648  10.102  1.5647  0.2603  0.5104
17053SOL     OW54656   8.390   7.240   1.715 -0.7762  0.3039  0.5523
17053SOL    HW154657   8.450   7.293   1.663 -2.6064  1.3871 -0.5874
17053SOL    HW254658   8.409   7.150   1.691  1.4808  0.4690  1.4951
17054SOL     OW54659   6.170  10.031  10.386 -0.0721 -0.3270 -0.2930
17054SOL    HW154660   6.168   9.958  10.324 -0.3797 -1.5697  1.1240
17054SOL    HW254661   6.251  10.077  10.366  1.4598 -2.5362  0.3942
17055SOL     OW54662   1.227   4.419   7.226 -0.1469  0.1313 -0.1724
17055SOL    HW154663   1.293   4.449   7.164  0.8874  1.4142  1.4842
17055SOL    HW254664   1.204   4.331   7.195  0.8461  0.4342 -1.9271
17056SOL     OW54665  10.738   2.323   7.688 -0.3911 -0.2041 -0.4519
17056SOL    HW154666  10.764   2.240   7.726  0.1417  1.0264  2.0656
17056SOL    HW254667  10.668   2.301   7.626  0.6736 -2.6187 -0.8932
17057SOL     OW54668   4.877   2.489  10.976 -0.1661  0.3435 -0.6333
17057SOL    HW154669   4.897   2.576  11.012 -1.8802 -0.0692  1.5782
17057SOL    HW254670   4.786   2.473  11.002  0.3224 -2.3923 -0.3329
17058SOL     OW54671   7.752   2.661   4.385 -0.5024 -0.0599 -0.7295
17058SOL    HW154672   7.779   2.736   4.332 -0.3263 -0.1186 -0.7244
17058SOL    HW254673   7.674   2.627   4.342 -0.6686  0.2169 -0.6487
17059SOL     OW54674   3.736  10.309   6.294  0.2655 -0.2124 -0.8194
17059SOL    HW154675   3.774  10.232   6.338 -1.4745 -0.3186  0.6196
17059SOL    HW254676   3.812  10.358   6.263  1.5379 -1.1328  0.6589
17060SOL     OW54677   8.938   9.256   4.818  0.0899  0.5606 -0.0651
17060SOL    HW154678   8.996   9.251   4.893  0.3006  1.3421 -0.1730
17060SOL    HW254679   8.894   9.171   4.817  3.0853 -1.1304 -1.5167
17061SOL     OW54680   6.176   9.554  10.982  0.4452  0.1590 -0.1846
17061SOL    HW154681   6.146   9.549  11.073  2.0908  0.1931  0.3934
17061SOL    HW254682   6.110   9.505  10.933 -0.6420  0.4052  0.9715
17062SOL     OW54683   8.492   3.548   9.515  0.2297  0.5364  0.1633
17062SOL    HW154684   8.396   3.547   9.525  0.1622  1.1468 -0.3876
17062SOL    HW254685   8.510   3.483   9.448 -0.2002  3.1983 -2.7874
17063SOL     OW54686  10.117   0.810   4.282 -0.0397 -0.1956  0.0311
17063SOL    HW154687  10.169   0.773   4.353 -0.4097  1.9147  1.4919
17063SOL    HW254688  10.134   0.904   4.287 -2.2160  0.2935 -0.9259
17064SOL     OW54689   9.953   3.742   0.036 -0.5386 -0.1014  0.1969
17064SOL    HW154690   9.876   3.797   0.049  1.3332  2.6811  0.2852
17064SOL    HW254691  10.014   3.796  -0.014  2.3178 -1.2160  2.1531
17065SOL     OW54692   6.003  10.688   9.394  0.0804 -0.3049  0.7819
17065SOL    HW154693   6.083  10.649   9.360 -0.0730  0.4039 -0.4642
17065SOL    HW254694   6.024  10.715   9.483  0.4034 -2.5334  1.4389
17066SOL     OW54695   1.234   7.127   1.276 -0.1410  0.3352  0.0315
17066SOL    HW154696   1.258   7.218   1.295  0.6301 -0.1439  1.5797
17066SOL    HW254697   1.279   7.107   1.194  0.1526  1.1833 -0.0270
17067SOL     OW54698   9.139   6.554   7.047 -0.3719 -0.5287 -0.0652
17067SOL    HW154699   9.227   6.590   7.059 -0.9607  0.4878  1.5947
17067SOL    HW254700   9.127   6.551   6.952  0.5870  1.6090 -0.3229
17068SOL     OW54701   1.387   8.806   5.046  0.0480  0.6367  0.7512
17068SOL    HW154702   1.348   8.893   5.057  0.9075  1.0824  0.3500
17068SOL    HW254703   1.329   8.761   4.984  0.4284  1.4667 -0.2299
17069SOL     OW54704   4.128   8.641   6.142  0.3516 -0.4888 -0.0585
17069SOL    HW154705   4.160   8.649   6.232  0.4800 -2.5274  0.1052
17069SOL    HW254706   4.089   8.554   6.137 -0.7991  0.0653 -1.6374
17070SOL     OW54707   5.422   3.168   2.259 -0.2835 -0.6959 -0.2638
17070SOL    HW154708   5.407   3.203   2.171  0.6514 -1.2329 -0.6548
17070SOL    HW254709   5.354   3.208   2.313 -0.5122  0.0939 -1.1116
17071SOL     OW54710   2.262   5.079   6.432  0.1941 -0.3138 -0.0120
17071SOL    HW154711   2.332   5.145   6.428 -0.1046 -0.0611 -1.7977
17071SOL    HW254712   2.237   5.066   6.341 -1.1918 -1.3838  0.5014
17072SOL     OW54713   8.458   9.279   4.938 -0.5067 -0.2100 -0.1986
17072SOL    HW154714   8.492   9.351   4.884 -2.5644  0.4972 -0.6379
17072SOL    HW254715   8.489   9.200   4.894  1.7808  0.3481  0.2768
17073SOL     OW54716   2.413   3.974   6.373  0.1689 -0.8879 -0.1298
17073SOL    HW154717   2.495   4.021   6.390 -0.6062  0.7807 -0.6848
17073SOL    HW254718   2.354   4.003   6.443 -1.2679  1.5301 -2.1503
17074SOL     OW54719   2.626   1.431   5.679  0.1422  0.2130 -0.4767
17074SOL    HW154720   2.697   1.489   5.654 -0.5965  0.9066 -1.0272
17074SOL    HW254721   2.566   1.432   5.604  0.2031 -1.4205 -0.5788
17075SOL     OW54722   4.581   1.127   4.363  0.0626  0.2984 -0.5333
17075SOL    HW154723   4.542   1.141   4.449  0.4180  2.2414 -0.6453
17075SOL    HW254724   4.526   1.060   4.322  0.2196 -1.0948  1.3751
17076SOL     OW54725   0.086   4.660   7.300 -0.2844  0.0274 -0.2689
17076SOL    HW154726   0.013   4.690   7.246  0.1068  1.1057 -0.2351
17076SOL    HW254727   0.066   4.694   7.388 -0.7131 -1.3633  0.2102
17077SOL     OW54728   1.854   2.893   0.329 -0.3342 -0.2711  0.1695
17077SOL    HW154729   1.932   2.847   0.298 -0.1014 -0.5849  1.2111
17077SOL    HW254730   1.825   2.844   0.405 -1.1684  0.2337  0.1882
17078SOL     OW54731   4.980   3.537   8.205  0.1785  0.5342 -0.0964
17078SOL    HW154732   5.063   3.584   8.215  1.0856 -1.4075  2.6026
17078SOL    HW254733   4.991   3.485   8.126  1.4469  0.4879  0.0904
17079SOL     OW54734   9.210   6.304   8.409 -0.4666 -0.5051 -0.4040
17079SOL    HW154735   9.253   6.265   8.333  0.0124  0.0862 -0.4463
17079SOL    HW254736   9.127   6.256   8.417  0.6261 -2.3785  0.3050
17080SOL     OW54737   2.018   1.939   0.219  0.3314 -0.4819  0.7143
17080SOL    HW154738   2.017   1.927   0.314  1.0136 -0.4226  0.7351
17080SOL    HW254739   1.926   1.950   0.195  0.2943  1.6440  1.6352
17081SOL     OW54740   6.993   9.302   4.240 -0.5926  0.6093 -0.0532
17081SOL    HW154741   6.922   9.322   4.178 -1.9647 -0.5786  1.0552
17081SOL    HW254742   6.980   9.210   4.261  1.5291  0.2746 -0.0619
17082SOL     OW54743   1.333   6.274   8.528  0.0458 -0.2316  0.0991
17082SOL    HW154744   1.278   6.344   8.562  1.3907  0.7085  0.4000
17082SOL    HW254745   1.400   6.319   8.476  0.7041 -1.3188 -0.0247
17083SOL     OW54746   9.867   4.946   0.711  0.1284 -0.3540  0.2056
17083SOL    HW154747   9.914   4.911   0.787  0.0269  0.8859  0.8697
17083SOL    HW254748   9.885   4.884   0.640  1.1459 -0.9371  0.9555
17084SOL     OW54749   7.691   6.478   3.168  0.2511  0.1810 -0.0337
17084SOL    HW154750   7.764   6.454   3.109  1.0707  0.1574  0.9660
17084SOL    HW254751   7.670   6.397   3.213  0.2372  0.4070  0.3640
17085SOL     OW54752   5.468   6.420   6.813  0.6868 -0.5369  0.1582
17085SOL    HW154753   5.419   6.338   6.821  0.7401 -0.6472 -0.6198
17085SOL    HW254754   5.459   6.461   6.899 -2.1435  0.2279 -0.4078
17086SOL     OW54755   7.554   6.696   1.325  0.0327  0.0888  0.4408
17086SOL    HW154756   7.639   6.693   1.369  0.1265 -1.5127  0.2023
17086SOL    HW254757   7.575   6.709   1.232 -0.0536  1.0065  0.5433
17087SOL     OW54758   1.527  10.513   8.117  0.1717 -0.1325 -0.0552
17087SOL    HW154759   1.464  10.449   8.083 -0.9576  0.1690  1.3753
17087SOL    HW254760   1.473  10.581   8.157  1.3855  1.0109 -0.2764
17088SOL     OW54761  10.373   3.397   1.431  0.2552  0.6631 -0.5383
17088SOL    HW154762  10.449   3.387   1.488 -1.2693 -0.4794  1.4302
17088SOL    HW254763  10.340   3.484   1.450  0.4228  0.7304 -0.5549
17089SOL     OW54764   0.774   1.345   4.618  0.4375  0.5180 -0.3307
17089SOL    HW154765   0.682   1.338   4.592  0.9035 -0.2588 -1.9106
17089SOL    HW254766   0.805   1.424   4.573  1.1272 -0.5612 -1.8368
17090SOL     OW54767   4.910   3.066  10.181 -0.4646 -0.1006 -0.3063
17090SOL    HW154768   4.864   2.998  10.134 -2.1078  0.4936  0.3725
17090SOL    HW254769   4.872   3.065  10.269  1.8939 -0.5970  0.7838
17091SOL     OW54770  10.901   5.078   3.525  0.3511 -0.2708  0.1013
17091SOL    HW154771  10.869   5.075   3.615  0.0406 -0.9350 -0.0284
17091SOL    HW254772  10.913   4.987   3.501 -0.7179 -0.1458 -0.9513
17092SOL     OW54773   5.529   6.836   9.009  0.2741 -0.3157 -0.1628
17092SOL    HW154774   5.621   6.858   8.996  0.4932 -0.1288  1.4867
17092SOL    HW254775   5.482   6.893   8.948  1.1875  0.2917 -0.3268
17093SOL     OW54776   6.430   4.409   0.087  0.6486 -0.9655  0.3834
17093SOL    HW154777   6.433   4.470   0.014  1.7857 -1.0214  0.3623
17093SOL    HW254778   6.398   4.461   0.161  0.4449 -0.6552  0.0781
17094SOL     OW54779   4.548   7.848   2.298 -0.1806 -0.1597  0.1631
17094SOL    HW154780   4.594   7.890   2.224  1.1800  0.4727  1.3154
17094SOL    HW254781   4.570   7.902   2.373 -1.6156 -0.7482  1.0410
17095SOL     OW54782   9.725   4.549   9.541 -0.2660  0.3842  0.8373
17095SOL    HW154783   9.677   4.486   9.487 -1.9591  0.8342  1.7512
17095SOL    HW254784   9.704   4.524   9.631  0.7708  0.9604  1.2552
17096SOL     OW54785   1.855   2.769   3.247  0.5781 -0.1443  0.7026
17096SOL    HW154786   1.774   2.726   3.274  0.0078 -0.2063 -0.9691
17096SOL    HW254787   1.826   2.842   3.191  1.6629 -0.3445 -0.1599
17097SOL     OW54788   1.837   9.703   8.256  0.0508  0.0864  0.3580
17097SOL    HW154789   1.898   9.673   8.324  0.4911 -3.0153 -1.2280
17097SOL    HW254790   1.890   9.762   8.202  0.3836  0.7021  1.3188
17098SOL     OW54791  10.134   5.822   3.785  0.0763  0.3006 -0.0879
17098SOL    HW154792  10.140   5.728   3.771 -0.3409  0.0149  1.4321
17098SOL    HW254793  10.224   5.850   3.803  0.0588 -0.0200  0.5422
17099SOL     OW54794   1.912   3.653   3.120  0.3844 -0.2952  0.4770
17099SOL    HW154795   1.973   3.581   3.133  0.8006 -0.3062 -1.2787
17099SOL    HW254796   1.843   3.639   3.185 -0.2801 -3.0734 -0.6610
17100SOL     OW54797   0.761   2.972   3.173  0.2246 -0.4227 -0.0437
17100SOL    HW154798   0.668   2.952   3.178  0.0810  0.2269  0.0395
17100SOL    HW254799   0.781   2.970   3.079  0.2361 -1.0186 -0.0315
17101SOL     OW54800   3.857   4.566   6.480  0.0942  0.1344  0.1975
17101SOL    HW154801   3.923   4.633   6.467  0.9268 -0.6857  0.0339
17101SOL    HW254802   3.897   4.486   6.447 -0.0415 -0.8638  2.2604
17102SOL     OW54803   2.655   9.114   3.932 -0.1817  0.1084 -0.0349
17102SOL    HW154804   2.695   9.191   3.973  0.6909 -0.2925 -0.1027
17102SOL    HW254805   2.727   9.051   3.925 -0.3746  0.0548 -1.9024
17103SOL     OW54806   6.442   5.488  10.863 -0.1265 -0.1592 -0.4044
17103SOL    HW154807   6.465   5.411  10.914  1.5400 -0.7413 -1.9343
17103SOL    HW254808   6.451   5.561  10.924  2.8723 -0.7125 -0.0418
17104SOL     OW54809   6.671   4.072   7.372 -0.4053  0.6425 -0.9954
17104SOL    HW154810   6.749   4.108   7.413 -0.9470  1.9516 -1.0545
17104SOL    HW254811   6.704   4.008   7.309  0.5171 -0.0448  0.1533
17105SOL     OW54812   9.278   0.311   1.740  0.0102 -0.0701  0.3242
17105SOL    HW154813   9.346   0.293   1.675 -0.7242 -1.1896 -0.1556
17105SOL    HW254814   9.313   0.384   1.791  1.2543 -0.1522 -0.3702
17106SOL     OW54815   1.852   6.959   7.487  0.1682 -0.6846  0.2284
17106SOL    HW154816   1.858   6.915   7.402 -0.9573 -1.4463  0.5289
17106SOL    HW254817   1.880   7.049   7.469  1.4844 -1.2340 -0.6118
17107SOL     OW54818   8.978   7.420   4.390  0.1531 -0.2647  0.2155
17107SOL    HW154819   9.068   7.413   4.423  0.5522  1.0751 -0.4988
17107SOL    HW254820   8.985   7.397   4.297 -0.3259 -0.5416  0.2465
17108SOL     OW54821   3.809   5.070   6.728  0.0215  0.2832  0.0189
17108SOL    HW154822   3.797   5.145   6.786  0.4918 -1.2685  2.2546
17108SOL    HW254823   3.729   5.018   6.740 -0.4984  0.5728 -1.8445
17109SOL     OW54824   2.813   9.655  10.238 -0.6479  0.1745  0.2127
17109SOL    HW154825   2.821   9.617  10.151 -0.2120  0.4536  0.1299
17109SOL    HW254826   2.860   9.594  10.295  1.4407  1.3668 -0.1454
17110SOL     OW54827   1.084   1.222   1.515 -0.6683 -0.3565 -0.6751
17110SOL    HW154828   1.117   1.213   1.425  1.0981  2.3608 -0.4212
17110SOL    HW254829   1.117   1.145   1.560 -1.2440 -1.5741 -2.2450
17111SOL     OW54830   5.222   2.978   7.575  0.3005 -0.8452  0.4421
17111SOL    HW154831   5.281   2.981   7.500  0.1245 -0.4346  0.3155
17111SOL    HW254832   5.270   3.024   7.645 -0.7350  1.5199 -0.2988
17112SOL     OW54833  10.020  10.915   6.189 -0.1576 -0.2497  0.3502
17112SOL    HW154834  10.076  10.924   6.266  0.9683  0.2999 -0.4988
17112SOL    HW254835   9.932  10.904   6.224  0.2613  0.5273  1.7141
17113SOL     OW54836   0.947   4.086   4.649 -0.5467  0.0738  0.0403
17113SOL    HW154837   0.985   4.113   4.566  1.7642  0.3687  1.0908
17113SOL    HW254838   0.972   4.155   4.711 -0.7719 -0.9201  1.2922
17114SOL     OW54839   5.939   7.220   0.461  0.4949  0.6210  0.0111
17114SOL    HW154840   5.938   7.148   0.524  1.4987 -1.5088 -2.2462
17114SOL    HW254841   5.872   7.197   0.397  1.4986  1.1786 -1.2832
17115SOL     OW54842   5.048   6.476   2.262  0.1793 -0.1414 -0.3179
17115SOL    HW154843   5.059   6.414   2.189  1.0057  0.7557 -0.9845
17115SOL    HW254844   4.957   6.464   2.290 -0.2571 -0.2798 -1.7158
17116SOL     OW54845  10.761   9.086   5.473 -0.0715  0.3920 -0.3960
17116SOL    HW154846  10.725   9.089   5.562 -0.7891 -0.1711 -0.6591
17116SOL    HW254847  10.686   9.069   5.417  0.3540  0.9066 -1.1363
17117SOL     OW54848   3.030   5.853   3.940 -0.4560  0.2080  0.0198
17117SOL    HW154849   2.964   5.838   4.008  0.2790  1.1294  0.9600
17117SOL    HW254850   3.111   5.869   3.988  0.1340  0.6334 -1.0818
17118SOL     OW54851   4.161   1.695   5.620  0.2984 -0.1717 -0.8203
17118SOL    HW154852   4.075   1.686   5.579  0.5340 -2.2222 -0.9584
17118SOL    HW254853   4.198   1.607   5.618  1.6474  0.2925  0.9039
17119SOL     OW54854   7.180   3.476  10.028 -0.1013  0.4428 -0.3328
17119SOL    HW154855   7.193   3.450  10.120 -1.3711 -0.1248 -0.2918
17119SOL    HW254856   7.212   3.401   9.978 -0.0945  0.4453 -0.3316
17120SOL     OW54857   7.219   5.225   0.277  0.1837 -0.5716  0.2520
17120SOL    HW154858   7.276   5.213   0.353  1.4866  0.4741 -0.5204
17120SOL    HW254859   7.264   5.290   0.223 -1.9730  0.6931 -0.1616
17121SOL     OW54860   0.066   2.279   2.679  0.1481  0.2386 -0.3442
17121SOL    HW154861   0.139   2.260   2.620 -0.3615  2.5774 -1.8739
17121SOL    HW254862   0.090   2.362   2.719 -0.4620 -0.3264  1.2518
17122SOL     OW54863   4.763   3.091   3.888  0.0927  0.8221  0.2350
17122SOL    HW154864   4.716   3.051   3.961  0.0601  0.6730  0.1331
17122SOL    HW254865   4.838   3.134   3.928  1.0412 -0.7096  0.2020
17123SOL     OW54866   4.234   8.667   8.420  0.1825  0.2188 -0.2236
17123SOL    HW154867   4.320   8.653   8.381  0.9787 -1.5699  1.9222
17123SOL    HW254868   4.191   8.731   8.363  2.4576  0.2565 -2.0279
17124SOL     OW54869   0.399   0.051  10.494 -0.0624  0.2524  0.4153
17124SOL    HW154870   0.390   0.083  10.404  2.6491 -0.8710 -0.3313
17124SOL    HW254871   0.358  -0.036  10.493 -0.6163  0.5045  0.4750
17125SOL     OW54872   8.890   4.484   4.745  0.3043  0.6314 -0.0917
17125SOL    HW154873   8.983   4.471   4.764  0.0831 -1.1079 -0.0940
17125SOL    HW254874   8.852   4.508   4.830  0.3396 -1.2387  0.4927
17126SOL     OW54875   4.738   4.424  10.098  0.4881 -0.2583 -0.1212
17126SOL    HW154876   4.749   4.340  10.143 -1.3912  0.0732  1.0728
17126SOL    HW254877   4.651   4.418  10.059  0.5852  0.9048 -0.5361
17127SOL     OW54878   1.736   1.419   2.224  0.4126 -0.1002  0.7270
17127SOL    HW154879   1.709   1.490   2.166 -1.5029 -0.6260  0.9315
17127SOL    HW254880   1.656   1.392   2.269  1.0197 -2.5339  0.5048
17128SOL     OW54881   2.607   9.671   2.063 -0.4740 -0.3000  0.0003
17128SOL    HW154882   2.594   9.758   2.101 -0.9495 -0.6672  0.7116
17128SOL    HW254883   2.554   9.671   1.983  0.2588  0.3659 -0.4998
17129SOL     OW54884   9.629  10.339   3.445 -0.5777  0.3722  0.5321
17129SOL    HW154885   9.558  10.387   3.488 -0.2809  0.5818  0.7999
17129SOL    HW254886   9.700  10.403   3.439 -0.6985  0.4192 -0.5118
17130SOL     OW54887   6.271   8.560   8.939  0.1573  0.3182  0.0158
17130SOL    HW154888   6.359   8.548   8.976  0.4472 -0.3419 -0.8524
17130SOL    HW254889   6.271   8.506   8.860 -0.6780  1.1635 -0.5768
17131SOL     OW54890   2.112   9.644   0.176  0.3402 -0.3566 -0.1670
17131SOL    HW154891   2.112   9.728   0.129 -0.5997 -0.0128  0.4168
17131SOL    HW254892   2.022   9.634   0.207 -0.1065 -2.5736 -1.9408
17132SOL     OW54893   9.026   2.592   0.746  0.4471 -0.4665 -0.1541
17132SOL    HW154894   8.996   2.660   0.805  1.4557 -0.8131  0.7874
17132SOL    HW254895   8.949   2.537   0.731  0.2185 -0.4712  0.9826
17133SOL     OW54896   1.104   1.588   3.631  0.0586  0.3924  0.2421
17133SOL    HW154897   1.104   1.517   3.695 -1.6549 -0.9690 -1.1537
17133SOL    HW254898   1.193   1.622   3.632  0.6361 -1.0568  1.7300
17134SOL     OW54899   9.275   9.543   5.378 -0.0495 -0.3669  0.7073
17134SOL    HW154900   9.284   9.581   5.466 -2.2165 -1.9287  1.6818
17134SOL    HW254901   9.193   9.579   5.345  1.6110  1.6970 -1.5779
17135SOL     OW54902   5.002   0.318  10.470  0.6705 -0.0353  0.1159
17135SOL    HW154903   4.958   0.365  10.400 -0.6646 -1.7867 -0.3164
17135SOL    HW254904   4.984   0.368  10.549  0.7820  1.0736 -0.5518
17136SOL     OW54905   0.375  10.348   1.261 -0.3157 -0.1372  0.2184
17136SOL    HW154906   0.380  10.300   1.178  3.3096 -1.0141  0.7889
17136SOL    HW254907   0.377  10.280   1.329  0.5807  0.6765  1.0319
17137SOL     OW54908  10.619   8.345   4.660 -0.8299 -0.3437 -0.5683
17137SOL    HW154909  10.660   8.431   4.677 -0.3110 -0.4847 -1.0577
17137SOL    HW254910  10.680   8.282   4.699 -0.5625 -0.5592 -1.3218
17138SOL     OW54911   3.014   9.272   4.104 -0.1541  0.2034  0.2507
17138SOL    HW154912   2.992   9.181   4.085  0.0198  0.1061  0.5178
17138SOL    HW254913   3.086   9.267   4.166  0.7232  0.5062 -0.7017
17139SOL     OW54914   8.637   9.935   2.123 -0.4545 -0.0026 -0.1763
17139SOL    HW154915   8.674   9.987   2.194 -0.5753 -0.1727  0.0108
17139SOL    HW254916   8.635   9.995   2.048 -3.6343  1.3854  0.8412
17140SOL     OW54917   1.294   3.398   7.564 -0.3438  0.1054 -0.0277
17140SOL    HW154918   1.376   3.411   7.613 -0.6877 -1.1047  0.9165
17140SOL    HW254919   1.298   3.307   7.534 -0.8011  0.4063 -1.0427
17141SOL     OW54920  10.274   6.222   2.296 -0.1610 -0.2040  0.2460
17141SOL    HW154921  10.215   6.148   2.284 -0.2088 -0.4743  1.8968
17141SOL    HW254922  10.362   6.184   2.295  0.0921  0.2428 -2.5589
17142SOL     OW54923   0.919   7.231   8.883 -0.4341  0.2507  0.3280
17142SOL    HW154924   0.911   7.307   8.825  0.4345 -1.2147 -1.8620
17142SOL    HW254925   0.912   7.156   8.825  1.4174 -1.3289  1.9841
17143SOL     OW54926   6.025  10.166   9.828 -0.0462  0.5993 -0.3387
17143SOL    HW154927   5.941  10.130   9.799  0.1085  0.5905 -0.7952
17143SOL    HW254928   6.044  10.120   9.909  0.2434 -0.5107 -1.0113
17144SOL     OW54929   1.775   6.240   6.080  0.5444  0.1566 -0.1383
17144SOL    HW154930   1.728   6.193   6.149 -3.0114  0.7499 -1.9754
17144SOL    HW254931   1.805   6.320   6.123 -0.6681  0.0340  0.9994
17145SOL     OW54932   6.669   5.511   7.789  0.1452  0.1725  0.5127
17145SOL    HW154933   6.761   5.494   7.809 -0.0650 -1.6184  0.1522
17145SOL    HW254934   6.626   5.510   7.875  0.8327  4.4175  1.1186
17146SOL     OW54935  10.650   4.117   6.935  0.0873 -0.5024  0.0162
17146SOL    HW154936  10.632   4.041   6.991 -0.7418  1.0964  2.0759
17146SOL    HW254937  10.737   4.146   6.962  0.1073 -0.3188 -0.2486
17147SOL     OW54938   2.523   4.552   6.348 -0.6484 -0.3415  0.1630
17147SOL    HW154939   2.544   4.597   6.429  0.1276  0.7333 -0.6070
17147SOL    HW254940   2.482   4.620   6.293 -0.9558 -0.9883 -0.4210
17148SOL     OW54941   3.814   0.137   2.105 -0.3086  0.0435 -0.2013
17148SOL    HW154942   3.852   0.155   2.191 -2.3862  0.5262  0.6877
17148SOL    HW254943   3.852   0.203   2.047 -0.1844  0.8325  0.7525
17149SOL     OW54944  10.411   1.427   2.808  0.2285  0.5088  0.6294
17149SOL    HW154945  10.410   1.523   2.814  0.1684  0.7643 -2.0836
17149SOL    HW254946  10.493   1.407   2.762 -0.7165 -0.5277 -0.7010
17150SOL     OW54947   0.748   5.622   9.584  0.2705  0.9201 -0.5098
17150SOL    HW154948   0.692   5.684   9.537 -0.3465  0.8296  0.0957
17150SOL    HW254949   0.816   5.676   9.623 -0.5945  1.3179  0.5068
17151SOL     OW54950   2.246   4.338   5.049 -0.0882  0.6401 -0.0670
17151SOL    HW154951   2.164   4.384   5.065 -0.1062  0.5503  0.1123
17151SOL    HW254952   2.221   4.258   5.004  0.0159  1.1423 -1.0291
17152SOL     OW54953   0.306   6.228   1.549 -0.3304  0.6027  0.2902
17152SOL    HW154954   0.282   6.321   1.555  1.0096  0.8980  1.7253
17152SOL    HW254955   0.228   6.182   1.579 -1.1191  1.2247 -0.7165
17153SOL     OW54956   8.277   6.966   0.515  0.5113 -0.3056 -0.1463
17153SOL    HW154957   8.261   6.896   0.451  0.9933  1.1565 -1.9396
17153SOL    HW254958   8.253   6.927   0.599 -0.1279 -2.3129 -1.1918
17154SOL     OW54959   1.762  10.107   5.896  0.4120  0.3547  0.4777
17154SOL    HW154960   1.670  10.125   5.915  0.4385 -0.0478  1.0304
17154SOL    HW254961   1.761  10.035   5.834  0.3568 -1.2609  2.2602
17155SOL     OW54962   1.870   6.352   5.095 -0.0278 -0.4383  0.0232
17155SOL    HW154963   1.869   6.316   5.006  0.9253 -0.6288  0.0866
17155SOL    HW254964   1.878   6.275   5.152 -0.0337 -0.2695  0.2542
17156SOL     OW54965  10.914   2.994  10.225  0.6693  0.0087  0.1224
17156SOL    HW154966  10.934   2.905  10.255  0.9024 -0.6283 -1.7210
17156SOL    HW254967  10.982   3.012  10.159 -0.4345  0.8113 -0.8346
17157SOL     OW54968   0.336   1.842   3.961 -0.3562 -0.7517  0.5247
17157SOL    HW154969   0.257   1.836   3.908  0.2125  2.0772 -0.8260
17157SOL    HW254970   0.359   1.935   3.960  3.3673 -1.5207  0.2653
17158SOL     OW54971   1.833   1.842   1.093 -0.1145  0.1144 -0.6379
17158SOL    HW154972   1.798   1.807   1.175  0.8724  0.5583 -0.0097
17158SOL    HW254973   1.787   1.925   1.081  0.6309  0.6544  0.1401
17159SOL     OW54974   5.338   6.809  10.455 -0.2635  0.1684  0.3147
17159SOL    HW154975   5.314   6.845  10.370 -0.4820 -1.3832 -0.3125
17159SOL    HW254976   5.408   6.747  10.436 -1.0557 -1.0028  1.0873
17160SOL     OW54977   9.617   7.964   9.642  0.2167  1.0211  0.4353
17160SOL    HW154978   9.533   7.973   9.686  0.2703 -0.3102  0.8390
17160SOL    HW254979   9.599   7.988   9.551 -0.7929 -0.0429  0.3383
17161SOL     OW54980   5.691   9.695   4.095  0.1151 -0.0703 -0.0239
17161SOL    HW154981   5.652   9.779   4.071  0.8745  0.5752  0.9203
17161SOL    HW254982   5.617   9.641   4.123 -0.4947 -0.0584 -1.5132
17162SOL     OW54983   1.547   2.031  10.696 -0.1986 -0.1893 -0.1706
17162SOL    HW154984   1.552   2.126  10.707 -0.2280 -0.2604  0.5395
17162SOL    HW254985   1.540   2.017  10.602 -4.9568  0.7431 -0.2005
17163SOL     OW54986   3.981   8.670   2.342 -0.2041 -0.1391  0.0253
17163SOL    HW154987   3.990   8.588   2.391  1.1775  0.2809  0.5251
17163SOL    HW254988   3.954   8.734   2.407  2.3291  0.5809  0.4982
17164SOL     OW54989   0.393   9.787   2.402  0.0778 -0.2202  0.1577
17164SOL    HW154990   0.310   9.772   2.446 -0.2067  1.1561  0.1259
17164SOL    HW254991   0.459   9.765   2.467 -0.3201 -0.3024  0.5378
17165SOL     OW54992   7.517   6.254  10.085 -0.0845  0.1941  0.0659
17165SOL    HW154993   7.569   6.298  10.018  0.8809 -3.3457 -1.7684
17165SOL    HW254994   7.533   6.160  10.070 -3.1146 -0.9169  2.6587
17166SOL     OW54995   5.905   3.756   2.354  0.3560  0.1011  0.6332
17166SOL    HW154996   5.814   3.744   2.329  1.1669  0.2933 -2.9784
17166SOL    HW254997   5.913   3.850   2.372  0.0669  0.3389 -0.3838
17167SOL     OW54998   8.236  10.223   1.412  0.1697 -0.1240  0.3022
17167SOL    HW154999   8.162  10.281   1.398  2.0622  2.3410 -0.1396
17167SOL    HW255000   8.239  10.168   1.334 -1.0417 -0.1350  0.2483
17168SOL     OW55001   8.787   4.227  10.091  0.0155  0.6864 -0.4296
17168SOL    HW155002   8.813   4.176  10.015  0.3944 -1.0533  0.7936
17168SOL    HW255003   8.709   4.183  10.125  0.6879  0.5125  0.9918
17169SOL     OW55004   1.831   4.121   0.526  0.4627 -0.0939  0.0092
17169SOL    HW155005   1.924   4.143   0.524  0.6448 -0.5894  1.5853
17169SOL    HW255006   1.790   4.195   0.570 -0.1688  0.8931 -2.1223
17170SOL     OW55007   8.967   1.657   4.350 -0.4812  0.1896 -0.1647
17170SOL    HW155008   8.994   1.720   4.416 -1.7072  0.6242 -0.0559
17170SOL    HW255009   8.879   1.630   4.376 -1.0235  0.4169 -1.6135
17171SOL     OW55010   7.050   2.369   1.641  0.5955  0.1799  0.3761
17171SOL    HW155011   7.027   2.332   1.726  0.2899  1.2890  0.7780
17171SOL    HW255012   7.036   2.296   1.580 -0.3677 -0.2700  1.1019
17172SOL     OW55013   2.344   6.391   7.653 -0.3332 -0.1775  0.8428
17172SOL    HW155014   2.275   6.326   7.667 -0.7916  0.1018 -0.0570
17172SOL    HW255015   2.424   6.348   7.682 -0.6055 -1.2296  0.0876
17173SOL     OW55016   7.432   2.974   9.705  0.5051 -0.5451  0.2912
17173SOL    HW155017   7.359   3.031   9.681  0.5487 -0.7067 -0.2298
17173SOL    HW255018   7.487   2.972   9.627  0.1338 -1.8843  0.0407
17174SOL     OW55019   5.285   2.787   5.742  0.5222 -0.1473 -0.9154
17174SOL    HW155020   5.282   2.839   5.661  1.6178  1.3608 -0.0489
17174SOL    HW255021   5.352   2.721   5.725 -0.3942 -0.8828 -1.7898
17175SOL     OW55022   5.008   8.391   9.385 -0.2609  0.5541  0.0994
17175SOL    HW155023   4.992   8.415   9.476 -2.6702  0.1953 -0.1609
17175SOL    HW255024   4.921   8.371   9.350  0.7457 -0.6567 -1.9029
17176SOL     OW55025   8.562   3.227   8.752  0.0110 -0.4473  0.4916
17176SOL    HW155026   8.633   3.252   8.693 -2.1159 -1.7915 -2.9577
17176SOL    HW255027   8.584   3.137   8.779  0.3481 -0.3079  0.6848
17177SOL     OW55028   0.453   3.135   4.365 -0.0462  0.0326  0.0958
17177SOL    HW155029   0.358   3.139   4.375 -0.1470 -1.2219 -0.2193
17177SOL    HW255030   0.478   3.050   4.402  0.7143 -0.4727 -1.5026
17178SOL     OW55031   4.243   7.615   6.824 -0.1917  0.0586  0.1520
17178SOL    HW155032   4.287   7.696   6.799 -1.2599  1.0279  1.2915
17178SOL    HW255033   4.290   7.586   6.902 -1.3843  0.9932  1.2589
17179SOL     OW55034   7.931   4.528  10.648 -0.2825  0.5717  0.5113
17179SOL    HW155035   7.964   4.483  10.726  0.1805 -0.6293 -0.3464
17179SOL    HW255036   7.953   4.470  10.575 -4.9232 -0.8656 -0.1312
17180SOL     OW55037   8.940  10.040   6.982 -0.2078  0.3510  0.0643
17180SOL    HW155038   8.853  10.018   7.016 -0.5737  0.3427 -0.8357
17180SOL    HW255039   8.964  10.119   7.029 -0.7830  0.4545  0.2020
17181SOL     OW55040   3.772   9.609   6.724 -0.0883  0.0222  0.1101
17181SOL    HW155041   3.837   9.625   6.793  1.4133 -1.5165 -0.8497
17181SOL    HW255042   3.692   9.587   6.771  1.0147 -1.4585  1.4269
17182SOL     OW55043   6.180   7.875   4.592 -0.3614  0.9906 -0.4035
17182SOL    HW155044   6.179   7.863   4.687 -1.8203  0.7114 -0.4395
17182SOL    HW255045   6.169   7.969   4.579  1.5207  1.2670 -0.2953
17183SOL     OW55046   0.669   8.866   4.485  0.0407  0.0934 -0.0831
17183SOL    HW155047   0.741   8.929   4.498  2.4887 -2.5473  0.0918
17183SOL    HW255048   0.642   8.843   4.574  0.8280 -0.8652 -0.0831
17184SOL     OW55049   8.349   3.356   9.299 -0.0728  0.5403 -0.4254
17184SOL    HW155050   8.297   3.414   9.355  0.7965  1.4552 -0.5362
17184SOL    HW255051   8.344   3.397   9.212  3.1380  2.3417  0.0798
17185SOL     OW55052   5.456   6.360   1.016  0.1984  0.4799 -0.4591
17185SOL    HW155053   5.363   6.337   1.022  0.0961  0.5775 -1.5670
17185SOL    HW255054   5.502   6.276   1.024 -0.0285  0.3142 -0.8670
17186SOL     OW55055   7.295   3.033   9.438 -0.7088  0.9473 -0.3614
17186SOL    HW155056   7.223   3.047   9.500 -1.0902  1.4419 -0.9021
17186SOL    HW255057   7.305   3.117   9.394  1.0509  1.2642  0.5597
17187SOL     OW55058  10.840   0.639   9.334 -0.3288  0.0411 -0.5663
17187SOL    HW155059  10.895   0.688   9.272 -0.9577  0.0450 -1.1360
17187SOL    HW255060  10.792   0.707   9.382  0.4252  0.0510  0.1872
17188SOL     OW55061   5.612   2.410   5.126 -0.1057 -0.4537 -1.4963
17188SOL    HW155062   5.706   2.423   5.130 -0.4048  1.7704  0.3732
17188SOL    HW255063   5.585   2.460   5.048  0.2575 -1.5684 -2.3747
17189SOL     OW55064   5.502   8.479   0.430 -0.3913  0.0351  0.6888
17189SOL    HW155065   5.440   8.429   0.377  0.7450 -1.0751  0.3563
17189SOL    HW255066   5.470   8.470   0.520 -0.0574 -1.5426  0.6678
17190SOL     OW55067   7.225   9.996   0.709 -0.2872  0.6332  0.2243
17190SOL    HW155068   7.134   9.996   0.679 -0.1101 -0.2616 -0.3517
17190SOL    HW255069   7.219   9.989   0.804 -0.8234  1.4127  0.2648
17191SOL     OW55070   6.151   1.821   7.080 -0.6894  0.1974 -0.0195
17191SOL    HW155071   6.214   1.853   7.145 -0.1854  0.0750 -0.4382
17191SOL    HW255072   6.206   1.791   7.007 -1.1451 -1.7150  0.3915
17192SOL     OW55073   9.707   7.917   6.698 -0.2969 -0.0703 -0.4478
17192SOL    HW155074   9.658   7.963   6.630  0.2406 -0.6980 -1.2865
17192SOL    HW255075   9.775   7.979   6.724  0.1086 -0.1881 -1.2044
17193SOL     OW55076   2.460   5.617  10.268  0.2656  0.0088 -0.7572
17193SOL    HW155077   2.496   5.703  10.249  0.5040  0.1830  0.3759
17193SOL    HW255078   2.451   5.616  10.364 -2.3702 -0.1704 -0.9365
17194SOL     OW55079   7.406   3.061   6.943  0.1863 -0.3765 -0.5645
17194SOL    HW155080   7.316   3.027   6.941  0.4610 -1.1489 -0.4075
17194SOL    HW255081   7.426   3.071   7.036  1.3988 -3.4615 -0.3668
17195SOL     OW55082   6.112  10.599   4.647  0.4415  0.0271  0.0978
17195SOL    HW155083   6.122  10.675   4.590  0.2027 -0.2634 -0.3394
17195SOL    HW255084   6.165  10.619   4.724  1.0813  0.2531 -0.3957
17196SOL     OW55085  10.900   9.869   1.127 -0.0741  0.6640 -0.5809
17196SOL    HW155086  10.927   9.794   1.075 -1.1888  0.2064 -0.5385
17196SOL    HW255087  10.814   9.892   1.092 -0.6319  0.6412  0.7122
17197SOL     OW55088   6.198   4.419   8.867 -0.3553 -0.5067 -0.9721
17197SOL    HW155089   6.232   4.508   8.873  2.0151 -1.3974  0.1603
17197SOL    HW255090   6.271   4.369   8.829 -0.6941 -2.4000  0.7346
17198SOL     OW55091   2.581   8.178   5.105 -0.4641  0.2798 -0.0009
17198SOL    HW155092   2.486   8.183   5.106 -0.6433 -2.0910  0.7976
17198SOL    HW255093   2.600   8.111   5.039  0.6066  0.0701  0.5104
17199SOL     OW55094   7.803   4.426   8.926 -0.0537  0.2310 -0.3519
17199SOL    HW155095   7.821   4.342   8.883  0.8721  0.2509 -0.0175
17199SOL    HW255096   7.715   4.450   8.895  0.5506  0.2157 -2.1635
17200SOL     OW55097   8.930   2.482   8.272 -0.3155 -0.4951 -0.2381
17200SOL    HW155098   8.974   2.398   8.280  1.4612  0.2921 -1.1143
17200SOL    HW255099   8.837   2.461   8.271 -0.0416 -2.2078  2.0682
17201SOL     OW55100  10.827   2.514   8.156 -0.0509 -0.0499  0.1094
17201SOL    HW155101  10.903   2.465   8.125 -0.1394 -0.1330  0.0272
17201SOL    HW255102  10.847   2.605   8.134 -0.5573 -0.2100 -1.1179
17202SOL     OW55103  10.494   1.202   4.461  0.1181 -0.4009 -0.1486
17202SOL    HW155104  10.474   1.156   4.543  0.5440  1.8843  1.3238
17202SOL    HW255105  10.408   1.220   4.422 -0.0768 -1.7890 -0.4300
17203SOL     OW55106   3.005   5.734   5.283  0.1665  0.0401 -0.3001
17203SOL    HW155107   3.028   5.814   5.236  3.1849  0.1050  1.0806
17203SOL    HW255108   3.006   5.666   5.216 -0.7185  0.8540 -1.1799
17204SOL     OW55109   7.306   5.192   1.670  0.4036 -0.0341  0.2006
17204SOL    HW155110   7.318   5.207   1.576  0.6389 -1.8092 -0.0853
17204SOL    HW255111   7.332   5.275   1.711 -0.9320  1.2230 -1.3479
17205SOL     OW55112   8.259   3.501   0.731 -0.0170  0.3455  0.3176
17205SOL    HW155113   8.212   3.488   0.813 -0.1846 -1.0816  0.0215
17205SOL    HW255114   8.192   3.528   0.669 -0.2269 -0.3486  0.2287
17206SOL     OW55115   0.763   8.125   7.642  0.5827 -0.5659 -0.1611
17206SOL    HW155116   0.669   8.109   7.629  0.8242 -0.9397 -1.6646
17206SOL    HW255117   0.767   8.213   7.679 -0.3500 -0.4502 -0.2998
17207SOL     OW55118   8.136   7.327   4.782 -0.3244 -0.0714  0.0033
17207SOL    HW155119   8.079   7.346   4.708  0.2211 -2.0297 -0.9978
17207SOL    HW255120   8.124   7.401   4.842 -0.9077  1.4910 -1.9444
17208SOL     OW55121   1.036   7.016   8.208  0.4799 -0.1894 -0.3405
17208SOL    HW155122   1.087   7.064   8.143  2.2971  1.2160  1.9478
17208SOL    HW255123   1.097   6.953   8.245 -0.2824 -0.4843  0.4642
17209SOL     OW55124   5.291   3.571   6.701  0.0575 -0.6023  0.0366
17209SOL    HW155125   5.211   3.623   6.709  0.5063 -0.1069  1.6574
17209SOL    HW255126   5.270   3.505   6.635 -1.2736  0.2603 -0.4450
17210SOL     OW55127   7.659   6.886   5.405  0.0863  0.0260  0.6463
17210SOL    HW155128   7.575   6.865   5.445  0.2396  0.5239  1.2460
17210SOL    HW255129   7.638   6.907   5.314 -0.5088  0.6317  0.9166
17211SOL     OW55130   5.169   5.136  10.890  0.3437 -0.2242  0.2908
17211SOL    HW155131   5.256   5.145  10.851  0.0498  0.0849 -0.3075
17211SOL    HW255132   5.125   5.069  10.837  0.9811 -2.0688  1.9887
17212SOL     OW55133   4.023   0.715   8.649  0.2404  0.3621 -0.0600
17212SOL    HW155134   4.019   0.777   8.722  0.6085  1.2958 -0.8157
17212SOL    HW255135   4.076   0.759   8.583  0.1340 -0.5809 -0.7935
17213SOL     OW55136   0.012   7.173   6.584  0.0975 -0.3072 -0.1564
17213SOL    HW155137   0.032   7.087   6.546  0.2131 -1.4799  2.3479
17213SOL    HW255138  -0.079   7.167   6.611 -0.1126  0.6434 -0.6123
17214SOL     OW55139   0.489   7.633   2.796  0.2971  0.0774  0.0432
17214SOL    HW155140   0.398   7.608   2.782 -0.3369  1.6629  1.0803
17214SOL    HW255141   0.540   7.564   2.753 -1.3802 -0.0877 -1.8171
17215SOL     OW55142   1.940   6.381   6.834  0.3487  0.1577 -0.5410
17215SOL    HW155143   1.985   6.298   6.820  0.8763 -0.0608  2.0057
17215SOL    HW255144   2.008   6.443   6.860 -0.1192  1.2826 -1.8302
17216SOL     OW55145  10.708   4.659   3.523  0.2719 -0.0088 -0.3471
17216SOL    HW155146  10.653   4.728   3.484  0.0145 -0.2887 -0.4813
17216SOL    HW255147  10.657   4.626   3.596 -0.3590 -1.2050 -1.2826
17217SOL     OW55148   8.418   7.760   9.876  0.2257  0.2809  0.4466
17217SOL    HW155149   8.512   7.774   9.884  0.0287  0.7909  2.6583
17217SOL    HW255150   8.379   7.846   9.891 -0.6018 -0.0934  0.5510
17218SOL     OW55151   7.321   2.172   4.006  0.6105  0.0842  0.5072
17218SOL    HW155152   7.254   2.123   3.958  0.7473  0.9985 -0.6559
17218SOL    HW255153   7.314   2.262   3.973  4.0839 -0.2424 -1.6378
17219SOL     OW55154   3.404   9.538   7.822  0.4570  0.4566  0.1477
17219SOL    HW155155   3.429   9.462   7.770 -0.3702 -0.1033  0.5440
17219SOL    HW255156   3.466   9.540   7.894  0.1170 -0.1925  0.4578
17220SOL     OW55157   0.036   5.734   6.920  0.1265  0.2216 -0.7147
17220SOL    HW155158  -0.027   5.805   6.925 -1.1611 -0.7766 -1.9067
17220SOL    HW255159   0.045   5.717   6.826  0.8399 -0.8047 -0.4803
17221SOL     OW55160   5.563   5.126   9.049  0.1293  0.6524  0.3321
17221SOL    HW155161   5.468   5.127   9.034  0.3939  0.3744 -1.6245
17221SOL    HW255162   5.579   5.201   9.105 -1.0457  1.8181 -0.8141
17222SOL     OW55163   5.321   2.348   0.257  0.0325  0.3593  0.5153
17222SOL    HW155164   5.231   2.318   0.242  0.9957 -3.1478  0.7168
17222SOL    HW255165   5.316   2.405   0.334 -2.0105  0.2658  0.4884
17223SOL     OW55166   1.164   0.799  10.199  0.0130  0.4914 -0.1640
17223SOL    HW155167   1.077   0.759  10.189 -0.7831  1.0800  3.1723
17223SOL    HW255168   1.146   0.890  10.221  1.3220  0.2617  2.2307
17224SOL     OW55169   4.932   4.912   6.409 -0.6986  0.1395 -0.6230
17224SOL    HW155170   4.853   4.948   6.451 -0.6676  0.8496 -1.1468
17224SOL    HW255171   4.971   4.987   6.364  0.9141  0.0734  0.5744
17225SOL     OW55172   8.445   7.633   6.118  0.7635  0.3753 -0.3147
17225SOL    HW155173   8.496   7.634   6.036  1.3646  0.5456  0.0518
17225SOL    HW255174   8.390   7.556   6.111  1.2972  0.0135 -0.5959
17226SOL     OW55175   4.747   3.153   0.288  0.2361  0.4895  0.0374
17226SOL    HW155176   4.784   3.198   0.213 -0.1947  0.9228  0.0840
17226SOL    HW255177   4.695   3.219   0.334  0.1239  0.1160  0.4631
17227SOL     OW55178   8.043   0.288   3.919  0.0750 -0.0941 -0.3453
17227SOL    HW155179   8.116   0.350   3.925  0.3969 -0.4945 -0.0747
17227SOL    HW255180   7.991   0.303   3.997  0.9801 -1.1847  0.5129
17228SOL     OW55181  10.321   7.463   0.660  0.6812 -0.2939 -0.1548
17228SOL    HW155182  10.249   7.419   0.706  1.8000  0.0357  2.0636
17228SOL    HW255183  10.284   7.546   0.632 -0.5930 -1.3286 -1.6782
17229SOL     OW55184   8.445   8.651  10.769  0.1526  0.2370  0.2402
17229SOL    HW155185   8.488   8.613  10.846  1.8498 -0.4423 -1.0020
17229SOL    HW255186   8.353   8.628  10.780  0.3887 -0.0578  1.9300
17230SOL     OW55187   6.965   6.782   6.159  0.2670  0.4107 -0.0640
17230SOL    HW155188   7.055   6.784   6.192  0.4721 -0.3787 -0.5662
17230SOL    HW255189   6.930   6.698   6.188 -0.7159  1.1943  1.1397
17231SOL     OW55190   4.921   3.718   5.046 -0.1420 -0.3155  0.0800
17231SOL    HW155191   5.015   3.709   5.065  0.0554 -0.4378 -0.8868
17231SOL    HW255192   4.912   3.684   4.957 -1.1442 -0.4858  0.2398
17232SOL     OW55193   5.193   1.013   9.743  0.2341  0.2039  0.3089
17232SOL    HW155194   5.135   0.960   9.799  0.1640 -0.9818 -0.8461
17232SOL    HW255195   5.139   1.035   9.667  0.6985  0.7761  0.1435
17233SOL     OW55196   9.430   7.803   1.510  0.7780 -0.1442  0.2797
17233SOL    HW155197   9.429   7.710   1.534 -2.7091 -0.3190 -0.0762
17233SOL    HW255198   9.502   7.810   1.448  1.2270 -2.5835  0.3996
17234SOL     OW55199   0.219   2.650   0.945 -0.3772  0.4522 -0.2143
17234SOL    HW155200   0.164   2.707   0.998  0.5360 -1.4447  3.0944
17234SOL    HW255201   0.178   2.650   0.859 -3.5508  1.7586  1.1418
17235SOL     OW55202   8.227   6.055   2.179 -0.8809 -0.5080 -0.2526
17235SOL    HW155203   8.303   6.014   2.137 -1.1590 -0.1554 -1.1411
17235SOL    HW255204   8.214   6.005   2.259 -0.0540 -0.9295 -0.3626
17236SOL     OW55205   9.400   6.788   0.275  0.1896 -0.1686  0.3237
17236SOL    HW155206   9.417   6.852   0.206  0.1564 -0.8082 -0.2975
17236SOL    HW255207   9.486   6.749   0.293  0.0056 -0.8497 -0.2262
17237SOL     OW55208   7.008   9.244   7.277  0.0057 -0.1516 -0.0803
17237SOL    HW155209   6.950   9.319   7.264  1.7158  1.4808  1.1002
17237SOL    HW255210   6.974   9.202   7.356 -2.1146 -1.8906 -1.7742
17238SOL     OW55211   9.353   9.873   7.299 -0.2852 -0.8495 -0.1761
17238SOL    HW155212   9.399   9.810   7.244 -2.3442 -1.2247 -1.5987
17238SOL    HW255213   9.321   9.939   7.237 -0.1670  0.3413  0.9952
17239SOL     OW55214  10.133   0.602   2.840  0.1212 -0.4188  0.0274
17239SOL    HW155215  10.106   0.558   2.920 -1.6676 -0.8384 -0.7447
17239SOL    HW255216  10.096   0.690   2.847 -1.0270 -0.7992 -0.7642
17240SOL     OW55217   5.086   4.950   2.462  0.3499 -0.3087  0.3858
17240SOL    HW155218   5.103   5.036   2.500  2.9461  1.6732 -4.3726
17240SOL    HW255219   4.995   4.955   2.432  0.1585  0.3391  1.0315
17241SOL     OW55220   7.191   7.972   2.251 -0.4001  0.2082 -0.0102
17241SOL    HW155221   7.211   7.880   2.238  0.8634  0.5417 -0.5871
17241SOL    HW255222   7.274   8.010   2.280 -1.0267  1.0788  0.6972
17242SOL     OW55223   6.439   2.883   1.684 -0.2386  0.0481  1.0076
17242SOL    HW155224   6.497   2.855   1.613 -2.0114 -0.3915 -0.3154
17242SOL    HW255225   6.365   2.925   1.640 -0.9744  0.5631  2.6476
17243SOL     OW55226  10.617  10.035   8.393  0.3830 -0.3321 -0.2740
17243SOL    HW155227  10.608   9.998   8.305  0.4827  0.4440 -0.6264
17243SOL    HW255228  10.711  10.052   8.403  0.4119 -0.7146  0.1073
17244SOL     OW55229   9.166   2.020  10.223  0.0999  0.0656  0.1614
17244SOL    HW155230   9.210   1.971  10.293 -0.6127  0.0989  0.6417
17244SOL    HW255231   9.095   2.067  10.268 -0.2011  0.2984 -0.5484
17245SOL     OW55232   5.343   2.822   8.022  0.7860  0.1468 -0.5993
17245SOL    HW155233   5.256   2.858   8.003 -0.3219 -0.6152  2.4083
17245SOL    HW255234   5.392   2.832   7.941 -1.5118  2.3404 -1.8342
17246SOL     OW55235  10.086   7.569   8.581  0.4679  0.5926 -0.0815
17246SOL    HW155236  10.137   7.650   8.584  0.9515  0.2707  0.9291
17246SOL    HW255237   9.996   7.596   8.601  0.5729  0.9147 -0.0439
17247SOL     OW55238  10.343   3.606   0.531  0.1980  0.5586 -0.4086
17247SOL    HW155239  10.366   3.513   0.531  0.2844  0.5790 -0.0780
17247SOL    HW255240  10.247   3.607   0.535  0.1518  0.4769 -1.3841
17248SOL     OW55241   9.566   0.486   3.078 -0.3283 -0.0898  0.0647
17248SOL    HW155242   9.599   0.427   3.146 -0.4620  0.7374  0.8544
17248SOL    HW255243   9.571   0.573   3.116  1.2885  0.6272 -1.6297
17249SOL     OW55244   0.607   7.383   5.571  0.1614 -0.5025  0.0659
17249SOL    HW155245   0.534   7.403   5.512  0.8669  0.4965 -0.4982
17249SOL    HW255246   0.565   7.346   5.648 -0.7402 -2.6967 -1.3723
17250SOL     OW55247   7.128  10.310   1.555  0.0155 -0.2265 -0.1490
17250SOL    HW155248   7.045  10.341   1.592  0.5829  1.1684  0.0310
17250SOL    HW255249   7.187  10.385   1.565  0.6591 -0.3564 -2.3958
17251SOL     OW55250   5.556   2.257   0.739  0.5143  0.7244 -0.0997
17251SOL    HW155251   5.625   2.192   0.750 -1.1623 -1.4195 -1.3669
17251SOL    HW255252   5.594   2.322   0.680  1.2581 -0.8459 -1.4612
17252SOL     OW55253   6.657   8.991   8.179 -0.9682 -0.3911  0.6089
17252SOL    HW155254   6.573   9.000   8.134 -0.6917  0.8325  0.2987
17252SOL    HW255255   6.639   8.933   8.253 -2.4826  1.1720  1.5306
17253SOL     OW55256   8.452   7.350   7.802  0.1787  0.3464  0.4984
17253SOL    HW155257   8.462   7.440   7.771  0.1271  0.4721  0.8419
17253SOL    HW255258   8.368   7.321   7.765 -0.7515  1.0925  1.9492
17254SOL     OW55259   2.724   9.297   7.156  0.0452  0.0855 -0.5270
17254SOL    HW155260   2.631   9.303   7.178  0.8040  2.3626  2.7072
17254SOL    HW255261   2.735   9.355   7.081 -0.9353  0.9382 -0.0327
17255SOL     OW55262   0.943   3.301   8.229  0.1704  0.5290  0.7247
17255SOL    HW155263   0.862   3.250   8.234  0.2131  0.1985 -1.2955
17255SOL    HW255264   1.009   3.239   8.197  0.6699  1.3685  0.0850
17256SOL     OW55265   4.721   7.781  10.501 -0.0194  0.6284  0.1654
17256SOL    HW155266   4.791   7.730  10.543  0.3412  2.2842  1.6992
17256SOL    HW255267   4.751   7.872  10.508 -0.8371  1.1199 -2.0991
17257SOL     OW55268   7.629   6.099   4.136  0.1739 -0.4779  0.1884
17257SOL    HW155269   7.660   6.123   4.049  0.7234  1.1706  0.7961
17257SOL    HW255270   7.635   6.004   4.139 -0.0129 -0.5703 -1.6145
17258SOL     OW55271   5.565   9.969  11.008  0.3118  0.6995  0.2390
17258SOL    HW155272   5.646   9.927  10.977  0.2299  2.2310 -2.3995
17258SOL    HW255273   5.593  10.021  11.084  1.4697 -0.0572  0.3613
17259SOL     OW55274   5.250   3.402   6.448  0.2284  0.3618  0.3911
17259SOL    HW155275   5.314   3.419   6.379  0.2070  0.9566  0.5114
17259SOL    HW255276   5.166   3.426   6.410  0.0981 -0.2279  0.3012
17260SOL     OW55277   1.172   0.317   4.017  0.3868 -0.1747  0.3192
17260SOL    HW155278   1.214   0.401   4.033 -0.9024  0.4368  0.5745
17260SOL    HW255279   1.109   0.307   4.089 -0.2817 -0.8141 -0.3326
17261SOL     OW55280   2.683   6.855   5.357 -0.3222  0.1532 -0.3843
17261SOL    HW155281   2.638   6.862   5.273 -1.8864  0.1870  0.4317
17261SOL    HW255282   2.770   6.893   5.340 -0.7636  0.5837 -1.8592
17262SOL     OW55283  10.653   4.166   1.219  0.0340  0.1658 -0.6881
17262SOL    HW155284  10.664   4.123   1.134 -0.8761  0.4049 -0.9312
17262SOL    HW255285  10.623   4.097   1.278 -0.9648  0.3485 -0.9665
17263SOL     OW55286   0.996   9.916   3.555 -0.4947 -0.1833  0.1264
17263SOL    HW155287   1.035   9.833   3.580  0.2824  0.0340 -0.3305
17263SOL    HW255288   0.907   9.912   3.589 -0.1751 -0.8197  0.9124
17264SOL     OW55289   3.024   2.549   0.083 -0.3574  0.0735 -0.0612
17264SOL    HW155290   2.944   2.529   0.035  0.1785 -1.5628 -0.3160
17264SOL    HW255291   3.094   2.511   0.031  0.3586 -0.6358  1.3581
17265SOL     OW55292   3.894   8.615  10.878 -0.3950  0.1168 -0.5038
17265SOL    HW155293   3.875   8.655  10.793 -1.0494  0.0921 -0.3776
17265SOL    HW255294   3.835   8.539  10.883  0.1741 -0.3192 -0.3455
17266SOL     OW55295   0.262   6.402   6.913  0.7626  0.3110  0.0831
17266SOL    HW155296   0.223   6.388   6.999  0.1084  0.6230 -0.1624
17266SOL    HW255297   0.326   6.331   6.904  0.1931 -0.2598  0.4503
17267SOL     OW55298   0.125   4.709   6.531 -0.4729  0.5171 -0.3404
17267SOL    HW155299   0.169   4.790   6.557  1.1891 -0.2656 -0.5298
17267SOL    HW255300   0.033   4.731   6.526 -0.1125  2.2489  0.1598
17268SOL     OW55301   1.952   2.767   4.324 -0.3601 -0.4418 -0.6181
17268SOL    HW155302   2.018   2.821   4.280  0.8888 -0.9774  0.5147
17268SOL    HW255303   1.920   2.708   4.256  0.3497 -0.1800 -1.1952
17269SOL     OW55304   6.391  10.812   9.921 -0.7278  0.8577 -0.0350
17269SOL    HW155305   6.300  10.824   9.951 -1.1414  0.4430 -1.0963
17269SOL    HW255306   6.384  10.750   9.849  0.0237  3.0896 -2.1384
17270SOL     OW55307   5.627   3.530  10.204 -0.2662  0.0039  0.1294
17270SOL    HW155308   5.721   3.533  10.188 -0.4919 -0.0268 -1.2835
17270SOL    HW255309   5.618   3.473  10.281  0.9367  1.0075  1.0472
17271SOL     OW55310   0.343   9.155   6.872 -0.4349 -0.2668  0.0120
17271SOL    HW155311   0.379   9.243   6.862 -2.6663  0.8949  1.3425
17271SOL    HW255312   0.412   9.106   6.917 -0.1717  1.6525  1.8771
17272SOL     OW55313   2.153  10.044   6.151  0.1733  0.3851 -0.1349
17272SOL    HW155314   2.115  10.024   6.066  1.7306  0.0528 -0.7705
17272SOL    HW255315   2.115  10.129   6.174  2.8180  2.5669 -3.1097
17273SOL     OW55316   7.372   8.060   6.876  0.2910 -0.8334 -0.1379
17273SOL    HW155317   7.415   7.981   6.843  1.8692 -1.0357  2.1296
17273SOL    HW255318   7.444   8.118   6.901 -0.8200  0.4919  0.1266
17274SOL     OW55319   8.656   1.932   6.953 -0.2445  0.5053 -0.8684
17274SOL    HW155320   8.711   1.870   7.000  0.7419  1.6895 -0.4270
17274SOL    HW255321   8.634   1.887   6.871 -0.1595 -0.6937 -0.2535
17275SOL     OW55322   1.425   0.201   4.852  0.0684  0.1655  0.1117
17275SOL    HW155323   1.494   0.267   4.859  0.4564 -0.3706  1.9056
17275SOL    HW255324   1.422   0.178   4.759  1.1246  1.4308 -0.2551
17276SOL     OW55325   1.506   0.633   6.046 -0.1508  0.6506 -0.5860
17276SOL    HW155326   1.421   0.663   6.080  0.2942  0.6246  0.6113
17276SOL    HW255327   1.515   0.676   5.962 -1.1522  1.0162 -0.5199
17277SOL     OW55328   8.628   6.504   5.811 -0.5679 -0.0683 -0.2455
17277SOL    HW155329   8.591   6.480   5.896  1.3840 -0.6639  0.5077
17277SOL    HW255330   8.620   6.599   5.807 -1.9875 -0.1667 -0.0505
17278SOL     OW55331   9.479   7.868   5.303 -0.5059  0.3937  0.4966
17278SOL    HW155332   9.538   7.931   5.344  1.3254 -1.2154  0.4449
17278SOL    HW255333   9.496   7.786   5.348 -2.9229 -0.1182  0.6414
17279SOL     OW55334   9.316   4.976   0.116 -0.1276  0.1001  0.2305
17279SOL    HW155335   9.228   4.998   0.146 -0.5528 -0.7592 -0.3441
17279SOL    HW255336   9.302   4.913   0.046  0.9599 -0.4455  0.4841
17280SOL     OW55337   3.587   5.841   5.207  0.5142  0.0055  0.1058
17280SOL    HW155338   3.649   5.769   5.194  0.0909 -0.3558  0.0497
17280SOL    HW255339   3.535   5.815   5.283 -1.2121 -0.8968 -1.3075
17281SOL     OW55340   3.001   2.286   2.983  0.1273 -0.1560 -1.0796
17281SOL    HW155341   3.021   2.370   3.026  0.6021 -0.3575 -0.8985
17281SOL    HW255342   2.949   2.310   2.906 -2.1086  0.1247  0.4034
17282SOL     OW55343   5.618   0.021   4.707  0.5782 -0.1290 -0.2126
17282SOL    HW155344   5.680   0.095   4.711  0.5346 -0.0182 -1.3736
17282SOL    HW255345   5.546   0.053   4.653  0.3240 -0.8631 -0.3145
17283SOL     OW55346  10.119   6.489   8.656 -0.3796 -0.7793 -0.4015
17283SOL    HW155347  10.203   6.456   8.687 -0.0648 -0.1875 -0.6025
17283SOL    HW255348  10.067   6.502   8.736 -0.3725 -1.3851 -0.2966
17284SOL     OW55349   3.380   7.223   6.953 -0.7350 -0.5193  0.5134
17284SOL    HW155350   3.310   7.201   7.015  0.5501  0.5226  2.4220
17284SOL    HW255351   3.394   7.317   6.965 -0.3229 -0.3200 -1.2711
17285SOL     OW55352   2.584   7.135   9.491  0.0156  1.0503  0.2312
17285SOL    HW155353   2.673   7.154   9.521  0.2235 -0.5821  0.7529
17285SOL    HW255354   2.541   7.096   9.567 -0.5711  0.1184 -0.5609
17286SOL     OW55355   5.514   9.322  10.901  0.0008  0.7417 -0.5416
17286SOL    HW155356   5.459   9.356  10.972  0.0648  2.2328 -1.1793
17286SOL    HW255357   5.472   9.354  10.821  0.3460 -0.3044 -1.1589
17287SOL     OW55358   1.228   1.355   2.310  0.1915 -0.3461  0.1295
17287SOL    HW155359   1.308   1.304   2.321  0.0995 -0.4910  0.1324
17287SOL    HW255360   1.258   1.441   2.281  0.2673 -0.7826 -1.1068
17288SOL     OW55361   6.021   6.469   8.817  0.3507  0.1784 -0.6701
17288SOL    HW155362   6.035   6.389   8.868  1.9354  0.2792 -0.9106
17288SOL    HW255363   6.014   6.439   8.726 -1.5450  0.0999 -0.5548
17289SOL     OW55364   1.253   7.333   5.585 -0.3093 -0.4061 -0.1371
17289SOL    HW155365   1.343   7.357   5.563 -0.1790 -0.5016  0.2787
17289SOL    HW255366   1.205   7.416   5.583  0.0996 -0.1204  1.1061
17290SOL     OW55367   0.745   1.320   9.653 -0.1207 -0.2606 -0.4878
17290SOL    HW155368   0.654   1.296   9.669 -0.1006  0.1268  0.2714
17290SOL    HW255369   0.787   1.312   9.739  0.0299  1.7988 -0.3194
17291SOL     OW55370   2.280   1.245   5.163 -0.6192  0.4123 -0.5115
17291SOL    HW155371   2.189   1.236   5.189 -0.6043  0.1671 -0.5416
17291SOL    HW255372   2.282   1.324   5.109 -0.9540  0.0176 -1.1186
17292SOL     OW55373   2.496   8.689   5.309 -0.4750  0.6189  0.0610
17292SOL    HW155374   2.518   8.613   5.364 -1.2187 -0.3285 -0.9245
17292SOL    HW255375   2.507   8.764   5.368 -1.5527 -0.3821  1.6263
17293SOL     OW55376   0.640   6.912   3.850  0.1729  1.0061  0.6817
17293SOL    HW155377   0.562   6.902   3.905  0.0363 -0.0931  0.3142
17293SOL    HW255378   0.708   6.944   3.909  0.2477 -0.8891  1.7075
17294SOL     OW55379   5.754   3.658   8.527 -0.1458 -0.7610  0.4634
17294SOL    HW155380   5.781   3.653   8.618 -0.1208  1.1425  0.5967
17294SOL    HW255381   5.801   3.586   8.484  0.2379 -1.3610  1.8286
17295SOL     OW55382   3.948   8.853   7.850 -0.0327  0.5737 -0.4204
17295SOL    HW155383   3.897   8.772   7.839 -0.3279  0.7700 -0.5129
17295SOL    HW255384   4.008   8.833   7.922  0.7256 -0.1322 -1.2351
17296SOL     OW55385   2.534   1.566   1.564  0.4785  0.0368 -0.6570
17296SOL    HW155386   2.443   1.550   1.590  0.2552  2.1772  0.0818
17296SOL    HW255387   2.578   1.483   1.577 -0.8029 -0.3580  1.5549
17297SOL     OW55388   7.349   3.455   2.858  0.3651 -0.1719 -1.0475
17297SOL    HW155389   7.256   3.435   2.867  0.3009  0.1125 -1.0671
17297SOL    HW255390   7.381   3.391   2.795  0.9267 -2.5341  1.4326
17298SOL     OW55391   0.284   3.621   5.978 -0.2224 -0.3119  0.0484
17298SOL    HW155392   0.360   3.576   5.943  0.5600  0.4044  0.7769
17298SOL    HW255393   0.320   3.687   6.037 -1.4658 -1.0504  1.7113
17299SOL     OW55394   3.751   3.352   0.025 -0.0675  0.1408  0.1829
17299SOL    HW155395   3.746   3.387   0.114 -0.1547  0.9258 -0.1249
17299SOL    HW255396   3.659   3.335   0.002 -0.1714  1.3269 -0.2972
17300SOL     OW55397   2.307   3.656   6.673  0.3343 -0.1605  0.4923
17300SOL    HW155398   2.278   3.620   6.757 -1.2503 -0.7215 -0.2621
17300SOL    HW255399   2.233   3.707   6.642  1.3476  1.0378 -0.0322
17301SOL     OW55400   3.696   3.031   0.852  0.5854  0.5490  0.6648
17301SOL    HW155401   3.719   3.018   0.944 -0.2361  0.0819  0.8168
17301SOL    HW255402   3.640   2.956   0.831  0.4373  0.8679 -0.1017
17302SOL     OW55403   6.991   3.081   9.239  0.0802 -0.3785  0.9064
17302SOL    HW155404   7.079   3.063   9.273  0.6311  0.5710  0.0694
17302SOL    HW255405   7.007   3.138   9.164 -1.1673 -1.4173 -0.1810
17303SOL     OW55406   0.663   6.233   6.277  0.5255  0.5211  0.5498
17303SOL    HW155407   0.728   6.254   6.210  0.1317 -1.5629 -0.5935
17303SOL    HW255408   0.708   6.174   6.337 -0.3725 -1.3851 -0.5583
17304SOL     OW55409   8.423   6.222   4.570 -0.1041 -0.0063 -0.7465
17304SOL    HW155410   8.415   6.258   4.482 -0.3014  0.3200 -0.5974
17304SOL    HW255411   8.341   6.246   4.614 -0.4094 -0.9807 -0.7634
17305SOL     OW55412   3.340   0.786   1.161 -0.1368 -0.1300 -0.3636
17305SOL    HW155413   3.387   0.802   1.243  0.2226  0.9417 -0.7588
17305SOL    HW255414   3.251   0.764   1.189  0.4317 -1.6221  0.3721
17306SOL     OW55415   3.266   8.449   6.482 -0.4090  0.3998 -0.4423
17306SOL    HW155416   3.323   8.407   6.546 -0.9536  0.4536  0.0864
17306SOL    HW255417   3.326   8.494   6.423  0.1614 -0.6254 -0.6784
17307SOL     OW55418   5.191   1.043   5.408  0.5920  0.2531 -0.2674
17307SOL    HW155419   5.224   0.991   5.335  0.8985 -0.4061  0.3385
17307SOL    HW255420   5.160   1.124   5.367 -1.8846 -1.2033 -1.5341
17308SOL     OW55421   9.245   5.910   3.243  0.2997  0.1214  0.4969
17308SOL    HW155422   9.256   5.837   3.304  1.0374 -0.2280 -0.0530
17308SOL    HW255423   9.163   5.952   3.271 -1.4894 -2.3547 -0.6989
17309SOL     OW55424   4.215   3.902   8.470  0.0616 -0.4111 -0.1798
17309SOL    HW155425   4.232   3.810   8.492  3.2870 -0.5318 -2.4026
17309SOL    HW255426   4.192   3.943   8.553 -2.1584 -3.2759  0.7954
17310SOL     OW55427   2.063  10.463   7.822 -0.5407  0.3252 -0.1334
17310SOL    HW155428   2.117  10.527   7.869 -0.9731  0.1629  0.5940
17310SOL    HW255429   2.043  10.506   7.738 -1.2505  1.3717  0.5484
17311SOL     OW55430   9.086   9.661   8.914  0.0392 -0.1399 -0.2561
17311SOL    HW155431   9.110   9.743   8.871  1.3836 -0.0382  0.6011
17311SOL    HW255432   9.125   9.668   9.001 -1.7122 -0.7755  0.6229
17312SOL     OW55433   3.659   4.642   3.257 -0.1997 -0.0077 -0.5525
17312SOL    HW155434   3.693   4.647   3.168 -1.2712 -0.2285 -0.9961
17312SOL    HW255435   3.671   4.731   3.291 -0.1830  0.1994 -1.0767
17313SOL     OW55436   1.015   4.523   7.376  0.0043  0.1134  0.1856
17313SOL    HW155437   0.936   4.469   7.381 -1.3409  1.5489 -2.6419
17313SOL    HW255438   1.080   4.467   7.334 -0.5218 -0.1798 -0.2564
17314SOL     OW55439   1.654   9.728   3.361  0.1207  0.0897 -0.0046
17314SOL    HW155440   1.629   9.766   3.277  2.4933  1.2884 -0.2295
17314SOL    HW255441   1.728   9.781   3.391 -0.0713 -0.8755  2.4221
17315SOL     OW55442   9.595   9.266   7.935 -0.0340  0.2831  0.1105
17315SOL    HW155443   9.503   9.250   7.952  0.3345  0.1464  2.2924
17315SOL    HW255444   9.641   9.217   8.003  1.7454 -0.7984 -1.7334
17316SOL     OW55445   1.307   3.701   3.993 -0.1316  0.0094  0.4155
17316SOL    HW155446   1.365   3.777   3.990  1.7364 -1.3370  0.7565
17316SOL    HW255447   1.329   3.649   3.916 -2.3413  0.3975 -0.5687
17317SOL     OW55448   3.357   4.618   4.393  0.1093  0.3889  0.8359
17317SOL    HW155449   3.427   4.601   4.456  0.1372 -0.7100  0.5297
17317SOL    HW255450   3.399   4.608   4.307 -0.3793 -0.1110  0.6507
17318SOL     OW55451  10.369   4.950   0.810  0.5943 -0.2532 -0.5849
17318SOL    HW155452  10.301   4.894   0.848 -0.9745  0.5907 -1.9998
17318SOL    HW255453  10.441   4.890   0.791 -0.4101 -1.5168 -0.5709
17319SOL     OW55454  10.657   8.285   3.408  0.0509  0.1919  0.6695
17319SOL    HW155455  10.726   8.323   3.464  0.7932 -0.7558  0.4171
17319SOL    HW255456  10.608   8.361   3.377 -0.0341  0.7861  2.1563
17320SOL     OW55457   3.746   5.687  10.049  0.3193 -0.3063  0.2055
17320SOL    HW155458   3.766   5.764   9.995  0.5687  0.5026  1.4122
17320SOL    HW255459   3.797   5.617  10.010  0.2815  0.1973 -0.7771
17321SOL     OW55460   5.297   6.848   4.758 -0.1287  0.1824  0.2205
17321SOL    HW155461   5.319   6.940   4.744  1.5083 -0.3594 -1.0610
17321SOL    HW255462   5.204   6.843   4.738  0.0842  1.3007 -1.2075
17322SOL     OW55463  10.063   7.582   6.370 -0.8581  0.0964  0.0539
17322SOL    HW155464  10.014   7.580   6.452 -0.7392  1.6617  0.1788
17322SOL    HW255465   9.996   7.587   6.302 -0.9447 -0.9388  0.0334
17323SOL     OW55466   5.276   2.226   3.108 -0.3631  0.0206 -0.0463
17323SOL    HW155467   5.182   2.240   3.097 -0.2948  0.3480 -0.2194
17323SOL    HW255468   5.304   2.184   3.027 -0.4944 -0.7591  0.3096
17324SOL     OW55469   9.616   9.795   9.631 -0.0633  0.5228  0.1199
17324SOL    HW155470   9.639   9.867   9.571 -0.9935 -0.2245 -1.1887
17324SOL    HW255471   9.676   9.725   9.607 -0.0233  0.4265  0.5066
17325SOL     OW55472   1.623   5.188   4.145 -0.3786 -0.3019 -0.3928
17325SOL    HW155473   1.624   5.121   4.078 -0.0442 -1.2732  0.5457
17325SOL    HW255474   1.666   5.147   4.221 -1.9099  0.2879  0.8540
17326SOL     OW55475   9.926   1.135   3.561 -0.3491 -0.4488  0.2551
17326SOL    HW155476   9.883   1.220   3.563  0.6025  0.0369  0.3870
17326SOL    HW255477   9.875   1.081   3.622 -0.7732  0.1127  0.4034
17327SOL     OW55478   2.435   2.633   1.082  0.0342  0.0724  0.2371
17327SOL    HW155479   2.358   2.689   1.095 -0.1117 -0.0235 -0.2240
17327SOL    HW255480   2.411   2.575   1.010  1.0510  0.9740 -0.8753
17328SOL     OW55481  10.741   6.311  10.448  0.0344  0.2780 -0.3746
17328SOL    HW155482  10.650   6.291  10.469 -0.2004  0.6662 -1.0081
17328SOL    HW255483  10.737   6.394  10.401  0.9298  1.5906  1.7007
17329SOL     OW55484   5.652   4.921   1.811  0.2749  0.6063 -0.2859
17329SOL    HW155485   5.745   4.907   1.793  0.1942 -1.8733  0.7931
17329SOL    HW255486   5.614   4.833   1.809 -1.9313  1.4917 -0.0551
17330SOL     OW55487   4.411   8.902   5.150 -0.0288 -0.2159 -0.5956
17330SOL    HW155488   4.316   8.912   5.162 -0.1237  0.0087 -1.4448
17330SOL    HW255489   4.437   8.980   5.102  0.6454 -0.1321 -0.1010
17331SOL     OW55490   3.386   3.841   2.469 -0.2773 -0.2703  0.7221
17331SOL    HW155491   3.308   3.842   2.525 -0.6245 -0.8386  0.2618
17331SOL    HW255492   3.393   3.931   2.436 -0.8640 -0.2697  0.5934
17332SOL     OW55493   4.361   1.866   2.333 -0.1359 -0.2108 -0.2727
17332SOL    HW155494   4.367   1.913   2.250 -1.0380  0.9810  0.2907
17332SOL    HW255495   4.268   1.846   2.342 -0.0072 -0.5584  0.3324
17333SOL     OW55496   4.937   1.079   5.864  0.4862 -0.2821 -0.8298
17333SOL    HW155497   4.899   1.029   5.792 -2.2285  0.6392 -0.1261
17333SOL    HW255498   4.866   1.133   5.896  2.7049  2.4168 -0.1040
17334SOL     OW55499   6.931   3.508  10.561 -0.5566  0.5941  0.2787
17334SOL    HW155500   6.902   3.577  10.501 -1.4747  0.4265  0.5124
17334SOL    HW255501   6.984   3.450  10.507  0.4507  1.6142  0.1368
17335SOL     OW55502   8.324   5.189   1.180 -0.4242  0.2916 -0.2306
17335SOL    HW155503   8.282   5.275   1.187 -0.2483  0.3860 -0.3253
17335SOL    HW255504   8.410   5.207   1.142  0.3803  0.3176  1.4742
17336SOL     OW55505   3.203   0.812   6.240 -0.0912  0.5847 -0.3328
17336SOL    HW155506   3.287   0.843   6.206 -0.5107  1.5096 -0.5642
17336SOL    HW255507   3.137   0.866   6.195 -0.7268  0.9694  1.0098
17337SOL     OW55508   0.636   8.395   5.489  0.2005 -0.0546 -0.0655
17337SOL    HW155509   0.680   8.396   5.403 -3.0505 -0.0785 -1.8921
17337SOL    HW255510   0.614   8.486   5.505 -2.2410 -0.4147 -1.0453
17338SOL     OW55511   8.051   9.066   9.859  0.6637 -0.1500 -0.1426
17338SOL    HW155512   8.115   9.119   9.906  1.3292 -0.1219 -1.0412
17338SOL    HW255513   7.988   9.039   9.925  0.5163  1.4596  0.4088
17339SOL     OW55514   0.722   8.293   9.240 -0.4529  0.1442 -0.1124
17339SOL    HW155515   0.786   8.227   9.267  0.7680  1.3347  0.0238
17339SOL    HW255516   0.764   8.376   9.260 -1.0768  1.0258 -2.1637
17340SOL     OW55517   1.191   1.528   8.064 -0.1682 -0.1199  0.1864
17340SOL    HW155518   1.194   1.572   7.979 -0.9261  0.5341  0.4884
17340SOL    HW255519   1.181   1.599   8.128  0.7904 -0.5682  0.8645
17341SOL     OW55520   1.166   9.311   3.407 -0.5062 -0.2519 -0.1303
17341SOL    HW155521   1.149   9.234   3.461 -0.9832  0.9153  1.4644
17341SOL    HW255522   1.178   9.383   3.469  1.1915  0.7657 -1.5049
17342SOL     OW55523   8.441   9.628  10.866 -0.2997 -0.3687  0.3566
17342SOL    HW155524   8.462   9.629  10.773 -0.6714 -1.4565  0.2506
17342SOL    HW255525   8.501   9.563  10.903  0.1323  0.3544  0.9548
17343SOL     OW55526   8.418   5.405   8.499 -0.4542  0.5025 -0.2197
17343SOL    HW155527   8.363   5.481   8.518 -0.5233  0.5139 -0.4621
17343SOL    HW255528   8.356   5.337   8.472 -0.3061  0.6841 -1.0325
17344SOL     OW55529   5.980   1.144   6.867 -0.5834 -0.1623 -0.7779
17344SOL    HW155530   6.021   1.098   6.940 -2.2091  3.0352  2.5134
17344SOL    HW255531   5.890   1.111   6.865 -0.4105 -0.6060 -1.7492
17345SOL     OW55532   5.676   9.353   4.847  0.8747  0.0346  0.2905
17345SOL    HW155533   5.618   9.295   4.796  1.0791 -0.4837  0.6375
17345SOL    HW255534   5.756   9.359   4.794  1.0050 -0.3307  0.4394
17346SOL     OW55535  10.951   6.037   4.936 -0.0692  0.6144 -0.0502
17346SOL    HW155536  11.044   6.053   4.922  0.7381  0.5628  3.9690
17346SOL    HW255537  10.941   5.942   4.930  0.3516  0.5387  0.4218
17347SOL     OW55538   1.605   0.898   4.484 -0.0121 -0.5973  0.3682
17347SOL    HW155539   1.527   0.880   4.432 -0.5708 -0.7455  1.2415
17347SOL    HW255540   1.571   0.927   4.569  0.8773  0.3458  0.4234
17348SOL     OW55541   9.016   8.228   3.234 -0.1726 -0.0461 -0.3581
17348SOL    HW155542   9.032   8.264   3.147  0.6030  0.8948  0.1521
17348SOL    HW255543   8.960   8.151   3.219  1.8679 -1.3090 -1.8961
17349SOL     OW55544  10.728   1.322   4.658  0.5240  0.2557 -0.1003
17349SOL    HW155545  10.655   1.275   4.619  1.0325  0.6202 -1.5844
17349SOL    HW255546  10.806   1.278   4.624  1.0021  0.5746  0.5509
17350SOL     OW55547   7.657   5.108   8.692 -0.1806  0.3152  0.2133
17350SOL    HW155548   7.600   5.184   8.702 -0.9359 -0.0642 -0.9924
17350SOL    HW255549   7.603   5.034   8.723 -0.0356  0.0696 -0.1129
17351SOL     OW55550   8.384   8.434   4.217  0.1973 -0.8294  0.0335
17351SOL    HW155551   8.382   8.339   4.206  0.0464 -0.7032 -1.1330
17351SOL    HW255552   8.292   8.459   4.226  0.1681 -0.7034 -0.5713
17352SOL     OW55553   3.284   2.120   2.784  0.4353  0.0425 -0.4754
17352SOL    HW155554   3.214   2.058   2.765 -0.1438  0.4450  0.2571
17352SOL    HW255555   3.363   2.079   2.750 -0.0541 -0.7426 -0.6875
17353SOL     OW55556   0.306   7.430   1.029  0.7991 -0.0321  0.3033
17353SOL    HW155557   0.312   7.522   1.005 -1.0594 -0.5902 -2.9342
17353SOL    HW255558   0.243   7.428   1.102  3.2966  1.3974  2.6886
17354SOL     OW55559   8.705   0.493   8.537 -0.2639  0.3851 -0.7399
17354SOL    HW155560   8.782   0.439   8.551 -1.0873 -0.8649 -0.8376
17354SOL    HW255561   8.688   0.533   8.622  0.7161  1.0130 -0.8215
17355SOL     OW55562   0.470   7.029   2.578  0.5178 -0.0536  0.0539
17355SOL    HW155563   0.398   6.986   2.533 -1.1990  1.1497  1.4817
17355SOL    HW255564   0.447   7.122   2.574  0.7521  0.1666  2.5314
17356SOL     OW55565   6.420  10.928   9.485 -0.2083  0.0275 -0.4894
17356SOL    HW155566   6.335  10.901   9.450 -0.5369  0.8260 -0.3309
17356SOL    HW255567   6.401  11.007   9.536  0.6018  0.1017 -0.2853
17357SOL     OW55568   1.161   9.368   6.307  0.2889  0.2060 -0.2706
17357SOL    HW155569   1.183   9.309   6.235  0.7939 -0.5303  0.4677
17357SOL    HW255570   1.070   9.394   6.290  0.6824  0.7745 -1.6516
17358SOL     OW55571   5.615   2.495   2.119  0.6642 -0.6450  0.2734
17358SOL    HW155572   5.616   2.588   2.099 -0.6823 -0.4600  0.9984
17358SOL    HW255573   5.641   2.453   2.036  1.3558  0.3487 -0.0348
17359SOL     OW55574   3.434   5.685   2.885  0.0010 -0.3351 -0.5763
17359SOL    HW155575   3.479   5.737   2.819  0.9931 -0.3884  0.0433
17359SOL    HW255576   3.446   5.734   2.966 -0.1514 -0.8866 -0.2140
17360SOL     OW55577   2.302   8.513  10.993 -0.3528  0.5227  0.0280
17360SOL    HW155578   2.230   8.565  10.957  0.2241  0.4285 -1.3317
17360SOL    HW255579   2.380   8.563  10.971  0.1589 -0.5510 -0.6818
17361SOL     OW55580   5.734   2.802   3.072  0.2293  0.2250  0.1351
17361SOL    HW155581   5.675   2.756   3.133  0.0199  0.9819  0.5174
17361SOL    HW255582   5.684   2.810   2.991  0.5327 -0.8479 -0.1784
17362SOL     OW55583   9.327   7.481   2.941 -0.0892 -0.3165 -0.5661
17362SOL    HW155584   9.380   7.492   3.020  1.2794  0.9738 -1.6056
17362SOL    HW255585   9.255   7.543   2.952  0.8964  0.9345 -0.9393
17363SOL     OW55586   4.946   4.099   3.909  0.0155  0.3091 -0.1073
17363SOL    HW155587   4.958   4.193   3.923  1.5741 -0.0655  1.4738
17363SOL    HW255588   4.987   4.058   3.985  0.7100 -1.7152 -1.4877
17364SOL     OW55589   7.432   2.627   1.910 -0.3182 -0.5017  0.2881
17364SOL    HW155590   7.507   2.650   1.965 -1.8752  1.6236  1.7466
17364SOL    HW255591   7.368   2.592   1.972 -0.5276 -2.4135 -0.9441
17365SOL     OW55592  10.445   2.830   9.399 -0.4044 -0.3694  0.0692
17365SOL    HW155593  10.381   2.892   9.363 -0.4345 -0.6553 -0.3791
17365SOL    HW255594  10.513   2.886   9.437  0.6008  0.0166 -2.1113
17366SOL     OW55595   0.597   2.484   3.156 -0.5695 -0.1884 -0.2762
17366SOL    HW155596   0.602   2.403   3.206 -1.1283  0.1223  0.2941
17366SOL    HW255597   0.539   2.464   3.083  1.1492 -0.9836 -1.4906
17367SOL     OW55598   1.896   5.076  10.563 -0.0730 -0.1923 -0.2664
17367SOL    HW155599   1.841   5.083  10.484  1.0000  0.8332 -0.9463
17367SOL    HW255600   1.983   5.103  10.534 -0.0522  2.2162  1.6968
17368SOL     OW55601   5.878   2.137   8.228 -0.1019  0.1726 -0.3904
17368SOL    HW155602   5.798   2.089   8.248  0.0345  0.0653 -0.0916
17368SOL    HW255603   5.851   2.229   8.229 -0.1685  0.1521 -0.0220
17369SOL     OW55604   0.977   2.956  10.530 -0.7603  0.5359  0.1298
17369SOL    HW155605   0.910   2.898  10.565 -0.2025 -1.2846 -1.6492
17369SOL    HW255606   1.060   2.916  10.557 -0.2480  2.8691  2.5063
17370SOL     OW55607  10.077   3.048   4.687  0.1571  0.5026 -0.2076
17370SOL    HW155608  10.026   3.106   4.743 -0.1413 -0.9435  1.0936
17370SOL    HW255609  10.098   2.973   4.743  1.3277 -0.2191 -1.5441
17371SOL     OW55610   0.441   4.242   4.215 -0.0821 -0.0283 -0.4594
17371SOL    HW155611   0.475   4.255   4.304 -0.2752 -1.9976 -0.0438
17371SOL    HW255612   0.518   4.242   4.159 -0.0260  2.1287 -0.4632
17372SOL     OW55613   8.061   7.476   9.744 -0.1897 -0.1289  0.4186
17372SOL    HW155614   8.105   7.508   9.665  1.0613 -0.0603  1.1174
17372SOL    HW255615   8.098   7.528   9.815 -0.0468 -1.3316  1.2549
17373SOL     OW55616   6.205   6.425   8.150 -0.5374  0.4492  0.4640
17373SOL    HW155617   6.151   6.456   8.077 -0.6258  0.2419  0.4402
17373SOL    HW255618   6.257   6.354   8.112  1.1415  1.8815 -0.0092
17374SOL     OW55619   8.345   4.488   5.072  0.0409  0.7299  0.2865
17374SOL    HW155620   8.258   4.468   5.105  0.5052 -2.7515 -0.3031
17374SOL    HW255621   8.332   4.514   4.981 -0.5346  2.8740  0.9223
17375SOL     OW55622   7.982   4.815   9.937 -0.3206 -0.1579  0.0027
17375SOL    HW155623   7.904   4.852   9.897  0.8699  2.0928 -0.3710
17375SOL    HW255624   8.038   4.791   9.864  0.1381  0.0670  0.2749
17376SOL     OW55625   3.298   9.558   7.102 -0.1283  0.1070  0.2510
17376SOL    HW155626   3.215   9.553   7.055  0.5101  0.9228 -1.0265
17376SOL    HW255627   3.311   9.652   7.117  1.3854  0.1495 -1.1290
17377SOL     OW55628   1.787   5.416   9.922  0.5958  0.2929 -0.3800
17377SOL    HW155629   1.761   5.330   9.954  0.3379  0.3242 -0.5042
17377SOL    HW255630   1.756   5.419   9.832 -0.3975  0.9409 -0.0321
17378SOL     OW55631   9.073  10.460  10.810 -0.0701 -0.0998  0.1995
17378SOL    HW155632   8.979  10.473  10.794 -0.0444  0.7861  0.7017
17378SOL    HW255633   9.101  10.542  10.852  0.3971 -1.2883  2.3539
17379SOL     OW55634  10.705   6.744   7.857 -0.4263 -0.2360  0.4180
17379SOL    HW155635  10.668   6.703   7.935  0.4409 -1.4104  0.2308
17379SOL    HW255636  10.634   6.742   7.793 -0.5106 -1.1258  0.5307
17380SOL     OW55637   8.633   2.638   9.533 -0.4576  0.3476  0.3031
17380SOL    HW155638   8.616   2.688   9.613 -0.9364  0.7909 -0.0738
17380SOL    HW255639   8.720   2.666   9.505 -0.3678  0.3311  0.5617
17381SOL     OW55640   8.727   8.956   5.167  0.1066 -1.0121  0.2392
17381SOL    HW155641   8.657   8.891   5.164 -0.2486 -0.5999 -2.4490
17381SOL    HW255642   8.803   8.911   5.130  0.5763 -0.6759  0.7787
17382SOL     OW55643   0.659   3.187   8.144  0.0913  0.4967  0.1774
17382SOL    HW155644   0.576   3.141   8.130  0.0225  0.6115  0.2028
17382SOL    HW255645   0.657   3.259   8.081  0.0172  0.7024  0.4140
17383SOL     OW55646   1.150   0.863   3.551  0.0044  0.6520 -0.0381
17383SOL    HW155647   1.114   0.946   3.583 -0.5503  0.7120 -0.8033
17383SOL    HW255648   1.212   0.888   3.483  0.1162  0.4593 -0.0072
17384SOL     OW55649   7.694   3.683   3.218 -0.0082  0.5902 -0.1122
17384SOL    HW155650   7.600   3.665   3.223 -0.1454  1.2920 -0.1073
17384SOL    HW255651   7.728   3.660   3.304 -0.1741  0.3238 -0.1182
17385SOL     OW55652   7.996   1.315   6.026  0.2171  0.3734  0.6904
17385SOL    HW155653   8.068   1.377   6.038  0.5393  0.0345  0.5238
17385SOL    HW255654   7.986   1.273   6.111 -1.3577  2.0817  1.4143
17386SOL     OW55655   0.569   8.432   4.068 -0.0010  0.2822  0.1156
17386SOL    HW155656   0.502   8.492   4.036 -1.7239 -1.2893  0.6204
17386SOL    HW255657   0.588   8.374   3.994  2.9530  2.3430 -0.9697
17387SOL     OW55658   6.769   2.245   9.805 -0.4621 -0.5618 -0.0224
17387SOL    HW155659   6.743   2.240   9.713  2.5461 -0.1030 -1.0047
17387SOL    HW255660   6.840   2.309   9.806  2.3035 -3.3498  1.8677
17388SOL     OW55661   4.670   1.669   7.105  0.4213  0.2955 -0.3755
17388SOL    HW155662   4.750   1.654   7.156 -0.6571 -0.0604  1.2952
17388SOL    HW255663   4.600   1.633   7.159 -1.2460  3.2021 -0.3980
17389SOL     OW55664   1.381   2.510   0.632  0.1276  0.1804 -0.4580
17389SOL    HW155665   1.306   2.538   0.684  0.2581  1.5156 -0.9487
17389SOL    HW255666   1.417   2.591   0.595  1.9484 -0.3924 -0.0554
17390SOL     OW55667   2.197   5.871   1.097 -0.0155  0.4459  0.5999
17390SOL    HW155668   2.217   5.778   1.105 -2.2853 -0.2764 -1.1062
17390SOL    HW255669   2.272   5.908   1.050 -0.1209 -1.0506 -0.8563
17391SOL     OW55670   1.241   7.510   7.631 -0.3101  0.3132 -0.0231
17391SOL    HW155671   1.191   7.590   7.619 -0.6104  0.0648 -0.4609
17391SOL    HW255672   1.244   7.470   7.543 -0.9821 -0.6283  0.3674
17392SOL     OW55673  10.995   6.525   3.206 -0.4385 -0.0056 -0.3077
17392SOL    HW155674  10.991   6.570   3.291 -0.9249 -1.0141  0.2118
17392SOL    HW255675  10.979   6.595   3.142 -2.3993  0.3908  0.5307
17393SOL     OW55676   8.203   1.896   4.347  0.4455  0.2853 -0.0188
17393SOL    HW155677   8.154   1.977   4.329 -0.4130  0.2551  1.9719
17393SOL    HW255678   8.139   1.826   4.334  0.7489  0.0364 -0.1829
17394SOL     OW55679   7.825   0.770  10.025 -0.3468 -0.0888 -0.2214
17394SOL    HW155680   7.885   0.839   9.994 -0.0338  0.5196  1.6309
17394SOL    HW255681   7.757   0.818  10.072 -1.5384 -0.8919 -1.0718
17395SOL     OW55682   1.550   3.319   7.633  0.3617 -0.4727 -0.3642
17395SOL    HW155683   1.572   3.258   7.564  0.8665 -1.3978  0.5841
17395SOL    HW255684   1.634   3.347   7.669  0.1031 -0.6871  0.4408
17396SOL     OW55685   4.632   9.741   0.528 -0.0332  0.4241  0.1730
17396SOL    HW155686   4.566   9.704   0.470  1.9452  1.2700 -2.8369
17396SOL    HW255687   4.607   9.832   0.540 -0.8686  0.0606  1.4084
17397SOL     OW55688   1.936   0.939   0.081  0.5396  0.4816 -0.0153
17397SOL    HW155689   1.991   0.954   0.157  0.6835  0.9456 -0.2030
17397SOL    HW255690   1.878   1.016   0.078 -1.2185 -0.7287  1.0967
17398SOL     OW55691   1.613   9.859   9.027 -0.1631  0.0226  0.2252
17398SOL    HW155692   1.626   9.863   8.932 -1.3574 -0.6690  0.0204
17398SOL    HW255693   1.702   9.854   9.062  0.2555 -1.9870 -0.9694
17399SOL     OW55694   6.205   9.846   4.890 -0.0513  0.1159 -0.4454
17399SOL    HW155695   6.143   9.871   4.821  0.8132  0.8643 -0.9557
17399SOL    HW255696   6.286   9.890   4.867 -0.2742  2.1295  2.1629
17400SOL     OW55697   1.496   4.655   2.870  0.3582  0.9070 -0.1384
17400SOL    HW155698   1.554   4.632   2.942 -0.4619  1.3435  0.6885
17400SOL    HW255699   1.553   4.664   2.794  1.1774 -0.0356  0.3494
17401SOL     OW55700   6.663   3.183   7.540 -0.0992 -0.2213  0.0874
17401SOL    HW155701   6.664   3.270   7.501 -1.6046  0.0454  0.5869
17401SOL    HW255702   6.618   3.128   7.476 -0.1141 -0.3989  0.2493
17402SOL     OW55703   6.493  10.182   6.183 -0.1945  0.6814  0.3441
17402SOL    HW155704   6.451  10.238   6.249  0.1560  0.5702  0.6608
17402SOL    HW255705   6.507  10.099   6.228  1.3628  1.0537  0.5841
17403SOL     OW55706   5.393   0.074  10.496  1.0077  0.6068  0.1671
17403SOL    HW155707   5.312   0.103  10.454  0.7370  0.4569  0.5790
17403SOL    HW255708   5.375   0.080  10.590  1.3563  0.2478  0.2609
17404SOL     OW55709   6.050   0.932  10.891 -0.0182  0.0744 -0.1071
17404SOL    HW155710   5.970   0.984  10.882  0.5364  0.9015 -0.4217
17404SOL    HW255711   6.027   0.846  10.857 -0.9868  0.0697  0.5165
17405SOL     OW55712  10.782   7.270  10.709  0.1057 -0.1082  0.3930
17405SOL    HW155713  10.817   7.184  10.732  1.6309 -0.0052 -1.4090
17405SOL    HW255714  10.859   7.325  10.696 -0.7717  0.8094 -1.1669
17406SOL     OW55715   5.718   3.739   3.630  0.1764  0.3160  0.2382
17406SOL    HW155716   5.740   3.728   3.722 -2.7939  1.3228  1.1850
17406SOL    HW255717   5.702   3.833   3.621 -0.8924  0.0419 -0.9473
17407SOL     OW55718   3.437   2.154   0.805  0.5226 -0.1676 -0.2337
17407SOL    HW155719   3.482   2.100   0.871 -0.2486  0.4386  0.8171
17407SOL    HW255720   3.398   2.090   0.745  0.1614 -0.7715  0.6306
17408SOL     OW55721   0.712   0.509   4.293  0.0172  0.2519 -0.3107
17408SOL    HW155722   0.691   0.586   4.240 -2.8063  0.6050  1.0882
17408SOL    HW255723   0.804   0.520   4.318  0.1910  2.1970 -1.6507
17409SOL     OW55724   0.951   0.617   0.661  0.4644  0.2874  0.1942
17409SOL    HW155725   0.990   0.594   0.745 -0.1427 -1.0768  0.1416
17409SOL    HW255726   0.943   0.712   0.664  0.6098  0.2894  1.6137
17410SOL     OW55727   2.782   0.330   2.528 -0.2891  0.0228 -0.3816
17410SOL    HW155728   2.867   0.372   2.520  1.3213 -2.9988 -0.8307
17410SOL    HW255729   2.766   0.292   2.441 -2.2309  0.7194 -0.3678
17411SOL     OW55730   8.432   1.991   0.181 -0.0604  0.2204 -0.4775
17411SOL    HW155731   8.341   1.965   0.173  0.1024 -0.4181 -0.2817
17411SOL    HW255732   8.428   2.079   0.219 -0.6041  0.4459 -1.0444
17412SOL     OW55733   6.062   0.470   8.125 -0.7413  0.0192  0.1948
17412SOL    HW155734   6.087   0.497   8.037 -0.3146  2.7790  1.0376
17412SOL    HW255735   5.979   0.424   8.114 -0.4347 -0.1465 -1.6870
17413SOL     OW55736   1.001   3.929   8.111 -0.1321 -0.3030 -0.7737
17413SOL    HW155737   1.043   3.887   8.187 -0.8338 -0.5881 -0.5330
17413SOL    HW255738   0.967   3.856   8.060  1.5655 -0.2181 -2.1460
17414SOL     OW55739  10.706   7.699  10.523  0.8523 -0.6008  0.1959
17414SOL    HW155740  10.660   7.640  10.583 -1.5434  0.3431 -0.6064
17414SOL    HW255741  10.761   7.641  10.470 -0.1037 -1.9262  0.6022
17415SOL     OW55742   8.039   8.181   7.543  0.1203  0.0250 -0.1797
17415SOL    HW155743   8.078   8.202   7.628 -0.9470 -0.2520  0.3935
17415SOL    HW255744   7.949   8.210   7.550  0.0390  0.0575 -1.2537
17416SOL     OW55745   3.390   4.281   1.274 -0.3231  0.2946  0.2540
17416SOL    HW155746   3.414   4.282   1.366 -1.1440  0.0422  0.4806
17416SOL    HW255747   3.377   4.373   1.251 -1.1063  0.2937  0.6655
17417SOL     OW55748   3.640   8.816   7.754 -0.7212  0.2840 -0.1607
17417SOL    HW155749   3.663   8.904   7.782 -0.2474  0.0910  0.0494
17417SOL    HW255750   3.619   8.825   7.661  1.9779  0.1629 -0.8668
17418SOL     OW55751   7.251   9.787   9.697  0.0818 -0.4747 -0.5752
17418SOL    HW155752   7.238   9.780   9.602 -0.8994  0.0069 -0.4968
17418SOL    HW255753   7.194   9.860   9.723 -1.2310 -1.8736  0.6733
17419SOL     OW55754  10.711   4.644   4.085  0.1966  0.7160  0.4623
17419SOL    HW155755  10.778   4.656   4.018  1.2152  1.6359  1.6070
17419SOL    HW255756  10.759   4.627   4.166 -0.9431  1.1348  1.2672
17420SOL     OW55757   9.215  10.497   7.976 -0.1791 -1.0457  0.2206
17420SOL    HW155758   9.201  10.489   8.070  0.6614 -2.3871  0.2586
17420SOL    HW255759   9.130  10.478   7.937  0.1845 -3.8561  0.6181
17421SOL     OW55760   9.540   8.089  10.893 -0.1565  0.0961 -0.2243
17421SOL    HW155761   9.461   8.140  10.873 -0.4058  0.4820  1.6116
17421SOL    HW255762   9.506   8.009  10.934  0.4099  0.8961  1.9137
17422SOL     OW55763   6.145   8.810   0.433  0.2752  0.4741  0.1119
17422SOL    HW155764   6.214   8.850   0.381  2.3025  0.6231  2.7118
17422SOL    HW255765   6.095   8.884   0.467  1.9934  0.7410  2.2434
17423SOL     OW55766   2.603  10.232   7.644  0.2078  0.1206  0.1561
17423SOL    HW155767   2.520  10.243   7.598  0.0653 -0.2607  0.3180
17423SOL    HW255768   2.655  10.175   7.587 -0.0576 -0.5488  0.5678
17424SOL     OW55769   6.253   6.259   2.151  0.2919 -0.1030  0.0165
17424SOL    HW155770   6.185   6.210   2.105 -1.5529  1.6740  0.7126
17424SOL    HW255771   6.322   6.270   2.087 -0.2828 -1.5121 -0.8917
17425SOL     OW55772   6.860   1.800   3.748  0.1336  0.0973 -0.0886
17425SOL    HW155773   6.768   1.777   3.762  0.7332 -2.3967  0.1752
17425SOL    HW255774   6.890   1.740   3.680  1.8975  0.0241  0.6965
17426SOL     OW55775   6.487   1.968   3.000 -0.1055  0.4513  0.0461
17426SOL    HW155776   6.418   1.962   2.933  0.9389 -2.1569 -0.9273
17426SOL    HW255777   6.485   1.883   3.043  1.7285  0.7509  0.7917
17427SOL     OW55778   1.816   4.800   9.946  0.1345 -0.2572 -0.1213
17427SOL    HW155779   1.801   4.768   9.857 -3.9557  0.6959  0.0462
17427SOL    HW255780   1.898   4.759   9.973  0.4856 -2.1753 -3.5676
17428SOL     OW55781   4.444   7.390   8.698  0.4873  0.0161  0.1567
17428SOL    HW155782   4.523   7.444   8.704 -0.9851  2.2095  1.7276
17428SOL    HW255783   4.376   7.451   8.671 -0.9128 -1.5159  0.1046
17429SOL     OW55784   1.884   7.496   0.019 -0.2013  0.3542  0.0634
17429SOL    HW155785   1.937   7.510   0.098 -0.8789 -0.2829  0.6503
17429SOL    HW255786   1.910   7.566  -0.040  0.4096  0.7734  0.8091
17430SOL     OW55787   3.452   9.241   4.463  0.5244 -0.3272 -0.5212
17430SOL    HW155788   3.359   9.252   4.482  0.6113  1.5139 -0.9742
17430SOL    HW255789   3.491   9.214   4.546 -0.3279 -0.4756 -0.1700
17431SOL     OW55790   7.732   5.278   3.457 -0.2534 -0.3821 -0.2732
17431SOL    HW155791   7.654   5.330   3.478 -0.7887 -0.7734 -1.2294
17431SOL    HW255792   7.723   5.257   3.364  0.7465 -0.8606 -0.2775
17432SOL     OW55793   5.681   2.535   1.073 -0.1848 -0.3331  0.2201
17432SOL    HW155794   5.602   2.482   1.081  1.3401 -2.7776  0.5073
17432SOL    HW255795   5.698   2.568   1.161 -1.7605  1.7216 -0.1756
17433SOL     OW55796   5.598   2.236   7.286 -0.1824 -0.3246 -0.0046
17433SOL    HW155797   5.604   2.227   7.191 -0.3243  0.7288 -0.1231
17433SOL    HW255798   5.529   2.176   7.312  0.3131 -1.1151 -0.4834
17434SOL     OW55799   9.245   5.975   0.660 -0.5450  0.4636 -0.0129
17434SOL    HW155800   9.220   5.977   0.753  1.1640 -0.6794  0.5327
17434SOL    HW255801   9.341   5.976   0.662 -0.4769  2.2728 -1.8697
17435SOL     OW55802   8.356   3.055   8.620  0.1158 -0.1790  0.3486
17435SOL    HW155803   8.422   3.004   8.573  0.7828  0.2763  0.7825
17435SOL    HW255804   8.387   3.145   8.614 -1.2763  0.2586 -0.7860
17436SOL     OW55805   0.875   4.390   2.600 -0.5203 -0.1214  0.2473
17436SOL    HW155806   0.863   4.375   2.506 -1.1802 -0.6164  0.3960
17436SOL    HW255807   0.871   4.302   2.639 -1.5095  0.1708  0.8538
17437SOL     OW55808   0.659   9.125   0.727  0.1974  0.5197  0.2972
17437SOL    HW155809   0.616   9.207   0.749  0.6425  0.6778  0.6071
17437SOL    HW255810   0.751   9.149   0.713 -0.2676  0.7376 -3.4261
17438SOL     OW55811   7.586   9.325   7.849  0.0814 -0.2623 -0.0771
17438SOL    HW155812   7.629   9.396   7.898  0.3025  0.1611 -0.8629
17438SOL    HW255813   7.527   9.285   7.913 -0.3946  0.9244  0.2705
17439SOL     OW55814   4.604   1.907   7.611 -0.3364  0.4572  0.5643
17439SOL    HW155815   4.650   1.932   7.531 -1.4376  1.4771  0.2221
17439SOL    HW255816   4.588   1.989   7.657  0.4088 -0.1268  1.9387
17440SOL     OW55817   1.582   8.754   6.935  0.3664  0.2559  0.3869
17440SOL    HW155818   1.654   8.693   6.950  0.1381 -0.5869 -1.6260
17440SOL    HW255819   1.596   8.786   6.846 -0.8314  1.3634  0.5655
17441SOL     OW55820   6.813   8.890   4.915  0.1644 -0.2138  0.6118
17441SOL    HW155821   6.891   8.852   4.956  0.5185  0.0952  0.2277
17441SOL    HW255822   6.819   8.863   4.823 -1.5252 -2.3918  1.0585
17442SOL     OW55823   4.503   7.221   8.496 -0.5218  0.0006 -0.3008
17442SOL    HW155824   4.481   7.285   8.564  0.2114 -0.0375 -0.0145
17442SOL    HW255825   4.500   7.137   8.541 -0.6512 -0.0868 -0.4723
17443SOL     OW55826   8.495   9.799   9.530 -0.6338 -0.1341  0.1728
17443SOL    HW155827   8.560   9.841   9.587 -0.5838 -0.6491  0.4967
17443SOL    HW255828   8.531   9.810   9.442 -0.7772  0.7824  0.2133
17444SOL     OW55829   5.362   5.461   1.801 -0.4201 -0.1299 -0.3280
17444SOL    HW155830   5.389   5.462   1.709 -0.1965  1.3818 -0.2720
17444SOL    HW255831   5.268   5.482   1.799 -0.0763  1.5600 -0.1498
17445SOL     OW55832   3.266  10.986   4.758 -0.4827 -0.3748  0.1794
17445SOL    HW155833   3.351  11.030   4.750  0.3382 -2.1117 -1.5108
17445SOL    HW255834   3.216  11.016   4.683  0.6927 -3.3536 -1.9886
17446SOL     OW55835   7.578   3.760   8.466  0.2291  0.3556  1.0957
17446SOL    HW155836   7.636   3.748   8.541  1.0666  0.8045  0.5519
17446SOL    HW255837   7.558   3.671   8.437  0.4849  0.1891  1.4187
17447SOL     OW55838   7.887   0.375   3.480  0.1834  0.1400  0.3697
17447SOL    HW155839   7.919   0.413   3.398  0.6269 -1.2890 -0.1592
17447SOL    HW255840   7.793   0.392   3.479  0.2843  0.7252 -0.1121
17448SOL     OW55841   1.686   0.680   6.615 -0.0525  0.2008 -0.1103
17448SOL    HW155842   1.724   0.753   6.664 -0.7469  0.2668  0.3580
17448SOL    HW255843   1.754   0.613   6.614  0.0683  0.2965  0.7316
17449SOL     OW55844   9.063   9.185   9.207 -0.3279  0.2181 -0.7525
17449SOL    HW155845   8.986   9.151   9.162 -0.7941  1.1678 -0.7069
17449SOL    HW255846   9.067   9.278   9.182  1.3393 -0.0182 -1.5026
17450SOL     OW55847   2.237   6.866  10.685  0.3406 -0.4625  0.1539
17450SOL    HW155848   2.205   6.940  10.634 -2.3100 -0.4200  1.7265
17450SOL    HW255849   2.228   6.791  10.626  1.6789  0.2012 -0.9482
17451SOL     OW55850  10.219   0.589   7.107 -0.0215  0.5187  0.1384
17451SOL    HW155851  10.272   0.584   7.187  0.6180  0.1595 -0.2995
17451SOL    HW255852  10.278   0.559   7.037  0.0092  2.4983 -0.7436
17452SOL     OW55853   3.858   9.085   0.966  0.5271 -0.0931 -0.8814
17452SOL    HW155854   3.950   9.069   0.984  0.0842 -1.1729  0.5272
17452SOL    HW255855   3.818   8.999   0.961 -0.7589  0.3695  0.5321
17453SOL     OW55856   5.295   1.847  10.924  0.4590 -0.0210  0.0758
17453SOL    HW155857   5.212   1.879  10.960  0.1184  0.4169 -1.0553
17453SOL    HW255858   5.268   1.780  10.860  0.8622  1.2571 -1.4849
17454SOL     OW55859   8.870   3.643   4.279  0.3740  0.0134  0.0071
17454SOL    HW155860   8.826   3.558   4.291  0.5329  0.0089  0.5628
17454SOL    HW255861   8.825   3.682   4.204 -0.3542 -0.1468  0.3457
17455SOL     OW55862   7.686   1.078  10.885 -1.0192 -0.1053  0.0004
17455SOL    HW155863   7.670   1.014  10.815 -1.3362 -0.1999  0.1589
17455SOL    HW255864   7.782   1.085  10.889 -1.0092  0.2105 -0.7240
17456SOL     OW55865   0.052   4.102   0.581 -0.1056 -0.2478 -0.1212
17456SOL    HW155866   0.064   4.127   0.673  0.2071  1.1814 -0.5192
17456SOL    HW255867  -0.041   4.079   0.575 -0.1759 -0.1576  0.5117
17457SOL     OW55868   3.816   4.359   0.811  0.1877 -0.3791  0.2145
17457SOL    HW155869   3.878   4.418   0.854 -1.2324  1.3323  0.0526
17457SOL    HW255870   3.731   4.382   0.850 -1.0733  0.7775 -2.9135
17458SOL     OW55871   7.954   8.403   4.573 -0.0318  0.0738  0.1882
17458SOL    HW155872   8.029   8.437   4.623  0.2172 -1.5215  0.9537
17458SOL    HW255873   7.917   8.480   4.531  1.5798  1.0231  0.4203
17459SOL     OW55874   6.031   0.067   0.786 -0.6393  0.2108 -0.0231
17459SOL    HW155875   5.949   0.094   0.744 -0.7304  0.1646  0.1262
17459SOL    HW255876   6.010   0.060   0.879 -0.0996  1.6496  0.2302
17460SOL     OW55877   0.812   7.702   9.200 -0.5194 -0.0617 -0.3953
17460SOL    HW155878   0.887   7.658   9.160 -1.7880 -1.1080 -1.7420
17460SOL    HW255879   0.789   7.772   9.139 -1.4050 -0.5536 -0.6336
17461SOL     OW55880   2.299   9.502   0.075 -0.7542  0.3867 -0.4363
17461SOL    HW155881   2.251   9.422   0.095  0.5029 -0.3134 -0.0862
17461SOL    HW255882   2.242   9.573   0.104 -0.6622 -0.4621  2.0221
17462SOL     OW55883   1.760   7.367   9.490  0.0602 -0.3681  0.0100
17462SOL    HW155884   1.820   7.434   9.456  0.8428 -1.0832 -0.0500
17462SOL    HW255885   1.693   7.417   9.537  0.5584  0.4659 -0.1352
17463SOL     OW55886   4.189  10.670   6.243  0.1612 -0.5692  0.1114
17463SOL    HW155887   4.220  10.584   6.215  3.1303  0.6018 -0.5660
17463SOL    HW255888   4.137  10.702   6.170  0.4785 -1.0842 -0.3466
17464SOL     OW55889   7.677   0.698   3.863 -0.5570 -0.0584 -0.6190
17464SOL    HW155890   7.701   0.776   3.914 -1.5148 -0.1532 -0.0029
17464SOL    HW255891   7.757   0.645   3.862 -0.2366  0.3953 -0.0528
17465SOL     OW55892   9.977   8.983  10.515 -0.2865 -0.1746 -0.3391
17465SOL    HW155893  10.020   9.069  10.507 -0.2645  0.0781  1.9071
17465SOL    HW255894   9.931   8.987  10.599 -3.8824 -0.8202 -2.0934
17466SOL     OW55895   9.018   9.187   7.396 -0.9026 -0.5529 -0.4508
17466SOL    HW155896   8.948   9.217   7.337 -1.1740 -0.6234 -0.1696
17466SOL    HW255897   8.973   9.129   7.458 -1.0084  1.0500  1.0555
17467SOL     OW55898   2.659   9.553   9.676  0.5521  0.4042  0.7267
17467SOL    HW155899   2.575   9.541   9.720 -2.8952  2.4557 -4.3297
17467SOL    HW255900   2.686   9.465   9.650 -1.0255 -0.1647  0.9336
17468SOL     OW55901  10.652  10.633   5.574  0.3352  0.0658  0.4642
17468SOL    HW155902  10.646  10.571   5.502 -1.0641 -0.5852  1.1065
17468SOL    HW255903  10.592  10.704   5.550  0.3251  0.1427  0.7095
17469SOL     OW55904   1.691   5.481   1.638 -0.0361  0.1173  0.0838
17469SOL    HW155905   1.678   5.491   1.733 -0.4536 -1.0363  0.1595
17469SOL    HW255906   1.777   5.441   1.630 -0.0216  0.1712 -0.0287
17470SOL     OW55907   6.015   7.970   4.955 -0.2735 -0.6363 -0.0030
17470SOL    HW155908   5.976   7.921   5.026 -1.7132  1.5730  0.8155
17470SOL    HW255909   6.028   8.058   4.990  0.6432  0.0520 -1.9133
17471SOL     OW55910   2.540   2.034   5.966  0.3506  0.5199 -0.0848
17471SOL    HW155911   2.538   2.060   5.874 -3.0423 -1.7193 -0.8286
17471SOL    HW255912   2.479   2.094   6.010  1.1288  0.8886  0.5291
17472SOL     OW55913   8.829   7.022   3.468  0.0613  0.6817  0.3369
17472SOL    HW155914   8.793   6.934   3.481 -2.6440  1.7926  0.8629
17472SOL    HW255915   8.921   7.014   3.494 -1.0740 -1.0365  4.7244
17473SOL     OW55916   1.641   4.323   2.746 -0.0332 -0.0091 -0.3356
17473SOL    HW155917   1.723   4.326   2.697  0.1246  0.9807 -0.0392
17473SOL    HW255918   1.662   4.364   2.830 -0.9471  0.7083 -0.4437
17474SOL     OW55919   3.879   4.813   4.078  0.1856 -0.2563 -0.1123
17474SOL    HW155920   3.812   4.774   4.134  0.6227 -0.0768  0.5558
17474SOL    HW255921   3.962   4.784   4.117  0.4967  0.0316 -0.5564
17475SOL     OW55922   2.268   2.083   4.214  0.5560  0.1501  0.2951
17475SOL    HW155923   2.264   2.150   4.283 -1.6620 -0.8279  1.2236
17475SOL    HW255924   2.221   2.123   4.141  0.2517  0.0700  0.4424
17476SOL     OW55925   0.592   4.535   2.197 -0.9703 -0.1157 -0.0781
17476SOL    HW155926   0.614   4.621   2.161 -0.7627 -0.0366  0.2325
17476SOL    HW255927   0.524   4.501   2.139 -0.6508  0.0182 -0.5321
17477SOL     OW55928   0.570   4.883   7.629 -0.4470  0.5779  0.5051
17477SOL    HW155929   0.599   4.860   7.717  0.7437  0.9385  0.2328
17477SOL    HW255930   0.514   4.960   7.641  0.2078  1.0018  0.9006
17478SOL     OW55931   0.617  10.660   6.679 -0.2524  0.4862  0.0402
17478SOL    HW155932   0.644  10.642   6.588  0.2790 -1.8705  0.6036
17478SOL    HW255933   0.698  10.686   6.723  0.1336 -1.3710  0.5010
17479SOL     OW55934   1.612   6.596   6.304 -0.1289 -0.0155  0.0380
17479SOL    HW155935   1.544   6.551   6.255  0.3168 -0.8381  0.1390
17479SOL    HW255936   1.587   6.688   6.303 -0.8011 -0.1980 -0.6203
17480SOL     OW55937   6.538   4.246   1.044  0.2205 -0.3048 -0.2519
17480SOL    HW155938   6.498   4.216   1.126 -0.1037  0.5379 -0.1001
17480SOL    HW255939   6.577   4.330   1.066  0.8376 -0.4516 -0.7664
17481SOL     OW55940   6.198   3.946  10.714  0.5978  0.8870  0.4975
17481SOL    HW155941   6.159   3.969  10.799 -0.1888  0.5865  0.2319
17481SOL    HW255942   6.292   3.946  10.730  0.5764  2.8076  0.8806
17482SOL     OW55943   1.277   8.745   6.511 -0.4197  0.4878  0.0528
17482SOL    HW155944   1.311   8.661   6.540 -0.6724 -0.0237 -1.0771
17482SOL    HW255945   1.184   8.743   6.536 -0.2533  0.7718  0.7261
17483SOL     OW55946   8.966   7.060   1.024 -0.2569 -0.3147 -0.1745
17483SOL    HW155947   8.901   7.000   1.061 -0.1432 -0.7922 -0.7309
17483SOL    HW255948   8.954   7.141   1.072 -1.0585 -0.4955 -0.0585
17484SOL     OW55949   4.474   9.880   3.099  0.2873  0.4671  0.2843
17484SOL    HW155950   4.468   9.958   3.044 -0.5100  1.4729  1.7283
17484SOL    HW255951   4.543   9.902   3.162  0.1011 -0.0155  0.6593
17485SOL     OW55952  10.955   6.750   7.789 -0.1151  0.1768  0.4710
17485SOL    HW155953  11.014   6.716   7.856  0.4268  0.2508  0.0324
17485SOL    HW255954  10.868   6.742   7.828  0.3597  2.6456  2.2761
17486SOL     OW55955   2.869   6.264  10.916 -0.2398  0.0622  0.1312
17486SOL    HW155956   2.856   6.356  10.938  0.3126  0.2286 -0.2072
17486SOL    HW255957   2.964   6.255  10.906 -0.3402 -0.3851 -0.5130
17487SOL     OW55958   1.332   9.220   9.094  0.9753  1.1038 -0.4909
17487SOL    HW155959   1.293   9.137   9.121 -0.6114  1.8336 -0.3988
17487SOL    HW255960   1.357   9.263   9.175 -1.3245  2.1360 -0.2592
17488SOL     OW55961   3.072   4.306   3.743 -0.3114 -0.0981  0.2016
17488SOL    HW155962   3.040   4.376   3.799  0.6152  0.2400  0.3267
17488SOL    HW255963   3.025   4.317   3.661 -0.5445  0.3592  0.3942
17489SOL     OW55964   9.456   8.894   9.764  0.3939 -0.1026 -0.2943
17489SOL    HW155965   9.375   8.945   9.762 -0.7194 -1.7562  0.2971
17489SOL    HW255966   9.519   8.951   9.809 -0.7785  0.7729  0.2934
17490SOL     OW55967   3.614   4.836   8.806  0.1903 -0.1705 -0.0728
17490SOL    HW155968   3.632   4.906   8.868  1.3004 -0.4519 -0.0590
17490SOL    HW255969   3.689   4.837   8.746  0.3101 -1.4541  0.0369
17491SOL     OW55970   9.521   4.009   3.506 -0.3331 -0.6664  0.3511
17491SOL    HW155971   9.504   4.100   3.529  0.4780 -0.6620  0.9691
17491SOL    HW255972   9.436   3.975   3.478 -0.7346  0.1477  0.5532
17492SOL     OW55973   4.192   3.273   2.173  0.1948  0.0114  0.3988
17492SOL    HW155974   4.159   3.204   2.115  0.1017  0.6306 -0.2972
17492SOL    HW255975   4.269   3.234   2.214  0.9068 -0.1011 -0.9567
17493SOL     OW55976   8.349   4.701   9.707 -0.3701  0.2966  0.1734
17493SOL    HW155977   8.367   4.792   9.730 -0.0188 -0.2963  2.4607
17493SOL    HW255978   8.357   4.653   9.789 -0.1225 -1.8909 -1.0487
17494SOL     OW55979   5.959   0.657   8.829 -0.2716  0.1686  0.2264
17494SOL    HW155980   6.017   0.596   8.783 -0.9357  0.2559 -0.7585
17494SOL    HW255981   5.931   0.609   8.907  1.0563  0.1068  0.6846
17495SOL     OW55982   4.566   3.782   4.533 -0.3219 -0.6942  0.2553
17495SOL    HW155983   4.512   3.766   4.610 -1.3725 -3.4556 -0.9043
17495SOL    HW255984   4.630   3.847   4.561 -1.5996 -0.4882  2.9746
17496SOL     OW55985   3.256   3.700   8.038  0.1448 -0.6691 -0.0629
17496SOL    HW155986   3.170   3.733   8.061 -0.1026 -0.8893 -0.6397
17496SOL    HW255987   3.239   3.612   8.004  0.2903  0.1276 -2.3942
17497SOL     OW55988   8.014   8.559   6.989 -0.0612 -0.6138 -0.5354
17497SOL    HW155989   8.010   8.487   6.927  1.6074 -0.5528 -0.7517
17497SOL    HW255990   8.076   8.530   7.056 -1.0003 -0.2355  0.5463
17498SOL     OW55991   8.678  10.439   8.525 -0.1871  0.2795  0.0732
17498SOL    HW155992   8.631  10.368   8.481 -1.2832  0.5029  0.8284
17498SOL    HW255993   8.615  10.474   8.588  1.4172 -0.3152  2.1448
17499SOL     OW55994   8.661   3.134   1.654 -0.4225 -0.1956  0.0899
17499SOL    HW155995   8.714   3.213   1.658 -1.8112  0.7367  1.7855
17499SOL    HW255996   8.722   3.063   1.671  0.4288  0.7532  1.1170
17500SOL     OW55997   1.237   5.783   3.304 -0.2615  0.5176  0.1974
17500SOL    HW155998   1.246   5.821   3.392 -1.3614  1.3423 -0.0188
17500SOL    HW255999   1.232   5.689   3.318  0.2543  0.5989  0.9611
17501SOL     OW56000   2.109   6.350   4.056 -0.0225  0.2676 -0.6219
17501SOL    HW156001   2.033   6.341   4.115  1.7886 -0.3177  1.8070
17501SOL    HW256002   2.139   6.260   4.044  0.9338  0.5866 -0.6351
17502SOL     OW56003   0.207   5.152   0.917 -0.5504 -0.0552  0.1422
17502SOL    HW156004   0.193   5.111   1.002 -0.1440  0.4053  0.4324
17502SOL    HW256005   0.197   5.245   0.933 -0.5841  0.0280 -0.3415
17503SOL     OW56006   2.060   6.446   4.582  0.1177  0.1623  0.9171
17503SOL    HW156007   2.075   6.474   4.673  1.2910 -0.1037  0.8174
17503SOL    HW256008   2.145   6.414   4.552 -0.1622  0.5852 -0.4061
17504SOL     OW56009   3.722   1.764   8.168  0.4971 -0.5773  0.5519
17504SOL    HW156010   3.695   1.688   8.221  0.7148 -0.2086  1.1984
17504SOL    HW256011   3.754   1.725   8.086 -1.9428 -1.0450 -0.2806
17505SOL     OW56012   6.828   5.888  10.078  0.4816 -0.7439 -0.3376
17505SOL    HW156013   6.797   5.917  10.163 -0.8085 -1.0198 -0.6990
17505SOL    HW256014   6.779   5.941  10.015  0.8454 -1.0921 -0.9216
17506SOL     OW56015   8.270   1.393   2.092 -0.4379 -0.1326  0.1770
17506SOL    HW156016   8.299   1.313   2.134  0.7561  2.3003  4.5624
17506SOL    HW256017   8.177   1.399   2.114 -0.2797  0.1624  0.7849
17507SOL     OW56018   3.019   8.701   5.822 -0.0948 -0.1598 -0.1718
17507SOL    HW156019   3.105   8.659   5.819 -0.3910 -0.9701  1.5879
17507SOL    HW256020   3.021   8.757   5.899 -0.6418  1.0341 -0.9854
17508SOL     OW56021  10.950   8.712   7.556 -0.3971 -0.1635  0.2670
17508SOL    HW156022  10.903   8.792   7.576  0.0741  0.1382  0.2015
17508SOL    HW256023  10.997   8.731   7.475 -0.3874 -0.5521  0.1782
17509SOL     OW56024   3.140   7.798   0.825 -0.1442  0.8229  0.1819
17509SOL    HW156025   3.181   7.833   0.746 -0.4179 -0.1842 -0.4154
17509SOL    HW256026   3.057   7.845   0.831  0.2493  1.5085  0.3495
17510SOL     OW56027   9.199   8.839   4.349  0.1625  0.0289 -0.2345
17510SOL    HW156028   9.206   8.903   4.278  3.3522 -0.3739 -0.4023
17510SOL    HW256029   9.170   8.890   4.425  0.9233  1.3224 -0.7810
17511SOL     OW56030   9.373   4.277   5.238 -0.4513 -0.2277  0.0937
17511SOL    HW156031   9.352   4.209   5.174  1.2021  0.6360 -1.4510
17511SOL    HW256032   9.293   4.329   5.246 -1.2430 -1.4089  0.1428
17512SOL     OW56033   7.336   3.810   2.660  0.4373 -0.0348 -0.4425
17512SOL    HW156034   7.290   3.863   2.594 -0.0288 -0.1616 -0.2173
17512SOL    HW256035   7.322   3.720   2.632  1.9390 -0.0435 -1.3054
17513SOL     OW56036   9.513   1.888   7.795  0.0421 -0.4396 -0.5034
17513SOL    HW156037   9.505   1.830   7.870  0.1488 -1.2573 -1.1096
17513SOL    HW256038   9.428   1.884   7.752  0.3448 -0.9292 -1.0866
17514SOL     OW56039   7.088   2.697   1.254  0.2799  0.6085  0.3189
17514SOL    HW156040   7.152   2.638   1.293 -0.8846 -0.7847  0.1930
17514SOL    HW256041   7.107   2.782   1.294  3.5370  0.7551 -1.2936
17515SOL     OW56042   6.966   2.693   1.008 -0.6451 -0.1863  0.2776
17515SOL    HW156043   7.012   2.757   0.954 -1.1223  0.7717  0.9580
17515SOL    HW256044   7.019   2.686   1.087  1.7607 -3.8917 -1.3816
17516SOL     OW56045   4.571   1.213   2.694 -0.2721 -0.3005  0.0141
17516SOL    HW156046   4.614   1.295   2.717 -1.6714  0.2338  0.8461
17516SOL    HW256047   4.637   1.146   2.712 -0.1420  0.3768  2.4802
17517SOL     OW56048   0.404   3.521   8.663  0.1662 -0.8552 -0.5115
17517SOL    HW156049   0.475   3.584   8.676 -1.6574  1.0773  0.7816
17517SOL    HW256050   0.377   3.534   8.572  0.5378 -0.5860 -0.5854
17518SOL     OW56051  10.038  10.920  10.587 -0.0320  0.5624 -0.0262
17518SOL    HW156052   9.968  10.980  10.614 -0.9782 -0.6758  0.3380
17518SOL    HW256053  10.052  10.864  10.663  0.2684 -0.2112 -0.6470
17519SOL     OW56054   5.553   3.349   0.906  0.0704 -0.2791 -0.2367
17519SOL    HW156055   5.601   3.361   0.824  0.5804  0.5204  0.1622
17519SOL    HW256056   5.470   3.310   0.880  0.1610  0.1079 -1.1523
17520SOL     OW56057   3.553   5.163   1.608 -0.3889 -0.4723 -0.7825
17520SOL    HW156058   3.511   5.097   1.553 -0.5282 -0.3865 -0.7793
17520SOL    HW256059   3.520   5.144   1.696  0.2975 -0.9850 -0.6309
17521SOL     OW56060   6.354   1.851   3.879 -0.6243 -0.3295  0.1089
17521SOL    HW156061   6.312   1.884   3.958 -2.2067 -0.4144 -0.6615
17521SOL    HW256062   6.393   1.929   3.838 -1.0008 -0.0615  0.2592
17522SOL     OW56063   6.586   0.006   1.069 -0.0586  0.0173 -0.2514
17522SOL    HW156064   6.625   0.048   1.145  1.1073  1.8342 -1.7549
17522SOL    HW256065   6.509   0.059   1.048  1.4092  1.5493 -2.1453
17523SOL     OW56066   4.243   2.456   9.629 -0.0722  0.4432  0.2499
17523SOL    HW156067   4.188   2.497   9.695 -0.0575  0.6988  0.1056
17523SOL    HW256068   4.330   2.491   9.645 -0.2269  1.1610 -0.4367
17524SOL     OW56069   4.512   7.560   2.049 -0.6405  0.8254 -0.5769
17524SOL    HW156070   4.502   7.514   1.965  1.0803 -0.3317 -0.2055
17524SOL    HW256071   4.522   7.652   2.024 -0.0634  0.4949 -1.6714
17525SOL     OW56072   2.179   5.248   6.648  0.2529 -0.0004 -0.0588
17525SOL    HW156073   2.251   5.238   6.710  2.0563  2.0703 -1.6321
17525SOL    HW256074   2.188   5.172   6.589  1.2313  0.2590 -0.2685
17526SOL     OW56075   0.964   0.615  10.896  0.6426  0.2386 -0.7870
17526SOL    HW156076   0.905   0.645  10.966  1.2241  0.4308 -0.3749
17526SOL    HW256077   0.974   0.521  10.912 -0.1876  0.0431 -1.3417
17527SOL     OW56078  10.564   6.121   9.167  0.2761 -0.3704 -0.0503
17527SOL    HW156079  10.644   6.117   9.114  0.5115 -0.3775  0.3081
17527SOL    HW256080  10.569   6.205   9.213 -1.3812  1.1230 -2.3272
17528SOL     OW56081   3.768   1.240   4.306  0.3678 -0.0307  0.0621
17528SOL    HW156082   3.773   1.145   4.319  2.1290 -0.3644 -2.3518
17528SOL    HW256083   3.785   1.252   4.212 -1.2619  2.6011  0.0215
17529SOL     OW56084   0.138   0.924   3.064 -0.4079 -0.1857 -0.5821
17529SOL    HW156085   0.225   0.884   3.075 -0.3429  0.2542  0.6340
17529SOL    HW256086   0.077   0.852   3.079 -0.2688 -0.2129 -0.1371
17530SOL     OW56087   7.627   9.970   3.342 -0.5928  0.7281 -0.4493
17530SOL    HW156088   7.710   9.965   3.294  0.6491  1.7175  1.4766
17530SOL    HW256089   7.631   9.897   3.405 -2.9790 -1.6897 -2.7994
17531SOL     OW56090   5.221   3.754   1.105 -0.2632  0.1931  0.0618
17531SOL    HW156091   5.214   3.680   1.044 -2.1880 -1.6350  2.3317
17531SOL    HW256092   5.315   3.764   1.119  0.0996 -3.2586  1.1793
17532SOL     OW56093   2.616   9.254   8.031  0.2940 -0.3715 -0.6197
17532SOL    HW156094   2.662   9.272   7.949  1.6067 -0.3852  0.0934
17532SOL    HW256095   2.629   9.160   8.045 -0.9020 -0.6147 -0.9445
17533SOL     OW56096   1.930   4.527   1.374 -0.2498  0.1055 -0.7859
17533SOL    HW156097   1.908   4.595   1.311 -1.6304 -0.4971 -0.9745
17533SOL    HW256098   1.849   4.479   1.388 -0.2541  0.7487  2.1324
17534SOL     OW56099   6.602   6.585   6.590  0.5849 -0.5092 -0.3156
17534SOL    HW156100   6.690   6.550   6.578  0.9044  0.8005 -2.2585
17534SOL    HW256101   6.544   6.521   6.549  0.9377  0.0155 -1.6798
17535SOL     OW56102   3.827   3.802   2.924 -0.2850  0.6111 -0.0493
17535SOL    HW156103   3.761   3.758   2.979  0.0839 -2.4186 -1.8128
17535SOL    HW256104   3.899   3.822   2.985 -1.5680  1.2758  1.3258
17536SOL     OW56105   5.324   2.768   0.105 -0.1522  0.0052 -0.3318
17536SOL    HW156106   5.305   2.782   0.012  1.1311  0.9536 -0.4684
17536SOL    HW256107   5.256   2.706   0.133 -0.5212 -0.3703 -1.9089
17537SOL     OW56108   1.407   5.339   0.801 -0.6423 -0.2444  0.5635
17537SOL    HW156109   1.332   5.355   0.743  0.7362  1.0427 -0.9322
17537SOL    HW256110   1.415   5.420   0.852  0.1544 -0.1045  0.2173
17538SOL     OW56111   4.393   2.599   0.291  0.0710 -0.4012 -0.0255
17538SOL    HW156112   4.438   2.599   0.375  0.5047  0.8191 -0.2346
17538SOL    HW256113   4.318   2.541   0.303  1.2313 -1.8364  0.5803
17539SOL     OW56114   0.680   0.230   9.952 -0.1309  0.4283  0.0225
17539SOL    HW156115   0.593   0.228   9.991 -0.1128  1.1028  0.1058
17539SOL    HW256116   0.671   0.180   9.871 -0.3743 -0.2607  0.4637
17540SOL     OW56117  10.995  10.140   6.849 -0.7509 -0.3466  0.3196
17540SOL    HW156118  11.052  10.123   6.774 -1.0249  3.2430 -0.8989
17540SOL    HW256119  10.916  10.088   6.832 -1.1739  1.0130 -2.4404
17541SOL     OW56120   8.219   9.226   3.864 -0.0347  0.3982  0.0038
17541SOL    HW156121   8.304   9.204   3.902 -0.2006 -0.9575 -0.3409
17541SOL    HW256122   8.165   9.248   3.940  0.4208  0.5334  0.2963
17542SOL     OW56123   6.721   5.648  10.412 -0.0609 -0.0949  0.3046
17542SOL    HW156124   6.745   5.647  10.504 -1.9055 -0.8967  0.8239
17542SOL    HW256125   6.767   5.572  10.374  0.7233  0.2545  0.5268
17543SOL     OW56126   0.291   6.027   5.663 -0.1166  0.4737 -0.4499
17543SOL    HW156127   0.232   6.047   5.590 -0.6368 -0.3335 -0.2543
17543SOL    HW256128   0.265   5.940   5.693  1.0194  0.1966 -0.2084
17544SOL     OW56129   4.171   6.653   6.396  0.7706  0.7150 -0.8919
17544SOL    HW156130   4.258   6.641   6.433  1.3016 -0.6970 -2.4564
17544SOL    HW256131   4.112   6.606   6.454  1.2201  0.6718 -0.4716
17545SOL     OW56132   1.325   3.079   7.609  0.0320 -0.0170  0.2974
17545SOL    HW156133   1.351   2.987   7.616 -0.6084 -0.1007  2.0864
17545SOL    HW256134   1.388   3.126   7.664  0.0704  0.5577 -0.2270
17546SOL     OW56135   4.083   2.511   8.450 -0.0279  0.9569  0.0258
17546SOL    HW156136   4.052   2.424   8.475  0.0424  0.7011 -0.7205
17546SOL    HW256137   4.100   2.556   8.532  1.2555 -0.2178  0.4369
17547SOL     OW56138   6.322   6.824   3.698 -0.1204  0.0802  0.2144
17547SOL    HW156139   6.408   6.851   3.664 -0.0580  0.5777  0.7373
17547SOL    HW256140   6.341   6.746   3.751 -0.0134  0.0890  0.1906
17548SOL     OW56141   6.047   7.617   1.266  0.4513 -0.0862  0.5653
17548SOL    HW156142   6.141   7.607   1.247  0.8835  1.1651  1.8641
17548SOL    HW256143   6.018   7.685   1.205  0.0827 -1.2804 -0.6407
17549SOL     OW56144  10.238   8.870   1.015 -0.0805 -0.1940 -0.2659
17549SOL    HW156145  10.156   8.912   1.042 -0.6111 -1.3932  0.0763
17549SOL    HW256146  10.295   8.877   1.091  0.0261  0.3798 -0.3988
17550SOL     OW56147   0.682   8.323   7.958  0.3039 -0.4635 -0.3368
17550SOL    HW156148   0.669   8.335   8.052 -0.0055  0.1166 -0.4475
17550SOL    HW256149   0.652   8.234   7.940 -1.3866  0.0510 -0.1963
17551SOL     OW56150   1.536   5.964   3.377 -0.0641  0.1683  0.1770
17551SOL    HW156151   1.588   6.038   3.346 -1.5971  1.0348 -0.4366
17551SOL    HW256152   1.512   5.986   3.467 -0.3971  0.3686  0.0429
17552SOL     OW56153   2.578   9.802   7.055  0.3151  0.2289 -0.2269
17552SOL    HW156154   2.518   9.845   7.116 -0.4409 -0.8619 -0.1659
17552SOL    HW256155   2.543   9.713   7.045  1.0506  0.0414 -1.3982
17553SOL     OW56156   2.086  10.189   0.795 -0.2183 -0.0918 -0.5042
17553SOL    HW156157   2.137  10.229   0.865  0.9766  0.5415 -1.6997
17553SOL    HW256158   1.995  10.192   0.826  0.3893 -0.8171  1.4629
17554SOL     OW56159   4.301   9.033   3.110 -0.5736  0.1329 -0.1356
17554SOL    HW156160   4.224   9.007   3.059 -0.8992  0.1673  0.3295
17554SOL    HW256161   4.290   8.987   3.194 -0.3016  0.4658  0.0828
17555SOL     OW56162  10.004   3.452   7.170 -0.1348  0.7023 -0.1775
17555SOL    HW156163  10.028   3.440   7.079 -1.1291  0.4498 -0.4214
17555SOL    HW256164  10.018   3.545   7.187  1.6264  0.4451 -0.0957
17556SOL     OW56165   4.748   4.994   4.890  0.0294 -0.7154 -0.1556
17556SOL    HW156166   4.668   4.977   4.840 -2.1294  1.1169  2.3870
17556SOL    HW256167   4.776   4.907   4.920 -1.1487 -1.3817 -0.8980
17557SOL     OW56168   5.205   2.609   9.744 -0.5799  0.2598  0.0832
17557SOL    HW156169   5.121   2.605   9.790  0.9743  0.3791  3.2486
17557SOL    HW256170   5.254   2.677   9.790  0.7817  1.2382 -2.6133
17558SOL     OW56171   5.598   8.137   2.627 -0.1859  0.3623  0.2095
17558SOL    HW156172   5.652   8.215   2.612  1.6777 -1.2853 -2.5587
17558SOL    HW256173   5.572   8.109   2.540  1.2522 -3.4128  0.8210
17559SOL     OW56174   4.754   0.029   2.348  0.2657  0.6067  0.2911
17559SOL    HW156175   4.838   0.070   2.371  0.3516 -0.1312  1.3797
17559SOL    HW256176   4.709   0.096   2.297  1.9124  0.6435 -1.2259
17560SOL     OW56177   4.932   1.490   6.616 -0.2090 -0.3458 -0.6093
17560SOL    HW156178   4.855   1.516   6.667 -2.5997 -2.5656 -2.8149
17560SOL    HW256179   4.941   1.557   6.549 -0.8061 -0.5701 -0.9136
17561SOL     OW56180   2.914   5.663   3.008  0.3676  0.2710  0.2229
17561SOL    HW156181   2.854   5.590   3.021  0.4417  0.1097 -0.3034
17561SOL    HW256182   2.969   5.663   3.086  0.3593 -0.2303  0.2324
17562SOL     OW56183  10.077   6.005   2.274 -0.2105  0.1419 -0.0292
17562SOL    HW156184  10.080   5.961   2.190 -0.7658 -1.8376  0.9304
17562SOL    HW256185   9.994   6.052   2.273 -1.2883 -1.6515  0.1983
17563SOL     OW56186   0.956   2.907   2.488  0.2238  0.2196  0.3535
17563SOL    HW156187   0.916   2.873   2.568  0.1538  1.6959  0.9967
17563SOL    HW256188   0.890   2.967   2.452  1.2503  1.5839  0.6461
17564SOL     OW56189   9.991   5.734   8.812  0.3994  0.5308 -0.1107
17564SOL    HW156190   9.900   5.719   8.839  0.8630  0.0232  1.2673
17564SOL    HW256191   9.984   5.781   8.729 -1.1175 -0.7741 -0.7723
17565SOL     OW56192   4.924   5.261   1.819 -0.4048 -0.1159  0.4293
17565SOL    HW156193   4.894   5.211   1.895 -0.2996  0.3459  0.7715
17565SOL    HW256194   4.910   5.201   1.745 -0.3165 -0.6423  0.8312
17566SOL     OW56195   0.029   7.530   9.876 -0.4505 -0.0866 -0.0510
17566SOL    HW156196   0.094   7.600   9.878 -1.0931  0.4936  1.0583
17566SOL    HW256197   0.076   7.453   9.910 -0.2647  0.2681  0.5050
17567SOL     OW56198   8.941   7.802   0.982  0.3485  0.0104  0.0960
17567SOL    HW156199   8.930   7.773   0.892  0.3741  0.2773  0.0054
17567SOL    HW256200   9.006   7.742   1.019 -0.1732 -0.5353  0.1457
17568SOL     OW56201   7.429   5.190  10.250 -0.1911  0.3057  0.2302
17568SOL    HW156202   7.402   5.261  10.192 -0.8013  0.0491  0.1901
17568SOL    HW256203   7.503   5.225  10.300  0.0476  0.6804 -0.3819
17569SOL     OW56204   3.177   1.805   5.383 -0.2457 -0.1451  0.8393
17569SOL    HW156205   3.212   1.732   5.435  0.3322 -1.0441 -0.7629
17569SOL    HW256206   3.093   1.773   5.351  1.2099 -1.3004 -2.1693
17570SOL     OW56207   7.716   7.867   0.867 -0.3415  0.6370  0.4472
17570SOL    HW156208   7.715   7.864   0.963 -1.1472  0.1270  0.4308
17570SOL    HW256209   7.627   7.893   0.843 -0.0059  1.2734 -0.1588
17571SOL     OW56210   4.182  10.997   1.897 -0.7451 -0.6450  0.0815
17571SOL    HW156211   4.182  10.905   1.872  0.8550 -0.8908  0.8616
17571SOL    HW256212   4.219  11.042   1.821 -0.6166 -0.7666  0.0718
17572SOL     OW56213   1.444   1.788  10.816 -0.4795  0.0104 -0.2252
17572SOL    HW156214   1.458   1.731  10.741  1.7548  2.3587 -1.7639
17572SOL    HW256215   1.466   1.876  10.784 -1.2038  1.3972  2.7075
17573SOL     OW56216   2.725   7.137   1.424 -0.2472 -0.1241  0.2158
17573SOL    HW156217   2.782   7.065   1.399  0.3797  0.3516  0.2398
17573SOL    HW256218   2.716   7.129   1.519 -0.7306 -0.5635  0.1360
17574SOL     OW56219   7.350   4.168   1.855 -0.2268  0.2955 -0.0634
17574SOL    HW156220   7.315   4.087   1.818 -1.7222  0.9726 -0.2317
17574SOL    HW256221   7.431   4.142   1.899  0.1354 -1.0033 -1.4383
17575SOL     OW56222  10.110   6.464   4.884 -0.4562  0.0433  0.2741
17575SOL    HW156223  10.137   6.412   4.808 -0.7150  0.2817  0.0153
17575SOL    HW256224  10.020   6.489   4.866 -1.6568 -2.5207  2.1114
17576SOL     OW56225   0.988   6.233   0.421  0.9869  0.3754  0.1531
17576SOL    HW156226   1.002   6.143   0.394  0.1486  0.1241  0.5117
17576SOL    HW256227   0.902   6.232   0.464  1.1094  1.2763  0.4448
17577SOL     OW56228   4.171   4.745   2.080 -0.1581  0.4652 -0.2123
17577SOL    HW156229   4.245   4.701   2.039  0.4508  1.3552 -0.0967
17577SOL    HW256230   4.122   4.675   2.124  0.7310 -0.0949 -0.1028
17578SOL     OW56231   2.569  10.148   0.695 -0.2304  0.1804  0.3914
17578SOL    HW156232   2.582  10.097   0.775  2.0869 -0.6060 -0.4134
17578SOL    HW256233   2.589  10.238   0.722 -0.2223  0.0424  0.8632
17579SOL     OW56234   1.077   8.703   1.990  0.0342  0.4307  0.0660
17579SOL    HW156235   1.035   8.704   1.904  0.6031 -0.0082 -0.2288
17579SOL    HW256236   1.020   8.648   2.044  1.1708 -1.8200 -0.8655
17580SOL     OW56237   2.871   9.075   7.695 -0.0519  0.2230  0.4308
17580SOL    HW156238   2.903   9.124   7.620  1.5631  0.8487  1.4711
17580SOL    HW256239   2.854   8.987   7.662  0.8986  0.4166 -0.6197
17581SOL     OW56240   5.228   0.170   9.980  0.0225  0.3849  0.0550
17581SOL    HW156241   5.277   0.147  10.059  0.1911 -3.3573 -0.9327
17581SOL    HW256242   5.293   0.164   9.910 -1.2440 -2.4488 -1.0061
17582SOL     OW56243  10.281   7.414   8.488  0.2974 -0.5269 -0.0087
17582SOL    HW156244  10.262   7.329   8.528 -0.6710  0.2511  1.2418
17582SOL    HW256245  10.228   7.476   8.538 -1.7324  0.4125 -3.0605
17583SOL     OW56246   9.979   4.511   8.548 -0.0073  0.0821  0.3069
17583SOL    HW156247   9.926   4.493   8.470  3.1772  2.6827 -2.8327
17583SOL    HW256248  10.041   4.439   8.552  0.0489  0.1252  0.2175
17584SOL     OW56249   0.382   7.793   6.027 -0.3321  0.0102  0.5075
17584SOL    HW156250   0.432   7.835   6.097  0.5576  0.4054 -0.3337
17584SOL    HW256251   0.293   7.788   6.061 -0.3775  2.1237  0.8555
17585SOL     OW56252   3.194   7.383   4.065  0.5537  0.3045 -0.5308
17585SOL    HW156253   3.254   7.404   4.136 -0.1788  2.0082 -0.3670
17585SOL    HW256254   3.192   7.462   4.011 -2.3553  0.7689  0.0787
17586SOL     OW56255   9.357   1.252   3.082 -0.3525 -0.4270 -0.0117
17586SOL    HW156256   9.419   1.193   3.039 -0.0777 -0.5340  0.5208
17586SOL    HW256257   9.330   1.205   3.161  1.4086  0.9365  1.5040
17587SOL     OW56258   9.498   7.767  10.500 -0.4099 -0.4640  0.3940
17587SOL    HW156259   9.429   7.830  10.518 -0.2556 -1.0041  3.4781
17587SOL    HW256260   9.564   7.783  10.567  0.1988 -3.0741  0.5489
17588SOL     OW56261   6.832  10.871   9.504 -0.5319  0.2618 -0.6332
17588SOL    HW156262   6.798  10.933   9.568  0.1542 -1.2141  1.2521
17588SOL    HW256263   6.756  10.849   9.450 -0.9327  2.1721 -0.9372
17589SOL     OW56264   0.768   1.081   5.929  0.2051 -0.0998  0.5937
17589SOL    HW156265   0.683   1.066   5.971  0.4521 -0.7835  0.8587
17589SOL    HW256266   0.763   1.033   5.846  1.2792 -2.4101  1.7879
17590SOL     OW56267   5.047   7.933  10.761 -0.1477 -0.6628  0.1933
17590SOL    HW156268   4.977   7.895  10.815 -1.1083 -0.2094 -0.6877
17590SOL    HW256269   5.101   7.982  10.822 -1.0497 -0.4003  0.7930
17591SOL     OW56270   4.324   2.713   3.378 -0.1911  0.2452  0.2344
17591SOL    HW156271   4.361   2.801   3.378  2.9175 -0.8991  1.7914
17591SOL    HW256272   4.293   2.700   3.288  2.3652  1.7629 -0.9802
17592SOL     OW56273   4.623   0.552   8.422  0.1452  0.2157  0.2997
17592SOL    HW156274   4.652   0.583   8.337 -1.8692 -0.7408 -0.8089
17592SOL    HW256275   4.689   0.487   8.447  1.0883  0.9453 -0.2043
17593SOL     OW56276   8.063   4.973   3.720  0.1410  0.3227 -0.4477
17593SOL    HW156277   8.013   4.925   3.654 -0.7365  1.7511 -0.8672
17593SOL    HW256278   8.029   4.940   3.804 -0.7861  0.5374 -0.7317
17594SOL     OW56279   5.850  10.245   9.322  0.1116  0.4098 -0.1697
17594SOL    HW156280   5.804  10.185   9.263  0.2273  0.5641 -0.4197
17594SOL    HW256281   5.936  10.205   9.334 -0.3319 -0.2588  0.8877
17595SOL     OW56282   7.518   5.443   6.336 -0.7674 -0.1595  0.0645
17595SOL    HW156283   7.478   5.492   6.407 -1.0148  0.6247 -0.6071
17595SOL    HW256284   7.601   5.412   6.373  0.5035  2.6747 -0.1395
17596SOL     OW56285   5.728  10.697   2.074 -0.0687 -0.1939 -0.1193
17596SOL    HW156286   5.726  10.642   1.997  1.1820 -1.6699  0.8378
17596SOL    HW256287   5.756  10.639   2.145 -1.5423  1.0079  1.5452
17597SOL     OW56288   6.261   6.337   0.855 -0.1793 -0.3035  0.4215
17597SOL    HW156289   6.343   6.318   0.809  0.8955  0.8228  1.8136
17597SOL    HW256290   6.224   6.251   0.875  1.7271 -0.8785  1.6316
17598SOL     OW56291   0.193   0.425   1.140 -0.5171 -0.1101 -0.0217
17598SOL    HW156292   0.128   0.360   1.167 -1.3115  0.3768 -0.7248
17598SOL    HW256293   0.246   0.380   1.074 -2.3569  0.5229 -2.0597
17599SOL     OW56294   0.355   4.979   8.838 -0.1348  0.7872  0.2662
17599SOL    HW156295   0.384   5.050   8.781 -1.7641  0.7742 -0.6316
17599SOL    HW256296   0.280   4.941   8.793 -0.1572 -0.6114  1.4136
17600SOL     OW56297   2.948   6.178   1.141  0.0807  0.0861  0.0301
17600SOL    HW156298   3.003   6.191   1.063  1.7251  2.1672  1.4454
17600SOL    HW256299   2.987   6.102   1.184  1.1002  0.7594  0.3464
17601SOL     OW56300   4.127   5.786   2.778  0.4980  0.1111 -0.6784
17601SOL    HW156301   4.162   5.698   2.794  0.7969  0.3623  0.1301
17601SOL    HW256302   4.044   5.787   2.825  0.5926  0.3253 -0.5163
17602SOL     OW56303   9.977   7.105  10.460 -0.0457 -0.1180  0.4282
17602SOL    HW156304   9.993   7.075  10.371  0.8540  0.8918  0.2378
17602SOL    HW256305  10.059   7.090  10.506  0.1412  1.1750  0.5568
17603SOL     OW56306   8.779  10.212   7.696 -0.0247 -0.5722 -0.6003
17603SOL    HW156307   8.797  10.140   7.757  0.1731 -1.2234 -1.4130
17603SOL    HW256308   8.821  10.288   7.735 -0.9526 -0.6954  0.7108
17604SOL     OW56309   0.754   9.487  10.225 -0.5194 -0.2467 -0.1441
17604SOL    HW156310   0.752   9.514  10.133  0.5931 -1.6872 -0.6232
17604SOL    HW256311   0.740   9.393  10.223 -0.4813 -0.2984  1.1670
17605SOL     OW56312   5.747   5.265   8.107  0.3021  0.3529 -0.4600
17605SOL    HW156313   5.658   5.255   8.140  0.4239 -0.0002 -0.2361
17605SOL    HW256314   5.800   5.278   8.185  0.3046  1.7136 -0.6553
17606SOL     OW56315   8.665   1.316   9.429 -0.0590  0.1374 -0.3921
17606SOL    HW156316   8.656   1.225   9.459  2.2211  0.1189  0.4382
17606SOL    HW256317   8.618   1.367   9.494  0.1833 -0.3125  0.1437
17607SOL     OW56318   4.004   7.995   0.038 -0.0860  0.3558 -0.0189
17607SOL    HW156319   3.957   7.930  -0.014 -1.1218  2.2122 -1.5001
17607SOL    HW256320   4.039   7.945   0.113 -0.0791 -2.0419 -1.5223
17608SOL     OW56321   9.823   8.791   7.376 -0.5128 -0.2627 -0.3734
17608SOL    HW156322   9.783   8.876   7.357  1.1656  0.3067 -1.5990
17608SOL    HW256323   9.826   8.746   7.291 -0.0896 -0.9739  0.0075
17609SOL     OW56324   1.527   6.418   7.728 -0.0337  0.4523 -0.1593
17609SOL    HW156325   1.583   6.488   7.694 -0.0167 -0.4236 -2.0697
17609SOL    HW256326   1.586   6.342   7.735 -0.5783 -0.0054 -0.4767
17610SOL     OW56327   9.170   8.716   6.565  0.1111 -0.2108 -0.0522
17610SOL    HW156328   9.263   8.738   6.562  0.1858  0.1062  2.4311
17610SOL    HW256329   9.128   8.792   6.604 -1.0584 -0.7273 -0.2548
17611SOL     OW56330   6.838  10.374   6.877  0.3479  0.0019 -1.1052
17611SOL    HW156331   6.778  10.364   6.804 -0.1350  1.4641 -0.9441
17611SOL    HW256332   6.924  10.385   6.836  0.4627 -1.6119 -1.3506
17612SOL     OW56333  10.968   6.382   0.988  0.4232  0.2851  0.2428
17612SOL    HW156334  10.948   6.298   1.029  0.9370  1.3340  2.8100
17612SOL    HW256335  11.051   6.368   0.943 -0.1589 -0.9017 -0.5247
17613SOL     OW56336   6.909   4.439   6.539 -0.0918  0.1398 -0.1349
17613SOL    HW156337   6.861   4.502   6.484 -1.2718 -0.1136  0.5559
17613SOL    HW256338   6.860   4.438   6.621  0.4777 -0.9672  0.2032
17614SOL     OW56339   0.023   7.639   3.400  0.0781 -0.6127 -0.4712
17614SOL    HW156340   0.067   7.605   3.322 -0.5454  0.9153 -1.5334
17614SOL    HW256341  -0.068   7.647   3.374  0.0625  1.0443 -0.0021
17615SOL     OW56342   3.342   6.071  10.342  0.8199  0.3706 -0.0243
17615SOL    HW156343   3.361   6.047  10.252  0.4111  0.1254 -0.0479
17615SOL    HW256344   3.285   6.001  10.374 -1.4641  1.9330 -0.5001
17616SOL     OW56345   8.556   1.392  10.720 -0.1440  0.1709 -0.2535
17616SOL    HW156346   8.461   1.392  10.726 -0.1659 -0.5599 -0.5395
17616SOL    HW256347   8.585   1.393  10.811 -0.4334 -0.1078 -0.1531
17617SOL     OW56348   3.698   7.409   6.062 -0.1209  0.1581 -0.2938
17617SOL    HW156349   3.725   7.483   6.116  0.0778 -0.2267  0.1440
17617SOL    HW256350   3.764   7.404   5.993  0.0536  0.1805 -0.1288
17618SOL     OW56351   4.870   3.183  10.470  0.0658 -0.0781  0.0919
17618SOL    HW156352   4.896   3.092  10.483 -2.9686 -1.4748 -2.2482
17618SOL    HW256353   4.793   3.194  10.526  0.1589  0.9112  0.0393
17619SOL     OW56354   4.115   5.559   3.062  0.5948  0.0947 -0.5167
17619SOL    HW156355   4.031   5.514   3.066  1.8666 -2.4091  3.0974
17619SOL    HW256356   4.152   5.534   2.977 -0.6082 -2.2051 -0.4361
17620SOL     OW56357   6.132  10.485   0.635  0.9131 -0.2516  0.6950
17620SOL    HW156358   6.205  10.543   0.613 -0.7454  1.1855 -1.4085
17620SOL    HW256359   6.098  10.520   0.718  2.5147 -0.9173  1.6779
17621SOL     OW56360  10.038   2.908  10.439  0.6146 -0.1573 -0.2144
17621SOL    HW156361  10.015   2.865  10.357 -0.7209 -0.2179  0.1617
17621SOL    HW256362  10.091   2.983  10.413  0.6541 -0.4767 -1.0853
17622SOL     OW56363   0.800   1.988   8.555  0.1647  0.2224  0.6370
17622SOL    HW156364   0.736   2.057   8.545 -1.3972 -1.0745  1.1891
17622SOL    HW256365   0.856   1.994   8.477 -0.7679  1.2468  0.0354
17623SOL     OW56366   5.992   9.183  11.001  0.0520  0.3006  0.2922
17623SOL    HW156367   5.985   9.137  11.084  1.7243 -0.4075  0.0643
17623SOL    HW256368   6.071   9.149  10.960  1.3177  3.2273  0.0326
17624SOL     OW56369   8.466   7.549   7.615  0.3609 -0.1097 -0.3486
17624SOL    HW156370   8.399   7.615   7.634 -0.1079 -0.4063 -0.9143
17624SOL    HW256371   8.443   7.516   7.528  0.2283 -1.4347  0.1640
17625SOL     OW56372   8.961   2.542   3.355 -0.1066 -0.4368 -0.6028
17625SOL    HW156373   9.053   2.562   3.343 -0.4129  0.5156 -1.5071
17625SOL    HW256374   8.932   2.504   3.272 -0.7978  0.3794 -0.7495
17626SOL     OW56375   9.050   6.917   3.596 -0.1792 -0.3111  0.3943
17626SOL    HW156376   9.130   6.869   3.574 -0.0380 -0.6414  1.5351
17626SOL    HW256377   9.072   6.964   3.677 -0.7795  0.5133  0.0857
17627SOL     OW56378   0.420   5.916   0.642  0.3588 -0.1361 -0.8876
17627SOL    HW156379   0.374   5.833   0.641 -1.4799  0.7850  0.5403
17627SOL    HW256380   0.364   5.975   0.591  0.3863  0.8020  0.1304
17628SOL     OW56381   8.922   8.712  10.067 -0.3748  0.5809  0.0822
17628SOL    HW156382   9.015   8.730  10.078 -0.6398  1.3177  1.4538
17628SOL    HW256383   8.914   8.674   9.980  1.1315  1.0150 -0.2694
17629SOL     OW56384   8.785   3.449   2.437 -0.5504  0.3398 -0.4565
17629SOL    HW156385   8.712   3.477   2.382 -1.5967 -1.0315  0.1776
17629SOL    HW256386   8.765   3.486   2.523 -1.3442 -1.2935  0.1002
17630SOL     OW56387   7.098   5.766   1.940 -0.2725 -0.4214 -0.1225
17630SOL    HW156388   7.122   5.676   1.920  0.8977 -0.1651  0.0320
17630SOL    HW256389   7.004   5.763   1.956 -0.4599 -1.3920 -1.2827
17631SOL     OW56390   7.591  10.963   2.447 -0.0524 -0.2613 -0.1947
17631SOL    HW156391   7.609  11.052   2.418  0.5030 -1.1751 -2.9085
17631SOL    HW256392   7.539  10.924   2.377  0.8326 -2.4731  0.2674
17632SOL     OW56393   9.633   8.045  10.648 -0.3386 -0.5821 -0.0083
17632SOL    HW156394   9.608   8.044  10.740 -1.2312 -1.8701 -0.2397
17632SOL    HW256395   9.688   7.967  10.637  1.1274  0.4405 -0.2311
17633SOL     OW56396   1.930   3.390   2.569 -0.1203 -0.2299  0.2374
17633SOL    HW156397   1.861   3.400   2.503 -3.2209 -2.2393  2.8578
17633SOL    HW256398   1.984   3.318   2.537  1.2213  1.6670 -2.0813
17634SOL     OW56399   7.768   8.715   5.235 -0.0599 -0.1319  0.8226
17634SOL    HW156400   7.806   8.800   5.259 -0.0920  0.4233 -0.8823
17634SOL    HW256401   7.709   8.736   5.162 -0.6896 -1.5224  0.9044
17635SOL     OW56402   9.077   6.802   5.805  0.2391  0.1483  0.7403
17635SOL    HW156403   9.123   6.791   5.888  0.2494 -2.1014  0.5131
17635SOL    HW256404   8.990   6.834   5.828  0.6916  0.8565  1.4893
17636SOL     OW56405   5.015   0.547   6.366 -0.0520 -0.3135  0.2706
17636SOL    HW156406   5.053   0.600   6.296 -0.6261 -1.4150 -0.9407
17636SOL    HW256407   4.934   0.591   6.389  1.2228  1.3334  1.9513
17637SOL     OW56408   9.480   3.988   5.855  0.0139  0.1346  0.0792
17637SOL    HW156409   9.447   4.075   5.832  2.1081  1.1340  0.5976
17637SOL    HW256410   9.445   3.972   5.943 -1.3253 -0.0924 -0.4736
17638SOL     OW56411  10.590  10.734   0.689 -0.0875  0.5581 -0.9932
17638SOL    HW156412  10.622  10.768   0.605 -0.8486  1.3795 -0.9667
17638SOL    HW256413  10.510  10.784   0.705 -0.4935 -0.3176 -0.2725
17639SOL     OW56414   4.291   4.752   4.338  0.4462  0.3623  0.5429
17639SOL    HW156415   4.306   4.754   4.433  2.0728  0.2252  0.3112
17639SOL    HW256416   4.323   4.837   4.307 -2.3318  1.4782  0.3571
17640SOL     OW56417   5.648   6.149   7.871 -0.1538  0.3259  0.3293
17640SOL    HW156418   5.673   6.092   7.798  0.8848 -0.3834  1.2067
17640SOL    HW256419   5.613   6.090   7.937  0.6314  0.7216  1.1253
17641SOL     OW56420   4.458   4.747   8.559  0.0662  0.1050 -0.3359
17641SOL    HW156421   4.519   4.816   8.533 -0.2529  0.3996 -0.3175
17641SOL    HW256422   4.480   4.673   8.502  2.0133 -0.6255  1.2532
17642SOL     OW56423   4.626   0.679  10.738 -0.6087 -0.4414  0.0589
17642SOL    HW156424   4.538   0.718  10.738  0.2408  1.5946  0.7026
17642SOL    HW256425   4.632   0.633  10.822 -1.2672 -1.1688 -0.2760
17643SOL     OW56426  10.272  10.163   9.143  0.3230  0.8264 -0.8371
17643SOL    HW156427  10.287  10.077   9.183  2.2787  1.9566  1.1442
17643SOL    HW256428  10.185  10.157   9.104 -0.2258 -1.5724  0.5355
17644SOL     OW56429   4.484   3.988  10.136  0.3426 -0.7852 -0.0945
17644SOL    HW156430   4.389   3.975  10.144 -0.0221 -0.4615 -2.9270
17644SOL    HW256431   4.501   4.068  10.186 -0.7654 -1.1426  0.9067
17645SOL     OW56432   7.444   0.187   6.867  0.0059  0.3707  0.5866
17645SOL    HW156433   7.441   0.131   6.789 -1.2580  1.2942 -0.0434
17645SOL    HW256434   7.507   0.143   6.925  0.4721 -0.6788 -0.6717
17646SOL     OW56435   3.444   2.499   4.608 -0.3804 -0.2000  0.3535
17646SOL    HW156436   3.471   2.591   4.604 -2.1142  0.4152  1.3988
17646SOL    HW256437   3.422   2.476   4.518  3.4529 -0.7997 -0.6097
17647SOL     OW56438  10.984   9.904   7.194 -0.6103  0.1199 -0.1676
17647SOL    HW156439  10.974   9.893   7.289 -0.9908  0.4471 -0.1665
17647SOL    HW256440  10.942   9.826   7.157  1.7891 -1.3290 -0.0141
17648SOL     OW56441   5.708   4.718   3.824 -0.3243  0.0075  0.1866
17648SOL    HW156442   5.663   4.799   3.799  1.8991  1.2843  0.0138
17648SOL    HW256443   5.691   4.658   3.751 -1.4043  0.5445 -0.0326
17649SOL     OW56444   3.209   0.113   7.572 -0.3173  0.0635  0.5168
17649SOL    HW156445   3.148   0.060   7.624  1.5014 -3.4409 -0.5364
17649SOL    HW256446   3.275   0.142   7.634 -0.4646 -0.3799  0.8896
17650SOL     OW56447   7.860   1.809   2.015  0.0401  0.2664  0.1266
17650SOL    HW156448   7.955   1.822   2.013 -0.1356  2.0197  0.7443
17650SOL    HW256449   7.841   1.750   1.943  1.6755 -0.7227  0.4600
17651SOL     OW56450   8.152   2.770   3.566 -0.2142 -0.4268 -0.1403
17651SOL    HW156451   8.106   2.836   3.617 -0.3963 -0.2409 -0.5414
17651SOL    HW256452   8.127   2.787   3.475  4.1225  2.6926 -1.0792
17652SOL     OW56453   2.868   2.433   9.568  0.2448  0.0811  0.6451
17652SOL    HW156454   2.868   2.355   9.623  0.1130  0.5292  1.3049
17652SOL    HW256455   2.794   2.485   9.600 -0.6361 -0.2274 -0.8214
17653SOL     OW56456   6.756   3.058   6.777  0.0430 -0.1133  0.0742
17653SOL    HW156457   6.834   3.053   6.831 -1.1137 -2.0849  1.7174
17653SOL    HW256458   6.789   3.075   6.688  2.0289  2.6214  1.1932
17654SOL     OW56459  10.587   3.161   8.214  0.0675 -0.5239 -0.0366
17654SOL    HW156460  10.531   3.113   8.276  0.5624  0.9725  1.6418
17654SOL    HW256461  10.676   3.139   8.240  0.2858  0.5548  0.1584
17655SOL     OW56462   0.595   9.298   1.816  0.1757  0.1548  0.4020
17655SOL    HW156463   0.546   9.293   1.899 -2.5852  0.4986 -1.1026
17655SOL    HW256464   0.608   9.207   1.791 -1.4973  0.0379 -0.1328
17656SOL     OW56465  10.031   3.506   1.997 -0.1278  0.1705  0.1878
17656SOL    HW156466   9.995   3.437   2.053  1.9440  0.7778  2.4476
17656SOL    HW256467   9.959   3.530   1.938 -2.0159 -1.4298  1.7242
17657SOL     OW56468   5.686   0.187   0.130 -0.3217 -0.5107 -0.3972
17657SOL    HW156469   5.720   0.203   0.218  1.0582  1.2088 -1.1887
17657SOL    HW256470   5.751   0.130   0.089  0.8297  1.3720 -1.3366
17658SOL     OW56471   3.915   5.266  10.863  0.7389 -0.1643  0.2768
17658SOL    HW156472   3.868   5.183  10.870  1.1030 -0.3842  0.1457
17658SOL    HW256473   3.871   5.314  10.793  0.0879  0.0500  0.8104
17659SOL     OW56474   2.222   2.617   3.819  0.0448 -0.4468  0.2740
17659SOL    HW156475   2.259   2.531   3.801 -0.9273 -0.7286 -0.4809
17659SOL    HW256476   2.238   2.632   3.912  0.2536 -1.4244  0.4027
17660SOL     OW56477   4.837   0.351   8.775  0.6422 -0.0736 -0.8343
17660SOL    HW156478   4.917   0.320   8.818  0.1760 -1.9201 -1.2034
17660SOL    HW256479   4.834   0.303   8.692 -0.8904 -0.1295 -0.7778
17661SOL     OW56480   1.369   7.849   9.791 -0.6372 -0.0699 -0.4116
17661SOL    HW156481   1.311   7.772   9.796 -2.0324  0.8007 -2.0547
17661SOL    HW256482   1.314   7.922   9.820  0.3337  0.4782  0.0792
17662SOL     OW56483   9.238   3.654   9.443 -0.1624  0.3003  0.3036
17662SOL    HW156484   9.292   3.726   9.411 -0.5613 -0.2375 -1.7296
17662SOL    HW256485   9.294   3.608   9.506  0.3145  1.9861  1.1625
17663SOL     OW56486   6.931   7.968   7.079 -0.0927  0.5437 -0.2450
17663SOL    HW156487   6.891   7.888   7.115  1.6494  0.0737  0.7468
17663SOL    HW256488   6.907   8.037   7.140  0.2006  0.3538  0.0861
17664SOL     OW56489   3.399   9.486   6.119  0.0823  0.2463  0.4822
17664SOL    HW156490   3.344   9.502   6.042  0.1813 -0.9281  0.1486
17664SOL    HW256491   3.413   9.573   6.157 -1.6523  0.6320  0.3425
17665SOL     OW56492   8.830  10.798   7.636 -0.5496 -0.3247  0.0208
17665SOL    HW156493   8.832  10.795   7.541  0.6723 -1.4385  0.0543
17665SOL    HW256494   8.789  10.882   7.657  0.8978  0.8207 -1.4844
17666SOL     OW56495   3.586   6.831   3.425  0.1277 -0.3366  0.1604
17666SOL    HW156496   3.495   6.864   3.424 -0.0203 -0.6986  1.1604
17666SOL    HW256497   3.578   6.738   3.405  0.1854 -0.5675  1.1751
17667SOL     OW56498   1.912   4.867   5.044 -0.1907  0.1826  0.8059
17667SOL    HW156499   1.989   4.896   4.995 -0.3651  0.1072  0.4851
17667SOL    HW256500   1.875   4.948   5.080 -0.1946  0.2662  0.6153
17668SOL     OW56501  10.586   3.075   9.360 -0.4686  0.2332 -0.0293
17668SOL    HW156502  10.622   3.027   9.286  0.1291  0.6677 -0.0204
17668SOL    HW256503  10.547   3.153   9.321 -0.1679  0.4543  0.1103
17669SOL     OW56504   7.002   0.927   0.753 -0.1072 -0.1107  0.1034
17669SOL    HW156505   7.010   0.916   0.848 -0.0435  2.0346  0.3994
17669SOL    HW256506   6.994   1.021   0.741  3.7834  0.1503 -2.2839
17670SOL     OW56507   5.712   0.483   0.227 -0.0545 -0.5303 -0.7739
17670SOL    HW156508   5.653   0.502   0.300 -1.0368 -0.3645 -1.5892
17670SOL    HW256509   5.659   0.497   0.149  0.0841 -3.3983 -1.5159
17671SOL     OW56510   4.795   6.395   9.971 -0.1244 -0.2004 -0.3125
17671SOL    HW156511   4.849   6.474   9.960 -1.4098  0.8345  0.4051
17671SOL    HW256512   4.829   6.354  10.050 -1.1696  1.1903  0.9329
17672SOL     OW56513   2.711   8.382   9.495  0.2329 -0.2409  0.3171
17672SOL    HW156514   2.644   8.331   9.449 -0.5923 -0.9027  2.1441
17672SOL    HW256515   2.688   8.473   9.477 -0.7863 -0.4712  0.3691
17673SOL     OW56516   6.581   6.625   2.935  0.5042 -0.0414 -0.4476
17673SOL    HW156517   6.659   6.670   2.903  1.2053 -0.9906 -0.0969
17673SOL    HW256518   6.613   6.565   3.002 -0.3475 -1.4041 -1.2274
17674SOL     OW56519   6.342  10.809   2.336  0.5113 -0.5336 -0.5394
17674SOL    HW156520   6.337  10.888   2.281 -1.1714  0.7150  1.2564
17674SOL    HW256521   6.263  10.759   2.313  0.6819 -0.8384 -0.4563
17675SOL     OW56522   3.884   2.716  10.295  0.1122 -0.4852  0.7405
17675SOL    HW156523   3.947   2.686  10.229  0.5878  1.6482  0.1541
17675SOL    HW256524   3.840   2.636  10.324  1.6139 -1.7776 -0.3692
17676SOL     OW56525   1.623   5.952   3.891  0.4814  0.4500 -0.0419
17676SOL    HW156526   1.718   5.952   3.884  0.5973 -2.7537 -0.3318
17676SOL    HW256527   1.601   5.860   3.908 -2.5555  1.1098  0.1156
17677SOL     OW56528   4.140   3.924   8.966 -0.2684  0.6093 -0.4805
17677SOL    HW156529   4.224   3.960   8.938 -0.5946  1.1414 -0.7760
17677SOL    HW256530   4.131   3.953   9.057 -0.4943  1.2123 -0.6938
17678SOL     OW56531   5.884   7.816   8.557  0.4790  0.1181 -0.0129
17678SOL    HW156532   5.930   7.734   8.536  1.6865  0.6826  0.3296
17678SOL    HW256533   5.953   7.874   8.592 -0.6428  0.7255  1.2968
17679SOL     OW56534   8.701   8.315   7.184 -0.6538  0.1975 -0.3613
17679SOL    HW156535   8.766   8.372   7.225 -1.1472  1.2120 -0.9270
17679SOL    HW256536   8.622   8.324   7.238 -0.1814 -1.5114  0.6837
17680SOL     OW56537   7.171   8.777   8.620 -0.4737  0.3138 -0.2072
17680SOL    HW156538   7.076   8.773   8.633 -0.5501  0.5606 -0.6673
17680SOL    HW256539   7.183   8.753   8.528 -0.1110  0.5181 -0.2138
17681SOL     OW56540   4.910   4.589   2.785  0.0911 -0.5786  0.2059
17681SOL    HW156541   4.977   4.525   2.810  0.3592 -0.2146  0.4279
17681SOL    HW256542   4.951   4.641   2.716 -0.0303 -0.4815  0.2063
17682SOL     OW56543   0.295   2.828   0.507  0.2705  0.2546 -0.0973
17682SOL    HW156544   0.290   2.828   0.411  0.2494  0.4744 -0.0978
17682SOL    HW256545   0.355   2.757   0.528  0.2204  0.1588 -0.2712
17683SOL     OW56546   9.803   0.100   7.264  0.2854 -0.2247 -0.1958
17683SOL    HW156547   9.831   0.008   7.267  3.5574  0.6533  1.1675
17683SOL    HW256548   9.819   0.127   7.174  1.0710 -0.5593 -0.1680
17684SOL     OW56549   7.077   7.772   8.673  0.1631  0.1441 -0.6530
17684SOL    HW156550   7.019   7.797   8.601 -0.4213 -0.8511 -0.5534
17684SOL    HW256551   7.021   7.774   8.751  0.5979  0.4599 -0.3460
17685SOL     OW56552   1.841   3.385   7.400 -0.4485 -0.6641  0.6751
17685SOL    HW156553   1.890   3.440   7.338  0.7829 -3.1870 -0.7630
17685SOL    HW256554   1.750   3.389   7.368  0.1398 -1.8112 -1.3081
17686SOL     OW56555   4.311   8.465   4.516  0.6483 -0.2769 -0.9501
17686SOL    HW156556   4.296   8.470   4.610  1.6236 -0.1817 -0.7891
17686SOL    HW256557   4.223   8.464   4.478  0.1197  3.8707 -0.2804
17687SOL     OW56558   2.961   2.648   6.072  0.8464  0.1001 -0.4977
17687SOL    HW156559   2.879   2.690   6.098  0.1320 -0.8391 -1.1447
17687SOL    HW256560   2.982   2.687   5.987 -0.6375 -1.8348 -1.8470
17688SOL     OW56561   7.226   8.760   3.963 -0.0261 -0.4313 -0.4480
17688SOL    HW156562   7.193   8.825   3.901 -0.6743 -0.8173 -0.5145
17688SOL    HW256563   7.257   8.688   3.908  0.2142 -0.4031 -0.3531
17689SOL     OW56564   6.842   9.869   1.739  0.0095  0.0342 -0.2912
17689SOL    HW156565   6.913   9.923   1.703 -0.2693  0.3975 -0.2911
17689SOL    HW256566   6.882   9.826   1.815  1.3093 -2.4947 -2.2475
17690SOL     OW56567   7.107   2.962   8.996 -0.0027 -0.7405 -0.2015
17690SOL    HW156568   7.127   3.055   9.010  0.1331 -0.7313 -0.4598
17690SOL    HW256569   7.132   2.920   9.078  1.6112 -0.8145 -0.6998
17691SOL     OW56570   1.287   7.334   4.776 -0.3446 -0.2396  0.0364
17691SOL    HW156571   1.253   7.309   4.861  2.3653  0.4039  1.4271
17691SOL    HW256572   1.329   7.255   4.742  2.7841  0.6067  1.6030
17692SOL     OW56573   3.359   5.295   5.580  0.0577 -0.6075  0.0692
17692SOL    HW156574   3.349   5.266   5.490  0.5892  2.3998 -1.0645
17692SOL    HW256575   3.441   5.255   5.609  0.7505 -0.3042 -1.3724
17693SOL     OW56576   9.016   7.604   7.522 -0.4811  0.2023 -0.1597
17693SOL    HW156577   8.924   7.618   7.545 -0.0414  2.7635  0.2849
17693SOL    HW256578   9.021   7.511   7.501 -3.1864  0.0067 -0.2896
17694SOL     OW56579   2.460   7.067   2.760 -0.1874 -0.3437  0.6668
17694SOL    HW156580   2.458   7.068   2.856  1.6311 -0.5487  0.7314
17694SOL    HW256581   2.477   7.158   2.735  0.2108 -0.4464  0.5658
17695SOL     OW56582   4.252   9.598   4.639 -0.2171  0.2594  0.2435
17695SOL    HW156583   4.167   9.553   4.641  0.5355 -1.3359 -1.2077
17695SOL    HW256584   4.291   9.580   4.725 -0.9312  0.1756  0.5560
17696SOL     OW56585   9.799   1.893   1.020 -0.3813 -0.2913  0.0065
17696SOL    HW156586   9.864   1.826   0.999 -0.2216 -0.1228 -0.0335
17696SOL    HW256587   9.715   1.851   1.003 -0.2562  0.0971 -1.7425
17697SOL     OW56588  10.502   4.501   7.129 -0.1665  0.0615 -0.3034
17697SOL    HW156589  10.416   4.497   7.171 -0.3595  0.7058 -0.6259
17697SOL    HW256590  10.492   4.566   7.060 -0.1226 -1.6389 -1.9889
17698SOL     OW56591  10.772  10.458   0.157  0.3499 -0.3210 -0.2545
17698SOL    HW156592  10.782  10.391   0.224  0.4591  0.5126  0.5723
17698SOL    HW256593  10.838  10.524   0.179  1.0391 -0.4743 -1.7284
17699SOL     OW56594   7.783   0.938   7.547 -0.4413  0.2239 -0.1398
17699SOL    HW156595   7.834   0.898   7.618  2.1084  1.7223 -1.0088
17699SOL    HW256596   7.837   1.010   7.516 -3.3410  2.2564 -0.8936
17700SOL     OW56597   7.472   4.479   5.065  0.8556 -0.2054  0.4257
17700SOL    HW156598   7.413   4.419   5.111  0.3733  0.6768  0.9905
17700SOL    HW256599   7.416   4.524   5.002  0.7671  1.0828  1.3903
17701SOL     OW56600   7.486   5.682   3.886  0.8525  0.1994 -0.2355
17701SOL    HW156601   7.543   5.758   3.875  2.0921 -0.5838  0.4302
17701SOL    HW256602   7.545   5.607   3.873  0.2859 -0.6632  1.8119
17702SOL     OW56603   1.318  10.301   0.037  0.0303  0.1202  0.2605
17702SOL    HW156604   1.344  10.393   0.045  0.1007  0.0414  1.0641
17702SOL    HW256605   1.399  10.255   0.017  0.1313  0.1451  0.5997
17703SOL     OW56606   4.000   6.563   0.397 -0.5436  0.6339 -0.4282
17703SOL    HW156607   4.025   6.635   0.339  0.4041 -0.0546 -0.9015
17703SOL    HW256608   4.080   6.514   0.410 -1.0612 -0.0347  0.3341
17704SOL     OW56609   7.936   8.051   9.608  1.0644  0.3830  0.4481
17704SOL    HW156610   7.960   8.035   9.516 -1.2517  0.3220 -0.2221
17704SOL    HW256611   7.896   7.968   9.636  0.2764  0.9316  0.9703
17705SOL     OW56612   4.856   4.297   6.873  0.0614 -0.4294  0.0544
17705SOL    HW156613   4.827   4.227   6.932 -0.6564  0.3058  0.6087
17705SOL    HW256614   4.802   4.286   6.795 -0.7954  0.1046  0.5465
17706SOL     OW56615  10.948   1.704  10.761  0.1770  0.1081  0.1211
17706SOL    HW156616  11.032   1.716  10.717  0.2915 -0.9795  0.0258
17706SOL    HW256617  10.967   1.719  10.853  0.3554  0.3944  0.0406
17707SOL     OW56618   3.670   2.568   3.548 -0.2200 -0.1027  0.6231
17707SOL    HW156619   3.627   2.631   3.490 -1.5260 -0.7263  0.8710
17707SOL    HW256620   3.667   2.485   3.501  2.5719  0.1690 -0.2334
17708SOL     OW56621   5.819   1.025   2.447  0.4757  0.1982  0.1393
17708SOL    HW156622   5.888   1.085   2.419  0.6411 -0.3888 -0.7360
17708SOL    HW256623   5.823   0.953   2.385 -0.8602  0.1043  0.1367
17709SOL     OW56624  10.312   3.875   6.779 -0.3013 -0.1721  0.2770
17709SOL    HW156625  10.337   3.792   6.820 -0.5910 -0.3894  0.0196
17709SOL    HW256626  10.385   3.895   6.721  0.1038  0.1280  0.8789
17710SOL     OW56627   5.225   4.390   3.589 -0.7224  0.3606 -0.4346
17710SOL    HW156628   5.216   4.298   3.564  0.9866  0.1330 -0.3559
17710SOL    HW256629   5.298   4.421   3.536  1.8022  0.3762  2.7598
17711SOL     OW56630   7.061   1.410   3.234  0.4772  0.0405 -0.2599
17711SOL    HW156631   7.044   1.379   3.323 -0.2448 -0.8164 -0.6906
17711SOL    HW256632   6.974   1.418   3.194  0.7772  0.7026 -0.8039
17712SOL     OW56633   2.255   3.838   0.577 -0.3834  0.2588 -0.4746
17712SOL    HW156634   2.258   3.751   0.618  1.5785  1.1459  1.4614
17712SOL    HW256635   2.176   3.878   0.613 -1.2289 -0.6322 -1.2779
17713SOL     OW56636   1.847  10.487   7.974 -0.4038  0.1662 -0.2143
17713SOL    HW156637   1.891  10.503   7.890  0.1628 -1.7218 -0.3102
17713SOL    HW256638   1.790  10.563   7.985  1.3104  1.6677 -1.1054
17714SOL     OW56639   3.153   7.919   6.381 -0.1839  0.2491 -0.3574
17714SOL    HW156640   3.223   7.854   6.385 -1.4959 -1.2586 -0.8705
17714SOL    HW256641   3.154   7.949   6.290 -0.0026  0.4889 -0.2794
17715SOL     OW56642   1.188   7.266   8.788 -0.3598 -0.5938 -0.6558
17715SOL    HW156643   1.222   7.182   8.759  2.8772  0.0294  0.8310
17715SOL    HW256644   1.104   7.247   8.827 -1.2795 -2.5520 -3.3124
17716SOL     OW56645   9.274   8.959   8.571 -0.1266 -0.2526 -0.0631
17716SOL    HW156646   9.239   8.924   8.489  2.1556  0.7447 -1.5497
17716SOL    HW256647   9.360   8.919   8.579 -0.0976  0.0740  1.6077
17717SOL     OW56648   0.086   9.130  10.325  0.5652  0.2423  0.3100
17717SOL    HW156649   0.142   9.197  10.364  0.8651 -0.4755  1.1200
17717SOL    HW256650   0.142   9.054  10.314  0.3816  0.2913 -1.1735
17718SOL     OW56651   3.815  10.906   8.603 -0.2230 -0.1171 -0.4516
17718SOL    HW156652   3.797  11.000   8.611  0.6227  0.1591 -1.5232
17718SOL    HW256653   3.891  10.901   8.544 -0.5528 -1.4907 -0.7987
17719SOL     OW56654   0.462   9.207   2.072 -0.0033  0.2774  0.0307
17719SOL    HW156655   0.407   9.221   2.150  0.2365  1.9317 -0.0598
17719SOL    HW256656   0.544   9.173   2.107 -0.6735 -1.2185  0.2610
17720SOL     OW56657  10.170   2.675   8.533 -0.3534  0.4439 -0.1507
17720SOL    HW156658  10.266   2.681   8.533 -0.1094 -1.5970 -2.2613
17720SOL    HW256659  10.141   2.751   8.483  0.2915  0.3469 -0.6913
17721SOL     OW56660   4.036   1.441   6.145  0.2593 -0.0108 -0.0665
17721SOL    HW156661   4.117   1.462   6.191  0.8942  0.3379 -1.2985
17721SOL    HW256662   4.063   1.383   6.074 -0.2982  1.3587 -1.4562
17722SOL     OW56663   7.275   7.349   6.703  0.1464  0.3876  0.2164
17722SOL    HW156664   7.314   7.398   6.630  0.5703  0.5985  0.5736
17722SOL    HW256665   7.182   7.372   6.701 -0.0695 -0.5130 -0.9607
17723SOL     OW56666   2.819   4.649   9.253  0.1443 -0.9158  0.0612
17723SOL    HW156667   2.886   4.589   9.222  0.4923 -1.1373  1.1819
17723SOL    HW256668   2.849   4.676   9.340 -0.9868 -0.6643  0.3996
17724SOL     OW56669   2.779   5.074   1.288 -0.2390 -0.2386  0.0166
17724SOL    HW156670   2.808   5.099   1.200 -0.2795  0.9100  0.3129
17724SOL    HW256671   2.708   5.135   1.308  0.3671  0.1118  1.1872
17725SOL     OW56672   8.963   6.267   6.667 -0.4918 -0.8001 -0.2121
17725SOL    HW156673   8.921   6.278   6.582 -0.1045  0.3321 -0.2714
17725SOL    HW256674   8.899   6.218   6.719 -0.9241 -1.0914 -0.9976
17726SOL     OW56675   7.359   9.942   6.784  0.2083 -0.1021 -0.3233
17726SOL    HW156676   7.386   9.985   6.864 -0.8026 -1.8143  1.0093
17726SOL    HW256677   7.275   9.982   6.762 -0.6676 -1.2272  0.8392
17727SOL     OW56678  10.887   5.956   4.075 -0.1410 -0.1266  0.6335
17727SOL    HW156679  10.862   6.003   4.155 -0.5235  0.2291  0.3127
17727SOL    HW256680  10.857   6.013   4.004 -1.4529 -1.2781  0.2282
17728SOL     OW56681   1.432   2.893   5.418  0.6301 -0.2375  0.1491
17728SOL    HW156682   1.414   2.972   5.469 -0.0951  0.8158 -1.6405
17728SOL    HW256683   1.369   2.896   5.346  0.0726 -2.8580  0.3917
17729SOL     OW56684   6.159   0.302  10.625  0.5121 -0.1980  0.5378
17729SOL    HW156685   6.101   0.246  10.574  0.7270 -0.4100  0.5215
17729SOL    HW256686   6.107   0.379  10.645 -0.0238 -0.7043  1.1551
17730SOL     OW56687   2.359   1.743   2.269  0.2632 -0.2359  0.3862
17730SOL    HW156688   2.404   1.666   2.305  0.3491 -0.4933 -0.2675
17730SOL    HW256689   2.340   1.720   2.178  0.2925  0.5155  0.1827
17731SOL     OW56690   8.869   4.237   7.100 -0.7223 -0.0573 -0.5273
17731SOL    HW156691   8.861   4.193   7.016  0.1735 -1.7187  0.2226
17731SOL    HW256692   8.918   4.317   7.080  0.2916 -0.8689 -1.4638
17732SOL     OW56693   4.054   1.765   2.710 -0.2481  0.0228  0.4668
17732SOL    HW156694   4.131   1.730   2.665 -0.5501  1.2729 -1.1611
17732SOL    HW256695   3.979   1.726   2.664 -0.5732  0.5006  0.5808
17733SOL     OW56696   9.742   7.312   3.984  0.1516 -0.2126  0.1758
17733SOL    HW156697   9.751   7.250   4.056  0.7323  1.3977  1.5470
17733SOL    HW256698   9.817   7.293   3.927  1.9352  0.9389  1.9972
17734SOL     OW56699   0.589   2.405   9.916 -0.1710  0.2354 -0.2878
17734SOL    HW156700   0.550   2.323   9.887 -0.6714 -0.1269  1.3461
17734SOL    HW256701   0.570   2.467   9.845 -0.0104 -0.9696 -1.4139
17735SOL     OW56702   1.599   5.590   4.797  0.0092  0.1726  0.1225
17735SOL    HW156703   1.513   5.562   4.767 -0.8803  0.5242  2.1759
17735SOL    HW256704   1.612   5.676   4.757  0.1065 -0.5113 -1.3928
17736SOL     OW56705   1.135   7.431   3.665  0.1258 -0.5195  0.4915
17736SOL    HW156706   1.073   7.459   3.732  1.5864  0.6960  1.4121
17736SOL    HW256707   1.213   7.403   3.715  1.2728  0.4697 -0.6686
17737SOL     OW56708   9.779   8.032   3.247 -0.6206  0.1838 -0.4949
17737SOL    HW156709   9.789   8.002   3.338  0.1060  1.0621 -0.2790
17737SOL    HW256710   9.855   8.086   3.231 -0.5413 -0.2818 -1.7743
17738SOL     OW56711   3.795   7.365   6.774  0.2309 -0.1929  0.1478
17738SOL    HW156712   3.883   7.373   6.738  0.7182 -0.2399  1.2791
17738SOL    HW256713   3.773   7.454   6.803 -0.7431  0.1505 -1.5283
17739SOL     OW56714   2.006   1.525   8.753 -0.0060 -0.0596  0.2250
17739SOL    HW156715   1.971   1.444   8.791  1.4909  0.5322  3.2111
17739SOL    HW256716   2.006   1.587   8.826 -0.1391  2.3456 -1.7278
17740SOL     OW56717   0.311   3.230   1.446 -0.0721  0.0203 -0.3964
17740SOL    HW156718   0.303   3.214   1.540  0.1837  0.3941 -0.3091
17740SOL    HW256719   0.254   3.306   1.431 -0.1151 -0.0414 -0.5469
17741SOL     OW56720   4.061   6.290   9.971  1.0155 -0.0759  0.3120
17741SOL    HW156721   4.004   6.236  10.026  0.7984 -0.5681 -0.3934
17741SOL    HW256722   4.051   6.379  10.006 -1.4009  0.1313 -0.7569
17742SOL     OW56723   8.178   8.929   4.119  0.2655  0.2952  0.1617
17742SOL    HW156724   8.097   8.944   4.167  1.0874  0.5117  1.5392
17742SOL    HW256725   8.198   8.836   4.134 -1.4481 -0.7281 -3.0070
17743SOL     OW56726   8.168   0.913   6.805  0.4669 -0.0868 -1.0878
17743SOL    HW156727   8.233   0.888   6.870 -0.2897 -3.1488 -1.3622
17743SOL    HW256728   8.088   0.926   6.856  0.4427 -0.0263 -1.1408
17744SOL     OW56729   5.119   4.349   6.043 -0.1219  0.2910  0.0078
17744SOL    HW156730   5.096   4.270   6.092 -0.2084  2.0178  3.0003
17744SOL    HW256731   5.055   4.415   6.071  1.3375  2.0403 -0.5427
17745SOL     OW56732   5.110   9.184   4.759 -0.4844 -0.2312  0.1929
17745SOL    HW156733   5.199   9.169   4.792 -0.2604 -0.8763 -0.6700
17745SOL    HW256734   5.112   9.152   4.669 -1.4257  0.3263 -0.0437
17746SOL     OW56735   9.796   6.211   1.669 -0.0719  0.4710 -0.1391
17746SOL    HW156736   9.850   6.232   1.592 -1.3657  0.1128 -1.1756
17746SOL    HW256737   9.832   6.128   1.701  0.3319  0.5040 -0.4932
17747SOL     OW56738   0.723   7.239   8.176  0.6080  0.1656 -0.1873
17747SOL    HW156739   0.751   7.325   8.146  1.0276  0.2804  0.5068
17747SOL    HW256740   0.728   7.244   8.271  0.4947 -0.5791 -0.1358
17748SOL     OW56741   8.610   6.441   8.264 -0.0473 -0.0809 -0.1317
17748SOL    HW156742   8.560   6.487   8.331  1.1443  1.2764 -0.1139
17748SOL    HW256743   8.617   6.504   8.193 -0.1630 -1.0277 -1.0004
17749SOL     OW56744   3.278   7.791   1.737 -0.6817 -0.3253 -0.1687
17749SOL    HW156745   3.314   7.711   1.775 -1.0549 -0.2747  0.2962
17749SOL    HW256746   3.306   7.789   1.645  0.9779 -0.0054  0.2976
17750SOL     OW56747   3.241   5.526   2.893  0.7217  0.0979 -0.1310
17750SOL    HW156748   3.262   5.447   2.843  1.3454  0.9454 -1.2292
17750SOL    HW256749   3.322   5.577   2.894  0.3094  0.7582  0.5173
17751SOL     OW56750   9.860  10.423  10.872  0.1562  0.7779  0.3610
17751SOL    HW156751   9.797  10.352  10.860 -0.5589  1.7119 -1.9962
17751SOL    HW256752   9.935  10.382  10.916  0.6043 -1.9347 -2.5897
17752SOL     OW56753   6.094   8.300   4.330  0.0670  0.0700 -0.0074
17752SOL    HW156754   6.115   8.231   4.267 -0.8545 -2.0201  1.8424
17752SOL    HW256755   6.067   8.374   4.276  2.3068 -0.5071 -2.1192
17753SOL     OW56756   4.972   1.889   7.619  0.3434  0.6567 -0.5660
17753SOL    HW156757   4.935   1.977   7.610 -0.5929  0.1460 -2.0860
17753SOL    HW256758   4.934   1.855   7.700  0.8275  1.6906  0.1130
17754SOL     OW56759   1.058   8.301   4.413  0.1975 -0.6700 -0.2864
17754SOL    HW156760   1.150   8.290   4.440  0.2233  0.5156  0.1296
17754SOL    HW256761   1.014   8.337   4.490 -0.3085  0.1571 -0.9457
17755SOL     OW56762  10.037  10.668   7.066  0.1903  0.1477 -0.6195
17755SOL    HW156763  10.027  10.573   7.066  0.7750  0.0532 -2.3861
17755SOL    HW256764  10.093  10.687   6.991 -0.1969  1.9289 -0.5196
17756SOL     OW56765   4.907   2.214   0.796  0.1418 -0.0273  0.0721
17756SOL    HW156766   4.824   2.202   0.842  0.9206 -2.0329  1.1171
17756SOL    HW256767   4.888   2.191   0.705 -0.0960 -2.6349  0.6838
17757SOL     OW56768   9.904   7.509   2.166  0.4203  0.3877  0.5604
17757SOL    HW156769   9.950   7.451   2.106 -0.3136  0.4568 -0.0985
17757SOL    HW256770   9.842   7.556   2.110 -1.7650 -1.0341  1.6681
17758SOL     OW56771   9.315   7.012   5.296  0.6445 -0.5001  0.4155
17758SOL    HW156772   9.288   6.958   5.370  1.1977 -0.2644  0.7977
17758SOL    HW256773   9.262   7.091   5.304  1.8222  0.2366  1.5317
17759SOL     OW56774   3.404   7.122   7.274 -0.3322 -0.0282  0.3994
17759SOL    HW156775   3.425   7.209   7.308  0.0635 -0.2839  0.8315
17759SOL    HW256776   3.318   7.102   7.312  0.2362 -0.4342  1.5245
17760SOL     OW56777   0.663  10.349   9.866  0.0423 -0.4737 -0.0620
17760SOL    HW156778   0.647  10.286   9.796 -0.3114 -0.7925  0.3004
17760SOL    HW256779   0.756  10.369   9.860 -0.0146 -0.3993 -0.7050
17761SOL     OW56780   5.284   0.565   5.414 -0.0005 -0.4012  0.7922
17761SOL    HW156781   5.379   0.555   5.410  0.3115  1.9247  1.1298
17761SOL    HW256782   5.270   0.656   5.437 -2.3398 -0.7481  1.0286
17762SOL     OW56783   8.794   7.910   3.287 -0.0781  0.4386  0.0783
17762SOL    HW156784   8.769   8.001   3.303 -0.0537  0.4743 -0.0871
17762SOL    HW256785   8.720   7.872   3.241 -0.4120  0.1659  0.8137
17763SOL     OW56786   8.919   9.657  10.250  0.2619 -0.4360  0.2150
17763SOL    HW156787   8.980   9.604  10.301  0.5310 -0.3721 -0.0334
17763SOL    HW256788   8.892   9.727  10.310  0.1707 -0.6572  0.4330
17764SOL     OW56789   1.697   6.223   7.806 -0.1023 -0.3247 -0.1273
17764SOL    HW156790   1.667   6.176   7.884  0.1768  1.9688  1.4840
17764SOL    HW256791   1.781   6.261   7.832 -0.3544  1.1068 -1.2515
17765SOL     OW56792   3.462   6.132   0.530  0.6604 -0.1737  0.3336
17765SOL    HW156793   3.472   6.178   0.613 -0.6055  1.6539 -0.4503
17765SOL    HW256794   3.549   6.099   0.510  1.2300  0.3293  1.8214
17766SOL     OW56795   7.136   8.220   1.479  0.6389  0.1004  0.0884
17766SOL    HW156796   7.148   8.264   1.395 -0.1753 -0.2406 -0.2151
17766SOL    HW256797   7.091   8.284   1.534  1.7672  0.5647  0.4924
17767SOL     OW56798   4.214   8.361   8.300 -0.1375  0.0746 -0.0890
17767SOL    HW156799   4.308   8.377   8.304 -0.0981 -0.0410 -0.4771
17767SOL    HW256800   4.183   8.375   8.389  0.7303 -2.7974  0.8019
17768SOL     OW56801   0.609  10.487   1.143  0.4617  0.1103 -0.3227
17768SOL    HW156802   0.535  10.441   1.184  1.3156 -1.3091 -0.3299
17768SOL    HW256803   0.568  10.551   1.084 -0.7611  0.3648  0.7624
17769SOL     OW56804   5.784   5.383   8.924  0.4975  0.2316  0.3064
17769SOL    HW156805   5.853   5.359   8.862  0.5425 -0.6124  0.6623
17769SOL    HW256806   5.704   5.347   8.887  0.6493 -1.0167  1.1147
17770SOL     OW56807   8.565   6.184   7.004 -0.1267 -0.8734 -0.6485
17770SOL    HW156808   8.624   6.184   7.080  1.1811  1.7439 -1.5716
17770SOL    HW256809   8.478   6.195   7.042  0.5373  0.8080  0.5168
17771SOL     OW56810   0.948   4.695   3.239  0.9490  0.1888  0.5965
17771SOL    HW156811   0.963   4.725   3.149 -1.1598  0.0986  0.1524
17771SOL    HW256812   0.983   4.765   3.294  1.8011  0.4861 -0.3070
17772SOL     OW56813   8.080   5.667   7.348  0.5634 -0.2716  0.3560
17772SOL    HW156814   8.007   5.645   7.406 -0.7832  0.5660 -0.9614
17772SOL    HW256815   8.158   5.633   7.393 -0.7911 -2.6813  1.0273
17773SOL     OW56816   7.201   9.582   1.487  0.2265  0.2108 -0.4407
17773SOL    HW156817   7.125   9.541   1.444  0.8850 -1.7197  0.0944
17773SOL    HW256818   7.249   9.625   1.416 -1.0725  1.0112 -0.8684
17774SOL     OW56819   2.643   8.981   1.363 -0.3322  0.4293 -0.6240
17774SOL    HW156820   2.732   8.969   1.396  0.1735 -0.2535 -2.1639
17774SOL    HW256821   2.589   8.987   1.442  1.1721  1.7951  0.3681
17775SOL     OW56822   0.520  10.669   3.164 -0.1732 -0.1157  0.1912
17775SOL    HW156823   0.451  10.637   3.105 -1.4603 -0.3206  1.7496
17775SOL    HW256824   0.519  10.764   3.152 -0.2482 -0.1779 -0.3136
17776SOL     OW56825   8.058   7.255  10.109 -0.1618 -0.4300  0.0762
17776SOL    HW156826   8.139   7.245  10.058  1.1603  1.8901  1.5352
17776SOL    HW256827   8.050   7.350  10.122 -2.9022 -0.6402  0.3744
17777SOL     OW56828   8.600   9.653   9.801  0.1551 -0.1672 -0.4180
17777SOL    HW156829   8.646   9.688   9.877 -0.5189 -0.4505  0.1277
17777SOL    HW256830   8.666   9.602   9.754  0.0996 -1.7031  1.0809
17778SOL     OW56831   8.587   4.116  10.638  0.4791  0.8544  0.3208
17778SOL    HW156832   8.657   4.133  10.702  1.9240 -0.0701 -0.9455
17778SOL    HW256833   8.524   4.061  10.684 -0.6946  3.5857  2.2405
17779SOL     OW56834   0.995   8.250   0.460  0.3338  0.0644 -0.2406
17779SOL    HW156835   1.013   8.342   0.445  0.3882  0.1852  0.5492
17779SOL    HW256836   1.059   8.223   0.525 -1.9295  0.3833  2.3044
17780SOL     OW56837   6.698   6.378   0.207  0.0994  0.6223 -0.2204
17780SOL    HW156838   6.754   6.441   0.161 -0.5687  0.4820 -1.2434
17780SOL    HW256839   6.609   6.402   0.182 -0.2671  0.3072  0.7167
17781SOL     OW56840   7.053   3.855   8.242  1.1486 -0.0753 -0.4497
17781SOL    HW156841   7.016   3.797   8.176  1.1709 -0.1607 -0.3859
17781SOL    HW256842   7.147   3.856   8.223  1.2585 -0.6627  0.0237
17782SOL     OW56843   9.526   2.051   8.335  0.4838  0.5999  0.7389
17782SOL    HW156844   9.617   2.062   8.365  0.7995 -1.4498  0.6828
17782SOL    HW256845   9.484   2.002   8.406  0.0116 -0.3141 -0.1464
17783SOL     OW56846   1.310  10.685  10.440  0.0159  0.0795 -0.4921
17783SOL    HW156847   1.337  10.598  10.468 -1.0690  0.0230  0.4867
17783SOL    HW256848   1.342  10.743  10.509  0.3039  0.3974 -0.8896
17784SOL     OW56849   7.639   1.689   5.201  0.0639 -0.1888 -0.0443
17784SOL    HW156850   7.558   1.724   5.164  0.6273  2.0973  0.7322
17784SOL    HW256851   7.652   1.606   5.155 -2.0655 -0.0324 -1.0497
17785SOL     OW56852   1.080   6.660  10.735  0.0655  0.3767  0.4865
17785SOL    HW156853   0.986   6.649  10.749 -0.0153  1.6398  1.1860
17785SOL    HW256854   1.119   6.635  10.819  0.2851  0.4380  0.4020
17786SOL     OW56855   2.760   2.350   0.873 -0.2180  0.0119  0.2669
17786SOL    HW156856   2.744   2.385   0.960  1.0885  1.8347 -0.1719
17786SOL    HW256857   2.730   2.419   0.814  0.1821 -0.6230 -0.6974
17787SOL     OW56858   4.685   2.736   7.324  0.0152 -0.2013  0.1479
17787SOL    HW156859   4.731   2.699   7.249 -1.6424  0.3509 -1.2113
17787SOL    HW256860   4.728   2.820   7.340  0.9047 -0.6851  0.3777
17788SOL     OW56861   3.555   8.118   6.414  0.1030 -0.5075 -0.4844
17788SOL    HW156862   3.520   8.075   6.336  0.9101 -1.3290 -0.4059
17788SOL    HW256863   3.484   8.113   6.478 -1.6489  2.6575 -1.9729
17789SOL     OW56864   7.395  10.931  10.961 -0.0110 -0.5737 -0.7292
17789SOL    HW156865   7.377  10.952  10.869  0.9099 -0.6515 -0.9353
17789SOL    HW256866   7.475  10.879  10.959  1.4258  1.4366  0.2672
17790SOL     OW56867   1.600   9.148   2.698  0.1128  0.0658  0.0597
17790SOL    HW156868   1.654   9.176   2.624  0.1784 -0.3051 -0.0347
17790SOL    HW256869   1.660   9.150   2.773  0.6111 -1.5776 -0.2661
17791SOL     OW56870   2.719   6.257   2.213 -0.4337 -0.0212  0.7172
17791SOL    HW156871   2.760   6.343   2.226 -0.3739  0.3861 -1.6931
17791SOL    HW256872   2.631   6.266   2.249  0.2136  0.3920  2.2670
17792SOL     OW56873   9.843   2.023   4.327  0.0323  0.2905 -0.1145
17792SOL    HW156874   9.893   1.992   4.251 -2.0463  1.6180 -2.1907
17792SOL    HW256875   9.904   2.080   4.374  0.7781  1.1851 -2.0611
17793SOL     OW56876   1.416   6.918   2.619  0.1292  0.6731 -0.3062
17793SOL    HW156877   1.424   6.984   2.688 -0.2259  0.6257 -0.2154
17793SOL    HW256878   1.374   6.844   2.662 -1.0965  1.0440 -0.8274
17794SOL     OW56879   8.558   4.030   4.344  0.6502  0.0221 -0.6276
17794SOL    HW156880   8.521   3.950   4.306  1.4897 -0.0808 -1.2503
17794SOL    HW256881   8.631   4.052   4.287  0.4668  1.2062 -0.4216
17795SOL     OW56882   1.439   7.400   5.348 -0.2066 -0.0460  0.0791
17795SOL    HW156883   1.510   7.336   5.347 -1.8122 -1.9399 -0.1445
17795SOL    HW256884   1.400   7.394   5.261  0.1382  1.9461 -0.2650
17796SOL     OW56885  10.282   5.841   4.108 -0.6121 -0.6436  0.2921
17796SOL    HW156886  10.303   5.878   4.022 -0.4607  1.2482  1.1176
17796SOL    HW256887  10.356   5.784   4.129  0.3283  0.4642  0.0525
17797SOL     OW56888   0.995   6.642   1.587 -0.5483  0.0277  0.4251
17797SOL    HW156889   1.006   6.668   1.679 -2.7483  2.4565  0.1472
17797SOL    HW256890   1.019   6.550   1.584  0.2012  0.0498  3.3017
17798SOL     OW56891  10.682   2.527   4.300  0.2378 -0.0302  0.0466
17798SOL    HW156892  10.613   2.539   4.234 -0.2873 -0.1315  0.5632
17798SOL    HW256893  10.663   2.440   4.337  0.8473 -0.2010 -0.0390
17799SOL     OW56894   7.631   6.918   5.122  0.4329  0.3724  0.0815
17799SOL    HW156895   7.570   6.988   5.098 -1.1025 -0.5452  1.1486
17799SOL    HW256896   7.651   6.875   5.039 -1.4618 -0.1358 -0.1636
17800SOL     OW56897   9.258  10.639  10.126  0.0505  0.4017  0.0834
17800SOL    HW156898   9.241  10.662  10.034 -1.4051  0.2595  0.3000
17800SOL    HW256899   9.195  10.691  10.175 -1.2593 -1.7310  0.7967
17801SOL     OW56900  10.334   5.033   9.835 -0.2682  0.3604  0.5990
17801SOL    HW156901  10.322   4.941   9.812  0.5188  0.4381 -0.1891
17801SOL    HW256902  10.351   5.076   9.751 -0.9753  1.2930  0.9141
17802SOL     OW56903   8.926  10.263   4.414  0.2757  0.2640  0.3926
17802SOL    HW156904   8.858  10.254   4.347 -0.5873 -0.0674  1.2948
17802SOL    HW256905   8.903  10.198   4.480  2.0342 -0.5761  0.2623
17803SOL     OW56906   0.642   6.268  10.420 -0.1208 -0.1416 -0.2016
17803SOL    HW156907   0.556   6.309  10.419  0.5462  1.2934  0.1551
17803SOL    HW256908   0.651   6.231  10.332  0.4885  3.1709 -1.6651
17804SOL     OW56909   3.204   6.346   2.255  0.2920 -0.8377  0.0856
17804SOL    HW156910   3.181   6.432   2.221  1.6973 -0.2241  0.6034
17804SOL    HW256911   3.160   6.284   2.197  0.9403  0.2004 -1.5929
17805SOL     OW56912   4.109  10.440   3.419  0.1371 -0.3221 -0.1408
17805SOL    HW156913   4.145  10.375   3.479  0.2192  0.0116  0.1732
17805SOL    HW256914   4.035  10.478   3.466  0.8563  0.7051  0.2033
17806SOL     OW56915  10.003   8.751  10.104 -0.0535 -0.5557  0.2537
17806SOL    HW156916  10.077   8.807  10.127 -0.0359 -0.2998 -0.3872
17806SOL    HW256917   9.948   8.750  10.182  1.0361 -1.4454  1.0331
17807SOL     OW56918   4.780   4.177  10.216  0.4961  0.3495 -0.0711
17807SOL    HW156919   4.830   4.229  10.278  2.1933 -2.2376  0.9073
17807SOL    HW256920   4.713   4.134  10.270  2.2095 -2.2021  0.2425
17808SOL     OW56921   5.140   4.524   4.614  0.3398 -0.1554  0.4752
17808SOL    HW156922   5.133   4.445   4.667  0.4574 -1.2385 -1.0516
17808SOL    HW256923   5.235   4.535   4.600  0.2590 -0.7836 -0.7449
17809SOL     OW56924   8.158   4.322  10.300 -0.1157 -0.4563 -0.1848
17809SOL    HW156925   8.210   4.245  10.325 -1.7209 -1.4827  0.1798
17809SOL    HW256926   8.125   4.300  10.212  1.3706  0.9111 -1.1295
17810SOL     OW56927   7.077   3.243   9.021 -0.2522  0.4359 -0.3977
17810SOL    HW156928   7.123   3.313   9.069 -0.6800 -0.1523  0.9288
17810SOL    HW256929   7.001   3.287   8.982 -0.2632  0.8122  0.0314
17811SOL     OW56930   2.185   2.457   1.027  0.1443 -0.1192 -0.3264
17811SOL    HW156931   2.231   2.484   0.947 -0.0486 -1.0470 -0.7649
17811SOL    HW256932   2.254   2.426   1.085  0.3464  1.0616  0.1014
17812SOL     OW56933   9.701   0.474   9.545 -0.4894  0.6145  0.0506
17812SOL    HW156934   9.621   0.443   9.586 -0.8467  1.3861 -0.0590
17812SOL    HW256935   9.767   0.468   9.614 -0.3224 -1.2510 -0.2153
17813SOL     OW56936   5.282   3.467   2.229 -1.0561 -0.7308 -0.2053
17813SOL    HW156937   5.240   3.553   2.235  2.0394  0.8746  0.9873
17813SOL    HW256938   5.259   3.422   2.310  2.2539  1.6840  2.3806
17814SOL     OW56939   7.906   5.465   1.389  0.4856  0.7166 -0.3056
17814SOL    HW156940   7.934   5.455   1.480  2.5790  0.2915 -0.9358
17814SOL    HW256941   7.847   5.540   1.390 -0.9009 -0.3146  1.6542
17815SOL     OW56942   3.999   1.035   2.428 -0.0191  0.3199  0.8823
17815SOL    HW156943   4.063   1.091   2.474  1.1343  0.4107 -0.7509
17815SOL    HW256944   3.926   1.028   2.489  0.7770  1.7348  2.0783
17816SOL     OW56945   0.047   7.777   1.948 -0.2258  0.2313  0.3152
17816SOL    HW156946   0.048   7.843   1.879 -0.7215 -0.5201 -0.4393
17816SOL    HW256947   0.139   7.763   1.970 -0.1228  1.2919  0.6176
17817SOL     OW56948   2.448   5.265   8.646 -0.6235 -0.1258 -0.1260
17817SOL    HW156949   2.470   5.315   8.724  1.4021  0.9213 -1.2712
17817SOL    HW256950   2.411   5.183   8.679 -0.0908  0.3893  1.8896
17818SOL     OW56951   5.062   3.702   9.706  0.0061  0.5378  0.0774
17818SOL    HW156952   5.097   3.791   9.710  0.8062  0.2591 -0.4680
17818SOL    HW256953   5.019   3.697   9.620  1.0953  0.0031 -0.4513
17819SOL     OW56954   6.897  10.405   1.684 -0.3681 -0.1002 -0.1721
17819SOL    HW156955   6.893  10.361   1.769  0.2035  2.6909  1.3956
17819SOL    HW256956   6.808  10.438   1.670  0.2259  2.1166  0.9249
17820SOL     OW56957   7.309   3.854   1.162 -0.2736 -0.3750  0.5871
17820SOL    HW156958   7.367   3.930   1.171  0.2013 -0.7700  0.9230
17820SOL    HW256959   7.221   3.888   1.181 -0.4500  0.6561 -1.7536
17821SOL     OW56960  10.811   2.127   9.386  0.1103  0.4770 -0.5254
17821SOL    HW156961  10.768   2.051   9.347  0.8342 -0.0784 -0.2672
17821SOL    HW256962  10.854   2.092   9.465 -3.0184  1.9095  2.0508
17822SOL     OW56963   5.024   9.716   0.568  0.2888  0.2617  0.2506
17822SOL    HW156964   4.975   9.707   0.649  0.3481  0.0845  0.2685
17822SOL    HW256965   4.961   9.751   0.505 -0.2871 -1.3646 -0.1234
17823SOL     OW56966  10.159   6.242   3.671  0.4998 -0.2785 -0.2366
17823SOL    HW156967  10.252   6.220   3.661  0.7148  0.1047  0.7427
17823SOL    HW256968  10.160   6.329   3.712 -0.2934 -0.3290 -0.1012
17824SOL     OW56969   3.471   1.737   9.689 -0.3058 -0.0728 -0.3200
17824SOL    HW156970   3.405   1.714   9.754  1.1174  0.9722  1.6061
17824SOL    HW256971   3.434   1.811   9.641 -1.2704 -0.6920 -0.5394
17825SOL     OW56972   1.501   4.348   3.973 -0.1550  0.4016  0.2991
17825SOL    HW156973   1.583   4.343   3.924 -0.2364  1.5742  0.0242
17825SOL    HW256974   1.523   4.316   4.060  0.1358 -1.1253 -0.3022
17826SOL     OW56975   3.729   5.404   4.110 -0.3358 -0.1214  0.5154
17826SOL    HW156976   3.750   5.440   4.196 -0.7521 -0.4802  0.7707
17826SOL    HW256977   3.677   5.472   4.068 -0.0780  0.0812  0.5183
17827SOL     OW56978   8.270   1.958   5.675  0.0794 -0.1108  0.6036
17827SOL    HW156979   8.227   1.905   5.743 -1.0831  0.2477  0.1722
17827SOL    HW256980   8.266   2.048   5.708 -0.0357  0.0015  0.2875
17828SOL     OW56981   0.373   1.982   4.541 -0.6826  0.0224 -0.4331
17828SOL    HW156982   0.453   2.015   4.500 -0.8776 -0.5640 -1.3267
17828SOL    HW256983   0.303   2.010   4.482 -1.1936  0.8849  0.5544
17829SOL     OW56984   6.766   4.262   5.625  0.2279 -0.0514 -0.2807
17829SOL    HW156985   6.809   4.176   5.627  1.7864  0.6949 -0.2973
17829SOL    HW256986   6.692   4.250   5.565 -0.0551 -1.5721  0.3108
17830SOL     OW56987   8.000   2.355   1.233 -0.1951  0.8358  0.0700
17830SOL    HW156988   7.937   2.406   1.284 -0.3413  0.4550  0.2697
17830SOL    HW256989   8.077   2.349   1.290 -0.3964  0.3204  0.2917
17831SOL     OW56990  10.032   1.867   7.216 -0.4635 -0.2095 -0.4818
17831SOL    HW156991  10.124   1.854   7.236 -0.5123 -0.7001 -0.5790
17831SOL    HW256992  10.019   1.827   7.130 -0.4343  1.1721 -1.1725
17832SOL     OW56993   6.102   2.675  10.534  0.2419  0.7151  0.0001
17832SOL    HW156994   6.078   2.740  10.468  0.0954 -0.3535 -1.0361
17832SOL    HW256995   6.128   2.598  10.484 -3.8001 -1.6544  1.0197
17833SOL     OW56996   7.618   5.589   6.018  0.4778  0.5640 -0.3423
17833SOL    HW156997   7.572   5.574   6.101 -0.8122  0.4832 -1.0575
17833SOL    HW256998   7.645   5.681   6.021  1.1269  0.3539  0.4961
17834SOL     OW56999   2.640   1.756   4.060 -0.1162 -0.3516 -0.0691
17834SOL    HW157000   2.566   1.798   4.104  0.4364 -0.5872  1.1370
17834SOL    HW257001   2.695   1.723   4.132  1.0467 -0.3745 -0.9387
17835SOL     OW57002   6.234  10.855   1.549 -0.2721  0.4506 -0.1525
17835SOL    HW157003   6.227  10.917   1.622 -0.2591 -0.1300  0.3533
17835SOL    HW257004   6.172  10.887   1.484 -0.5119  0.7978  0.2437
17836SOL     OW57005   8.563   3.805   7.127 -0.4403 -0.1709  0.3938
17836SOL    HW157006   8.646   3.769   7.095  0.7220  1.1685  1.7345
17836SOL    HW257007   8.555   3.890   7.083 -1.9863 -0.9907 -0.9965
17837SOL     OW57008   6.677   4.359   8.008 -0.8262  0.5715 -0.0653
17837SOL    HW157009   6.644   4.375   7.920  0.3856  0.6913 -0.5044
17837SOL    HW257010   6.750   4.419   8.019  0.6357 -1.1553  0.0794
17838SOL     OW57011   1.666   4.497   9.766  0.2922 -0.1512  0.1245
17838SOL    HW157012   1.603   4.569   9.754 -0.2043 -0.7802 -1.2152
17838SOL    HW257013   1.682   4.464   9.678 -1.6680 -3.5370  0.8758
17839SOL     OW57014   2.018   4.417   6.830 -0.0657 -0.0496 -0.8892
17839SOL    HW157015   1.965   4.494   6.853 -0.7565 -1.3398  2.4400
17839SOL    HW257016   2.097   4.453   6.791 -1.0473  2.2462 -0.9251
17840SOL     OW57017   4.545   6.130   2.499 -0.0819 -0.0821 -0.5715
17840SOL    HW157018   4.622   6.073   2.504  0.5275  0.8079  0.4316
17840SOL    HW257019   4.474   6.077   2.536  0.5924 -0.0335  0.8507
17841SOL     OW57020   1.518   6.235   4.958 -0.3931 -0.6480 -0.3789
17841SOL    HW157021   1.429   6.209   4.981 -0.1444 -0.1230  1.3134
17841SOL    HW257022   1.508   6.318   4.912 -0.6998  0.6135  1.8284
17842SOL     OW57023   4.853   7.034  10.886 -0.6275  0.1191  0.3865
17842SOL    HW157024   4.874   7.088  10.811 -0.4233  1.3781  1.3203
17842SOL    HW257025   4.928   6.974  10.895 -0.0677  0.8068  0.3316
17843SOL     OW57026   9.936   6.007   1.089  0.0927  0.3108 -0.1124
17843SOL    HW157027  10.004   5.949   1.124 -1.6121 -0.9889  1.1599
17843SOL    HW257028   9.980   6.093   1.084  1.3857 -0.0978  2.2697
17844SOL     OW57029   7.994   8.889   1.051 -0.0373 -0.0206  0.0301
17844SOL    HW157030   7.995   8.976   1.012 -2.3050 -0.0305 -0.2208
17844SOL    HW257031   7.951   8.834   0.985 -0.0946 -0.9764  0.8359
17845SOL     OW57032   5.432   6.363   0.208  0.4806 -0.4248 -0.1485
17845SOL    HW157033   5.456   6.397   0.294 -1.2335 -0.4071  0.3494
17845SOL    HW257034   5.495   6.292   0.192  0.5512 -0.7199  1.3021
17846SOL     OW57035   3.197   4.430   0.018  0.2843 -0.8779  0.9733
17846SOL    HW157036   3.174   4.399   0.106  1.7340 -1.9151  1.0122
17846SOL    HW257037   3.265   4.370  -0.012  0.6178  0.1422 -0.4124
17847SOL     OW57038   6.431   7.870   1.078 -0.1545 -0.2044  0.0916
17847SOL    HW157039   6.430   7.884   0.984 -2.7576 -2.6173 -0.3820
17847SOL    HW257040   6.448   7.956   1.115  0.7320  0.8450 -2.5499
17848SOL     OW57041   5.200  10.501   5.209 -0.1998 -0.1248 -0.5378
17848SOL    HW157042   5.147  10.508   5.130 -1.3997 -2.4525  0.0010
17848SOL    HW257043   5.139  10.517   5.281  0.5828  0.5478  0.0031
17849SOL     OW57044   5.401   4.556   4.514  0.1518 -0.3526  0.2532
17849SOL    HW157045   5.440   4.523   4.433 -1.6128  1.2491 -1.3428
17849SOL    HW257046   5.431   4.647   4.519 -0.3805 -0.2117  0.9672
17850SOL     OW57047  10.502   5.954   6.839 -0.2728 -0.6266  0.0333
17850SOL    HW157048  10.458   5.938   6.922  0.2598  1.5606  0.7972
17850SOL    HW257049  10.437   6.000   6.785  0.0661 -0.1535  0.0240
17851SOL     OW57050   6.174   7.855   9.629 -0.4131  0.2622  0.2090
17851SOL    HW157051   6.221   7.938   9.617 -0.0447  0.0227 -0.0245
17851SOL    HW257052   6.083   7.876   9.609 -0.2833  0.5568 -0.0910
17852SOL     OW57053   1.222   6.773   3.408 -0.1176 -0.1796  0.3290
17852SOL    HW157054   1.260   6.860   3.418 -2.9024  1.2976 -0.8867
17852SOL    HW257055   1.164   6.763   3.484 -2.2026  0.4752 -1.0713
17853SOL     OW57056   8.143   5.132   9.447  0.3063  0.6144 -0.1210
17853SOL    HW157057   8.238   5.132   9.445  0.3025  0.4820 -0.6729
17853SOL    HW257058   8.117   5.133   9.354 -0.2040 -1.1753 -0.0419
17854SOL     OW57059   2.452  10.815   6.843 -0.4441 -0.0273 -0.2329
17854SOL    HW157060   2.540  10.851   6.857 -0.6166  0.0867  0.6573
17854SOL    HW257061   2.428  10.777   6.928 -0.7922 -1.0955 -0.7890
17855SOL     OW57062   8.879   1.996   4.477 -0.0354  0.2356 -0.2689
17855SOL    HW157063   8.935   1.925   4.507 -1.0070  0.0821  1.3125
17855SOL    HW257064   8.935   2.074   4.479  0.4408 -0.1135  0.1412
17856SOL     OW57065   0.554   9.635   2.051  0.8330 -0.0054 -0.1302
17856SOL    HW157066   0.474   9.617   2.002  1.3947 -1.3037 -0.6317
17856SOL    HW257067   0.538   9.718   2.095 -1.2729 -0.8502  0.8024
17857SOL     OW57068   1.974   9.388   2.595  0.1035 -0.3286 -0.3384
17857SOL    HW157069   1.985   9.479   2.567  0.2272  0.4557  1.9894
17857SOL    HW257070   2.059   9.346   2.577  0.5032  0.4045 -0.1993
17858SOL     OW57071   9.488   5.146   6.159 -0.0431  0.2973  0.1711
17858SOL    HW157072   9.429   5.142   6.234  0.6935  0.3659  0.7677
17858SOL    HW257073   9.511   5.055   6.142  1.2484  0.3907  1.2323
17859SOL     OW57074   0.663   6.433   3.279 -0.7786 -0.2347  0.7733
17859SOL    HW157075   0.604   6.493   3.233 -1.2395 -0.5204  0.9824
17859SOL    HW257076   0.693   6.373   3.212  2.0256  1.9483 -0.1077
17860SOL     OW57077   9.528   1.813   6.455 -0.1074  0.8131 -0.4948
17860SOL    HW157078   9.587   1.772   6.518  0.7199 -0.1649 -1.8283
17860SOL    HW257079   9.446   1.825   6.503  1.1194  2.2096  1.4090
17861SOL     OW57080   4.668  10.769   7.723  0.5681 -0.1015  0.2903
17861SOL    HW157081   4.608  10.722   7.781  1.0706 -0.5547  0.4603
17861SOL    HW257082   4.615  10.838   7.683 -0.1581 -0.7576  0.1109
17862SOL     OW57083   5.709   3.675   0.263  0.2448 -0.3876  0.2786
17862SOL    HW157084   5.743   3.742   0.204 -1.9175 -1.0303 -1.8896
17862SOL    HW257085   5.726   3.592   0.217 -0.7168 -0.9804  0.9409
17863SOL     OW57086   8.253   4.190   7.911 -0.4073 -0.5546  0.1911
17863SOL    HW157087   8.263   4.252   7.839  0.8241 -1.1720 -0.1919
17863SOL    HW257088   8.306   4.115   7.885 -1.6181 -1.6389  0.7966
17864SOL     OW57089   4.559   3.591   9.363 -0.6978  0.4636 -0.1872
17864SOL    HW157090   4.583   3.620   9.451  0.9024  0.4143 -0.5920
17864SOL    HW257091   4.469   3.559   9.373 -0.8290  1.1740  1.2546
17865SOL     OW57092   7.839   2.846   0.742 -0.0346  0.1424  0.0147
17865SOL    HW157093   7.824   2.930   0.697 -1.4560 -0.3099 -0.4274
17865SOL    HW257094   7.912   2.863   0.801  1.2733  1.0500 -1.7458
17866SOL     OW57095   2.452   0.206   2.941 -0.0156 -0.0203  0.0996
17866SOL    HW157096   2.531   0.260   2.946  0.4767 -0.6333 -0.7421
17866SOL    HW257097   2.451   0.175   2.850 -2.0626  1.2406 -0.3980
17867SOL     OW57098   6.770   8.841   1.885  0.2637  0.3738 -0.4348
17867SOL    HW157099   6.782   8.784   1.960  1.3136  0.8738 -0.2061
17867SOL    HW257100   6.793   8.928   1.916  0.3547  0.6502 -1.2354
17868SOL     OW57101   7.201   2.672   4.040  0.0012 -0.6137 -0.4291
17868SOL    HW157102   7.148   2.649   4.117  0.0310  0.7381  0.0271
17868SOL    HW257103   7.263   2.737   4.073  1.7397 -1.8971 -1.0319
17869SOL     OW57104  10.462   3.652   8.138  0.3817 -1.2885  0.2126
17869SOL    HW157105  10.382   3.687   8.098  0.9376 -1.2716 -0.9197
17869SOL    HW257106  10.449   3.557   8.139  0.1855 -1.2619  0.4147
17870SOL     OW57107   5.731   5.545   8.650  0.1800 -0.1656  0.0559
17870SOL    HW157108   5.738   5.608   8.722 -0.8951  0.2517 -0.1819
17870SOL    HW257109   5.815   5.549   8.606  0.9538 -0.5928  1.4173
17871SOL     OW57110   0.212   8.873   2.321  0.1444  0.8182  0.1593
17871SOL    HW157111   0.296   8.886   2.276  0.3853  0.0452  0.3625
17871SOL    HW257112   0.226   8.907   2.409  0.0664  1.1914  0.0304
17872SOL     OW57113   2.743   3.094   8.938 -0.5828 -0.2582  0.2707
17872SOL    HW157114   2.817   3.104   8.998 -0.6077  1.0881  0.1083
17872SOL    HW257115   2.717   3.184   8.917 -2.9387 -0.6876  1.1242
17873SOL     OW57116   3.574   1.023   6.371 -0.0578 -0.1282  0.3616
17873SOL    HW157117   3.660   1.053   6.341 -1.1478  1.3750 -1.4510
17873SOL    HW257118   3.575   1.037   6.466  1.7200 -0.2437  0.3895
17874SOL     OW57119   6.628   2.033   5.093  0.6788 -0.0077  0.1624
17874SOL    HW157120   6.689   2.104   5.073  1.1735 -0.1083  1.2277
17874SOL    HW257121   6.565   2.071   5.154  0.4552 -0.2630  0.0950
17875SOL     OW57122  10.309   3.621   4.582  0.2741  0.1011 -0.3827
17875SOL    HW157123  10.337   3.552   4.641  0.5365  0.1077 -0.4969
17875SOL    HW257124  10.253   3.577   4.517 -2.9546  0.5987  1.8109
17876SOL     OW57125   8.465   0.502   1.237 -0.2759 -0.6997  0.1764
17876SOL    HW157126   8.514   0.425   1.266 -2.1389 -1.3016  2.0376
17876SOL    HW257127   8.529   0.573   1.236  1.1551 -1.9459 -0.0928
17877SOL     OW57128   6.085   1.824   2.848 -0.1133  0.1012  0.0794
17877SOL    HW157129   6.104   1.835   2.942 -1.1073 -1.3890  0.5045
17877SOL    HW257130   6.080   1.729   2.837 -2.8407  0.2834 -0.8561
17878SOL     OW57131   6.184   1.253   0.359 -0.0218  0.2739 -0.8268
17878SOL    HW157132   6.277   1.232   0.349 -0.0462  0.1454 -0.7896
17878SOL    HW257133   6.176   1.285   0.448  0.6427  3.7896 -1.8980
17879SOL     OW57134   0.423   5.807   8.865  0.2022 -0.2296 -0.3525
17879SOL    HW157135   0.404   5.732   8.808  0.0098  0.1964 -0.8525
17879SOL    HW257136   0.488   5.858   8.817  0.8612 -0.4422  0.3016
17880SOL     OW57137   0.514  10.780   0.014 -0.0543 -0.1984 -0.0562
17880SOL    HW157138   0.532  10.721   0.088 -0.3513  0.0241  0.1985
17880SOL    HW257139   0.451  10.732  -0.040  0.1624 -0.3619 -0.1647
17881SOL     OW57140   8.167   5.461   5.891 -0.3944 -0.8971 -0.0220
17881SOL    HW157141   8.082   5.420   5.912 -1.3676  1.0736  0.0674
17881SOL    HW257142   8.152   5.505   5.808  0.0345  0.7608  0.7321
17882SOL     OW57143   9.391   6.103   8.878 -0.0900  0.6577 -0.6138
17882SOL    HW157144   9.325   6.049   8.921  0.4062  0.2603 -0.3452
17882SOL    HW257145   9.423   6.048   8.806  1.5912 -0.0981  0.6364
17883SOL     OW57146   1.523   6.732   3.016 -0.1936 -0.6408  0.3298
17883SOL    HW157147   1.448   6.716   3.074  0.5543 -1.1833  1.1628
17883SOL    HW257148   1.537   6.827   3.022 -1.5532 -0.3272 -0.7886
17884SOL     OW57149   7.173   4.194   2.063 -0.3715 -0.9940  0.0862
17884SOL    HW157150   7.235   4.133   2.024  1.2184 -0.5614  1.7898
17884SOL    HW257151   7.130   4.237   1.989  1.4123 -1.2750 -1.1474
17885SOL     OW57152  10.742   6.601   2.285  0.3232 -0.6836  0.4846
17885SOL    HW157153  10.796   6.542   2.337  2.3753  0.8823  0.2540
17885SOL    HW257154  10.747   6.686   2.330 -0.3477 -0.0176 -0.6187
17886SOL     OW57155   1.446   8.458   4.252  0.2605 -0.3070  0.1124
17886SOL    HW157156   1.392   8.536   4.261  2.6286  1.5554 -0.8354
17886SOL    HW257157   1.462   8.429   4.342  0.7542  1.3811  0.6037
17887SOL     OW57158   7.424   9.850   0.592 -0.1951  0.2528  0.7155
17887SOL    HW157159   7.340   9.890   0.614 -0.8148 -0.1901 -0.7513
17887SOL    HW257160   7.403   9.759   0.571  0.5850  0.2374 -0.0457
17888SOL     OW57161   5.125  10.987   2.751  0.2010 -0.0879  0.0554
17888SOL    HW157162   5.081  11.073   2.751  1.7647  0.7870  2.4027
17888SOL    HW257163   5.217  11.007   2.737  0.6076 -1.3902  0.7356
17889SOL     OW57164   8.319  10.488   8.512 -0.0310  0.1468  0.7377
17889SOL    HW157165   8.249  10.534   8.465  0.9271 -1.4470 -2.6107
17889SOL    HW257166   8.391  10.551   8.515 -1.1864  1.4784  3.3964
17890SOL     OW57167  10.235   8.102   6.052 -0.7586 -0.0449  0.1821
17890SOL    HW157168  10.307   8.041   6.064  0.9131  1.9571  0.8628
17890SOL    HW257169  10.179   8.087   6.129 -1.7502 -2.3598 -0.8883
17891SOL     OW57170   2.778   7.873   7.865 -0.1375  0.2187 -0.4057
17891SOL    HW157171   2.740   7.884   7.952 -0.7397  0.6672 -0.7246
17891SOL    HW257172   2.703   7.851   7.809  0.0874  1.0050 -1.0175
17892SOL     OW57173   5.187   2.311   4.469 -0.2133 -0.6841  0.2004
17892SOL    HW157174   5.251   2.380   4.488 -0.3898 -0.6347  0.6252
17892SOL    HW257175   5.201   2.290   4.377 -0.4123  0.1797 -0.0349
17893SOL     OW57176   4.670   7.627   3.514  0.4242 -0.0546 -0.5401
17893SOL    HW157177   4.668   7.629   3.418 -0.1445  1.5731 -0.5286
17893SOL    HW257178   4.763   7.636   3.536  0.3667  2.3682 -0.9736
17894SOL     OW57179   0.173   9.451   9.323 -0.1229  0.0486 -0.2212
17894SOL    HW157180   0.230   9.423   9.395  0.9506  1.0718 -0.6454
17894SOL    HW257181   0.194   9.543   9.310  1.0577 -0.5255 -3.0241
17895SOL     OW57182   2.104   5.190  10.834 -0.4182 -0.1572 -0.2120
17895SOL    HW157183   2.013   5.161  10.837 -0.5423  0.1006 -1.2378
17895SOL    HW257184   2.100   5.284  10.820 -0.0277 -0.4029 -2.3573
17896SOL     OW57185  10.426   4.362   0.503  0.4767 -0.5039  0.4643
17896SOL    HW157186  10.508   4.351   0.456 -0.4975 -1.7332 -1.0441
17896SOL    HW257187  10.411   4.278   0.546 -0.1390 -0.4124  0.4412
17897SOL     OW57188   2.935   3.458   4.746 -0.0241  0.1621 -0.5166
17897SOL    HW157189   2.877   3.400   4.796 -0.5122  1.8740  1.0221
17897SOL    HW257190   2.975   3.402   4.680 -0.7020 -1.8362  0.7049
17898SOL     OW57191   1.226   0.583   4.058  0.3468  0.4549  0.2838
17898SOL    HW157192   1.243   0.627   3.975  0.9596  0.6616  0.5123
17898SOL    HW257193   1.165   0.640   4.104  0.4662  0.6367  0.2178
17899SOL     OW57194   0.745   4.377   6.252  0.7095 -0.8199  0.4226
17899SOL    HW157195   0.757   4.400   6.344 -1.1716  0.6873  0.3395
17899SOL    HW257196   0.742   4.461   6.206 -1.1059 -1.4155 -0.6300
17900SOL     OW57197   0.549   3.965   7.351 -0.4349 -0.5650 -0.1031
17900SOL    HW157198   0.563   4.055   7.321 -0.8275 -0.3236  0.4223
17900SOL    HW257199   0.518   3.918   7.274 -1.3866  0.0351 -0.1067
17901SOL     OW57200   6.116   6.630   7.039 -0.2510 -0.3434  0.4766
17901SOL    HW157201   6.179   6.559   7.032  0.8080  0.6950 -1.7381
17901SOL    HW257202   6.057   6.618   6.964  0.5247  1.5583 -0.5103
17902SOL     OW57203   1.550   3.224   0.529 -0.2862 -0.2398 -0.3335
17902SOL    HW157204   1.587   3.308   0.500  1.7655 -0.1635  2.1426
17902SOL    HW257205   1.457   3.242   0.541  0.2779  2.1896  1.4146
17903SOL     OW57206   9.322   5.260   6.409 -0.4241 -0.2390  0.4620
17903SOL    HW157207   9.372   5.254   6.490  0.2576 -0.4699  0.0396
17903SOL    HW257208   9.349   5.344   6.370  1.1460 -1.2153 -0.7025
17904SOL     OW57209   4.220   7.874   1.466  0.1822  0.1217  0.4857
17904SOL    HW157210   4.169   7.847   1.542 -0.6325  0.5160  0.0941
17904SOL    HW257211   4.155   7.893   1.399  0.9057 -2.4410 -1.1007
17905SOL     OW57212   7.591   0.428   3.487  0.4541  0.5886 -0.3148
17905SOL    HW157213   7.592   0.423   3.583 -0.4879  2.6218 -0.1561
17905SOL    HW257214   7.501   0.403   3.464  0.3864  1.0946 -0.5960
17906SOL     OW57215   6.473   3.580   3.038 -0.5504  0.4189  0.4613
17906SOL    HW157216   6.548   3.629   3.004  0.1494  1.0027  2.6636
17906SOL    HW257217   6.510   3.524   3.106 -2.1201  0.8582  1.7372
17907SOL     OW57218   0.859   9.151   3.462 -0.2717  0.1408  0.1796
17907SOL    HW157219   0.886   9.155   3.371 -1.3925  0.3466 -0.1550
17907SOL    HW257220   0.891   9.066   3.493 -0.9129 -0.4427 -0.7389
17908SOL     OW57221   6.972   6.554   7.657  0.4898 -0.2321 -0.0695
17908SOL    HW157222   7.017   6.605   7.590 -1.3937  0.7950 -0.6037
17908SOL    HW257223   6.971   6.465   7.622  3.8491 -0.7784  0.8977
17909SOL     OW57224   0.250   5.337   9.816 -0.2013 -0.5320 -0.1696
17909SOL    HW157225   0.294   5.361   9.898  0.6088  0.9650 -1.0019
17909SOL    HW257226   0.214   5.419   9.783 -0.7868 -1.1715 -1.1837
17910SOL     OW57227   5.787   6.987   2.009  0.0283 -0.4280 -0.4237
17910SOL    HW157228   5.864   6.975   1.953  1.7086 -1.4200  1.9679
17910SOL    HW257229   5.714   6.954   1.957  1.0158  1.1959 -3.0546
17911SOL     OW57230   9.718   0.847   6.853 -0.2272  0.2667 -0.0547
17911SOL    HW157231   9.704   0.937   6.824 -1.6222  0.5988  1.4571
17911SOL    HW257232   9.755   0.856   6.941  1.0025 -0.6685 -0.4445
17912SOL     OW57233   6.285   7.396   7.227  0.1332 -0.9818 -0.1039
17912SOL    HW157234   6.190   7.403   7.241  0.4891 -0.4171  2.5389
17912SOL    HW257235   6.298   7.423   7.136 -1.9948  1.5651  0.2240
17913SOL     OW57236   6.212   5.995   6.602  0.6571  0.2940  0.3479
17913SOL    HW157237   6.139   5.934   6.595  0.3028  0.6186  1.1270
17913SOL    HW257238   6.190   6.067   6.543  1.7371 -0.9375 -1.6854
17914SOL     OW57239   5.349  10.325   4.961  0.4515  0.4647 -0.0193
17914SOL    HW157240   5.429  10.332   4.909  0.2960 -0.0452 -0.3423
17914SOL    HW257241   5.315  10.414   4.966  0.2181  0.4598 -1.2057
17915SOL     OW57242   0.405   9.596   0.956 -0.2575 -0.4574  0.5462
17915SOL    HW157243   0.412   9.691   0.947  0.2559 -0.5798 -0.5339
17915SOL    HW257244   0.480   9.562   0.907 -1.0476 -1.4486 -0.0174
17916SOL     OW57245   0.244  10.783   9.587  0.5238  0.7083  0.2698
17916SOL    HW157246   0.165  10.731   9.575 -0.9735  2.5663  1.5438
17916SOL    HW257247   0.213  10.873   9.593  2.8119  1.5687  0.2143
17917SOL     OW57248   9.935   6.284   5.879 -0.1784  0.1683 -0.3096
17917SOL    HW157249   9.844   6.292   5.908  0.0902  2.4460  0.1479
17917SOL    HW257250   9.929   6.275   5.784 -0.8846  0.1011 -0.2645
17918SOL     OW57251   6.476   5.902   1.034 -0.0488  0.3546 -0.4174
17918SOL    HW157252   6.570   5.905   1.052  0.3210 -1.2387 -1.7745
17918SOL    HW257253   6.437   5.965   1.095  1.5879 -0.8737  2.0312
17919SOL     OW57254   7.862   5.179   5.786 -0.0124 -0.2202  0.4699
17919SOL    HW157255   7.841   5.271   5.803 -1.3804 -0.4538  0.1566
17919SOL    HW257256   7.777   5.136   5.777  0.5796 -1.7588  1.8217
17920SOL     OW57257   5.839   4.925   1.087 -0.1000  0.2825  0.0949
17920SOL    HW157258   5.758   4.969   1.113  0.8198  2.5858 -0.7138
17920SOL    HW257259   5.907   4.971   1.135  1.0379  0.6200 -1.7633
17921SOL     OW57260   6.248   6.014   7.393 -0.1695 -0.4006  0.7927
17921SOL    HW157261   6.232   5.928   7.435 -0.1906 -0.1620  1.2861
17921SOL    HW257262   6.190   6.014   7.317 -0.5420 -0.6326  1.0668
17922SOL     OW57263   9.136   1.457   1.198  0.3728 -0.0194 -0.3306
17922SOL    HW157264   9.230   1.475   1.195  0.2664  0.5140 -0.7785
17922SOL    HW257265   9.122   1.392   1.130 -0.0396  2.2708 -2.6013
17923SOL     OW57266  10.668   9.754   6.875  0.3155  0.5610 -0.2673
17923SOL    HW157267  10.734   9.703   6.923  0.6125  0.4888 -0.7517
17923SOL    HW257268  10.712   9.836   6.853  0.4100  0.3084 -1.0323
17924SOL     OW57269   4.876   3.768   6.857 -1.0062  0.1236  0.6593
17924SOL    HW157270   4.863   3.683   6.899 -0.5065 -0.0067  0.5525
17924SOL    HW257271   4.803   3.776   6.796 -2.0177  0.5225  1.8742
17925SOL     OW57272   4.451   8.037   8.188 -0.3584 -0.0061 -0.8127
17925SOL    HW157273   4.356   8.039   8.197 -0.5258  0.3698 -2.3690
17925SOL    HW257274   4.471   7.946   8.166 -0.4580  0.0982 -1.3459
17926SOL     OW57275   8.375  10.398   2.402  0.1286 -0.0089  0.7606
17926SOL    HW157276   8.339  10.341   2.334  0.3165 -0.2780  0.8866
17926SOL    HW257277   8.444  10.346   2.444  0.3718  0.3455  0.8089
17927SOL     OW57278   0.371   1.347   0.465  0.1305 -0.1294  0.0347
17927SOL    HW157279   0.404   1.405   0.397  0.3471  0.6140  0.7490
17927SOL    HW257280   0.312   1.402   0.517  1.4181 -0.1141  1.5690
17928SOL     OW57281   3.746   3.191   4.180  0.5832  0.4544  0.2446
17928SOL    HW157282   3.748   3.158   4.091  0.0157  0.5442  0.1990
17928SOL    HW257283   3.838   3.187   4.209  0.4815 -1.8589  0.5013
17929SOL     OW57284   3.360   6.925   6.353 -0.1701 -0.0585  0.1047
17929SOL    HW157285   3.419   6.852   6.332  2.0920  1.7801 -0.4410
17929SOL    HW257286   3.307   6.936   6.274  2.1650  1.2146 -1.4229
17930SOL     OW57287   1.486   0.861   1.550  0.1982 -0.0871  0.0148
17930SOL    HW157288   1.558   0.802   1.532  0.6421  0.3562  0.3084
17930SOL    HW257289   1.526   0.948   1.551 -0.3248  0.1546  0.2473
17931SOL     OW57290   7.674   7.256   1.652 -0.4670 -0.0614 -0.0191
17931SOL    HW157291   7.624   7.218   1.580  0.3086 -0.0563 -0.5719
17931SOL    HW257292   7.608   7.291   1.712 -1.2205 -2.4675  0.6444
17932SOL     OW57293   5.041   4.372   1.398 -0.2679 -0.2061 -0.0828
17932SOL    HW157294   5.025   4.413   1.314  0.4399 -0.9446 -0.5867
17932SOL    HW257295   5.057   4.445   1.458  0.2667  0.2741 -0.8040
17933SOL     OW57296   7.328   8.139   4.316 -0.0087  0.0036 -0.9305
17933SOL    HW157297   7.366   8.094   4.241  0.9812  1.0214 -1.0704
17933SOL    HW257298   7.255   8.083   4.344  0.0669 -0.7478 -2.1892
17934SOL     OW57299   8.620   6.448   9.334  0.1469 -0.2065  0.1716
17934SOL    HW157300   8.675   6.378   9.370  1.4062  0.1085 -1.0565
17934SOL    HW257301   8.539   6.405   9.308  0.9149 -1.2163 -0.5962
17935SOL     OW57302  10.288   3.496   6.045  0.3214 -0.0828  0.2700
17935SOL    HW157303  10.269   3.562   6.112 -2.2016 -0.2804 -0.1428
17935SOL    HW257304  10.215   3.434   6.051  0.5666 -0.6694 -1.9641
17936SOL     OW57305  10.632  10.729   5.806 -0.2937  0.0435 -0.1098
17936SOL    HW157306  10.645  10.683   5.724  0.1482  1.4738 -0.8807
17936SOL    HW257307  10.543  10.706   5.833 -0.0715 -1.2586 -0.4253
17937SOL     OW57308   8.612   9.744  10.253 -0.2098  0.0218  0.4096
17937SOL    HW157309   8.591   9.824  10.205  0.7090  0.2377  0.3386
17937SOL    HW257310   8.705   9.754  10.275  0.1808 -1.4777 -0.4547
17938SOL     OW57311   0.701   7.067   0.647 -0.5232  0.4450 -0.1073
17938SOL    HW157312   0.754   6.988   0.640  0.1007  0.8533 -0.0517
17938SOL    HW257313   0.614   7.040   0.617  0.0287  0.0931 -1.4784
17939SOL     OW57314   3.210   3.158   0.108 -0.2762 -0.0348 -0.0544
17939SOL    HW157315   3.240   3.179   0.197 -1.9673  1.8620  0.1264
17939SOL    HW257316   3.267   3.209   0.051  1.0788 -1.5633 -0.1553
17940SOL     OW57317   8.744   7.003   5.317 -0.4124 -0.0402  0.4416
17940SOL    HW157318   8.677   6.970   5.257  0.1645  0.2031 -0.3566
17940SOL    HW257319   8.702   7.076   5.362  0.2482  2.3028 -2.4041
17941SOL     OW57320   3.490   1.208   3.891  0.1508  0.0123  0.1997
17941SOL    HW157321   3.425   1.148   3.929 -1.2969  1.5895  0.3359
17941SOL    HW257322   3.445   1.246   3.815  2.3147 -1.6649 -2.0594
17942SOL     OW57323  11.006   6.128   5.597 -0.1182 -0.0139  0.4691
17942SOL    HW157324  10.989   6.041   5.561 -2.0227  0.8768 -0.9448
17942SOL    HW257325  10.939   6.140   5.664  0.2055  0.3390  0.7371
17943SOL     OW57326   8.400   7.802  10.673 -0.0249  0.7933 -0.3690
17943SOL    HW157327   8.443   7.720  10.649 -0.3615 -0.0796  1.7781
17943SOL    HW257328   8.471   7.866  10.679  0.7716 -0.1941  1.3335
17944SOL     OW57329   5.593   7.350   6.989 -0.2577  0.5928  0.0212
17944SOL    HW157330   5.582   7.348   7.084 -1.1963  1.8066 -0.0424
17944SOL    HW257331   5.512   7.312   6.954 -0.6191  1.6392 -0.3112
17945SOL     OW57332   5.638   9.750   8.938 -0.2254 -0.0670  0.1022
17945SOL    HW157333   5.714   9.771   8.992 -0.1709  0.9728 -0.3759
17945SOL    HW257334   5.634   9.654   8.941  0.7615 -0.1128  0.5890
17946SOL     OW57335   6.368   0.753   4.218  0.7320 -0.1006 -0.5931
17946SOL    HW157336   6.299   0.731   4.281  0.4609  1.6501 -0.2425
17946SOL    HW257337   6.379   0.673   4.167 -1.8242 -0.3350 -0.9184
17947SOL     OW57338   9.232   0.501   4.855 -0.0051  0.0712 -0.4174
17947SOL    HW157339   9.249   0.519   4.763 -1.0744 -0.2903 -0.7031
17947SOL    HW257340   9.136   0.496   4.861  0.0814 -0.9070  0.5110
17948SOL     OW57341   4.938  10.435   8.131  0.2298  0.1576 -0.1940
17948SOL    HW157342   4.878  10.434   8.056 -0.6491 -1.7885  0.4556
17948SOL    HW257343   4.934  10.345   8.166  0.4615  1.0348  2.3015
17949SOL     OW57344   1.602   1.668   1.662  1.2684 -0.6251  0.3867
17949SOL    HW157345   1.617   1.615   1.584  2.9454  1.0982 -0.5516
17949SOL    HW257346   1.645   1.619   1.732 -0.6182 -2.4043  0.4015
17950SOL     OW57347   8.711  10.940   5.348 -0.1240  0.0233  0.2683
17950SOL    HW157348   8.758  10.916   5.267 -0.0721  0.4483  0.1731
17950SOL    HW257349   8.769  11.000   5.393  0.1406 -0.7266  0.9563
17951SOL     OW57350   7.479   8.989   4.419 -0.4076 -0.2491 -0.0121
17951SOL    HW157351   7.393   8.948   4.429 -0.3333 -0.2641  0.5815
17951SOL    HW257352   7.498   9.026   4.505 -0.0103  0.1313 -0.2620
17952SOL     OW57353   1.601   9.260   1.473  0.2179 -0.2170 -0.1236
17952SOL    HW157354   1.644   9.216   1.400  0.1599 -0.2270 -0.1513
17952SOL    HW257355   1.666   9.324   1.503  0.2344 -0.1997 -0.1959
17953SOL     OW57356   5.863   1.337  10.584 -0.3189 -0.1976 -0.5892
17953SOL    HW157357   5.946   1.381  10.601 -1.1638  1.7398 -1.1658
17953SOL    HW257358   5.831   1.313  10.671 -0.4395  1.5879 -0.0969
17954SOL     OW57359   1.356   3.676   9.707  0.0036 -0.0539 -0.3252
17954SOL    HW157360   1.352   3.711   9.618 -0.0500  0.9942  0.0751
17954SOL    HW257361   1.361   3.754   9.763 -1.6250 -0.6259  0.6882
17955SOL     OW57362   2.086   7.455   3.200 -0.1290  0.3822  0.0695
17955SOL    HW157363   2.056   7.516   3.268 -1.6193 -0.6474  0.3824
17955SOL    HW257364   2.081   7.505   3.119 -0.9261  0.7963  0.3676
17956SOL     OW57365  10.776   1.871  10.633 -0.0582  0.2608  0.1341
17956SOL    HW157366  10.774   1.944  10.695  1.8633 -0.9650  1.7345
17956SOL    HW257367  10.827   1.803  10.676  2.0937 -0.4150 -3.0806
17957SOL     OW57368   1.119   5.913   0.049  0.1472  0.2054 -0.0768
17957SOL    HW157369   1.154   5.824   0.048  0.4996  0.3460 -1.7124
17957SOL    HW257370   1.100   5.933  -0.042 -1.4691  1.2268  0.4473
17958SOL     OW57371   9.348   1.313   1.758 -0.0070  0.0662  0.4626
17958SOL    HW157372   9.317   1.335   1.845 -0.8545 -0.7448  0.3921
17958SOL    HW257373   9.333   1.391   1.706 -3.6578 -0.7298  0.0181
17959SOL     OW57374   8.192   1.937   0.317  0.0341  0.4161 -0.2162
17959SOL    HW157375   8.187   1.881   0.394 -0.5209  1.9284  0.9129
17959SOL    HW257376   8.107   1.928   0.275  0.1155  0.0591 -0.3046
17960SOL     OW57377   5.319   1.749   1.927 -0.2152  0.0018  0.4320
17960SOL    HW157378   5.346   1.730   1.837  1.0380 -1.1456  1.0176
17960SOL    HW257379   5.317   1.664   1.970  3.1817  0.7676  2.5320
17961SOL     OW57380   6.718   1.534   5.074  0.1859 -0.1680  0.5899
17961SOL    HW157381   6.789   1.598   5.083 -0.2186  0.1860  1.4548
17961SOL    HW257382   6.644   1.585   5.042  0.0464 -0.3413  0.6364
17962SOL     OW57383   0.462   4.303  10.749  0.4984 -0.7440 -0.0030
17962SOL    HW157384   0.372   4.333  10.757  0.9196  0.5365  0.2054
17962SOL    HW257385   0.514   4.372  10.790  1.4981 -2.0222  0.9712
17963SOL     OW57386   3.453   4.406   6.167  0.3483  0.0052  0.3280
17963SOL    HW157387   3.512   4.423   6.093 -0.7488  1.4381 -0.2712
17963SOL    HW257388   3.495   4.448   6.242  0.6101  0.0746  0.1419
17964SOL     OW57389   7.251   0.656   9.596 -0.5335  0.4686 -0.1013
17964SOL    HW157390   7.299   0.579   9.565  1.0500  0.9999  0.9170
17964SOL    HW257391   7.312   0.729   9.583 -2.0362  1.6187 -1.1638
17965SOL     OW57392   2.548   0.412   1.229  0.5329  0.1220  0.0414
17965SOL    HW157393   2.490   0.337   1.246  1.6056 -1.1475 -1.6474
17965SOL    HW257394   2.566   0.447   1.316  0.0046 -1.5844  0.8926
17966SOL     OW57395   1.417   5.303   2.607  0.0758 -0.4153  0.1423
17966SOL    HW157396   1.442   5.372   2.546 -1.0050 -0.5354 -0.4673
17966SOL    HW257397   1.406   5.225   2.551  1.6053 -1.1827  0.8563
17967SOL     OW57398   0.333   3.100   1.687  0.5073 -0.5164  0.8115
17967SOL    HW157399   0.327   3.008   1.661  3.1525 -1.1124  2.0559
17967SOL    HW257400   0.426   3.118   1.692  0.0995  1.4706  3.2173
17968SOL     OW57401   6.941   2.344   0.520  0.5250  0.3550  0.0049
17968SOL    HW157402   7.007   2.296   0.472  1.3038  0.0908  1.2966
17968SOL    HW257403   6.981   2.362   0.606 -0.6410  1.1846  0.4098
17969SOL     OW57404   8.006   2.466   4.452 -0.1924  0.4293  0.2989
17969SOL    HW157405   8.075   2.499   4.395 -0.4287 -1.6071 -1.2546
17969SOL    HW257406   7.934   2.528   4.441  1.1681  2.3594  1.6386
17970SOL     OW57407  10.546   8.536   7.816 -0.2692  0.5693  0.3750
17970SOL    HW157408  10.622   8.479   7.800 -0.3775  0.6794 -0.6134
17970SOL    HW257409  10.472   8.487   7.780 -0.2831  1.5586 -1.0139
17971SOL     OW57410   7.380   1.542   4.406 -0.3289  0.0037  0.2607
17971SOL    HW157411   7.406   1.488   4.480  0.1171 -0.8192 -0.4638
17971SOL    HW257412   7.463   1.562   4.361 -0.4047  1.8274  0.8416
17972SOL     OW57413   6.827   6.043  10.549 -0.4278 -0.1561  0.3414
17972SOL    HW157414   6.824   6.135  10.523 -0.9265 -0.2332  0.1183
17972SOL    HW257415   6.765   6.037  10.622 -2.2662 -0.7899 -1.1876
17973SOL     OW57416   2.214  10.162   3.010 -0.1572  0.3638 -0.3225
17973SOL    HW157417   2.234  10.211   2.930  2.7037  0.6538  0.4525
17973SOL    HW257418   2.248  10.217   3.081 -1.2599 -0.5797  0.9829
17974SOL     OW57419   7.744   0.325   6.910  0.1828  0.1605 -0.0035
17974SOL    HW157420   7.654   0.354   6.923 -0.1581 -1.0089  0.3725
17974SOL    HW257421   7.786   0.337   6.995  0.3025  0.4061 -0.0951
17975SOL     OW57422   7.340  10.294   8.843  0.8538 -0.2519 -0.1450
17975SOL    HW157423   7.402  10.272   8.912  0.1156 -0.0186  0.6118
17975SOL    HW257424   7.394  10.322   8.769  1.7183 -1.9985 -0.2192
17976SOL     OW57425   1.681   1.425   3.624 -0.0902 -0.2894 -0.2218
17976SOL    HW157426   1.685   1.330   3.620  1.3831 -0.2927  0.6282
17976SOL    HW257427   1.630   1.450   3.547 -0.5652 -1.7536 -0.4161
17977SOL     OW57428   3.458   8.572   9.216  0.2352 -0.1445 -0.2061
17977SOL    HW157429   3.440   8.660   9.183 -0.1782 -0.2978 -0.4029
17977SOL    HW257430   3.372   8.532   9.225  0.3514 -0.1989  0.8242
17978SOL     OW57431   5.403   0.027   3.089 -0.2347 -0.4241  0.5021
17978SOL    HW157432   5.315  -0.009   3.104 -1.0948  1.3350 -0.0589
17978SOL    HW257433   5.413   0.096   3.155  0.9425 -0.9249  0.8750
17979SOL     OW57434   7.395   6.413   3.153 -0.1399  0.5115  0.0431
17979SOL    HW157435   7.468   6.414   3.091  1.4663  0.1082  1.8513
17979SOL    HW257436   7.435   6.399   3.239 -2.3706 -0.0471  1.0880
17980SOL     OW57437   9.201   6.440   9.407  0.5117  0.0095 -0.0507
17980SOL    HW157438   9.178   6.360   9.453 -0.4726 -0.0122 -0.5485
17980SOL    HW257439   9.145   6.440   9.329  0.9188  0.8870 -0.3595
17981SOL     OW57440   9.504   7.472   1.081 -0.1050  0.3863 -0.0313
17981SOL    HW157441   9.481   7.535   1.150 -0.4639 -0.1414  0.3459
17981SOL    HW257442   9.430   7.411   1.080  0.4857 -0.3379 -0.0137
17982SOL     OW57443   1.248   5.405   8.251  0.0628 -0.5035  0.4228
17982SOL    HW157444   1.307   5.414   8.326  0.6040 -2.3517  0.2778
17982SOL    HW257445   1.226   5.312   8.249  0.6888 -0.6714 -2.1752
17983SOL     OW57446   2.942  10.476   4.862  0.2447  0.0662 -0.1694
17983SOL    HW157447   2.963  10.532   4.938  1.3770 -2.1492  1.2745
17983SOL    HW257448   3.006  10.502   4.796  1.4874 -0.1808  0.8690
17984SOL     OW57449   5.782   0.887   6.887  0.6492  0.4434 -0.4079
17984SOL    HW157450   5.780   0.895   6.982  0.5005 -1.6956 -0.1858
17984SOL    HW257451   5.829   0.805   6.870 -2.7289 -1.3785 -1.9694
17985SOL     OW57452   9.241   0.678   5.967 -0.2040 -0.3589 -0.4398
17985SOL    HW157453   9.168   0.683   6.028 -0.3736 -1.2374 -0.5531
17985SOL    HW257454   9.205   0.708   5.883  0.3385  2.0195  0.1068
17986SOL     OW57455   7.420   2.894   2.675  0.4483 -0.6845 -0.4613
17986SOL    HW157456   7.326   2.909   2.665 -0.5034 -3.0753  2.9515
17986SOL    HW257457   7.437   2.815   2.624  0.2853 -0.9431 -0.1251
17987SOL     OW57458  10.884   7.363   4.280 -0.4644 -0.2411 -0.0033
17987SOL    HW157459  10.968   7.359   4.234 -1.1462  1.0868 -1.4894
17987SOL    HW257460  10.895   7.436   4.342  0.1752 -1.4996  1.4404
17988SOL     OW57461   7.678   5.713  10.895  0.3522  0.1339 -0.1997
17988SOL    HW157462   7.588   5.742  10.881  0.4565  0.8070  0.4556
17988SOL    HW257463   7.671   5.648  10.965  0.4466  0.6680  0.3111
17989SOL     OW57464   4.201   2.436   6.504 -0.1429  0.0469  0.0065
17989SOL    HW157465   4.182   2.393   6.587  0.5549 -0.0660  0.1126
17989SOL    HW257466   4.294   2.418   6.488 -0.7395 -1.8447 -1.8992
17990SOL     OW57467   3.257  10.193   4.228 -0.1525  0.0419  0.3455
17990SOL    HW157468   3.167  10.227   4.233 -0.2528 -0.2776  0.8386
17990SOL    HW257469   3.268  10.144   4.310 -0.3575 -1.9770 -0.7717
17991SOL     OW57470   0.342   5.358   2.550  0.0907 -0.0080  0.2995
17991SOL    HW157471   0.248   5.369   2.557  0.4406  4.1742  1.3572
17991SOL    HW257472   0.375   5.382   2.637  2.1976 -1.1770 -0.0936
17992SOL     OW57473   9.841   1.949   2.886  0.1913  0.4333 -0.1426
17992SOL    HW157474   9.813   2.039   2.902 -0.6782 -0.0112  0.9698
17992SOL    HW257475   9.841   1.908   2.973  1.6724 -0.3475 -0.4620
17993SOL     OW57476   6.419   6.415   7.554  0.2302  0.3962  0.0236
17993SOL    HW157477   6.451   6.331   7.587 -1.4320 -0.2400  0.1187
17993SOL    HW257478   6.328   6.419   7.583  0.4318  2.5172  0.5193
17994SOL     OW57479   5.138   5.968   0.287  0.3374 -0.5003  0.0624
17994SOL    HW157480   5.226   6.001   0.303  0.3516  0.0291 -1.0404
17994SOL    HW257481   5.120   5.989   0.195 -1.3630  0.4421  0.5542
17995SOL     OW57482   5.662   1.025   0.890  0.0633  0.5228 -0.0372
17995SOL    HW157483   5.688   1.025   0.982 -0.9892  0.3460  0.2746
17995SOL    HW257484   5.628   1.113   0.874 -3.2257 -0.4438  0.8151
17996SOL     OW57485   0.072   3.028   0.099 -0.4632  0.1077 -0.1727
17996SOL    HW157486   0.095   3.025   0.006  0.7187 -1.2541  0.1280
17996SOL    HW257487  -0.005   2.972   0.106 -1.3537  1.2485 -0.5075
17997SOL     OW57488   7.572   8.109   6.016 -0.2692  0.1987  0.0518
17997SOL    HW157489   7.617   8.025   6.019 -2.0360 -0.7796  1.2123
17997SOL    HW257490   7.636   8.170   5.978  1.9715 -1.0750  1.5666
17998SOL     OW57491   2.653   5.442   3.822  0.1943  0.4695 -0.5696
17998SOL    HW157492   2.634   5.459   3.915  1.7961 -1.1165  0.1020
17998SOL    HW257493   2.665   5.529   3.784 -0.6883  1.1602  0.6646
17999SOL     OW57494   7.179   9.021   3.824  0.1501  0.3567 -0.5986
17999SOL    HW157495   7.263   8.997   3.786  0.4847  0.4067  0.0877
17999SOL    HW257496   7.133   9.067   3.754 -0.0295 -1.2039 -1.5615
18000SOL     OW57497   4.645   7.021   7.308  0.5083  0.1735 -0.6768
18000SOL    HW157498   4.652   6.963   7.232 -1.8661 -1.2996  0.1051
18000SOL    HW257499   4.608   7.101   7.273 -1.7699 -0.9351 -1.0031
18001SOL     OW57500   7.295   3.862   0.790  0.0993 -0.0288  0.2563
18001SOL    HW157501   7.284   3.785   0.845 -0.0103  0.7667  1.3791
18001SOL    HW257502   7.269   3.936   0.846 -0.4981  0.7658 -1.0180
18002SOL     OW57503   4.262   3.673   4.872 -0.3184 -0.2863  0.0813
18002SOL    HW157504   4.294   3.609   4.808  2.4866 -0.1194  1.1613
18002SOL    HW257505   4.285   3.758   4.833 -0.5692 -0.1034  0.3350
18003SOL     OW57506   6.984   7.169   3.849 -0.5207 -0.4557  0.1920
18003SOL    HW157507   7.056   7.146   3.789  0.5739  0.1421  1.2371
18003SOL    HW257508   7.028   7.206   3.926 -2.0229  1.3135  0.2537
18004SOL     OW57509   6.969   2.187   6.206 -0.2463  0.0266  0.2045
18004SOL    HW157510   6.883   2.215   6.173  1.2731  1.6940 -2.8434
18004SOL    HW257511   6.961   2.092   6.214 -2.7676  0.2577  1.4540
18005SOL     OW57512   5.897   4.559   7.633 -0.0931 -0.3461  0.2624
18005SOL    HW157513   5.892   4.479   7.581 -0.6101  0.0802 -0.3685
18005SOL    HW257514   5.821   4.610   7.605 -2.0140 -1.2105  3.3275
18006SOL     OW57515   4.925   3.220   7.415 -0.2799 -0.3200 -0.1865
18006SOL    HW157516   4.878   3.277   7.355  0.9477  0.0899 -0.7853
18006SOL    HW257517   4.983   3.278   7.464  1.0323 -1.0262 -0.8449
18007SOL     OW57518   8.806   7.820   6.302 -0.5517  0.2417  0.2933
18007SOL    HW157519   8.809   7.789   6.211 -0.7471 -1.6439  0.8748
18007SOL    HW257520   8.880   7.879   6.310  0.5032 -0.8914 -0.6654
18008SOL     OW57521   0.859   3.195   7.872 -0.1719 -0.3050 -0.2499
18008SOL    HW157522   0.878   3.127   7.937  1.1262 -0.2390 -0.5316
18008SOL    HW257523   0.920   3.266   7.894 -1.1971  0.5977 -0.2391
18009SOL     OW57524   1.568   0.839   5.122 -0.4995 -0.0635  0.2474
18009SOL    HW157525   1.547   0.923   5.163 -0.8617 -0.8845  1.8192
18009SOL    HW257526   1.485   0.811   5.083 -0.9421 -0.6699  1.5790
18010SOL     OW57527   1.505   4.548   6.182  0.0938 -0.0878  0.3011
18010SOL    HW157528   1.577   4.605   6.209  0.1278  0.4746 -0.9190
18010SOL    HW257529   1.427   4.591   6.216  0.2908 -0.5973  1.4580
18011SOL     OW57530   2.839   6.930   8.619  0.3202  0.1393  1.1071
18011SOL    HW157531   2.876   6.997   8.561 -0.3709  0.3204  0.8514
18011SOL    HW257532   2.745   6.951   8.621  0.0732 -0.9064  0.9091
18012SOL     OW57533   6.864   6.102   7.554 -0.0713 -0.2078 -0.2128
18012SOL    HW157534   6.932   6.161   7.521  2.6121 -1.3281  2.8021
18012SOL    HW257535   6.859   6.033   7.487  1.4929  0.1193 -0.7126
18013SOL     OW57536   4.516   1.877   6.916 -0.4000  0.2182  0.1236
18013SOL    HW157537   4.478   1.921   6.841 -2.7212  1.8240  2.0787
18013SOL    HW257538   4.610   1.872   6.896 -0.9597  0.1461 -2.9916
18014SOL     OW57539   9.549   0.505   3.484 -0.1476  0.3329 -0.2862
18014SOL    HW157540   9.634   0.526   3.446  0.0207  0.3061  0.0770
18014SOL    HW257541   9.525   0.422   3.444  0.4852 -0.1898  0.4010
18015SOL     OW57542   2.403   2.395   3.743  0.2536  0.2447 -0.0217
18015SOL    HW157543   2.326   2.338   3.747 -0.1482  0.8281  0.9822
18015SOL    HW257544   2.472   2.339   3.708 -0.9418  0.0879 -2.2983
18016SOL     OW57545   8.062   8.286   3.377 -0.0398 -0.0110  0.0207
18016SOL    HW157546   8.129   8.281   3.445 -0.6541 -1.0752  0.5939
18016SOL    HW257547   7.982   8.309   3.425 -0.5420 -1.0704 -0.2793
18017SOL     OW57548   5.261   9.876   1.505  0.2858  0.9500  0.2365
18017SOL    HW157549   5.350   9.910   1.500  0.3541  1.0397  1.6249
18017SOL    HW257550   5.230   9.903   1.592 -1.0489  0.8169 -0.1767
18018SOL     OW57551   0.424   4.429   8.635  0.3483  0.0130 -0.1623
18018SOL    HW157552   0.427   4.335   8.621  0.7946  0.1397 -0.9503
18018SOL    HW257553   0.360   4.461   8.571  1.3428  0.4228 -0.9745
18019SOL     OW57554   3.635   6.374   3.044  0.0630  0.5629  1.0718
18019SOL    HW157555   3.655   6.399   2.954 -0.4466  1.2544  1.1512
18019SOL    HW257556   3.571   6.303   3.035  0.9534 -0.2379  0.8700
18020SOL     OW57557   6.158   9.751   8.819 -0.5046 -0.3963  0.1431
18020SOL    HW157558   6.084   9.802   8.783 -0.3895 -1.0607 -1.1059
18020SOL    HW257559   6.235   9.801   8.794 -0.4491 -0.6010 -0.0997
18021SOL     OW57560   5.391   0.922   1.758 -0.3570  0.0693 -0.0869
18021SOL    HW157561   5.348   0.865   1.693 -0.4382  0.6166 -0.5213
18021SOL    HW257562   5.480   0.887   1.765 -0.8878 -1.1164  0.8728
18022SOL     OW57563  10.304   8.311  10.596  0.1359 -0.7242 -0.2414
18022SOL    HW157564  10.223   8.349  10.562  0.7291  0.8545  0.0294
18022SOL    HW257565  10.309   8.226  10.553 -0.2665  0.2667 -2.4469
18023SOL     OW57566   8.775   5.902   7.746  0.3813  0.4759  0.8137
18023SOL    HW157567   8.776   5.841   7.673  1.4639  0.7149  0.6041
18023SOL    HW257568   8.702   5.960   7.728 -0.1797 -0.2837  0.6188
18024SOL     OW57569   5.549   3.563   4.844 -0.1762  0.0275 -0.1566
18024SOL    HW157570   5.587   3.601   4.765  1.0813 -0.3199  0.2619
18024SOL    HW257571   5.505   3.484   4.814 -0.5219  0.3921 -0.6354
18025SOL     OW57572   7.018   7.169   9.351  0.0800 -0.1144  0.3205
18025SOL    HW157573   7.064   7.097   9.308  1.3770  0.7663  0.1910
18025SOL    HW257574   6.928   7.160   9.320  0.9621  0.5623 -2.8187
18026SOL     OW57575   7.968   7.788   5.920 -0.1404  0.0131 -0.2367
18026SOL    HW157576   7.988   7.824   5.834  0.7591 -0.2707 -0.1547
18026SOL    HW257577   8.005   7.699   5.918 -0.2793 -0.0633  0.3750
18027SOL     OW57578   5.916   2.703   0.239 -0.7399  0.3560  0.1136
18027SOL    HW157579   5.834   2.691   0.191 -1.1690  1.9222  0.4033
18027SOL    HW257580   5.941   2.615   0.266 -0.8286 -0.5141 -2.3831
18028SOL     OW57581   4.743   1.921   7.365 -0.3824 -0.6214  0.0542
18028SOL    HW157582   4.691   2.002   7.360 -0.6382 -0.6495  1.6238
18028SOL    HW257583   4.802   1.926   7.290 -1.0179  0.5760 -0.4088
18029SOL     OW57584   2.494  10.318   2.467 -0.4818  0.1384 -0.3759
18029SOL    HW157585   2.552  10.271   2.527 -0.0013  0.3995 -0.6356
18029SOL    HW257586   2.543  10.395   2.440 -0.7005  0.0440 -1.0792
18030SOL     OW57587   4.364   2.339   1.469 -0.1753 -0.0106 -0.3722
18030SOL    HW157588   4.402   2.420   1.501 -0.1162 -0.4474  0.6826
18030SOL    HW257589   4.392   2.272   1.531 -1.6391 -0.5590 -0.2570
18031SOL     OW57590   9.837   7.252   0.172  0.3078  0.7069 -0.0144
18031SOL    HW157591   9.846   7.306   0.251  0.9801  1.3266 -0.4938
18031SOL    HW257592   9.751   7.275   0.137  0.6160  1.5429 -0.2523
18032SOL     OW57593   4.747   9.529  10.555 -0.5319  0.5431  0.1238
18032SOL    HW157594   4.782   9.560  10.638  1.0502 -0.8523  0.0379
18032SOL    HW257595   4.678   9.468  10.580 -0.5061  0.6226  0.3956
18033SOL     OW57596   6.428   8.324   9.761 -0.2286  0.4007 -0.6104
18033SOL    HW157597   6.362   8.391   9.778 -0.4814 -0.0103  0.0897
18033SOL    HW257598   6.486   8.362   9.695  0.7404  2.0514  1.1089
18034SOL     OW57599   6.559   4.276  10.828 -0.1152  0.0327  1.1696
18034SOL    HW157600   6.638   4.327  10.809 -0.4136  0.2247  0.4010
18034SOL    HW257601   6.570   4.247  10.919 -0.2490  2.0530  1.8763
18035SOL     OW57602   7.722   3.564   9.060  0.0567  0.8614 -0.3211
18035SOL    HW157603   7.671   3.612   8.995  1.4830  1.3502 -1.1227
18035SOL    HW257604   7.720   3.620   9.138 -0.2474  1.1041 -0.5012
18036SOL     OW57605   7.716   9.320   0.331  0.1673  0.0552 -0.1226
18036SOL    HW157606   7.644   9.325   0.269 -0.7827 -0.6902  0.8773
18036SOL    HW257607   7.775   9.390   0.306 -1.1734  1.0328 -0.6387
18037SOL     OW57608   1.287   3.139   5.502  0.0563  0.0323 -0.0379
18037SOL    HW157609   1.260   3.226   5.472  0.6982 -0.2501 -1.4976
18037SOL    HW257610   1.212   3.107   5.552 -1.8761 -0.1764 -2.8410
18038SOL     OW57611   7.585   3.000   8.917 -0.0601 -0.3268 -0.1609
18038SOL    HW157612   7.514   3.028   8.858  1.6405 -0.8209 -2.6351
18038SOL    HW257613   7.664   3.034   8.875  1.1967  0.2742  2.5489
18039SOL     OW57614   1.761   2.173   7.328 -0.6647  0.3383  0.2571
18039SOL    HW157615   1.689   2.192   7.389 -1.6274  0.8311 -0.9869
18039SOL    HW257616   1.722   2.183   7.242  0.4021 -1.3494 -0.4667
18040SOL     OW57617   9.704   0.103   1.972 -0.1636  0.1980 -0.2887
18040SOL    HW157618   9.713   0.008   1.966  0.0287  0.1379  0.7388
18040SOL    HW257619   9.683   0.119   2.064  0.1421  1.1731 -0.3764
18041SOL     OW57620   6.472   8.601   5.366 -0.4624  0.1226 -0.2622
18041SOL    HW157621   6.439   8.659   5.435 -1.1976  0.4033 -0.8298
18041SOL    HW257622   6.470   8.514   5.404  2.2098  0.5969  1.1895
18042SOL     OW57623   4.894   4.988   7.665  0.0519  0.0433 -0.5424
18042SOL    HW157624   4.803   5.009   7.642  0.4922  1.1301 -1.3693
18042SOL    HW257625   4.890   4.898   7.697 -1.1783 -0.2360 -1.3918
18043SOL     OW57626   9.887   5.866   8.069 -0.1228 -0.4904 -0.0580
18043SOL    HW157627   9.953   5.824   8.125  2.1472  3.1051  0.2720
18043SOL    HW257628   9.884   5.811   7.990  1.1234 -2.3209  1.0841
18044SOL     OW57629   4.584   7.316   0.373 -0.0720  0.9622 -0.1726
18044SOL    HW157630   4.627   7.258   0.311 -1.9574 -0.5174 -0.1952
18044SOL    HW257631   4.491   7.294   0.365 -0.8212  3.6245  0.2266
18045SOL     OW57632   2.011   9.356   1.522 -0.0595 -0.6361 -0.1770
18045SOL    HW157633   1.994   9.301   1.598  2.2259 -0.7142  0.3650
18045SOL    HW257634   1.927   9.397   1.503 -0.6841 -0.3907  2.5776
18046SOL     OW57635   7.133   6.291   8.462 -0.3381  0.1829 -0.1545
18046SOL    HW157636   7.151   6.232   8.388  0.6324 -1.5201  1.3481
18046SOL    HW257637   7.218   6.328   8.484 -0.4585 -0.0179  0.6646
18047SOL     OW57638   0.448   6.649   4.143 -0.0674  0.2194  0.1000
18047SOL    HW157639   0.407   6.734   4.134  0.0835  0.1547 -1.6442
18047SOL    HW257640   0.542   6.666   4.132 -0.0180 -0.1468 -0.0808
18048SOL     OW57641   3.373   6.265   7.583 -0.4287 -0.1692  0.5784
18048SOL    HW157642   3.431   6.215   7.526  0.6494  0.2582  1.2594
18048SOL    HW257643   3.398   6.237   7.672 -0.3348  0.9921  0.9344
18049SOL     OW57644   4.761  10.126   7.201 -0.0806  0.0226  0.2227
18049SOL    HW157645   4.705  10.099   7.274 -0.9663  1.6670  0.1868
18049SOL    HW257646   4.824  10.186   7.240 -1.0536  1.5407 -0.4621
18050SOL     OW57647   4.878   5.532   5.432 -0.0610 -0.0335 -0.4360
18050SOL    HW157648   4.868   5.470   5.359 -4.0345  0.7052 -0.7279
18050SOL    HW257649   4.895   5.616   5.389 -2.1123  0.3487 -0.5692
18051SOL     OW57650   4.731   6.432  10.573 -1.0856 -0.1806  0.3849
18051SOL    HW157651   4.687   6.406  10.493 -1.1536  1.1162 -0.0164
18051SOL    HW257652   4.775   6.514  10.552  1.4546 -1.3218  0.8014
18052SOL     OW57653   3.492   6.061   3.338 -0.2731 -0.2648 -0.1018
18052SOL    HW157654   3.467   6.086   3.249  0.6789 -0.2371 -0.3665
18052SOL    HW257655   3.563   6.121   3.362 -0.5594 -0.2286  0.7033
18053SOL     OW57656   3.441   5.146   6.414 -0.5507  0.8304  0.2331
18053SOL    HW157657   3.353   5.113   6.396  0.1901 -0.4861 -1.2613
18053SOL    HW257658   3.471   5.180   6.330  1.3445 -1.2750 -0.0476
18054SOL     OW57659   2.944   8.098   1.019  0.5460 -0.7095  1.1661
18054SOL    HW157660   2.948   8.185   1.058  0.8528 -0.8256  1.3995
18054SOL    HW257661   2.854   8.069   1.033  0.2163 -0.1071  0.3672
18055SOL     OW57662   6.982   7.477   7.834  0.2316  0.0515  0.1443
18055SOL    HW157663   7.074   7.495   7.819  0.3394 -1.3708 -1.1997
18055SOL    HW257664   6.979   7.425   7.914  0.7778 -1.2537 -0.6631
18056SOL     OW57665   9.525   5.082   0.592 -0.1634 -0.3920 -0.0162
18056SOL    HW157666   9.436   5.076   0.557 -0.5052  1.3977  0.4771
18056SOL    HW257667   9.529   5.013   0.658 -0.8122 -1.1937 -0.7844
18057SOL     OW57668   5.161   4.448   5.553  0.6966  0.3171 -0.3510
18057SOL    HW157669   5.118   4.383   5.497 -1.1582 -0.0074  1.3635
18057SOL    HW257670   5.122   4.532   5.526  1.4975  0.4815 -1.0643
18058SOL     OW57671   5.374  10.930  10.159 -0.1573 -0.0586 -0.5202
18058SOL    HW157672   5.289  10.891  10.141 -1.2834  0.5997  2.6533
18058SOL    HW257673   5.392  10.906  10.250  1.0755  3.2003  0.2473
18059SOL     OW57674   6.393   0.502   5.217 -0.0252  0.1571  0.3583
18059SOL    HW157675   6.432   0.460   5.294  1.3748  0.0197 -0.3935
18059SOL    HW257676   6.314   0.451   5.199 -0.5095  0.3367  1.8249
18060SOL     OW57677   4.360   4.071   8.913  0.1535  0.0457 -0.1052
18060SOL    HW157678   4.404   4.156   8.912  0.1007  0.0737 -1.5890
18060SOL    HW257679   4.428   4.008   8.887  0.3614 -0.4803  1.5846
18061SOL     OW57680   1.127   5.114   3.783 -0.0850  0.1007  0.0647
18061SOL    HW157681   1.092   5.088   3.697  0.1392 -0.1355  0.0431
18061SOL    HW257682   1.100   5.205   3.793  0.6468  0.4121 -0.6617
18062SOL     OW57683   9.889   4.254  10.496  0.2163 -0.3129  0.3121
18062SOL    HW157684   9.801   4.222  10.519 -0.3404  0.5694 -0.5415
18062SOL    HW257685   9.948   4.190  10.535 -0.8471 -1.8520 -0.4854
18063SOL     OW57686   2.448   9.409   9.783  1.0198 -0.2634 -0.0340
18063SOL    HW157687   2.419   9.473   9.717 -0.0582 -0.1595  0.5244
18063SOL    HW257688   2.385   9.338   9.776  1.4702 -0.6915  0.2362
18064SOL     OW57689   4.881  10.039   9.927 -0.2644 -0.7367 -0.4810
18064SOL    HW157690   4.840  10.113   9.971  2.2599  0.1105  0.6017
18064SOL    HW257691   4.936  10.079   9.859 -0.7790 -1.8097 -1.5776
18065SOL     OW57692   6.654   7.337   1.522  0.0286 -0.0406 -0.0885
18065SOL    HW157693   6.679   7.429   1.533  0.1608  0.0165 -0.8244
18065SOL    HW257694   6.594   7.337   1.447 -0.3243 -0.4995  0.1865
18066SOL     OW57695   6.429   8.291   2.502  0.2516 -0.2770  0.5367
18066SOL    HW157696   6.498   8.348   2.468 -0.4644  0.4331  0.2323
18066SOL    HW257697   6.470   8.205   2.510  0.5075 -0.4951 -2.1032
18067SOL     OW57698   2.460   1.250   5.358 -0.1929  0.2563 -0.1373
18067SOL    HW157699   2.532   1.193   5.330 -1.0257 -0.2798 -1.2769
18067SOL    HW257700   2.411   1.267   5.277 -0.8661  1.2992  0.4768
18068SOL     OW57701  10.708  11.000   3.140 -0.3942 -0.3978  0.3985
18068SOL    HW157702  10.700  11.026   3.232 -0.8026 -3.7514  1.4302
18068SOL    HW257703  10.625  10.956   3.120 -0.2453  0.1129 -1.5629
18069SOL     OW57704   6.774   2.214   6.793  0.0555  0.2183  0.4094
18069SOL    HW157705   6.775   2.285   6.729  0.0918  0.2532  0.4491
18069SOL    HW257706   6.836   2.149   6.758 -0.8832 -0.3458 -0.2567
18070SOL     OW57707   5.294   3.187   3.904 -0.0306 -0.6035  0.1802
18070SOL    HW157708   5.370   3.146   3.945  0.8584  1.3015  0.5479
18070SOL    HW257709   5.303   3.167   3.811  0.9305 -0.4273  0.2218
18071SOL     OW57710   1.554   0.534   4.209  0.1066  0.1397 -0.5783
18071SOL    HW157711   1.527   0.625   4.199  0.6680  0.2884 -0.7900
18071SOL    HW257712   1.527   0.510   4.298 -1.1031  0.1415 -0.9295
18072SOL     OW57713   9.706   3.927   4.072 -0.8278 -0.0701 -0.0763
18072SOL    HW157714   9.650   3.853   4.097 -0.0499 -0.9666 -0.9577
18072SOL    HW257715   9.745   3.902   3.989  1.3755  0.2777  0.7991
18073SOL     OW57716   8.382   5.632   6.337 -0.6380  0.6848 -0.1478
18073SOL    HW157717   8.470   5.613   6.306 -1.4443 -1.5286 -1.3550
18073SOL    HW257718   8.370   5.576   6.414 -1.0288  0.9045 -0.0419
18074SOL     OW57719   5.351   0.553   1.211  0.1435  0.4782 -0.4105
18074SOL    HW157720   5.415   0.563   1.141 -0.1697  0.7565 -0.6646
18074SOL    HW257721   5.331   0.459   1.212 -1.3678  0.7213 -2.0853
18075SOL     OW57722   3.077   9.684   1.898  0.5034  0.2081 -0.1468
18075SOL    HW157723   3.024   9.620   1.944  0.3781  0.3196 -0.1327
18075SOL    HW257724   3.127   9.728   1.967  1.8462 -1.0067 -0.3157
18076SOL     OW57725   0.780   7.896   0.638 -0.7166  0.5468 -0.5186
18076SOL    HW157726   0.746   7.979   0.671  1.0633  0.8448  0.7543
18076SOL    HW257727   0.875   7.903   0.650 -0.6033 -2.2482  1.0453
18077SOL     OW57728   4.231   9.469   9.503  0.0514 -0.5659  0.0929
18077SOL    HW157729   4.226   9.451   9.596  1.5334 -3.2232 -0.2556
18077SOL    HW257730   4.325   9.467   9.482 -0.3048 -1.4198 -1.6665
18078SOL     OW57731   8.906  10.945   5.664  0.2932 -0.0149  0.6531
18078SOL    HW157732   8.840  10.876   5.664 -0.7022  0.8519 -1.4618
18078SOL    HW257733   8.870  11.013   5.720  0.4857 -0.5038  1.3745
18079SOL     OW57734   2.863   4.477   4.421 -0.5155  0.1555 -0.1826
18079SOL    HW157735   2.947   4.439   4.394 -1.3201  0.4433 -3.5180
18079SOL    HW257736   2.883   4.568   4.439 -0.1196  0.2637 -1.1257
18080SOL     OW57737  10.646   2.066   6.282  0.1538  0.8012  0.3142
18080SOL    HW157738  10.598   2.141   6.249 -2.1646  0.5544  2.7278
18080SOL    HW257739  10.666   2.089   6.373 -0.2162 -1.2641  0.9762
18081SOL     OW57740   0.366   7.191   0.130 -0.2532 -0.4117 -0.1876
18081SOL    HW157741   0.348   7.242   0.051 -1.1080 -1.3673 -0.6247
18081SOL    HW257742   0.396   7.256   0.194 -1.1201  0.6096 -0.7888
18082SOL     OW57743   1.620   7.554   7.755  0.1691  0.0205  0.2633
18082SOL    HW157744   1.582   7.637   7.727 -0.3228 -0.6596 -1.2448
18082SOL    HW257745   1.578   7.535   7.839 -0.3611  0.8792  0.2017
18083SOL     OW57746  10.120   5.718   0.055  0.4752 -0.2268  0.6392
18083SOL    HW157747  10.064   5.794   0.040  0.7772 -0.3355 -1.3853
18083SOL    HW257748  10.059   5.647   0.075  0.0544  0.1448  0.6994
18084SOL     OW57749   6.969   3.216   0.133  0.1486 -0.0679 -0.0262
18084SOL    HW157750   6.980   3.264   0.215  0.5754 -1.3197  0.6835
18084SOL    HW257751   7.059   3.203   0.101 -0.0439  0.8724 -0.9798
18085SOL     OW57752   7.744   0.349   3.954  0.1784 -0.1407 -0.2707
18085SOL    HW157753   7.703   0.382   4.035 -0.2207 -0.0707 -0.5018
18085SOL    HW257754   7.798   0.422   3.924 -1.6330  0.7918 -1.4337
18086SOL     OW57755   2.143   3.315   7.261 -0.2824 -0.5947  0.6446
18086SOL    HW157756   2.228   3.341   7.296 -1.2868 -0.3952  3.0909
18086SOL    HW257757   2.094   3.397   7.253  0.3276 -0.4104 -2.7515
18087SOL     OW57758  10.416   2.955   6.555 -0.5758 -0.3309 -0.5874
18087SOL    HW157759  10.418   3.050   6.550 -0.1592 -0.3169 -0.1252
18087SOL    HW257760  10.341   2.935   6.610  0.6125 -0.1972  1.1370
18088SOL     OW57761   8.377   2.665   0.658 -0.2347 -0.2962  0.0317
18088SOL    HW157762   8.454   2.638   0.707  0.1337 -0.6429 -0.7173
18088SOL    HW257763   8.372   2.759   0.670  0.9993 -0.0983 -0.8772
18089SOL     OW57764   1.688   4.602   7.958 -0.2899  0.3085  0.0206
18089SOL    HW157765   1.607   4.626   7.914 -0.6285  0.9941  0.9828
18089SOL    HW257766   1.724   4.685   7.990 -0.0672 -0.1636  1.0298
18090SOL     OW57767   9.559   9.393   4.266  0.0211  0.3205  0.0262
18090SOL    HW157768   9.573   9.479   4.227  2.4417 -0.1524 -0.2730
18090SOL    HW257769   9.543   9.412   4.359  1.4387  1.0868  0.1454
18091SOL     OW57770   6.863   8.826   7.909 -0.2633 -0.0007  1.1868
18091SOL    HW157771   6.881   8.891   7.842 -0.0543 -2.2118 -1.0687
18091SOL    HW257772   6.770   8.835   7.927  0.1540  2.2624  2.5278
18092SOL     OW57773   4.206   8.068   8.501  0.0730  0.1211  0.3967
18092SOL    HW157774   4.287   8.049   8.548 -0.0921 -0.2747  0.5250
18092SOL    HW257775   4.217   8.026   8.415  0.3361  0.7636  0.1093
18093SOL     OW57776   3.573   8.723   6.595  0.0887  0.4512 -0.3918
18093SOL    HW157777   3.520   8.799   6.572 -0.0919  0.7180  0.8343
18093SOL    HW257778   3.512   8.664   6.640  0.5909  0.2867  0.0808
18094SOL     OW57779   6.108   5.891   5.216  0.2128 -0.0462  0.2844
18094SOL    HW157780   6.018   5.864   5.233  0.0260  0.3072 -0.1196
18094SOL    HW257781   6.100   5.961   5.151  0.8290 -0.5352 -0.3256
18095SOL     OW57782   1.604   5.386   3.575 -0.6993  0.5283 -0.7081
18095SOL    HW157783   1.607   5.292   3.554 -1.6935 -0.0395  1.3803
18095SOL    HW257784   1.532   5.421   3.522 -1.6795 -0.3542 -0.0019
18096SOL     OW57785   8.179   2.655   4.798  0.6388  0.4753 -0.2153
18096SOL    HW157786   8.119   2.581   4.797 -0.0923  1.0206  0.8954
18096SOL    HW257787   8.232   2.643   4.877  0.9982  0.7620 -0.4093
18097SOL     OW57788   7.864   3.809   1.122  0.6094  0.2226  0.0011
18097SOL    HW157789   7.837   3.888   1.168  0.4124 -0.8778  1.8711
18097SOL    HW257790   7.783   3.760   1.109  0.7041  0.3776 -1.3103
18098SOL     OW57791   8.455   4.229   4.474 -0.1902 -0.0359 -0.5366
18098SOL    HW157792   8.487   4.157   4.420 -0.5233 -0.9547  0.4600
18098SOL    HW257793   8.359   4.225   4.465 -0.2210  0.1361 -0.3043
18099SOL     OW57794   8.139   9.506  10.997  0.2598  0.4146 -0.4779
18099SOL    HW157795   8.197   9.464  10.933 -1.1052  0.1185 -1.5677
18099SOL    HW257796   8.188   9.502  11.079  1.1136 -1.2914 -1.0148
18100SOL     OW57797   0.885  10.502   6.224 -0.3540 -0.3728 -0.3545
18100SOL    HW157798   0.850  10.452   6.150 -0.9391  0.9585 -1.0014
18100SOL    HW257799   0.979  10.482   6.224 -0.8711 -3.2406  0.8143
18101SOL     OW57800   1.380   3.079   3.075  0.1984 -0.3671 -0.0678
18101SOL    HW157801   1.289   3.100   3.096  0.1967 -0.7448  0.3397
18101SOL    HW257802   1.396   2.997   3.123  1.3048  0.6343  1.3448
18102SOL     OW57803   8.343   6.847   5.493 -0.6337 -0.5233  0.1031
18102SOL    HW157804   8.413   6.797   5.451  1.2435  2.5092 -0.7138
18102SOL    HW257805   8.275   6.854   5.426  0.8507  1.3183 -1.3285
18103SOL     OW57806   0.747   4.308   1.622  0.2402 -0.2531 -0.2559
18103SOL    HW157807   0.710   4.240   1.679 -1.1382 -0.1832 -1.0253
18103SOL    HW257808   0.684   4.317   1.551  1.0995  0.8490 -0.9175
18104SOL     OW57809   1.420   7.389   3.803  0.3331 -0.4788  0.4154
18104SOL    HW157810   1.421   7.379   3.898  0.9007 -2.6815  0.2379
18104SOL    HW257811   1.511   7.410   3.781  0.0134  0.9580  0.4171
18105SOL     OW57812   7.893   6.416   5.008 -0.1224  0.5316 -0.4226
18105SOL    HW157813   7.798   6.424   5.019  0.1282  1.7815  1.0353
18105SOL    HW257814   7.927   6.404   5.097  0.8520 -3.4750 -1.1051
18106SOL     OW57815   2.808  10.409   4.113 -0.0463 -0.1570 -0.6497
18106SOL    HW157816   2.868  10.430   4.042 -0.2463  0.7844 -0.5566
18106SOL    HW257817   2.791  10.493   4.156  0.7428 -0.8108  1.0591
18107SOL     OW57818   5.461   5.989   4.155 -0.0368  0.2336 -0.7451
18107SOL    HW157819   5.499   5.922   4.212  0.4760  1.1113  0.0024
18107SOL    HW257820   5.495   6.072   4.191 -2.8969  1.1332  0.1675
18108SOL     OW57821   4.857   7.683   8.401 -0.2631 -0.0133  0.2266
18108SOL    HW157822   4.842   7.589   8.390 -1.4853  0.4163 -2.7551
18108SOL    HW257823   4.894   7.711   8.317 -1.9574  2.5009  0.2158
18109SOL     OW57824   8.743   2.424   7.152  0.5946  0.7919  0.0316
18109SOL    HW157825   8.783   2.350   7.108 -0.4763  0.1868  0.0561
18109SOL    HW257826   8.797   2.499   7.126  0.6910  0.2766 -1.3495
18110SOL     OW57827   4.368   8.285   0.625 -0.0079  0.0569 -0.2147
18110SOL    HW157828   4.278   8.279   0.656 -0.6080  0.1851 -1.8448
18110SOL    HW257829   4.390   8.378   0.628  0.1719  0.0004  0.4101
18111SOL     OW57830   9.342   9.506   7.868 -0.3412 -0.0674  0.1188
18111SOL    HW157831   9.387   9.461   7.940 -0.0897  1.4953  0.9923
18111SOL    HW257832   9.313   9.589   7.907 -0.6194  0.6099 -1.4628
18112SOL     OW57833   7.440   7.293   3.957 -0.4999 -0.1882 -0.1057
18112SOL    HW157834   7.406   7.370   3.912 -0.3271  1.2690  2.0946
18112SOL    HW257835   7.521   7.322   3.997  0.5462 -2.0797 -0.7330
18113SOL     OW57836   6.761   2.622  10.834 -0.5056 -0.3845 -0.0749
18113SOL    HW157837   6.674   2.585  10.815 -0.1340 -0.6128 -1.4142
18113SOL    HW257838   6.817   2.545  10.847 -0.3117 -0.2549 -0.1400
18114SOL     OW57839   9.823   0.874   5.174  0.1143 -0.4114 -0.0170
18114SOL    HW157840   9.889   0.805   5.187 -1.1889 -1.4150  1.7406
18114SOL    HW257841   9.768   0.841   5.103 -0.5925 -1.2900  0.9139
18115SOL     OW57842   9.392   3.094   3.725  0.1203  0.4066  0.6571
18115SOL    HW157843   9.475   3.082   3.771  0.6392  2.1920  0.2406
18115SOL    HW257844   9.410   3.161   3.659 -1.3772  0.0448 -0.1715
18116SOL     OW57845   4.955   5.324   5.151  0.6617  0.6519  0.3296
18116SOL    HW157846   4.972   5.392   5.086 -0.8071  1.0169  0.3070
18116SOL    HW257847   4.867   5.293   5.132  1.4015 -1.5024  0.1553
18117SOL     OW57848   2.230   4.524   6.646 -0.2314 -0.6048  0.1056
18117SOL    HW157849   2.179   4.604   6.636  1.3979  0.4573 -0.2300
18117SOL    HW257850   2.279   4.538   6.728  0.2367 -1.1497 -0.0754
18118SOL     OW57851   6.296   7.195   1.551  0.4615 -0.2997  0.1869
18118SOL    HW157852   6.317   7.190   1.458  1.3498  1.8622  0.2152
18118SOL    HW257853   6.336   7.276   1.580 -0.2461 -0.6702  2.3631
18119SOL     OW57854   6.062   1.674   0.023 -0.4347 -0.0032 -0.2713
18119SOL    HW157855   6.055   1.748   0.083  2.4304  1.9868 -2.1461
18119SOL    HW257856   6.136   1.623   0.058 -0.3920 -0.2599 -0.7313
18120SOL     OW57857   4.520   2.874  10.085  0.4658  0.3980  0.3624
18120SOL    HW157858   4.523   2.943  10.019  2.0013 -0.4492 -0.5129
18120SOL    HW257859   4.561   2.915  10.162 -1.8598  1.5784  1.0630
18121SOL     OW57860   9.498  10.553   9.185 -0.1138 -0.1503  0.3396
18121SOL    HW157861   9.547  10.474   9.208 -0.5026 -0.6007 -0.3358
18121SOL    HW257862   9.564  10.622   9.180  0.8425 -1.1405 -2.5977
18122SOL     OW57863   6.502   3.352   9.778 -0.5964  0.0737 -0.2682
18122SOL    HW157864   6.444   3.388   9.845  1.9835  2.5046  0.8794
18122SOL    HW257865   6.550   3.282   9.821 -1.4188 -0.7700 -0.6967
18123SOL     OW57866  10.247  10.730   5.562  0.7673 -0.6763 -0.0118
18123SOL    HW157867  10.284  10.802   5.511  1.2444 -2.5452 -2.5354
18123SOL    HW257868  10.306  10.720   5.636  2.6205 -0.5360 -1.3952
18124SOL     OW57869   0.526   3.403   3.318 -0.0100 -0.5947 -0.2769
18124SOL    HW157870   0.606   3.351   3.323  0.3316  0.0247  1.3157
18124SOL    HW257871   0.456   3.344   3.347 -0.0354 -0.9472 -1.0521
18125SOL     OW57872   9.908   6.725   8.295  0.4154 -0.2288  0.3637
18125SOL    HW157873   9.820   6.754   8.273  1.2272  0.7767 -1.7947
18125SOL    HW257874   9.898   6.680   8.379 -2.3490 -1.2954 -0.4347
18126SOL     OW57875   6.930   9.436   0.519  0.1971  0.0183  0.1636
18126SOL    HW157876   6.844   9.408   0.488 -0.3547  1.0865  0.6936
18126SOL    HW257877   6.985   9.433   0.440 -0.1587 -1.2371 -0.0624
18127SOL     OW57878  10.563   8.190  10.265 -0.3927  0.1559  0.6963
18127SOL    HW157879  10.575   8.283  10.250 -0.8259  0.2100  0.6856
18127SOL    HW257880  10.485   8.167  10.216  0.1919 -0.3953 -0.0013
18128SOL     OW57881   9.333   7.596   4.650 -0.0038  0.0276 -0.1698
18128SOL    HW157882   9.401   7.663   4.643 -2.1401  2.3011 -0.8720
18128SOL    HW257883   9.257   7.642   4.687 -1.7992 -1.8189 -1.3135
18129SOL     OW57884   6.815   5.953   1.804 -0.2276  0.3826  0.1105
18129SOL    HW157885   6.899   5.987   1.771 -0.5144 -1.5900 -3.0257
18129SOL    HW257886   6.839   5.874   1.852 -0.1742  0.6545  0.5321
18130SOL     OW57887   1.929   7.598   5.872  0.1925 -0.0090  0.4235
18130SOL    HW157888   1.869   7.650   5.925  0.9473  0.8885  0.4312
18130SOL    HW257889   1.890   7.511   5.870 -0.3523  0.1858  1.6243
18131SOL     OW57890   5.298   8.999   9.503 -0.5625 -0.1715  0.3405
18131SOL    HW157891   5.273   8.909   9.483  0.3362 -0.1742 -0.8623
18131SOL    HW257892   5.277   9.009   9.596 -2.7902 -0.8900 -0.0031
18132SOL     OW57893  10.685   6.184   0.646  0.1329 -0.3528  0.4690
18132SOL    HW157894  10.753   6.196   0.579  1.1836  0.1229  1.5965
18132SOL    HW257895  10.732   6.150   0.722 -1.2094 -1.8893  0.6741
18133SOL     OW57896   8.209  11.009   8.760  0.2252  0.2643  0.4535
18133SOL    HW157897   8.289  10.997   8.710 -0.3185 -0.5355 -0.2646
18133SOL    HW257898   8.167  10.922   8.760 -0.4880  0.5949  1.0588
18134SOL     OW57899  10.874  10.148   3.140 -0.5317  0.4052 -0.0066
18134SOL    HW157900  10.783  10.174   3.150 -0.9708 -0.6470 -0.9412
18134SOL    HW257901  10.870  10.059   3.103  0.8625  0.5193 -0.5311
18135SOL     OW57902   6.593   7.890   1.985  0.2775 -0.0017  0.3191
18135SOL    HW157903   6.588   7.848   1.899 -0.1347 -0.6413  0.6413
18135SOL    HW257904   6.542   7.832   2.043  1.9826 -0.5409  1.3689
18136SOL     OW57905   4.929   3.345  10.789  0.1002 -0.1670 -0.1775
18136SOL    HW157906   4.978   3.274  10.748 -1.0569 -0.3363 -1.3401
18136SOL    HW257907   4.994   3.413  10.806  1.0145 -1.0317 -0.1326
18137SOL     OW57908   4.366   2.564  10.616  0.4526 -0.1206  0.1581
18137SOL    HW157909   4.287   2.512  10.632 -0.1176  0.0340 -1.8807
18137SOL    HW257910   4.437   2.511  10.653 -0.3124 -1.5609 -0.3563
18138SOL     OW57911   4.186   1.256   1.145  0.6989  0.1038  0.3248
18138SOL    HW157912   4.215   1.252   1.236 -0.1899 -0.6351  0.5942
18138SOL    HW257913   4.107   1.310   1.147  0.4762 -0.2003  0.0619
18139SOL     OW57914   6.431   9.839   2.392 -0.6043  0.1903 -0.3240
18139SOL    HW157915   6.363   9.782   2.430  0.1489  0.0426  0.8534
18139SOL    HW257916   6.430   9.818   2.299 -1.9518 -0.0444 -0.2783
18140SOL     OW57917   2.437   8.448   9.568  0.5274 -0.2670  0.7857
18140SOL    HW157918   2.362   8.470   9.514 -0.0864 -0.1399  1.6711
18140SOL    HW257919   2.436   8.352   9.573  1.6035 -0.3982 -0.8234
18141SOL     OW57920  10.433   5.646   2.037  0.1461 -0.2938  0.0658
18141SOL    HW157921  10.489   5.571   2.056 -0.1554 -0.8156 -1.0331
18141SOL    HW257922  10.344   5.615   2.052  0.0186 -0.1688 -0.4277
18142SOL     OW57923   8.018   3.504   7.588 -0.2982 -0.2878  0.3560
18142SOL    HW157924   8.022   3.510   7.493  0.9790  0.5537  0.4276
18142SOL    HW257925   8.004   3.411   7.606  2.0610 -0.9272 -0.6495
18143SOL     OW57926   0.304   5.429   1.002  0.3260  0.0786  0.5246
18143SOL    HW157927   0.353   5.506   0.971 -0.2351  0.3490  0.3074
18143SOL    HW257928   0.230   5.465   1.050  0.5793 -0.3369  1.2375
18144SOL     OW57929   3.639  10.167   0.831  0.1897 -0.1748  0.5405
18144SOL    HW157930   3.564  10.120   0.795  0.3559 -1.3192  1.6167
18144SOL    HW257931   3.603  10.213   0.908 -0.0252  1.7157 -0.6142
18145SOL     OW57932   6.123  10.559   4.189 -0.0907  0.2128 -0.5636
18145SOL    HW157933   6.094  10.633   4.136  1.2124 -0.0669 -1.7512
18145SOL    HW257934   6.051  10.497   4.186 -0.5785  0.7841 -0.8831
18146SOL     OW57935   0.470   0.679   6.238  0.1413  0.7871  0.0731
18146SOL    HW157936   0.448   0.759   6.286 -0.3507 -0.1862  1.5524
18146SOL    HW257937   0.387   0.634   6.225  0.1938  1.2660 -2.2358
18147SOL     OW57938   2.565  10.697   2.194 -0.1785  0.7723 -0.2471
18147SOL    HW157939   2.630  10.723   2.259 -0.4585 -0.9952  0.8113
18147SOL    HW257940   2.503  10.643   2.242  0.1524 -1.4599 -2.1379
18148SOL     OW57941  10.649   1.143   2.782 -0.0535  0.3858  0.4175
18148SOL    HW157942  10.715   1.084   2.743  0.3560  0.7371  0.5673
18148SOL    HW257943  10.700   1.219   2.810 -0.7736  1.4492 -1.0649
18149SOL     OW57944   8.220   8.469   7.153  0.0462  0.3632 -0.0442
18149SOL    HW157945   8.286   8.402   7.134  0.6004  0.1499  2.3145
18149SOL    HW257946   8.269   8.550   7.162 -0.4526  0.8500 -1.4364
18150SOL     OW57947   7.472  10.854   3.546 -0.0274  1.1807 -0.0826
18150SOL    HW157948   7.545  10.798   3.571  0.3256  1.6976  0.0781
18150SOL    HW257949   7.436  10.813   3.468 -0.8377 -0.1884  0.9602
18151SOL     OW57950   2.811   4.510   6.870  0.1422  0.1052  0.2509
18151SOL    HW157951   2.845   4.518   6.780 -1.0540  1.0013 -0.1396
18151SOL    HW257952   2.731   4.562   6.870  0.2650  0.3236  1.9257
18152SOL     OW57953   0.206   9.037   1.604 -0.4671  0.1163  0.0786
18152SOL    HW157954   0.275   8.992   1.652 -0.1003 -0.4389 -0.9453
18152SOL    HW257955   0.193   9.120   1.652 -0.5881 -0.6945  1.5033
18153SOL     OW57956   3.748   7.319   5.161 -0.1747  0.2212  0.2985
18153SOL    HW157957   3.699   7.245   5.123 -0.1307 -0.9800  2.4236
18153SOL    HW257958   3.798   7.280   5.232 -0.5556  2.3813  1.8522
18154SOL     OW57959   8.706   9.232   8.433  0.2453  0.4050 -0.0278
18154SOL    HW157960   8.725   9.316   8.391  1.5291  0.0753 -0.1542
18154SOL    HW257961   8.722   9.248   8.526 -0.5399  0.5717  0.0834
18155SOL     OW57962   0.949   1.490   1.797  0.0338  0.5585 -0.4651
18155SOL    HW157963   0.863   1.527   1.816 -0.3287 -1.5612  3.0955
18155SOL    HW257964   0.942   1.398   1.824  2.7646 -0.3130 -2.3121
18156SOL     OW57965   6.393   0.725   6.407 -0.0100  0.2228 -0.3481
18156SOL    HW157966   6.367   0.644   6.451  1.1082  0.7446  1.3716
18156SOL    HW257967   6.321   0.785   6.424  0.4844  0.4720  0.9858
18157SOL     OW57968   9.970   9.067   9.300  0.6083 -0.1709  0.1098
18157SOL    HW157969   9.928   9.027   9.376  2.4255 -1.3212  0.5694
18157SOL    HW257970   9.981   9.159   9.325 -0.5867 -0.0873  0.4098
18158SOL     OW57971   4.196   3.043   5.577  0.2491  0.4227 -0.3467
18158SOL    HW157972   4.127   2.977   5.570  0.1108  0.5082  0.2163
18158SOL    HW257973   4.271   3.003   5.532 -0.5746  0.9162 -2.2674
18159SOL     OW57974   2.599   3.020   4.633  0.2721  0.1498  0.1786
18159SOL    HW157975   2.628   2.938   4.671 -1.0224  0.0896  1.0979
18159SOL    HW257976   2.677   3.076   4.633  0.0562  0.9176  4.9598
18160SOL     OW57977  10.357  10.181   9.460  0.0373  0.0255 -0.4318
18160SOL    HW157978  10.290  10.191   9.527 -2.3493 -0.2415 -2.6491
18160SOL    HW257979  10.388  10.091   9.468 -2.5765 -1.0744 -1.6413
18161SOL     OW57980   5.594   9.793   1.199  0.5873 -0.5581 -0.5063
18161SOL    HW157981   5.563   9.703   1.194  0.7446 -0.7706  1.5618
18161SOL    HW257982   5.622   9.804   1.290  2.6282  0.9199 -1.2408
18162SOL     OW57983   9.765   9.670   9.051  0.3074  0.1092 -0.1356
18162SOL    HW157984   9.688   9.706   9.094 -0.7642 -0.6144 -1.3910
18162SOL    HW257985   9.730   9.612   8.983  1.9580 -0.6451 -0.3893
18163SOL     OW57986  10.720   0.190   4.013 -0.1747 -0.4483  0.0542
18163SOL    HW157987  10.651   0.219   4.073 -1.0458  1.8094 -1.8733
18163SOL    HW257988  10.788   0.257   4.021 -0.2569 -0.1637 -1.3123
18164SOL     OW57989   2.194   8.339   8.429 -0.3396 -0.1583  0.0477
18164SOL    HW157990   2.253   8.399   8.475  0.0240  1.5974 -2.5334
18164SOL    HW257991   2.146   8.394   8.368 -1.1808 -2.2795 -1.3058
18165SOL     OW57992   3.242   3.414   5.579 -0.1150 -0.1818  0.7266
18165SOL    HW157993   3.228   3.473   5.505  0.9337 -0.0511  0.6095
18165SOL    HW257994   3.190   3.451   5.650 -0.9387 -0.1676  0.1314
18166SOL     OW57995   8.460   9.239   3.983  0.0551  0.0397  0.9516
18166SOL    HW157996   8.428   9.181   4.052  1.2223 -1.0105  0.6384
18166SOL    HW257997   8.549   9.209   3.965  0.6581  1.8429  0.6683
18167SOL     OW57998   3.069  10.913   4.061  0.3411  0.7736 -0.5053
18167SOL    HW157999   3.026  10.892   3.978  0.3338  0.1765 -0.3555
18167SOL    HW258000   3.093  10.828   4.097  0.0076  1.0107  0.2882
18168SOL     OW58001   8.816   7.278   1.526  0.2979  0.0466 -0.6402
18168SOL    HW158002   8.850   7.238   1.607 -2.2293 -1.7426 -0.3287
18168SOL    HW258003   8.735   7.320   1.553 -0.4457 -0.3333 -2.1850
18169SOL     OW58004   0.789   5.071   0.743  0.0042  0.4261 -0.1580
18169SOL    HW158005   0.752   5.080   0.831  0.8059  2.1288  0.0329
18169SOL    HW258006   0.881   5.051   0.757 -0.1665 -0.7744 -0.6355
18170SOL     OW58007   6.957   3.171   7.638  0.1817 -0.1006  0.8728
18170SOL    HW158008   6.919   3.107   7.578  2.1341 -1.0325  0.5373
18170SOL    HW258009   6.883   3.202   7.691 -1.4907  0.2354 -1.5087
18171SOL     OW58010   1.401   1.484   0.584  0.0519 -0.6262  0.4642
18171SOL    HW158011   1.493   1.509   0.571 -0.0796 -0.7528 -0.8200
18171SOL    HW258012   1.378   1.437   0.504 -1.0167 -0.9655  0.9608
18172SOL     OW58013   9.774  10.232   1.092  0.0826  0.4249  0.4193
18172SOL    HW158014   9.758  10.326   1.100  0.7148  0.7146 -1.3920
18172SOL    HW258015   9.703  10.192   1.142 -1.2708  1.8374 -0.2794
18173SOL     OW58016   4.708   8.947   1.455 -0.2066  0.9714 -0.3226
18173SOL    HW158017   4.632   8.925   1.401 -0.7103  0.6213  0.5095
18173SOL    HW258018   4.677   8.939   1.545  0.8803  0.6289  0.0373
18174SOL     OW58019   0.914   8.449   9.367 -0.3023  0.5696 -0.0224
18174SOL    HW158020   0.909   8.460   9.462 -2.5806 -1.3729  0.1780
18174SOL    HW258021   0.985   8.387   9.353 -1.5097 -1.0552  0.7021
18175SOL     OW58022   5.322  10.579   8.034  0.2530 -0.3050  0.1847
18175SOL    HW158023   5.234  10.592   7.998  0.4220 -0.7180 -0.3921
18175SOL    HW258024   5.309  10.564   8.127 -0.2151  0.5822  0.2682
18176SOL     OW58025   9.824   6.986   1.710 -0.4390 -0.0594 -0.3285
18176SOL    HW158026   9.910   6.991   1.668 -0.5560 -0.9816 -0.7007
18176SOL    HW258027   9.779   7.066   1.683  0.3404  0.4821 -0.0308
18177SOL     OW58028   1.665   2.559  10.295 -0.2393  0.3379 -0.4377
18177SOL    HW158029   1.682   2.639  10.246 -1.4675  0.2636 -1.0086
18177SOL    HW258030   1.663   2.490  10.230  0.6318 -0.1563  0.0332
18178SOL     OW58031   2.009   5.668   6.052  0.2091 -0.1216 -0.5188
18178SOL    HW158032   2.034   5.702   6.139  2.0106 -0.7762 -0.7276
18178SOL    HW258033   1.914   5.676   6.050  0.0873 -0.2507  1.5979
18179SOL     OW58034   8.391   8.420   4.877  0.0685 -0.1338 -0.1420
18179SOL    HW158035   8.462   8.358   4.858 -0.9810 -0.7269 -2.6072
18179SOL    HW258036   8.317   8.364   4.901 -0.1838  0.3438  0.2005
18180SOL     OW58037   9.856   0.458   0.081  0.8198  0.1594  0.0026
18180SOL    HW158038   9.924   0.427   0.022  1.0069  1.2897 -0.3960
18180SOL    HW258039   9.838   0.547   0.052  0.9847  0.7874  1.7139
18181SOL     OW58040   0.105   7.899   0.278 -0.4073 -0.1616  0.3341
18181SOL    HW158041   0.137   7.810   0.294 -0.7203 -0.3266  0.0608
18181SOL    HW258042   0.011   7.894   0.296 -0.2521  0.3897  1.4245
18182SOL     OW58043  10.249   4.098   9.194 -0.1807  0.1482 -0.9277
18182SOL    HW158044  10.207   4.163   9.136 -0.1493  0.5628 -0.4883
18182SOL    HW258045  10.230   4.129   9.282  2.2712  1.1584 -0.6836
18183SOL     OW58046   6.441   2.021   5.356 -0.2240  0.0086 -0.2996
18183SOL    HW158047   6.496   1.953   5.317  0.8898  0.5528  0.2791
18183SOL    HW258048   6.469   2.026   5.447 -0.8339  0.7082 -0.1359
18184SOL     OW58049   7.910   4.878   2.867  0.4852 -0.2198  0.0770
18184SOL    HW158050   7.836   4.817   2.866 -0.8239  1.2548  1.1990
18184SOL    HW258051   7.879   4.951   2.921  2.4431  0.8713 -0.2067
18185SOL     OW58052   1.936   5.565   7.245  0.3507 -0.0464 -0.0973
18185SOL    HW158053   1.974   5.647   7.276 -0.7632  0.4852 -0.0812
18185SOL    HW258054   1.844   5.587   7.226  0.1170 -1.2115 -0.3880
18186SOL     OW58055   6.175   8.748   6.345  0.0912  0.5073  0.5847
18186SOL    HW158056   6.215   8.711   6.266 -0.2104 -0.2840  0.7919
18186SOL    HW258057   6.109   8.684   6.371  1.2962 -0.1015  2.4244
18187SOL     OW58058   8.185   4.052   9.404  0.2470 -0.4981 -0.2243
18187SOL    HW158059   8.222   4.125   9.454 -1.3191  0.4020 -0.2958
18187SOL    HW258060   8.261   4.004   9.372  1.3012  0.0437  1.3571
18188SOL     OW58061   5.845   7.395   3.801  0.2149  0.1120 -0.1017
18188SOL    HW158062   5.874   7.412   3.712 -1.6029  1.5491 -0.4926
18188SOL    HW258063   5.798   7.312   3.795  2.5835 -1.3316  0.1909
18189SOL     OW58064   6.267   5.417   9.899  0.1880 -0.2146  0.1452
18189SOL    HW158065   6.217   5.426   9.980 -0.4093 -1.2041 -0.0933
18189SOL    HW258066   6.350   5.379   9.926  0.3732  0.3850  0.4142
18190SOL     OW58067   7.375   1.616   1.441 -0.0307  0.3430 -0.1527
18190SOL    HW158068   7.454   1.606   1.388 -0.5527 -1.5106 -0.6474
18190SOL    HW258069   7.318   1.543   1.415 -0.0609 -1.1214  3.3688
18191SOL     OW58070   9.640   1.997  10.209  0.1073 -0.2078 -0.2278
18191SOL    HW158071   9.611   1.967  10.296 -1.1745  0.3546 -0.4392
18191SOL    HW258072   9.559   2.009  10.160  0.5780  2.6683 -0.4750
18192SOL     OW58073   4.307   8.831   6.942  0.1436 -0.9213  0.2885
18192SOL    HW158074   4.372   8.820   6.873 -0.1214 -0.4157 -0.0522
18192SOL    HW258075   4.223   8.834   6.895 -0.3507 -3.5112  0.8572
18193SOL     OW58076  10.835   6.183  10.672  0.2158  0.1071 -0.3415
18193SOL    HW158077  10.804   6.241  10.603 -1.3785 -2.0731 -1.5979
18193SOL    HW258078  10.818   6.230  10.753  1.2440  2.3433 -1.3446
18194SOL     OW58079   8.180   4.946  10.426  0.6074  0.0881  0.3441
18194SOL    HW158080   8.274   4.934  10.438  0.3951 -0.8401  1.1949
18194SOL    HW258081   8.141   4.867  10.462 -0.5515  0.8064  0.7248
18195SOL     OW58082   4.846   6.180   3.397  0.2992 -0.0020  0.4206
18195SOL    HW158083   4.788   6.243   3.438  0.9053  1.1122 -0.3996
18195SOL    HW258084   4.918   6.168   3.459 -0.8334 -1.5151  1.5157
18196SOL     OW58085   1.947   4.488   7.969 -0.0814 -0.6879 -0.2176
18196SOL    HW158086   2.000   4.567   7.963 -1.9660  0.9136  2.0922
18196SOL    HW258087   1.857   4.519   7.964 -0.9170 -2.4854  1.9147
18197SOL     OW58088   7.094   3.046   5.014 -0.1976 -0.6763  0.0669
18197SOL    HW158089   7.163   2.995   5.057  0.5330 -0.1364 -0.4421
18197SOL    HW258090   7.016   2.989   5.018 -0.2240 -0.5451  2.2657
18198SOL     OW58091  10.271   4.586   8.270 -0.1074  0.1979 -0.6016
18198SOL    HW158092  10.365   4.571   8.284 -0.7206 -0.7020  4.3518
18198SOL    HW258093  10.231   4.500   8.282 -1.7805  1.1410  1.0817
18199SOL     OW58094   7.030  10.143   9.104 -0.4714  0.2896  0.5668
18199SOL    HW158095   7.112  10.105   9.073 -1.4402 -1.5313  0.1184
18199SOL    HW258096   6.997  10.193   9.030 -0.0866  0.5281  0.5504
18200SOL     OW58097  10.475   3.942  10.252  0.2857  0.3626 -0.5054
18200SOL    HW158098  10.527   3.988  10.186 -1.3233  1.5459 -1.0438
18200SOL    HW258099  10.469   3.852  10.220  0.1510  0.7468 -1.6247
18201SOL     OW58100   3.817   5.032   5.153  0.1301  0.5061  0.3612
18201SOL    HW158101   3.897   4.983   5.170 -0.3634 -0.1405  0.8353
18201SOL    HW258102   3.758   4.970   5.110 -1.2068  0.0492  2.6714
18202SOL     OW58103   3.332  10.842   2.834 -0.1172 -0.5093 -0.4769
18202SOL    HW158104   3.320  10.900   2.759 -0.6256 -1.1040 -0.8613
18202SOL    HW258105   3.410  10.791   2.813  2.9325  2.7659  1.6469
18203SOL     OW58106   5.881   3.832   6.405 -0.2507  0.5884  0.2231
18203SOL    HW158107   5.881   3.838   6.500 -0.2567 -0.1254  0.2711
18203SOL    HW258108   5.936   3.756   6.385 -2.7403 -1.2250 -0.1875
18204SOL     OW58109   6.123   3.618   4.252  0.4114 -0.9747 -0.0489
18204SOL    HW158110   6.052   3.575   4.204 -0.4001 -0.0565  0.2888
18204SOL    HW258111   6.097   3.711   4.255  1.2252 -0.7575  0.7797
18205SOL     OW58112  10.378   8.518   4.736 -0.2559 -0.2746 -0.1490
18205SOL    HW158113  10.468   8.538   4.711 -0.6643  3.7265  0.9506
18205SOL    HW258114  10.383   8.502   4.831 -0.8489  1.8526  0.2884
18206SOL     OW58115   6.749   6.744   3.227  0.2149 -0.0725  0.2412
18206SOL    HW158116   6.809   6.779   3.161  1.3199 -0.1355  1.1808
18206SOL    HW258117   6.697   6.819   3.253  0.7475  0.2750  0.3189
18207SOL     OW58118   6.635   7.639  10.507  0.1000  0.1287  0.4864
18207SOL    HW158119   6.632   7.708  10.440  0.3799 -0.7298 -0.4374
18207SOL    HW258120   6.727   7.637  10.535 -0.0183  0.4910  0.9041
18208SOL     OW58121   7.425   8.923   3.340 -0.5051 -0.5241  0.7371
18208SOL    HW158122   7.339   8.925   3.382 -1.2060  2.8039 -0.5559
18208SOL    HW258123   7.463   9.009   3.359  0.6231 -0.2013 -2.3213
18209SOL     OW58124   1.108   0.920  10.486  0.5561 -0.8002  0.0981
18209SOL    HW158125   1.179   0.981  10.470 -0.8337  0.6794 -0.8360
18209SOL    HW258126   1.126   0.883  10.572  1.8977  0.2911  0.3179
18210SOL     OW58127   1.552   7.274   3.303  0.2550  0.3008  0.3388
18210SOL    HW158128   1.610   7.320   3.242 -0.3059  0.5453 -0.0153
18210SOL    HW258129   1.493   7.342   3.335 -0.8808 -0.2469 -0.5385
18211SOL     OW58130   8.878   4.804   3.313 -0.2093  0.0717 -0.2009
18211SOL    HW158131   8.797   4.787   3.265 -0.2028 -2.6661  0.5631
18211SOL    HW258132   8.929   4.724   3.302 -0.0092 -0.5661  3.8815
18212SOL     OW58133   6.907   5.956   4.020 -0.7547  0.5555 -0.1824
18212SOL    HW158134   6.845   5.910   3.963  0.9059 -2.5029  0.2738
18212SOL    HW258135   6.871   5.946   4.108  0.0578 -0.7613  0.0224
18213SOL     OW58136   8.465  10.533   7.888 -0.0719 -0.5288  0.3624
18213SOL    HW158137   8.518  10.462   7.851  0.2227  0.0232 -0.2908
18213SOL    HW258138   8.480  10.607   7.830 -0.0772  0.1864  1.2602
18214SOL     OW58139   5.547   1.067   2.872 -0.3979  0.5878  0.5973
18214SOL    HW158140   5.494   0.989   2.857  1.3726 -0.9039  1.6518
18214SOL    HW258141   5.635   1.042   2.842  0.3063  2.0258  1.3665
18215SOL     OW58142   5.691   7.089   9.721 -0.2620 -0.2964  0.1874
18215SOL    HW158143   5.691   7.158   9.655 -0.2513  0.1870  0.6848
18215SOL    HW258144   5.617   7.033   9.698 -0.1293 -0.2577 -0.3544
18216SOL     OW58145   5.840   8.925   5.887 -0.0776 -0.3720 -0.1525
18216SOL    HW158146   5.813   8.960   5.972 -0.5258 -0.5015 -0.2386
18216SOL    HW258147   5.887   8.844   5.908  2.3492  1.0112  0.1604
18217SOL     OW58148   6.072   4.090  10.531  0.2827 -0.5198  0.0093
18217SOL    HW158149   6.103   4.039  10.606 -0.1134 -1.0769 -0.1976
18217SOL    HW258150   5.995   4.042  10.500 -0.4165  0.4807  0.1267
18218SOL     OW58151   5.386   8.213   1.653  0.2757  0.2340 -0.0632
18218SOL    HW158152   5.458   8.199   1.590 -0.7892  1.9770 -1.7494
18218SOL    HW258153   5.430   8.245   1.732  1.4074  0.8292 -0.8977
18219SOL     OW58154   0.870   7.625  10.412  0.1713  0.0652  0.3070
18219SOL    HW158155   0.952   7.669  10.388  0.7201 -1.3903 -0.6295
18219SOL    HW258156   0.898   7.553  10.469 -0.7793  1.3015  2.4619
18220SOL     OW58157   6.842   6.982   7.658 -0.9053  0.5724  0.1739
18220SOL    HW158158   6.865   7.075   7.664  1.9095  0.0791 -1.4615
18220SOL    HW258159   6.815   6.970   7.567 -0.9030 -0.2785  0.2815
18221SOL     OW58160   8.827   5.543  10.767  0.4081 -0.3278  0.0959
18221SOL    HW158161   8.820   5.622  10.714  1.1250  0.7179  1.5189
18221SOL    HW258162   8.740   5.502  10.760 -0.2530  1.0357  0.0568
18222SOL     OW58163   7.788   8.287   7.604 -0.1001  0.0559  0.3126
18222SOL    HW158164   7.695   8.282   7.583 -0.4964  0.1866  1.9027
18222SOL    HW258165   7.806   8.381   7.607  0.5037  0.0435 -1.5753
18223SOL     OW58166   9.550  10.947   5.752  0.1883 -0.7190  0.2282
18223SOL    HW158167   9.495  10.943   5.673 -2.8497 -1.0807  2.2139
18223SOL    HW258168   9.574  10.856   5.769  0.2254 -0.7273  0.1352
18224SOL     OW58169   3.594   8.460   5.749 -0.1757  0.3302 -0.2169
18224SOL    HW158170   3.578   8.549   5.716 -0.1467  0.4591  0.1143
18224SOL    HW258171   3.565   8.403   5.678  1.2371  0.6283 -1.0848
18225SOL     OW58172   3.053   5.077   4.296 -0.0915 -0.7218  0.3233
18225SOL    HW158173   3.043   5.039   4.209 -2.9919  1.9851 -0.7132
18225SOL    HW258174   3.147   5.091   4.305  0.2893 -0.9467 -2.4678
18226SOL     OW58175   6.152   7.139   5.512 -0.6195  0.0864 -0.8712
18226SOL    HW158176   6.158   7.055   5.558 -2.7799 -0.0565 -0.7616
18226SOL    HW258177   6.060   7.147   5.488 -1.3393  3.9780  2.1495
18227SOL     OW58178   6.948   0.741   1.472  0.5021 -0.2051  0.4361
18227SOL    HW158179   6.971   0.757   1.564  0.6493  2.2857  0.0504
18227SOL    HW258180   6.933   0.829   1.436 -1.0435 -1.2053 -1.5550
18228SOL     OW58181   2.935   5.126   1.548 -0.3732  0.1052 -0.2478
18228SOL    HW158182   2.897   5.081   1.472 -1.4125  0.2033  0.2106
18228SOL    HW258183   3.029   5.131   1.527 -0.6615  0.3064 -1.6109
18229SOL     OW58184   1.900   8.790   6.657 -0.2372 -0.0895 -0.3643
18229SOL    HW158185   1.971   8.748   6.609 -1.1968 -0.9193 -1.1143
18229SOL    HW258186   1.826   8.789   6.596 -0.5874  1.8115 -0.0405
18230SOL     OW58187   2.559   2.605   3.936  0.1214  0.4977 -0.4494
18230SOL    HW158188   2.537   2.553   4.014 -1.1701  1.0495 -0.4247
18230SOL    HW258189   2.546   2.696   3.963  3.3551  1.0004 -0.1715
18231SOL     OW58190   3.271   3.718  10.483  0.6519  0.1492 -0.1227
18231SOL    HW158191   3.227   3.705  10.398  1.0814  2.8837 -0.8504
18231SOL    HW258192   3.222   3.788  10.525  0.2156 -1.4311  2.1437
18232SOL     OW58193   5.101   1.234   6.202  0.1284 -0.3085 -0.5120
18232SOL    HW158194   5.175   1.261   6.257  1.9658 -1.4217 -2.3117
18232SOL    HW258195   5.098   1.139   6.210 -0.0251 -0.4239 -1.7463
18233SOL     OW58196   0.223  10.524  10.155 -0.1786  0.7130  0.3710
18233SOL    HW158197   0.276  10.584  10.207 -0.4175  1.2235  0.0326
18233SOL    HW258198   0.144  10.509  10.208  0.7966 -0.9941  1.4245
18234SOL     OW58199   1.943   0.518   2.344 -0.5320  0.1599  0.4084
18234SOL    HW158200   1.871   0.502   2.284 -1.2470  2.3564  0.5832
18234SOL    HW258201   1.935   0.449   2.411  0.4991 -2.5481 -2.0484
18235SOL     OW58202   3.358   8.647   8.442 -0.0724 -0.3164 -0.1797
18235SOL    HW158203   3.268   8.623   8.460 -0.4612 -0.6947 -2.4284
18235SOL    HW258204   3.391   8.579   8.384  1.9235 -0.5811  1.1264
18236SOL     OW58205   5.886   9.030  10.356 -0.1653 -0.6346 -0.1498
18236SOL    HW158206   5.828   8.956  10.374 -0.1657 -0.2052  1.8873
18236SOL    HW258207   5.939   9.039  10.435  0.0300  1.3617 -0.4490
18237SOL     OW58208   0.546   3.963   5.422 -0.4502 -0.1210  0.0649
18237SOL    HW158209   0.490   3.903   5.472 -3.4638  2.4691  0.1275
18237SOL    HW258210   0.558   4.038   5.480 -1.0393  1.4333 -1.7240
18238SOL     OW58211   4.008   1.027   4.745 -0.7821  0.4178 -0.0034
18238SOL    HW158212   3.959   0.945   4.753 -2.3589  1.2794 -0.2794
18238SOL    HW258213   3.999   1.069   4.830 -2.2097  1.4367 -0.6069
18239SOL     OW58214  10.817   0.026   0.503 -0.1222  0.3380  0.5719
18239SOL    HW158215  10.768  -0.054   0.480 -0.4810  1.3567 -2.7102
18239SOL    HW258216  10.896  -0.007   0.545 -0.9235 -1.6724  0.6675
18240SOL     OW58217   2.067   1.466   3.334  0.1951  0.0356  0.3255
18240SOL    HW158218   2.024   1.467   3.420 -0.0918  0.5465  0.1762
18240SOL    HW258219   2.093   1.556   3.318  0.7653 -0.1574  0.1241
18241SOL     OW58220   0.336   4.781   1.338 -0.6015 -0.2231  0.3917
18241SOL    HW158221   0.378   4.758   1.255  0.5766 -1.6676  1.3253
18241SOL    HW258222   0.362   4.872   1.354  0.6845 -0.5002  0.0394
18242SOL     OW58223   4.164   2.223   8.093 -0.1372 -0.0781 -0.7019
18242SOL    HW158224   4.230   2.158   8.117 -0.3634  0.0064  0.1745
18242SOL    HW258225   4.214   2.298   8.062  0.1665 -0.1396 -0.3684
18243SOL     OW58226   0.646   4.817   7.943 -0.4878 -0.1607  0.3930
18243SOL    HW158227   0.604   4.901   7.957 -0.9974 -0.1876 -0.9162
18243SOL    HW258228   0.733   4.839   7.909 -1.0305 -0.1628 -1.0384
18244SOL     OW58229   1.889   9.123   5.720  0.9093 -0.0651  0.1381
18244SOL    HW158230   1.898   9.215   5.692 -0.6361 -0.5944 -2.4294
18244SOL    HW258231   1.832   9.127   5.797 -1.7963  1.0318 -1.7431
18245SOL     OW58232   6.908   6.274  10.325 -0.5379  0.2063  0.1873
18245SOL    HW158233   6.941   6.235  10.244 -0.0507  1.5639 -0.2921
18245SOL    HW258234   6.814   6.279  10.313 -0.6985 -1.4258  0.5451
18246SOL     OW58235   8.785   8.812  10.938 -0.0001 -0.1599  0.0539
18246SOL    HW158236   8.869   8.766  10.939  0.1738  0.1153 -0.6165
18246SOL    HW258237   8.760   8.820  11.030  0.0862 -1.3543  0.1964
18247SOL     OW58238   7.877   8.077  10.352  0.4729  0.2440  0.2477
18247SOL    HW158239   7.900   8.141  10.285 -3.8896  1.8382 -0.0676
18247SOL    HW258240   7.910   8.116  10.434  1.6207  0.6843 -0.3976
18248SOL     OW58241   0.405   3.376   7.430  0.1829  0.2501 -0.4728
18248SOL    HW158242   0.373   3.379   7.340  0.3602 -1.8464 -0.6481
18248SOL    HW258243   0.391   3.285   7.457  0.7754  0.6801  1.3868
18249SOL     OW58244   0.298   3.807   0.673 -0.8877  0.0133  0.4657
18249SOL    HW158245   0.336   3.783   0.589 -0.5367 -0.8910  0.8655
18249SOL    HW258246   0.207   3.780   0.667 -0.9520  0.2650  0.2630
18250SOL     OW58247   4.891   0.768   1.351 -0.6763 -0.2062  0.2766
18250SOL    HW158248   4.960   0.740   1.291 -0.3141 -0.7065  0.9207
18250SOL    HW258249   4.923   0.851   1.387 -0.1775 -0.6757  0.9390
18251SOL     OW58250   7.187   8.861   7.808  0.2008 -0.1329  0.0077
18251SOL    HW158251   7.106   8.911   7.811 -0.5330 -1.3278  1.3946
18251SOL    HW258252   7.241   8.906   7.743 -0.8657  1.7235  0.3489
18252SOL     OW58253   3.491   6.677   5.768 -0.2877 -0.1207  0.3019
18252SOL    HW158254   3.553   6.621   5.814 -0.1684 -0.8608 -0.7261
18252SOL    HW258255   3.407   6.660   5.811 -0.0764 -0.3340  0.6381
18253SOL     OW58256   7.607   8.630   7.520  0.3031 -0.1947 -0.1569
18253SOL    HW158257   7.601   8.609   7.427  1.7524 -2.0356  0.0833
18253SOL    HW258258   7.523   8.602   7.557  0.4786 -1.4250 -0.6288
18254SOL     OW58259  10.410   1.498   4.629  0.2708  0.0645 -0.0896
18254SOL    HW158260  10.485   1.462   4.582  0.4114 -0.5069  0.5653
18254SOL    HW258261  10.419   1.466   4.719 -1.7763 -1.6550 -0.4008
18255SOL     OW58262   4.884  10.545   3.951  0.5507 -0.4332 -0.5343
18255SOL    HW158263   4.831  10.550   3.871  0.1865  1.4638 -0.2289
18255SOL    HW258264   4.910  10.453   3.957  1.6311 -0.4505 -3.5028
18256SOL     OW58265   8.080   2.095  10.771  0.5254 -0.0860 -0.0653
18256SOL    HW158266   8.025   2.024  10.804  0.4010 -0.3979 -0.9178
18256SOL    HW258267   8.019   2.154  10.727  0.2472  1.8389  2.6307
18257SOL     OW58268   9.422   0.774   8.708 -0.4153  0.3365 -0.0672
18257SOL    HW158269   9.517   0.779   8.712  0.0344 -3.8746 -0.4652
18257SOL    HW258270   9.402   0.778   8.614 -0.8425  2.3175  0.0605
18258SOL     OW58271   0.069   2.152   8.340  0.0815  0.5279  0.1884
18258SOL    HW158272   0.160   2.172   8.362 -0.0914 -0.0224  1.5106
18258SOL    HW258273   0.070   2.060   8.313  0.0862  0.8405 -0.9034
18259SOL     OW58274   4.743   1.466   3.741  0.4444  0.1366 -0.4566
18259SOL    HW158275   4.744   1.471   3.837  1.6726 -3.0640 -0.1700
18259SOL    HW258276   4.817   1.521   3.714  0.7069  0.2740  0.4971
18260SOL     OW58277  10.866   4.099   6.256 -0.0351  0.6353 -0.3080
18260SOL    HW158278  10.901   4.108   6.345 -0.2036 -0.1305 -0.1608
18260SOL    HW258279  10.923   4.155   6.203  1.0347 -0.1127  0.0308
18261SOL     OW58280   6.227   1.045   0.050  0.2081 -0.3969 -0.2485
18261SOL    HW158281   6.192   1.094   0.125  1.0894 -1.4932  0.9155
18261SOL    HW258282   6.149   1.005   0.010 -0.2942  0.3440 -0.0326
18262SOL     OW58283   6.540   5.957   4.310  0.0504  0.3433 -0.0841
18262SOL    HW158284   6.575   6.032   4.262 -1.9040  1.2478 -0.1979
18262SOL    HW258285   6.451   5.946   4.275 -0.2236 -1.1058  0.9789
18263SOL     OW58286   3.354   1.314   3.651 -0.1519 -0.8182  0.9961
18263SOL    HW158287   3.307   1.350   3.576  0.7306 -1.6254  0.0266
18263SOL    HW258288   3.324   1.367   3.725 -1.5554 -0.4467  0.2036
18264SOL     OW58289   1.228   6.932   1.445 -0.0434 -0.0427  0.3430
18264SOL    HW158290   1.220   6.853   1.391 -2.5716 -0.4811  1.1940
18264SOL    HW258291   1.246   7.002   1.382  2.0076 -1.1873 -0.4560
18265SOL     OW58292   8.401   0.455   2.383 -0.2719 -0.0212  0.2810
18265SOL    HW158293   8.411   0.540   2.427 -2.0944  0.0634  0.6015
18265SOL    HW258294   8.355   0.400   2.446  0.2657 -1.0467 -0.1941
18266SOL     OW58295   8.462   9.953   0.202  0.1194  0.4209 -0.4537
18266SOL    HW158296   8.429   9.898   0.131  1.4884 -0.2789 -0.5970
18266SOL    HW258297   8.400  10.025   0.208 -1.5145 -0.9094 -0.5524
18267SOL     OW58298   7.992   2.751   1.103 -0.3727 -0.4927  0.1387
18267SOL    HW158299   8.078   2.776   1.136 -0.4479 -0.7499  0.5422
18267SOL    HW258300   7.931   2.774   1.174 -0.6986  0.1272 -0.3295
18268SOL     OW58301   9.446   0.386   7.022 -0.0229  0.3391 -0.4797
18268SOL    HW158302   9.501   0.309   7.032  0.1980  0.6701  1.1979
18268SOL    HW258303   9.393   0.368   6.944 -0.0587 -1.5481 -0.0686
18269SOL     OW58304   8.041   7.121   6.995 -0.3192 -0.2235  0.4417
18269SOL    HW158305   8.124   7.076   7.011 -0.4034 -0.1762  1.0172
18269SOL    HW258306   8.040   7.135   6.900 -0.2480 -1.3520  0.2510
18270SOL     OW58307   8.170   2.533   9.544  0.3671 -0.4728 -0.2460
18270SOL    HW158308   8.135   2.515   9.457  1.2888 -0.8202 -0.5563
18270SOL    HW258309   8.093   2.533   9.601 -0.2186 -0.4898 -1.0143
18271SOL     OW58310   1.925   3.091   8.769  0.7718  0.2191 -0.2295
18271SOL    HW158311   1.984   3.166   8.768  0.6621  0.4209  2.2332
18271SOL    HW258312   1.909   3.071   8.677  2.5528  1.8201 -0.9367
18272SOL     OW58313   8.868   8.331   0.671 -0.0416 -0.2593  0.3843
18272SOL    HW158314   8.845   8.312   0.762  0.5003 -1.9763  0.1981
18272SOL    HW258315   8.786   8.322   0.623  0.1489 -2.0139  0.3461
18273SOL     OW58316   6.866   5.151   1.936 -0.1921  0.5477 -0.0718
18273SOL    HW158317   6.857   5.091   2.011  0.2791  1.3158  0.6114
18273SOL    HW258318   6.829   5.233   1.967  2.6697  1.7776  0.4163
18274SOL     OW58319   9.741   3.457   7.223 -0.6958 -0.5120  0.3423
18274SOL    HW158320   9.834   3.437   7.210 -1.0015 -1.2987 -0.7397
18274SOL    HW258321   9.717   3.407   7.301 -0.4155 -1.0084  0.1165
18275SOL     OW58322   0.057   1.317   2.009 -0.2944 -0.0784 -0.8413
18275SOL    HW158323   0.142   1.350   1.980 -0.1475 -0.0552 -0.3993
18275SOL    HW258324   0.074   1.227   2.037 -0.7608 -0.6788 -2.3709
18276SOL     OW58325  10.122   2.440   8.267  0.8076  0.7812  0.2053
18276SOL    HW158326  10.141   2.470   8.356 -1.0592  0.7187  0.6691
18276SOL    HW258327  10.045   2.491   8.241  1.2804  0.7366 -1.3510
18277SOL     OW58328   9.438   9.087   2.753 -0.0850 -0.3383 -0.6677
18277SOL    HW158329   9.434   8.996   2.724 -0.1380  0.4961 -3.5967
18277SOL    HW258330   9.362   9.129   2.713  0.0893  1.0799  0.3941
18278SOL     OW58331   6.310  10.076   1.470 -0.5565  0.0539 -0.4234
18278SOL    HW158332   6.221  10.044   1.461  0.4383 -2.9476 -0.5751
18278SOL    HW258333   6.343  10.035   1.550  0.1594  2.6997  0.7853
18279SOL     OW58334   8.360   6.541   2.027  0.4876  0.0958  0.0580
18279SOL    HW158335   8.309   6.460   2.031  0.4343  0.1670  0.9670
18279SOL    HW258336   8.318   6.599   2.090 -0.7480  1.5991 -1.9842
18280SOL     OW58337   6.107   5.973   2.109  0.4946  0.4723 -0.0507
18280SOL    HW158338   6.124   5.939   2.196  0.3571 -0.5519 -0.4152
18280SOL    HW258339   6.012   5.989   2.107  0.7416  2.2379  0.5823
18281SOL     OW58340   6.605   1.356   7.280  0.3530 -0.5667 -0.0110
18281SOL    HW158341   6.662   1.418   7.327  4.6071 -3.7665 -0.3934
18281SOL    HW258342   6.646   1.348   7.193 -2.4146 -1.0731 -1.3653
18282SOL     OW58343   3.724   2.032   4.231 -0.4002 -0.5827 -0.2707
18282SOL    HW158344   3.695   1.975   4.302 -1.1842  0.0978 -0.0274
18282SOL    HW258345   3.720   2.120   4.267 -0.9139 -0.2165 -1.1819
18283SOL     OW58346   6.061   8.356  10.191  0.0075  0.1419  0.4503
18283SOL    HW158347   6.037   8.446  10.214 -0.5331  0.1943 -0.2721
18283SOL    HW258348   6.149   8.363  10.153 -0.9512  0.7567 -1.8573
18284SOL     OW58349   1.985   4.504   4.296 -0.1861  0.2063  0.3575
18284SOL    HW158350   2.047   4.476   4.362  1.0789 -0.7792 -1.1915
18284SOL    HW258351   1.948   4.423   4.261 -0.9490  0.7141 -0.0562
18285SOL     OW58352   1.541   9.307   6.278  0.4326 -0.6737  0.1775
18285SOL    HW158353   1.525   9.242   6.346  3.2771 -1.3231  0.3698
18285SOL    HW258354   1.460   9.309   6.227  0.2505 -4.5451  0.0144
18286SOL     OW58355   3.241   4.940   9.970 -0.5576 -0.0785  0.3142
18286SOL    HW158356   3.184   4.931   9.894 -1.2354  3.3691  0.2692
18286SOL    HW258357   3.304   5.008   9.944  2.6324 -2.5503  0.9820
18287SOL     OW58358   5.502   4.100   7.308  0.1081 -0.1185 -0.5258
18287SOL    HW158359   5.576   4.089   7.249  1.7937 -1.1271  1.6267
18287SOL    HW258360   5.445   4.026   7.288  0.2985 -0.0542 -1.3437
18288SOL     OW58361   1.320   4.332   9.049  0.2765  0.3869 -0.2695
18288SOL    HW158362   1.393   4.295   9.098 -0.3035  0.6341  0.8327
18288SOL    HW258363   1.273   4.257   9.015  0.0818  0.1511  0.4910
18289SOL     OW58364   5.313   0.389   4.558  0.2211 -0.4533 -0.0735
18289SOL    HW158365   5.298   0.441   4.637  1.9609 -0.4876  0.3300
18289SOL    HW258366   5.273   0.440   4.487 -0.7560 -0.0819  0.7259
18290SOL     OW58367   8.100  10.059   7.651  0.0221 -0.0881 -0.1142
18290SOL    HW158368   8.061   9.977   7.682 -0.6828  0.3096  0.0676
18290SOL    HW258369   8.182  10.066   7.700 -0.1019 -0.4829  0.1604
18291SOL     OW58370   7.292   6.055   6.820 -0.4170  0.2451 -0.1573
18291SOL    HW158371   7.362   6.115   6.846 -1.4270  0.5770  1.9355
18291SOL    HW258372   7.231   6.109   6.769  0.4318  0.1179 -1.3623
18292SOL     OW58373   5.139   8.795   1.202  0.2171  0.5601 -0.0313
18292SOL    HW158374   5.157   8.743   1.281 -1.6852 -1.2018 -0.6742
18292SOL    HW258375   5.054   8.836   1.220  0.0229  0.5693 -0.9435
18293SOL     OW58376  10.016   6.589   7.604  0.3434  0.1235  0.3796
18293SOL    HW158377   9.943   6.645   7.629 -1.4015 -1.5473 -0.7911
18293SOL    HW258378  10.005   6.510   7.657  1.3803 -0.1048  0.2791
18294SOL     OW58379   0.912   3.435   9.549  0.3401 -0.3724  0.3524
18294SOL    HW158380   0.917   3.483   9.632  0.3940 -0.9370  0.6784
18294SOL    HW258381   0.970   3.360   9.561 -0.3592 -0.9560  0.1388
18295SOL     OW58382   2.890   4.763   3.775  0.1764  0.1684  0.7710
18295SOL    HW158383   2.814   4.705   3.775  0.2450  0.0785  0.3012
18295SOL    HW258384   2.952   4.722   3.835 -0.4728  0.6713  1.8151
18296SOL     OW58385   5.414   4.836   0.487 -0.8395 -0.1026  0.6057
18296SOL    HW158386   5.326   4.858   0.456 -1.2531  1.5032  2.6567
18296SOL    HW258387   5.473   4.879   0.426 -1.5451  0.5413  0.3590
18297SOL     OW58388   5.817   0.889   5.413  0.1701  0.0330  0.2611
18297SOL    HW158389   5.884   0.851   5.355 -1.1155 -1.0635 -0.5627
18297SOL    HW258390   5.753   0.927   5.353 -0.2445  0.5511  1.0276
18298SOL     OW58391   5.979   0.324   6.966  0.6163 -0.4018  0.0268
18298SOL    HW158392   6.060   0.353   6.925 -0.1507  0.8192 -0.7163
18298SOL    HW258393   5.951   0.249   6.914  2.1283 -1.9801  1.3681
18299SOL     OW58394   3.370   0.950   7.908  0.0684  0.3326  0.0946
18299SOL    HW158395   3.352   0.923   7.998 -1.4026 -2.0358 -0.8050
18299SOL    HW258396   3.412   0.874   7.868 -0.1163  1.0077 -1.4395
18300SOL     OW58397   9.145   9.556   3.669  0.0076  0.4989  0.3231
18300SOL    HW158398   9.232   9.564   3.708  0.7985  0.6542 -1.3642
18300SOL    HW258399   9.153   9.483   3.608 -0.1906  2.1362 -1.8117
18301SOL     OW58400   6.530   5.032   0.049  0.2773  0.5156  0.0313
18301SOL    HW158401   6.551   4.951   0.097 -2.1436  0.8448  1.8454
18301SOL    HW258402   6.588   5.098   0.087  3.1666 -0.4237 -2.3010
18302SOL     OW58403   7.943   1.009   0.533  0.5341 -0.5963  0.0046
18302SOL    HW158404   7.932   0.932   0.590 -0.8095 -0.0015  0.5976
18302SOL    HW258405   7.859   1.016   0.487  1.0335 -0.1022 -0.8677
18303SOL     OW58406   9.727   5.465   1.145  0.2859  0.3358 -0.2680
18303SOL    HW158407   9.813   5.429   1.124 -0.1741 -1.5393  0.8315
18303SOL    HW258408   9.730   5.483   1.239 -0.7791 -0.6314 -0.0179
18304SOL     OW58409   7.970   8.249   8.658 -0.1680  0.3318  0.0594
18304SOL    HW158410   7.964   8.343   8.677  0.6435  0.3484  0.2801
18304SOL    HW258411   8.064   8.231   8.657 -0.3235 -0.5157  0.1861
18305SOL     OW58412   5.361   2.670   8.461  0.2849  0.1968  0.3238
18305SOL    HW158413   5.350   2.756   8.420  0.4832  0.0853  0.0287
18305SOL    HW258414   5.386   2.688   8.551  0.1456  0.4459  0.3122
18306SOL     OW58415  10.384   9.979  10.099 -0.1661  0.6968  0.4240
18306SOL    HW158416  10.392  10.075  10.105  1.0253  0.6005  0.6768
18306SOL    HW258417  10.295   9.961  10.129 -0.3811  1.7261  0.4548
18307SOL     OW58418   2.431   6.493   3.144  0.0365 -0.3322 -0.0801
18307SOL    HW158419   2.440   6.585   3.166 -0.2269 -0.5716  1.1314
18307SOL    HW258420   2.342   6.470   3.170  0.2657 -1.0398  0.1086
18308SOL     OW58421   4.592   0.029   6.330  0.0087 -0.0336 -0.1446
18308SOL    HW158422   4.534   0.024   6.254  1.1482 -1.4078 -0.9758
18308SOL    HW258423   4.536   0.011   6.405 -1.0609  0.9754 -0.6821
18309SOL     OW58424   8.357   6.681   0.263  0.1077  0.0492  0.1346
18309SOL    HW158425   8.374   6.635   0.346 -0.0803  0.8307  0.6172
18309SOL    HW258426   8.265   6.705   0.267  0.1726  0.3537 -0.1718
18310SOL     OW58427   4.948   3.434  10.399  0.1238 -0.3901 -0.5448
18310SOL    HW158428   4.926   3.342  10.411  1.3479 -0.6405 -0.0388
18310SOL    HW258429   4.905   3.459  10.317 -0.2603 -1.3906 -0.6632
18311SOL     OW58430  10.309   7.062   9.408  0.5024 -0.1641  0.1240
18311SOL    HW158431  10.269   7.128   9.351 -2.5116  2.4044  4.5566
18311SOL    HW258432  10.387   7.105   9.443  1.5492 -1.1647 -0.9244
18312SOL     OW58433   6.873   8.935   2.454  0.0945  0.5732  0.3259
18312SOL    HW158434   6.958   8.915   2.416  0.5122  1.6439  0.6696
18312SOL    HW258435   6.856   9.026   2.430 -0.8392  0.4547  0.4804
18313SOL     OW58436   3.700   9.669   3.550  0.1562 -0.5172  0.4463
18313SOL    HW158437   3.737   9.757   3.540  1.3003 -1.1916 -2.1199
18313SOL    HW258438   3.612   9.684   3.585 -0.0221  1.7470 -0.7471
18314SOL     OW58439   1.387   6.361   1.531 -0.1592  0.0508 -0.3918
18314SOL    HW158440   1.370   6.365   1.437 -0.0076  1.1592 -0.3775
18314SOL    HW258441   1.446   6.286   1.541 -0.7119 -0.4934 -1.0905
18315SOL     OW58442   0.317   1.968   6.553 -0.3459 -0.0564  0.9975
18315SOL    HW158443   0.403   1.929   6.571  0.5901 -0.0550 -2.7838
18315SOL    HW258444   0.320   2.053   6.597  1.4271 -0.2443  1.3175
18316SOL     OW58445   6.944   9.434   4.635 -0.3043 -0.1769  0.0251
18316SOL    HW158446   6.944   9.356   4.580  3.6110  0.0515 -0.5955
18316SOL    HW258447   6.948   9.400   4.725  3.0488 -0.9508 -0.2645
18317SOL     OW58448   7.462   6.267   1.465  0.1004 -0.5213  1.1359
18317SOL    HW158449   7.408   6.194   1.436  0.9466  0.0106 -2.2776
18317SOL    HW258450   7.431   6.342   1.414  1.6331  0.6276  1.8045
18318SOL     OW58451   8.518   4.810   1.705 -0.2600  0.0045 -0.1641
18318SOL    HW158452   8.453   4.873   1.735 -3.0934 -2.7062 -0.1313
18318SOL    HW258453   8.482   4.724   1.730  3.5510 -1.6917  0.1752
18319SOL     OW58454   2.311   9.596   9.549  0.3475  0.2580 -0.1407
18319SOL    HW158455   2.258   9.589   9.470  1.3896 -0.9882 -0.7659
18319SOL    HW258456   2.248   9.591   9.621 -0.5314  0.5023 -0.8755
18320SOL     OW58457   4.668   4.509   9.013 -0.0320 -0.2843  0.6423
18320SOL    HW158458   4.669   4.489   8.920  0.4100  1.5579  0.2003
18320SOL    HW258459   4.678   4.604   9.017  1.1108 -0.4312  2.6182
18321SOL     OW58460   1.150   4.256   3.610 -0.1113 -0.4854  0.6688
18321SOL    HW158461   1.095   4.178   3.614  1.8086 -1.9107  0.3001
18321SOL    HW258462   1.149   4.290   3.699 -0.5142 -1.2623  0.9694
18322SOL     OW58463   5.459   9.557   6.035 -0.1217  0.1301  0.1225
18322SOL    HW158464   5.526   9.583   5.971 -0.5988 -3.3211 -2.0309
18322SOL    HW258465   5.506   9.504   6.099 -0.4237 -0.5258 -0.1920
18323SOL     OW58466   3.047   7.362   7.417  0.2480  0.6933 -0.3019
18323SOL    HW158467   3.108   7.322   7.479  0.6606  0.7130 -0.6944
18323SOL    HW258468   2.987   7.291   7.394  0.8908  0.3216 -0.8854
18324SOL     OW58469   8.946   7.478   2.693  0.6419 -0.0769 -0.8544
18324SOL    HW158470   9.021   7.538   2.693  0.6744 -0.1160 -0.7289
18324SOL    HW258471   8.892   7.508   2.766  0.7744 -0.3418 -0.6425
18325SOL     OW58472   3.789   8.749   0.095 -0.3680 -0.0768 -0.1936
18325SOL    HW158473   3.838   8.703   0.027  2.2841  1.8842  0.2495
18325SOL    HW258474   3.811   8.703   0.176  1.7743  1.4059  0.1576
18326SOL     OW58475   2.982   8.466   7.374  0.2802  0.8449  0.4494
18326SOL    HW158476   2.964   8.553   7.410 -1.2983  0.6490  0.2066
18326SOL    HW258477   2.937   8.466   7.289 -2.1856 -1.1313  1.6227
18327SOL     OW58478   9.248   7.802  10.826 -0.0178  0.1398 -0.3518
18327SOL    HW158479   9.214   7.736  10.765 -2.6070  2.3122 -1.4651
18327SOL    HW258480   9.170   7.849  10.856  1.6775  2.5407  0.5549
18328SOL     OW58481   2.383   8.318   3.476  0.3572  0.2248  0.0120
18328SOL    HW158482   2.358   8.352   3.562  0.1748  0.9889 -0.3295
18328SOL    HW258483   2.477   8.339   3.469 -0.2151  2.8277 -1.1220
18329SOL     OW58484   8.424  10.308   4.072 -0.4791 -0.1646  0.3157
18329SOL    HW158485   8.403  10.214   4.074 -2.7966  0.0330 -3.7764
18329SOL    HW258486   8.345  10.351   4.103  0.3959  0.5076  1.7006
18330SOL     OW58487   0.093   5.020   5.405  0.2059 -0.3679  0.5207
18330SOL    HW158488   0.087   4.950   5.471 -1.2373  0.9380  1.8563
18330SOL    HW258489   0.171   5.069   5.429 -0.9714  0.8595  2.1588
18331SOL     OW58490   0.445   2.652   7.546  0.1022 -0.1272  0.1908
18331SOL    HW158491   0.507   2.722   7.569  0.6404 -0.6469  0.3648
18331SOL    HW258492   0.381   2.653   7.617  0.9879 -0.8224  1.0328
18332SOL     OW58493   4.853  10.737   5.649 -0.0461  0.0555  0.2691
18332SOL    HW158494   4.875  10.768   5.737 -1.3077 -0.3784  0.7705
18332SOL    HW258495   4.810  10.811   5.607  0.4319  0.2187  0.0669
18333SOL     OW58496   3.519   1.353   4.378 -0.3832 -0.1979 -0.0196
18333SOL    HW158497   3.517   1.370   4.472 -0.5279 -0.3778  0.0120
18333SOL    HW258498   3.610   1.330   4.359 -0.4524 -0.6406  0.1670
18334SOL     OW58499   6.658   1.597   7.756  0.0867 -0.4566  0.1575
18334SOL    HW158500   6.701   1.682   7.753  1.8524 -1.3024  0.0874
18334SOL    HW258501   6.729   1.535   7.778 -1.1453 -1.8983  0.2325
18335SOL     OW58502   1.957  10.224   9.027  0.3392 -0.1314  0.9613
18335SOL    HW158503   1.992  10.156   9.085  0.5019 -1.4647 -0.6272
18335SOL    HW258504   2.032  10.282   9.012  0.2116  0.4257  2.2962
18336SOL     OW58505   6.464   9.663   9.118  0.4293  0.0596 -0.2031
18336SOL    HW158506   6.500   9.698   9.037 -2.1927  2.0773 -0.6385
18336SOL    HW258507   6.489   9.728   9.185  1.0646 -0.6764  0.2931
18337SOL     OW58508   3.690   1.822   3.262 -0.4066 -0.0503 -0.4446
18337SOL    HW158509   3.622   1.810   3.196 -1.1032 -0.8846  0.4018
18337SOL    HW258510   3.688   1.742   3.314  1.2913 -0.1373 -0.4494
18338SOL     OW58511   6.023   0.503   7.508  0.4514  0.5693 -0.1140
18338SOL    HW158512   6.030   0.508   7.413 -0.8831  0.4191 -0.2317
18338SOL    HW258513   6.108   0.468   7.536 -0.6352 -3.9611 -1.6313
18339SOL     OW58514   0.686   4.999   3.051 -0.4458 -0.5521 -0.1760
18339SOL    HW158515   0.759   5.061   3.056  0.1000 -1.2217  0.5458
18339SOL    HW258516   0.716   4.932   2.990 -0.3082 -0.9951  0.3653
18340SOL     OW58517   0.565   3.768   1.248  0.1499 -0.3747 -0.1034
18340SOL    HW158518   0.519   3.821   1.184 -2.2478  1.5992  2.9528
18340SOL    HW258519   0.498   3.710   1.285  1.2834 -1.0233  1.0530
18341SOL     OW58520   3.209   6.760   6.711  0.3647 -0.6060  0.1951
18341SOL    HW158521   3.289   6.709   6.694  1.0749  0.2881  0.7613
18341SOL    HW258522   3.237   6.830   6.769 -1.4355 -1.9663  2.8893
18342SOL     OW58523   5.651   9.391   9.785 -0.0597  0.1621  0.7053
18342SOL    HW158524   5.636   9.376   9.879 -0.2746  1.3256  0.8796
18342SOL    HW258525   5.609   9.317   9.742 -0.2387 -0.2251  1.5182
18343SOL     OW58526   4.934   7.619   9.190 -0.1078 -0.6324 -0.1566
18343SOL    HW158527   4.955   7.561   9.116 -0.9701 -1.6489  0.3735
18343SOL    HW258528   4.916   7.560   9.263  0.2215  0.3485  0.7355
18344SOL     OW58529   8.087   1.237   0.523  0.5227 -0.1357 -0.1108
18344SOL    HW158530   8.165   1.183   0.511 -0.2193 -1.0154 -1.2035
18344SOL    HW258531   8.020   1.175   0.552  0.2686  0.6492  1.0313
18345SOL     OW58532   0.381   9.654   5.494 -0.1374 -0.0431  0.0734
18345SOL    HW158533   0.318   9.638   5.424 -0.5405 -2.2034  0.8603
18345SOL    HW258534   0.425   9.569   5.506  1.5152  0.8901  0.9079
18346SOL     OW58535   8.627   5.613   6.258  0.7820  0.1908  0.2703
18346SOL    HW158536   8.694   5.619   6.189  3.3187  0.4477  2.6007
18346SOL    HW258537   8.658   5.672   6.326 -1.1205 -0.7680  2.0555
18347SOL     OW58538   3.438   7.529   5.743  0.2639  0.0274  0.2947
18347SOL    HW158539   3.370   7.479   5.787 -0.9562  1.1123 -0.2679
18347SOL    HW258540   3.457   7.602   5.802  2.4519 -1.3315  1.3817
18348SOL     OW58541   1.135   2.928   3.230  0.3972  0.4098 -0.3550
18348SOL    HW158542   1.093   2.858   3.180  1.1928  0.3246 -0.9283
18348SOL    HW258543   1.178   2.883   3.302  0.4455  0.3682 -0.4092
18349SOL     OW58544   6.221   2.001   5.208  0.4408  0.1714 -0.2329
18349SOL    HW158545   6.291   2.020   5.271  1.1341 -1.3059 -0.5101
18349SOL    HW258546   6.224   2.075   5.147  0.4748  1.0812  0.8374
18350SOL     OW58547   8.462  10.852  10.990  0.4380  0.0331 -0.2545
18350SOL    HW158548   8.428  10.811  11.070 -0.7063 -1.2141 -1.3327
18350SOL    HW258549   8.398  10.920  10.969  0.3360 -0.1364 -0.5003
18351SOL     OW58550   2.348   2.454   0.497 -0.2469  0.0418 -0.2833
18351SOL    HW158551   2.403   2.502   0.435 -0.3964 -1.2570 -1.4744
18351SOL    HW258552   2.410   2.402   0.549 -0.1947  0.3670 -0.0161
18352SOL     OW58553   5.184   8.368   7.600 -0.0682  0.7615 -0.5467
18352SOL    HW158554   5.186   8.315   7.521 -0.9118 -1.1023  0.5815
18352SOL    HW258555   5.092   8.365   7.628  0.0075  2.2540 -0.0502
18353SOL     OW58556   4.060   7.815   1.066 -0.6704 -0.2761  0.4266
18353SOL    HW158557   4.142   7.768   1.055 -1.6429 -1.6182 -1.7340
18353SOL    HW258558   4.063   7.885   1.001 -1.0397 -0.0453  0.6485
18354SOL     OW58559   0.961   0.955   8.462 -0.4836 -0.9550 -0.5990
18354SOL    HW158560   0.934   1.018   8.529  0.2069 -0.6773 -0.5676
18354SOL    HW258561   0.913   0.981   8.384  1.4347  1.0638 -1.2219
18355SOL     OW58562  10.445   9.910   4.405 -0.3373  0.4723 -0.3127
18355SOL    HW158563  10.442   9.914   4.310 -0.2173  1.8024 -0.2719
18355SOL    HW258564  10.407   9.824   4.426  1.3490 -0.6566 -1.6061
18356SOL     OW58565   4.824   4.001   5.821  0.0431 -0.5602 -0.4622
18356SOL    HW158566   4.780   3.963   5.745 -0.1388 -2.2710  0.4612
18356SOL    HW258567   4.908   4.033   5.787  0.0622 -1.5087 -1.3357
18357SOL     OW58568   0.050   1.090  10.459 -0.2845  0.3227 -0.4987
18357SOL    HW158569   0.056   1.016  10.519 -1.9921  1.0561  0.6636
18357SOL    HW258570   0.137   1.095  10.418  0.8453 -0.4442  1.6375
18358SOL     OW58571  10.938   7.374   5.804  0.2567 -0.0186 -0.2173
18358SOL    HW158572  10.994   7.444   5.772 -1.8419  2.6620  1.4557
18358SOL    HW258573  10.884   7.350   5.729  2.5683 -1.6904 -1.4714
18359SOL     OW58574   7.670   8.599   0.520 -0.0905 -0.0037 -0.0474
18359SOL    HW158575   7.626   8.514   0.529  0.3972 -0.2909 -0.3613
18359SOL    HW258576   7.655   8.642   0.605 -1.2711  0.0499 -0.2692
18360SOL     OW58577   6.482   2.906   9.603  0.2562 -0.8447  0.6599
18360SOL    HW158578   6.432   2.842   9.552 -0.4650  0.1474  0.0973
18360SOL    HW258579   6.445   2.901   9.691 -0.2978 -0.6819  0.4382
18361SOL     OW58580   2.868   1.565  10.157 -0.4722  0.1864  0.2846
18361SOL    HW158581   2.951   1.520  10.143  0.6076  1.6276  1.6557
18361SOL    HW258582   2.824   1.561  10.072  0.6164 -1.3406 -0.2443
18362SOL     OW58583   0.432   2.849   9.625 -0.8553  0.0074  0.2096
18362SOL    HW158584   0.484   2.867   9.546 -0.4663 -1.4682  0.0950
18362SOL    HW258585   0.416   2.935   9.664 -0.5598  0.7144 -1.1635
18363SOL     OW58586  10.943   5.096   9.826  0.4098 -0.5481  0.5888
18363SOL    HW158587  10.848   5.107   9.832  0.1415 -1.3385 -1.5271
18363SOL    HW258588  10.975   5.180   9.794  0.2738 -0.7080  0.0358
18364SOL     OW58589   0.873   5.917   7.461  0.1100  0.0699 -0.6004
18364SOL    HW158590   0.781   5.945   7.457 -0.5441 -1.5195  1.2923
18364SOL    HW258591   0.907   5.962   7.539  0.1025 -1.3871  0.2877
18365SOL     OW58592  10.879   1.958  10.947  0.5188 -0.1669  0.2137
18365SOL    HW158593  10.784   1.956  10.960  0.2434  0.1595 -1.5101
18365SOL    HW258594  10.911   1.880  10.992 -0.6227 -0.4951  0.4810
18366SOL     OW58595  10.022   1.538   8.257 -0.1962  0.7634  0.4402
18366SOL    HW158596  10.025   1.558   8.351  0.9930  0.8504  0.3967
18366SOL    HW258597   9.930   1.518   8.240 -0.1707 -0.8337  1.9406
18367SOL     OW58598   8.230   3.265   7.356 -0.7131  0.2852 -0.0665
18367SOL    HW158599   8.135   3.279   7.354 -0.5775  1.3100 -1.9993
18367SOL    HW258600   8.267   3.353   7.364  0.0890 -0.1440  1.2090
18368SOL     OW58601   9.502   3.271   2.240  0.6713  0.3814  0.2597
18368SOL    HW158602   9.550   3.344   2.201  0.0694 -0.4778 -2.2758
18368SOL    HW258603   9.538   3.193   2.197 -0.2799 -0.6172  1.2020
18369SOL     OW58604   2.680   9.823   8.740  0.9346  0.0765 -0.6766
18369SOL    HW158605   2.661   9.750   8.798  0.3259  0.2693 -0.6291
18369SOL    HW258606   2.674   9.786   8.652  1.5033 -0.1311 -0.6357
18370SOL     OW58607   8.893   2.723   6.555  0.0082 -0.4062  0.1179
18370SOL    HW158608   8.817   2.712   6.498 -0.1862 -2.1759  0.6630
18370SOL    HW258609   8.857   2.723   6.644  0.5575 -0.1968  0.3499
18371SOL     OW58610   0.596   4.684   9.646  0.1018 -0.0847 -0.1226
18371SOL    HW158611   0.598   4.775   9.616 -1.7581 -0.5141 -1.7441
18371SOL    HW258612   0.511   4.674   9.688  1.4580 -0.3572  2.7578
18372SOL     OW58613   5.709  10.015   4.085  0.3967  0.2631 -0.8265
18372SOL    HW158614   5.723  10.107   4.061 -2.4143  1.0214  0.0002
18372SOL    HW258615   5.750  10.006   4.171 -0.3907  1.1321 -0.3429
18373SOL     OW58616   3.639   2.397   7.821 -0.1305 -0.2487  0.2445
18373SOL    HW158617   3.585   2.443   7.757 -0.4819 -0.2614  0.5290
18373SOL    HW258618   3.726   2.435   7.810 -0.3999  0.4394  0.4316
18374SOL     OW58619   0.664   5.931   0.349 -0.5522 -0.2237  0.1343
18374SOL    HW158620   0.729   6.001   0.346  0.9722 -1.6125 -1.7803
18374SOL    HW258621   0.605   5.948   0.276 -1.4025  0.1309  0.8812
18375SOL     OW58622   3.014   8.906   3.274  0.6615 -0.3328 -0.0359
18375SOL    HW158623   3.096   8.889   3.319  1.8147 -0.0338 -1.9337
18375SOL    HW258624   3.038   8.959   3.199 -1.3534  0.2135 -0.3570
18376SOL     OW58625   7.216   8.956   2.520 -0.3994 -0.0181  0.4904
18376SOL    HW158626   7.301   8.912   2.519 -0.5178 -0.2461  0.3983
18376SOL    HW258627   7.236   9.048   2.503 -0.1632 -0.0582  0.5511
18377SOL     OW58628   0.158   9.650   1.733  0.3726  0.1760  0.4668
18377SOL    HW158629   0.203   9.729   1.703 -0.8418  0.8633  0.3779
18377SOL    HW258630   0.224   9.582   1.729  0.5795  0.3967 -2.9386
18378SOL     OW58631   9.299   9.914   8.202  0.2224 -0.5554  0.4471
18378SOL    HW158632   9.288  10.009   8.202 -2.5156 -0.5549 -3.9464
18378SOL    HW258633   9.391   9.900   8.180  0.4970  1.1099  0.4410
18379SOL     OW58634   7.910   3.061   1.962 -0.5584  0.1424 -0.4426
18379SOL    HW158635   7.994   3.106   1.949 -0.9087  1.8032  2.2071
18379SOL    HW258636   7.849   3.107   1.904 -0.1053  0.4321 -0.6969
18380SOL     OW58637  10.804  10.050   3.966  0.3051  0.0930  0.4596
18380SOL    HW158638  10.881  10.028   3.914  1.5236  0.7496  1.9242
18380SOL    HW258639  10.799  10.146   3.962 -2.1309  0.0037 -1.8913
18381SOL     OW58640   3.835   2.075   4.525  0.0310  0.4699 -0.7609
18381SOL    HW158641   3.910   2.077   4.467  1.3299  1.1953  0.8628
18381SOL    HW258642   3.862   2.020   4.599 -1.4006 -0.0865 -0.6066
18382SOL     OW58643   7.320   4.386   6.842  0.2330  0.1389 -0.7972
18382SOL    HW158644   7.336   4.413   6.752  1.6832  0.8788 -0.3337
18382SOL    HW258645   7.278   4.300   6.833 -2.6427  1.5490 -2.2331
18383SOL     OW58646   5.489   1.495   5.363 -0.0171  0.3480 -0.2487
18383SOL    HW158647   5.528   1.561   5.306  1.0075 -0.2606 -0.2601
18383SOL    HW258648   5.496   1.532   5.451  0.8609  0.1220 -0.2156
18384SOL     OW58649   4.623   4.394   1.983 -0.3625  0.0104 -0.1509
18384SOL    HW158650   4.679   4.423   1.911 -1.5952  0.6804 -0.8568
18384SOL    HW258651   4.605   4.473   2.034 -1.3571 -0.0316 -0.4182
18385SOL     OW58652   7.551   8.446   6.665 -0.1473 -0.1222 -0.0604
18385SOL    HW158653   7.515   8.400   6.589  0.0831 -0.1984 -0.1256
18385SOL    HW258654   7.475   8.464   6.720 -0.2374 -0.6363 -0.0091
18386SOL     OW58655   8.399   6.820   4.392  0.0027 -0.0411  0.1660
18386SOL    HW158656   8.336   6.856   4.455 -2.2176 -0.8093 -1.4946
18386SOL    HW258657   8.445   6.897   4.358 -0.1761  0.5676  1.2583
18387SOL     OW58658   2.697   2.181   4.182 -0.0255  0.3070  0.1006
18387SOL    HW158659   2.746   2.147   4.106  1.2223  1.5344  0.3039
18387SOL    HW258660   2.675   2.104   4.233 -1.1049 -0.5720 -1.6164
18388SOL     OW58661   4.049   8.107   4.540  0.5228  0.5183 -0.1348
18388SOL    HW158662   4.106   8.089   4.465 -0.1289 -1.8535 -0.1490
18388SOL    HW258663   4.093   8.066   4.614 -0.9714 -1.1558 -0.1054
18389SOL     OW58664   5.749   7.528   8.856 -0.5308 -0.2074  0.0389
18389SOL    HW158665   5.787   7.489   8.777  0.6734  1.3418 -0.2020
18389SOL    HW258666   5.722   7.615   8.828 -3.3832 -0.8714  0.4848
18390SOL     OW58667   7.587   2.371   2.635 -0.5502  0.4356  0.5726
18390SOL    HW158668   7.542   2.454   2.622 -1.8621 -0.3602 -0.2264
18390SOL    HW258669   7.671   2.382   2.592 -1.3920  0.7979 -1.0678
18391SOL     OW58670   0.090   6.511   9.697  0.3677 -0.6578 -0.3503
18391SOL    HW158671   0.101   6.465   9.780  0.0540 -0.8480 -0.4138
18391SOL    HW258672   0.056   6.445   9.637 -1.3924 -0.0476 -0.0898
18392SOL     OW58673   1.020   3.390   5.030 -0.1258 -0.6297  0.3778
18392SOL    HW158674   0.928   3.417   5.036  0.0388 -0.3628  2.4534
18392SOL    HW258675   1.069   3.472   5.023  0.0121 -0.7229  0.2350
18393SOL     OW58676   4.021   5.246   7.517  0.2864 -0.1016  0.1276
18393SOL    HW158677   3.960   5.263   7.589 -0.7219 -1.2846 -0.4008
18393SOL    HW258678   4.071   5.170   7.546 -1.9359 -2.3087 -1.3919
18394SOL     OW58679   6.517   3.193   8.874 -0.2585  0.5124 -0.4430
18394SOL    HW158680   6.560   3.142   8.942  2.1308  1.2281 -1.3162
18394SOL    HW258681   6.489   3.129   8.810 -1.0231 -0.0157  0.3901
18395SOL     OW58682   1.464   8.623   3.650 -0.6820 -0.2582 -0.1695
18395SOL    HW158683   1.512   8.567   3.710 -0.4208 -0.7296 -0.8134
18395SOL    HW258684   1.530   8.680   3.611 -0.4731 -1.4214 -1.6329
18396SOL     OW58685   4.834   6.037   2.400  0.3216 -0.3283  0.0958
18396SOL    HW158686   4.897   6.054   2.469 -0.3264 -0.1834  0.6707
18396SOL    HW258687   4.886   6.030   2.320  1.0712 -0.3966  0.5817
18397SOL     OW58688   6.707   9.969   0.102 -0.4622  0.0791 -0.7184
18397SOL    HW158689   6.640   9.956   0.035 -1.3985  1.2601 -0.0702
18397SOL    HW258690   6.665   9.940   0.183 -0.4779  1.4546 -0.2026
18398SOL     OW58691   7.933  10.489   5.155 -0.7285 -0.6367  0.2601
18398SOL    HW158692   7.960  10.479   5.064  0.2070 -1.4077  0.6065
18398SOL    HW258693   7.852  10.539   5.151 -0.6425 -0.5820 -0.9888
18399SOL     OW58694   5.273   9.262   2.080 -0.0977 -0.3092 -0.0348
18399SOL    HW158695   5.291   9.280   2.173  0.1942 -0.4169 -0.0684
18399SOL    HW258696   5.180   9.281   2.069  0.4807  2.8773 -0.4459
18400SOL     OW58697   8.475   5.609   7.078  0.5041  0.0696 -0.4610
18400SOL    HW158698   8.409   5.678   7.080  0.3626 -0.0417  2.0822
18400SOL    HW258699   8.558   5.654   7.092  0.6254 -0.1111 -0.5803
18401SOL     OW58700   1.356   5.814   8.946  0.3613 -0.1046 -0.2525
18401SOL    HW158701   1.284   5.867   8.980  1.5329  1.3571  0.0800
18401SOL    HW258702   1.352   5.826   8.851 -0.3534 -0.7471 -0.3085
18402SOL     OW58703   9.285   5.739   3.473 -0.0400 -0.2598 -0.5776
18402SOL    HW158704   9.318   5.777   3.554  1.9933  0.4241 -1.6538
18402SOL    HW258705   9.302   5.646   3.481  1.0464 -0.0741 -0.5804
18403SOL     OW58706   5.203   5.162   2.251 -0.5661 -0.5642  0.5198
18403SOL    HW158707   5.290   5.159   2.290 -0.3186 -2.0514 -0.0745
18403SOL    HW258708   5.144   5.163   2.327 -0.0441 -0.4384  0.9316
18404SOL     OW58709   6.919   2.474   4.610 -0.3093  0.0178  0.0989
18404SOL    HW158710   6.948   2.561   4.583  1.0745 -0.5834 -0.4629
18404SOL    HW258711   6.969   2.456   4.690 -1.3140  0.1098  0.7682
18405SOL     OW58712   4.521   7.570   2.322 -0.6826  0.3640  0.9325
18405SOL    HW158713   4.575   7.648   2.333  0.2041 -0.4338  2.6894
18405SOL    HW258714   4.501   7.568   2.229  2.8864  0.3789  0.0103
18406SOL     OW58715   0.729   7.946   9.073 -0.4487 -0.2754  0.1096
18406SOL    HW158716   0.742   7.964   8.980 -1.0800  0.3756  0.1398
18406SOL    HW258717   0.813   7.966   9.114 -0.0011 -1.1097 -0.3968
18407SOL     OW58718   5.122   1.295   4.728 -0.0954  0.1886 -0.0652
18407SOL    HW158719   5.171   1.242   4.791  0.4671  1.1074  0.2909
18407SOL    HW258720   5.031   1.285   4.755  0.0560 -0.1412  0.3451
18408SOL     OW58721   8.847   2.805   5.977  0.0517  0.2540  0.0277
18408SOL    HW158722   8.821   2.867   6.045  0.8232  0.2490  0.3332
18408SOL    HW258723   8.929   2.767   6.009 -0.5032 -1.0715 -0.0523
18409SOL     OW58724  10.695   7.745   4.493  0.6804  0.3914  0.3480
18409SOL    HW158725  10.760   7.786   4.551 -1.0664  2.5942  0.8870
18409SOL    HW258726  10.611   7.779   4.524 -0.5788 -0.8335 -1.5497
18410SOL     OW58727   1.516  10.048   9.194  0.2880 -0.0466  0.3704
18410SOL    HW158728   1.558   9.977   9.144 -1.2665 -1.9737  1.6286
18410SOL    HW258729   1.434  10.065   9.148 -0.0116 -0.1062  0.8692
18411SOL     OW58730   8.622   4.522   8.746 -0.4464 -0.6141 -0.1937
18411SOL    HW158731   8.631   4.541   8.840 -0.3040 -2.4878  0.2177
18411SOL    HW258732   8.559   4.587   8.715 -0.1628  0.3289  1.0917
18412SOL     OW58733   0.368   1.178   2.265 -0.3477  0.5514  0.0201
18412SOL    HW158734   0.409   1.249   2.215 -1.0507 -0.1234 -1.5854
18412SOL    HW258735   0.440   1.120   2.288 -0.1853  0.1122 -1.5259
18413SOL     OW58736   9.160   4.666   7.132 -0.1357  0.0001  0.1462
18413SOL    HW158737   9.144   4.578   7.165 -1.4505  0.3466  0.5155
18413SOL    HW258738   9.141   4.723   7.207  2.0873  0.5542  0.3421
18414SOL     OW58739   6.277   2.439   8.026 -0.0682  0.2500  0.2680
18414SOL    HW158740   6.292   2.355   7.983  1.8377  0.8343 -0.3503
18414SOL    HW258741   6.187   2.436   8.056 -1.2032 -0.6669 -2.8348
18415SOL     OW58742  10.064   0.715   1.143  0.4192 -0.3343 -0.2881
18415SOL    HW158743   9.990   0.677   1.189  0.5342 -1.4471 -0.9923
18415SOL    HW258744  10.024   0.778   1.082  0.1478 -0.1352  0.0879
18416SOL     OW58745   0.561   6.949   8.407  0.0005 -0.3208  0.1300
18416SOL    HW158746   0.504   6.980   8.337 -1.0190 -0.5091  0.8417
18416SOL    HW258747   0.645   6.932   8.365 -0.5179 -0.1931 -0.9843
18417SOL     OW58748   7.068   3.144  10.245 -0.3892  0.3042  0.1696
18417SOL    HW158749   7.130   3.071  10.253 -1.8438 -0.9927  0.1777
18417SOL    HW258750   7.043   3.144  10.152 -0.2832  0.8914  0.1421
18418SOL     OW58751   3.271   3.170   4.707 -0.3291  0.1388  0.1338
18418SOL    HW158752   3.205   3.138   4.769  0.7006 -0.2641  1.0563
18418SOL    HW258753   3.247   3.261   4.691 -0.6275  0.2522  1.1399
18419SOL     OW58754   7.608   3.914  10.110  0.2845  0.3743 -0.2068
18419SOL    HW158755   7.667   3.915  10.035 -0.3252  0.0242 -0.7097
18419SOL    HW258756   7.612   3.824  10.143 -0.4961  0.1495 -0.6906
18420SOL     OW58757   0.175   3.201   4.463 -0.2527 -0.1172 -0.6566
18420SOL    HW158758   0.174   3.230   4.372 -1.2781 -0.3331 -0.7300
18420SOL    HW258759   0.085   3.173   4.480 -0.0639 -0.1139  0.4140
18421SOL     OW58760   7.602   8.157   5.625 -0.3787  0.1970 -0.0523
18421SOL    HW158761   7.535   8.173   5.692  0.9698  0.0808  1.3705
18421SOL    HW258762   7.674   8.116   5.672  0.6037  0.0568 -1.6040
18422SOL     OW58763   4.843   9.340   1.894 -0.0515  0.2859  0.0863
18422SOL    HW158764   4.847   9.429   1.859  0.5612 -0.3282 -1.5216
18422SOL    HW258765   4.793   9.291   1.828  0.1266 -0.6781  0.6538
18423SOL     OW58766   6.646  10.630   1.188  0.3409  0.3244  0.2217
18423SOL    HW158767   6.732  10.644   1.226  0.1163  0.8497  0.5506
18423SOL    HW258768   6.632  10.706   1.131  0.0817  0.2621  0.1971
18424SOL     OW58769   6.352   4.699   3.078  0.8296  0.4757 -0.3160
18424SOL    HW158770   6.286   4.635   3.053  0.5799  0.1812  1.0132
18424SOL    HW258771   6.431   4.647   3.096  0.9577  0.6563 -0.3533
18425SOL     OW58772   3.626   4.921   4.657  0.2664  0.1014  0.0726
18425SOL    HW158773   3.564   4.876   4.715  0.4958 -0.8312 -0.3937
18425SOL    HW258774   3.610   5.014   4.673  0.8182 -0.1148  2.1910
18426SOL     OW58775   1.334   0.962   6.170  0.2076 -0.5196 -0.7327
18426SOL    HW158776   1.314   0.961   6.263  1.7890 -0.5782 -0.3623
18426SOL    HW258777   1.285   0.888   6.134 -0.9763 -0.0690 -0.0993
18427SOL     OW58778   0.772  10.345   3.008 -0.0358  0.0529  0.7067
18427SOL    HW158779   0.777  10.441   3.007  2.3288 -0.0018  0.4988
18427SOL    HW258780   0.770  10.320   2.916 -0.7190 -0.0997  0.7627
18428SOL     OW58781  10.543   1.307   3.104  0.6356 -0.2232  0.4892
18428SOL    HW158782  10.471   1.343   3.052  0.2011 -1.4603  0.2004
18428SOL    HW258783  10.523   1.214   3.111  1.4328 -0.3183  1.6925
18429SOL     OW58784   5.412   8.491   6.869 -0.1750 -0.2226 -0.3544
18429SOL    HW158785   5.355   8.414   6.873  0.5516 -0.7435  1.0122
18429SOL    HW258786   5.377   8.544   6.798 -1.5599 -1.1373 -0.3969
18430SOL     OW58787   8.565   3.281   0.483 -0.4673 -0.2719  0.5183
18430SOL    HW158788   8.655   3.251   0.487 -0.1182  0.7761  0.9238
18430SOL    HW258789   8.572   3.376   0.468 -1.4759 -0.0654  1.2493
18431SOL     OW58790   2.204   6.808   1.711  0.6316  0.3736  0.0499
18431SOL    HW158791   2.115   6.801   1.676  0.4061 -2.0723  0.9172
18431SOL    HW258792   2.260   6.804   1.633  0.0490 -1.8933 -0.3236
18432SOL     OW58793   5.793   9.836   2.986 -0.0821  0.2327 -0.9255
18432SOL    HW158794   5.820   9.765   2.927  2.1596  1.2940 -1.2652
18432SOL    HW258795   5.818   9.804   3.073  0.3313  0.3191 -1.0087
18433SOL     OW58796   5.600   2.587   0.465 -0.3056  0.1226  0.0921
18433SOL    HW158797   5.510   2.562   0.485 -0.4892 -0.2000 -1.0255
18433SOL    HW258798   5.599   2.683   0.466 -1.1392  0.1878 -1.6671
18434SOL     OW58799   0.323   3.550   0.285  0.0705  0.4010  0.5816
18434SOL    HW158800   0.381   3.515   0.217 -0.8464 -2.2984  1.0714
18434SOL    HW258801   0.260   3.603   0.238 -0.0536 -0.7561 -0.6103
18435SOL     OW58802   5.770   5.226   2.119  0.1796  0.1128  0.1219
18435SOL    HW158803   5.840   5.179   2.074  0.0968  1.8784 -2.0348
18435SOL    HW258804   5.690   5.182   2.092  0.1451  1.0594 -1.4297
18436SOL     OW58805   6.053   0.499   8.398 -0.6060  0.3433  0.0911
18436SOL    HW158806   6.075   0.463   8.312 -0.8603  0.6709 -0.1137
18436SOL    HW258807   6.032   0.591   8.380  1.4048  0.9748  0.8005
18437SOL     OW58808  10.365   1.626   9.003  0.9250  0.5842 -0.2038
18437SOL    HW158809  10.404   1.544   9.034  0.8394 -0.0677 -1.7069
18437SOL    HW258810  10.382   1.626   8.909  1.2756  2.5102 -0.1679
18438SOL     OW58811  10.211   7.214   9.692  0.0075 -0.1995 -0.4654
18438SOL    HW158812  10.206   7.299   9.648 -0.7074 -0.6376 -1.2549
18438SOL    HW258813  10.302   7.186   9.681  0.8169  1.3697  1.5890
18439SOL     OW58814   4.243   9.264   4.258 -0.7717 -0.3083  0.3055
18439SOL    HW158815   4.293   9.194   4.301  0.2648  0.1816 -0.0825
18439SOL    HW258816   4.198   9.220   4.186 -2.6272 -1.1690  1.8906
18440SOL     OW58817   5.897   2.606   6.153 -0.3815 -0.1390  0.1983
18440SOL    HW158818   5.802   2.597   6.165 -0.6313  0.7242 -0.8863
18440SOL    HW258819   5.906   2.677   6.089  1.0407  0.3762  0.9248
18441SOL     OW58820   3.538   5.080   5.672 -0.0031 -0.0183 -0.1692
18441SOL    HW158821   3.605   5.063   5.606 -1.3018  1.0859 -1.8440
18441SOL    HW258822   3.482   5.002   5.669  0.7290 -0.5942  0.6724
18442SOL     OW58823   3.203   3.237   2.829 -0.2319  0.3978  0.1898
18442SOL    HW158824   3.244   3.250   2.743 -1.4011  0.2763 -0.4069
18442SOL    HW258825   3.272   3.260   2.892 -0.3671  3.9307 -0.7592
18443SOL     OW58826   8.279   0.712   1.485 -0.1263 -0.0353 -0.0529
18443SOL    HW158827   8.242   0.624   1.491  2.4620 -1.3019 -0.9251
18443SOL    HW258828   8.316   0.728   1.571 -0.4647  0.1445  0.0606
18444SOL     OW58829   8.544   8.407   3.923  0.3149 -0.6584  0.4274
18444SOL    HW158830   8.535   8.459   3.843 -4.6386 -0.5187  0.7525
18444SOL    HW258831   8.524   8.468   3.993  1.2514 -1.5422  1.5054
18445SOL     OW58832   0.116   8.855   1.188 -0.3258  0.3570 -0.0078
18445SOL    HW158833   0.072   8.834   1.105 -1.9539  1.7422  0.4572
18445SOL    HW258834   0.087   8.786   1.248  0.8188 -0.6220 -0.5342
18446SOL     OW58835   2.071   9.995   2.372  0.4393 -0.6680  0.2538
18446SOL    HW158836   1.977   9.975   2.372  0.3428 -0.3385  1.5270
18446SOL    HW258837   2.088  10.032   2.286 -0.4576 -1.3762 -0.2396
18447SOL     OW58838   6.456   6.778   0.080  0.2788 -0.1370  0.0472
18447SOL    HW158839   6.383   6.813   0.029 -0.4894 -0.0040  1.1808
18447SOL    HW258840   6.434   6.685   0.092  0.9138 -0.3806 -0.6182
18448SOL     OW58841  10.031   2.670   6.954 -0.6356 -0.0415  0.0415
18448SOL    HW158842   9.995   2.674   6.865  2.3539  1.6595 -1.2429
18448SOL    HW258843  10.094   2.599   6.951  2.1751  2.2745 -0.4914
18449SOL     OW58844  11.006   5.590   3.112  0.9579 -0.0550 -0.9660
18449SOL    HW158845  10.981   5.499   3.124  0.6422  0.0433 -0.8722
18449SOL    HW258846  11.024   5.599   3.019  0.2915 -0.0404 -1.0962
18450SOL     OW58847   5.063   9.312   5.080 -0.1818  0.0426  0.0855
18450SOL    HW158848   5.020   9.337   4.999  1.0577  0.0397 -0.5924
18450SOL    HW258849   5.001   9.255   5.124 -0.9206  0.1611 -0.7944
18451SOL     OW58850   7.034   7.207   9.644  0.5804  0.0246  0.1618
18451SOL    HW158851   6.983   7.129   9.666  0.0438  0.4409  0.4166
18451SOL    HW258852   7.033   7.210   9.548  0.8145 -0.4205  0.1457
18452SOL     OW58853   2.387   0.430   2.280 -0.0568  1.1437 -0.3038
18452SOL    HW158854   2.477   0.430   2.246 -0.2858  0.9328 -0.9283
18452SOL    HW258855   2.397   0.449   2.373  0.7956 -0.7077  0.0396
18453SOL     OW58856   5.562   9.509   6.625  0.4713 -0.2317  0.5273
18453SOL    HW158857   5.607   9.581   6.669  2.5141 -0.2211 -1.3761
18453SOL    HW258858   5.554   9.441   6.691  0.7742  0.8111  1.6811
18454SOL     OW58859   3.740   2.412   8.278 -0.5443 -0.2348 -0.6546
18454SOL    HW158860   3.779   2.500   8.287  1.8388 -1.2613 -0.1090
18454SOL    HW258861   3.812   2.358   8.245 -1.8073 -2.1164 -0.4505
18455SOL     OW58862   2.171   1.560   5.949  0.3438 -0.2222 -0.3572
18455SOL    HW158863   2.251   1.593   5.990  1.2397 -1.8967 -0.6435
18455SOL    HW258864   2.113   1.539   6.022  0.0034  1.2857 -0.1566
18456SOL     OW58865   6.176   0.208   8.696  0.4377 -0.2592 -0.3620
18456SOL    HW158866   6.175   0.122   8.654 -0.1965 -0.8384  0.7964
18456SOL    HW258867   6.161   0.190   8.789 -0.1647  1.1421 -0.1603
18457SOL     OW58868   1.707   2.889   3.838  0.2301 -0.1684 -0.2660
18457SOL    HW158869   1.736   2.805   3.804  0.7441 -0.7178  1.4167
18457SOL    HW258870   1.781   2.948   3.822  1.9596 -1.2316  2.7509
18458SOL     OW58871  10.344   0.567   3.547 -0.1922 -0.1755 -0.9398
18458SOL    HW158872  10.258   0.528   3.531 -0.2162  0.0359 -1.3455
18458SOL    HW258873  10.337   0.656   3.511 -0.2759  0.3571  0.3527
18459SOL     OW58874   0.307   2.282   7.076 -0.0083 -0.3604  0.0348
18459SOL    HW158875   0.231   2.229   7.053  1.1920 -2.0072 -0.2593
18459SOL    HW258876   0.302   2.358   7.017 -1.9561  0.1200  0.7343
18460SOL     OW58877   7.172   6.897   7.635  0.0160  0.8549  0.4946
18460SOL    HW158878   7.200   6.807   7.620  1.3832  0.9662  2.0959
18460SOL    HW258879   7.097   6.909   7.577  1.3791 -0.4882 -1.6763
18461SOL     OW58880  10.905   3.146   4.195 -0.7088  0.1903 -0.4289
18461SOL    HW158881  10.933   3.124   4.284 -2.5561  0.9741  0.3877
18461SOL    HW258882  10.959   3.222   4.172  0.8976 -0.9631 -0.6377
18462SOL     OW58883   4.536  10.320   6.723  0.4633 -0.0256 -0.0751
18462SOL    HW158884   4.614  10.276   6.689  0.4513  0.2080 -0.3997
18462SOL    HW258885   4.566  10.406   6.750  0.3870 -0.0610  0.1298
18463SOL     OW58886   2.503   2.369   6.528  0.5593 -0.3393 -0.0466
18463SOL    HW158887   2.509   2.299   6.463  2.3616  1.1597 -1.6311
18463SOL    HW258888   2.549   2.443   6.488  0.2190  1.2301  2.2427
18464SOL     OW58889   6.160   8.293   6.409 -0.5236  0.1737 -0.0536
18464SOL    HW158890   6.084   8.350   6.411  0.5689  1.7382  2.5613
18464SOL    HW258891   6.145   8.230   6.479  0.3915  0.2787  0.2553
18465SOL     OW58892   3.174   7.214   9.158 -0.0301  0.0171  0.1175
18465SOL    HW158893   3.179   7.170   9.073  0.3874  1.2047 -0.4942
18465SOL    HW258894   3.213   7.152   9.219  0.5237 -0.4750 -0.7121
18466SOL     OW58895   9.326  10.248   7.965  0.0888 -0.3968 -0.2392
18466SOL    HW158896   9.293  10.337   7.973  0.5129 -0.0276 -2.1030
18466SOL    HW258897   9.305  10.223   7.875  2.1606 -1.2642 -0.5416
18467SOL     OW58898   8.037   3.226   2.221  0.5969 -0.4255  0.2159
18467SOL    HW158899   7.953   3.236   2.176  1.0805 -0.1627 -0.6536
18467SOL    HW258900   8.042   3.132   2.240  0.7858 -0.7169 -1.1368
18468SOL     OW58901   9.442   2.419  10.918 -0.1704 -0.4884  0.4037
18468SOL    HW158902   9.403   2.366  10.848 -1.6616 -0.8563  1.4589
18468SOL    HW258903   9.448   2.359  10.992 -0.5540  0.4306  1.1915
18469SOL     OW58904   9.409   3.658   9.166  0.3925 -0.4628 -0.2370
18469SOL    HW158905   9.480   3.646   9.228  0.1452 -2.4009 -0.2736
18469SOL    HW258906   9.447   3.710   9.095  1.2744 -0.0354  0.5393
18470SOL     OW58907   4.614  10.539   6.057 -0.0732  0.4365  0.6291
18470SOL    HW158908   4.606  10.473   5.989  1.8271  1.1160 -0.3351
18470SOL    HW258909   4.585  10.495   6.137 -0.4552 -1.0079 -0.2702
18471SOL     OW58910   3.138   4.520   5.132 -0.3002 -0.7061  0.1703
18471SOL    HW158911   3.173   4.523   5.043 -0.6968 -0.2334  0.0269
18471SOL    HW258912   3.056   4.471   5.124  0.1412 -1.5098  0.4475
18472SOL     OW58913   6.278   9.045   8.932  0.5685 -0.6601  0.5419
18472SOL    HW158914   6.334   9.014   8.861  1.6416 -0.3072  1.2031
18472SOL    HW258915   6.279   9.140   8.923  1.2694 -0.5669  1.4050
18473SOL     OW58916   1.804   7.526   1.251  0.5254  0.2912  0.1237
18473SOL    HW158917   1.809   7.443   1.298 -0.2238 -0.2016 -0.6272
18473SOL    HW258918   1.836   7.505   1.163 -2.6508 -0.0293 -1.0737
18474SOL     OW58919   2.089   7.891   1.579  0.2926  0.2060 -0.1626
18474SOL    HW158920   2.039   7.840   1.515  1.2764  0.2178 -0.9696
18474SOL    HW258921   2.049   7.870   1.663 -0.9585  0.0943 -0.7614
18475SOL     OW58922   1.479   0.871   2.308 -0.0906 -1.1004  0.2251
18475SOL    HW158923   1.458   0.825   2.227  0.4816 -0.3847 -0.3443
18475SOL    HW258924   1.400   0.865   2.361 -1.3341  0.4661 -1.3547
18476SOL     OW58925   5.504   7.820   0.922  0.2709 -0.0776  0.2852
18476SOL    HW158926   5.553   7.743   0.950  0.5036 -0.0341  0.0099
18476SOL    HW258927   5.413   7.800   0.941  0.1667 -0.9868 -1.0213
18477SOL     OW58928   3.129   2.036   2.420  0.3002  0.4910 -0.0765
18477SOL    HW158929   3.119   1.945   2.448  2.0513 -0.2759 -1.7454
18477SOL    HW258930   3.044   2.076   2.439 -0.8797 -1.7466 -0.2855
18478SOL     OW58931   0.639   5.005   4.786 -0.0235 -0.1335  0.3142
18478SOL    HW158932   0.712   4.954   4.822  1.7811  0.4188 -2.2427
18478SOL    HW258933   0.636   5.085   4.838 -0.0825 -0.9653  1.6329
18479SOL     OW58934   5.976   5.541   9.904  0.3115  0.0529  0.1689
18479SOL    HW158935   5.982   5.446   9.904  1.7595  0.1103  0.2779
18479SOL    HW258936   5.966   5.565   9.996 -0.3311  0.0067  0.1163
18480SOL     OW58937   9.871   3.371   8.904 -0.9010  0.9055  0.6302
18480SOL    HW158938   9.911   3.438   8.848  0.9836  0.2576  1.1108
18480SOL    HW258939   9.782   3.402   8.920 -0.4446  2.7014 -0.0989
18481SOL     OW58940   2.707   5.605   2.042  0.4416  0.1833 -0.0973
18481SOL    HW158941   2.707   5.615   2.137  0.0276  2.0716 -0.2671
18481SOL    HW258942   2.800   5.595   2.020  0.5647 -0.0035  0.4761
18482SOL     OW58943   6.636   9.153   5.847 -0.4129  0.0614 -0.0956
18482SOL    HW158944   6.619   9.124   5.937  0.3025 -0.7795 -0.2259
18482SOL    HW258945   6.674   9.241   5.858  0.9868 -0.5950  0.5129
18483SOL     OW58946   4.348   7.005   6.321 -1.0038 -0.1280 -0.6149
18483SOL    HW158947   4.403   7.015   6.243 -1.2967 -0.7642 -0.9090
18483SOL    HW258948   4.409   7.014   6.395 -0.9871  2.1523 -0.8560
18484SOL     OW58949   7.700   7.526   1.067  0.4555  0.0683  0.3883
18484SOL    HW158950   7.770   7.472   1.030  0.4240  1.0292 -1.1370
18484SOL    HW258951   7.743   7.607   1.094 -0.1174  0.8529 -0.9936
18485SOL     OW58952   0.710   9.244   9.429  0.3272 -0.0222 -0.2265
18485SOL    HW158953   0.790   9.278   9.390  0.0263  0.9585 -0.0133
18485SOL    HW258954   0.664   9.203   9.357  0.1936  0.9938 -0.7415
18486SOL     OW58955  10.831   1.646   5.318 -0.0262  0.2924  0.7012
18486SOL    HW158956  10.910   1.593   5.314 -0.5094 -0.3923  0.0960
18486SOL    HW258957  10.854   1.726   5.270 -0.0858 -0.4227 -0.5478
18487SOL     OW58958   5.166   4.770   8.765  0.8227 -0.6069 -0.0272
18487SOL    HW158959   5.076   4.743   8.780  0.8977 -1.5687 -1.1581
18487SOL    HW258960   5.218   4.714   8.823  0.8502 -1.7459 -1.1204
18488SOL     OW58961   7.686   6.043   5.402  0.1916 -0.5430 -0.7633
18488SOL    HW158962   7.709   6.024   5.310 -1.8496 -1.9173 -1.0366
18488SOL    HW258963   7.695   5.959   5.447  0.5234 -0.0167  0.1850
18489SOL     OW58964  10.289   8.441  10.863  0.2404  0.7453  0.0047
18489SOL    HW158965  10.201   8.473  10.846 -0.1468  0.0096  0.5330
18489SOL    HW258966  10.319   8.406  10.779  0.3466  1.7264 -0.3690
18490SOL     OW58967   3.334   1.443   4.193 -0.0936  0.1259  0.1564
18490SOL    HW158968   3.255   1.389   4.187  0.9971 -1.3536 -2.3534
18490SOL    HW258969   3.391   1.395   4.253  0.1546 -0.5911 -0.6309
18491SOL     OW58970   4.481   7.915   9.378  0.3594  0.5110 -0.3881
18491SOL    HW158971   4.575   7.895   9.370  0.4617  0.3154  0.9821
18491SOL    HW258972   4.477   8.010   9.370  0.7556  0.5717  0.0179
18492SOL     OW58973   2.793   0.196   8.614 -0.3039  0.3883  0.2217
18492SOL    HW158974   2.804   0.112   8.569  0.0932  0.7650 -0.3999
18492SOL    HW258975   2.772   0.258   8.544 -2.1979  0.5258  0.8461
18493SOL     OW58976   0.922  10.639   4.310 -0.0070 -0.3069 -0.3068
18493SOL    HW158977   0.921  10.544   4.322  0.4228 -0.3143 -0.3208
18493SOL    HW258978   0.830  10.664   4.307 -0.2164 -1.0753 -2.9055
18494SOL     OW58979   6.558   2.246   6.966 -0.0737  0.2814  0.0586
18494SOL    HW158980   6.636   2.209   6.925  1.0002  0.1422  2.1270
18494SOL    HW258981   6.565   2.340   6.950  0.6078  0.2878  0.3729
18495SOL     OW58982   4.054   7.441   6.716 -0.4922  0.5501  0.1272
18495SOL    HW158983   4.116   7.423   6.645  1.2009 -0.6041  1.7778
18495SOL    HW258984   4.098   7.507   6.770 -0.4578 -0.5880  1.5575
18496SOL     OW58985   5.100   2.680   8.244 -0.1689  0.0980 -0.3518
18496SOL    HW158986   5.044   2.626   8.300 -0.4910  1.2297  0.4618
18496SOL    HW258987   5.161   2.619   8.204  0.1597 -0.7400  1.3682
18497SOL     OW58988   6.355   0.195   4.147 -0.1834 -0.0312  0.1931
18497SOL    HW158989   6.314   0.187   4.233  0.6649  1.4571  0.7672
18497SOL    HW258990   6.374   0.288   4.138 -0.0494 -0.2055 -1.5173
18498SOL     OW58991   8.171   4.969   1.767 -0.1729 -0.0121 -0.4817
18498SOL    HW158992   8.178   4.963   1.862  1.3054  1.1064 -0.4931
18498SOL    HW258993   8.088   5.014   1.752  0.0504  0.7014  0.3309
18499SOL     OW58994   7.335   8.588   6.281  0.1085  0.1293  0.7216
18499SOL    HW158995   7.354   8.649   6.210  0.6545  0.9601  1.5599
18499SOL    HW258996   7.266   8.632   6.332 -0.3739 -0.5191  0.6382
18500SOL     OW58997  10.456   6.426  10.627  0.0115  0.1747  0.5638
18500SOL    HW158998  10.461   6.371  10.549 -1.3849 -0.5425  0.9360
18500SOL    HW258999  10.429   6.367  10.697 -1.8927  1.3511  0.9111
18501SOL     OW59000   8.726   3.339   0.149 -0.6134 -0.2936  0.6094
18501SOL    HW159001   8.785   3.308   0.080 -2.1853 -0.6669 -0.6477
18501SOL    HW259002   8.784   3.374   0.216  1.0924 -1.8518  0.0606
18502SOL     OW59003   7.800   4.525   2.219  0.3136 -0.2884  0.6844
18502SOL    HW159004   7.874   4.552   2.273  0.3642 -0.4956  0.7216
18502SOL    HW259005   7.815   4.431   2.204 -0.1227 -0.4066  0.9738
18503SOL     OW59006   7.679   0.254   1.502 -0.5940 -0.1612 -0.3186
18503SOL    HW159007   7.673   0.349   1.495 -1.8844 -0.1454  0.6258
18503SOL    HW259008   7.680   0.223   1.412  1.7117  0.7995 -0.6973
18504SOL     OW59009   5.918   5.926   0.677  0.0120 -0.4674  0.2811
18504SOL    HW159010   5.866   5.989   0.627 -0.5275 -1.3411 -0.2835
18504SOL    HW259011   5.886   5.936   0.767 -0.0513  0.0760  0.2044
18505SOL     OW59012   0.093  10.953   6.478  0.0886  0.1021  0.0414
18505SOL    HW159013   0.043  10.899   6.417  0.6176 -0.3115 -0.0371
18505SOL    HW259014   0.129  11.023   6.425  0.3133 -0.0971 -0.0718
18506SOL     OW59015   6.978   2.825   9.630 -0.3980  0.1481 -0.6927
18506SOL    HW159016   6.912   2.811   9.698 -0.6154  1.1566 -0.6886
18506SOL    HW259017   7.003   2.736   9.602 -0.5220 -0.2706  0.4851
18507SOL     OW59018   8.213   7.656  10.822 -0.3437  0.4036  0.1609
18507SOL    HW159019   8.262   7.719  10.770 -0.3646  2.1509  2.1194
18507SOL    HW259020   8.273   7.582  10.834  0.3437  0.8117 -0.6861
18508SOL     OW59021   4.427   4.768   8.812  0.0431 -0.1419  0.5718
18508SOL    HW159022   4.396   4.681   8.840  1.1646 -1.1268 -1.0511
18508SOL    HW259023   4.433   4.761   8.717 -0.5482  1.9969  0.3180
18509SOL     OW59024   7.113   8.941   1.639  0.2819  0.1961  0.3227
18509SOL    HW159025   7.062   8.861   1.631  0.3389  0.2903 -1.4373
18509SOL    HW259026   7.107   8.965   1.732  0.4919 -1.9655  0.9417
18510SOL     OW59027  10.641   8.794   5.949 -0.1819 -0.6177 -0.3273
18510SOL    HW159028  10.546   8.805   5.955 -0.1535 -0.8828  0.7894
18510SOL    HW259029  10.654   8.720   5.890 -0.7629 -2.0198  1.2369
18511SOL     OW59030   3.770   1.382   6.104 -0.6871 -0.8651 -0.5316
18511SOL    HW159031   3.746   1.443   6.034 -0.6435 -1.0000 -0.6643
18511SOL    HW259032   3.866   1.387   6.107 -0.7668  1.5768  1.6744
18512SOL     OW59033   3.119   6.134   7.323  0.1653 -0.2718  0.0770
18512SOL    HW159034   3.094   6.141   7.231 -0.8934 -0.2667  0.3509
18512SOL    HW259035   3.105   6.223   7.358 -0.9474 -0.6361  0.5948
18513SOL     OW59036   3.096   6.041   7.938 -0.2611  0.4975  0.8707
18513SOL    HW159037   3.023   6.103   7.929  0.6601  1.4471 -0.4054
18513SOL    HW259038   3.156   6.065   7.867  0.3589 -1.5461  0.6414
18514SOL     OW59039   4.397   5.671   8.676 -0.1863  0.7265  0.0411
18514SOL    HW159040   4.408   5.582   8.641  0.4085  0.3119  1.2335
18514SOL    HW259041   4.465   5.679   8.743 -0.2556  2.0766 -0.0217
18515SOL     OW59042   9.304   5.928   4.225 -0.4292 -0.4539 -0.0078
18515SOL    HW159043   9.362   5.985   4.276  1.9384 -1.0966 -1.8212
18515SOL    HW259044   9.267   5.986   4.159  1.2901 -0.7514 -1.2976
18516SOL     OW59045   8.207   7.489   0.160  0.1680  0.1795  0.0761
18516SOL    HW159046   8.298   7.462   0.157  0.3715  0.9497 -1.0644
18516SOL    HW259047   8.202   7.548   0.235  0.6845  0.4301 -0.0856
18517SOL     OW59048   5.886   0.724   6.051  0.0810 -0.4302  0.7095
18517SOL    HW159049   5.911   0.809   6.014 -0.4187 -0.4423  0.3280
18517SOL    HW259050   5.943   0.713   6.127  0.0987  0.2819  0.8058
18518SOL     OW59051   8.459   9.243   9.288  0.2606 -0.2156  0.3117
18518SOL    HW159052   8.543   9.201   9.271 -1.2744 -3.1116 -0.8792
18518SOL    HW259053   8.396   9.191   9.238 -2.1518  2.3487  0.4675
18519SOL     OW59054   2.633   9.654   0.028 -0.1570 -0.4017 -0.2625
18519SOL    HW159055   2.583   9.610   0.096  0.7740  0.7861  1.2557
18519SOL    HW259056   2.666   9.733   0.070 -0.2280  0.7944 -2.3531
18520SOL     OW59057   4.573   2.210   4.176  0.6329  0.2807  0.3985
18520SOL    HW159058   4.566   2.287   4.232 -1.4417  0.4937 -0.0687
18520SOL    HW259059   4.540   2.138   4.231  1.5689 -0.0982  0.4812
18521SOL     OW59060   8.222   9.648   1.444  0.1039 -0.2156 -0.1458
18521SOL    HW159061   8.281   9.594   1.497 -0.7695  0.3879  1.4931
18521SOL    HW259062   8.181   9.708   1.507 -2.2648 -0.6231 -1.2159
18522SOL     OW59063   8.631   8.696   3.965 -0.9550 -0.3746 -0.0990
18522SOL    HW159064   8.701   8.693   4.030  0.6994  0.7767 -1.7267
18522SOL    HW259065   8.554   8.725   4.014  0.2560  0.5902  1.3360
18523SOL     OW59066   1.504   6.610   1.609  0.4467 -0.9892  0.9388
18523SOL    HW159067   1.558   6.607   1.688  2.6953 -0.2652 -0.4456
18523SOL    HW259068   1.468   6.522   1.600  0.9622 -1.3497  2.2423
18524SOL     OW59069   1.292   2.171   4.301 -0.0904 -0.8351  0.3636
18524SOL    HW159070   1.295   2.102   4.234 -1.2791  0.6851 -1.3381
18524SOL    HW259071   1.210   2.217   4.285  0.3257  0.5516  1.9190
18525SOL     OW59072   6.964   2.729   4.472 -0.2966  0.2543 -0.0886
18525SOL    HW159073   6.869   2.738   4.471 -0.2714  0.7696  1.0721
18525SOL    HW259074   6.997   2.816   4.451 -0.0809  0.1906 -0.0199
18526SOL     OW59075  10.080   5.021   7.158 -0.3545  0.0738  0.1498
18526SOL    HW159076  10.073   5.042   7.065  0.9536  2.1814  0.4578
18526SOL    HW259077  10.116   4.932   7.160 -1.6294 -0.5188 -1.3206
18527SOL     OW59078   1.603   1.131   3.624 -0.0066  0.0054  0.4276
18527SOL    HW159079   1.625   1.089   3.540 -1.3294  0.0346  0.0463
18527SOL    HW259080   1.670   1.099   3.684  0.8696 -0.1613 -0.5937
18528SOL     OW59081   6.529  10.032   3.472 -0.2859 -0.8180 -0.0455
18528SOL    HW159082   6.499   9.950   3.432  1.0843 -1.6032  0.4884
18528SOL    HW259083   6.581  10.005   3.547  1.1910  0.5048 -0.5354
18529SOL     OW59084   1.008   9.451   7.955  0.4946 -0.3608 -0.0175
18529SOL    HW159085   0.967   9.464   7.870  1.1290  0.7261 -0.1833
18529SOL    HW259086   0.935   9.440   8.016 -0.2144  2.9151 -0.0819
18530SOL     OW59087   4.750   1.665   4.409  0.4514  0.0162  0.5568
18530SOL    HW159088   4.806   1.651   4.333  0.3019  1.8303  0.0482
18530SOL    HW259089   4.759   1.758   4.428 -1.5187  0.1453  1.1312
18531SOL     OW59090   1.218   7.673   1.341  0.5051 -0.9367  0.1603
18531SOL    HW159091   1.240   7.592   1.296  0.4749 -1.2957  0.7918
18531SOL    HW259092   1.154   7.715   1.283  0.8998 -1.1130 -0.4163
18532SOL     OW59093   1.601   9.103   2.265 -0.1604 -0.0331 -0.5405
18532SOL    HW159094   1.617   9.034   2.201 -0.8728 -0.4322 -0.3056
18532SOL    HW259095   1.686   9.143   2.280  0.5494 -1.7765  0.3581
18533SOL     OW59096   4.817   8.998   3.724  0.3731 -0.2238  0.3901
18533SOL    HW159097   4.799   9.091   3.707  0.7441  0.0099  1.1817
18533SOL    HW259098   4.891   8.977   3.668 -0.1857 -0.2510 -0.3474
18534SOL     OW59099   6.094   3.832   6.091  0.1039  0.3612  0.1108
18534SOL    HW159100   6.052   3.913   6.119 -0.6790 -0.1564  0.4659
18534SOL    HW259101   6.090   3.775   6.168  1.1341  0.1630  0.0407
18535SOL     OW59102   8.985   9.073   0.709 -0.1037 -0.2606  0.2335
18535SOL    HW159103   9.016   8.995   0.755  2.3382  0.7104  0.4292
18535SOL    HW259104   9.000   9.145   0.771 -0.3278  0.6077 -0.6860
18536SOL     OW59105   5.297   1.480   2.623 -0.2625 -0.8930 -0.5001
18536SOL    HW159106   5.393   1.481   2.630 -0.1297 -2.0590 -1.8772
18536SOL    HW259107   5.270   1.412   2.685 -0.3662  0.5008  1.0765
18537SOL     OW59108   9.543   0.141   0.533 -0.0328 -0.3508 -0.2292
18537SOL    HW159109   9.632   0.110   0.547  0.2606 -0.7139 -2.5200
18537SOL    HW259110   9.490   0.061   0.527 -0.2970 -0.1866 -0.1196
18538SOL     OW59111   1.394  10.831   3.600  0.1199 -0.0952  0.0465
18538SOL    HW159112   1.321  10.892   3.599  0.0970 -0.1248 -0.2011
18538SOL    HW259113   1.472  10.887   3.593  0.0870 -0.1082 -0.4782
18539SOL     OW59114   2.658   7.977   5.940 -0.6656 -0.3384  0.4498
18539SOL    HW159115   2.729   8.008   5.884 -0.3520 -1.2587  0.3216
18539SOL    HW259116   2.689   7.995   6.029 -0.3844 -0.5009  0.3859
18540SOL     OW59117  10.110   9.444   2.497  0.0537  0.3719  0.6799
18540SOL    HW159118  10.079   9.474   2.411 -1.6833 -0.3804  0.9979
18540SOL    HW259119  10.031   9.409   2.540  0.8628  0.7684  2.6051
18541SOL     OW59120   0.085   5.282   7.828 -0.1430  0.4936 -0.2071
18541SOL    HW159121   0.160   5.226   7.850 -0.2022  0.3119 -0.4636
18541SOL    HW259122   0.121   5.348   7.768 -0.7537 -1.3504 -2.7830
18542SOL     OW59123   7.947   0.615   6.677 -0.4598 -0.0845 -0.2235
18542SOL    HW159124   7.944   0.601   6.582  2.6329  1.1122 -0.6088
18542SOL    HW259125   7.855   0.614   6.704 -1.4584 -0.2226 -3.2504
18543SOL     OW59126   1.082   5.401   4.589 -0.1866  0.0715  0.0253
18543SOL    HW159127   1.085   5.311   4.623 -1.3545 -0.4539 -1.1660
18543SOL    HW259128   1.050   5.453   4.663  0.2462 -0.5325  0.6468
18544SOL     OW59129   9.451  10.120   0.623 -0.1615 -0.6881 -0.4737
18544SOL    HW159130   9.527  10.150   0.572  2.2620 -0.7650  2.7739
18544SOL    HW259131   9.448  10.026   0.610  1.0205 -0.8316  0.2091
18545SOL     OW59132   1.816   2.557  10.958  0.0788 -0.0092  0.7015
18545SOL    HW159133   1.860   2.587  10.878 -1.8054  1.5706  0.1847
18545SOL    HW259134   1.823   2.462  10.955  1.1222  0.0809 -0.6960
18546SOL     OW59135   0.173   3.244   6.509  0.9231  0.4028  0.1249
18546SOL    HW159136   0.100   3.298   6.478 -0.8879 -1.3369  1.0958
18546SOL    HW259137   0.218   3.299   6.572  0.4695  1.5270 -0.4879
18547SOL     OW59138   2.117  10.597   7.582 -0.2035 -0.2901  0.1267
18547SOL    HW159139   2.185  10.656   7.615 -0.7560  0.6218 -0.3119
18547SOL    HW259140   2.150  10.568   7.497 -1.7991  2.9182 -1.7711
18548SOL     OW59141   1.527   0.422   5.873  0.4232 -0.4613  0.2103
18548SOL    HW159142   1.528   0.500   5.928 -0.0677  0.3404 -0.8711
18548SOL    HW259143   1.436   0.412   5.847  0.9432  0.5975 -2.3366
18549SOL     OW59144   6.308   4.837   2.851 -0.4578  0.1380 -0.2929
18549SOL    HW159145   6.390   4.882   2.832 -0.4852  0.2301 -0.1936
18549SOL    HW259146   6.332   4.769   2.914 -0.3630 -0.1810 -0.6696
18550SOL     OW59147   0.198   0.143   5.408 -0.7119 -0.5365 -0.7444
18550SOL    HW159148   0.213   0.089   5.330 -0.9513 -0.2390 -1.0023
18550SOL    HW259149   0.132   0.207   5.380 -1.0883 -0.6701 -0.1824
18551SOL     OW59150   2.924   3.033   3.298 -0.0723 -0.3563 -0.0999
18551SOL    HW159151   2.854   3.076   3.347 -0.8930 -2.4366  0.6482
18551SOL    HW259152   3.004   3.075   3.328 -0.5694 -1.2916  2.8515
18552SOL     OW59153   2.695   9.694   1.174 -0.1453  0.2068  0.1439
18552SOL    HW159154   2.761   9.691   1.243  0.1555  0.6240 -0.1177
18552SOL    HW259155   2.740   9.663   1.095 -1.1628 -2.7184  0.6101
18553SOL     OW59156  10.363   9.973   3.098 -0.3045  0.1637  0.7710
18553SOL    HW159157  10.326   9.922   3.026 -0.9949 -0.6509  1.7003
18553SOL    HW259158  10.292   9.982   3.161  0.6155 -0.0909  1.8728
18554SOL     OW59159   0.317   9.176   3.393 -0.5909 -0.2094  0.1726
18554SOL    HW159160   0.402   9.137   3.414 -1.4533 -1.6919  1.0780
18554SOL    HW259161   0.333   9.270   3.397  1.1219 -0.4398 -0.1786
18555SOL     OW59162   8.372   4.397   0.009  1.1690  0.0992 -0.2741
18555SOL    HW159163   8.436   4.438  -0.050 -0.5789  1.4995 -1.2743
18555SOL    HW259164   8.343   4.467   0.066  1.7183 -0.9184  1.3285
18556SOL     OW59165   3.774   5.551   5.687 -0.3607  0.2737 -0.0288
18556SOL    HW159166   3.869   5.553   5.695 -0.4796  0.1145  2.1005
18556SOL    HW259167   3.747   5.479   5.744 -1.8236  1.2399  0.5517
18557SOL     OW59168   9.857   7.188   3.699  0.0174 -0.2317 -0.3493
18557SOL    HW159169   9.895   7.144   3.623  2.5602  0.8183  0.2233
18557SOL    HW259170   9.932   7.220   3.749 -1.6119  0.4967  1.7996
18558SOL     OW59171   4.580   8.578   1.436  0.0166 -0.2179  0.3658
18558SOL    HW159172   4.536   8.652   1.479  2.0914  1.6251 -0.4799
18558SOL    HW259173   4.544   8.578   1.347  0.9561  0.6675 -0.0330
18559SOL     OW59174   5.729   6.537   7.244 -0.0688  0.0935 -0.1912
18559SOL    HW159175   5.744   6.612   7.186 -0.0530 -1.1130 -1.8239
18559SOL    HW259176   5.711   6.464   7.184 -0.6353 -1.0911  1.3618
18560SOL     OW59177   9.996   6.046   9.342 -0.0147 -0.1321  0.1443
18560SOL    HW159178  10.002   5.952   9.327  1.4058 -0.1719  0.8098
18560SOL    HW259179  10.057   6.063   9.414 -0.9010  1.1719  0.6302
18561SOL     OW59180   0.667   2.642   7.140 -0.0627  0.0552 -0.5913
18561SOL    HW159181   0.707   2.672   7.222 -2.8556  0.7619  0.6063
18561SOL    HW259182   0.678   2.715   7.079  0.2244  0.3335 -0.2087
18562SOL     OW59183   1.216   3.315   2.328  0.4046  0.0214 -0.3763
18562SOL    HW159184   1.149   3.363   2.279 -0.9669 -0.3993  1.0095
18562SOL    HW259185   1.185   3.224   2.328  1.6041 -0.4089 -0.7006
18563SOL     OW59186   2.411   4.745   2.218 -0.4909 -0.5233 -0.8300
18563SOL    HW159187   2.377   4.656   2.212  0.2088 -0.7739 -1.2573
18563SOL    HW259188   2.500   4.739   2.181 -0.3464  0.2965 -0.6331
18564SOL     OW59189   1.016   5.826   5.362  0.1175 -0.2650 -0.1464
18564SOL    HW159190   1.031   5.906   5.413  1.1356 -0.0582 -0.7280
18564SOL    HW259191   1.044   5.755   5.421  2.5605  0.0537 -0.8150
18565SOL     OW59192   2.771   1.566   2.463  0.3312  0.4079 -0.3422
18565SOL    HW159193   2.847   1.588   2.409  0.6816 -0.4175 -0.2160
18565SOL    HW259194   2.790   1.477   2.494 -1.1818 -0.2377 -1.1599
18566SOL     OW59195   9.027   3.090   6.878 -0.0732  0.0723  0.2138
18566SOL    HW159196   9.042   3.012   6.825  1.1183  1.0450 -0.9646
18566SOL    HW259197   8.978   3.149   6.821 -1.5310 -0.0187  1.3074
18567SOL     OW59198   0.294   1.368   2.661  0.1790 -0.3161  0.1382
18567SOL    HW159199   0.371   1.384   2.606  0.4662 -1.2562  0.2490
18567SOL    HW259200   0.234   1.319   2.604 -0.3488  0.4189  0.0509
18568SOL     OW59201   7.476   3.812   3.472 -0.0797 -0.4349 -0.0306
18568SOL    HW159202   7.445   3.879   3.412 -0.6933 -1.3729 -0.7931
18568SOL    HW259203   7.570   3.829   3.482  0.2301 -0.8069 -1.9900
18569SOL     OW59204   0.654   5.570   4.419  0.2497  0.9630  0.3729
18569SOL    HW159205   0.645   5.485   4.463  1.9138  1.1543  1.1849
18569SOL    HW259206   0.699   5.625   4.483 -0.6383  2.4180 -0.2112
18570SOL     OW59207   7.301   2.545   1.361 -0.0028 -0.0789 -0.5676
18570SOL    HW159208   7.371   2.493   1.323 -0.8681 -0.6459 -1.4206
18570SOL    HW259209   7.299   2.519   1.453 -1.4094 -2.7584 -1.2700
18571SOL     OW59210   8.542   9.728   6.185  0.3541 -0.5182 -0.4755
18571SOL    HW159211   8.615   9.713   6.245  0.2526 -1.3452 -0.5457
18571SOL    HW259212   8.583   9.732   6.098  0.5406  1.0053 -0.3412
18572SOL     OW59213   4.673   9.208   1.735  0.4387 -0.0600  0.4569
18572SOL    HW159214   4.629   9.123   1.740  0.6277 -0.1136  1.4164
18572SOL    HW259215   4.635   9.250   1.658 -1.5325  0.0197  1.4079
18573SOL     OW59216   8.769   9.684   8.879  0.7162  0.5947 -0.0224
18573SOL    HW159217   8.751   9.605   8.930  0.8945  1.3017  1.1969
18573SOL    HW259218   8.685   9.706   8.839 -0.2824  1.7046  2.4749
18574SOL     OW59219   3.331   6.138   8.081  0.6296 -0.0604  0.4002
18574SOL    HW159220   3.293   6.194   8.013 -0.8523 -1.2944  0.1523
18574SOL    HW259221   3.342   6.053   8.039  0.9027 -0.4979  1.3322
18575SOL     OW59222  10.074   6.880   1.108 -0.5245 -0.2663  0.5016
18575SOL    HW159223   9.993   6.830   1.120  0.3341 -1.7620  0.2230
18575SOL    HW259224  10.094   6.873   1.015 -0.0693  0.1170  0.5649
18576SOL     OW59225   4.410   9.768  10.978  0.2537 -0.4697 -0.0312
18576SOL    HW159226   4.450   9.830  10.916  2.5567  0.7173  2.4293
18576SOL    HW259227   4.344   9.819  11.024 -1.7227 -1.4544 -1.6033
18577SOL     OW59228  10.598   5.765  10.687  0.4859 -0.2205  0.6491
18577SOL    HW159229  10.679   5.725  10.656  0.1481 -2.1299  2.0345
18577SOL    HW259230  10.621   5.805  10.771  0.1723 -0.1390  0.6978
18578SOL     OW59231   1.887   4.180  10.122 -0.6674 -0.6531 -0.4701
18578SOL    HW159232   1.835   4.183  10.202  0.1728 -1.5195  0.1278
18578SOL    HW259233   1.862   4.259  10.074 -0.7513  0.1945  0.9188
18579SOL     OW59234   0.202   2.763   5.587 -0.1043 -0.2005  0.0914
18579SOL    HW159235   0.116   2.791   5.555 -0.3283 -0.6009  0.3283
18579SOL    HW259236   0.196   2.773   5.682 -0.6015 -2.0850  0.3118
18580SOL     OW59237   0.446   2.212   1.034 -0.4857  0.3948  0.1886
18580SOL    HW159238   0.357   2.183   1.013 -0.0982  1.3927 -3.4382
18580SOL    HW259239   0.437   2.305   1.054 -0.3237  0.3238  0.6100
18581SOL     OW59240   2.074  10.085   1.279 -0.4082  0.4653 -0.3330
18581SOL    HW159241   2.122  10.067   1.198 -2.0483 -0.8533 -1.0802
18581SOL    HW259242   2.125  10.041   1.348 -0.5838 -1.0449 -1.1278
18582SOL     OW59243   8.790   8.449  10.772  0.4313 -0.6153 -0.2896
18582SOL    HW159244   8.747   8.532  10.750  0.8660 -0.4667 -0.5979
18582SOL    HW259245   8.730   8.382  10.742 -0.2927 -0.4199  0.6738
18583SOL     OW59246   6.119   9.479   1.891  0.0024  0.5773 -0.7840
18583SOL    HW159247   6.193   9.457   1.835 -0.6562  0.4671 -1.6319
18583SOL    HW259248   6.155   9.539   1.956  1.5258 -1.8105  0.7179
18584SOL     OW59249   0.599   8.096   3.099 -0.1716  0.7428 -0.3148
18584SOL    HW159250   0.579   8.079   3.007 -0.1509  0.6444 -0.3007
18584SOL    HW259251   0.567   8.020   3.146 -1.8949  1.6010 -0.0039
18585SOL     OW59252   8.339   7.986   5.994 -0.2348  0.7273  0.1225
18585SOL    HW159253   8.391   7.973   6.073  0.7933  1.6485 -0.3635
18585SOL    HW259254   8.252   8.010   6.025 -0.6333 -1.5548  0.9654
18586SOL     OW59255   3.032   0.602   7.620  0.6618  0.4811 -0.0263
18586SOL    HW159256   2.978   0.634   7.548  1.1979 -0.9875 -1.1307
18586SOL    HW259257   2.971   0.558   7.679  0.2409  1.5812  0.3876
18587SOL     OW59258   3.156   6.479   9.215  0.0221 -0.3287 -0.2581
18587SOL    HW159259   3.237   6.457   9.261  0.5803  1.6957 -0.1905
18587SOL    HW259260   3.140   6.403   9.159 -0.1173 -2.4301  2.4165
18588SOL     OW59261  10.798   4.839  10.088 -0.1258  0.2191 -0.0148
18588SOL    HW159262  10.709   4.873  10.099 -0.5057 -1.1931  1.6242
18588SOL    HW259263  10.855   4.912  10.115 -0.7998  0.7980 -0.1247
18589SOL     OW59264   0.988   9.490   4.171  0.1473  0.7589 -0.5212
18589SOL    HW159265   0.910   9.522   4.125 -0.4087 -0.0677 -0.1783
18589SOL    HW259266   1.038   9.444   4.103 -1.2192 -1.4381 -0.1392
18590SOL     OW59267   6.039   9.164   9.524 -0.9152  0.5358 -0.2660
18590SOL    HW159268   6.075   9.077   9.507 -0.3053  0.9273 -1.0089
18590SOL    HW259269   5.979   9.150   9.598 -0.8638 -0.5186 -0.3987
18591SOL     OW59270   5.088   7.845   8.709 -0.4135  0.0558 -0.5830
18591SOL    HW159271   5.043   7.900   8.773  0.5197  0.1611 -0.0130
18591SOL    HW259272   5.037   7.764   8.707 -1.1258  0.4931 -0.5817
18592SOL     OW59273   3.558   8.693  10.971 -0.0479  0.1760 -0.0633
18592SOL    HW159274   3.625   8.733  11.025 -0.3233  0.5788 -0.0169
18592SOL    HW259275   3.536   8.760  10.906 -1.9638  0.9116  1.2442
18593SOL     OW59276   8.009   7.163   1.521  0.0880 -0.0755 -0.2540
18593SOL    HW159277   8.010   7.182   1.615 -0.7551 -0.2513 -0.2026
18593SOL    HW259278   8.047   7.076   1.513  0.7336  0.1903 -0.1427
18594SOL     OW59279   1.498   6.836   1.474  0.0073  0.1322 -0.5062
18594SOL    HW159280   1.406   6.862   1.478  0.2547  1.3831 -2.1977
18594SOL    HW259281   1.497   6.743   1.496 -1.6961  0.0442 -0.7929
18595SOL     OW59282   9.785   8.101   6.918  0.4222 -0.4140  0.3204
18595SOL    HW159283   9.691   8.090   6.933  0.3520 -0.4449 -0.1254
18595SOL    HW259284   9.807   8.182   6.963 -0.2087  0.6325 -1.1744
18596SOL     OW59285  10.787   7.702   5.091  0.2365 -0.4551 -0.2698
18596SOL    HW159286  10.759   7.790   5.116  0.0585 -0.3025 -1.0051
18596SOL    HW259287  10.767   7.648   5.168 -0.3002  0.0111 -0.0760
18597SOL     OW59288   9.667  10.071   6.000  0.2690  0.0488  0.0439
18597SOL    HW159289   9.583  10.063   5.957  0.0345  0.2737  0.4457
18597SOL    HW259290   9.710   9.987   5.986  0.8182  0.5952 -1.8749
18598SOL     OW59291   7.197   1.964   7.195 -0.0292 -0.2037  1.0799
18598SOL    HW159292   7.169   2.052   7.220  0.7265  0.1576  0.7246
18598SOL    HW259293   7.288   1.976   7.167  0.7519 -1.4523  2.9504
18599SOL     OW59294   9.921   2.792  10.992  0.5120  0.4346  0.3630
18599SOL    HW159295   9.883   2.851  11.057  0.3372  1.1516 -0.3783
18599SOL    HW259296   9.912   2.838  10.909  1.9766  0.1362  0.0017
18600SOL     OW59297   0.952   1.920   9.329 -0.0610 -0.6621  0.3896
18600SOL    HW159298   0.856   1.918   9.331 -0.2343 -1.8690 -2.8809
18600SOL    HW259299   0.974   2.006   9.291  0.1939 -0.2521  1.4412
18601SOL     OW59300   3.929  10.301   7.668 -0.2506  0.3268 -0.4688
18601SOL    HW159301   3.930  10.207   7.686  1.6595  0.2909 -0.5213
18601SOL    HW259302   3.901  10.341   7.751 -1.5727 -0.2901 -0.6002
18602SOL     OW59303   6.380   8.163   5.295  0.1225 -0.0911 -0.6692
18602SOL    HW159304   6.375   8.068   5.304  1.2921 -0.0127  1.5979
18602SOL    HW259305   6.293   8.194   5.320  0.5268 -0.4736  1.3996
18603SOL     OW59306   8.043   7.929   3.104  0.4273  0.0919  0.7427
18603SOL    HW159307   8.000   7.847   3.128 -0.9446  0.7421  0.5985
18603SOL    HW259308   8.000   7.996   3.158 -1.0922  1.2494 -1.7041
18604SOL     OW59309   3.872   6.586   6.035 -0.4107 -0.8148 -0.8164
18604SOL    HW159310   3.929   6.533   6.090 -1.0867 -0.8878 -0.1679
18604SOL    HW259311   3.920   6.668   6.023 -0.0328 -0.9932 -0.5520
18605SOL     OW59312   5.306   9.299   2.830 -0.0316 -0.5748  0.2644
18605SOL    HW159313   5.273   9.380   2.867  1.1212  1.0700 -2.0275
18605SOL    HW259314   5.366   9.265   2.897  1.3513  1.8147  0.3769
18606SOL     OW59315   6.956   2.600   6.364  0.1141 -0.4627 -0.1754
18606SOL    HW159316   7.001   2.633   6.286  1.2050 -0.7229  0.3323
18606SOL    HW259317   6.921   2.678   6.407 -0.0902 -0.2773 -0.6691
18607SOL     OW59318   8.091   0.468   3.667 -0.2960  0.5306  0.5390
18607SOL    HW159319   8.047   0.413   3.601  1.3575  0.4923 -0.6098
18607SOL    HW259320   8.107   0.551   3.621 -1.4333  1.4728  1.7782
18608SOL     OW59321   8.721   5.167   5.798  0.3466  0.0840  0.4286
18608SOL    HW159322   8.636   5.193   5.763 -0.8721 -0.9896  2.3874
18608SOL    HW259323   8.764   5.250   5.820  0.3363  0.6857 -1.6133
18609SOL     OW59324   1.582   0.231   1.440 -0.8562  0.4765 -0.5544
18609SOL    HW159325   1.518   0.244   1.510 -2.1911  1.2037 -1.8433
18609SOL    HW259326   1.530   0.231   1.360  0.6928  0.3717 -1.6084
18610SOL     OW59327   0.690   1.556   1.880 -0.5426  0.9251 -0.3439
18610SOL    HW159328   0.637   1.490   1.924 -2.4711  0.6361 -2.8850
18610SOL    HW259329   0.708   1.621   1.948  0.3415 -1.4691  1.9091
18611SOL     OW59330   5.954  10.527   8.751  0.5185  0.2744  1.2449
18611SOL    HW159331   5.936  10.541   8.659  0.2365 -0.0439  1.2491
18611SOL    HW259332   6.049  10.520   8.756  0.6006  1.2432  1.1195
18612SOL     OW59333   9.068   5.267   1.174  0.1206 -0.3399 -0.1041
18612SOL    HW159334   8.995   5.229   1.223 -0.1617 -0.3996 -0.5736
18612SOL    HW259335   9.068   5.360   1.200 -0.6989 -0.1318 -0.7966
18613SOL     OW59336   2.982   6.490   9.938  0.4847 -0.5588  0.1874
18613SOL    HW159337   2.997   6.404   9.898  1.1061  0.2892 -1.4878
18613SOL    HW259338   3.066   6.535   9.931 -0.1579  0.6347 -0.1409
18614SOL     OW59339   9.147   7.592   1.433 -0.0526  0.3185 -0.0996
18614SOL    HW159340   9.132   7.534   1.358 -1.3072 -2.8650  2.3774
18614SOL    HW259341   9.226   7.558   1.475 -0.3842  0.8747  1.0080
18615SOL     OW59342   8.372   5.145   2.721 -0.1932 -0.0449  0.1270
18615SOL    HW159343   8.276   5.142   2.725 -0.2033  0.9830  1.9640
18615SOL    HW259344   8.392   5.156   2.628 -1.9317  0.8931 -0.1841
18616SOL     OW59345   2.511   7.526   5.220  0.6319 -0.2187 -0.4520
18616SOL    HW159346   2.587   7.487   5.177 -0.6120 -2.4017 -0.8302
18616SOL    HW259347   2.529   7.516   5.314  2.2607  2.3728 -0.3897
18617SOL     OW59348   0.649   9.714   2.446  0.0487 -0.0444 -0.2287
18617SOL    HW159349   0.738   9.716   2.409 -0.1053 -0.2449 -0.6214
18617SOL    HW259350   0.616   9.627   2.424 -0.5398  0.3138 -0.7936
18618SOL     OW59351   1.135   8.368   5.378  0.0716  0.5276 -0.7007
18618SOL    HW159352   1.169   8.346   5.291  1.1952  0.6501 -0.3083
18618SOL    HW259353   1.189   8.441   5.407  0.5711 -0.3191  0.6151
18619SOL     OW59354   1.692   6.120   6.320  0.0377 -0.2620  0.0979
18619SOL    HW159355   1.717   6.133   6.412 -0.0362 -0.1320  0.0996
18619SOL    HW259356   1.703   6.026   6.306  0.6499 -0.1892  0.0637
18620SOL     OW59357   2.370   3.175  10.197 -0.4505 -0.0300  0.3182
18620SOL    HW159358   2.314   3.182  10.274  0.5698 -1.1529  1.2084
18620SOL    HW259359   2.436   3.110  10.221  0.0951 -0.1698 -1.3913
18621SOL     OW59360   0.656   9.095   9.651 -0.2456  0.6591 -0.0662
18621SOL    HW159361   0.686   9.161   9.590  1.4919  0.6145  0.6756
18621SOL    HW259362   0.653   9.014   9.600  1.0503  0.6487 -0.1531
18622SOL     OW59363   9.483   3.480   5.096 -0.3377 -0.2571 -0.4075
18622SOL    HW159364   9.461   3.494   5.004 -0.1965 -1.8646 -0.7202
18622SOL    HW259365   9.546   3.407   5.095  0.1929  0.1465  0.9190
18623SOL     OW59366   8.125   4.054   6.267  0.4154  0.1687 -0.1310
18623SOL    HW159367   8.125   3.983   6.332 -1.4223  0.6025  0.4088
18623SOL    HW259368   8.102   4.132   6.318 -4.1144  0.0818 -1.5904
18624SOL     OW59369  10.161   3.651   8.119 -0.0388 -0.0228  0.5510
18624SOL    HW159370  10.177   3.661   8.212  0.2164  0.9311  0.4114
18624SOL    HW259371  10.096   3.719   8.098  0.5347  0.3322 -0.1234
18625SOL     OW59372   4.706   6.391   9.105  0.1658  0.9095 -0.1343
18625SOL    HW159373   4.780   6.415   9.161  0.2725  0.0008  0.1404
18625SOL    HW259374   4.673   6.474   9.072  1.9563  1.2773 -1.1094
18626SOL     OW59375   8.261  10.847   4.758 -0.2440  0.5624  0.2048
18626SOL    HW159376   8.203  10.826   4.831 -0.0500 -0.3561  0.1030
18626SOL    HW259377   8.211  10.910   4.705 -2.0521 -1.7292 -0.9808
18627SOL     OW59378   5.354  10.466   7.573 -0.2217 -0.6136  0.2912
18627SOL    HW159379   5.371  10.432   7.485  0.1883  4.2160 -1.8585
18627SOL    HW259380   5.441  10.482   7.610 -0.3989 -1.4547  1.1272
18628SOL     OW59381   6.468   7.434   8.058 -0.5142 -0.0866 -0.3115
18628SOL    HW159382   6.458   7.484   7.977 -1.2253 -1.5779 -1.1994
18628SOL    HW259383   6.551   7.465   8.096 -0.6472  1.3078 -1.1086
18629SOL     OW59384   1.483   6.743   4.717 -0.1766  0.3914 -0.4706
18629SOL    HW159385   1.526   6.697   4.789 -1.3869 -1.1865 -0.7092
18629SOL    HW259386   1.517   6.832   4.722  1.0366 -0.1110  0.9996
18630SOL     OW59387   9.287   2.834   4.805 -0.2113  0.1022 -0.1813
18630SOL    HW159388   9.327   2.748   4.814  1.3149  0.8960  1.1799
18630SOL    HW259389   9.296   2.873   4.892  0.3199  2.1201 -1.0985
18631SOL     OW59390   4.498   4.284   8.790 -0.7435 -0.7808  0.4802
18631SOL    HW159391   4.511   4.370   8.830 -1.0163 -0.2231 -0.5956
18631SOL    HW259392   4.581   4.238   8.806 -0.6175 -0.3551  1.1235
18632SOL     OW59393   1.650   5.335   9.691 -0.2507 -0.2799  0.2576
18632SOL    HW159394   1.618   5.419   9.658 -0.0367 -0.2486  0.1303
18632SOL    HW259395   1.571   5.291   9.724 -0.3742 -0.0614  0.2564
18633SOL     OW59396  10.146   1.473   1.410 -0.3166 -0.0123 -0.0961
18633SOL    HW159397  10.166   1.429   1.327 -0.6971 -0.2927 -0.0434
18633SOL    HW259398  10.060   1.440   1.434 -0.7065  0.9297 -0.1585
18634SOL     OW59399   4.742   1.875   6.184 -0.1759  0.8388  0.1617
18634SOL    HW159400   4.835   1.897   6.176 -0.1460  0.1308 -1.9548
18634SOL    HW259401   4.735   1.785   6.152 -1.4912  0.5994  1.0331
18635SOL     OW59402   9.220  10.041   7.128  0.0453  0.3552  0.7488
18635SOL    HW159403   9.169  10.017   7.050 -0.5165  0.8327  0.9568
18635SOL    HW259404   9.197  10.132   7.144  2.1965  1.0984 -0.0812
18636SOL     OW59405   6.489  10.170  10.772  0.3614 -0.2026  0.8946
18636SOL    HW159406   6.520  10.225  10.843  1.6342  1.0585 -0.5699
18636SOL    HW259407   6.412  10.125  10.808  0.4733  1.0086  2.7679
18637SOL     OW59408   4.150   4.325   2.889 -0.4789  0.4813 -0.7516
18637SOL    HW159409   4.209   4.281   2.829  0.7481 -0.9410  1.3554
18637SOL    HW259410   4.208   4.371   2.950 -1.6517  1.7374 -0.5463
18638SOL     OW59411  10.894   5.263   4.568 -0.3909  0.4631 -0.0423
18638SOL    HW159412  10.933   5.276   4.481  0.8668 -2.6835 -0.0967
18638SOL    HW259413  10.933   5.182   4.599  0.2008  2.1016  4.0819
18639SOL     OW59414   6.854   8.083   4.197 -0.4875  0.4158  0.1615
18639SOL    HW159415   6.769   8.043   4.178  0.2338 -1.0068 -0.2291
18639SOL    HW259416   6.889   8.105   4.111 -0.2396  0.5261  0.2908
18640SOL     OW59417   8.364   2.135  10.867 -0.5907  0.3564 -0.2301
18640SOL    HW159418   8.383   2.168  10.779  0.8509  0.5742  0.1282
18640SOL    HW259419   8.269   2.127  10.870 -0.6230 -0.5451 -2.1290
18641SOL     OW59420   3.753   6.988   2.104 -0.0308  0.3341 -0.2319
18641SOL    HW159421   3.730   7.057   2.166 -0.5747  1.2510 -1.4013
18641SOL    HW259422   3.849   6.992   2.099 -0.0541  1.0258 -0.2962
18642SOL     OW59423   9.275   2.220   0.433  0.1072  0.2177 -0.2850
18642SOL    HW159424   9.370   2.217   0.442  0.1268 -0.0617 -0.5803
18642SOL    HW259425   9.245   2.267   0.511  0.4422 -0.2273  0.1178
18643SOL     OW59426   2.907   1.490   3.901 -0.1808 -0.4887 -0.6829
18643SOL    HW159427   2.860   1.424   3.851 -1.0033 -0.4276 -0.0161
18643SOL    HW259428   2.985   1.509   3.849 -0.6276 -0.9784 -1.5535
18644SOL     OW59429  10.517  10.074   4.896 -0.1523  0.9396  0.2796
18644SOL    HW159430  10.556  10.157   4.869 -0.4628  1.1818  0.5678
18644SOL    HW259431  10.548  10.011   4.832 -0.7716  1.4727 -0.5622
18645SOL     OW59432   0.598   8.330   6.566 -0.1411  0.3555 -0.2087
18645SOL    HW159433   0.534   8.326   6.496 -2.0059  2.4876  1.2158
18645SOL    HW259434   0.557   8.284   6.639  0.9502 -0.2239  0.0635
18646SOL     OW59435  10.622   2.880   7.718 -0.0872 -0.1895  0.0143
18646SOL    HW159436  10.590   2.968   7.737  2.7085  0.7582  0.8107
18646SOL    HW259437  10.635   2.879   7.623  1.6043  0.9691  0.1922
18647SOL     OW59438   2.073   6.637   6.796  0.6049  0.4936 -0.3120
18647SOL    HW159439   2.162   6.672   6.795  0.9217 -0.2338  0.7096
18647SOL    HW259440   2.068   6.580   6.720  1.0887  0.3601 -0.2455
18648SOL     OW59441   5.848  10.385   1.661 -0.5961  0.2025 -0.0144
18648SOL    HW159442   5.937  10.349   1.656 -0.6712 -0.0907  0.6607
18648SOL    HW259443   5.822  10.398   1.570  0.4482  1.0491 -0.2223
18649SOL     OW59444   5.224   9.261   0.758  0.0098  0.2784 -0.0656
18649SOL    HW159445   5.286   9.308   0.704  1.1360  0.4971  1.3494
18649SOL    HW259446   5.168   9.214   0.696  0.9344  0.8824 -1.3968
18650SOL     OW59447   1.984   1.159   1.400  0.3334 -0.1072  0.3987
18650SOL    HW159448   1.968   1.071   1.366  1.3692  0.2071 -0.9894
18650SOL    HW259449   1.958   1.218   1.329 -0.2288  0.7319  1.2580
18651SOL     OW59450   3.639   6.946   1.827 -0.2874 -0.3464 -0.5756
18651SOL    HW159451   3.694   6.933   1.751  0.0663  1.6146 -0.7076
18651SOL    HW259452   3.694   6.993   1.890 -1.6408  1.3768 -0.5842
18652SOL     OW59453   7.044   6.062  10.850  0.0151  0.8086  0.1644
18652SOL    HW159454   7.061   6.009  10.927  0.0774 -1.6699 -1.4609
18652SOL    HW259455   6.959   6.102  10.868 -0.8772 -1.2245  0.7949
18653SOL     OW59456   4.344   8.784   7.847 -0.1589 -0.2626  0.0505
18653SOL    HW159457   4.307   8.850   7.789  2.0053  0.0522 -1.0663
18653SOL    HW259458   4.411   8.831   7.897 -0.0375 -1.1674  0.7661
18654SOL     OW59459   5.914   4.482   8.433  0.1663 -0.0124  0.6445
18654SOL    HW159460   6.009   4.492   8.434  0.2532 -0.5268  3.0043
18654SOL    HW259461   5.899   4.388   8.444 -0.7150 -0.8427 -4.6964
18655SOL     OW59462   5.859   3.770   7.184  0.0948 -0.1411 -1.0253
18655SOL    HW159463   5.809   3.731   7.112  0.4342 -2.5381 -0.0364
18655SOL    HW259464   5.893   3.696   7.233  0.0231  1.4106  1.5486
18656SOL     OW59465   7.560   9.499   7.352  0.0460 -0.4384  0.0208
18656SOL    HW159466   7.618   9.427   7.376 -0.5584 -0.4290  1.5907
18656SOL    HW259467   7.474   9.458   7.342 -0.0346 -0.1553 -0.5040
18657SOL     OW59468   1.972   6.713   2.500 -0.0906 -0.2020 -0.1475
18657SOL    HW159469   2.067   6.723   2.503  0.0521 -1.5772  1.4937
18657SOL    HW259470   1.958   6.618   2.493 -1.3544  0.0370 -1.2503
18658SOL     OW59471  10.797   5.967   4.546 -0.2908 -0.3713 -0.1119
18658SOL    HW159472  10.839   5.972   4.632  0.3080  2.1886 -0.4727
18658SOL    HW259473  10.849   5.902   4.498  1.7822  0.9180  0.2667
18659SOL     OW59474   8.435   8.573   5.745 -0.5062  0.2975 -0.3391
18659SOL    HW159475   8.393   8.653   5.714 -3.1445 -0.0920  1.8099
18659SOL    HW259476   8.482   8.599   5.824 -0.4167 -0.0557 -0.2737
18660SOL     OW59477   7.589   6.773   7.793  0.0387 -0.6981 -0.3796
18660SOL    HW159478   7.514   6.714   7.798 -0.4700 -0.0511 -0.1849
18660SOL    HW259479   7.665   6.715   7.789 -0.4839 -1.3614 -0.8283
18661SOL     OW59480   3.715   0.226   5.732 -0.0632 -0.3468 -0.2872
18661SOL    HW159481   3.787   0.214   5.794 -0.5325  1.7598  0.7493
18661SOL    HW259482   3.636   0.227   5.786 -0.8769 -2.1404 -1.3548
18662SOL     OW59483   6.453   6.764   0.501  0.6590 -0.0381  0.2959
18662SOL    HW159484   6.392   6.756   0.574 -0.2423 -1.9395 -0.5851
18662SOL    HW259485   6.462   6.858   0.488 -2.8517  0.3930 -0.0836
18663SOL     OW59486   7.287   8.370   4.813 -0.7962  0.3387  0.2411
18663SOL    HW159487   7.202   8.406   4.838 -0.7291  0.7170 -0.0612
18663SOL    HW259488   7.269   8.312   4.740 -0.5138  2.3481 -1.5271
18664SOL     OW59489   7.691   9.172   5.814  0.0098 -0.4312 -0.1434
18664SOL    HW159490   7.696   9.246   5.754 -0.6236  1.9774  2.5526
18664SOL    HW259491   7.600   9.143   5.808 -0.6199  1.1490  1.0310
18665SOL     OW59492   0.911   2.534   2.356 -0.4276 -0.4700 -0.3220
18665SOL    HW159493   0.823   2.548   2.321 -0.2043 -0.3095 -0.8225
18665SOL    HW259494   0.946   2.622   2.371 -0.2994 -0.5311 -0.2533
18666SOL     OW59495   0.204  10.921   2.551 -0.1174 -0.1187 -0.4253
18666SOL    HW159496   0.170  10.837   2.581  0.6474  0.1714  1.3461
18666SOL    HW259497   0.290  10.928   2.591  0.2085  1.1147 -1.2811
18667SOL     OW59498   3.087   4.934  10.394  0.1439 -0.2647 -0.0095
18667SOL    HW159499   3.021   5.000  10.414 -0.0715 -1.0806  2.1672
18667SOL    HW259500   3.169   4.982  10.392 -0.1528  0.2641  0.2412
18668SOL     OW59501   0.135   8.330   2.222 -0.2240 -0.1054  0.7789
18668SOL    HW159502   0.147   8.396   2.291  0.4459  1.5591 -0.8403
18668SOL    HW259503   0.045   8.343   2.192 -0.9492 -1.6961  2.1408
18669SOL     OW59504   2.827  10.629   2.024  0.5508  0.0559 -0.1453
18669SOL    HW159505   2.750  10.620   1.967  0.8294 -0.2824 -0.4778
18669SOL    HW259506   2.813  10.566   2.094  0.1163  0.6065  0.2725
18670SOL     OW59507   2.983   4.221   0.857 -0.0719  0.1109  0.0860
18670SOL    HW159508   3.047   4.286   0.828 -1.8812  1.0534 -2.0917
18670SOL    HW259509   2.964   4.169   0.778  0.5094 -2.4446  1.4912
18671SOL     OW59510   5.536   6.780   0.562  0.1746  0.4334  0.6735
18671SOL    HW159511   5.610   6.737   0.604 -0.1951 -0.1086  0.7777
18671SOL    HW259512   5.543   6.872   0.589  2.3235  0.9887 -1.4514
18672SOL     OW59513   4.008   1.658   0.989  0.4584  0.1229 -0.1578
18672SOL    HW159514   4.032   1.730   1.048  1.0726  2.5671 -3.1157
18672SOL    HW259515   4.092   1.616   0.968  0.4776  0.3786 -0.6020
18673SOL     OW59516  10.950   8.268   3.496  0.2716 -0.0219 -0.7206
18673SOL    HW159517  11.031   8.258   3.446  1.3279 -1.8426  1.1743
18673SOL    HW259518  10.962   8.348   3.546  2.1986 -1.6358  1.5900
18674SOL     OW59519   5.579   6.238   1.297 -0.0650  0.2921  0.0342
18674SOL    HW159520   5.499   6.187   1.310 -0.1337  0.1595 -0.8826
18674SOL    HW259521   5.605   6.265   1.386  1.2033 -3.2107  0.9141
18675SOL     OW59522   1.651   7.100   1.431  0.2281  0.4614  0.3956
18675SOL    HW159523   1.670   7.009   1.453 -0.0933  0.7609  2.1052
18675SOL    HW259524   1.572   7.120   1.482 -0.0242  1.5402 -0.3839
18676SOL     OW59525   5.371   2.072   5.804  0.2015  0.0604  0.2606
18676SOL    HW159526   5.448   2.128   5.809 -0.9357  1.7222 -0.0272
18676SOL    HW259527   5.396   1.992   5.850  3.0591 -0.6584 -2.2429
18677SOL     OW59528   7.051   8.764   6.972 -0.0792 -0.3193  0.2299
18677SOL    HW159529   7.003   8.841   7.001 -0.1920 -0.4203  0.3113
18677SOL    HW259530   6.988   8.716   6.918 -0.1085 -0.5171  0.4421
18678SOL     OW59531   7.664   4.398   4.335  0.1188 -0.0935  0.8242
18678SOL    HW159532   7.586   4.357   4.372 -0.3024  1.1439  1.3723
18678SOL    HW259533   7.652   4.492   4.353  1.4547  0.1740  0.4060
18679SOL     OW59534   8.153   4.316   9.655 -0.0343  0.4625  0.0317
18679SOL    HW159535   8.122   4.396   9.699 -0.3004  0.1220  0.4774
18679SOL    HW259536   8.208   4.273   9.720  0.1609  0.3167 -0.2319
18680SOL     OW59537   7.635   0.539   1.453  0.3541  0.2208  0.1702
18680SOL    HW159538   7.575   0.590   1.399  0.7849  0.0093 -0.5166
18680SOL    HW259539   7.588   0.527   1.536 -0.4761  0.1996 -0.2928
18681SOL     OW59540   7.874   0.979   1.657  0.0603  0.1331  0.6688
18681SOL    HW159541   7.867   1.056   1.713 -1.0937 -0.7258  1.7623
18681SOL    HW259542   7.855   0.905   1.715 -0.2141 -0.8725 -0.6498
18682SOL     OW59543  10.851   2.177   8.059  0.1583 -0.9737  0.3678
18682SOL    HW159544  10.830   2.171   7.965  0.3147  0.4790  0.2111
18682SOL    HW259545  10.923   2.240   8.063 -0.5966 -0.1368  1.5474
18683SOL     OW59546   7.349   0.793   0.739  0.1525  0.1419  0.2161
18683SOL    HW159547   7.378   0.867   0.792  0.2115 -0.6508  1.3365
18683SOL    HW259548   7.281   0.751   0.793 -1.4775  0.6354 -1.3462
18684SOL     OW59549   9.048   2.380   2.159  0.1552 -0.7165  0.5621
18684SOL    HW159550   8.954   2.401   2.166  0.5372  0.9265  1.3250
18684SOL    HW259551   9.077   2.425   2.079  0.7390  0.8048  1.5762
18685SOL     OW59552   7.515   6.224   0.721  0.4471  0.3346 -0.2576
18685SOL    HW159553   7.553   6.258   0.640  0.9658  2.0151  0.6555
18685SOL    HW259554   7.433   6.273   0.732  0.9175  0.9161  0.7822
18686SOL     OW59555  10.973   1.577   7.673 -0.3712 -0.0108 -0.1336
18686SOL    HW159556  11.033   1.639   7.631 -1.0309  1.1018  0.4989
18686SOL    HW259557  10.894   1.629   7.691 -0.0648 -0.3436  2.6080
18687SOL     OW59558   5.221   5.488   0.030 -0.6559 -0.4058 -0.3217
18687SOL    HW159559   5.288   5.428   0.062 -0.0369 -0.5723 -1.8135
18687SOL    HW259560   5.240   5.572   0.073 -0.1981 -0.7390  0.1291
18688SOL     OW59561  10.957   8.345   7.709  0.2804  0.5322  0.1770
18688SOL    HW159562  10.863   8.364   7.715  0.0994 -0.6065  1.7505
18688SOL    HW259563  10.969   8.265   7.762  2.1657  0.7787  0.2060
18689SOL     OW59564   6.724   9.925   3.657  0.7251 -0.0981  0.3080
18689SOL    HW159565   6.814   9.945   3.681  0.0158  0.1891  2.9845
18689SOL    HW259566   6.698   9.855   3.716 -0.6537 -0.5653 -0.7919
18690SOL     OW59567   6.574   9.414   8.267 -0.3332 -0.0107  0.3935
18690SOL    HW159568   6.619   9.454   8.192  0.2903  1.5119  1.5102
18690SOL    HW259569   6.484   9.404   8.239  0.1518 -0.6631 -0.9944
18691SOL     OW59570   7.996   6.601   6.938  0.8642 -0.3089  0.0892
18691SOL    HW159571   7.931   6.671   6.942  0.9713 -0.2204  0.3471
18691SOL    HW259572   7.949   6.523   6.969  1.0322 -0.1262  0.8194
18692SOL     OW59573   2.550   0.172   7.758  0.0222 -0.0834 -0.2615
18692SOL    HW159574   2.578   0.081   7.753 -0.0113 -0.1089  0.0488
18692SOL    HW259575   2.591   0.206   7.838 -0.7150 -0.0803  0.1194
18693SOL     OW59576  10.597   9.241   0.475 -0.3429 -0.0701  0.0682
18693SOL    HW159577  10.605   9.172   0.541 -1.4717  0.6596  1.0064
18693SOL    HW259578  10.504   9.243   0.454 -0.0791  0.0959 -1.1324
18694SOL     OW59579   9.422   0.320   5.865  0.2509  0.6379 -0.0291
18694SOL    HW159580   9.435   0.415   5.862  0.3471  0.7021  1.6265
18694SOL    HW259581   9.511   0.285   5.873  0.2610  0.3629 -1.2722
18695SOL     OW59582   7.950   0.301  10.431 -0.5426  0.5397  0.0612
18695SOL    HW159583   8.007   0.242  10.381 -0.6991 -0.6121  1.1894
18695SOL    HW259584   7.952   0.267  10.520 -1.2223  1.8322  0.6014
18696SOL     OW59585   4.458   3.923   6.313 -0.5053  0.0303 -0.0102
18696SOL    HW159586   4.381   3.944   6.366 -0.3992 -0.5481  0.3781
18696SOL    HW259587   4.428   3.934   6.223 -1.6413 -2.0255  0.0375
18697SOL     OW59588   1.030   6.260   1.645 -0.1666 -0.3191  0.2090
18697SOL    HW159589   1.097   6.193   1.640 -0.3741 -0.4039 -2.3663
18697SOL    HW259590   1.074   6.335   1.685  0.7505 -1.1482  0.8046
18698SOL     OW59591   2.907   6.739   8.779 -0.6033 -0.4868 -0.0995
18698SOL    HW159592   2.880   6.806   8.716 -2.4510 -1.4631 -0.4242
18698SOL    HW259593   2.942   6.788   8.853  1.9147  0.6980 -1.9283
18699SOL     OW59594   5.881   2.760   5.935 -0.5049  0.3687 -0.2434
18699SOL    HW159595   5.864   2.818   5.860 -0.5499  1.2145  0.4068
18699SOL    HW259596   5.878   2.672   5.898 -2.6541  0.6336 -0.8605
18700SOL     OW59597   1.020   0.062  10.255  0.4639 -0.1026  0.2617
18700SOL    HW159598   0.972   0.058  10.172  0.2097 -1.6046  0.4516
18700SOL    HW259599   0.987   0.140  10.298 -0.2667  0.0480 -0.5446
18701SOL     OW59600   1.445  10.495   0.366  0.0691  0.4884  0.7568
18701SOL    HW159601   1.455  10.409   0.324 -0.5955  0.4162  0.7328
18701SOL    HW259602   1.501  10.489   0.444  0.7200  0.3557  0.2898
18702SOL     OW59603  10.218   8.677   3.522  0.2034 -0.7236  0.1608
18702SOL    HW159604  10.304   8.720   3.529 -0.6801  1.1427  0.0243
18702SOL    HW259605  10.213   8.649   3.431  0.2882  0.0022 -0.0714
18703SOL     OW59606   5.080   3.056   1.578  0.5041  0.2185 -0.3313
18703SOL    HW159607   5.121   3.142   1.567  0.9485  0.1437  0.6366
18703SOL    HW259608   5.126   3.000   1.517 -0.5356  0.8901 -1.7908
18704SOL     OW59609   2.851   1.023   4.541  0.8461  0.2135  0.8575
18704SOL    HW159610   2.775   1.080   4.527  0.8955  0.2879  0.8918
18704SOL    HW259611   2.851   1.007   4.635 -0.4983 -1.6797  0.5997
18705SOL     OW59612   5.819   6.480   0.465  0.0200 -0.0147  0.4706
18705SOL    HW159613   5.871   6.448   0.391  0.4604  2.5251 -0.3851
18705SOL    HW259614   5.863   6.443   0.542  0.0191 -2.0570 -0.4498
18706SOL     OW59615   0.695   0.893   9.550  0.1754  0.1125  0.1475
18706SOL    HW159616   0.694   0.895   9.645 -0.7470  0.2886  0.1390
18706SOL    HW259617   0.777   0.936   9.526  0.9317 -0.8770  0.8676
18707SOL     OW59618   8.509   3.131  10.502 -0.7261 -0.0589  0.5553
18707SOL    HW159619   8.468   3.066  10.560 -0.1623 -0.1410  0.8704
18707SOL    HW259620   8.503   3.213  10.551 -0.2810 -0.1215  0.7214
18708SOL     OW59621   0.215   6.045   8.201  0.7206  0.0406  0.6308
18708SOL    HW159622   0.129   6.082   8.182  0.4431  0.1401  1.9946
18708SOL    HW259623   0.270   6.121   8.222  1.1762 -0.0166 -0.2778
18709SOL     OW59624   4.989   0.265   8.188 -0.2205 -0.0973  0.1428
18709SOL    HW159625   5.047   0.310   8.127 -0.8639  0.1152 -0.3253
18709SOL    HW259626   5.017   0.296   8.275 -0.6681  1.2340 -0.1685
18710SOL     OW59627   1.222   5.008   8.034  0.4085 -0.2372  0.3037
18710SOL    HW159628   1.164   5.039   7.964 -0.5845 -2.2241  0.1729
18710SOL    HW259629   1.310   5.018   7.997 -0.1037 -1.5618 -1.4074
18711SOL     OW59630  10.834   4.801   6.538 -0.1187  0.1395  0.4424
18711SOL    HW159631  10.844   4.896   6.528  0.8272 -0.1269 -1.4171
18711SOL    HW259632  10.838   4.787   6.633 -1.7772  2.0883  0.8712
18712SOL     OW59633   2.176   8.546   2.536 -0.3229  0.1193  0.0224
18712SOL    HW159634   2.162   8.508   2.623 -2.1682  0.3876 -0.1359
18712SOL    HW259635   2.134   8.485   2.476  0.5570  0.1651 -0.6572
18713SOL     OW59636   4.303   5.945   1.902  0.0817 -0.6121  0.0545
18713SOL    HW159637   4.247   5.869   1.889  1.1689 -1.4154 -0.0967
18713SOL    HW259638   4.275   6.008   1.836 -0.4091 -1.1215 -0.2298
18714SOL     OW59639   3.174   7.321   3.094  0.0253  0.0832 -0.3672
18714SOL    HW159640   3.111   7.392   3.086  1.2836  1.1450 -1.3548
18714SOL    HW259641   3.184   7.287   3.005 -0.9880 -1.7523  0.1782
18715SOL     OW59642   9.676   5.374   2.852 -0.1353 -0.3253 -0.0366
18715SOL    HW159643   9.705   5.351   2.764 -2.5497 -0.8729 -0.7555
18715SOL    HW259644   9.688   5.294   2.903 -0.2001 -0.4824 -0.2676
18716SOL     OW59645   1.656   1.511   0.300 -0.3917 -0.2968  0.4657
18716SOL    HW159646   1.697   1.571   0.238  0.5663 -0.2812  1.0910
18716SOL    HW259647   1.568   1.496   0.265  0.6113 -1.5203 -1.7781
18717SOL     OW59648  10.608   5.120   1.989  0.2901  0.4199  0.6728
18717SOL    HW159649  10.583   5.035   1.953 -1.5112  0.4000  1.8475
18717SOL    HW259650  10.605   5.107   2.084 -1.5636  2.1844  0.9066
18718SOL     OW59651   7.906   1.447   7.727 -0.6329  0.0535 -0.4631
18718SOL    HW159652   7.912   1.468   7.633  0.8535  0.8307 -0.2176
18718SOL    HW259653   7.814   1.422   7.739 -1.0649  0.7594 -1.9633
18719SOL     OW59654   7.322   8.003   0.349 -0.2049  0.2891  0.1624
18719SOL    HW159655   7.358   7.925   0.306 -0.5158 -0.3300  0.9873
18719SOL    HW259656   7.354   8.076   0.297  2.0280 -0.2365  0.6718
18720SOL     OW59657   3.259   5.256   4.974 -0.4466  0.2565 -0.1948
18720SOL    HW159658   3.294   5.283   5.058 -1.8228 -1.0252  0.8430
18720SOL    HW259659   3.186   5.315   4.957 -0.3392  0.3418 -0.3675
18721SOL     OW59660  10.748  10.267   4.798  0.3297 -0.2280 -0.4000
18721SOL    HW159661  10.748  10.339   4.735  1.4856  0.0568 -0.1004
18721SOL    HW259662  10.840  10.256   4.822  0.2709 -2.1756 -0.8517
18722SOL     OW59663   7.924   3.191   7.368  0.0892  0.3555  0.1481
18722SOL    HW159664   7.933   3.201   7.273  0.3063 -1.1190 -0.0029
18722SOL    HW259665   7.890   3.276   7.397  0.0323  0.8413 -1.2397
18723SOL     OW59666   7.928   5.707   3.853 -0.2926 -0.3433 -0.9833
18723SOL    HW159667   7.850   5.692   3.798 -0.2959  0.0271 -1.0842
18723SOL    HW259668   7.995   5.651   3.815 -1.4386 -3.5484  1.2673
18724SOL     OW59669   2.070   5.622  10.487  0.4870 -0.0713 -0.7439
18724SOL    HW159670   2.083   5.529  10.468  0.5602 -0.2024 -0.0979
18724SOL    HW259671   2.100   5.668  10.409  2.0224 -0.5212 -0.4494
18725SOL     OW59672   2.598   0.521   1.720 -0.6369 -0.0703  0.7238
18725SOL    HW159673   2.651   0.516   1.800 -1.0017 -3.0574  0.8990
18725SOL    HW259674   2.508   0.522   1.751 -0.7862 -1.4221  0.4198
18726SOL     OW59675   3.530   1.996   2.700  0.5182 -0.2680  0.2810
18726SOL    HW159676   3.606   2.052   2.686  1.5057 -1.2623  1.5196
18726SOL    HW259677   3.565   1.914   2.734 -1.0026 -1.2428 -0.3749
18727SOL     OW59678   6.770   2.516   2.786  0.0124  0.5409  0.2664
18727SOL    HW159679   6.805   2.596   2.824  0.9084  1.0145 -1.4644
18727SOL    HW259680   6.687   2.543   2.745 -0.2951  0.3051  0.7170
18728SOL     OW59681  10.346   9.893   0.514 -0.1350 -0.3731 -0.1639
18728SOL    HW159682  10.259   9.921   0.542  0.7442  1.7219  0.7080
18728SOL    HW259683  10.406   9.949   0.563  1.6210  0.6752 -3.2012
18729SOL     OW59684   7.201   9.463   4.331 -0.6261 -0.3405 -0.2645
18729SOL    HW159685   7.166   9.544   4.295  1.0550  0.0871 -1.0009
18729SOL    HW259686   7.133   9.398   4.313 -2.0255  0.8907  0.4021
18730SOL     OW59687   3.610   2.713   6.210  0.3503 -0.3222  0.8499
18730SOL    HW159688   3.629   2.779   6.143  1.6477  0.3464  1.8194
18730SOL    HW259689   3.684   2.653   6.206  0.6582 -0.0494  1.9211
18731SOL     OW59690   8.260   7.951   2.200 -0.6354 -0.2024 -0.6770
18731SOL    HW159691   8.274   8.041   2.172  1.3616 -0.7397 -1.6314
18731SOL    HW259692   8.239   7.957   2.293  0.6311  1.1834 -0.4449
18732SOL     OW59693   9.079  10.769   1.862  0.5944  0.5640 -0.1370
18732SOL    HW159694   9.156  10.798   1.911 -0.1301  1.6764  0.3977
18732SOL    HW259695   9.036  10.706   1.919  0.4036  0.9519  0.1587
18733SOL     OW59696   8.921   1.918   2.535 -0.0195 -0.0447  0.4369
18733SOL    HW159697   8.986   1.905   2.605 -2.0584  0.5258  2.5522
18733SOL    HW259698   8.895   2.009   2.544 -1.2746 -0.3288 -0.2161
18734SOL     OW59699   4.777   6.747   2.198 -0.3904 -0.0736 -0.1922
18734SOL    HW159700   4.842   6.816   2.206 -0.4694 -0.1795  2.2320
18734SOL    HW259701   4.726   6.770   2.121  0.9222  1.3830 -0.6738
18735SOL     OW59702   4.534   8.406  10.446  0.3673 -0.1614 -0.5868
18735SOL    HW159703   4.474   8.401  10.520 -0.6873  2.8464 -1.0894
18735SOL    HW259704   4.482   8.444  10.375  1.9767 -0.7156 -2.1344
18736SOL     OW59705   9.386   5.406   3.010 -0.0694  0.4537 -0.4627
18736SOL    HW159706   9.318   5.474   3.007  0.4957  0.9970 -1.7080
18736SOL    HW259707   9.440   5.429   3.086 -0.8673  0.4073  0.1294
18737SOL     OW59708  10.904   8.879   5.108 -0.6604 -0.2516 -0.0598
18737SOL    HW159709  10.920   8.808   5.046 -1.1381 -0.9262  0.5790
18737SOL    HW259710  10.962   8.861   5.181 -1.6886 -0.6922  0.6617
18738SOL     OW59711   7.454   1.592   7.658  0.1439  0.3184  0.1579
18738SOL    HW159712   7.438   1.636   7.574  2.0948  1.5789  0.3683
18738SOL    HW259713   7.405   1.510   7.652  0.7831  0.0295 -2.5284
18739SOL     OW59714   0.667   4.960   6.029  0.0006  0.6539 -0.1117
18739SOL    HW159715   0.703   4.949   5.941 -0.7607 -1.0721 -0.2495
18739SOL    HW259716   0.615   4.880   6.044 -0.3845  1.1911  1.6627
18740SOL     OW59717   2.506   7.233  10.993  0.1331  0.0709  0.1489
18740SOL    HW159718   2.572   7.164  10.984  0.3370 -0.3356  3.5725
18740SOL    HW259719   2.423   7.187  10.985  0.1978  0.2152 -1.8764
18741SOL     OW59720   1.501   1.316   2.327 -0.2674 -0.0254 -0.1730
18741SOL    HW159721   1.535   1.291   2.413  0.2471  1.1130 -0.0283
18741SOL    HW259722   1.545   1.257   2.266 -0.9144 -1.0929  0.3661
18742SOL     OW59723   1.277   6.423   4.469  0.3936  0.4319 -0.5556
18742SOL    HW159724   1.311   6.473   4.544 -2.6362  0.0066  1.3123
18742SOL    HW259725   1.262   6.489   4.401 -2.3857  2.1045  1.4299
18743SOL     OW59726   0.316  10.691   6.009 -0.3302 -0.0145  0.4499
18743SOL    HW159727   0.233  10.740   6.009 -0.8623 -0.8927 -0.2578
18743SOL    HW259728   0.376  10.746   6.059 -1.2678  0.7646  0.7479
18744SOL     OW59729   4.257   4.532   8.887 -0.2374 -0.1043  0.2715
18744SOL    HW159730   4.232   4.586   8.963 -0.8050 -0.0568  0.0484
18744SOL    HW259731   4.225   4.445   8.908  0.0339 -0.1972  0.3007
18745SOL     OW59732   7.265   4.617   2.831 -0.0676  0.5571 -0.0194
18745SOL    HW159733   7.360   4.620   2.821 -0.1300 -0.3775 -1.1651
18745SOL    HW259734   7.233   4.690   2.779 -0.0089  0.3474 -0.3551
18746SOL     OW59735   0.863   3.434   1.572 -0.2941 -0.0457  0.5649
18746SOL    HW159736   0.866   3.475   1.486 -2.0378  2.0257  1.3883
18746SOL    HW259737   0.952   3.403   1.587  1.4387  4.0102  0.0196
18747SOL     OW59738   0.060   5.539   9.760  0.4011 -0.6732 -0.4108
18747SOL    HW159739  -0.008   5.509   9.820  0.4892 -0.4320 -0.1933
18747SOL    HW259740   0.083   5.626   9.790 -0.1693 -0.1962 -1.3137
18748SOL     OW59741   6.616   4.400  10.580  0.1619 -0.1064 -0.2365
18748SOL    HW159742   6.553   4.328  10.577 -0.2394  0.2469 -0.5974
18748SOL    HW259743   6.687   4.372  10.521  1.1450 -1.2054  1.3781
18749SOL     OW59744   4.801   0.020   1.655  0.4202 -0.0708  0.2544
18749SOL    HW159745   4.730   0.085   1.660 -0.3258 -0.9556  3.9234
18749SOL    HW259746   4.880   0.071   1.673  0.3599  0.4129 -0.7715
18750SOL     OW59747  10.216   1.104   2.537  0.0186  0.0135 -0.2614
18750SOL    HW159748  10.220   1.091   2.442 -0.4394 -0.0084 -0.2795
18750SOL    HW259749  10.295   1.062   2.570 -0.2143 -0.6708 -0.5577
18751SOL     OW59750   7.991   1.465  10.342 -0.0324 -0.2440 -0.2810
18751SOL    HW159751   7.984   1.560  10.344 -1.3520 -0.3293  0.6573
18751SOL    HW259752   8.027   1.441  10.427 -2.0288 -0.6791  0.5121
18752SOL     OW59753   5.885   4.289   7.034  0.0313 -0.0611 -0.2267
18752SOL    HW159754   5.914   4.230   6.965 -2.7002 -3.3617  1.1354
18752SOL    HW259755   5.796   4.314   7.008  0.3424  1.7251  0.3176
18753SOL     OW59756   1.530   5.878   4.757  0.3779 -0.6237  0.7092
18753SOL    HW159757   1.474   5.926   4.696  0.2155 -3.0473 -1.1753
18753SOL    HW259758   1.470   5.847   4.825 -0.4136 -2.1159 -0.6142
18754SOL     OW59759  10.295   6.089   9.118  0.2026 -0.3758  0.1723
18754SOL    HW159760  10.255   6.073   9.204 -0.8084  1.5627  0.1250
18754SOL    HW259761  10.383   6.121   9.138 -0.6313  1.8150  0.6501
18755SOL     OW59762   7.448   6.489   6.767 -0.0896  0.5856  0.1693
18755SOL    HW159763   7.477   6.490   6.676  0.0330 -1.0275  0.1672
18755SOL    HW259764   7.352   6.491   6.762 -0.1024 -0.3252 -0.0306
18756SOL     OW59765   8.004   4.976   5.886  0.2650  0.0544  0.1139
18756SOL    HW159766   7.951   4.998   5.962  1.0023 -1.2682  1.0572
18756SOL    HW259767   7.980   5.041   5.820 -1.8951  0.0029  0.7758
18757SOL     OW59768   9.540   7.152   2.881 -0.0485  0.3547  0.0781
18757SOL    HW159769   9.474   7.089   2.911 -0.1587  0.7842  0.7823
18757SOL    HW259770   9.555   7.208   2.957  0.7981  0.5485 -0.2197
18758SOL     OW59771   9.821   4.420   0.345  0.4908 -0.3346 -0.0248
18758SOL    HW159772   9.764   4.487   0.307  1.3715  0.2498 -0.3459
18758SOL    HW259773   9.843   4.455   0.432 -1.1194 -1.4350  0.8797
18759SOL     OW59774   8.938   1.096   9.323 -0.0200  0.3153 -0.3346
18759SOL    HW159775   8.998   1.024   9.302 -1.6430 -0.9706 -0.8083
18759SOL    HW259776   8.938   1.101   9.418  0.5536  0.0698 -0.3219
18760SOL     OW59777   1.831   7.692   3.856 -0.1167  0.0841  0.2908
18760SOL    HW159778   1.790   7.762   3.908  1.6336  2.0768 -0.8502
18760SOL    HW259779   1.815   7.718   3.765 -0.3542 -1.6349 -0.1853
18761SOL     OW59780  10.740   4.276   3.660  0.1267  0.3142  0.0331
18761SOL    HW159781  10.794   4.308   3.588 -1.3582  2.3551 -0.2433
18761SOL    HW259782  10.662   4.240   3.618 -0.7769  1.5644  0.5773
18762SOL     OW59783   1.769   1.059   2.969 -0.3911 -0.2181 -0.6816
18762SOL    HW159784   1.833   1.002   2.927  1.1341  0.8350  0.1194
18762SOL    HW259785   1.773   1.140   2.918 -1.0466 -0.1223 -0.5827
18763SOL     OW59786   3.498   4.392   0.859 -0.5417  0.8725  0.1427
18763SOL    HW159787   3.508   4.482   0.889  1.1506  0.4648  0.8917
18763SOL    HW259788   3.506   4.339   0.939 -0.6276 -0.0009 -0.4148
18764SOL     OW59789  10.619   0.253   8.983  0.2099 -0.1647  0.6424
18764SOL    HW159790  10.588   0.326   9.037  0.0310  1.4911 -1.5211
18764SOL    HW259791  10.714   0.261   8.984  0.4258 -2.0077  3.0331
18765SOL     OW59792   5.401   8.979   7.481  0.4142  0.4157 -0.3445
18765SOL    HW159793   5.393   8.933   7.564  1.4407 -1.1504 -1.0731
18765SOL    HW259794   5.378   9.070   7.501 -0.5316 -0.1751  1.3740
18766SOL     OW59795   7.560   9.181   0.582  0.1299 -0.7072 -0.1282
18766SOL    HW159796   7.616   9.251   0.549 -1.7901  0.2395 -1.5218
18766SOL    HW259797   7.538   9.129   0.505 -0.2753 -1.5436  0.5298
18767SOL     OW59798  10.491   7.814   6.306  0.2768 -0.0128  0.3018
18767SOL    HW159799  10.490   7.732   6.356  1.7426  0.0912  0.5382
18767SOL    HW259800  10.534   7.791   6.223 -0.8958  0.1308 -0.3608
18768SOL     OW59801   8.498   7.992   1.365  0.1787  0.5977  0.1022
18768SOL    HW159802   8.425   7.941   1.330  0.5613 -0.0676  0.2589
18768SOL    HW259803   8.575   7.938   1.348  0.6268  1.2378  0.0510
18769SOL     OW59804   3.745   5.663   8.931 -0.2402  0.3256  0.2792
18769SOL    HW159805   3.806   5.725   8.972 -0.8667  1.4079 -0.3523
18769SOL    HW259806   3.744   5.688   8.839 -0.8007 -0.3894  0.0855
18770SOL     OW59807   6.982   0.215   2.060 -0.7710 -0.0378  0.2685
18770SOL    HW159808   6.912   0.185   2.002  0.5006  0.2820 -1.5149
18770SOL    HW259809   7.062   0.205   2.008  0.1384  2.9209  0.9250
18771SOL     OW59810  10.470   8.890   9.294 -0.3538  0.0029  0.0178
18771SOL    HW159811  10.483   8.797   9.276  0.8377  0.3304 -0.9051
18771SOL    HW259812  10.383   8.910   9.258  0.0598 -0.3949 -1.2296
18772SOL     OW59813   8.951  10.777   4.693 -0.1850  0.6565  0.6737
18772SOL    HW159814   8.988  10.829   4.621  3.2452 -0.6300  1.3462
18772SOL    HW259815   8.899  10.709   4.649  0.7570  0.6901 -0.5332
18773SOL     OW59816   1.911   3.046  10.925 -0.1558 -0.4422  0.5033
18773SOL    HW159817   1.842   3.087  10.976  0.1308  0.3399  0.2779
18773SOL    HW259818   1.872   3.034  10.838 -1.1268 -3.0415  1.1961
18774SOL     OW59819   7.478   1.552  10.067  0.1850 -0.1527 -0.1389
18774SOL    HW159820   7.535   1.620  10.103  0.6080  0.1807 -1.3961
18774SOL    HW259821   7.455   1.498  10.143  1.9337 -0.1119  0.4852
18775SOL     OW59822   5.096   4.954   1.071 -0.5411  0.4731  0.5852
18775SOL    HW159823   5.080   4.918   0.983 -1.5492  0.0177  0.9431
18775SOL    HW259824   5.048   4.896   1.130 -0.7754  1.4116  1.3433
18776SOL     OW59825   1.080   8.321   6.725 -0.3149  0.1046  0.3904
18776SOL    HW159826   1.103   8.323   6.632  0.9004 -1.9957  0.5932
18776SOL    HW259827   1.024   8.398   6.737 -0.4076  0.4993 -2.0367
18777SOL     OW59828   4.918   3.626   0.000  0.6643 -0.1574 -0.1888
18777SOL    HW159829   4.874   3.556  -0.046  1.0739 -0.6123  0.1008
18777SOL    HW259830   4.944   3.587   0.084  1.0858  0.2738 -0.1150
18778SOL     OW59831   9.236  10.689   9.862  0.0527 -0.2318 -0.0365
18778SOL    HW159832   9.231  10.640   9.780 -0.6015  0.6237 -0.5246
18778SOL    HW259833   9.262  10.777   9.836  0.5683 -0.1403  0.7574
18779SOL     OW59834   5.304   9.253   9.747 -0.0954 -0.4852 -0.5657
18779SOL    HW159835   5.279   9.160   9.750  0.4059 -0.6227 -0.4824
18779SOL    HW259836   5.289   9.278   9.656  0.1752 -0.7690 -0.6910
18780SOL     OW59837   3.411   6.517   7.696  0.2544 -0.0315 -0.7137
18780SOL    HW159838   3.432   6.489   7.607 -0.2820 -0.1702 -0.8047
18780SOL    HW259839   3.492   6.505   7.745  0.3161 -0.7902 -0.9839
18781SOL     OW59840  10.091   1.859  10.139 -0.1542  0.2400 -0.1272
18781SOL    HW159841  10.140   1.777  10.143  0.3068  0.5441  0.5767
18781SOL    HW259842  10.022   1.850  10.205 -0.3939  0.2376 -0.3756
18782SOL     OW59843   2.818   8.340   3.181 -0.2630 -0.1723 -0.0030
18782SOL    HW159844   2.839   8.433   3.182 -2.3316  0.3543  0.0631
18782SOL    HW259845   2.892   8.299   3.136  0.5443  1.5303 -0.3265
18783SOL     OW59846   2.423   3.561   4.971 -0.0525  0.2222  0.1953
18783SOL    HW159847   2.392   3.643   4.931  1.1093  0.7898  0.4096
18783SOL    HW259848   2.502   3.540   4.922  0.6834  0.2334  1.3510
18784SOL     OW59849   7.389   8.124   0.567 -0.1385 -0.2102 -0.0820
18784SOL    HW159850   7.347   8.088   0.489 -0.0289  1.1453 -0.7819
18784SOL    HW259851   7.479   8.092   0.561 -0.7812 -2.4622  1.0139
18785SOL     OW59852   4.582   6.762  10.629 -0.6066 -0.2505 -0.4596
18785SOL    HW159853   4.675   6.754  10.649 -0.7523 -1.0808 -0.0729
18785SOL    HW259854   4.566   6.857  10.626  0.1669 -0.1049 -0.1477
18786SOL     OW59855   2.045   7.013   7.750 -0.4953 -0.6329  0.3514
18786SOL    HW159856   1.965   6.968   7.720 -0.6921 -1.4594  1.9760
18786SOL    HW259857   2.086   6.950   7.809 -0.1855  0.8940  1.8486
18787SOL     OW59858   5.088   4.815   0.812  0.0023  0.2478 -0.2403
18787SOL    HW159859   5.160   4.766   0.852  0.6207  1.6266  0.3970
18787SOL    HW259860   5.052   4.755   0.746  1.3729 -0.6810 -0.1867
18788SOL     OW59861   8.594   8.144   8.373  0.7519  0.3500  0.0565
18788SOL    HW159862   8.680   8.179   8.350  1.6340 -1.2904  0.6254
18788SOL    HW259863   8.613   8.061   8.418 -1.1490 -0.7208 -0.9483
18789SOL     OW59864   6.216   4.412   6.138 -0.4626  0.3707  0.1341
18789SOL    HW159865   6.170   4.488   6.102 -0.7089  0.5315  0.7811
18789SOL    HW259866   6.293   4.402   6.081 -1.4231 -0.0843 -1.1519
18790SOL     OW59867   7.095   8.703   6.366  0.3860 -0.5937  0.4360
18790SOL    HW159868   7.063   8.788   6.336  1.0763 -0.0269  1.2354
18790SOL    HW259869   7.034   8.640   6.330 -0.8468  0.3403  0.8265
18791SOL     OW59870   9.898   5.432   6.326 -0.3176 -0.1188 -0.2029
18791SOL    HW159871   9.878   5.503   6.264  0.7708 -0.3394 -0.8312
18791SOL    HW259872   9.989   5.448   6.351 -0.8965  0.2793  1.7862
18792SOL     OW59873   3.119  10.521   5.098  0.4906 -0.6697 -0.4051
18792SOL    HW159874   3.136  10.443   5.151 -0.1218  0.3536  1.3866
18792SOL    HW259875   3.206  10.554   5.076  0.7889 -0.4836  0.9703
18793SOL     OW59876   4.131   4.792   9.886 -0.4242  0.2516  0.1600
18793SOL    HW159877   4.157   4.882   9.863 -1.2066  0.4027 -0.1391
18793SOL    HW259878   4.089   4.758   9.807  1.6753 -1.1138 -0.4745
18794SOL     OW59879   8.860   4.435  10.458  0.0914 -0.1520 -0.2511
18794SOL    HW159880   8.816   4.456  10.376  0.1993 -0.4980 -0.3997
18794SOL    HW259881   8.871   4.340  10.456  2.8327  0.0980 -1.2694
18795SOL     OW59882   2.450   9.268   7.116  0.1464 -0.9275 -0.1822
18795SOL    HW159883   2.409   9.216   7.046 -2.2595 -0.2654  0.6518
18795SOL    HW259884   2.419   9.227   7.197  0.1983  0.3089  0.4859
18796SOL     OW59885   3.447   5.031   0.370 -0.4961 -0.4712  0.1398
18796SOL    HW159886   3.524   5.028   0.427  0.2470  0.5637 -0.7561
18796SOL    HW259887   3.398   5.107   0.400 -0.4895 -0.3642 -0.1199
18797SOL     OW59888   9.518   8.203   2.312 -0.3092  0.0511  0.6613
18797SOL    HW159889   9.480   8.142   2.248 -0.5343 -0.5925  1.3917
18797SOL    HW259890   9.453   8.273   2.320  0.3917  0.9481 -0.9305
18798SOL     OW59891   1.027   4.168   6.111 -1.1500 -0.0217 -0.7430
18798SOL    HW159892   1.083   4.097   6.078 -1.0944 -0.0761 -0.5313
18798SOL    HW259893   1.068   4.196   6.192 -1.0992  0.3449 -0.8904
18799SOL     OW59894   3.291   0.775   1.873  0.1977 -0.5316 -0.2320
18799SOL    HW159895   3.352   0.827   1.822  2.5090 -2.3953  0.4382
18799SOL    HW259896   3.265   0.832   1.945  0.6887  0.4891 -0.8395
18800SOL     OW59897   0.465  10.445   2.490 -0.0599 -0.4187  0.0911
18800SOL    HW159898   0.400  10.510   2.466 -1.6923 -1.8435  0.4864
18800SOL    HW259899   0.464  10.381   2.419  1.1982 -0.2767 -0.0813
18801SOL     OW59900   8.343   1.685   6.998  0.2750 -0.2843  0.4456
18801SOL    HW159901   8.317   1.771   6.964  0.0606 -0.2966  0.5757
18801SOL    HW259902   8.314   1.686   7.090 -1.7222 -1.3298 -0.1185
18802SOL     OW59903   3.437   4.587   6.867  0.1258 -0.2309 -0.1557
18802SOL    HW159904   3.528   4.590   6.895  0.2276  1.4378 -0.5363
18802SOL    HW259905   3.388   4.626   6.940 -0.3573 -1.5168  0.2331
18803SOL     OW59906   0.691   8.029  10.790 -0.0199 -0.0101 -0.3792
18803SOL    HW159907   0.759   8.036  10.857 -0.9921 -0.6042  0.6839
18803SOL    HW259908   0.740   8.007  10.710  1.0147 -0.8801  0.4494
18804SOL     OW59909   5.693   6.357   5.284 -0.4033  0.3212 -0.3797
18804SOL    HW159910   5.770   6.306   5.310 -0.4821 -0.5709 -1.8011
18804SOL    HW259911   5.635   6.294   5.243 -1.5657  1.1414 -0.0597
18805SOL     OW59912   8.440   6.860   5.907  0.3871 -0.5508 -1.1551
18805SOL    HW159913   8.403   6.948   5.899  0.4749 -0.4242 -0.2309
18805SOL    HW259914   8.370   6.803   5.874 -0.8779 -0.3511  0.9885
18806SOL     OW59915   9.704   0.901   4.916 -0.2653 -0.7647  0.1318
18806SOL    HW159916   9.623   0.936   4.953  1.0808  1.2818  1.3770
18806SOL    HW259917   9.721   0.956   4.840 -0.4615 -1.7466 -0.6361
18807SOL     OW59918   1.554   3.162   4.509 -0.3421 -0.2776  0.2073
18807SOL    HW159919   1.495   3.131   4.440 -1.4465 -0.7155  1.3071
18807SOL    HW259920   1.642   3.141   4.477 -0.7500  0.4886 -1.5242
18808SOL     OW59921   8.501   1.108   9.066 -0.2212 -0.8093 -0.6343
18808SOL    HW159922   8.510   1.200   9.041  0.5318 -0.9376 -0.8610
18808SOL    HW259923   8.406   1.092   9.066 -0.4989  0.4579  1.2270
18809SOL     OW59924  10.960   4.681   5.301 -0.2339 -0.0291  0.5310
18809SOL    HW159925  10.890   4.746   5.290  0.1418  0.2899  0.0002
18809SOL    HW259926  10.992   4.697   5.390  1.6850  2.3845 -0.4825
18810SOL     OW59927   6.351   7.560   9.500 -0.1116  0.1874 -0.2738
18810SOL    HW159928   6.309   7.597   9.422 -1.7048 -1.1294 -0.1138
18810SOL    HW259929   6.277   7.530   9.554  1.0142 -0.5101  0.9213
18811SOL     OW59930   5.911   6.883   1.253 -0.4596 -0.0197  0.1885
18811SOL    HW159931   5.829   6.849   1.218 -1.1567 -1.1795  2.6937
18811SOL    HW259932   5.978   6.823   1.222 -0.9415 -0.5775  0.2196
18812SOL     OW59933   2.048   2.599   7.272  0.3838  0.0796  0.4303
18812SOL    HW159934   2.108   2.639   7.209  0.4016 -2.9289 -1.6760
18812SOL    HW259935   2.103   2.572   7.345  0.7325  1.6428  0.7806
18813SOL     OW59936   7.717   4.618   7.739  0.0046 -0.3065  0.0748
18813SOL    HW159937   7.691   4.531   7.709 -0.1367  0.7225 -3.1778
18813SOL    HW259938   7.810   4.610   7.759 -0.0823 -1.2620  0.1575
18814SOL     OW59939   3.703   8.221   3.661  0.2632  0.2712 -0.2541
18814SOL    HW159940   3.757   8.297   3.684  1.4780 -1.0147  1.3729
18814SOL    HW259941   3.742   8.148   3.709 -1.3099 -1.2625 -1.1827
18815SOL     OW59942   2.073   1.030   1.650  0.3426 -0.3357  0.0775
18815SOL    HW159943   1.979   1.010   1.646  0.7763 -2.4754 -0.5448
18815SOL    HW259944   2.099   1.002   1.737  0.7387 -1.5324 -0.4057
18816SOL     OW59945   6.458   6.184   4.558  0.6166 -0.7275  0.2129
18816SOL    HW159946   6.430   6.192   4.467 -0.6389  0.1446  0.6535
18816SOL    HW259947   6.523   6.253   4.569  0.6373 -0.7171  0.0310
18817SOL     OW59948   6.452   4.445   2.745  0.2054  0.3504  0.1874
18817SOL    HW159949   6.532   4.392   2.747  0.9386  1.4485  1.7302
18817SOL    HW259950   6.384   4.385   2.776  0.2854 -0.7323 -1.5862
18818SOL     OW59951   9.173   2.313   8.652  0.1508 -0.6656  0.3952
18818SOL    HW159952   9.179   2.395   8.603 -0.1148 -0.0991  1.2900
18818SOL    HW259953   9.092   2.321   8.702 -0.6288 -2.0870 -0.5805
18819SOL     OW59954   5.254   0.100   5.237 -0.0627 -0.0788  0.2071
18819SOL    HW159955   5.335   0.122   5.191 -0.4416 -0.3404 -0.6093
18819SOL    HW259956   5.278   0.026   5.293 -0.1378 -1.3721 -1.4015
18820SOL     OW59957   8.947   3.950   8.680 -0.6406  0.0474  0.3751
18820SOL    HW159958   8.952   3.977   8.772 -1.7943 -2.0704  1.1279
18820SOL    HW259959   8.871   3.997   8.645 -3.3439 -2.7445  1.9802
18821SOL     OW59960   0.769   0.150   3.267  0.2453 -0.5551  0.0066
18821SOL    HW159961   0.817   0.074   3.299  0.4960  0.1074  1.2338
18821SOL    HW259962   0.722   0.183   3.343  0.3961  0.7132 -0.4348
18822SOL     OW59963   9.849  10.125   5.646  0.5535  1.1064  0.5204
18822SOL    HW159964   9.861  10.030   5.650 -0.0054  0.9972 -0.1926
18822SOL    HW259965   9.938  10.161   5.650  0.7597  0.5660  0.9444
18823SOL     OW59966  10.882   1.120   3.183  0.3600  0.0355  0.3206
18823SOL    HW159967  10.944   1.142   3.112  1.5822  0.7467  1.5658
18823SOL    HW259968  10.857   1.030   3.164  0.2821  0.3598 -1.2879
18824SOL     OW59969   4.768   4.703   4.965  0.4754 -0.2756 -0.2096
18824SOL    HW159970   4.672   4.696   4.958  0.3937  0.1529  0.4220
18824SOL    HW259971   4.801   4.652   4.891 -0.2655  0.9455 -1.4309
18825SOL     OW59972   9.089   5.315   0.894 -0.1894  0.3981 -0.0654
18825SOL    HW159973   9.085   5.228   0.854  3.4672  0.6787 -1.4020
18825SOL    HW259974   9.095   5.298   0.988 -0.0069 -0.7596 -0.2741
18826SOL     OW59975   8.538   6.823   8.044  0.2443 -0.2297  0.3963
18826SOL    HW159976   8.563   6.894   8.104  0.0823  0.0888  0.0884
18826SOL    HW259977   8.491   6.761   8.100  0.3510 -0.0772  0.6601
18827SOL     OW59978   9.487   4.494   2.531 -0.6350  0.2759  0.4770
18827SOL    HW159979   9.430   4.480   2.606 -1.7051  0.5529 -0.2675
18827SOL    HW259980   9.445   4.445   2.459 -0.5549  1.4023 -0.3635
18828SOL     OW59981   7.284   6.942   4.243  0.1977 -0.2004 -0.3919
18828SOL    HW159982   7.209   6.898   4.205 -0.2004 -0.4761  0.6755
18828SOL    HW259983   7.270   7.035   4.225 -1.8729  0.1087  2.1227
18829SOL     OW59984   9.721   8.457   6.403 -0.1518  0.3833 -0.2272
18829SOL    HW159985   9.643   8.493   6.446  0.6891  1.5183  0.4006
18829SOL    HW259986   9.688   8.418   6.323 -1.0543  3.4413 -1.4670
18830SOL     OW59987   9.942   1.403   2.613 -0.3141  0.1092  0.3102
18830SOL    HW159988   9.860   1.354   2.623  0.0916 -0.5010  0.7828
18830SOL    HW259989  10.001   1.343   2.567 -0.3607  0.8264 -0.7214
18831SOL     OW59990   4.322   2.317   9.996  0.0571  0.5643  0.5356
18831SOL    HW159991   4.412   2.295   9.975  0.0861  2.5299 -1.8965
18831SOL    HW259992   4.316   2.412   9.983 -2.8391  0.2389 -1.8280
18832SOL     OW59993   3.468   2.496   7.619 -0.1253  0.1638  0.1506
18832SOL    HW159994   3.441   2.468   7.532 -2.0772  0.9490  0.4517
18832SOL    HW259995   3.385   2.507   7.667  0.7738  2.0918  1.3571
18833SOL     OW59996  10.923   1.148   2.416  0.1403 -0.3807  0.2750
18833SOL    HW159997  10.915   1.054   2.400 -0.9748 -0.3849  0.7365
18833SOL    HW259998  10.898   1.189   2.333  1.6873 -0.4872 -0.2690
18834SOL     OW59999  10.961   4.193   4.167 -0.2254 -0.1982 -0.3242
18834SOL    HW160000  11.042   4.153   4.196 -0.3322  0.5880  1.1620
18834SOL    HW260001  10.897   4.122   4.167 -0.0382 -0.3807  0.6953
18835SOL     OW60002   6.333   4.058   8.030  0.4360  0.3016  0.3073
18835SOL    HW160003   6.355   4.026   7.942 -0.9105  0.1136  0.0151
18835SOL    HW260004   6.237   4.065   8.030  0.3265 -0.5610  2.0460
18836SOL     OW60005   9.088   3.882   2.909  0.3767  0.2117  0.2781
18836SOL    HW160006   9.117   3.791   2.920  0.2220 -0.0405 -1.2589
18836SOL    HW260007   9.116   3.906   2.821 -2.0667  0.7128 -0.4225
18837SOL     OW60008   6.590   1.819   1.838  0.1508  0.0272 -0.1353
18837SOL    HW160009   6.526   1.780   1.779 -0.6983 -1.4523  1.6495
18837SOL    HW260010   6.672   1.773   1.819 -0.6202 -2.0832  1.2687
18838SOL     OW60011   9.403   8.514   8.151 -0.1898 -0.5579 -0.0526
18838SOL    HW160012   9.482   8.516   8.204 -0.1484 -0.6464 -0.1118
18838SOL    HW260013   9.383   8.606   8.134 -0.3032 -0.5232  0.2673
18839SOL     OW60014   9.720   5.396   2.542  0.3500 -0.2058 -0.6441
18839SOL    HW160015   9.712   5.482   2.501  0.6284 -0.2362 -0.7672
18839SOL    HW260016   9.786   5.350   2.490 -0.6003 -0.9006 -1.2500
18840SOL     OW60017  10.582   2.702   2.112  0.1287  0.7217 -0.3882
18840SOL    HW160018  10.670   2.674   2.138 -0.7443 -0.3484  1.5961
18840SOL    HW260019  10.593   2.734   2.023  2.3127 -0.5380 -0.6498
18841SOL     OW60020   1.425   4.690   1.384  0.1656 -0.2561 -0.0561
18841SOL    HW160021   1.329   4.689   1.383  0.0690  0.4382 -3.4647
18841SOL    HW260022   1.448   4.782   1.376  0.8698 -0.6272 -4.3650
18842SOL     OW60023   0.117   9.528   2.088  0.0401  0.6593 -0.2855
18842SOL    HW160024   0.157   9.443   2.069 -0.6684  0.8334 -2.8991
18842SOL    HW260025   0.191   9.586   2.108  0.5372 -0.4713  1.3501
18843SOL     OW60026   2.592   8.746   4.482 -0.2112 -0.4647  0.5006
18843SOL    HW160027   2.615   8.689   4.409  2.3074  0.4171  0.4989
18843SOL    HW260028   2.560   8.687   4.550  0.0472 -1.5987 -0.3444
18844SOL     OW60029   9.533   5.912   3.179  0.2574  0.4513 -0.2601
18844SOL    HW160030   9.578   5.838   3.219  1.7517  1.5321  0.1602
18844SOL    HW260031   9.445   5.911   3.217  0.6894 -0.3031  0.7592
18845SOL     OW60032  10.198   9.300   1.282  0.0606 -0.2915 -0.5593
18845SOL    HW160033  10.154   9.292   1.197  0.0393 -0.3850 -0.5392
18845SOL    HW260034  10.287   9.269   1.266  1.0743  2.6271 -1.3601
18846SOL     OW60035   0.365   8.665   6.055 -0.1014  0.4185  0.5932
18846SOL    HW160036   0.358   8.731   5.985 -3.3016  0.7460  1.0452
18846SOL    HW260037   0.274   8.641   6.073  0.5728  0.1564  4.4701
18847SOL     OW60038   0.467   5.775   2.959  0.2179  0.4283  0.5517
18847SOL    HW160039   0.399   5.729   3.007 -0.9591 -0.5060 -1.8497
18847SOL    HW260040   0.432   5.863   2.945 -0.1383  0.2090  0.0485
18848SOL     OW60041   7.654   1.013   0.437 -0.2186  0.2491 -0.3460
18848SOL    HW160042   7.651   0.985   0.345 -1.2003  0.3852 -0.3715
18848SOL    HW260043   7.656   1.109   0.433 -1.1810  0.2889 -0.2358
18849SOL     OW60044   7.605   3.870   2.667  0.1365 -0.4141 -0.0269
18849SOL    HW160045   7.591   3.950   2.615  0.0922 -1.1049 -1.1089
18849SOL    HW260046   7.517   3.842   2.691  0.2104  1.3422  2.7675
18850SOL     OW60047   1.909   0.507   6.620 -0.4066 -0.3151  0.0943
18850SOL    HW160048   1.968   0.546   6.556 -0.0185  1.1173  1.2663
18850SOL    HW260049   1.957   0.432   6.655 -0.7626 -1.3307 -1.4866
18851SOL     OW60050  10.602   9.445   4.739 -0.1604  0.6925  0.0901
18851SOL    HW160051  10.612   9.506   4.812  0.6424  0.8286 -0.1176
18851SOL    HW260052  10.508   9.437   4.726 -0.3197  0.4810  1.2923
18852SOL     OW60053  10.805   7.202   8.845  0.1294  0.1075 -0.7495
18852SOL    HW160054  10.835   7.223   8.756  2.1437 -1.7012 -0.5802
18852SOL    HW260055  10.735   7.138   8.832  0.1795  0.1047 -1.0234
18853SOL     OW60056   7.796   5.612   4.340  0.1974  0.7906  0.4325
18853SOL    HW160057   7.708   5.644   4.362  0.4702  0.8517  1.5380
18853SOL    HW260058   7.851   5.690   4.343  0.1766  0.8872 -1.0445
18854SOL     OW60059  10.270   0.334   9.953  0.0732 -0.7351 -1.0396
18854SOL    HW160060  10.344   0.286   9.990 -0.8935  0.0259  2.2349
18854SOL    HW260061  10.201   0.269   9.944  0.6948 -1.1944 -2.9442
18855SOL     OW60062   1.691  10.305   1.564  0.4900  0.0516 -0.4563
18855SOL    HW160063   1.771  10.256   1.584  1.9581  2.7099  0.7694
18855SOL    HW260064   1.704  10.338   1.476  0.7989  0.5587 -0.2230
18856SOL     OW60065   4.186   4.512   8.276 -0.5911  0.2091  0.4460
18856SOL    HW160066   4.129   4.445   8.238  1.5520 -1.2741 -0.3489
18856SOL    HW260067   4.218   4.473   8.357  2.1465 -0.6928 -0.9212
18857SOL     OW60068   0.968   5.329   6.937 -0.3880  0.1485  0.3239
18857SOL    HW160069   1.041   5.271   6.958 -0.8434 -0.6308 -0.2051
18857SOL    HW260070   0.893   5.293   6.984 -0.2016  1.6411  1.8543
18858SOL     OW60071   1.288   9.887   3.516  0.6817  0.0971 -0.3662
18858SOL    HW160072   1.295   9.852   3.605 -0.6799 -0.2790 -0.3847
18858SOL    HW260073   1.279   9.810   3.460 -0.8887  0.3871 -0.5628
18859SOL     OW60074   7.036   7.845  10.758  0.2740  0.2106 -0.3753
18859SOL    HW160075   7.035   7.846  10.854  2.9429 -1.9853 -0.1733
18859SOL    HW260076   7.110   7.901  10.734 -0.9201  1.4878 -1.2865
18860SOL     OW60077   1.259   7.668   5.053  0.0862  0.1570 -0.2205
18860SOL    HW160078   1.267   7.573   5.056 -1.5112  0.0011  0.1286
18860SOL    HW260079   1.267   7.696   5.144  0.8698  0.4026 -0.3561
18861SOL     OW60080   8.118   5.365   2.471 -0.1716 -0.1034  0.4081
18861SOL    HW160081   8.030   5.403   2.468 -0.5323 -0.8636  1.0804
18861SOL    HW260082   8.176   5.441   2.468 -0.8588  0.4358  0.3884
18862SOL     OW60083   5.690   2.049   8.773 -0.1032 -0.1205 -0.2369
18862SOL    HW160084   5.650   2.007   8.849 -1.9122  1.8082 -0.0266
18862SOL    HW260085   5.676   2.143   8.788  2.7225  0.5572 -1.2122
18863SOL     OW60086   6.386   1.228  10.420 -0.3548  0.2190 -0.4890
18863SOL    HW160087   6.315   1.202  10.361  0.0873  2.2857 -2.0612
18863SOL    HW260088   6.465   1.219  10.366  0.3847 -0.3109  0.6547
18864SOL     OW60089   4.896   7.805   9.754  0.6985 -0.0185 -0.1004
18864SOL    HW160090   4.824   7.818   9.692  1.1056 -0.7843 -0.7557
18864SOL    HW260091   4.854   7.781   9.836  0.1816  0.0974 -0.3307
18865SOL     OW60092   7.472   2.111  10.042 -0.0738  0.2423 -0.1275
18865SOL    HW160093   7.513   2.078   9.963  0.0430  0.6158 -0.2242
18865SOL    HW260094   7.380   2.123  10.019 -0.1906 -0.3291  0.0078
18866SOL     OW60095   7.950   6.658   3.209  0.1790 -0.4729  0.0139
18866SOL    HW160096   7.881   6.593   3.196  1.1430 -1.9740  1.7696
18866SOL    HW260097   7.925   6.732   3.154 -2.1566 -1.4425 -0.3482
18867SOL     OW60098   0.192   9.484   4.923  0.0676  0.6349  0.1796
18867SOL    HW160099   0.204   9.440   5.007 -1.1651 -1.5158 -0.6785
18867SOL    HW260100   0.209   9.576   4.941 -0.3287  0.2737  2.8206
18868SOL     OW60101   9.972   5.462   5.089  0.3445  0.2639  0.5312
18868SOL    HW160102  10.060   5.496   5.072  1.4014 -1.3850  2.3611
18868SOL    HW260103   9.948   5.498   5.174 -0.5417  0.2255  0.3104
18869SOL     OW60104   1.284   9.147   1.074 -0.1887 -0.2996  0.6323
18869SOL    HW160105   1.363   9.198   1.091 -1.5446  2.1798  0.0266
18869SOL    HW260106   1.284   9.133   0.979 -1.5203  1.7248  0.2692
18870SOL     OW60107   0.191   0.020  10.272  0.2282  0.0300  0.2929
18870SOL    HW160108   0.133  -0.008  10.343  0.7147 -0.0285  0.6771
18870SOL    HW260109   0.262  -0.045  10.272  1.4779  1.3031  1.3285
18871SOL     OW60110   9.243  10.800   3.278 -0.4209  0.0032  0.8118
18871SOL    HW160111   9.246  10.739   3.351 -0.9314  2.3887  2.9506
18871SOL    HW260112   9.169  10.857   3.296 -0.3999  0.8650 -1.4512
18872SOL     OW60113  10.424   9.271   5.380  0.3380 -0.4448 -0.4813
18872SOL    HW160114  10.488   9.213   5.338  1.7979 -0.5747  1.7360
18872SOL    HW260115  10.409   9.231   5.466 -1.0911  0.7704 -0.1374
18873SOL     OW60116   9.718   7.174  10.573  0.0441 -0.1788 -0.8987
18873SOL    HW160117   9.700   7.264  10.600 -0.4923 -0.0988 -1.5096
18873SOL    HW260118   9.811   7.174  10.551  0.6544 -0.3734  1.3910
18874SOL     OW60119   0.096   8.218   9.812  0.1458 -0.9133  0.0279
18874SOL    HW160120   0.138   8.133   9.798 -0.3796 -1.1186 -0.2766
18874SOL    HW260121   0.009   8.197   9.845  0.1627 -0.4857  0.3556
18875SOL     OW60122   4.164  10.096   4.735  0.5185  0.5273 -0.0405
18875SOL    HW160123   4.082  10.096   4.784 -0.1895 -0.6651 -1.1694
18875SOL    HW260124   4.162  10.015   4.684  2.0659  0.8321 -0.6525
18876SOL     OW60125   4.481   8.035   6.430 -0.2190  0.1809 -0.1578
18876SOL    HW160126   4.426   7.985   6.490 -0.4865 -0.9658 -1.3021
18876SOL    HW260127   4.437   8.119   6.422 -0.0089  0.4704  1.4661
18877SOL     OW60128   4.803   0.814  10.569  0.4458  0.3121 -0.1790
18877SOL    HW160129   4.743   0.776  10.633  1.0077  0.6159  0.5286
18877SOL    HW260130   4.804   0.750  10.497 -0.1428 -0.0546  0.1319
18878SOL     OW60131  10.314   2.597   7.140 -0.3133 -0.1503 -0.5807
18878SOL    HW160132  10.292   2.549   7.060 -1.5134  0.6180 -0.7506
18878SOL    HW260133  10.236   2.649   7.159  0.4079  0.6329  0.3951
18879SOL     OW60134   2.352   7.685   3.306 -0.3561 -0.3437 -0.5242
18879SOL    HW160135   2.368   7.651   3.393 -2.2678 -0.0868 -0.0165
18879SOL    HW260136   2.312   7.771   3.321 -0.4894 -0.1867 -1.6545
18880SOL     OW60137   9.201  10.673   3.506  0.4398  0.0875 -0.6207
18880SOL    HW160138   9.134  10.604   3.502  0.9449 -0.5813  1.1947
18880SOL    HW260139   9.230  10.672   3.598  2.0211  1.2313 -1.0714
18881SOL     OW60140   2.485   6.346   6.667 -0.3025 -0.4698 -0.7906
18881SOL    HW160141   2.414   6.374   6.609 -2.6706 -2.6094  0.8446
18881SOL    HW260142   2.489   6.413   6.735  0.4286  0.5063 -1.7713
18882SOL     OW60143   6.812   5.468   0.610  0.2879 -0.1258  0.0088
18882SOL    HW160144   6.769   5.521   0.542  0.4533 -0.2079 -0.1630
18882SOL    HW260145   6.859   5.401   0.561 -0.3064 -0.7268  0.2465
18883SOL     OW60146  10.648   7.016   7.824 -0.1280  0.0006  0.3401
18883SOL    HW160147  10.683   6.929   7.841  0.7313  0.5000  1.2268
18883SOL    HW260148  10.664   7.030   7.730  1.0512 -0.2374  0.4841
18884SOL     OW60149   5.067   0.901   6.910 -0.4033  0.0202 -0.2297
18884SOL    HW160150   5.134   0.848   6.868 -0.2559  0.7462 -0.9352
18884SOL    HW260151   5.091   0.991   6.889  0.2600  0.4863  2.2863
18885SOL     OW60152   6.703   7.483   2.667 -0.1795  0.6454  0.1726
18885SOL    HW160153   6.745   7.396   2.663 -1.3419  0.0375  0.7557
18885SOL    HW260154   6.609   7.465   2.660 -0.5168  1.7632  1.4435
18886SOL     OW60155   3.298   0.384   5.974  0.2866  0.1285 -0.1402
18886SOL    HW160156   3.226   0.440   5.942  0.0329 -0.7065 -1.0667
18886SOL    HW260157   3.368   0.446   5.994 -0.2240  0.8443 -0.4867
18887SOL     OW60158   9.939   6.290   8.467  0.3120 -0.2065  0.2862
18887SOL    HW160159  10.015   6.246   8.506 -0.6302 -1.5455  0.7096
18887SOL    HW260160   9.912   6.355   8.532  2.3961  1.8942 -0.8179
18888SOL     OW60161   0.675   3.277  10.376 -0.3631 -0.3287  0.1289
18888SOL    HW160162   0.611   3.231  10.322  0.1526  0.9057 -1.5862
18888SOL    HW260163   0.750   3.291  10.319 -0.4677  2.5467  0.5492
18889SOL     OW60164   7.180   8.382   5.645 -0.5798 -0.9308  0.5460
18889SOL    HW160165   7.155   8.474   5.632 -0.2965 -0.7789  1.0438
18889SOL    HW260166   7.260   8.372   5.594 -1.2753 -1.2453 -0.5271
18890SOL     OW60167   6.845   4.759   3.572 -0.3715 -0.5035 -0.0744
18890SOL    HW160168   6.927   4.710   3.579  0.1367  0.4674  1.1768
18890SOL    HW260169   6.839   4.808   3.654 -0.6197  1.8593 -1.4315
18891SOL     OW60170   6.892  10.043   8.445  0.1985 -0.0155  0.3823
18891SOL    HW160171   6.828  10.011   8.382 -1.5143  1.2295  1.3959
18891SOL    HW260172   6.932   9.963   8.481  0.9237 -0.7560 -1.8753
18892SOL     OW60173   7.906   0.529   3.864 -0.5773  0.0015  0.3001
18892SOL    HW160174   7.968   0.573   3.922 -1.8048  1.1652  0.7909
18892SOL    HW260175   7.959   0.498   3.791  1.0033 -1.4179  1.9492
18893SOL     OW60176   5.309   1.642   1.071 -0.2213 -0.0074  0.1132
18893SOL    HW160177   5.282   1.569   1.127  1.5086 -1.7743 -1.2252
18893SOL    HW260178   5.371   1.692   1.124 -1.7508  0.8418  1.1999
18894SOL     OW60179   9.821   9.757   5.141 -0.2389 -0.0307  0.1464
18894SOL    HW160180   9.898   9.749   5.198 -0.5319  1.1724  0.7372
18894SOL    HW260181   9.781   9.670   5.144 -0.0231 -0.1176  1.4824
18895SOL     OW60182   3.408   2.869   7.794 -0.5347  0.1888  0.2502
18895SOL    HW160183   3.488   2.837   7.835 -1.2820 -0.5312  1.1844
18895SOL    HW260184   3.428   2.868   7.700  0.5020 -0.0999  0.4537
18896SOL     OW60185   6.412   4.455   5.262 -0.1058 -0.3997 -0.8036
18896SOL    HW160186   6.399   4.530   5.203  1.3947  0.4965 -0.0685
18896SOL    HW260187   6.487   4.480   5.316 -1.1922 -1.3529  1.2482
18897SOL     OW60188   8.153  10.230   8.495 -0.4459  0.3180  0.3248
18897SOL    HW160189   8.203  10.267   8.422 -0.0205 -0.6211  0.1283
18897SOL    HW260190   8.071  10.201   8.455 -0.4179  0.2477  0.3195
18898SOL     OW60191   2.810   9.144   6.865 -0.0843 -0.2831 -0.0322
18898SOL    HW160192   2.753   9.100   6.927 -0.2155  0.3633  0.3089
18898SOL    HW260193   2.882   9.082   6.851  0.6264  0.0890  1.7721
18899SOL     OW60194   6.503   1.074   7.198  0.2185 -0.3771  0.2155
18899SOL    HW160195   6.564   1.148   7.206 -0.4183  0.2275 -0.3763
18899SOL    HW260196   6.534   1.011   7.263  0.9299  0.3000  0.5613
18900SOL     OW60197   5.410   7.035   9.713 -0.6226 -0.2551  0.0801
18900SOL    HW160198   5.375   6.995   9.634  3.4672 -2.5085 -0.8527
18900SOL    HW260199   5.401   6.967   9.780  0.4107 -0.2618  0.2242
18901SOL     OW60200   4.401   1.979   8.771  0.5051  0.1160  0.1141
18901SOL    HW160201   4.439   2.065   8.788  3.0785 -0.7796 -0.5504
18901SOL    HW260202   4.437   1.954   8.686 -2.2674 -0.5677 -0.9331
18902SOL     OW60203  10.865   1.147  10.814  0.5924 -0.1765 -0.4160
18902SOL    HW160204  10.883   1.106  10.899  2.5043 -1.6737 -1.4588
18902SOL    HW260205  10.932   1.214  10.805 -0.8203  1.3648  0.0517
18903SOL     OW60206   0.694   6.438   9.708 -0.6289  0.5436  0.3320
18903SOL    HW160207   0.667   6.521   9.745  1.2969  1.6099 -0.4723
18903SOL    HW260208   0.710   6.457   9.615 -1.1068 -0.9763 -0.1032
18904SOL     OW60209   2.199   3.157   2.625  0.2698  0.1158  0.1344
18904SOL    HW160210   2.215   3.247   2.597  0.1668  0.0057 -0.2933
18904SOL    HW260211   2.254   3.145   2.702  0.9532  0.2664 -0.3232
18905SOL     OW60212   0.424   4.512   8.128  0.3455 -0.0475 -0.5165
18905SOL    HW160213   0.468   4.595   8.150 -2.6087  1.5976 -0.3428
18905SOL    HW260214   0.436   4.504   8.033  0.2838  0.8126 -0.6060
18906SOL     OW60215   3.685   6.272   6.927  0.1517 -0.1260  0.1781
18906SOL    HW160216   3.693   6.319   6.843 -1.7326  0.4915  0.3014
18906SOL    HW260217   3.696   6.340   6.993 -1.2033 -0.0727  0.3730
18907SOL     OW60218   4.445   5.297   6.618  0.2476  0.2330 -0.4315
18907SOL    HW160219   4.498   5.250   6.682 -1.0136  1.8555  1.9726
18907SOL    HW260220   4.426   5.381   6.660 -3.2550  0.1844 -1.5960
18908SOL     OW60221   9.749   8.998   0.585 -0.2626  0.1231  0.2534
18908SOL    HW160222   9.820   8.934   0.588 -0.3890 -0.2268 -2.4825
18908SOL    HW260223   9.695   8.976   0.661  0.8677 -1.5901  0.6203
18909SOL     OW60224   7.191   0.457   1.075  0.1308 -0.2563 -0.1482
18909SOL    HW160225   7.148   0.491   1.154  1.9730  0.9065  0.4267
18909SOL    HW260226   7.164   0.515   1.005 -1.4086 -1.2129 -0.3880
18910SOL     OW60227   9.220   7.154  10.035 -0.3019 -0.2859  0.5976
18910SOL    HW160228   9.243   7.065  10.061 -1.4562 -0.5749  0.6386
18910SOL    HW260229   9.304   7.201  10.039  0.3733 -1.4195  0.2948
18911SOL     OW60230   4.914  10.247   4.270  0.1841  0.1963 -0.4005
18911SOL    HW160231   4.987  10.199   4.309 -0.2677 -0.1866 -0.0225
18911SOL    HW260232   4.848  10.180   4.250 -0.9745  0.7643  1.2744
18912SOL     OW60233   1.312  10.716   9.573 -0.1952 -0.4540  0.3000
18912SOL    HW160234   1.343  10.740   9.485 -0.1376  0.6446  0.5956
18912SOL    HW260235   1.249  10.646   9.559 -0.8014  0.2681 -0.7043
18913SOL     OW60236  10.018   9.580   7.972 -0.1714 -0.4435  0.8041
18913SOL    HW160237  10.063   9.642   8.029 -1.3409  0.8292  0.3999
18913SOL    HW260238  10.040   9.609   7.883 -0.0934 -1.0916  0.6105
18914SOL     OW60239   4.245   6.158   4.959  0.0503 -0.2702 -0.3073
18914SOL    HW160240   4.185   6.086   4.940  0.7340 -0.5323 -1.5479
18914SOL    HW260241   4.246   6.211   4.880 -0.2656  1.0035  0.5107
18915SOL     OW60242   3.865   9.417   7.131 -0.9732 -0.6076  0.1543
18915SOL    HW160243   3.797   9.471   7.171  0.9539  0.1101  2.8126
18915SOL    HW260244   3.889   9.355   7.200 -0.8821 -2.8002 -1.7241
18916SOL     OW60245   9.076   9.551   9.354  0.1907 -0.0177 -0.0622
18916SOL    HW160246   9.038   9.538   9.266  0.6365 -0.8810 -0.1338
18916SOL    HW260247   9.141   9.482   9.362 -0.9503 -0.9710  1.5704
18917SOL     OW60248  10.793   4.956   7.848 -0.4587 -0.4179  0.1400
18917SOL    HW160249  10.815   4.872   7.807  4.2310  0.4473  0.2572
18917SOL    HW260250  10.817   5.022   7.783 -3.8791  0.9827  0.1201
18918SOL     OW60251   2.868   1.760   3.940  0.2266  0.0948  0.2848
18918SOL    HW160252   2.881   1.666   3.925  1.1631  0.3222 -0.3854
18918SOL    HW260253   2.776   1.767   3.964  0.4321 -1.1386  1.5322
18919SOL     OW60254   5.553   4.534   9.411  0.3735 -0.1244 -1.2743
18919SOL    HW160255   5.499   4.611   9.394  2.1829  1.0412 -2.1216
18919SOL    HW260256   5.554   4.487   9.328  0.0117 -0.5606 -1.0286
18920SOL     OW60257   3.850   8.346   7.246  0.0791  0.0318  0.3926
18920SOL    HW160258   3.803   8.384   7.320  0.2241 -3.2542  2.3543
18920SOL    HW260259   3.941   8.339   7.275  0.4060 -0.1025 -0.6159
18921SOL     OW60260   7.974   8.206   5.959  0.3086 -0.2660  0.1480
18921SOL    HW160261   8.029   8.281   5.934  1.4450 -0.5236  1.7097
18921SOL    HW260262   7.903   8.244   6.010  0.2327 -0.1520 -0.0398
18922SOL     OW60263   6.710  10.758   8.626  0.5612  0.0661 -0.3624
18922SOL    HW160264   6.714  10.840   8.578  0.2169 -0.1523 -0.7681
18922SOL    HW260265   6.750  10.694   8.568 -0.1421 -0.2605 -0.4957
18923SOL     OW60266   0.450   3.785   9.388  0.7270 -0.5796 -0.2683
18923SOL    HW160267   0.515   3.828   9.443  2.9768 -1.8382 -1.7858
18923SOL    HW260268   0.430   3.849   9.319 -1.4686  0.6767  1.4153
18924SOL     OW60269   3.113   5.029   6.672 -0.4977 -0.1368  0.7102
18924SOL    HW160270   3.072   5.115   6.684 -0.7388 -0.2061  0.3752
18924SOL    HW260271   3.199   5.038   6.713  0.3413  0.9249 -1.1511
18925SOL     OW60272   8.750   1.522   5.617  0.0659  0.1536 -0.2033
18925SOL    HW160273   8.776   1.462   5.688  2.0854  2.3489  1.0779
18925SOL    HW260274   8.831   1.540   5.570 -1.0361 -0.3157 -2.4143
18926SOL     OW60275   7.493   9.270   8.342  0.4502  0.2016 -0.0598
18926SOL    HW160276   7.400   9.290   8.344 -0.4057 -3.1295  2.8420
18926SOL    HW260277   7.504   9.210   8.269 -0.3344 -1.5337  1.1782
18927SOL     OW60278   5.453   3.689   0.346 -0.5939  0.0685 -0.1671
18927SOL    HW160279   5.397   3.707   0.270  0.0899 -0.2666 -0.7602
18927SOL    HW260280   5.537   3.665   0.308 -0.3999 -0.6305  0.6916
18928SOL     OW60281   7.651   1.104   0.142 -0.4888 -0.0138  0.0837
18928SOL    HW160282   7.685   1.118   0.054  0.7569 -0.0883  0.5369
18928SOL    HW260283   7.645   1.192   0.180  0.0047 -0.0695  0.2926
18929SOL     OW60284   6.331   0.579   8.349  0.0089  0.8393 -0.1254
18929SOL    HW160285   6.421   0.591   8.379 -0.1717  0.4203  0.5928
18929SOL    HW260286   6.294   0.512   8.407 -1.0439  1.6628  0.2007
18930SOL     OW60287   5.040   8.841   3.031  0.2967  0.2477 -0.3191
18930SOL    HW160288   4.969   8.901   3.054  1.0908  1.1200 -0.0595
18930SOL    HW260289   5.113   8.899   3.008  1.4601 -0.5972  1.1018
18931SOL     OW60290   8.361   4.755   2.930 -0.2951  0.6869 -0.1888
18931SOL    HW160291   8.428   4.821   2.912 -0.5407  0.8733 -0.4415
18931SOL    HW260292   8.296   4.767   2.860  0.9836 -1.6545 -1.9322
18932SOL     OW60293   2.978   4.581   3.536 -0.1321  0.3838  0.3177
18932SOL    HW160294   3.005   4.604   3.625 -0.5871  2.0555  0.0637
18932SOL    HW260295   2.887   4.555   3.545 -0.1432  0.4402  0.3700
18933SOL     OW60296   9.216   5.238   4.874  0.0190  0.0069  0.7577
18933SOL    HW160297   9.243   5.214   4.962  1.1707 -0.7423  0.2189
18933SOL    HW260298   9.235   5.331   4.867  0.8606 -0.1489  0.9682
18934SOL     OW60299   9.155   4.679   8.985  0.3167  0.6903 -0.0298
18934SOL    HW160300   9.189   4.602   8.939 -0.6173  0.5846 -0.5835
18934SOL    HW260301   9.067   4.690   8.949 -0.2384  0.9340  1.3431
18935SOL     OW60302   8.260   4.532   2.629 -0.6656  0.4693  0.4838
18935SOL    HW160303   8.221   4.596   2.689  1.6787 -0.1281  2.8228
18935SOL    HW260304   8.190   4.469   2.611 -1.6632  1.1205  1.9312
18936SOL     OW60305   4.934  10.072   5.802  0.5758  0.4162  0.5852
18936SOL    HW160306   4.867  10.018   5.842  0.4429  1.4458  1.8314
18936SOL    HW260307   5.015  10.021   5.811  0.0984 -0.5338 -0.3202
18937SOL     OW60308   6.558   0.504  10.605 -0.8075 -0.3679  0.3248
18937SOL    HW160309   6.608   0.570  10.652 -0.5053  0.3574 -0.9784
18937SOL    HW260310   6.617   0.429  10.599 -0.4963 -0.1165  0.2438
18938SOL     OW60311   3.132   9.099   0.899  0.5033  0.0079  0.6214
18938SOL    HW160312   3.037   9.102   0.886  0.5905  0.0065 -0.0575
18938SOL    HW260313   3.146   9.027   0.960  0.0792 -0.0869  0.6078
18939SOL     OW60314   4.280   9.570  10.222  0.0816 -0.1492  0.4685
18939SOL    HW160315   4.358   9.605  10.264  0.3760  1.4356 -1.2502
18939SOL    HW260316   4.211   9.577  10.288  1.4551 -2.1844  2.2321
18940SOL     OW60317   2.299   9.190   6.456  0.1627  0.1162  0.2128
18940SOL    HW160318   2.382   9.164   6.496  0.0044 -2.3254 -0.8260
18940SOL    HW260319   2.252   9.107   6.442 -1.4408  1.2022 -1.3555
18941SOL     OW60320  10.955   7.159   7.270  0.1326  0.4114  0.6624
18941SOL    HW160321  10.934   7.098   7.199 -0.7317  2.4250 -0.8995
18941SOL    HW260322  10.872   7.203   7.289  1.0815  2.4222  0.4124
18942SOL     OW60323   4.499   8.026  10.618 -0.7109 -0.4675  0.0260
18942SOL    HW160324   4.579   8.077  10.619 -0.0758 -1.3933  1.5980
18942SOL    HW260325   4.450   8.056  10.695 -1.3232 -0.7094 -0.2598
18943SOL     OW60326   2.398  10.233   5.925 -0.2864  0.7306 -0.0290
18943SOL    HW160327   2.411  10.327   5.909 -1.8006  0.7644 -1.2117
18943SOL    HW260328   2.330  10.229   5.992  0.2363  0.4611  0.4991
18944SOL     OW60329   5.634   4.365   7.273  0.1465  0.6028  0.0256
18944SOL    HW160330   5.579   4.413   7.210 -0.8859 -0.1905  0.2838
18944SOL    HW260331   5.702   4.325   7.220  0.7597  1.9654 -0.2518
18945SOL     OW60332   7.960   6.328   8.259 -0.1642  0.1131 -0.4758
18945SOL    HW160333   7.994   6.417   8.260  0.2771 -0.0538 -0.1128
18945SOL    HW260334   7.985   6.293   8.174 -2.7568  1.2272 -1.8127
18946SOL     OW60335   3.000   9.674   6.740 -0.3506 -0.0785  0.0026
18946SOL    HW160336   2.918   9.626   6.752 -0.4339 -0.1350 -0.7567
18946SOL    HW260337   2.976   9.752   6.691  0.0489 -0.0943 -0.2249
18947SOL     OW60338   2.889   7.087   3.002  0.5841  0.2859  0.2050
18947SOL    HW160339   2.944   7.058   2.929 -0.2519 -0.4011 -0.1730
18947SOL    HW260340   2.846   7.166   2.970  0.8215  0.4346  0.2506
18948SOL     OW60341   5.655  10.249   3.937  0.1690  0.2012 -0.0862
18948SOL    HW160342   5.646  10.330   3.987  0.2090 -0.3828  0.8944
18948SOL    HW260343   5.646  10.276   3.845 -2.5332  0.9483  0.3011
18949SOL     OW60344  10.502   5.653   6.586 -0.1010  0.0191 -0.2045
18949SOL    HW160345  10.429   5.654   6.648 -0.0103 -2.2452  0.0434
18949SOL    HW260346  10.580   5.664   6.641 -0.0873 -0.8331 -0.0447
18950SOL     OW60347   8.232  10.090   1.716  0.4219 -0.5269 -0.4181
18950SOL    HW160348   8.172  10.115   1.786  1.6590 -0.3811  0.6242
18950SOL    HW260349   8.192  10.126   1.637 -1.5958 -1.6868  0.0061
18951SOL     OW60350   1.105   2.632   9.687 -0.1265 -0.1253 -0.2972
18951SOL    HW160351   1.188   2.599   9.723  0.6247  0.7155 -1.2081
18951SOL    HW260352   1.126   2.659   9.598 -0.9183  1.8232  0.0369
18952SOL     OW60353   5.441   9.641   9.223  0.2105  0.2664 -0.2631
18952SOL    HW160354   5.456   9.548   9.205  0.3863  0.4300 -1.0144
18952SOL    HW260355   5.519   9.669   9.270 -1.1243 -0.6466  2.7815
18953SOL     OW60356   7.425   2.564   0.347 -0.0768  0.4773  0.0946
18953SOL    HW160357   7.372   2.485   0.353  0.2795  0.0887 -1.3322
18953SOL    HW260358   7.368   2.629   0.307 -0.5753  1.1787  1.8596
18954SOL     OW60359   3.588   8.789  10.555  0.2799 -0.1443  0.0424
18954SOL    HW160360   3.597   8.821  10.465  0.7661 -1.2673 -0.3327
18954SOL    HW260361   3.495   8.772  10.566  0.1486  0.4836 -0.0706
18955SOL     OW60362   3.919   4.257   6.233 -0.5119 -0.1064  0.3559
18955SOL    HW160363   3.953   4.202   6.162  1.0310  1.3493 -0.0866
18955SOL    HW260364   3.972   4.337   6.230 -1.7906  0.8688  1.8324
18956SOL     OW60365   4.961   3.309   8.386 -0.3265  0.0428  0.5062
18956SOL    HW160366   4.973   3.363   8.308 -0.9886 -0.6053 -0.0486
18956SOL    HW260367   4.879   3.263   8.372  0.8142 -2.0937  0.3650
18957SOL     OW60368   7.957   5.443   3.422  0.0857 -0.2062 -0.4147
18957SOL    HW160369   7.906   5.519   3.393  0.8476  0.9012  1.0294
18957SOL    HW260370   7.892   5.377   3.446 -0.5924  0.1923 -1.1015
18958SOL     OW60371   5.384   3.348  10.728  0.2520 -0.4936  0.4785
18958SOL    HW160372   5.393   3.419  10.664  0.5207  0.0840  1.1418
18958SOL    HW260373   5.456   3.362  10.789 -0.8754 -0.1301  1.7660
18959SOL     OW60374   1.958   6.298   2.016 -0.3666 -0.3538  0.1920
18959SOL    HW160375   1.897   6.253   1.957 -0.1574  0.1432 -0.4202
18959SOL    HW260376   1.976   6.381   1.972 -0.4823  0.1868  1.1334
18960SOL     OW60377   2.816   2.608  10.473  0.5278 -0.0888 -0.6192
18960SOL    HW160378   2.847   2.548  10.541 -1.9651  0.2460  0.9438
18960SOL    HW260379   2.831   2.695  10.510 -0.0952  0.1113 -0.8300
18961SOL     OW60380   7.976   7.973   4.656 -0.0258 -0.2551 -0.7623
18961SOL    HW160381   7.917   8.048   4.642  1.3247  0.8127 -0.9190
18961SOL    HW260382   8.056   7.996   4.609  2.8674  1.1468  4.0885
18962SOL     OW60383   2.267   5.721   7.127 -0.3444 -0.1956  0.2229
18962SOL    HW160384   2.217   5.728   7.045 -0.1899  0.1973  0.1594
18962SOL    HW260385   2.224   5.651   7.175 -2.0391  1.2277  0.9096
18963SOL     OW60386   3.108   1.712   2.507  0.4317 -0.3486 -0.2759
18963SOL    HW160387   3.046   1.737   2.576  0.3314 -2.4487  0.4609
18963SOL    HW260388   3.053   1.679   2.436  0.6106  0.2397 -0.6916
18964SOL     OW60389   7.195   8.946   2.943  0.4139  0.4151  0.2603
18964SOL    HW160390   7.232   9.033   2.930  0.7258  0.5869  2.1231
18964SOL    HW260391   7.269   8.893   2.972 -0.2968  0.1781  1.7101
18965SOL     OW60392   8.072   5.120   1.152 -0.4890 -0.3469  0.0925
18965SOL    HW160393   8.037   5.066   1.223  1.4841 -0.7724  0.7839
18965SOL    HW260394   8.166   5.121   1.165 -0.2046  0.9364 -1.5847
18966SOL     OW60395   0.194   2.646   9.671  0.0031  0.0225  0.1232
18966SOL    HW160396   0.141   2.632   9.592  1.2964 -0.8853 -0.6172
18966SOL    HW260397   0.264   2.705   9.643 -0.1489  0.5824  0.8958
18967SOL     OW60398   3.590  10.594   4.513 -0.1496 -0.0493 -0.0280
18967SOL    HW160399   3.656  10.544   4.561 -0.0805  0.5300  0.5103
18967SOL    HW260400   3.627  10.608   4.427  0.5919  0.5532  0.3754
18968SOL     OW60401   8.363   5.494   9.379 -0.1109  0.0027 -0.2934
18968SOL    HW160402   8.410   5.564   9.334  0.4263 -0.2887 -0.2004
18968SOL    HW260403   8.392   5.500   9.470  1.2337 -1.3638 -0.5909
18969SOL     OW60404   3.500   5.471  10.797  0.2411  0.0876 -0.0091
18969SOL    HW160405   3.416   5.459  10.754 -0.1667  1.1398  0.4599
18969SOL    HW260406   3.489   5.433  10.883  0.7232 -1.0755 -0.4444
18970SOL     OW60407   8.839   4.043   2.729 -0.1862 -0.3311 -0.0778
18970SOL    HW160408   8.887   3.961   2.744  2.5057  1.1015 -0.3004
18970SOL    HW260409   8.864   4.099   2.802 -1.9562  0.3855  0.0394
18971SOL     OW60410  10.229   9.336   5.170 -0.7909 -0.3036 -0.5708
18971SOL    HW160411  10.320   9.332   5.201 -1.2666  0.9958  1.1739
18971SOL    HW260412  10.196   9.247   5.182 -0.0005 -0.5752 -0.3732
18972SOL     OW60413  10.078   7.038   6.640  0.0103 -0.1603  0.0176
18972SOL    HW160414   9.987   7.047   6.669  0.4323 -1.2162  1.8606
18972SOL    HW260415  10.118   6.981   6.706  2.0791  0.4937 -0.6044
18973SOL     OW60416   1.749   3.808   7.970 -0.2697 -0.3249  0.1284
18973SOL    HW160417   1.819   3.757   8.012  0.3273 -0.4860 -1.0210
18973SOL    HW260418   1.716   3.866   8.039 -0.3479 -1.6226  1.2284
18974SOL     OW60419   4.374   7.562  10.224 -0.2374  0.2450 -0.6686
18974SOL    HW160420   4.385   7.473  10.256 -2.1030  0.6776  1.4301
18974SOL    HW260421   4.282   7.583  10.242 -0.3611  1.9585 -2.8617
18975SOL     OW60422   7.880   6.112   5.683 -0.1476 -0.8383  0.0426
18975SOL    HW160423   7.972   6.134   5.698 -0.4417  0.3845  0.1331
18975SOL    HW260424   7.871   6.022   5.715  0.4279 -0.1158  2.3701
18976SOL     OW60425   2.095   7.537   1.120 -0.0124  0.1128 -0.2130
18976SOL    HW160426   2.134   7.547   1.033 -0.9735  1.0074 -0.5654
18976SOL    HW260427   2.126   7.613   1.169 -0.3013  0.1722 -0.1154
18977SOL     OW60428   9.249   3.488   3.346  0.5692 -0.8688 -0.1187
18977SOL    HW160429   9.159   3.457   3.337  1.1005 -2.0232 -1.9908
18977SOL    HW260430   9.287   3.434   3.415 -0.5827  0.7432  1.8725
18978SOL     OW60431   1.735   4.291   7.763  0.3084  0.4734 -0.8826
18978SOL    HW160432   1.728   4.339   7.846 -0.1549  0.2870 -0.8118
18978SOL    HW260433   1.675   4.336   7.704 -0.5652 -0.3499 -0.6520
18979SOL     OW60434   3.361   1.787   1.365  0.6347 -0.1331  0.1082
18979SOL    HW160435   3.386   1.877   1.381  1.9946 -0.1837 -1.4389
18979SOL    HW260436   3.322   1.757   1.447 -1.6791  2.4192  0.0935
18980SOL     OW60437   6.497   9.968   1.682 -0.0418 -0.6613 -0.0464
18980SOL    HW160438   6.572   9.954   1.740  0.5555 -2.5197 -1.1386
18980SOL    HW260439   6.467   9.879   1.661 -2.3075  0.0389  0.0231
18981SOL     OW60440   1.547   0.223   4.280 -0.1615  0.5591 -0.9204
18981SOL    HW160441   1.503   0.207   4.197 -3.4958  0.8421  0.6133
18981SOL    HW260442   1.528   0.314   4.300  1.9442  0.9436 -0.5459
18982SOL     OW60443   0.898   1.870   6.242  0.1434  0.4202  0.1215
18982SOL    HW160444   0.894   1.926   6.319  1.8569 -0.2589  0.7438
18982SOL    HW260445   0.857   1.788   6.270 -1.5761  0.9969 -0.5282
18983SOL     OW60446   4.461   5.414   8.608  0.0819  0.0990  0.2568
18983SOL    HW160447   4.513   5.432   8.529  1.4177 -2.3308  0.4829
18983SOL    HW260448   4.386   5.364   8.576  0.3258 -0.3965  0.4585
18984SOL     OW60449   0.478   2.803   8.681 -0.0863  0.3686 -0.0865
18984SOL    HW160450   0.385   2.824   8.672 -0.1780 -0.3878 -1.0533
18984SOL    HW260451   0.521   2.888   8.689 -0.9736  0.7036  1.9235
18985SOL     OW60452   5.204   4.506   9.756  0.2833 -0.0042  0.5915
18985SOL    HW160453   5.140   4.445   9.794  0.1822  0.2814  0.8826
18985SOL    HW260454   5.250   4.454   9.690 -1.1578  0.1549 -0.5852
18986SOL     OW60455   6.680   4.134   8.738  0.2297  0.0538 -0.6158
18986SOL    HW160456   6.718   4.210   8.781  0.1047  0.5501 -1.3496
18986SOL    HW260457   6.753   4.094   8.690  0.7142 -1.3589  1.1730
18987SOL     OW60458   4.609   6.125   1.056 -0.0328 -0.7105 -0.1556
18987SOL    HW160459   4.573   6.041   1.081 -1.7898 -1.0238 -3.2079
18987SOL    HW260460   4.535   6.173   1.017  0.9757  2.1314  1.1044
18988SOL     OW60461   5.700   8.486   5.442  0.9974  1.0998 -0.0058
18988SOL    HW160462   5.621   8.470   5.390  0.8217  3.1878 -0.4531
18988SOL    HW260463   5.684   8.570   5.485  2.2070  0.6418  1.4214
18989SOL     OW60464   3.323   8.878   3.347 -0.2404  0.4910 -0.3614
18989SOL    HW160465   3.319   8.925   3.431  2.1001 -1.6858  1.0960
18989SOL    HW260466   3.371   8.938   3.289  1.9356  0.3799  1.1912
18990SOL     OW60467   5.974   1.544   6.599 -0.1466  0.0285 -0.2159
18990SOL    HW160468   6.017   1.515   6.518 -0.9958 -3.0149  0.2983
18990SOL    HW260469   6.026   1.504   6.669 -0.1211  1.6496  0.7580
18991SOL     OW60470   6.770   0.243  10.540 -0.1351  0.1557 -0.3024
18991SOL    HW160471   6.724   0.195  10.470  1.0134 -1.8091  0.2135
18991SOL    HW260472   6.854   0.267  10.501  0.8188 -1.6007  0.5507
18992SOL     OW60473   1.487   1.757   0.799 -0.1873 -0.3339 -0.3754
18992SOL    HW160474   1.572   1.745   0.756 -0.0376 -0.4305 -0.0504
18992SOL    HW260475   1.425   1.768   0.726  0.3219  1.3426 -0.6049
18993SOL     OW60476   0.837   6.704   1.266 -0.3108 -0.2237  0.2665
18993SOL    HW160477   0.861   6.613   1.288 -1.5795 -0.4044  1.0013
18993SOL    HW260478   0.753   6.696   1.221 -0.2382  0.5722 -0.0254
18994SOL     OW60479   7.645   8.585   2.511 -0.0470  0.1424 -0.6391
18994SOL    HW160480   7.662   8.577   2.417  0.8923  0.3986 -0.4996
18994SOL    HW260481   7.660   8.497   2.545  0.6346  0.2694 -0.5856
18995SOL     OW60482   2.534   9.030   2.937  0.0273 -0.0802 -0.4120
18995SOL    HW160483   2.582   8.995   2.861  0.0066  0.0924 -0.5056
18995SOL    HW260484   2.602   9.070   2.992 -0.1288  1.2450 -1.1289
18996SOL     OW60485   8.907   5.340  10.618  0.6422  0.3288 -0.0326
18996SOL    HW160486   8.886   5.416  10.671 -2.1902 -1.4904  1.7144
18996SOL    HW260487   8.957   5.283  10.675  1.4377  0.2141 -0.8193
18997SOL     OW60488   2.289   2.247   1.397  0.7262  0.0064 -0.1113
18997SOL    HW160489   2.325   2.258   1.309 -1.1152 -1.6794 -1.1684
18997SOL    HW260490   2.201   2.284   1.391  0.1161 -1.2654  0.6196
18998SOL     OW60491   3.594  10.534   2.476 -0.5253 -0.1102  0.1263
18998SOL    HW160492   3.660  10.554   2.410 -0.1569 -2.9364 -0.4848
18998SOL    HW260493   3.511  10.538   2.429 -0.3380 -1.1848 -0.3456
18999SOL     OW60494   8.504   2.555   5.565  0.2884  0.1998 -0.0715
18999SOL    HW160495   8.571   2.615   5.532  0.3788 -0.8212 -1.8752
18999SOL    HW260496   8.546   2.469   5.561  0.1567 -0.0585  2.4495
19000SOL     OW60497   7.514   7.335   9.894  0.5163 -0.0218 -0.4081
19000SOL    HW160498   7.450   7.290   9.950 -0.0210 -1.2024 -1.9153
19000SOL    HW260499   7.563   7.265   9.852 -1.3274  0.5874 -3.9964
19001SOL     OW60500   6.401   9.393   0.097  0.2194 -0.1898 -0.9796
19001SOL    HW160501   6.471   9.368   0.037 -0.0579 -0.6683 -1.1075
19001SOL    HW260502   6.332   9.427   0.040  1.2370  2.5833 -0.7302
19002SOL     OW60503  10.490   4.043   9.608 -0.1483  0.3149 -0.0215
19002SOL    HW160504  10.442   4.126   9.599  0.2601  0.3950 -1.6743
19002SOL    HW260505  10.581   4.070   9.619  0.3530  0.1278 -2.9359
19003SOL     OW60506   4.794   8.956   5.105  0.3310  0.0187 -0.3288
19003SOL    HW160507   4.714   8.964   5.054 -0.1406 -0.0379  0.3903
19003SOL    HW260508   4.864   8.964   5.040 -0.1257  4.1169 -0.5701
19004SOL     OW60509   3.196   3.797   9.947  0.2190 -0.0685  0.2239
19004SOL    HW160510   3.108   3.779   9.913  0.4845  1.1394 -1.2333
19004SOL    HW260511   3.249   3.724   9.917  0.3726  0.8082 -1.8010
19005SOL     OW60512   8.177   6.404   7.728  0.1379 -0.0698  0.0491
19005SOL    HW160513   8.090   6.390   7.690  0.1886  1.6373 -0.8069
19005SOL    HW260514   8.216   6.317   7.731 -1.0330 -0.6683 -1.0005
19006SOL     OW60515   0.651   2.352   6.886  0.0068  0.0043 -0.5108
19006SOL    HW160516   0.646   2.439   6.925  1.3086  0.0749 -0.4606
19006SOL    HW260517   0.584   2.301   6.931 -0.4670  0.8598 -0.2378
19007SOL     OW60518   3.069   1.574   6.136  0.4506  0.1201  0.2146
19007SOL    HW160519   2.984   1.595   6.099  0.4934  1.2483  0.7032
19007SOL    HW260520   3.130   1.580   6.063  0.2306  0.1844  0.0371
19008SOL     OW60521   8.586   8.007  10.618 -0.0260  0.0370  0.2545
19008SOL    HW160522   8.551   8.039  10.535  1.2547 -0.2886 -0.4508
19008SOL    HW260523   8.603   8.086  10.669 -1.0737  0.2271  0.3336
19009SOL     OW60524   7.284   9.986   5.817  0.2781  0.5444 -0.2607
19009SOL    HW160525   7.333   9.923   5.764  0.1775  0.2380  0.0125
19009SOL    HW260526   7.247  10.047   5.753  1.5150  1.1404 -0.4349
19010SOL     OW60527   5.316   9.340   8.495 -0.2937  0.0136  0.3564
19010SOL    HW160528   5.316   9.247   8.470 -0.5324  0.3528 -0.9730
19010SOL    HW260529   5.366   9.383   8.426 -1.3691  1.0629  0.2099
19011SOL     OW60530   2.051   3.990   6.433 -0.0851  0.4334 -0.1861
19011SOL    HW160531   1.975   4.025   6.480  0.3223  1.0411  0.0194
19011SOL    HW260532   2.118   4.056   6.443 -0.1402  0.8102 -2.0580
19012SOL     OW60533   5.157   1.968  10.397  0.4020 -0.0282 -0.5876
19012SOL    HW160534   5.107   1.889  10.375  0.4156  0.2235 -1.5937
19012SOL    HW260535   5.206   1.945  10.475  0.0852 -0.8821 -0.6340
19013SOL     OW60536   8.326   8.721   7.187 -0.6281 -0.2639  0.2718
19013SOL    HW160537   8.278   8.718   7.269 -1.1115  0.7289  0.0337
19013SOL    HW260538   8.387   8.794   7.196  1.3037 -1.8306  0.7813
19014SOL     OW60539   9.727   7.265   6.905  0.4395  0.4275  0.7696
19014SOL    HW160540   9.720   7.360   6.917  0.0980  0.5157 -0.0974
19014SOL    HW260541   9.732   7.253   6.810 -1.2024 -0.5269  0.7813
19015SOL     OW60542  10.959   8.751   6.379  0.1737 -0.5239  0.2863
19015SOL    HW160543  10.896   8.822   6.389 -0.5806 -1.1479  0.0223
19015SOL    HW260544  10.961   8.708   6.465 -0.0640 -0.7581  0.1731
19016SOL     OW60545   3.194   5.745  10.724  0.1787  0.3998  0.2958
19016SOL    HW160546   3.247   5.823  10.735  0.6038  0.0655  0.6698
19016SOL    HW260547   3.187   5.708  10.812 -3.0000  1.9006  0.8297
19017SOL     OW60548   4.892  10.576   8.376 -0.0548 -0.1776  0.0284
19017SOL    HW160549   4.936  10.561   8.293 -0.8738  1.4475 -0.7488
19017SOL    HW260550   4.858  10.665   8.369  0.0283  0.0812  2.1895
19018SOL     OW60551   9.008   4.797   7.314  0.0201 -0.3143 -0.1928
19018SOL    HW160552   8.991   4.890   7.331  0.1688 -0.1086 -1.1258
19018SOL    HW260553   8.933   4.752   7.352  0.6770  0.0483  1.6557
19019SOL     OW60554   5.210   8.471   4.995  0.5735 -0.0527  0.5437
19019SOL    HW160555   5.166   8.424   4.924  0.6347  0.1256  0.3872
19019SOL    HW260556   5.300   8.482   4.963  0.5715  0.1270  0.6030
19020SOL     OW60557  10.984   1.302   4.258  0.1402 -0.2661 -0.2707
19020SOL    HW160558  10.974   1.348   4.174 -0.9596  2.2220  1.0981
19020SOL    HW260559  10.898   1.264   4.275  0.6659 -1.7336 -0.7360
19021SOL     OW60560   2.556   5.039   2.447  0.7100  0.7170  0.6262
19021SOL    HW160561   2.628   5.071   2.394 -0.2143  1.8207 -0.0215
19021SOL    HW260562   2.530   5.114   2.500 -0.6569  0.6884  0.0452
19022SOL     OW60563   6.985   3.591   3.467 -0.6317 -0.1416  0.3064
19022SOL    HW160564   7.042   3.652   3.513 -1.1966  0.7252 -0.1167
19022SOL    HW260565   7.017   3.504   3.493 -0.5506  0.3158  1.8214
19023SOL     OW60566   4.551   3.306  10.421 -0.2138  0.5536 -0.0365
19023SOL    HW160567   4.458   3.296  10.439  0.1360 -0.6474  1.3325
19023SOL    HW260568   4.561   3.395  10.388 -1.9217  0.4829 -0.8279
19024SOL     OW60569   5.202   1.521   8.413 -0.0267 -0.1665 -0.6534
19024SOL    HW160570   5.259   1.551   8.343  0.0373  2.0412  0.2862
19024SOL    HW260571   5.136   1.467   8.368  0.9870 -0.2080 -2.1584
19025SOL     OW60572   2.250   7.649   7.101  0.0947 -0.1185 -0.5312
19025SOL    HW160573   2.292   7.601   7.174 -1.0814 -1.4749 -0.7041
19025SOL    HW260574   2.247   7.585   7.030 -2.6539 -0.2613 -0.3844
19026SOL     OW60575   9.573   3.972   7.417 -0.5941  0.1863  0.3626
19026SOL    HW160576   9.549   4.019   7.337 -0.8186 -0.4942  0.0239
19026SOL    HW260577   9.629   3.901   7.388 -1.5812 -0.7504  0.6635
19027SOL     OW60578   8.895   3.568  10.285  0.4158  0.0765 -0.4756
19027SOL    HW160579   8.893   3.501  10.354  0.5299 -0.0271 -0.5721
19027SOL    HW260580   8.900   3.518  10.204 -2.5751  0.0627 -0.7769
19028SOL     OW60581   6.679  10.783  10.536  0.2948 -0.7865 -0.4529
19028SOL    HW160582   6.712  10.699  10.502  1.5196 -0.0435 -1.1534
19028SOL    HW260583   6.722  10.793  10.620 -1.4529 -1.8211  0.6220
19029SOL     OW60584   8.920   8.933  10.284  0.1479 -0.0370  0.4497
19029SOL    HW160585   8.841   8.906  10.237  0.8249  2.0368 -2.1230
19029SOL    HW260586   8.964   8.851  10.304 -1.5971 -1.1515  0.0006
19030SOL     OW60587   2.758   8.157   6.519  0.2549 -0.5704  0.4596
19030SOL    HW160588   2.763   8.121   6.608  1.3729  1.7771  1.4189
19030SOL    HW260589   2.850   8.168   6.493  0.0354  2.3381  0.6191
19031SOL     OW60590  10.135   9.651   4.028  0.1513  0.1804 -0.0658
19031SOL    HW160591  10.216   9.609   4.000  0.0745  0.4483 -0.7124
19031SOL    HW260592  10.125   9.626   4.120  0.4437 -0.6642 -0.2554
19032SOL     OW60593  10.454   4.177   2.343 -0.0059 -0.5501 -0.2578
19032SOL    HW160594  10.421   4.155   2.430 -0.3660 -0.2311 -0.3127
19032SOL    HW260595  10.537   4.129   2.336  0.3449 -0.0809  0.5108
19033SOL     OW60596   7.810   9.975   2.466 -0.0270 -0.4550  0.3152
19033SOL    HW160597   7.722   9.954   2.498  0.1471 -2.0083 -0.1689
19033SOL    HW260598   7.869   9.941   2.533  0.2271  0.6582  0.6788
19034SOL     OW60599   5.348   0.455   4.008 -0.0293  0.1964  0.0597
19034SOL    HW160600   5.303   0.518   4.064  2.4345  1.4795  0.7556
19034SOL    HW260601   5.407   0.408   4.067  2.3935  1.3586 -1.2500
19035SOL     OW60602   6.479   6.093   1.821  0.0996 -0.5694 -0.0892
19035SOL    HW160603   6.423   6.054   1.889  0.6040  1.1576  1.4105
19035SOL    HW260604   6.564   6.051   1.833  0.3965  0.2629  0.9180
19036SOL     OW60605   4.842   1.104   9.094 -0.4525 -0.0913 -0.1992
19036SOL    HW160606   4.750   1.128   9.101 -0.1403  1.2754 -0.6130
19036SOL    HW260607   4.842   1.024   9.041 -1.5162 -1.1857  1.3740
19037SOL     OW60608   5.313   6.320   1.904 -0.1299  1.0814  0.0935
19037SOL    HW160609   5.344   6.348   1.818 -1.8132  3.0847  0.0534
19037SOL    HW260610   5.390   6.323   1.960  0.9053  0.1501 -1.2313
19038SOL     OW60611   6.709   6.960   1.378  0.0680 -0.3087 -0.5648
19038SOL    HW160612   6.789   6.908   1.371 -0.3534 -1.0758  0.0649
19038SOL    HW260613   6.707   6.989   1.469 -1.4644 -2.1849  0.0687
19039SOL     OW60614   7.554   5.289   0.826 -0.4493 -0.0264 -0.4545
19039SOL    HW160615   7.586   5.351   0.891  0.5594 -0.1361 -0.8372
19039SOL    HW260616   7.557   5.337   0.744  1.7569 -0.9979 -1.0075
19040SOL     OW60617   1.992   7.593   8.845  0.0427  0.3411 -0.3211
19040SOL    HW160618   2.030   7.663   8.899  0.0897  0.0541  0.0262
19040SOL    HW260619   1.965   7.527   8.909 -0.3436  0.2076 -0.6223
19041SOL     OW60620  10.137   4.142  10.592  0.1839 -0.2321  0.2764
19041SOL    HW160621  10.187   4.124  10.672 -0.4826  1.6670  1.1941
19041SOL    HW260622  10.187   4.099  10.523  2.2726  0.2831  1.3654
19042SOL     OW60623  10.737   2.589   1.636  0.6268 -0.5610  0.1119
19042SOL    HW160624  10.831   2.605   1.630  0.4377  0.2120 -1.4453
19042SOL    HW260625  10.721   2.520   1.571 -0.2288  1.2710 -1.7634
19043SOL     OW60626   6.322   5.119   2.945 -0.0881  0.4285  0.5151
19043SOL    HW160627   6.347   5.063   3.018 -1.6150  0.1176  0.8453
19043SOL    HW260628   6.229   5.099   2.930 -0.1092  1.3308 -0.7486
19044SOL     OW60629   8.880   5.260   8.353 -0.3456 -0.2606  0.6817
19044SOL    HW160630   8.845   5.347   8.333 -1.6691 -0.4652  1.9482
19044SOL    HW260631   8.842   5.203   8.287 -1.3677 -0.2419  1.2267
19045SOL     OW60632   0.150  10.148   3.332  0.5768  0.3410  0.2990
19045SOL    HW160633   0.130  10.211   3.263 -0.8984  0.0748  0.4690
19045SOL    HW260634   0.078  10.156   3.394  1.9037  0.6280  1.8665
19046SOL     OW60635   7.945   6.359   5.264 -0.2034  0.1184  0.1162
19046SOL    HW160636   8.012   6.327   5.325 -0.7894  0.3473  0.8875
19046SOL    HW260637   7.862   6.329   5.302 -0.5452 -0.1879 -0.8506
19047SOL     OW60638  10.304   0.690   0.068 -0.3283 -0.1619 -0.0133
19047SOL    HW160639  10.232   0.644   0.111  0.5405  0.0775  1.7884
19047SOL    HW260640  10.368   0.705   0.138  1.3152 -0.0373 -1.4771
19048SOL     OW60641   6.617   8.412   9.567 -0.0756 -0.2900  0.0630
19048SOL    HW160642   6.599   8.489   9.621  0.8776 -0.7286  1.0603
19048SOL    HW260643   6.576   8.431   9.483 -0.3054  1.0756  0.4559
19049SOL     OW60644   5.658   5.585   1.130 -0.3170  0.2571 -0.7033
19049SOL    HW160645   5.575   5.564   1.174  0.3246  0.4172  0.6518
19049SOL    HW260646   5.720   5.598   1.202  0.9495 -0.1022 -1.6989
19050SOL     OW60647   9.739   3.082   3.248  0.1165 -0.2677  0.1499
19050SOL    HW160648   9.729   3.003   3.196  1.4586 -1.3329  1.4194
19050SOL    HW260649   9.651   3.101   3.280 -0.3547 -0.7915 -0.7950
19051SOL     OW60650   9.732   0.560   5.622  0.2603  0.0979  0.1505
19051SOL    HW160651   9.812   0.509   5.606  0.5552 -0.2474  2.4068
19051SOL    HW260652   9.661   0.497   5.613  0.2662  0.2466 -1.1471
19052SOL     OW60653   6.582   3.503   7.705 -0.1243  0.2095 -1.0229
19052SOL    HW160654   6.495   3.541   7.716  0.2109  0.8378 -0.5180
19052SOL    HW260655   6.597   3.504   7.611 -2.3802 -3.7761 -1.6641
19053SOL     OW60656  10.485   1.624   4.331 -0.0487  0.4185 -0.5063
19053SOL    HW160657  10.565   1.636   4.382 -1.1933  0.3185  1.4406
19053SOL    HW260658  10.509   1.646   4.241  2.2695 -0.1092 -0.0745
19054SOL     OW60659   1.391   9.428   3.019  0.1601  0.2128 -0.6321
19054SOL    HW160660   1.306   9.413   3.059  0.6039 -0.9765 -0.0739
19054SOL    HW260661   1.448   9.450   3.093  0.1544  2.0097 -1.1109
19055SOL     OW60662   8.810  10.124   0.492  0.0631  0.5778  0.1801
19055SOL    HW160663   8.760  10.111   0.411  1.7909  0.4258 -0.9061
19055SOL    HW260664   8.747  10.163   0.553 -0.8929  2.1409 -1.7088
19056SOL     OW60665   3.887   4.873  10.017 -0.1016  0.5807 -0.1015
19056SOL    HW160666   3.981   4.855  10.026 -0.2310 -1.3820 -1.8783
19056SOL    HW260667   3.876   4.898   9.925 -1.4979 -0.7367 -0.3284
19057SOL     OW60668   0.907   7.502   2.025  0.0453  0.3674  0.0555
19057SOL    HW160669   0.952   7.425   2.060  0.4023  0.5293 -0.0391
19057SOL    HW260670   0.887   7.556   2.102  0.7606  0.6870  0.0250
19058SOL     OW60671   5.030   5.377  10.042 -0.9987  0.4466 -0.4510
19058SOL    HW160672   5.105   5.395  10.098 -1.3960 -0.7008  0.4817
19058SOL    HW260673   4.956   5.419  10.086 -1.9716 -3.2551  1.8497
19059SOL     OW60674   1.180   6.085   6.235  0.0408 -0.6612 -0.2144
19059SOL    HW160675   1.180   5.995   6.269 -3.3164 -1.0641 -0.9667
19059SOL    HW260676   1.192   6.075   6.141  4.2138  0.1350  0.0270
19060SOL     OW60677  10.417   9.187   4.197  0.1013  0.0307 -0.0389
19060SOL    HW160678  10.413   9.094   4.221 -1.7091  0.1437  0.2324
19060SOL    HW260679  10.511   9.204   4.186  0.3938 -2.3088 -2.0488
19061SOL     OW60680   9.148   2.932   3.459 -0.1460  0.9012 -0.2538
19061SOL    HW160681   9.064   2.899   3.427  0.0219 -0.5976  0.7757
19061SOL    HW260682   9.206   2.856   3.459  1.3733  1.9971 -1.3652
19062SOL     OW60683   1.993   7.990  10.304 -0.0588 -0.2612 -0.2195
19062SOL    HW160684   1.973   8.056  10.238  1.4732  2.2776  1.6650
19062SOL    HW260685   2.080   7.959  10.281 -0.6512 -1.5045 -0.9208
19063SOL     OW60686   0.668  10.473   6.414 -0.2463  1.0003  0.1800
19063SOL    HW160687   0.653  10.533   6.340  1.7405 -0.5986 -1.6647
19063SOL    HW260688   0.680  10.387   6.373 -0.5431 -0.2412  2.5267
19064SOL     OW60689   8.963   8.148   6.196 -0.0391 -0.0629 -0.1811
19064SOL    HW160690   9.023   8.151   6.121 -0.0284  0.9986 -0.1428
19064SOL    HW260691   8.876   8.136   6.156  0.2451 -2.5070 -0.1942
19065SOL     OW60692   9.870   6.743   9.171 -0.0253  0.3237 -0.3941
19065SOL    HW160693   9.939   6.804   9.198 -1.4525  1.5972  0.4944
19065SOL    HW260694   9.887   6.665   9.224  0.4703  0.7776  0.1373
19066SOL     OW60695   0.851   5.616   2.839  0.5217 -0.4770  0.0860
19066SOL    HW160696   0.846   5.541   2.780  2.2417  1.0012 -2.1324
19066SOL    HW260697   0.897   5.583   2.916  0.5577 -1.8779 -0.5061
19067SOL     OW60698   0.614   8.634  10.838 -0.0867  0.2371 -0.1384
19067SOL    HW160699   0.574   8.720  10.851 -0.9452 -0.1774 -0.0380
19067SOL    HW260700   0.670   8.646  10.761  1.4083  1.4336  1.0592
19068SOL     OW60701   1.254   3.352   0.581 -0.1663  0.1866  0.2949
19068SOL    HW160702   1.294   3.433   0.612 -0.1275 -0.4814  2.0729
19068SOL    HW260703   1.283   3.285   0.643 -1.0365 -0.9984 -0.5348
19069SOL     OW60704   7.121   7.791   7.935  0.1907  0.3030 -0.0329
19069SOL    HW160705   7.149   7.870   7.981  1.8289 -0.0560 -0.3440
19069SOL    HW260706   7.115   7.818   7.843  0.1330  0.2298 -0.0508
19070SOL     OW60707   2.870   8.690   2.803  0.0664 -0.4004 -0.4237
19070SOL    HW160708   2.784   8.696   2.761  0.3576 -0.9715 -1.1217
19070SOL    HW260709   2.931   8.727   2.739  0.0848  2.4693  1.0730
19071SOL     OW60710   9.929   6.855   7.685  0.3266 -1.0141 -0.3409
19071SOL    HW160711   9.834   6.844   7.684  0.1207  0.2754  1.1342
19071SOL    HW260712   9.948   6.907   7.607 -0.4198  0.1780  0.2427
19072SOL     OW60713   3.975   6.023   7.945  0.0389  0.1286 -0.4170
19072SOL    HW160714   4.050   6.017   7.886 -0.0056 -1.0162 -0.3828
19072SOL    HW260715   4.006   6.077   8.018  1.0560 -0.8492 -0.0924
19073SOL     OW60716   2.772   5.027   6.792  0.1166  0.1637 -0.5428
19073SOL    HW160717   2.725   4.945   6.776  0.5368 -0.1670 -0.1134
19073SOL    HW260718   2.718   5.073   6.857 -0.6788  0.7242 -1.5698
19074SOL     OW60719   6.897   3.332  10.780 -0.2420 -0.4775  0.2496
19074SOL    HW160720   6.899   3.367  10.691 -1.3048 -1.7296 -0.3107
19074SOL    HW260721   6.970   3.271  10.784  0.4931  0.4110  0.6224
19075SOL     OW60722   1.091   6.518   6.319 -0.2915 -0.0814  0.5590
19075SOL    HW160723   1.113   6.608   6.341  2.5668 -0.0458 -1.8180
19075SOL    HW260724   1.149   6.465   6.374  1.3613 -0.2267 -1.2246
19076SOL     OW60725   3.901  10.957   1.909 -0.3191  0.1291  0.4055
19076SOL    HW160726   3.995  10.951   1.924 -0.1905  0.4941 -0.1953
19076SOL    HW260727   3.871  11.026   1.969 -0.3251 -0.4504  1.0803
19077SOL     OW60728   7.644   2.106   8.816  0.0680  0.6280  0.4500
19077SOL    HW160729   7.619   2.073   8.730  0.8530 -0.7543  0.7268
19077SOL    HW260730   7.562   2.110   8.866  0.1084 -3.0987  1.1110
19078SOL     OW60731   7.229   7.980   6.084  0.0993  0.2256 -0.2243
19078SOL    HW160732   7.291   7.917   6.047  1.3547  0.9250  0.5972
19078SOL    HW260733   7.184   8.016   6.009  1.7721  0.7772 -1.0138
19079SOL     OW60734   8.234  10.322   3.567 -0.1157 -0.6549 -0.1847
19079SOL    HW160735   8.239  10.240   3.616 -1.2847 -0.1757  0.7779
19079SOL    HW260736   8.141  10.335   3.551 -0.1931  1.5052  1.5236
19080SOL     OW60737   0.426   9.050   7.192  0.1029  0.1812  0.2381
19080SOL    HW160738   0.446   9.018   7.104  0.8120 -0.1000  0.4959
19080SOL    HW260739   0.404   8.971   7.242 -0.1959  0.3305  0.3465
19081SOL     OW60740  10.413   9.625   4.347 -0.3419  0.5492 -0.1593
19081SOL    HW160741  10.446   9.550   4.396 -1.7298 -0.2368 -0.3914
19081SOL    HW260742  10.458   9.619   4.262  0.1310  0.4440  0.0923
19082SOL     OW60743   2.984   6.910   8.986 -0.5274  0.1289  0.3296
19082SOL    HW160744   2.949   6.999   8.980  1.6670  1.0417 -0.0861
19082SOL    HW260745   3.013   6.902   9.077  1.0058  0.6043 -0.0797
19083SOL     OW60746   0.798   0.941   1.356 -0.3095 -0.4086 -0.0424
19083SOL    HW160747   0.858   0.870   1.381 -0.6212 -0.3171  1.0194
19083SOL    HW260748   0.804   0.945   1.260 -2.4961 -3.8750 -0.5254
19084SOL     OW60749   5.113   3.881   7.362  0.1970  0.5270 -0.5245
19084SOL    HW160750   5.161   3.951   7.318 -0.0693  1.0187 -0.0431
19084SOL    HW260751   5.036   3.923   7.399  0.0469 -0.0110 -0.2038
19085SOL     OW60752   4.812   9.037   3.094 -0.4649  0.4830  0.1983
19085SOL    HW160753   4.725   8.999   3.105  0.2094 -1.2016  0.0573
19085SOL    HW260754   4.802   9.101   3.024 -1.1756 -1.2141 -1.3196
19086SOL     OW60755   1.154   7.562   8.620  0.1520 -0.1605  0.0514
19086SOL    HW160756   1.159   7.528   8.531  0.1639 -0.0985  0.0281
19086SOL    HW260757   1.153   7.657   8.610  0.4508 -0.1499  0.1339
19087SOL     OW60758   7.342   6.374   4.263  0.2365 -0.0580  0.0163
19087SOL    HW160759   7.327   6.283   4.289 -0.4972  0.5167  1.7736
19087SOL    HW260760   7.279   6.389   4.193 -0.5659 -0.5486  0.6104
19088SOL     OW60761   7.857   3.853   2.834 -0.1210  0.3759  0.6855
19088SOL    HW160762   7.905   3.776   2.804 -1.2990 -1.3572  2.9317
19088SOL    HW260763   7.774   3.849   2.786  0.1304  0.7164  0.2171
19089SOL     OW60764   7.142   2.663   5.709 -0.2654 -0.0662  0.3011
19089SOL    HW160765   7.089   2.725   5.660 -1.4752  0.1007  1.7335
19089SOL    HW260766   7.215   2.642   5.651 -0.5985  1.5739 -0.7792
19090SOL     OW60767   1.911   1.310   1.625  0.1092  0.6291 -0.2693
19090SOL    HW160768   1.972   1.288   1.695  0.1145  1.2372 -0.0708
19090SOL    HW260769   1.946   1.267   1.548  1.5201  2.0084 -0.4378
19091SOL     OW60770   1.709   4.490   3.458 -0.0318 -0.6742 -0.1425
19091SOL    HW160771   1.659   4.460   3.534 -0.0421 -0.8043 -0.1992
19091SOL    HW260772   1.720   4.411   3.405 -1.3548 -0.2737 -1.0416
19092SOL     OW60773   0.606   3.363   4.681 -0.2711 -0.0646  0.4057
19092SOL    HW160774   0.649   3.446   4.701 -0.2501  0.4799 -1.6244
19092SOL    HW260775   0.535   3.386   4.621 -0.0244 -1.5293 -0.5181
19093SOL     OW60776   5.763   7.082  10.038 -0.0371  0.5196 -0.1367
19093SOL    HW160777   5.724   7.013  10.093 -0.3304  0.8168  0.0282
19093SOL    HW260778   5.743   7.055   9.948  1.0686 -0.3522 -0.1426
19094SOL     OW60779   5.299   7.444   9.995  0.0602 -0.2700 -0.3217
19094SOL    HW160780   5.333   7.442  10.084 -0.8941 -0.1561  0.0631
19094SOL    HW260781   5.367   7.403   9.941 -0.0573 -1.8719  0.7058
19095SOL     OW60782   5.319   1.358   6.349  0.1045 -0.1910  0.6209
19095SOL    HW160783   5.388   1.422   6.330  0.4748 -1.0855 -1.1877
19095SOL    HW260784   5.365   1.276   6.364 -0.5172 -0.6525  0.0727
19096SOL     OW60785   8.631   5.725   6.570  0.1361  0.0886  0.0562
19096SOL    HW160786   8.644   5.754   6.661  1.3677 -1.2050  0.3239
19096SOL    HW260787   8.668   5.637   6.567  1.7669  0.7571 -2.1268
19097SOL     OW60788   3.083   2.294  10.383  0.7252 -0.1526 -0.1830
19097SOL    HW160789   3.155   2.242  10.349  0.4667  0.0511 -1.0744
19097SOL    HW260790   3.125   2.370  10.425  1.0230  0.8458 -2.1550
19098SOL     OW60791   5.474   1.823   7.193  0.6401  0.2011  0.1156
19098SOL    HW160792   5.566   1.805   7.211 -0.1101 -1.8882  2.4630
19098SOL    HW260793   5.429   1.802   7.275 -1.8772  1.8449 -0.7172
19099SOL     OW60794   6.751   5.851   5.278  0.1903 -0.0276 -0.2148
19099SOL    HW160795   6.761   5.941   5.311 -2.0907  0.3343 -0.3410
19099SOL    HW260796   6.773   5.857   5.185  0.9314  0.1985 -0.0282
19100SOL     OW60797   9.446  10.692   4.228  0.2727  0.3486  0.5742
19100SOL    HW160798   9.498  10.751   4.173  0.0536  0.8210  0.8742
19100SOL    HW260799   9.397  10.750   4.286  0.9099 -0.1614  1.6531
19101SOL     OW60800   7.328   4.891   2.358 -0.1804  0.6061 -0.2079
19101SOL    HW160801   7.282   4.858   2.281 -1.0687  2.3156 -0.4523
19101SOL    HW260802   7.419   4.899   2.329  0.2721 -2.2690  0.1096
19102SOL     OW60803   4.178   0.922   2.726 -0.1436  0.0904 -0.1817
19102SOL    HW160804   4.240   0.863   2.682  0.9854  1.8735 -1.1306
19102SOL    HW260805   4.093   0.881   2.714  0.4203 -0.6144 -2.1440
19103SOL     OW60806   4.720  10.215  10.114  0.1518  0.0938 -0.4268
19103SOL    HW160807   4.670  10.157  10.170 -0.4537  0.6009 -0.4389
19103SOL    HW260808   4.781  10.259  10.173 -0.3608  0.4924 -0.1887
19104SOL     OW60809   7.411   1.913   5.936  0.1517 -0.2279 -0.4049
19104SOL    HW160810   7.434   1.928   6.027 -0.8901  0.6376 -0.2673
19104SOL    HW260811   7.386   1.999   5.903 -0.8194 -0.7606 -1.1167
19105SOL     OW60812   5.467   0.605   5.010  0.2811  0.1408 -0.6373
19105SOL    HW160813   5.468   0.510   5.003 -2.3488 -0.3315  2.7241
19105SOL    HW260814   5.410   0.634   4.938 -1.5723 -1.2505  0.1734
19106SOL     OW60815   9.159   6.780   5.205 -0.5668  0.3129  0.1315
19106SOL    HW160816   9.099   6.735   5.264  1.3706 -2.3260  0.2519
19106SOL    HW260817   9.222   6.824   5.262 -0.7572  0.7938 -0.0149
19107SOL     OW60818   1.097   0.139   2.746  0.1892  0.0815  0.2589
19107SOL    HW160819   1.046   0.218   2.762  0.2959  0.1463  0.2812
19107SOL    HW260820   1.142   0.123   2.829  0.1433 -0.0207  0.2646
19108SOL     OW60821   8.496   4.337   3.872 -0.3859 -0.0425 -0.0201
19108SOL    HW160822   8.444   4.417   3.872 -0.4180 -0.0577 -0.6375
19108SOL    HW260823   8.475   4.294   3.955  1.0070  1.4529  1.1760
19109SOL     OW60824   3.454   9.787   0.182  0.0983 -0.1145  0.0473
19109SOL    HW160825   3.487   9.727   0.248 -0.3496 -0.4150  0.0043
19109SOL    HW260826   3.387   9.737   0.135  0.6472 -0.0295 -0.8626
19110SOL     OW60827  10.516   4.213   3.487  0.2253  0.2932 -0.0019
19110SOL    HW160828  10.426   4.187   3.504  0.3844 -0.1953  0.1108
19110SOL    HW260829  10.553   4.140   3.437  0.4483  0.6585 -0.3737
19111SOL     OW60830   7.148   1.393   0.705 -0.1187  0.0084  0.0267
19111SOL    HW160831   7.064   1.362   0.670  0.7465 -1.5099 -0.7943
19111SOL    HW260832   7.124   1.449   0.779 -1.8272 -1.5617  0.7309
19112SOL     OW60833   6.565   5.201   5.349 -0.4959 -0.2091 -0.1421
19112SOL    HW160834   6.517   5.269   5.303 -1.1709 -0.8385 -0.3841
19112SOL    HW260835   6.652   5.239   5.363 -0.6908  0.4951 -0.7506
19113SOL     OW60836   4.050   4.552   6.797  0.2246 -0.2005 -0.0191
19113SOL    HW160837   3.964   4.582   6.767 -0.2733 -0.3097  1.2710
19113SOL    HW260838   4.097   4.533   6.716 -1.1755 -0.7314 -0.7447
19114SOL     OW60839   4.824   0.916   8.894  0.3458  0.5098  0.0035
19114SOL    HW160840   4.735   0.880   8.895  0.6126 -0.2157 -0.8321
19114SOL    HW260841   4.880   0.840   8.913  0.8367  0.7673 -0.4067
19115SOL     OW60842   2.011   4.072   5.203 -0.2407 -0.2217  0.1607
19115SOL    HW160843   1.967   4.152   5.230  0.1452  0.3371 -0.7989
19115SOL    HW260844   1.972   4.051   5.118  1.3136  0.2961 -0.7169
19116SOL     OW60845   6.735  10.719   8.902 -0.1943  0.0616  0.5502
19116SOL    HW160846   6.718  10.761   8.817  0.1715  1.1487  0.9910
19116SOL    HW260847   6.789  10.643   8.881  0.0044  0.3931 -0.1778
19117SOL     OW60848   6.125   0.241   5.272  0.3375  0.0703 -0.3506
19117SOL    HW160849   6.125   0.172   5.338  1.0411  0.5613  0.1777
19117SOL    HW260850   6.063   0.210   5.205 -1.4963  0.2184  1.2024
19118SOL     OW60851   4.271   9.245   7.510 -0.4320  0.2424 -0.7022
19118SOL    HW160852   4.322   9.301   7.452 -1.6335  0.8794 -1.1727
19118SOL    HW260853   4.330   9.226   7.583  0.4961  0.8879 -1.2618
19119SOL     OW60854   5.629   3.392   2.986 -0.0958  0.7184  0.3605
19119SOL    HW160855   5.647   3.454   2.916  1.8929 -1.2309 -0.9786
19119SOL    HW260856   5.663   3.434   3.065  0.7043  1.5926 -0.4306
19120SOL     OW60857   0.893   9.580   6.666  0.5858 -0.1058 -0.5667
19120SOL    HW160858   0.909   9.671   6.641  0.1530  0.4333  0.9832
19120SOL    HW260859   0.961   9.530   6.621  1.0978  1.0425 -1.1019
19121SOL     OW60860   8.873   7.655   2.126  0.2505 -0.1143  0.1626
19121SOL    HW160861   8.929   7.596   2.177 -0.8395 -0.4345  1.0570
19121SOL    HW260862   8.855   7.728   2.185  0.1329  0.2271 -0.2912
19122SOL     OW60863   5.578   9.460   3.236  0.1118 -0.1924 -0.2123
19122SOL    HW160864   5.636   9.536   3.239  2.0449 -1.5798 -0.3758
19122SOL    HW260865   5.608   9.403   3.307  0.6444 -2.0512 -1.8167
19123SOL     OW60866  10.115  10.415   4.904 -0.6960 -0.3684  0.6557
19123SOL    HW160867  10.096  10.351   4.835  1.9687 -2.0135  1.3121
19123SOL    HW260868  10.109  10.365   4.985 -1.1690  0.8933  1.4197
19124SOL     OW60869  10.433   0.868   3.226  0.5088 -0.5364 -0.5413
19124SOL    HW160870  10.378   0.831   3.157  2.0500  0.2206 -2.2923
19124SOL    HW260871  10.485   0.935   3.181  0.5597  1.0323  1.6818
19125SOL     OW60872   3.998  10.031   6.768 -0.0903  0.4997 -0.3353
19125SOL    HW160873   3.959  10.066   6.688  1.0811  0.0642 -1.1383
19125SOL    HW260874   4.084   9.999   6.740 -0.7885 -2.4138  0.4376
19126SOL     OW60875   6.205   5.333   4.341  0.0511  0.2515  0.0822
19126SOL    HW160876   6.237   5.260   4.289  2.7017  2.9816 -2.5447
19126SOL    HW260877   6.283   5.384   4.362 -1.7718  3.2666  0.1729
19127SOL     OW60878   1.852   7.940   6.781 -0.0207  0.1063  0.0194
19127SOL    HW160879   1.800   7.871   6.821 -4.2679  3.6491  1.4431
19127SOL    HW260880   1.918   7.962   6.846 -0.7076 -0.4533  0.9180
19128SOL     OW60881   2.645  10.358   8.117 -0.5447 -0.6704  0.1416
19128SOL    HW160882   2.645  10.399   8.030  0.4636 -1.1624 -0.1036
19128SOL    HW260883   2.644  10.264   8.099  2.6867 -0.8788  0.5586
19129SOL     OW60884   7.616   3.750   6.974 -0.0539 -0.5492 -0.2431
19129SOL    HW160885   7.561   3.825   6.949 -0.0947 -0.8906 -1.1895
19129SOL    HW260886   7.678   3.787   7.037  0.7915  0.5985 -1.6815
19130SOL     OW60887   6.329   0.487   6.520 -0.2041 -0.4479 -0.2980
19130SOL    HW160888   6.397   0.442   6.469 -1.1307 -0.3555 -1.6563
19130SOL    HW260889   6.262   0.421   6.534  0.4786 -0.7611  1.7243
19131SOL     OW60890   1.690   7.416   6.748 -0.4647 -0.4935  0.3235
19131SOL    HW160891   1.768   7.362   6.738 -0.4810 -0.4814  0.1329
19131SOL    HW260892   1.689   7.472   6.671  0.1810  0.5912  1.0828
19132SOL     OW60893   5.173   6.004   6.878 -0.1144  0.4815 -0.0329
19132SOL    HW160894   5.253   6.004   6.931 -0.6863  1.5818  0.8838
19132SOL    HW260895   5.108   5.961   6.934 -0.2154 -0.3006 -0.7243
19133SOL     OW60896   9.649   5.314   0.381 -0.4088 -0.1523 -0.6903
19133SOL    HW160897   9.683   5.281   0.464 -0.1634 -3.3778 -1.9314
19133SOL    HW260898   9.554   5.308   0.390 -0.3881 -0.2785 -0.5419
19134SOL     OW60899   6.923   9.165   2.275  0.2368  0.3939 -0.2696
19134SOL    HW160900   6.955   9.081   2.243  0.4604 -0.4925  2.1028
19134SOL    HW260901   7.002   9.217   2.289  0.2279  0.3513 -0.0565
19135SOL     OW60902   0.686   3.475   9.294  0.6136 -0.3633 -0.1289
19135SOL    HW160903   0.735   3.454   9.214  1.1866 -0.9828  0.3799
19135SOL    HW260904   0.681   3.570   9.294  0.6823 -0.3494 -0.8600
19136SOL     OW60905   5.785   7.242   7.280 -0.4435  0.3893  0.6126
19136SOL    HW160906   5.774   7.156   7.240 -0.9452  0.7328 -0.0079
19136SOL    HW260907   5.872   7.239   7.321 -0.0640 -0.0803 -0.2168
19137SOL     OW60908  10.637   2.861   0.312 -0.0960 -0.1058 -0.3241
19137SOL    HW160909  10.597   2.778   0.289 -0.6691  0.1759 -0.3510
19137SOL    HW260910  10.584   2.927   0.268  0.3148  0.2826 -0.2542
19138SOL     OW60911   8.775   8.303   4.058  0.2390  0.3624 -0.1630
19138SOL    HW160912   8.842   8.369   4.044 -0.6340  1.1845 -0.5222
19138SOL    HW260913   8.697   8.337   4.015 -0.6302 -0.2218  0.8830
19139SOL     OW60914  10.711   1.914   3.585  0.0564 -0.3000  0.2875
19139SOL    HW160915  10.730   1.820   3.594  0.4340 -0.4053 -1.3250
19139SOL    HW260916  10.717   1.930   3.491 -1.0475  1.1362  0.4437
19140SOL     OW60917   2.707   3.781   8.179  0.2462  0.3162 -0.4132
19140SOL    HW160918   2.663   3.865   8.190  0.3255  0.1079  1.9978
19140SOL    HW260919   2.789   3.790   8.227  0.6443 -0.8443 -0.8535
19141SOL     OW60920   3.280   4.380   9.457 -0.1692  0.3878  0.1332
19141SOL    HW160921   3.252   4.466   9.489  2.4098  0.9024  1.3472
19141SOL    HW260922   3.231   4.317   9.509 -2.5178  1.0295 -1.1606
19142SOL     OW60923   7.610   8.929   3.948  0.1351 -0.1401  0.2550
19142SOL    HW160924   7.536   8.933   4.008  0.7558  0.0808  1.0275
19142SOL    HW260925   7.649   9.016   3.952  0.1774 -0.1216 -0.4793
19143SOL     OW60926   6.107   5.363   0.860  0.2985 -0.3885 -0.0631
19143SOL    HW160927   6.083   5.372   0.953  1.8129 -3.5772  0.7527
19143SOL    HW260928   6.109   5.269   0.845  0.3513  0.0365 -3.3380
19144SOL     OW60929   2.560   8.608   4.956 -0.1159  0.0234  0.1688
19144SOL    HW160930   2.622   8.583   5.025 -0.2980  0.9603  0.6866
19144SOL    HW260931   2.576   8.701   4.942 -2.4013  0.6706  1.3770
19145SOL     OW60932   2.819   8.155   5.746 -0.0531  0.0054  0.2435
19145SOL    HW160933   2.840   8.202   5.827 -1.5674 -0.8686  1.1857
19145SOL    HW260934   2.896   8.168   5.691  1.1681  0.3535  1.9332
19146SOL     OW60935   2.066   9.877   2.809  0.1061  0.2722  0.0162
19146SOL    HW160936   1.979   9.890   2.847 -0.7948 -1.8076 -1.1548
19146SOL    HW260937   2.111   9.821   2.872 -0.2400 -0.5461 -0.4589
19147SOL     OW60938   8.787   2.204   2.052  0.1695 -0.6781  0.1787
19147SOL    HW160939   8.715   2.172   1.998 -1.1631 -0.2847  1.6578
19147SOL    HW260940   8.833   2.266   1.996 -1.0262 -0.4491 -0.5852
19148SOL     OW60941   7.314   5.748   2.437 -0.5538 -0.2726  0.0539
19148SOL    HW160942   7.247   5.700   2.389 -0.6141 -0.1307 -0.0029
19148SOL    HW260943   7.395   5.701   2.418 -0.6628 -0.5522  0.2689
19149SOL     OW60944  10.009   7.913  10.848  0.0876 -0.0305 -0.7650
19149SOL    HW160945  10.092   7.868  10.865  1.2414  1.4052 -2.2834
19149SOL    HW260946   9.947   7.843  10.829  1.2185 -1.0855 -0.6572
19150SOL     OW60947   5.601   0.949   7.577  0.2056 -0.4635  0.0921
19150SOL    HW160948   5.530   0.942   7.641 -2.5025  2.3814 -2.2164
19150SOL    HW260949   5.654   1.022   7.607  0.6747 -0.9906  0.5511
19151SOL     OW60950   3.377  10.402   0.766  0.0779 -1.0333  0.6206
19151SOL    HW160951   3.454  10.426   0.714  0.0950 -0.2922  0.9705
19151SOL    HW260952   3.318  10.359   0.704 -0.9007  1.8770 -0.6298
19152SOL     OW60953  10.576   2.350  10.018  0.0668 -0.3458  0.1847
19152SOL    HW160954  10.579   2.256  10.034  1.0901 -0.1469  1.3623
19152SOL    HW260955  10.548   2.358   9.927  0.8865 -1.8233 -0.2340
19153SOL     OW60956   8.185   5.355   7.770  0.4264  0.1324  0.2254
19153SOL    HW160957   8.114   5.405   7.729  0.8834 -0.6096 -1.5634
19153SOL    HW260958   8.239   5.326   7.697  1.2506 -1.3414  1.3742
19154SOL     OW60959   7.635   4.240   3.735  0.8538  0.1309  0.0343
19154SOL    HW160960   7.596   4.283   3.660  0.6191  0.7605  0.5160
19154SOL    HW260961   7.728   4.262   3.729  1.0122 -0.6563 -0.6269
19155SOL     OW60962   5.147   3.313   4.363 -0.5053  1.0346 -0.0263
19155SOL    HW160963   5.236   3.348   4.352  0.4483 -0.9526  0.8263
19155SOL    HW260964   5.146   3.235   4.308 -0.1410 -1.4977  3.3014
19156SOL     OW60965   7.570   3.342   8.317  0.4185  0.6528 -0.2733
19156SOL    HW160966   7.549   3.250   8.304 -0.5983  0.7725  0.3639
19156SOL    HW260967   7.665   3.345   8.319  0.4692 -0.3276 -0.6510
19157SOL     OW60968   3.202   8.827   0.115 -0.4673  0.5781 -0.6275
19157SOL    HW160969   3.112   8.842   0.142 -0.4469 -0.6369  0.1930
19157SOL    HW260970   3.227   8.746   0.159  1.1935  1.1512 -0.4513
19158SOL     OW60971   4.676   5.331   4.737 -0.5440 -0.0223  0.3214
19158SOL    HW160972   4.645   5.421   4.730  0.4564  0.2852 -0.3052
19158SOL    HW260973   4.691   5.303   4.647  0.2731 -0.4122  0.5684
19159SOL     OW60974   7.816   0.006   0.118 -0.2754 -0.2115  0.1525
19159SOL    HW160975   7.896   0.027   0.166 -0.8912  2.7133  0.1242
19159SOL    HW260976   7.746   0.031   0.177 -1.0998  0.0423 -0.8992
19160SOL     OW60977   6.175   2.091   9.767  0.1857  0.0445  0.7550
19160SOL    HW160978   6.166   2.180   9.732 -0.3423 -0.1137  0.4663
19160SOL    HW260979   6.141   2.097   9.857  0.4120  0.1944  0.8295
19161SOL     OW60980  10.203   3.248   4.585 -0.1723  0.1505 -0.1574
19161SOL    HW160981  10.138   3.182   4.609  1.2452 -1.7805 -1.2872
19161SOL    HW260982  10.157   3.305   4.522 -1.1861 -0.2624  0.1873
19162SOL     OW60983   6.938   5.357   2.380 -0.1287  0.1266 -0.3181
19162SOL    HW160984   6.932   5.323   2.469  0.0770 -0.8823 -0.6823
19162SOL    HW260985   6.899   5.290   2.325  1.7382 -0.2998 -1.2139
19163SOL     OW60986   9.409   6.591   8.705  0.0649  0.1597  0.0610
19163SOL    HW160987   9.437   6.507   8.671  0.4784  0.0544  0.6415
19163SOL    HW260988   9.313   6.586   8.707  0.1126 -0.7592  1.2031
19164SOL     OW60989   3.241   3.138   6.639 -0.3895  0.8736  0.1828
19164SOL    HW160990   3.168   3.091   6.598  0.6047  0.6980 -1.4678
19164SOL    HW260991   3.223   3.230   6.621 -0.2187  0.8323 -0.2031
19165SOL     OW60992   8.354   4.263   6.760 -0.1542 -0.1486  0.2638
19165SOL    HW160993   8.368   4.288   6.669  0.9974 -0.1135  0.4273
19165SOL    HW260994   8.415   4.319   6.809 -0.4040 -0.5193  1.0052
19166SOL     OW60995   1.994   0.413   6.237  0.8759 -0.1101 -0.6075
19166SOL    HW160996   2.065   0.419   6.173 -0.2116 -1.3206 -1.9758
19166SOL    HW260997   1.923   0.465   6.199  0.4799 -0.1968 -0.0053
19167SOL     OW60998   9.313   6.897   9.312  0.3045  0.1643  0.2217
19167SOL    HW160999   9.341   6.805   9.317 -0.7625 -0.1541  0.6706
19167SOL    HW261000   9.249   6.906   9.382 -1.3432  0.6200 -1.2597
19168SOL     OW61001   5.118   3.481   0.661 -0.8943  0.2689 -0.3192
19168SOL    HW161002   5.028   3.510   0.678 -1.1716 -0.3407 -0.7323
19168SOL    HW261003   5.147   3.535   0.587 -0.9770  0.3407 -0.2996
19169SOL     OW61004   3.595   0.855   2.419  0.5383  0.3006  0.3826
19169SOL    HW161005   3.564   0.765   2.412 -1.3603  0.9302 -0.1243
19169SOL    HW261006   3.648   0.868   2.340  2.4248 -0.8973  1.3995
19170SOL     OW61007   3.573   6.072   5.675  0.2252 -0.0945  0.0369
19170SOL    HW161008   3.488   6.032   5.692  0.6890 -1.0932  0.0458
19170SOL    HW261009   3.634   6.027   5.735  0.8143  0.3966 -0.1813
19171SOL     OW61010  10.929  10.459  10.938 -0.2239  0.1685  0.2870
19171SOL    HW161011  10.953  10.541  10.981  0.8235 -0.9329  1.8908
19171SOL    HW261012  10.834  10.453  10.951 -0.5425  1.7027 -0.9759
19172SOL     OW61013  10.650   8.753   7.658  0.2668 -0.4249 -0.1409
19172SOL    HW161014  10.667   8.695   7.583 -2.1833 -0.1914 -0.9628
19172SOL    HW261015  10.599   8.699   7.718 -1.8385  0.7354 -0.8035
19173SOL     OW61016   0.907   0.425   1.659 -0.4732 -0.0004 -0.2365
19173SOL    HW161017   0.947   0.352   1.706  2.2051  1.5383  0.0667
19173SOL    HW261018   0.924   0.407   1.567  0.2535  0.2591 -0.1567
19174SOL     OW61019   6.279   8.860   6.692 -0.1871  0.2082 -0.2536
19174SOL    HW161020   6.316   8.772   6.693  1.1344  0.7508  0.0974
19174SOL    HW261021   6.184   8.845   6.694  0.0054 -1.1976 -0.1388
19175SOL     OW61022   3.673   3.134  10.790  0.2064 -0.5083  0.2905
19175SOL    HW161023   3.655   3.171  10.876  1.1614  1.4512 -0.2912
19175SOL    HW261024   3.587   3.108  10.757  0.0328 -3.3929  2.6395
19176SOL     OW61025   9.980  10.041   0.151  0.3768 -0.0288  0.1769
19176SOL    HW161026  10.042   9.979   0.189  1.6899  1.6453  0.9050
19176SOL    HW261027  10.008  10.126   0.183 -1.8841  0.8962 -0.0739
19177SOL     OW61028  10.012  10.385   8.640  0.6709 -0.3471 -0.1944
19177SOL    HW161029  10.096  10.338   8.645  0.7808 -0.0431  2.2517
19177SOL    HW261030   9.947  10.322   8.670 -0.1349 -0.7298 -2.5137
19178SOL     OW61031   0.385   7.348   2.942 -0.1211  0.4123  0.3227
19178SOL    HW161032   0.462   7.291   2.932 -0.0149  0.4127  1.0648
19178SOL    HW261033   0.315   7.288   2.969 -0.1248  0.5595  0.6443
19179SOL     OW61034   2.261   7.305   1.563 -0.0544  0.0433 -0.1151
19179SOL    HW161035   2.219   7.345   1.487 -0.1515  0.8905  0.3758
19179SOL    HW261036   2.194   7.304   1.631 -0.5459 -2.3823 -0.5497
19180SOL     OW61037   1.634   3.444   0.431  0.4172  0.0564 -0.5699
19180SOL    HW161038   1.619   3.527   0.475  0.2178 -0.1925 -0.1608
19180SOL    HW261039   1.689   3.466   0.356 -0.0365  0.6297 -0.7456
19181SOL     OW61040   4.181   4.851   3.856 -0.1504  0.2660 -0.1514
19181SOL    HW161041   4.159   4.842   3.949 -1.6264  1.6117 -0.3289
19181SOL    HW261042   4.232   4.773   3.836  1.6289  0.7268  2.1655
19182SOL     OW61043   5.708   7.961   3.499 -0.5918 -0.8487  0.4941
19182SOL    HW161044   5.629   7.906   3.500 -0.4610 -1.1209 -1.2324
19182SOL    HW261045   5.770   7.914   3.555 -1.4934 -0.8528  1.5299
19183SOL     OW61046  10.015   3.866   2.948  0.3183  0.1270  0.0262
19183SOL    HW161047   9.997   3.823   3.031  0.3988  1.0616  0.5479
19183SOL    HW261048  10.062   3.801   2.897  0.2719 -0.4610  0.7155
19184SOL     OW61049   1.580   4.474  10.027  0.3732 -0.4107  0.2277
19184SOL    HW161050   1.640   4.522  10.083 -0.1400 -1.5718  1.8343
19184SOL    HW261051   1.626   4.467   9.943  1.6230  0.4284  0.8143
19185SOL     OW61052  10.398   1.692   3.975 -0.5779 -0.0638 -0.0304
19185SOL    HW161053  10.350   1.609   3.978 -1.1284  0.2193 -0.6760
19185SOL    HW261054  10.367   1.734   3.894  1.6183 -0.3935 -1.1030
19186SOL     OW61055   3.961   1.080   2.172  0.1207 -0.1158 -0.4061
19186SOL    HW161056   3.958   1.074   2.268  1.1707 -0.3181 -0.3773
19186SOL    HW261057   3.987   1.171   2.155 -0.2138 -0.0386 -0.5009
19187SOL     OW61058   1.084   1.881  10.333 -0.0459 -0.3302  0.3042
19187SOL    HW161059   1.012   1.929  10.373  0.0983 -0.1863  0.3918
19187SOL    HW261060   1.113   1.819  10.400  1.0089  0.7566  0.8850
19188SOL     OW61061  10.882   5.704   8.354  0.5089 -0.4291  0.2646
19188SOL    HW161062  10.965   5.726   8.395  1.3656 -1.2858 -0.9371
19188SOL    HW261063  10.817   5.755   8.402  1.7215  0.2744  1.2125
19189SOL     OW61064   4.860   1.913   5.417  0.0322 -0.3481  0.3289
19189SOL    HW161065   4.872   2.003   5.387  0.2248 -1.1193 -2.1173
19189SOL    HW261066   4.949   1.878   5.421 -0.1683 -1.0281 -0.8296
19190SOL     OW61067   9.394   4.956   7.301 -0.4332  0.8756  0.4428
19190SOL    HW161068   9.398   4.863   7.323 -0.0262  1.0047  0.9373
19190SOL    HW261069   9.485   4.987   7.308 -0.5013  1.2310 -0.0920
19191SOL     OW61070   3.962   6.153   2.172 -0.1098 -0.0619  0.2911
19191SOL    HW161071   3.898   6.221   2.191  0.2992  0.5385 -0.4466
19191SOL    HW261072   4.039   6.178   2.222  0.5312  0.8223 -1.0861
19192SOL     OW61073   5.268   6.341   1.605  0.7454  0.0640 -0.1924
19192SOL    HW161074   5.253   6.302   1.519 -0.1148  0.3438 -0.1759
19192SOL    HW261075   5.330   6.413   1.588  0.2324  0.4004 -0.6500
19193SOL     OW61076   2.991   6.246   7.069  0.7484 -0.1977 -0.0847
19193SOL    HW161077   2.937   6.267   7.145 -0.6503 -0.4600 -0.9641
19193SOL    HW261078   3.004   6.331   7.025 -1.1668 -0.4439 -1.2463
19194SOL     OW61079   1.426   0.005   3.056  0.0235 -0.6430 -0.1230
19194SOL    HW161080   1.494   0.066   3.030 -0.6048 -0.3137 -1.0216
19194SOL    HW261081   1.472  -0.078   3.068  0.6167 -0.3701 -0.4637
19195SOL     OW61082   8.489   9.657   3.831  0.6087  0.8833  0.0585
19195SOL    HW161083   8.529   9.617   3.754 -0.2385 -0.2489  0.1638
19195SOL    HW261084   8.395   9.645   3.818  0.4281  1.1450  1.0195
19196SOL     OW61085   5.987   6.206   8.939 -0.0930  0.3433  0.3888
19196SOL    HW161086   5.927   6.193   8.866 -1.0199 -0.2851  1.2301
19196SOL    HW261087   6.031   6.121   8.949 -0.5467  0.1752  1.0396
19197SOL     OW61088   9.839   5.175   4.155 -0.0912 -0.5446 -0.0528
19197SOL    HW161089   9.861   5.148   4.066 -1.7683 -0.5019 -0.5237
19197SOL    HW261090   9.774   5.110   4.184 -1.2353  0.7072  0.2784
19198SOL     OW61091   7.001   2.348   6.442  0.3490 -0.1984 -0.4772
19198SOL    HW161092   6.983   2.305   6.358  1.1436  0.3536 -0.9503
19198SOL    HW261093   7.002   2.441   6.421 -0.2090 -0.0068  0.3064
19199SOL     OW61094   9.616   7.918   0.834  0.4767 -0.1470 -0.0117
19199SOL    HW161095   9.535   7.958   0.803  1.1412  0.5792 -0.8754
19199SOL    HW261096   9.628   7.841   0.778 -0.7463 -1.5928  1.5809
19200SOL     OW61097   4.120   4.717   4.134 -0.0443 -0.0136  0.6653
19200SOL    HW161098   4.186   4.720   4.203  1.0348 -0.0154 -0.3430
19200SOL    HW261099   4.089   4.627   4.135 -0.4201  0.1125  1.4808
19201SOL     OW61100   8.683   9.081   3.461 -0.0869 -0.4878 -0.0559
19201SOL    HW161101   8.667   9.081   3.367 -1.3035 -1.3434  0.1291
19201SOL    HW261102   8.654   9.167   3.490 -0.9745 -0.6979 -0.2845
19202SOL     OW61103   8.404   7.987   3.971 -0.1429 -0.1239  0.4099
19202SOL    HW161104   8.367   7.927   3.907 -0.3785 -0.3943  0.7998
19202SOL    HW261105   8.498   7.983   3.956 -0.2765  0.9161 -0.8972
19203SOL     OW61106   1.364   6.483   0.684 -0.0906 -0.7372 -0.0273
19203SOL    HW161107   1.373   6.442   0.770 -0.5549  0.7430  0.7658
19203SOL    HW261108   1.319   6.417   0.631  1.0409 -2.0313  0.5717
19204SOL     OW61109   2.945  10.715   2.900  0.1427  0.1250 -0.4267
19204SOL    HW161110   2.980  10.626   2.902 -1.3064 -0.5619 -2.4175
19204SOL    HW261111   2.897  10.724   2.982 -0.3754 -1.2362 -0.5603
19205SOL     OW61112   0.094  10.586   5.740  0.3598 -0.8406  0.0652
19205SOL    HW161113   0.131  10.662   5.786  2.9592 -3.1804  2.1649
19205SOL    HW261114   0.165  10.555   5.684 -0.5841 -1.8945 -0.5973
19206SOL     OW61115   6.393   2.461   3.922  0.0087  0.0321 -0.1366
19206SOL    HW161116   6.318   2.519   3.941 -0.4004 -1.1613  2.3241
19206SOL    HW261117   6.358   2.397   3.860 -1.0475 -0.4636  0.9211
19207SOL     OW61118   8.042   7.085   6.718 -0.4636  0.0194  0.0095
19207SOL    HW161119   8.129   7.071   6.680 -0.6051  0.6193 -0.5524
19207SOL    HW261120   7.984   7.087   6.642 -0.8939  0.1772  0.3449
19208SOL     OW61121   2.339   2.783   3.654  0.7067 -0.0175 -0.0867
19208SOL    HW161122   2.421   2.735   3.656  1.1681  0.7677  0.1402
19208SOL    HW261123   2.276   2.725   3.697  0.5937 -1.5854 -2.2142
19209SOL     OW61124   6.414   1.329   6.401 -0.2338 -0.1199  0.4615
19209SOL    HW161125   6.480   1.277   6.357  0.2350  1.1619 -0.4283
19209SOL    HW261126   6.404   1.289   6.488  1.1168 -0.8078  0.3133
19210SOL     OW61127   3.776   0.099  10.351 -0.1983 -0.2124  0.2052
19210SOL    HW161128   3.684   0.074  10.361 -0.2482  0.1139  0.5865
19210SOL    HW261129   3.798   0.143  10.434 -0.0577  0.8319 -0.3769
19211SOL     OW61130   2.510   3.867   6.726 -0.2147  0.3048  0.1157
19211SOL    HW161131   2.436   3.811   6.701 -0.8443  1.0873  0.1991
19211SOL    HW261132   2.515   3.857   6.821 -1.0788  1.2682  0.2867
19212SOL     OW61133   1.849   9.445   8.572  0.1552 -0.4412 -0.1615
19212SOL    HW161134   1.834   9.514   8.637  0.0113 -0.7933  0.1827
19212SOL    HW261135   1.886   9.373   8.623  1.6601 -0.1228 -0.7373
19213SOL     OW61136   0.689   2.306   5.947  0.0510  0.6030  0.0231
19213SOL    HW161137   0.663   2.245   6.016 -0.0167 -2.2722 -2.3338
19213SOL    HW261138   0.651   2.390   5.973 -1.1804 -0.6818  2.7055
19214SOL     OW61139  10.652   8.196   6.182 -0.2531 -0.0700  0.2621
19214SOL    HW161140  10.721   8.252   6.218  2.7837 -3.1158 -0.3020
19214SOL    HW261141  10.600   8.172   6.258  0.4709  0.7572  1.0578
19215SOL     OW61142  10.301   1.833   7.179  0.2777  0.2343 -0.0830
19215SOL    HW161143  10.335   1.917   7.148 -0.0100  0.3024 -0.2195
19215SOL    HW261144  10.355   1.812   7.255  0.0074  0.8028  0.2754
19216SOL     OW61145   3.057   6.112  10.622 -0.2644 -0.1111  0.1370
19216SOL    HW161146   3.095   6.036  10.578 -0.4332  0.6350 -1.3446
19216SOL    HW261147   3.101   6.187  10.583 -3.2557  0.8179 -1.7778
19217SOL     OW61148   5.021   6.127   5.692 -0.5770  0.0857  0.1104
19217SOL    HW161149   5.015   6.216   5.658  0.0254 -0.7453 -2.3412
19217SOL    HW261150   5.112   6.101   5.675 -1.4131 -1.9120 -1.8343
19218SOL     OW61151   6.559   8.334   8.741 -0.1417 -0.1033  0.7973
19218SOL    HW161152   6.633   8.394   8.729 -0.9302  0.7930  0.2670
19218SOL    HW261153   6.598   8.247   8.735  0.5787  0.3067 -1.8633
19219SOL     OW61154   6.753   9.632   2.380 -0.1738 -0.0823  0.5045
19219SOL    HW161155   6.732   9.724   2.396  0.1969  0.2701 -0.9054
19219SOL    HW261156   6.848   9.631   2.369 -0.1478 -0.6730  0.7353
19220SOL     OW61157   2.407   3.277   0.218 -0.4171 -0.3053 -0.2613
19220SOL    HW161158   2.317   3.305   0.197  0.1404  0.9960 -1.0919
19220SOL    HW261159   2.399   3.185   0.241 -2.6776  0.7475  4.2831
19221SOL     OW61160   7.800   5.414   7.755 -0.4200  0.0286  0.7581
19221SOL    HW161161   7.823   5.414   7.848 -2.4894 -0.0037  1.3147
19221SOL    HW261162   7.785   5.322   7.734  1.5727 -0.1600 -0.0702
19222SOL     OW61163   1.079   3.707   4.343 -0.0655 -0.5473 -0.2437
19222SOL    HW161164   0.995   3.744   4.371 -0.3412 -0.0685 -1.6016
19222SOL    HW261165   1.061   3.670   4.256  1.3044  0.3999 -0.9811
19223SOL     OW61166   9.715   1.583   0.408 -0.6567  0.0210 -0.1284
19223SOL    HW161167   9.715   1.664   0.458  0.7702 -0.1760  0.2317
19223SOL    HW261168   9.622   1.564   0.393 -1.2222 -0.4322  3.2442
19224SOL     OW61169   3.658   8.199   4.899  0.4749 -0.1692 -0.3198
19224SOL    HW161170   3.596   8.266   4.869  0.5433  0.3278  0.6168
19224SOL    HW261171   3.733   8.207   4.840 -0.0464 -0.2907 -1.0104
19225SOL     OW61172   4.022   3.923   7.534 -0.2213  0.2523  0.4209
19225SOL    HW161173   3.971   3.955   7.459 -0.2112  1.0442  0.7456
19225SOL    HW261174   3.960   3.870   7.584 -0.4700  0.4306  0.3041
19226SOL     OW61175   4.131   5.554  10.138 -0.3833  0.3537 -0.1607
19226SOL    HW161176   4.088   5.469  10.146  0.1535  0.1796  1.2639
19226SOL    HW261177   4.137   5.586  10.228  0.9529  1.1359 -0.4990
19227SOL     OW61178   0.768   0.577   1.973 -0.4625  0.4158  0.0617
19227SOL    HW161179   0.730   0.585   2.060  0.1627  0.8763  0.3017
19227SOL    HW261180   0.717   0.638   1.919 -0.6994  0.2984  0.1489
19228SOL     OW61181   2.934   4.061   2.688 -0.2251  0.4130  0.0819
19228SOL    HW161182   2.869   4.096   2.749 -1.3278  0.9290 -1.3351
19228SOL    HW261183   2.898   3.978   2.660  1.2762 -0.8458  1.6484
19229SOL     OW61184   4.697   0.176   0.685  0.1344 -0.0791 -0.0952
19229SOL    HW161185   4.704   0.162   0.591 -0.9453 -0.8533 -0.0764
19229SOL    HW261186   4.728   0.266   0.698 -1.5443  0.7550 -1.4598
19230SOL     OW61187   0.544   7.809   8.025  0.1450 -0.1585 -0.4832
19230SOL    HW161188   0.575   7.737   8.080  1.6555  0.5398 -0.3744
19230SOL    HW261189   0.548   7.774   7.935  2.5395  0.2990 -0.6081
19231SOL     OW61190   7.232   1.524   6.459 -0.1372 -0.0910  0.4377
19231SOL    HW161191   7.250   1.489   6.372 -0.7962  1.7419 -0.4804
19231SOL    HW261192   7.220   1.446   6.514 -0.5093 -1.2993 -1.2782
19232SOL     OW61193   8.423   0.345   7.964 -0.2495 -0.1368 -0.1619
19232SOL    HW161194   8.445   0.282   8.033 -0.3407  0.4652  0.4225
19232SOL    HW261195   8.333   0.372   7.984  0.3094  1.3163  0.4861
19233SOL     OW61196   8.185   5.252  10.134 -0.0574  0.1993  0.0916
19233SOL    HW161197   8.133   5.172  10.146 -0.4234  0.7261  2.4365
19233SOL    HW261198   8.133   5.321  10.175  0.2879  1.6893 -1.8195
19234SOL     OW61199   7.371  10.337   5.463  0.2682  0.5937 -0.2770
19234SOL    HW161200   7.452  10.364   5.506  0.3178 -0.9401  0.6856
19234SOL    HW261201   7.400  10.286   5.387  0.1759  2.8715 -1.9250
19235SOL     OW61202   7.061   7.718   6.168  0.3022 -0.1082  0.5175
19235SOL    HW161203   7.124   7.784   6.140  0.4055 -0.5810 -0.4221
19235SOL    HW261204   7.115   7.639   6.183 -0.2007 -0.9939 -1.8954
19236SOL     OW61205   4.501   5.780   2.426 -0.1265  0.3941  0.0697
19236SOL    HW161206   4.557   5.789   2.502  1.9713 -1.6888 -1.0796
19236SOL    HW261207   4.555   5.811   2.353  0.1292 -2.7295 -1.2225
19237SOL     OW61208   8.860   6.647   3.566  0.4692  0.3574  0.2312
19237SOL    HW161209   8.852   6.713   3.636 -0.7266 -2.0094  2.5017
19237SOL    HW261210   8.790   6.668   3.505  0.3857  1.4086  0.6532
19238SOL     OW61211   0.159   2.844   5.855  0.3453 -0.2668 -0.1541
19238SOL    HW161212   0.132   2.922   5.905  0.1880 -0.7306  0.5084
19238SOL    HW261213   0.120   2.771   5.903 -1.7375 -0.6194 -2.2059
19239SOL     OW61214   1.628   3.754   8.585 -0.3331 -0.3986  0.7654
19239SOL    HW161215   1.707   3.715   8.621 -0.1606 -0.2794  0.5144
19239SOL    HW261216   1.599   3.817   8.651  0.7083  0.7779  0.1315
19240SOL     OW61217   2.455   9.552   2.264  0.2948  0.6168  0.5759
19240SOL    HW161218   2.369   9.582   2.235 -0.5663 -0.5490  1.8058
19240SOL    HW261219   2.516   9.583   2.197 -1.0025  1.9449 -0.0276
19241SOL     OW61220   8.792   2.062   7.638  0.4668 -0.2950 -0.7889
19241SOL    HW161221   8.880   2.048   7.672  1.0567 -0.4537 -2.3251
19241SOL    HW261222   8.798   2.143   7.588  0.1626 -1.1017 -2.1971
19242SOL     OW61223   7.155   2.174   4.752 -0.0367 -0.6165 -0.3683
19242SOL    HW161224   7.185   2.247   4.698  0.0318 -1.4179 -1.4504
19242SOL    HW261225   7.175   2.096   4.700  0.9189 -1.4900  1.2307
19243SOL     OW61226   2.733   6.104   3.990  0.2413 -0.1021 -0.4987
19243SOL    HW161227   2.805   6.162   3.967 -0.5763  1.6221  1.0649
19243SOL    HW261228   2.654   6.151   3.964 -0.4115 -1.0131 -0.2382
19244SOL     OW61229   1.398   7.291   4.061  0.0807 -0.0162 -0.0095
19244SOL    HW161230   1.407   7.311   4.154  1.6488  1.0602 -0.3574
19244SOL    HW261231   1.379   7.197   4.058 -1.9902  0.2951  1.4484
19245SOL     OW61232  10.888   7.295   3.414  0.4728 -0.3229  0.0165
19245SOL    HW161233  10.825   7.294   3.342 -0.0661 -0.4220  0.4803
19245SOL    HW261234  10.865   7.372   3.466  2.1289  0.9150 -1.0055
19246SOL     OW61235   3.504   6.307   6.061  0.0618  0.5651  0.1599
19246SOL    HW161236   3.567   6.364   6.016 -1.2501  2.6158  0.7480
19246SOL    HW261237   3.449   6.273   5.991 -0.0150  1.1987 -0.1013
19247SOL     OW61238   1.534  10.814   2.888 -0.1859  0.7354 -0.2358
19247SOL    HW161239   1.460  10.855   2.842  0.3937  1.4649 -0.5436
19247SOL    HW261240   1.590  10.782   2.818  1.8799  3.9160 -0.2019
19248SOL     OW61241   7.055   2.173   3.323 -0.4503  0.1651 -0.5813
19248SOL    HW161242   6.976   2.166   3.270 -1.3093 -2.9724  0.8981
19248SOL    HW261243   7.024   2.175   3.413  1.1068 -0.5427  0.0191
19249SOL     OW61244   6.332   9.862   8.450  0.3497  0.1380  0.7456
19249SOL    HW161245   6.387   9.836   8.375 -1.8129  1.0987 -1.2998
19249SOL    HW261246   6.290   9.782   8.479 -0.2574  0.0336 -0.3689
19250SOL     OW61247   8.588   9.024   8.097 -0.2275  0.2993  0.0902
19250SOL    HW161248   8.574   8.940   8.053 -1.2496  0.0728  0.8183
19250SOL    HW261249   8.674   9.015   8.139  0.2628  0.1189 -0.9205
19251SOL     OW61250   4.910   0.310   6.279  0.4203 -0.2096 -0.5002
19251SOL    HW161251   4.978   0.248   6.250  0.2099 -1.1214  0.8450
19251SOL    HW261252   4.959   0.386   6.308  1.0678 -1.4162  1.8401
19252SOL     OW61253   5.294   5.161   4.555  0.4307 -0.7521 -0.4469
19252SOL    HW161254   5.301   5.215   4.477  0.3410  0.6118  0.4498
19252SOL    HW261255   5.222   5.201   4.605  2.4783  0.4299  1.7984
19253SOL     OW61256   8.704   3.969   0.806 -0.1578 -0.1418  0.1413
19253SOL    HW161257   8.775   4.019   0.845 -0.4701  0.3348  0.1104
19253SOL    HW261258   8.694   3.893   0.863 -1.0929  0.9064  1.4328
19254SOL     OW61259   8.105   5.131   8.756  0.1952 -0.1067 -0.4233
19254SOL    HW161260   8.178   5.096   8.808 -0.1210  0.8682  0.7302
19254SOL    HW261261   8.028   5.086   8.792 -0.1038  1.0453  0.4471
19255SOL     OW61262   6.274   8.619  10.790  0.3384 -0.2543  0.2882
19255SOL    HW161263   6.220   8.663  10.724  0.9906  0.7691  0.4145
19255SOL    HW261264   6.230   8.535  10.805 -0.2027 -0.2128 -0.9342
19256SOL     OW61265  10.712   3.351   6.885  0.5653  0.7909 -0.4589
19256SOL    HW161266  10.689   3.415   6.952 -1.5038  0.1406 -0.4641
19256SOL    HW261267  10.729   3.403   6.807  0.2226  1.4107 -0.1272
19257SOL     OW61268  10.231   2.171   5.988 -0.9673  0.3157 -0.1972
19257SOL    HW161269  10.316   2.216   5.986 -0.4642 -0.6366 -0.3925
19257SOL    HW261270  10.210   2.165   6.081 -1.0398  0.9435 -0.1669
19258SOL     OW61271   7.464   5.598   1.089  0.0491 -0.4259 -0.5251
19258SOL    HW161272   7.498   5.677   1.131  0.9730 -0.8337 -0.4826
19258SOL    HW261273   7.542   5.548   1.065 -0.5236 -1.4127 -0.3927
19259SOL     OW61274   6.584   8.773   9.954  0.4137  0.7409  0.1901
19259SOL    HW161275   6.577   8.704   9.888  0.9361  2.0783 -1.3281
19259SOL    HW261276   6.513   8.755  10.016  0.1511 -0.7745 -0.5137
19260SOL     OW61277   9.923   1.265   8.450 -0.2769  0.6798 -0.1338
19260SOL    HW161278   9.879   1.276   8.366 -1.1293  0.1184  0.2161
19260SOL    HW261279   9.867   1.310   8.513  0.6479  1.5832  0.0665
19261SOL     OW61280   9.478   9.271   7.243 -0.0060 -0.3062  0.6233
19261SOL    HW161281   9.421   9.314   7.307  1.2281 -0.3313  1.7754
19261SOL    HW261282   9.549   9.234   7.295  0.3742 -1.4297 -0.6402
19262SOL     OW61283   9.925   3.566   7.588 -0.0586  0.5192 -0.0764
19262SOL    HW161284   9.844   3.553   7.637 -1.8075  0.3974 -2.7538
19262SOL    HW261285   9.941   3.480   7.548  0.9538  0.7681 -0.2152
19263SOL     OW61286   8.450   9.257   3.014  0.3894  0.2509  0.1666
19263SOL    HW161287   8.504   9.268   2.936 -0.2191  1.2769 -0.1364
19263SOL    HW261288   8.402   9.176   2.999 -0.2255  0.7782 -0.8606
19264SOL     OW61289   5.250   4.899   0.290  0.1449 -0.1493 -0.1974
19264SOL    HW161290   5.288   4.871   0.207  1.6309 -0.1693  0.4692
19264SOL    HW261291   5.220   4.988   0.273 -0.9602 -0.6788 -1.1728
19265SOL     OW61292  10.494   9.444  10.781 -1.0303  0.6430 -0.2274
19265SOL    HW161293  10.498   9.378  10.851 -0.4482  0.1256 -0.7299
19265SOL    HW261294  10.498   9.528  10.826  0.9202  0.3073  0.2914
19266SOL     OW61295   7.813   1.406   7.448  0.0433  0.2931  0.0923
19266SOL    HW161296   7.777   1.397   7.360  1.2735 -2.5524 -0.2153
19266SOL    HW261297   7.815   1.501   7.463 -1.4662  0.8037 -2.3637
19267SOL     OW61298   7.068   1.911   2.307 -0.0321 -0.1879  0.9845
19267SOL    HW161299   7.059   1.959   2.389 -4.3699 -0.3138  0.8364
19267SOL    HW261300   7.051   1.975   2.239 -1.6082 -1.0221  0.5473
19268SOL     OW61301   8.699   4.716   7.682  0.6049 -0.1737 -0.6133
19268SOL    HW161302   8.717   4.768   7.761  0.1965  0.5901 -1.0065
19268SOL    HW261303   8.756   4.754   7.615  0.9411 -0.8104 -0.6984
19269SOL     OW61304   9.231   1.538   7.621  0.4219  0.1196  0.1298
19269SOL    HW161305   9.241   1.482   7.543 -1.8149  0.4590 -0.4829
19269SOL    HW261306   9.142   1.520   7.652  0.7793  1.0213  1.8188
19270SOL     OW61307   0.676   3.599   1.908  0.4531 -0.1372 -0.0526
19270SOL    HW161308   0.591   3.629   1.875 -0.5313 -0.4157  2.0559
19270SOL    HW261309   0.677   3.627   2.000  3.0233  0.5903 -0.2152
19271SOL     OW61310   3.425   3.120   8.106  0.0080 -0.2370 -0.5008
19271SOL    HW161311   3.448   3.126   8.013 -0.1474 -1.6770 -0.6553
19271SOL    HW261312   3.509   3.126   8.151  0.4248 -2.1806 -0.9031
19272SOL     OW61313   4.628   7.510   0.805 -0.3107  0.3955  0.1910
19272SOL    HW161314   4.592   7.598   0.813  0.6286  0.6959  1.5421
19272SOL    HW261315   4.720   7.524   0.781  1.1017  0.1019  4.5620
19273SOL     OW61316   5.280   0.649   7.703  0.4286 -0.4062  0.3425
19273SOL    HW161317   5.246   0.628   7.616 -1.8835  0.7632  0.8795
19273SOL    HW261318   5.209   0.623   7.763  0.3547  2.2317  1.5424
19274SOL     OW61319   6.158  10.129   7.025  0.3785 -0.0520 -0.5903
19274SOL    HW161320   6.114  10.203   7.067 -0.1502 -0.0717 -1.1056
19274SOL    HW261321   6.233  10.111   7.082 -0.8205 -0.6540  0.8521
19275SOL     OW61322   8.897   6.871   1.592 -0.2120  0.0041 -0.4067
19275SOL    HW161323   8.985   6.849   1.620 -0.4750 -0.3432  0.1593
19275SOL    HW261324   8.884   6.961   1.620  0.2738  0.3560 -1.2737
19276SOL     OW61325   3.869   9.440   6.073  0.3514 -0.2190  0.7084
19276SOL    HW161326   3.917   9.523   6.073  1.7614 -0.9496 -1.0273
19276SOL    HW261327   3.777   9.464   6.063  0.6446  1.1479  1.1726
19277SOL     OW61328   5.378   6.064   2.447  0.1195  0.5471 -0.0718
19277SOL    HW161329   5.328   6.089   2.369 -0.0048  0.1950 -0.1051
19277SOL    HW261330   5.384   6.145   2.498 -0.4852  0.5923 -0.0677
19278SOL     OW61331   9.388   9.353   0.299 -0.0772  0.8929 -0.0024
19278SOL    HW161332   9.455   9.418   0.279  0.2574  0.2055 -1.1911
19278SOL    HW261333   9.308   9.404   0.311  0.4925  1.6537  0.6757
19279SOL     OW61334   3.084   4.561   5.839  0.5341 -0.1215 -0.3788
19279SOL    HW161335   3.150   4.554   5.771  0.5153  0.2426 -0.4374
19279SOL    HW261336   3.002   4.572   5.792  0.6626  1.4046 -0.3123
19280SOL     OW61337   0.455   0.687   5.542  0.2575 -0.4089  0.4096
19280SOL    HW161338   0.382   0.692   5.604  0.2452  1.3233  0.2949
19280SOL    HW261339   0.520   0.748   5.577  1.6719 -1.9054  0.4929
19281SOL     OW61340   9.878   3.995   8.836 -0.4173  0.7873  0.0790
19281SOL    HW161341   9.946   4.055   8.870  0.0261  0.0411  0.5332
19281SOL    HW261342   9.897   3.989   8.743  0.1203  0.6230  0.1938
19282SOL     OW61343   1.757   7.690   9.806 -0.0120 -0.4150 -0.1140
19282SOL    HW161344   1.699   7.614   9.820 -0.0491 -0.4369 -0.3818
19282SOL    HW261345   1.723   7.732   9.727  1.0681 -1.1315 -1.0101
19283SOL     OW61346   2.912   5.459   6.002 -0.4470  0.2626  0.1366
19283SOL    HW161347   2.986   5.467   5.943 -0.0899 -1.3498  0.3157
19283SOL    HW261348   2.850   5.525   5.973  0.7652  1.1651 -0.4530
19284SOL     OW61349   6.215   5.381  10.358  0.0284  0.0298 -0.2760
19284SOL    HW161350   6.128   5.345  10.342  0.5068 -1.8681  0.9574
19284SOL    HW261351   6.211   5.416  10.447  1.0812 -2.2185  0.7404
19285SOL     OW61352   2.605   4.000   9.301  0.2538 -0.1927  0.5521
19285SOL    HW161353   2.600   4.079   9.354 -0.7831 -0.3592  0.7462
19285SOL    HW261354   2.526   3.951   9.325  0.4322 -0.8759 -0.1975
19286SOL     OW61355   0.292   4.278   7.105 -0.0281 -0.2112 -0.2815
19286SOL    HW161356   0.210   4.279   7.056  0.3753 -1.2770 -1.0241
19286SOL    HW261357   0.313   4.370   7.120 -0.9326  0.0872 -0.7976
19287SOL     OW61358   8.491   4.727  10.820  0.1540 -0.0532  0.2027
19287SOL    HW161359   8.399   4.738  10.795 -0.2411 -0.6081  1.3353
19287SOL    HW261360   8.504   4.789  10.892  0.0386 -1.4813  1.4990
19288SOL     OW61361   7.803   8.567   1.283  0.2378 -0.2951 -0.6170
19288SOL    HW161362   7.868   8.555   1.213  1.7596 -1.0706  0.8400
19288SOL    HW261363   7.855   8.567   1.363 -1.3438  1.5348  0.4855
19289SOL     OW61364   8.887   4.302   9.563 -0.3190 -0.0692  0.1437
19289SOL    HW161365   8.928   4.223   9.599  0.4976  0.6681  0.8962
19289SOL    HW261366   8.948   4.332   9.496 -0.6244 -0.0762 -0.1386
19290SOL     OW61367   6.820   0.508   8.314 -0.2921 -0.2422  0.0891
19290SOL    HW161368   6.782   0.483   8.230 -0.1232 -0.2697  0.0196
19290SOL    HW261369   6.754   0.564   8.355 -0.3837 -0.2455 -0.0533
19291SOL     OW61370   3.271   6.365   7.893 -0.1509  0.2710 -0.1535
19291SOL    HW161371   3.288   6.419   7.816 -0.1121  1.1476  0.4655
19291SOL    HW261372   3.213   6.418   7.947 -0.0353 -0.2705  0.5074
19292SOL     OW61373   4.864   8.908   1.236  0.5541 -0.2207 -0.5457
19292SOL    HW161374   4.831   8.952   1.158  2.5844  0.2683 -1.1916
19292SOL    HW261375   4.803   8.934   1.306 -0.7369  0.1187 -1.7438
19293SOL     OW61376   7.199   8.552   5.964  0.3955 -0.3059  0.5615
19293SOL    HW161377   7.105   8.558   5.946  0.3035 -1.9512  0.3070
19293SOL    HW261378   7.214   8.459   5.978  2.2331 -0.2621 -0.7830
19294SOL     OW61379   8.267   5.145  10.786 -0.7517 -0.3931  0.0732
19294SOL    HW161380   8.186   5.094  10.778 -0.9345 -0.3710  1.4750
19294SOL    HW261381   8.330   5.097  10.733 -1.8781  0.0612 -1.7397
19295SOL     OW61382   2.700   6.685   6.543 -0.3060 -0.0826 -0.2725
19295SOL    HW161383   2.710   6.590   6.551 -1.6916 -0.4501 -2.2661
19295SOL    HW261384   2.790   6.718   6.541  0.2237 -1.1290  1.9948
19296SOL     OW61385   2.218   3.071   1.163 -0.6884  0.1797 -0.0758
19296SOL    HW161386   2.195   2.978   1.166  0.9367 -0.2268  0.9045
19296SOL    HW261387   2.237   3.094   1.254 -1.0305  1.4805 -0.3094
19297SOL     OW61388   0.591   4.138   8.033 -0.4510 -0.3150  0.3778
19297SOL    HW161389   0.561   4.168   8.119  0.3148  1.6223  0.0317
19297SOL    HW261390   0.520   4.164   7.973 -0.0137  0.3471  0.1410
19298SOL     OW61391   8.412   2.992   3.530 -0.3389 -0.1351  0.5320
19298SOL    HW161392   8.462   3.001   3.612 -1.2871 -1.1334  1.2468
19298SOL    HW261393   8.438   2.906   3.497  0.7966  0.6761 -0.7683
19299SOL     OW61394   9.565   2.274   1.445 -0.0365  0.1557 -0.0528
19299SOL    HW161395   9.659   2.261   1.435 -0.2644 -0.5761 -1.6822
19299SOL    HW261396   9.549   2.264   1.538  1.2410 -1.8022  0.0253
19300SOL     OW61397   0.154   7.446   2.015  0.5079  0.5946 -0.0832
19300SOL    HW161398   0.086   7.411   2.072  0.7468 -0.6630 -0.5449
19300SOL    HW261399   0.152   7.540   2.030 -1.1161  0.5444  0.1345
19301SOL     OW61400   1.368   4.517   7.023 -0.7508 -0.1114 -0.0675
19301SOL    HW161401   1.306   4.587   7.003 -0.9814  0.1535  1.4090
19301SOL    HW261402   1.340   4.443   6.970 -1.5284  0.4132 -0.3959
19302SOL     OW61403   4.826   3.805   3.082  0.5304 -0.0154  0.4834
19302SOL    HW161404   4.842   3.866   3.154  0.5858 -0.4723  0.8628
19302SOL    HW261405   4.880   3.729   3.103 -0.5508 -0.7463  0.7252
19303SOL     OW61406   0.187   5.604   2.470  0.2010  0.2990  0.0587
19303SOL    HW161407   0.258   5.612   2.534  0.2556 -0.0621  0.0462
19303SOL    HW261408   0.109   5.635   2.516  0.1249 -0.5403  0.5083
19304SOL     OW61409   2.625   1.584   5.199  0.5723  0.2329 -0.5256
19304SOL    HW161410   2.574   1.658   5.167  0.7391  0.8832  0.6672
19304SOL    HW261411   2.583   1.559   5.281  0.9949 -0.4961 -0.5159
19305SOL     OW61412   2.508  10.405   2.093 -0.0958  0.4728  0.3652
19305SOL    HW161413   2.510  10.431   2.185 -0.3222 -1.9723  1.1395
19305SOL    HW261414   2.597  10.376   2.075 -0.0103  1.1023 -0.2523
19306SOL     OW61415   8.968   6.249   1.362 -0.2209 -0.3499 -0.3111
19306SOL    HW161416   8.954   6.170   1.413  0.1175 -0.4507 -0.3746
19306SOL    HW261417   8.885   6.297   1.369 -0.2728 -0.4985  0.0898
19307SOL     OW61418   8.224   6.315   5.561 -0.3553  0.0019 -0.0518
19307SOL    HW161419   8.170   6.394   5.551  0.6981  0.7082 -0.3877
19307SOL    HW261420   8.313   6.349   5.571  0.5179 -1.1888 -2.8032
19308SOL     OW61421   2.436   6.843   9.455 -0.2409 -0.0426 -0.4215
19308SOL    HW161422   2.464   6.932   9.430  0.7340 -0.3460 -0.4700
19308SOL    HW261423   2.392   6.809   9.378 -0.0613  0.1725 -0.6207
19309SOL     OW61424   9.880   6.405   3.472  0.1618 -0.9006 -0.0852
19309SOL    HW161425   9.935   6.475   3.508  1.2812 -1.6725 -0.2621
19309SOL    HW261426   9.801   6.406   3.527  1.0455 -0.8497  1.2238
19310SOL     OW61427   1.242   4.055   2.301 -0.0952 -0.0875  0.0564
19310SOL    HW161428   1.266   4.036   2.210 -0.5609  0.1949 -0.1281
19310SOL    HW261429   1.313   4.017   2.353 -0.2297 -0.9722 -0.3818
19311SOL     OW61430   2.180   8.554  10.117  0.5776 -0.7799  0.1108
19311SOL    HW161431   2.245   8.507  10.170  0.1027 -0.3925  1.0674
19311SOL    HW261432   2.213   8.643  10.112  0.5987 -0.8037 -0.2322
19312SOL     OW61433   6.049   5.957   3.779 -0.6413 -0.2792  0.3751
19312SOL    HW161434   6.120   5.952   3.714 -0.7895  0.6673  0.1187
19312SOL    HW261435   6.015   6.046   3.769 -2.0617 -0.8101  0.2897
19313SOL     OW61436   6.386   2.366   5.061 -0.3939  0.2051 -0.3594
19313SOL    HW161437   6.367   2.351   5.154  0.9416  1.1808  0.0950
19313SOL    HW261438   6.445   2.442   5.060  0.4247 -0.4079 -1.9334
19314SOL     OW61439  10.627   2.365   3.289 -0.0474 -0.1632 -1.2412
19314SOL    HW161440  10.584   2.404   3.365  0.8390 -0.8435 -0.3557
19314SOL    HW261441  10.709   2.415   3.280  1.5013 -2.2206  0.4148
19315SOL     OW61442   2.804   1.263   2.152  0.8744 -0.5465 -0.5415
19315SOL    HW161443   2.746   1.200   2.109 -0.2205  0.3119 -0.3525
19315SOL    HW261444   2.765   1.348   2.134  0.2473 -0.1523  2.2656
19316SOL     OW61445   2.403   3.685   4.581  0.2241 -0.2958 -0.2385
19316SOL    HW161446   2.480   3.666   4.528  1.7977  1.3990  1.2853
19316SOL    HW261447   2.362   3.761   4.539  0.8749  0.3888  0.3265
19317SOL     OW61448   6.553   1.189  10.189  0.1282 -0.5741 -0.4690
19317SOL    HW161449   6.646   1.171  10.192  0.2180 -0.2151 -0.9430
19317SOL    HW261450   6.545   1.267  10.134 -0.2909  0.4648  0.9858
19318SOL     OW61451   3.051   7.184   8.069  0.0911  0.6092  0.0568
19318SOL    HW161452   3.052   7.128   8.146 -1.0866  1.3593  0.6549
19318SOL    HW261453   3.129   7.238   8.076  0.4907  0.0223  0.2061
19319SOL     OW61454   3.015   5.292   3.260 -0.6150  0.4134 -0.1398
19319SOL    HW161455   3.056   5.212   3.290 -2.0758 -0.9896 -1.6894
19319SOL    HW261456   2.941   5.306   3.319 -0.4602  0.5494  0.0255
19320SOL     OW61457   2.845   7.476   6.210  0.4954 -0.4902 -0.3457
19320SOL    HW161458   2.851   7.572   6.215 -1.1756 -0.3959  0.6933
19320SOL    HW261459   2.868   7.455   6.120  0.5225  0.9299 -0.6950
19321SOL     OW61460   1.826   2.587   6.575 -0.7223  0.1084  0.0482
19321SOL    HW161461   1.811   2.520   6.642 -1.0743 -0.1532 -0.2858
19321SOL    HW261462   1.833   2.669   6.624  1.3697 -0.3509  0.6133
19322SOL     OW61463   1.478   5.352   3.216  0.4586 -0.3582  0.6916
19322SOL    HW161464   1.399   5.397   3.246  1.4269  0.8730  1.5234
19322SOL    HW261465   1.501   5.294   3.288 -0.5115 -1.8945 -0.1818
19323SOL     OW61466   9.251   0.384   6.818  0.6471 -1.0762 -0.3518
19323SOL    HW161467   9.225   0.476   6.819  0.5165 -1.1182  0.0844
19323SOL    HW261468   9.183   0.339   6.868  0.4620 -1.4817 -0.9534
19324SOL     OW61469   0.204   2.277   8.745  0.4888  0.3156  0.5732
19324SOL    HW161470   0.120   2.261   8.702 -0.5755  1.5001  2.0700
19324SOL    HW261471   0.227   2.194   8.785 -0.1263  0.0440  0.3696
19325SOL     OW61472  10.810   5.403  10.906 -0.5361  0.2864  0.2437
19325SOL    HW161473  10.867   5.332  10.935  2.2008  0.7932 -3.2351
19325SOL    HW261474  10.831   5.476  10.965  0.0371 -0.4450  0.9710
19326SOL     OW61475   3.160   5.357   7.942 -0.2052 -0.5236  0.1910
19326SOL    HW161476   3.129   5.278   7.987  1.8246 -1.5784 -0.1570
19326SOL    HW261477   3.235   5.386   7.994  0.6927 -0.3614 -1.1665
19327SOL     OW61478   5.132   6.228  10.358 -0.3502  0.3655 -0.4949
19327SOL    HW161479   5.199   6.297  10.361  0.7963 -0.6549 -1.3097
19327SOL    HW261480   5.056   6.270  10.320  0.7613  0.8751 -2.2710
19328SOL     OW61481   7.231   7.823   9.283  0.4479 -0.4170  0.2482
19328SOL    HW161482   7.257   7.788   9.198 -0.6854 -1.6158  0.3566
19328SOL    HW261483   7.168   7.759   9.317  0.5337  0.2640  1.7919
19329SOL     OW61484   0.071   8.196   1.608  0.2953  0.4317  0.8907
19329SOL    HW161485  -0.004   8.248   1.576 -0.0976 -0.1858  0.8007
19329SOL    HW261486   0.147   8.253   1.593  0.1467  0.1250 -1.2815
19330SOL     OW61487   0.323   4.028   7.681 -0.2153  0.0211  0.6527
19330SOL    HW161488   0.346   4.094   7.615  1.2141  0.3055  1.4083
19330SOL    HW261489   0.376   3.952   7.659 -1.6598 -0.8290 -0.0469
19331SOL     OW61490   0.242   5.663   4.158  0.3103 -0.2769 -0.2566
19331SOL    HW161491   0.206   5.742   4.197  0.8563  0.3740 -1.0349
19331SOL    HW261492   0.289   5.620   4.229  0.2558  0.2488  0.1044
19332SOL     OW61493   5.283   9.607   9.477  0.3188 -0.1537 -0.3917
19332SOL    HW161494   5.365   9.601   9.428 -0.4232 -2.9898 -1.4949
19332SOL    HW261495   5.308   9.590   9.568  1.1218  0.5942 -0.4579
19333SOL     OW61496   3.710   0.294   4.820 -0.2523  0.1804  0.1932
19333SOL    HW161497   3.775   0.239   4.864 -0.7359 -0.2641  0.3642
19333SOL    HW261498   3.705   0.373   4.874 -0.8974 -0.3922  1.0099
19334SOL     OW61499   9.700   7.345   5.308 -0.4027 -0.4190  0.1919
19334SOL    HW161500   9.706   7.336   5.213  0.2600 -0.3255  0.2260
19334SOL    HW261501   9.607   7.365   5.324 -0.1863  1.4390 -0.5959
19335SOL     OW61502   0.711   7.223   7.078 -0.1254  0.0636 -0.1275
19335SOL    HW161503   0.695   7.128   7.073 -0.8601  0.2212 -0.9866
19335SOL    HW261504   0.664   7.251   7.157  0.6024 -0.3711  0.4784
19336SOL     OW61505   8.507   2.889   8.456  0.8594 -0.0856 -0.0725
19336SOL    HW161506   8.477   2.957   8.395  0.7387  0.5335  0.6586
19336SOL    HW261507   8.580   2.847   8.411  0.6739  0.2557 -0.7098
19337SOL     OW61508   0.881   0.330   2.795  0.5486 -0.1222 -0.7387
19337SOL    HW161509   0.899   0.292   2.881  1.4219  1.1539 -0.3260
19337SOL    HW261510   0.790   0.305   2.776  0.2463 -0.1797  0.6973
19338SOL     OW61511   4.496   5.360   1.920  0.2644 -0.4800 -0.5050
19338SOL    HW161512   4.531   5.298   1.985  0.4388 -1.0887 -1.1661
19338SOL    HW261513   4.403   5.366   1.941  0.1220 -1.4449 -0.8065
19339SOL     OW61514  10.648   1.012   3.502 -0.5128  0.2785 -0.4309
19339SOL    HW161515  10.580   1.033   3.565 -0.3675  0.7675 -0.4288
19339SOL    HW261516  10.654   1.090   3.446 -0.4522 -0.0388 -0.8773
19340SOL     OW61517   0.314  10.133   1.425  0.7078  0.4399 -0.6266
19340SOL    HW161518   0.230  10.089   1.439  0.6077  0.9119  0.3539
19340SOL    HW261519   0.377  10.062   1.412  0.1541  0.0808 -1.4774
19341SOL     OW61520   9.544   0.334   0.055  0.3292  0.0978 -0.0348
19341SOL    HW161521   9.567   0.301   0.142  0.4196 -0.2699 -0.1991
19341SOL    HW261522   9.624   0.375   0.023 -0.3986  2.7103  1.1692
19342SOL     OW61523   3.700   9.528   1.670 -0.0810  0.2959  0.4359
19342SOL    HW161524   3.724   9.492   1.755  0.0581  1.4454  0.8949
19342SOL    HW261525   3.694   9.622   1.684 -1.7913  0.3590 -0.3994
19343SOL     OW61526   6.496   8.444   9.316 -0.2377 -0.4455  0.1057
19343SOL    HW161527   6.507   8.447   9.221  1.5298 -0.2150  0.2898
19343SOL    HW261528   6.424   8.382   9.330 -1.6135  0.6904 -1.4327
19344SOL     OW61529   1.162   2.209   6.808 -0.2561 -0.4348  0.1194
19344SOL    HW161530   1.083   2.233   6.857  0.6368 -0.7018  1.7783
19344SOL    HW261531   1.220   2.171   6.874  2.0186  1.4321 -0.6764
19345SOL     OW61532   6.472   3.676   6.143 -0.2885 -0.0882  0.5672
19345SOL    HW161533   6.438   3.715   6.062 -2.7625 -2.3446  0.3963
19345SOL    HW261534   6.482   3.751   6.203  1.4048  1.6140 -1.6474
19346SOL     OW61535   0.497   9.056   1.299  0.0269  0.4793  0.2939
19346SOL    HW161536   0.483   9.112   1.222  0.5057 -0.4518 -0.4930
19346SOL    HW261537   0.468   9.109   1.373 -1.4665  1.0015 -0.6268
19347SOL     OW61538   1.406   0.498   2.672 -0.4094 -0.4328 -0.1142
19347SOL    HW161539   1.425   0.574   2.727  0.8708 -1.0549  0.3645
19347SOL    HW261540   1.316   0.474   2.695 -0.4664  0.3150  0.4979
19348SOL     OW61541  10.666   6.436   1.746  0.1533 -0.0572 -0.8232
19348SOL    HW161542  10.649   6.366   1.809 -0.1215 -0.4251 -1.2982
19348SOL    HW261543  10.625   6.514   1.783 -0.6389 -0.4380 -0.8945
19349SOL     OW61544   5.855   6.967   4.461  0.0975 -0.4599  0.5076
19349SOL    HW161545   5.795   7.041   4.453  0.8774  0.3092  1.5126
19349SOL    HW261546   5.882   6.948   4.372 -1.4739 -0.7030  0.0492
19350SOL     OW61547  10.888   5.593   4.918 -0.1767 -0.2030 -0.0604
19350SOL    HW161548  10.957   5.573   4.981  0.0551 -1.1017 -0.5713
19350SOL    HW261549  10.924   5.564   4.834 -0.4982  0.9173 -0.6118
19351SOL     OW61550   4.996   4.099   8.595 -0.0553  0.8051  0.0002
19351SOL    HW161551   5.021   4.178   8.548 -0.3887  0.8594 -0.0883
19351SOL    HW261552   5.077   4.069   8.638  0.4920  0.2007 -1.4056
19352SOL     OW61553  10.458  10.951   9.245 -0.0970  0.6070 -0.2129
19352SOL    HW161554  10.420  10.995   9.169  1.9557 -0.6574 -2.0649
19352SOL    HW261555  10.541  10.995   9.260 -0.4592  0.8315  1.3444
19353SOL     OW61556   1.060   4.747   1.071  0.0539 -0.1677  0.2465
19353SOL    HW161557   0.980   4.766   1.119 -0.1924 -0.3440 -0.0851
19353SOL    HW261558   1.128   4.739   1.138 -0.5791 -2.0322  0.7173
19354SOL     OW61559   5.741   3.122   7.389 -0.0867 -0.3785  0.0692
19354SOL    HW161560   5.740   3.195   7.451 -0.3234  2.0346 -2.5818
19354SOL    HW261561   5.832   3.093   7.388 -0.0002 -0.2236  1.1997
19355SOL     OW61562   0.070   9.089   5.767 -0.0843 -0.1610 -0.2473
19355SOL    HW161563   0.153   9.083   5.720 -0.7797  0.3262 -1.5756
19355SOL    HW261564   0.030   9.002   5.756  0.2968 -0.4405  0.5102
19356SOL     OW61565   8.070   2.899   1.717  0.2217 -0.2792  0.0110
19356SOL    HW161566   8.064   2.911   1.622 -0.4669 -0.5995  0.0041
19356SOL    HW261567   8.006   2.960   1.753  1.1624  0.5308  0.3320
19357SOL     OW61568   9.305  10.462   4.074 -0.2303  0.2128  0.4676
19357SOL    HW161569   9.249  10.539   4.084 -0.1472  0.1464  1.5117
19357SOL    HW261570   9.394  10.496   4.081 -0.1787  0.1049  0.3354
19358SOL     OW61571   1.359   8.563   7.528 -0.2702  0.0162 -0.5340
19358SOL    HW161572   1.450   8.546   7.553 -0.6071 -0.3951  0.5038
19358SOL    HW261573   1.307   8.514   7.593 -1.2448  1.5594 -0.0991
19359SOL     OW61574   0.089  10.230   2.786 -0.0648 -0.5342  0.5037
19359SOL    HW161575   0.129  10.267   2.707  0.3614 -1.5455  0.2378
19359SOL    HW261576   0.012  10.284   2.801 -1.0947 -1.3411 -1.5577
19360SOL     OW61577   5.991   5.604   7.270 -0.5071  0.3875 -0.3491
19360SOL    HW161578   5.986   5.610   7.365 -1.6030  3.8007 -0.4794
19360SOL    HW261579   5.907   5.568   7.243  0.3795 -2.0666 -0.0470
19361SOL     OW61580   4.059   1.367   2.146 -0.0093 -0.2411 -0.4514
19361SOL    HW161581   4.067   1.409   2.061  1.0972 -0.1757 -0.3381
19361SOL    HW261582   4.049   1.439   2.208  1.8737 -0.0701 -0.2588
19362SOL     OW61583  10.593   7.642   7.508 -0.7187  0.1260  0.1671
19362SOL    HW161584  10.667   7.621   7.451 -0.9636  0.2981 -0.2200
19362SOL    HW261585  10.517   7.642   7.449 -0.9377  0.5541  0.4439
19363SOL     OW61586   1.530   5.058   4.533 -0.2133  0.0584  0.2500
19363SOL    HW161587   1.490   4.973   4.553 -0.0705  0.3671  1.9938
19363SOL    HW261588   1.474   5.096   4.466 -1.1585 -0.7644  0.5501
19364SOL     OW61589  10.714   6.405   7.212 -0.6179 -0.0324  0.0397
19364SOL    HW161590  10.740   6.494   7.188 -0.4241 -0.0099  0.3326
19364SOL    HW261591  10.713   6.405   7.308 -0.2215 -0.4601  0.0450
19365SOL     OW61592   2.525   7.064   3.378  0.0883 -0.1338 -0.9429
19365SOL    HW161593   2.457   7.026   3.433  0.6544  0.2767  0.0725
19365SOL    HW261594   2.571   6.988   3.341 -0.8550 -0.4089 -1.5782
19366SOL     OW61595   2.136   6.080   9.761  0.2204  0.5885 -0.7416
19366SOL    HW161596   2.108   6.158   9.809  0.1764 -0.5842  1.2454
19366SOL    HW261597   2.067   6.016   9.778  1.2705 -0.5295 -0.5652
19367SOL     OW61598   0.426   0.915   6.363 -0.1002 -0.4646  0.2220
19367SOL    HW161599   0.353   0.973   6.340 -0.7566 -0.5411  1.9490
19367SOL    HW261600   0.488   0.972   6.409 -0.2162 -0.8946  0.9188
19368SOL     OW61601   6.143   3.262  10.484 -0.1356 -0.1726  0.0288
19368SOL    HW161602   6.201   3.298  10.416 -1.1133 -2.0634 -1.9165
19368SOL    HW261603   6.057   3.256  10.442 -1.0565 -0.3787  1.8291
19369SOL     OW61604   4.807   8.741   2.523 -0.3059  0.4249 -0.2804
19369SOL    HW161605   4.769   8.722   2.438  1.4941 -0.1648 -1.0073
19369SOL    HW261606   4.747   8.700   2.586 -0.5627 -1.0183 -1.4009
19370SOL     OW61607   6.220   4.443   7.779 -0.2102 -0.1047 -0.2444
19370SOL    HW161608   6.143   4.387   7.787 -0.4206  0.2489  0.2481
19370SOL    HW261609   6.185   4.528   7.755 -0.1081  0.3980  1.2774
19371SOL     OW61610   4.196   1.175  10.625  0.1645  0.2629  0.1491
19371SOL    HW161611   4.183   1.088  10.588 -0.5889 -0.6800  2.4217
19371SOL    HW261612   4.251   1.221  10.562  1.4099 -2.1993 -0.6537
19372SOL     OW61613   4.023   0.420   8.597 -0.0710  0.4618  0.1393
19372SOL    HW161614   3.953   0.485   8.588 -0.4651  0.2057  1.2324
19372SOL    HW261615   3.979   0.336   8.592  0.3665  0.2617 -0.6693
19373SOL     OW61616   7.199   4.431  10.031  0.0971 -0.0740  0.4150
19373SOL    HW161617   7.133   4.492  10.066 -0.3414  1.5530 -2.8754
19373SOL    HW261618   7.224   4.469   9.947  4.6327 -1.1149  1.0258
19374SOL     OW61619   7.895   7.710   2.777 -0.1458  0.6023  0.0368
19374SOL    HW161620   7.830   7.734   2.843  0.6217  1.3672  0.5334
19374SOL    HW261621   7.966   7.670   2.827  0.3124  0.9162 -0.3503
19375SOL     OW61622   6.077   1.037   4.910 -0.0920  0.3116 -0.3888
19375SOL    HW161623   6.061   0.951   4.870  0.8567  0.2443 -0.6399
19375SOL    HW261624   6.152   1.072   4.862 -1.5563  2.0633 -1.5139
19376SOL     OW61625   9.514  10.125   7.607  0.0026 -0.6382 -0.0607
19376SOL    HW161626   9.428  10.161   7.627  0.6636  0.7086  0.4697
19376SOL    HW261627   9.501  10.030   7.606 -1.4173 -0.4671  0.2877
19377SOL     OW61628   8.950   6.125   3.197 -0.0489  0.1843  0.5107
19377SOL    HW161629   8.978   6.179   3.122 -1.6186 -0.1104 -0.3112
19377SOL    HW261630   8.928   6.040   3.159 -1.7069  0.2934  1.1594
19378SOL     OW61631   4.580   0.900   0.999  0.1109 -0.1866  0.1279
19378SOL    HW161632   4.554   0.986   0.967 -0.7297 -0.0912  1.0285
19378SOL    HW261633   4.654   0.918   1.057  0.8644 -0.2396 -0.7840
19379SOL     OW61634   1.774   7.817   8.876  0.1874  0.7202  0.1801
19379SOL    HW161635   1.835   7.877   8.920  1.1368  0.4789 -0.7586
19379SOL    HW261636   1.695   7.870   8.861  0.6458  1.4397  0.2646
19380SOL     OW61637   2.199   2.564  10.433  0.1838  1.1433 -0.2475
19380SOL    HW161638   2.271   2.612  10.393  1.1130 -0.4447 -0.5489
19380SOL    HW261639   2.201   2.589  10.525  1.4086  0.8011 -0.1642
19381SOL     OW61640   3.615   7.773   2.219  0.2340 -0.4064 -0.2949
19381SOL    HW161641   3.552   7.767   2.291  0.7379 -0.3100  0.1673
19381SOL    HW261642   3.694   7.730   2.253 -0.0692 -1.9363 -1.4350
19382SOL     OW61643   7.122   9.919   5.515  0.1898  0.3938  0.2658
19382SOL    HW161644   7.162   9.998   5.552 -0.9125  1.2064 -0.2157
19382SOL    HW261645   7.101   9.942   5.425 -0.5884 -0.2732  0.2601
19383SOL     OW61646   5.247   1.106   3.745  0.0348 -0.1487 -0.4762
19383SOL    HW161647   5.179   1.051   3.782  0.4820 -0.6842 -0.4238
19383SOL    HW261648   5.262   1.175   3.810  1.8812 -1.9232  1.1430
19384SOL     OW61649   9.982   7.533   2.722 -0.2336  0.2290  1.0142
19384SOL    HW161650   9.984   7.463   2.656  0.9050  0.2427  1.0185
19384SOL    HW261651   9.961   7.488   2.804 -1.9821  0.2535  0.6235
19385SOL     OW61652   9.756   5.054   8.573  0.4296 -0.0708  0.5205
19385SOL    HW161653   9.836   5.003   8.559  0.7220  0.6639 -0.6311
19385SOL    HW261654   9.685   4.993   8.551  0.6978 -0.4877  0.7867
19386SOL     OW61655   6.557  10.761   1.752  0.1827 -0.2462 -0.3941
19386SOL    HW161656   6.583  10.673   1.781  0.8577 -0.1030 -0.5353
19386SOL    HW261657   6.590  10.766   1.662 -2.0695 -0.7629 -1.3030
19387SOL     OW61658   6.676   3.787   0.157  0.3701 -0.0480  0.1610
19387SOL    HW161659   6.646   3.812   0.244 -0.6880  0.7052 -0.3980
19387SOL    HW261660   6.605   3.735   0.121  0.2535  0.6976 -0.7163
19388SOL     OW61661   9.634   7.036   7.030 -0.1114  0.3985  0.1182
19388SOL    HW161662   9.618   7.053   7.123 -2.1898 -0.3782 -0.0595
19388SOL    HW261663   9.669   7.119   6.997 -0.5997  1.1172  1.3234
19389SOL     OW61664   1.462   2.408   6.802 -0.1829  0.1049  0.0430
19389SOL    HW161665   1.387   2.397   6.743 -1.0393  1.1223  0.8840
19389SOL    HW261666   1.502   2.321   6.808 -0.1220 -0.0473 -1.9321
19390SOL     OW61667   1.461   9.375   1.141 -0.4550  0.2301  0.2494
19390SOL    HW161668   1.457   9.397   1.234  0.9808  0.3817  0.2878
19390SOL    HW261669   1.454   9.459   1.096  0.5677  0.3481  0.2830
19391SOL     OW61670   8.332   4.162   4.811 -0.1095 -0.0276 -0.6009
19391SOL    HW161671   8.261   4.226   4.802 -0.7163 -0.6447 -0.1661
19391SOL    HW261672   8.323   4.127   4.899  2.1112  1.5091  0.3293
19392SOL     OW61673  10.725   9.387   3.698 -0.4501 -1.0944  0.5476
19392SOL    HW161674  10.734   9.333   3.776 -2.6886 -0.3634  1.4081
19392SOL    HW261675  10.631   9.406   3.693 -0.3941 -1.1252 -2.3513
19393SOL     OW61676   9.644   7.849   5.898  0.4213  0.7488  0.6588
19393SOL    HW161677   9.656   7.919   5.963  2.1877  1.5314 -0.4573
19393SOL    HW261678   9.614   7.774   5.950 -2.7079  2.5656  1.7620
19394SOL     OW61679   4.112   8.312   7.381 -0.4424  0.4063 -0.1015
19394SOL    HW161680   4.144   8.253   7.449  0.4719  1.8716  0.7750
19394SOL    HW261681   4.131   8.266   7.299 -1.3163 -1.2596  0.5896
19395SOL     OW61682   9.754   6.460   0.579  0.0854  1.0772  0.5209
19395SOL    HW161683   9.763   6.443   0.485  2.4351  0.9907  0.7077
19395SOL    HW261684   9.706   6.384   0.611  0.9722  0.0989 -0.3458
19396SOL     OW61685   4.566   5.437   6.429 -0.1395 -0.3111 -0.3088
19396SOL    HW161686   4.626   5.479   6.491 -1.5841  1.3028  0.0358
19396SOL    HW261687   4.499   5.396   6.484  0.0556 -1.2439 -0.7354
19397SOL     OW61688   8.107   7.397   1.427  0.3303  0.0294  0.8625
19397SOL    HW161689   8.066   7.312   1.439 -0.3478  0.4147  1.3699
19397SOL    HW261690   8.145   7.417   1.513  0.9378  0.0087  0.6013
19398SOL     OW61691   9.639   7.340   5.972  0.0066  0.5510  0.4422
19398SOL    HW161692   9.555   7.316   5.931 -0.0916 -0.9115  1.4318
19398SOL    HW261693   9.660   7.425   5.935 -1.1317  0.2288 -1.0342
19399SOL     OW61694   7.154   9.029   5.701 -0.2186 -0.2798 -0.0228
19399SOL    HW161695   7.120   9.081   5.628  1.0532 -0.2761 -0.6379
19399SOL    HW261696   7.197   8.954   5.660  1.9600  0.5587  0.5836
19400SOL     OW61697   0.571   3.334   5.553 -0.2688  0.1025 -0.1447
19400SOL    HW161698   0.549   3.416   5.511 -2.2888 -0.2857  0.0477
19400SOL    HW261699   0.636   3.294   5.496 -0.4106  1.1299 -1.0490
19401SOL     OW61700  10.993   2.031   6.144  0.0451  0.2680 -0.0481
19401SOL    HW161701  11.014   2.090   6.217  0.6480  0.0783 -0.0697
19401SOL    HW261702  10.948   2.087   6.080  1.2164  0.8613 -0.3685
19402SOL     OW61703  10.985   6.400   5.763 -0.0488 -0.2716 -0.6982
19402SOL    HW161704  10.898   6.360   5.762 -0.1563 -0.1106  0.6547
19402SOL    HW261705  11.046   6.327   5.758 -0.2492 -0.6111  1.2280
19403SOL     OW61706   5.381   9.805   5.665 -0.4940 -0.5591 -0.6725
19403SOL    HW161707   5.444   9.870   5.635 -1.5306  1.6796  1.6159
19403SOL    HW261708   5.424   9.763   5.740 -0.6821 -0.9263 -0.7681
19404SOL     OW61709  10.207   9.222  10.334 -0.3894 -0.1912  0.0999
19404SOL    HW161710  10.140   9.226  10.402  1.1228  0.4644  1.5879
19404SOL    HW261711  10.283   9.265  10.371  0.3751  0.5828 -2.1746
19405SOL     OW61712   1.035   5.988   0.806  0.0211  0.3528 -0.8638
19405SOL    HW161713   0.969   5.949   0.863  0.7179  0.6637  0.2008
19405SOL    HW261714   1.017   5.952   0.719 -0.0043 -1.4871 -0.1320
19406SOL     OW61715   7.414   9.011   4.111 -0.0527  0.7964 -0.2284
19406SOL    HW161716   7.363   8.968   4.179 -0.3585  0.2662 -0.7882
19406SOL    HW261717   7.365   9.091   4.091  0.4705  1.3899  0.7487
19407SOL     OW61718   4.040   3.993   0.881  0.2183  0.1352  0.2428
19407SOL    HW161719   4.042   3.918   0.822  0.1293 -0.2614  0.7388
19407SOL    HW261720   4.115   4.046   0.855  0.3546 -0.1846 -0.0262
19408SOL     OW61721   0.623   7.696   4.815  0.3263  1.0079  0.2481
19408SOL    HW161722   0.537   7.675   4.851  0.3674  0.0181 -0.1774
19408SOL    HW261723   0.684   7.673   4.884  0.2479  2.0379  0.6817
19409SOL     OW61724   3.087   6.217   0.909  0.2806  0.5201  0.1932
19409SOL    HW161725   3.057   6.159   0.839 -2.3016  0.0469  1.5537
19409SOL    HW261726   3.183   6.213   0.906  0.1921 -1.2321 -1.8261
19410SOL     OW61727   9.248   4.013   3.146 -0.1648 -0.0556  0.1809
19410SOL    HW161728   9.214   3.941   3.093 -0.4065  0.7625 -0.8029
19410SOL    HW261729   9.312   4.056   3.089 -1.2604  1.5355  0.0942
19411SOL     OW61730   0.188   1.080   9.465 -0.3022 -0.1123 -0.8901
19411SOL    HW161731   0.152   1.132   9.537 -2.0517 -0.9124 -1.1448
19411SOL    HW261732   0.281   1.104   9.463 -0.4262  0.7086  0.9439
19412SOL     OW61733   1.974   2.273   3.169 -0.1982 -0.2926  0.1225
19412SOL    HW161734   2.019   2.355   3.147  1.0942 -1.1952 -0.7862
19412SOL    HW261735   1.912   2.259   3.098 -0.0104 -0.3924 -0.0214
19413SOL     OW61736  10.502   1.217   3.813  0.2252 -0.2266 -0.0701
19413SOL    HW161737  10.575   1.274   3.786  1.3411 -1.5145  0.0912
19413SOL    HW261738  10.500   1.148   3.747 -1.2385  0.0849 -0.3735
19414SOL     OW61739   6.824   4.122   3.627 -0.5137 -0.2296  0.7392
19414SOL    HW161740   6.890   4.135   3.558 -0.6373  1.7298  0.9420
19414SOL    HW261741   6.755   4.071   3.584 -0.0841  0.0106 -0.2762
19415SOL     OW61742   5.477   3.804   2.992 -0.2670  0.2780  0.2604
19415SOL    HW161743   5.382   3.801   2.987 -0.4304 -2.4957  2.3003
19415SOL    HW261744   5.496   3.847   3.075  0.2114  0.0343  0.2862
19416SOL     OW61745   7.372   0.102   3.880 -0.2226  0.5935  0.0461
19416SOL    HW161746   7.373   0.027   3.940 -0.6735  1.7386  1.5118
19416SOL    HW261747   7.432   0.075   3.809 -1.0342 -1.4972  0.0705
19417SOL     OW61748   4.118   0.741   1.810  0.0777 -0.3240 -0.3017
19417SOL    HW161749   4.050   0.808   1.796 -0.0826 -0.4915 -0.3405
19417SOL    HW261750   4.157   0.763   1.894  0.8782  0.5545 -0.8844
19418SOL     OW61751   3.978   1.908   9.277 -0.0052 -0.3200 -0.3543
19418SOL    HW161752   3.901   1.925   9.223  0.0337  0.0170 -0.3024
19418SOL    HW261753   3.955   1.828   9.325 -0.2833 -0.2774 -0.4106
19419SOL     OW61754   5.053   7.435   8.352 -0.5896  0.0251 -0.2433
19419SOL    HW161755   5.067   7.456   8.260 -6.3495  0.5722 -1.3746
19419SOL    HW261756   4.997   7.356   8.350 -0.5571 -0.1895  2.8065
19420SOL     OW61757   5.967   3.322   8.731 -0.3711  0.2641 -0.3590
19420SOL    HW161758   5.947   3.229   8.739 -2.5847  0.6230 -0.9201
19420SOL    HW261759   6.018   3.329   8.650 -0.5081 -0.4377 -0.5088
19421SOL     OW61760   2.093   8.527   8.280  0.1261  0.4013  0.3447
19421SOL    HW161761   2.087   8.605   8.335  2.1809  0.5624  0.4239
19421SOL    HW261762   2.016   8.532   8.224 -0.4411  1.8245  1.1786
19422SOL     OW61763   3.172   5.051   4.827 -0.0913 -0.0935 -0.5664
19422SOL    HW161764   3.210   5.127   4.871 -0.0969 -0.7054  0.5443
19422SOL    HW261765   3.192   5.064   4.734  1.5009  0.3618 -0.1999
19423SOL     OW61766   3.063   4.995   8.467  0.8273  0.0287 -0.0390
19423SOL    HW161767   2.985   4.942   8.484  1.3043 -0.3512  1.0558
19423SOL    HW261768   3.134   4.931   8.455  1.0431  0.3795 -0.7174
19424SOL     OW61769   6.575  10.350   6.690  0.3276  0.1423 -0.7278
19424SOL    HW161770   6.505  10.300   6.731  0.0732  1.4730  0.5427
19424SOL    HW261771   6.544  10.441   6.692  1.9160  0.7080 -0.4607
19425SOL     OW61772   3.311   1.210   2.304  0.1492 -0.6425  0.0544
19425SOL    HW161773   3.257   1.146   2.257 -0.4602 -1.0084  1.2121
19425SOL    HW261774   3.249   1.257   2.359  0.7249  0.3837 -0.1519
19426SOL     OW61775  10.867   2.176   0.865 -0.6556 -0.1532 -0.3740
19426SOL    HW161776  10.841   2.205   0.778  0.4435  0.7051 -0.4404
19426SOL    HW261777  10.872   2.081   0.858  0.4419 -0.0326 -1.5548
19427SOL     OW61778   5.506   4.715   8.075  0.5692  0.1712 -0.2718
19427SOL    HW161779   5.590   4.756   8.095  0.2802 -1.0306  4.6214
19427SOL    HW261780   5.453   4.785   8.036  2.8024  1.8136 -0.5267
19428SOL     OW61781   5.606   5.184   8.513 -0.0487 -0.1918 -0.9060
19428SOL    HW161782   5.567   5.103   8.481 -0.9540  0.6898 -2.1153
19428SOL    HW261783   5.592   5.181   8.608 -1.8381 -0.5535 -1.1472
19429SOL     OW61784   1.632   4.840   8.755  0.4611 -0.5281  0.5137
19429SOL    HW161785   1.701   4.839   8.689  0.2930  1.3275  0.2373
19429SOL    HW261786   1.557   4.882   8.711  0.2188  0.3756  1.7293
19430SOL     OW61787   0.961   8.000  10.874  0.0538  0.0361  0.0154
19430SOL    HW161788   0.994   8.050  10.949  1.4527  0.0902 -0.6126
19430SOL    HW261789   0.985   8.052  10.798  0.1760 -0.8460 -0.5639
19431SOL     OW61790   7.662   4.041   3.993 -0.6103  0.3843  0.4917
19431SOL    HW161791   7.612   4.088   4.060 -0.3537  0.2283  0.7947
19431SOL    HW261792   7.642   4.087   3.912 -1.2379  0.3362  0.6119
19432SOL     OW61793   0.192   8.221   9.169 -0.6627 -0.1310 -0.9709
19432SOL    HW161794   0.276   8.208   9.213 -1.0130  1.3298  0.2029
19432SOL    HW261795   0.215   8.247   9.080  0.1061 -0.5853 -0.9139
19433SOL     OW61796   5.031   1.045   9.534 -0.5039 -0.0772 -0.4363
19433SOL    HW161797   5.053   0.959   9.500 -0.3157  0.2992 -1.2799
19433SOL    HW261798   4.999   1.094   9.459 -0.5065  0.6291  0.0084
19434SOL     OW61799   2.630   9.323   9.202  0.1672 -0.2479 -0.3730
19434SOL    HW161800   2.592   9.392   9.257  1.9317 -0.7101  1.5684
19434SOL    HW261801   2.556   9.266   9.180 -0.6252 -0.0555  1.5797
19435SOL     OW61802   1.077   9.188  10.442  0.1204 -0.2398 -0.0662
19435SOL    HW161803   1.030   9.159  10.364 -0.6426 -2.3118  1.1068
19435SOL    HW261804   1.139   9.254  10.409 -0.7019 -0.4934 -2.2828
19436SOL     OW61805   8.857   0.214   8.347  0.3554  0.6579  0.1694
19436SOL    HW161806   8.774   0.236   8.306 -0.3185 -0.3958  0.9070
19436SOL    HW261807   8.844   0.233   8.440  1.3217  1.5257  0.1495
19437SOL     OW61808   0.993   2.541   3.375  0.0894 -0.0837  0.0063
19437SOL    HW161809   0.943   2.476   3.425 -2.3132 -0.4181 -2.5962
19437SOL    HW261810   1.023   2.495   3.297  1.3643  1.0934 -0.2555
19438SOL     OW61811   9.929   3.654   9.865 -0.6710  0.0237  0.1616
19438SOL    HW161812   9.951   3.581   9.808  0.6053 -0.0534  0.7211
19438SOL    HW261813  10.010   3.674   9.912 -0.2677  3.3017 -1.6055
19439SOL     OW61814   6.723   3.867   4.264 -0.9935  0.4751 -0.1236
19439SOL    HW161815   6.799   3.810   4.275 -0.3487  1.0620 -1.3445
19439SOL    HW261816   6.689   3.880   4.353 -1.2815 -1.9373  0.1745
19440SOL     OW61817   5.474   3.792   9.579 -0.3331  0.4238 -0.3573
19440SOL    HW161818   5.476   3.834   9.494  0.0705  2.4822  0.6160
19440SOL    HW261819   5.425   3.851   9.635  1.0605  0.1115  1.3017
19441SOL     OW61820   6.331   2.556   1.108 -0.3367 -0.0709  0.2361
19441SOL    HW161821   6.386   2.535   1.032 -0.1380 -1.9674  0.8639
19441SOL    HW261822   6.255   2.499   1.099  0.0590 -0.8961  1.8606
19442SOL     OW61823   2.247   1.901   4.900 -0.1877  0.6301 -0.2105
19442SOL    HW161824   2.204   1.943   4.825  0.0726  0.1747 -0.6258
19442SOL    HW261825   2.334   1.939   4.902 -0.2634  0.7901 -0.0162
19443SOL     OW61826   6.702   5.788   6.726 -0.1564 -0.1842 -0.3892
19443SOL    HW161827   6.743   5.702   6.732 -2.1389 -1.3789 -2.3114
19443SOL    HW261828   6.758   5.838   6.667  0.0298 -0.8043 -0.7387
19444SOL     OW61829   8.060   7.986   6.098 -0.9343 -0.3083 -0.2192
19444SOL    HW161830   8.028   7.920   6.036 -1.0456  0.0593 -0.5601
19444SOL    HW261831   8.028   8.069   6.063 -0.3093 -0.0128 -0.1059
19445SOL     OW61832   5.005   8.564   9.653  0.5510  0.7111 -0.4460
19445SOL    HW161833   5.018   8.573   9.747  1.8536 -3.0098 -0.1140
19445SOL    HW261834   4.915   8.594   9.638 -0.6222 -0.9890  2.4604
19446SOL     OW61835   7.207   8.643   5.251 -0.1783 -0.2475 -0.1995
19446SOL    HW161836   7.276   8.694   5.293  0.1721 -0.2149 -0.7982
19446SOL    HW261837   7.126   8.668   5.296  0.0886  0.3300 -0.0437
19447SOL     OW61838  10.032   4.575   3.196 -0.1815  0.0567  0.0531
19447SOL    HW161839   9.969   4.511   3.230  0.8479  0.0306  2.0655
19447SOL    HW261840  10.049   4.546   3.106  2.8249 -4.7375  1.7850
19448SOL     OW61841   4.026   6.045  10.400 -0.2648 -0.3668  0.1373
19448SOL    HW161842   3.945   5.994  10.391 -1.9569  2.2899 -0.8931
19448SOL    HW261843   4.035   6.060  10.494  0.0184 -2.0742  0.4166
19449SOL     OW61844   6.196   4.029   3.965 -0.4263 -0.4051 -0.3969
19449SOL    HW161845   6.214   4.092   3.895  1.4327 -0.5829 -0.1116
19449SOL    HW261846   6.117   3.983   3.935 -0.8827  0.9488 -1.3648
19450SOL     OW61847   5.167   2.789   5.399 -0.3778  0.1293  0.0412
19450SOL    HW161848   5.102   2.854   5.424  0.6135  2.1081 -2.1600
19450SOL    HW261849   5.248   2.839   5.391  0.4536 -1.3857 -1.5945
19451SOL     OW61850   2.218   9.217   4.019  0.4744  0.1966  0.3729
19451SOL    HW161851   2.163   9.252   4.089  0.2441  0.6448 -0.0278
19451SOL    HW261852   2.174   9.244   3.939  0.9114 -0.0401  0.0509
19452SOL     OW61853   0.123   4.719   3.185  0.4782  0.1239 -0.0418
19452SOL    HW161854   0.059   4.764   3.240  1.4675  0.2498  1.0462
19452SOL    HW261855   0.178   4.789   3.150  0.9304 -0.0921  0.2277
19453SOL     OW61856   9.380   8.823   2.788 -0.2188 -0.1967 -0.0284
19453SOL    HW161857   9.322   8.847   2.860 -0.1432 -1.3422  0.4346
19453SOL    HW261858   9.329   8.762   2.735  0.7117 -1.6624  0.6940
19454SOL     OW61859   1.922   4.654   3.431  0.4498  0.0012  0.2526
19454SOL    HW161860   1.846   4.607   3.464 -0.1156  1.0906  0.5537
19454SOL    HW261861   1.925   4.634   3.338 -1.2614  1.3085 -0.1320
19455SOL     OW61862   2.317   8.493   7.647  0.4534  0.2497 -0.3225
19455SOL    HW161863   2.374   8.506   7.571  1.5325  0.1410  0.4437
19455SOL    HW261864   2.237   8.456   7.611  1.1573 -0.3227 -1.3487
19456SOL     OW61865   9.075   5.001   0.188  0.9466 -0.2975 -0.0451
19456SOL    HW161866   9.061   5.092   0.163  1.8711  0.4564  1.9455
19456SOL    HW261867   8.991   4.958   0.173  0.4008  0.9718 -0.6849
19457SOL     OW61868  10.793   2.167   8.375  0.0265  0.1026 -0.8407
19457SOL    HW161869  10.878   2.151   8.336  1.5794 -2.3297  3.0324
19457SOL    HW261870  10.736   2.099   8.338  1.3008 -1.7803  0.4776
19458SOL     OW61871   9.230   1.664   4.925  0.2405 -0.2492  0.3132
19458SOL    HW161872   9.149   1.614   4.928  0.6856 -1.0373 -0.3763
19458SOL    HW261873   9.257   1.661   4.833  0.4813  0.9348  0.3362
19459SOL     OW61874   5.084   9.107   6.178  0.4000  0.6507 -0.3283
19459SOL    HW161875   5.061   9.147   6.094  1.6434 -2.3408 -2.2487
19459SOL    HW261876   5.136   9.173   6.223 -0.3958  2.3825 -1.8389
19460SOL     OW61877   2.233   4.876   9.386 -0.2562  0.0642  0.1469
19460SOL    HW161878   2.242   4.938   9.459  1.6499  1.4235 -1.1508
19460SOL    HW261879   2.303   4.812   9.400 -1.5430 -1.2371  0.8903
19461SOL     OW61880  10.725  10.809   4.226  0.0980 -0.2770 -0.4433
19461SOL    HW161881  10.795  10.862   4.188 -0.6136  0.7323 -0.3923
19461SOL    HW261882  10.663  10.796   4.154  1.4095 -3.2032 -1.1762
19462SOL     OW61883   3.891   1.517   2.599 -0.1727 -0.4973 -0.2605
19462SOL    HW161884   3.930   1.442   2.645 -0.9678 -0.4309  0.5552
19462SOL    HW261885   3.841   1.563   2.667  1.0698  1.3304 -0.4981
19463SOL     OW61886   8.006   3.818   4.613 -0.3031 -0.2359 -0.0072
19463SOL    HW161887   8.018   3.750   4.679 -0.5826 -0.2032  0.0783
19463SOL    HW261888   7.964   3.774   4.540 -1.6983  0.1154  0.5576
19464SOL     OW61889   5.408   8.180  10.595 -0.4345 -0.0869 -0.3227
19464SOL    HW161890   5.428   8.211  10.507 -1.0857  0.0917 -0.4144
19464SOL    HW261891   5.378   8.258  10.642  1.6425  0.2288  0.6286
19465SOL     OW61892   5.343   3.786   6.926  0.4641  0.5750 -0.1654
19465SOL    HW161893   5.375   3.716   6.869  0.8169 -0.1054  0.8564
19465SOL    HW261894   5.299   3.847   6.866  0.7926 -0.1414 -1.1572
19466SOL     OW61895   0.898   2.122   9.927 -0.0300 -0.1193  0.0851
19466SOL    HW161896   0.910   2.048   9.987 -0.8966 -0.1258  0.2503
19466SOL    HW261897   0.850   2.187   9.978 -1.4535 -0.4231 -0.8202
19467SOL     OW61898   5.409   4.544   5.624  0.5264 -0.2573 -0.4966
19467SOL    HW161899   5.424   4.450   5.621 -0.5517 -0.4207 -2.2927
19467SOL    HW261900   5.326   4.557   5.579  0.4668  1.5302  0.0403
19468SOL     OW61901   8.538   1.370   4.762  0.4703 -0.1125 -0.2802
19468SOL    HW161902   8.482   1.314   4.816  1.3273  1.6507  2.6608
19468SOL    HW261903   8.488   1.384   4.682 -1.1740 -2.3379  0.2445
19469SOL     OW61904   0.134   2.428   4.189  0.2037  0.0897  0.3202
19469SOL    HW161905   0.210   2.481   4.166  0.4426 -1.1134 -2.0243
19469SOL    HW261906   0.064   2.463   4.133 -0.0939 -0.8678  0.0766
19470SOL     OW61907   7.753   0.588   2.391  0.6203 -0.0427  0.1574
19470SOL    HW161908   7.680   0.615   2.448  1.6646  0.9799  1.0618
19470SOL    HW261909   7.830   0.595   2.447  1.4423 -0.9529 -0.8303
19471SOL     OW61910   4.228   1.323   3.619  0.4232 -0.2182  0.3442
19471SOL    HW161911   4.145   1.302   3.663  0.6528 -0.5864  0.6089
19471SOL    HW261912   4.288   1.254   3.647  1.3545  1.0697  1.6778
19472SOL     OW61913   0.140   0.583   2.794 -0.6031  0.0480 -0.2469
19472SOL    HW161914   0.143   0.494   2.760  0.6313  0.0637 -0.1975
19472SOL    HW261915   0.130   0.572   2.888 -0.5771 -0.0353 -0.2536
19473SOL     OW61916   5.362   6.840   8.340  0.2852 -0.5160  0.4972
19473SOL    HW161917   5.346   6.876   8.253 -0.6857  0.1379  0.9145
19473SOL    HW261918   5.298   6.770   8.349 -0.2466  0.0150  1.0030
19474SOL     OW61919   5.168   2.630   2.719 -0.2048  0.2414  0.1051
19474SOL    HW161920   5.113   2.698   2.682  0.2122  0.7385  0.3859
19474SOL    HW261921   5.240   2.677   2.761 -0.1705 -0.3485  0.7285
19475SOL     OW61922   8.535   8.261   1.108 -0.3743 -0.2544 -0.1961
19475SOL    HW161923   8.518   8.176   1.148  0.8759 -1.0502 -1.2274
19475SOL    HW261924   8.449   8.301   1.097 -0.8341 -0.3876  2.3317
19476SOL     OW61925   7.746  10.726   3.585  0.4585 -0.0497  0.0435
19476SOL    HW161926   7.739  10.731   3.490  0.3602  0.2431  0.0653
19476SOL    HW261927   7.782  10.811   3.611  1.8643 -0.6435  0.1363
19477SOL     OW61928   8.376   2.991   4.490 -0.3329 -0.4692 -0.1011
19477SOL    HW161929   8.448   2.996   4.428 -0.9928 -0.1068 -0.8594
19477SOL    HW261930   8.363   2.897   4.503  0.2462 -0.5362  0.0174
19478SOL     OW61931   6.361   0.784   7.371 -0.1359 -0.6352 -0.0043
19478SOL    HW161932   6.396   0.699   7.398  1.8473 -0.2225 -1.0766
19478SOL    HW261933   6.415   0.848   7.418 -3.0143  0.1457  2.5449
19479SOL     OW61934   8.792   3.245   4.925  1.1335  0.0264  0.5019
19479SOL    HW161935   8.770   3.157   4.892  1.8295 -0.4350  1.2505
19479SOL    HW261936   8.707   3.282   4.949  0.7572 -0.1658 -0.4754
19480SOL     OW61937   7.005   8.854   7.411 -0.7309  0.1028  0.6974
19480SOL    HW161938   7.002   8.809   7.327 -1.8738  0.3289  0.5952
19480SOL    HW261939   7.095   8.845   7.440 -0.2413  0.2725 -0.6877
19481SOL     OW61940   9.145   3.957   6.481 -0.9232  0.0231  0.2246
19481SOL    HW161941   9.062   3.997   6.507 -0.7576  0.0704  0.6826
19481SOL    HW261942   9.121   3.894   6.414 -1.0320  1.9043 -1.6047
19482SOL     OW61943   1.660   4.703   0.396  0.1712 -0.6285  1.0211
19482SOL    HW161944   1.622   4.620   0.424  0.6165 -0.9884  0.5553
19482SOL    HW261945   1.606   4.731   0.322  0.3150 -0.7423  0.8723
19483SOL     OW61946   3.032   8.293   8.262 -0.2031 -0.6946 -0.1714
19483SOL    HW161947   2.991   8.303   8.177  2.1351  0.6474 -1.2487
19483SOL    HW261948   3.101   8.228   8.248  0.5712 -0.0487  0.5120
19484SOL     OW61949   7.364   0.356   8.410  0.8173 -0.1041  0.4871
19484SOL    HW161950   7.364   0.316   8.497 -0.9893 -1.1828  0.0279
19484SOL    HW261951   7.429   0.306   8.361 -0.7595 -1.9497  0.1859
19485SOL     OW61952   2.280   3.094   7.675 -0.7991  0.1083  0.8036
19485SOL    HW161953   2.230   3.104   7.756 -0.5534  1.0633  0.8548
19485SOL    HW261954   2.214   3.100   7.606 -0.7098  2.2909  0.8306
19486SOL     OW61955   1.966   0.965   0.512  0.0184 -0.6499  0.0206
19486SOL    HW161956   2.013   0.908   0.452 -0.6278 -0.4029 -0.7380
19486SOL    HW261957   2.029   1.033   0.536  1.2436 -2.3287  1.9764
19487SOL     OW61958   5.192  10.005   6.973  0.1136 -0.2195 -0.9678
19487SOL    HW161959   5.115   9.982   7.024 -0.1659  0.9734 -0.8152
19487SOL    HW261960   5.266   9.970   7.023 -0.2152  0.1953 -0.1783
19488SOL     OW61961   9.418   5.524   6.376  0.4863 -0.2043 -0.1581
19488SOL    HW161962   9.498   5.574   6.395  1.0029 -0.1902 -2.1297
19488SOL    HW261963   9.371   5.578   6.313 -0.5430 -0.7582  0.1078
19489SOL     OW61964   6.477   2.705   5.389  0.6852 -0.0587  0.1306
19489SOL    HW161965   6.445   2.738   5.473 -0.6383  0.9177 -0.7139
19489SOL    HW261966   6.411   2.733   5.325  0.7568 -2.2684 -1.0172
19490SOL     OW61967   7.163   4.358   6.146  0.3059  0.0861  0.2762
19490SOL    HW161968   7.185   4.276   6.101 -1.1891 -0.0123 -0.3626
19490SOL    HW261969   7.238   4.415   6.131  0.6250 -0.5734 -0.8081
19491SOL     OW61970   7.228   0.208   5.979 -1.0888 -0.0048  0.6596
19491SOL    HW161971   7.291   0.246   5.918 -2.0248  0.4785 -0.0306
19491SOL    HW261972   7.271   0.213   6.064 -0.4649  0.9201  0.3030
19492SOL     OW61973   4.109   5.074   8.378 -0.1645  0.5384 -0.1447
19492SOL    HW161974   4.076   5.009   8.440 -0.0564  0.2610 -0.3757
19492SOL    HW261975   4.032   5.100   8.328  0.1365 -0.8971 -1.4069
19493SOL     OW61976   0.869   2.055   4.785 -0.1133 -0.7286 -0.0936
19493SOL    HW161977   0.886   2.013   4.869  0.1503 -0.7987 -0.1842
19493SOL    HW261978   0.931   2.128   4.782 -2.3409  1.4013  1.3036
19494SOL     OW61979   3.705   5.495   1.339 -0.6521  0.2595 -0.1478
19494SOL    HW161980   3.610   5.503   1.349 -0.4836  1.3329  0.8336
19494SOL    HW261981   3.732   5.579   1.301 -0.0920 -0.0154 -0.3603
19495SOL     OW61982   2.428   4.357   9.139  0.0801  0.2710  0.1581
19495SOL    HW161983   2.443   4.439   9.092  2.1693  0.2644  0.6993
19495SOL    HW261984   2.429   4.382   9.231  1.5366 -0.4170  0.3639
19496SOL     OW61985  10.069   2.697   0.354 -0.6278  0.1061 -0.7319
19496SOL    HW161986  10.131   2.672   0.422 -2.6366 -0.3998  1.0384
19496SOL    HW261987  10.067   2.793   0.356 -0.5813  0.0980 -0.1314
19497SOL     OW61988   7.484   8.222   7.932 -0.3916  0.0648 -0.1929
19497SOL    HW161989   7.450   8.265   7.853 -0.9548  0.0040  0.0119
19497SOL    HW261990   7.526   8.143   7.899  0.5722  0.7086 -0.5633
19498SOL     OW61991   1.142  10.054   3.262 -0.1898  0.1360  0.4584
19498SOL    HW161992   1.099   9.974   3.230 -1.2284  0.0869  1.8980
19498SOL    HW261993   1.133  10.116   3.190 -0.7025 -0.5775 -0.1052
19499SOL     OW61994   2.966   2.433   2.439 -0.3002 -0.3961 -0.2243
19499SOL    HW161995   3.019   2.393   2.509  0.8470  1.9963  0.3562
19499SOL    HW261996   3.006   2.401   2.358  1.0631  0.1142  0.2132
19500SOL     OW61997   4.087   2.248   2.878  0.5088 -0.7201  0.0500
19500SOL    HW161998   4.177   2.222   2.900 -0.3288 -2.1625  2.0652
19500SOL    HW261999   4.033   2.207   2.946 -1.8985 -1.6372 -2.2541
19501SOL     OW62000   2.320   2.294   2.037 -0.5136  0.3312  0.4298
19501SOL    HW162001   2.233   2.298   1.998 -0.8844 -1.3587  1.0007
19501SOL    HW262002   2.338   2.383   2.067 -1.0484  1.2305 -1.7492
19502SOL     OW62003   2.455   4.437  10.505  0.1157  0.1621  0.4873
19502SOL    HW162004   2.472   4.531  10.495  1.1605 -0.1143 -0.5208
19502SOL    HW262005   2.540   4.398  10.523 -0.4661 -0.4891  2.0539
19503SOL     OW62006   4.860   6.708   4.675  0.2326  0.2462  0.0325
19503SOL    HW162007   4.845   6.613   4.676 -0.9905  0.4255 -0.1472
19503SOL    HW262008   4.908   6.726   4.756 -0.3652 -0.3964  0.5411
19504SOL     OW62009   4.517   4.316   4.412  0.1309  0.0227  0.3383
19504SOL    HW162010   4.601   4.357   4.430  0.0053  0.8084 -0.7331
19504SOL    HW262011   4.466   4.385   4.368 -1.3492 -0.1765  1.6585
19505SOL     OW62012   4.225   7.533   9.708  0.1264 -0.1903 -0.1921
19505SOL    HW162013   4.206   7.490   9.625  0.9382  0.8628 -0.9585
19505SOL    HW262014   4.182   7.479   9.774  0.5194 -1.7647 -1.1674
19506SOL     OW62015   3.924   8.377   3.342  0.0162 -0.1950 -0.2030
19506SOL    HW162016   3.895   8.410   3.257 -1.4833  0.4801  0.5448
19506SOL    HW262017   4.020   8.384   3.339  0.0702 -1.1785 -2.2073
19507SOL     OW62018   8.016   4.085   3.939 -0.0369  0.1064  0.3380
19507SOL    HW162019   8.036   4.029   3.864 -0.1086  1.7474 -0.9729
19507SOL    HW262020   7.929   4.059   3.966 -0.2489 -0.1215 -0.5387
19508SOL     OW62021   4.274   1.952   7.572  0.4601  0.0146 -0.3710
19508SOL    HW162022   4.255   2.013   7.644 -1.7038 -0.1274 -0.7472
19508SOL    HW262023   4.353   1.905   7.600  0.1977  0.5945  1.4774
19509SOL     OW62024   5.427  10.274   4.336  0.4048  0.7164  0.1547
19509SOL    HW162025   5.350  10.234   4.376  1.3092 -0.4915  0.7839
19509SOL    HW262026   5.397  10.359   4.304 -1.4703 -0.2623 -0.7821
19510SOL     OW62027   9.240  10.389  10.019  0.7450  0.2444  0.0396
19510SOL    HW162028   9.259  10.464  10.075 -1.0742  1.3542 -0.7262
19510SOL    HW262029   9.297  10.402   9.943  1.2213  0.2542  0.3960
19511SOL     OW62030   0.398   9.947   4.735 -0.3625 -0.4169 -0.1605
19511SOL    HW162031   0.403  10.041   4.750  0.9674 -0.4459 -0.3502
19511SOL    HW262032   0.367   9.938   4.644  0.5830 -0.1416 -0.5176
19512SOL     OW62033   5.192   1.077  10.063 -0.1468 -0.7109 -0.6555
19512SOL    HW162034   5.203   1.099  10.155 -1.2252  1.6953 -1.0428
19512SOL    HW262035   5.280   1.084  10.026  0.0194 -0.0006 -0.1394
19513SOL     OW62036   0.413   0.508   6.616  0.2013 -0.4863  0.0157
19513SOL    HW162037   0.377   0.592   6.590  0.5058 -0.0609  0.9235
19513SOL    HW262038   0.339   0.447   6.608 -0.7675  0.3693  1.8461
19514SOL     OW62039   5.139   3.298   1.206  0.4012  0.1328 -0.3480
19514SOL    HW162040   5.045   3.313   1.213  0.0862 -2.0082  0.7275
19514SOL    HW262041   5.155   3.291   1.112 -0.3162  1.4501 -0.5939
19515SOL     OW62042   8.247   5.334   0.895 -0.5322 -0.8227 -0.3667
19515SOL    HW162043   8.157   5.311   0.917  0.0014 -0.1636  3.0198
19515SOL    HW262044   8.297   5.254   0.910 -0.3264 -0.7535 -0.6655
19516SOL     OW62045   0.186   2.523   2.754 -0.1820  0.3633 -0.0427
19516SOL    HW162046   0.141   2.607   2.762  0.0651  0.4365  0.7045
19516SOL    HW262047   0.265   2.542   2.704 -0.8675  0.2713 -1.2025
19517SOL     OW62048   3.047   7.072  10.628  0.2113  0.1157 -0.6400
19517SOL    HW162049   3.075   7.155  10.667  0.6651 -0.0783 -0.5417
19517SOL    HW262050   3.121   7.013  10.643  0.0929 -0.1658 -1.1492
19518SOL     OW62051   4.582   1.811  10.708  0.3252  0.3822  0.1208
19518SOL    HW162052   4.584   1.757  10.629 -1.7867  1.0237 -0.4406
19518SOL    HW262053   4.656   1.781  10.760  1.1774 -0.7318 -1.6667
19519SOL     OW62054   5.825  10.558   7.852 -0.5752 -0.2947  0.3764
19519SOL    HW162055   5.871  10.527   7.774 -1.4892 -1.3574  0.2392
19519SOL    HW262056   5.821  10.482   7.910  0.1481  0.4976  1.5037
19520SOL     OW62057   6.710   8.837  10.530  0.4232 -0.0895  0.2819
19520SOL    HW162058   6.743   8.921  10.499 -2.8146  0.8874 -0.9786
19520SOL    HW262059   6.665   8.858  10.612  0.0158 -0.6613  0.2132
19521SOL     OW62060   0.129   5.557   8.931  0.1462  0.2456  0.5165
19521SOL    HW162061   0.096   5.632   8.980  0.4488  0.1279  0.9112
19521SOL    HW262062   0.209   5.532   8.977  0.1564 -0.1934  0.2692
19522SOL     OW62063   0.150   7.207   5.736  0.5014 -0.5796  0.4652
19522SOL    HW162064   0.131   7.122   5.776 -0.7196 -0.3599  0.3712
19522SOL    HW262065   0.098   7.269   5.787  0.9651  0.0526  0.1826
19523SOL     OW62066   5.622   2.989   6.934 -0.4062 -0.3948 -0.1344
19523SOL    HW162067   5.598   2.984   7.027  2.1068  1.8390  0.7471
19523SOL    HW262068   5.614   2.899   6.903 -0.6011 -1.3516  2.4301
19524SOL     OW62069   5.779   1.577   2.367  0.5699 -0.0709 -0.7117
19524SOL    HW162070   5.790   1.482   2.362 -0.1390 -0.4137  2.4057
19524SOL    HW262071   5.862   1.610   2.400  0.5470  0.3304 -1.0376
19525SOL     OW62072  10.939  10.230   1.214 -0.3799  0.0835  0.3098
19525SOL    HW162073  10.943  10.179   1.295  1.6002 -0.9523 -0.3698
19525SOL    HW262074  10.956  10.320   1.241  2.5593 -0.5416  0.8813
19526SOL     OW62075   8.778   6.301   3.438 -0.5467  0.0146 -0.4047
19526SOL    HW162076   8.698   6.352   3.441 -1.1363 -0.8122 -1.2506
19526SOL    HW262077   8.777   6.261   3.351 -0.1056 -1.3910  0.2074
19527SOL     OW62078   8.450  10.146   7.375 -0.7688  0.3783  0.5920
19527SOL    HW162079   8.438  10.052   7.367  0.4205  0.1002  1.8664
19527SOL    HW262080   8.539  10.157   7.407 -0.6928  1.9729 -0.0582
19528SOL     OW62081   2.059   7.126   8.438  0.1047  0.2408 -0.1988
19528SOL    HW162082   2.085   7.058   8.377  0.1722  0.3387 -0.2779
19528SOL    HW262083   2.007   7.080   8.504 -0.5486  0.2433 -0.6961
19529SOL     OW62084   4.659  10.721  10.329 -0.7807  0.4311  0.3900
19529SOL    HW162085   4.572  10.761  10.322 -0.4235  1.2567  0.5650
19529SOL    HW262086   4.674  10.681  10.243  0.1858  3.4426 -0.9392
19530SOL     OW62087   1.055   2.326   0.224  0.1463  0.1965 -0.1232
19530SOL    HW162088   0.970   2.287   0.246 -0.4288  0.5082 -1.6394
19530SOL    HW262089   1.060   2.404   0.279  0.1429 -0.6329  1.0701
19531SOL     OW62090   7.971   9.977   9.078 -0.0055 -0.0026  0.0542
19531SOL    HW162091   7.985   9.900   9.133 -1.2804 -1.5989 -1.6979
19531SOL    HW262092   7.884  10.008   9.101  0.6104  1.1197  0.9413
19532SOL     OW62093   5.826   9.455   7.459  1.2172 -0.4940 -0.5658
19532SOL    HW162094   5.854   9.379   7.409  1.3818 -0.4928 -0.4734
19532SOL    HW262095   5.877   9.451   7.540 -0.9486 -1.9906  0.8281
19533SOL     OW62096  10.973   9.660   1.884 -0.3574 -0.4094 -0.4666
19533SOL    HW162097  10.988   9.613   1.965 -0.8038  0.1960 -0.0183
19533SOL    HW262098  11.053   9.648   1.833  0.0198 -0.5813  0.1676
19534SOL     OW62099   9.697   6.517   6.521 -0.0445 -0.1770  0.0773
19534SOL    HW162100   9.792   6.531   6.531 -0.1824  0.7866  0.1442
19534SOL    HW262101   9.664   6.512   6.610 -0.3078  1.4505  0.1110
19535SOL     OW62102   3.646   2.262   3.277 -0.0544 -0.1638 -0.0125
19535SOL    HW162103   3.647   2.225   3.365  1.4358 -1.6128 -0.5985
19535SOL    HW262104   3.717   2.218   3.231 -1.1385  0.1480 -2.1195
19536SOL     OW62105   5.619   5.851   6.302  0.5529  0.5295 -0.1615
19536SOL    HW162106   5.607   5.883   6.391 -1.6322  0.2734 -0.3225
19536SOL    HW262107   5.539   5.802   6.282  0.0192  2.2703 -2.9505
19537SOL     OW62108   5.353   1.591   5.027  0.6933  0.2660  0.2278
19537SOL    HW162109   5.362   1.564   4.935 -0.4934 -0.2767  0.2542
19537SOL    HW262110   5.434   1.563   5.068  0.0355 -2.2408 -0.0241
19538SOL     OW62111   5.268   0.720   1.591  0.6189 -0.0806 -0.0357
19538SOL    HW162112   5.174   0.705   1.600  0.7299 -0.1599  1.1536
19538SOL    HW262113   5.278   0.759   1.505 -0.7998  2.1122  0.7059
19539SOL     OW62114   7.864   4.373   5.168  0.4318  0.3252 -0.0687
19539SOL    HW162115   7.826   4.400   5.252  1.3109 -0.6261  0.6524
19539SOL    HW262116   7.942   4.427   5.159 -0.3128  1.2930 -0.8821
19540SOL     OW62117   9.125   3.325   7.650  0.1236  0.4888  0.6051
19540SOL    HW162118   9.038   3.357   7.629  0.2128  0.7275  0.6049
19540SOL    HW262119   9.110   3.235   7.681 -0.2317  0.8757  1.5907
19541SOL     OW62120   6.358   7.948   1.772 -0.3244 -0.2567  0.2074
19541SOL    HW162121   6.355   7.998   1.853 -1.4197 -0.7088  0.4670
19541SOL    HW262122   6.429   7.987   1.721 -1.5776  2.0386  0.0851
19542SOL     OW62123   3.666   0.077   5.511 -0.2693 -0.1655 -0.4024
19542SOL    HW162124   3.723   0.002   5.526 -0.5210  0.0745  2.1357
19542SOL    HW262125   3.676   0.131   5.590 -0.7751  2.0305 -1.7630
19543SOL     OW62126   6.502   5.913   4.999  0.1775  0.0396  0.3085
19543SOL    HW162127   6.480   5.854   4.928  1.4169 -1.1603  0.8793
19543SOL    HW262128   6.456   5.877   5.075 -0.4506  0.8280  0.3268
19544SOL     OW62129  10.343   9.613   1.289  0.2821  0.2511  0.4036
19544SOL    HW162130  10.287   9.605   1.213  0.0601  2.0539  0.3242
19544SOL    HW262131  10.335   9.529   1.335  0.4243 -0.8634 -1.5275
19545SOL     OW62132   0.517   5.025   1.141 -0.8606 -0.4120  0.0474
19545SOL    HW162133   0.493   4.956   1.080  1.4355 -1.9501  0.7151
19545SOL    HW262134   0.462   5.010   1.218  0.2601 -2.2002  0.5640
19546SOL     OW62135   6.984   4.245   5.837  0.0473  0.2901  0.8730
19546SOL    HW162136   6.895   4.225   5.806 -0.2247  2.4113  0.0539
19546SOL    HW262137   6.975   4.331   5.878  2.1347  1.7830 -1.5466
19547SOL     OW62138   6.716   5.320   6.651  0.2767 -0.1387  0.3003
19547SOL    HW162139   6.653   5.336   6.722  0.4709 -3.0604  1.2886
19547SOL    HW262140   6.797   5.296   6.697  1.4184  1.1665 -0.9608
19548SOL     OW62141   3.094   3.250   8.978  0.5291 -0.3859  0.2254
19548SOL    HW162142   3.173   3.217   9.020 -0.0010 -1.0891  0.6819
19548SOL    HW262143   3.119   3.263   8.886  1.3719  0.0924  0.5188
19549SOL     OW62144   4.858   9.566   9.826  0.5484 -0.0054 -0.6621
19549SOL    HW162145   4.859   9.505   9.752  1.8510 -0.8005 -0.0198
19549SOL    HW262146   4.778   9.544   9.874 -1.6030  2.0434 -2.9726
19550SOL     OW62147   9.268   5.118  10.005  0.0264 -0.2804 -0.1711
19550SOL    HW162148   9.345   5.137  10.059 -0.5308 -1.7082  1.1729
19550SOL    HW262149   9.267   5.022   9.997 -0.4775 -0.1764 -1.9031
19551SOL     OW62150   1.724   9.362   0.017  0.1699 -0.1906  0.2395
19551SOL    HW162151   1.763   9.293  -0.037  0.7895 -0.0875  0.5468
19551SOL    HW262152   1.705   9.319   0.101 -1.3065 -0.4958 -0.2153
19552SOL     OW62153   3.859   5.818   2.828  0.3527 -0.6274 -0.2704
19552SOL    HW162154   3.847   5.849   2.739  0.3264 -2.0254 -0.7774
19552SOL    HW262155   3.880   5.897   2.878  1.4992  0.0239 -1.7036
19553SOL     OW62156   3.028   4.312  10.855  0.1271 -0.0865 -0.1191
19553SOL    HW162157   3.085   4.365  10.909 -0.7502  1.2994 -0.5124
19553SOL    HW262158   2.940   4.331  10.887 -0.3856  0.4437 -1.7166
19554SOL     OW62159   6.750   8.199   4.431 -0.2172  0.0131 -0.3364
19554SOL    HW162160   6.823   8.184   4.372 -0.1148  0.3784 -0.3041
19554SOL    HW262161   6.690   8.127   4.414 -0.0044 -0.1014 -0.6014
19555SOL     OW62162   7.439   8.222  10.823  0.0587  0.5995  0.1844
19555SOL    HW162163   7.452   8.190  10.913 -0.8338  1.2177  0.5498
19555SOL    HW262164   7.382   8.157  10.783  0.7338  0.1421 -0.0582
19556SOL     OW62165   9.974   6.992   6.058 -0.3915  0.1018  0.2306
19556SOL    HW162166   9.893   7.013   6.013 -2.5501 -1.8982  2.8327
19556SOL    HW262167  10.004   6.911   6.018 -1.8647 -1.2321  1.6795
19557SOL     OW62168   7.268   0.641   2.625 -0.4556 -0.4794  0.2541
19557SOL    HW162169   7.254   0.574   2.691  1.0402 -0.2196  0.8624
19557SOL    HW262170   7.201   0.707   2.643 -0.8197 -0.9815  0.7515
19558SOL     OW62171   3.801   0.475   6.121 -0.3344 -0.2583  0.5531
19558SOL    HW162172   3.815   0.542   6.188  0.0023 -0.4150  0.6421
19558SOL    HW262173   3.722   0.429   6.149 -1.6397  1.2494 -0.4504
19559SOL     OW62174   6.935   9.118   6.003 -0.6781  0.0517  0.2406
19559SOL    HW162175   7.000   9.174   5.960 -0.7391  1.0537  1.4236
19559SOL    HW262176   6.955   9.030   5.969 -0.7835  0.7784 -1.8817
19560SOL     OW62177   6.301   0.224   6.220 -0.1001 -0.3177  0.3531
19560SOL    HW162178   6.216   0.230   6.176  0.5450  0.1565 -0.8891
19560SOL    HW262179   6.337   0.140   6.192  0.4688  0.1443 -0.3511
19561SOL     OW62180   9.386   1.106   3.496 -0.0989 -0.3339  0.2405
19561SOL    HW162181   9.437   1.173   3.451 -0.0083 -0.3171  0.3675
19561SOL    HW262182   9.451   1.043   3.528 -0.1295 -0.1225  0.7148
19562SOL     OW62183   3.657   5.756   6.867  0.0945  0.5196  0.2085
19562SOL    HW162184   3.690   5.694   6.802  1.5288 -0.0426  1.4208
19562SOL    HW262185   3.562   5.752   6.857  0.1435 -1.7317  0.1037
19563SOL     OW62186   9.946   1.776   1.272 -0.4852 -0.7756 -0.3362
19563SOL    HW162187   9.881   1.790   1.341  0.2926  2.1877 -0.0566
19563SOL    HW262188   9.903   1.805   1.192 -0.7463 -2.4804 -0.8682
19564SOL     OW62189   2.150  10.048   4.915 -0.1127  0.2585 -0.4267
19564SOL    HW162190   2.058  10.050   4.942  0.2122  0.6443  0.7323
19564SOL    HW262191   2.173   9.955   4.917 -0.3116  0.2130 -0.1122
19565SOL     OW62192   1.899   5.179   3.196  0.3179  0.2830  0.0402
19565SOL    HW162193   1.836   5.136   3.254 -1.3019  2.8242  0.3233
19565SOL    HW262194   1.937   5.249   3.249 -0.3259  1.9282 -1.5566
19566SOL     OW62195  10.430   7.709   5.127 -0.4901 -0.4061 -0.1642
19566SOL    HW162196  10.439   7.797   5.090  0.0220 -0.3040  0.2123
19566SOL    HW262197  10.464   7.716   5.216  0.1066 -1.1253 -0.3304
19567SOL     OW62198   5.605   0.909   0.174 -0.1807  0.3160 -0.2142
19567SOL    HW162199   5.559   0.909   0.257  0.1466 -1.9966  0.0267
19567SOL    HW262200   5.684   0.857   0.190  1.2435  1.9776 -1.3123
19568SOL     OW62201  10.146   0.044   7.450  0.1563 -0.0661 -0.5413
19568SOL    HW162202  10.158   0.139   7.446  0.7807 -0.1413 -0.5714
19568SOL    HW262203  10.086   0.024   7.378 -1.5030  0.5283  0.6217
19569SOL     OW62204   6.765   7.656   8.590 -0.0209 -0.5482  0.2275
19569SOL    HW162205   6.674   7.637   8.567 -0.6007  2.5788 -0.5293
19569SOL    HW262206   6.768   7.647   8.685 -1.0600 -0.8902  0.2409
19570SOL     OW62207   2.380   6.518   8.371 -1.1595  0.2211  0.7802
19570SOL    HW162208   2.419   6.606   8.374 -0.9027  0.0757  2.8718
19570SOL    HW262209   2.384   6.494   8.278  1.0816  1.3933  0.4925
19571SOL     OW62210  10.130   2.599   5.256  0.8997  0.0511  0.5260
19571SOL    HW162211  10.077   2.642   5.189 -0.1859 -2.5256 -0.4188
19571SOL    HW262212  10.147   2.667   5.321 -0.4317  1.9195 -0.9661
19572SOL     OW62213   0.919  10.106   3.059  0.4181  0.4634  0.0566
19572SOL    HW162214   0.857  10.178   3.049 -0.4632 -0.3302 -0.3644
19572SOL    HW262215   0.874  10.043   3.117  0.2446 -0.7258 -1.3111
19573SOL     OW62216   1.522   9.688   0.117 -0.4822  0.6714  0.1533
19573SOL    HW162217   1.587   9.756   0.101 -0.8027  1.2341  1.1259
19573SOL    HW262218   1.480   9.675   0.031 -0.2213  1.5013 -0.1184
19574SOL     OW62219   6.048   6.528   3.090  0.2411  0.2292 -0.1597
19574SOL    HW162220   6.140   6.548   3.107  0.3466  0.8015 -1.3162
19574SOL    HW262221   6.000   6.572   3.161  0.8722 -0.5623  0.7911
19575SOL     OW62222   0.246   1.929   3.458  0.0385 -0.0748  0.0851
19575SOL    HW162223   0.294   1.866   3.404  1.3010  0.4768  0.5287
19575SOL    HW262224   0.218   1.997   3.397  0.6593  0.0812 -0.0277
19576SOL     OW62225   5.312  10.070   9.033 -0.2595  0.4073 -0.9759
19576SOL    HW162226   5.281  10.075   8.943 -0.8532  2.0591 -0.7131
19576SOL    HW262227   5.368  10.147   9.044 -0.5635  0.4859  0.1801
19577SOL     OW62228   4.409   3.252   6.842 -0.6640  0.3229 -0.5482
19577SOL    HW162229   4.364   3.167   6.842  2.0423 -1.2382 -1.3378
19577SOL    HW262230   4.444   3.260   6.753  0.1843  1.6856 -0.1121
19578SOL     OW62231   4.120   4.140   2.135  0.0600  0.1779  0.6656
19578SOL    HW162232   4.133   4.157   2.228  0.3315 -0.5020  0.7612
19578SOL    HW262233   4.032   4.102   2.130 -0.0814  0.5170  0.6061
19579SOL     OW62234  10.890  10.965   1.895  0.0705 -0.1864 -0.1566
19579SOL    HW162235  10.838  10.887   1.876  0.3947 -0.2160 -0.9623
19579SOL    HW262236  10.977  10.932   1.915 -0.2406 -0.1491  1.3673
19580SOL     OW62237   3.839   2.167   1.628  0.6411  0.1703 -0.3646
19580SOL    HW162238   3.771   2.104   1.654  1.3512 -0.0988  0.9216
19580SOL    HW262239   3.917   2.113   1.615  0.8654  0.6016 -0.8265
19581SOL     OW62240   7.429   3.808   7.213  0.1404  0.3744 -0.4417
19581SOL    HW162241   7.418   3.828   7.305  0.3661 -1.6340  0.0816
19581SOL    HW262242   7.459   3.890   7.173  1.2042  0.9845  1.4813
19582SOL     OW62243   0.365   7.572  10.822 -0.3897  0.1901 -0.3329
19582SOL    HW162244   0.287   7.628  10.819  0.1360  0.9659 -0.0928
19582SOL    HW262245   0.437   7.634  10.834  0.4245 -0.3653 -2.0189
19583SOL     OW62246   9.094  10.004  10.985  0.0815 -0.3503  0.1220
19583SOL    HW162247   9.113   9.944  11.056  2.1611  0.1173  0.0265
19583SOL    HW262248   9.112   9.954  10.905 -0.7894 -0.4121 -0.0439
19584SOL     OW62249   1.955   1.446   3.567  0.5328 -0.0195  0.1562
19584SOL    HW162250   1.983   1.363   3.608  2.0377  0.8790  1.0308
19584SOL    HW262251   1.870   1.464   3.607  1.4031  0.1878  2.0306
19585SOL     OW62252   8.757   0.978   6.403  0.4132  0.2638 -0.4239
19585SOL    HW162253   8.699   0.904   6.382 -2.4165  1.9693  0.7314
19585SOL    HW262254   8.832   0.968   6.345 -0.8500 -2.3595 -1.7382
19586SOL     OW62255   7.797   7.653   9.751 -0.5082  0.2546  0.0525
19586SOL    HW162256   7.889   7.634   9.763 -0.5128 -0.6524 -1.1258
19586SOL    HW262257   7.758   7.570   9.722 -1.9347  0.3010  1.6517
19587SOL     OW62258   8.720   2.915   9.382  0.6463  0.5975 -0.1069
19587SOL    HW162259   8.757   2.870   9.458  1.9394  0.7462 -0.6268
19587SOL    HW262260   8.640   2.956   9.415  1.1938  0.6752  1.1764
19588SOL     OW62261   2.176   9.011   9.109 -0.5440 -0.2290 -0.5512
19588SOL    HW162262   2.199   8.930   9.154  0.7810  0.1231 -0.5357
19588SOL    HW262263   2.143   9.069   9.177 -0.1221 -0.2682 -0.3106
19589SOL     OW62264   7.232  10.745   8.270  0.2260  0.0961  0.2676
19589SOL    HW162265   7.237  10.840   8.256  0.9600  0.0864  0.4284
19589SOL    HW262266   7.272  10.731   8.356 -1.6573 -0.1588  1.1598
19590SOL     OW62267   6.410   3.014   8.706  0.1119 -0.2713 -0.0623
19590SOL    HW162268   6.390   2.929   8.746 -1.2467  0.5503  1.1263
19590SOL    HW262269   6.325   3.046   8.675  0.4776  0.9622  0.1596
19591SOL     OW62270  10.902   1.046   7.274 -0.1344  0.0847 -0.3160
19591SOL    HW162271  10.862   1.123   7.234  1.4181  1.2393  0.2795
19591SOL    HW262272  10.971   1.019   7.214 -1.0996 -1.3043 -0.8575
19592SOL     OW62273   9.152   7.280   8.641  0.5983  0.3063 -0.3400
19592SOL    HW162274   9.162   7.237   8.726  1.7459 -0.4503 -0.8422
19592SOL    HW262275   9.069   7.328   8.649 -0.3765 -1.4271  0.4715
19593SOL     OW62276   3.211   2.076   4.321  0.3049 -0.1820  0.1513
19593SOL    HW162277   3.184   2.122   4.242 -2.4019 -1.0459  0.4553
19593SOL    HW262278   3.232   1.987   4.291  2.0151  0.2208  0.0644
19594SOL     OW62279   3.438   4.591   8.064 -0.0462 -0.0453  0.2113
19594SOL    HW162280   3.372   4.610   7.997 -0.0653 -0.0046  0.2413
19594SOL    HW262281   3.486   4.673   8.075  0.9443 -0.4623 -0.8237
19595SOL     OW62282   3.320  10.409   7.839  0.3991 -0.1209 -0.2152
19595SOL    HW162283   3.337  10.319   7.810 -1.3086 -0.6392  0.2598
19595SOL    HW262284   3.343  10.463   7.763 -0.9510 -1.1893 -1.4483
19596SOL     OW62285   1.698   0.116   2.530  0.2613  0.2560 -0.3135
19596SOL    HW162286   1.791   0.109   2.550  0.8387  1.9169 -2.0325
19596SOL    HW262287   1.656   0.134   2.614  1.5643  0.0617  0.4002
19597SOL     OW62288   1.441   7.863   2.002  0.0612 -0.7066  0.1503
19597SOL    HW162289   1.362   7.836   1.956  0.0894 -1.0990  0.3265
19597SOL    HW262290   1.429   7.957   2.019  0.5523 -0.2742 -1.6699
19598SOL     OW62291  10.410   6.681   9.649 -0.7343  0.6932 -0.0210
19598SOL    HW162292  10.397   6.609   9.587 -2.8679 -0.6767  1.8540
19598SOL    HW262293  10.333   6.736   9.638 -0.0400  1.6772 -0.0942
19599SOL     OW62294   7.206   9.111   9.429  0.6341 -1.2461 -0.1247
19599SOL    HW162295   7.204   9.202   9.399 -0.5139 -0.9323  0.8281
19599SOL    HW262296   7.261   9.066   9.365 -0.7367 -0.3718 -2.0215
19600SOL     OW62297  10.880   3.439   3.820  0.1562  0.6373  0.1976
19600SOL    HW162298  10.861   3.365   3.762  0.0019  0.1116  0.9050
19600SOL    HW262299  10.973   3.457   3.806  0.5342 -0.5787  1.0155
19601SOL     OW62300   7.171   5.501  10.357  0.4738 -0.2368  0.5039
19601SOL    HW162301   7.225   5.476  10.283 -2.9793 -0.0623 -2.3408
19601SOL    HW262302   7.135   5.419  10.390 -0.7094 -0.0787 -0.3442
19602SOL     OW62303   6.115   9.423   9.643  0.2482 -0.0394  0.5043
19602SOL    HW162304   6.082   9.362   9.577  0.2865  0.0018  0.4475
19602SOL    HW262305   6.071   9.397   9.724 -0.1421  0.1959  0.3719
19603SOL     OW62306   5.795   8.325   4.945  0.3615 -0.2448 -0.0835
19603SOL    HW162307   5.764   8.416   4.950 -1.1554 -0.7599  0.7015
19603SOL    HW262308   5.718   8.276   4.916  0.9271 -1.3848  0.2937
19604SOL     OW62309   3.991  10.580   9.780  0.2509  0.5913  0.4269
19604SOL    HW162310   4.015  10.670   9.755 -1.8204  0.9333 -0.5369
19604SOL    HW262311   4.022  10.526   9.708  1.5814  0.4644  1.0482
19605SOL     OW62312  10.263   3.059   8.157  0.0334 -0.5301  0.5018
19605SOL    HW162313  10.242   3.043   8.065 -1.5242  2.9506  0.0941
19605SOL    HW262314  10.218   2.988   8.204 -2.8876 -0.0108 -1.2189
19606SOL     OW62315   2.467   6.740  10.745 -0.3001 -0.3220 -0.7263
19606SOL    HW162316   2.384   6.786  10.749  0.9117  1.9270  1.5558
19606SOL    HW262317   2.527   6.802  10.703  0.8928 -0.6437  0.4264
19607SOL     OW62318   4.352   7.004   8.290  0.2536 -0.3828 -0.3299
19607SOL    HW162319   4.339   6.920   8.245 -1.1423 -0.6206  0.4721
19607SOL    HW262320   4.423   6.987   8.351  1.4436 -0.3584 -1.6464
19608SOL     OW62321   1.544   4.673   3.361  0.3252  0.3396 -0.2338
19608SOL    HW162322   1.466   4.630   3.327 -0.3960 -0.1287  1.8724
19608SOL    HW262323   1.593   4.603   3.405  1.0018  0.9784  0.0527
19609SOL     OW62324   0.088   1.329   8.602  0.0797  0.5342 -0.1478
19609SOL    HW162325  -0.001   1.299   8.623 -0.4769  0.9612 -1.7835
19609SOL    HW262326   0.075   1.414   8.560  1.3247  0.9412  0.2425
19610SOL     OW62327   2.101   9.306   7.350  0.4158 -0.2468  0.3197
19610SOL    HW162328   2.009   9.332   7.363  0.1206 -0.2727 -1.5470
19610SOL    HW262329   2.101   9.254   7.270  2.2533  0.7394 -0.3755
19611SOL     OW62330   4.438   1.688   0.007  0.5238 -0.4316  0.4032
19611SOL    HW162331   4.532   1.708   0.008  0.3717  0.2866  1.1813
19611SOL    HW262332   4.424   1.643  -0.076  1.4430  0.0174 -0.0082
19612SOL     OW62333   3.879   6.231   3.097  0.1612  0.1057  0.0966
19612SOL    HW162334   3.810   6.244   3.033 -2.2168 -0.8591  2.2856
19612SOL    HW262335   3.906   6.320   3.121 -1.5365  0.5797  0.3693
19613SOL     OW62336   4.645   7.320   6.779  0.0974 -0.4906 -0.0141
19613SOL    HW162337   4.739   7.310   6.795  0.1021 -0.9956 -0.3272
19613SOL    HW262338   4.607   7.237   6.809 -0.0219 -1.0416 -1.5725
19614SOL     OW62339   2.741   6.053   2.055  0.5805 -0.3020  0.4072
19614SOL    HW162340   2.746   6.125   2.118  0.6149  0.7671 -0.7793
19614SOL    HW262341   2.674   5.994   2.091  0.5609  0.3097  1.4014
19615SOL     OW62342   4.936   1.644   8.232  0.5557 -0.7720 -0.4703
19615SOL    HW162343   4.937   1.548   8.238  0.9531 -0.8823 -1.9622
19615SOL    HW262344   4.942   1.662   8.139  0.7765  0.7286 -0.1839
19616SOL     OW62345   1.429   7.302   7.472  0.4916 -0.3379 -0.1882
19616SOL    HW162346   1.342   7.262   7.463  0.1703  0.1647  0.5137
19616SOL    HW262347   1.459   7.272   7.558  0.3416  0.7279  0.2462
19617SOL     OW62348   7.085   8.202   0.929 -0.7454  0.4133 -0.2438
19617SOL    HW162349   7.094   8.259   0.853 -0.7528  0.4741 -0.1994
19617SOL    HW262350   7.051   8.120   0.894 -0.2549  0.2656 -0.3761
19618SOL     OW62351   6.637   5.816   8.034  0.5894  0.2819 -0.2062
19618SOL    HW162352   6.649   5.824   7.939 -0.4020 -2.0057 -0.5859
19618SOL    HW262353   6.594   5.732   8.046  2.1984 -0.2868  2.4138
19619SOL     OW62354   6.069   1.716   4.665  0.0004 -0.5279 -0.1518
19619SOL    HW162355   6.012   1.754   4.599 -0.5585  0.3744  0.8079
19619SOL    HW262356   6.157   1.742   4.640  0.1044 -2.3457 -1.9248
19620SOL     OW62357   8.346   7.925   0.040 -0.0005 -0.4930 -0.3866
19620SOL    HW162358   8.256   7.934   0.009  0.8789  0.0225 -3.0730
19620SOL    HW262359   8.377   7.843   0.001  0.1453 -1.7199  2.1385
19621SOL     OW62360   3.672   2.132   5.424 -0.3314  0.1734 -0.0710
19621SOL    HW162361   3.669   2.188   5.502  1.8564 -0.0456  0.2523
19621SOL    HW262362   3.665   2.043   5.459  1.4729  0.0276  0.0328
19622SOL     OW62363   1.571   5.606   4.333 -0.3509  0.1955 -0.9480
19622SOL    HW162364   1.560   5.700   4.352  0.5433  0.2294 -0.5601
19622SOL    HW262365   1.483   5.576   4.310 -0.8084  0.9365 -0.2178
19623SOL     OW62366   9.749   0.179   2.233  0.4476 -0.5541  0.2466
19623SOL    HW162367   9.816   0.116   2.259  1.6912  0.3020 -0.7609
19623SOL    HW262368   9.790   0.264   2.244 -0.5908  0.0077 -0.0970
19624SOL     OW62369   8.016   1.941   1.482  0.1432 -0.2892 -0.1525
19624SOL    HW162370   8.032   1.919   1.573  1.7567 -1.1575 -0.6232
19624SOL    HW262371   7.950   2.011   1.486 -0.3400 -0.7971  1.6199
19625SOL     OW62372   5.998   6.338   5.942 -0.1231 -0.3439 -0.3442
19625SOL    HW162373   5.928   6.355   6.005 -1.3595 -1.3576 -1.3816
19625SOL    HW262374   6.062   6.285   5.991 -0.2608  0.2649  0.5114
19626SOL     OW62375   1.813   4.796   8.128  0.5515  0.1107  0.0615
19626SOL    HW162376   1.879   4.862   8.108  0.6790 -0.2786 -0.8101
19626SOL    HW262377   1.748   4.843   8.180  0.1950  1.1643 -1.2855
19627SOL     OW62378   2.226   3.269   6.235 -0.9281  0.4161 -0.1344
19627SOL    HW162379   2.300   3.303   6.285 -0.7711 -1.5448  1.0938
19627SOL    HW262380   2.262   3.196   6.185 -1.3217  1.6765 -2.3904
19628SOL     OW62381   6.043   6.560   4.729  0.8986 -0.1843  0.3494
19628SOL    HW162382   5.971   6.581   4.787 -0.5641 -3.2315 -0.1416
19628SOL    HW262383   6.041   6.628   4.662 -2.2030 -0.6463 -0.1752
19629SOL     OW62384  10.054   4.780   8.831  0.1376  0.1167 -0.6940
19629SOL    HW162385  10.077   4.760   8.922 -1.8281  1.1937  0.1105
19629SOL    HW262386  10.138   4.789   8.787  1.1676  0.0339  1.1300
19630SOL     OW62387   6.375   4.650   8.144 -0.4432 -0.3150  0.3232
19630SOL    HW162388   6.296   4.699   8.121  0.9952  1.1546 -1.7108
19630SOL    HW262389   6.396   4.600   8.065  0.6079 -0.8157  0.9017
19631SOL     OW62390   0.580   3.899   1.719 -0.0380  0.0253  0.0736
19631SOL    HW162391   0.542   3.850   1.792  0.9404  0.9930  1.2664
19631SOL    HW262392   0.622   3.832   1.665 -3.4793 -1.1335 -1.4403
19632SOL     OW62393   3.877   8.441   6.121  0.4754 -0.2188  0.4972
19632SOL    HW162394   3.839   8.384   6.188 -2.2441 -0.5599 -1.1792
19632SOL    HW262395   3.934   8.384   6.070 -0.9950 -1.1356 -0.1913
19633SOL     OW62396   7.468   7.360   9.114 -0.1155  0.4841 -0.2955
19633SOL    HW162397   7.486   7.442   9.068  1.4423  0.9416  1.0069
19633SOL    HW262398   7.403   7.383   9.180 -0.9321  0.2633 -1.0089
19634SOL     OW62399   0.992   9.526   5.512  0.0204  0.9373  0.1510
19634SOL    HW162400   1.086   9.520   5.532 -0.0034  1.6428  0.4963
19634SOL    HW262401   0.988   9.571   5.428  0.0297 -0.1755 -0.4697
19635SOL     OW62402   3.539   0.975   0.879 -0.2163 -0.3489  0.5124
19635SOL    HW162403   3.473   1.040   0.855  2.9134  2.9274 -0.1196
19635SOL    HW262404   3.574   1.005   0.963  1.7530 -0.7183 -0.1088
19636SOL     OW62405   1.294  10.037   9.001  0.6595 -0.0407 -0.4922
19636SOL    HW162406   1.260   9.948   9.006  2.1060 -0.5787  0.4245
19636SOL    HW262407   1.364  10.031   8.935 -0.7489  0.9870 -2.1792
19637SOL     OW62408   7.720  10.956   1.142  0.3631 -0.0352  0.3792
19637SOL    HW162409   7.731  10.863   1.163  0.2823 -0.1548 -0.0945
19637SOL    HW262410   7.717  10.958   1.047 -1.0122  0.3055  0.4238
19638SOL     OW62411   2.068   8.199   0.872  0.1199  0.0555  0.5876
19638SOL    HW162412   2.062   8.290   0.902 -2.2130 -0.2197  1.0796
19638SOL    HW262413   1.994   8.189   0.812  0.8738 -1.2868 -0.1495
19639SOL     OW62414   9.713   1.684   2.921  0.5366 -0.5767  0.0960
19639SOL    HW162415   9.707   1.756   2.859  0.1344 -0.8010 -0.1300
19639SOL    HW262416   9.786   1.631   2.890  0.0975 -0.8992 -0.4223
19640SOL     OW62417   3.312   9.637   9.774  1.0693 -0.0320 -0.3184
19640SOL    HW162418   3.256   9.603   9.844  0.8580 -1.0696 -0.9760
19640SOL    HW262419   3.400   9.606   9.795  1.0512 -0.1121 -0.3592
19641SOL     OW62420   8.912   3.038   7.112 -0.6995 -0.2493  0.4306
19641SOL    HW162421   8.879   3.126   7.095 -0.2817  0.0271  1.0201
19641SOL    HW262422   8.975   3.023   7.041 -1.3502 -0.3895 -0.1239
19642SOL     OW62423   5.510  10.601   2.431  0.3135  0.1651  0.1054
19642SOL    HW162424   5.463  10.518   2.422  0.6749  0.0106 -0.3688
19642SOL    HW262425   5.467  10.645   2.504 -0.7674  0.1643 -0.5269
19643SOL     OW62426   4.937   7.470   1.524  0.1367 -0.5668  0.5426
19643SOL    HW162427   4.867   7.464   1.460  0.5681 -0.2475  0.0307
19643SOL    HW262428   4.945   7.564   1.542 -0.5254 -0.7043  1.6860
19644SOL     OW62429  10.417   9.862   8.144 -0.0790 -0.2603  0.1707
19644SOL    HW162430  10.365   9.869   8.224  0.2679 -0.1758  0.3916
19644SOL    HW262431  10.429   9.953   8.115 -1.0191 -0.3445 -0.5135
19645SOL     OW62432   8.946   8.033   3.006 -0.4636  0.1868  0.2063
19645SOL    HW162433   9.005   7.988   3.066 -0.5177 -0.1789 -0.0074
19645SOL    HW262434   9.002   8.089   2.954 -0.4698  0.8275  0.8845
19646SOL     OW62435   0.880   9.511   0.457  0.2013  0.1237 -0.4412
19646SOL    HW162436   0.844   9.547   0.376 -0.2226  1.4224  0.2915
19646SOL    HW262437   0.973   9.535   0.454  0.6251 -1.5392 -1.4312
19647SOL     OW62438   0.719  10.982   2.947 -0.7924 -0.3368  0.0348
19647SOL    HW162439   0.735  11.067   2.988  1.2453 -0.6323 -0.0060
19647SOL    HW262440   0.735  10.997   2.854  0.2845 -0.8830  0.1152
19648SOL     OW62441   4.347   6.472   9.024  0.3730 -0.9382  0.3124
19648SOL    HW162442   4.274   6.524   9.058  0.5846 -0.3500 -0.1101
19648SOL    HW262443   4.401   6.535   8.977  0.4098 -1.6284 -0.5869
19649SOL     OW62444   7.356   8.458  10.668 -0.1102 -0.5851 -1.0432
19649SOL    HW162445   7.274   8.483  10.709  0.2893  3.1282 -2.1829
19649SOL    HW262446   7.398   8.399  10.731 -0.6918  2.6680  2.7827
19650SOL     OW62447   1.645   8.180   2.747 -0.5041  0.1363 -0.4944
19650SOL    HW162448   1.579   8.161   2.815  0.2499 -1.5532 -0.1771
19650SOL    HW262449   1.701   8.246   2.787 -1.0671  0.4090 -0.1359
19651SOL     OW62450   9.587   8.940   0.840  0.1450 -0.4657  0.7433
19651SOL    HW162451   9.556   8.849   0.842  1.0253 -0.9756 -2.5995
19651SOL    HW262452   9.508   8.991   0.819  0.0663 -0.7711  0.2756
19652SOL     OW62453   5.578   7.127   3.034 -0.2782  0.7410  0.0985
19652SOL    HW162454   5.632   7.126   3.113 -0.4763  0.3027  0.2355
19652SOL    HW262455   5.639   7.110   2.962 -0.5044 -2.2476  0.4624
19653SOL     OW62456   0.680   7.161   9.031  0.2314 -0.0279  0.1010
19653SOL    HW162457   0.691   7.236   9.090  0.1538 -0.8730  1.2088
19653SOL    HW262458   0.741   7.178   8.959  1.3080  0.3627  1.0858
19654SOL     OW62459   2.261   8.160   8.634 -0.5004  0.2584 -0.4100
19654SOL    HW162460   2.243   8.212   8.556 -1.3439  1.6168  0.6355
19654SOL    HW262461   2.355   8.172   8.650 -0.1910 -0.5177 -1.5123
19655SOL     OW62462   3.816   4.745   6.158  0.3013 -0.4922  0.0083
19655SOL    HW162463   3.824   4.797   6.238  1.5136 -0.0269 -0.3781
19655SOL    HW262464   3.723   4.747   6.136  0.2283  0.9949  0.3658
19656SOL     OW62465   0.314  10.181  10.747 -0.1713 -0.4008  0.1452
19656SOL    HW162466   0.309  10.201  10.840  0.0168  1.7717 -0.2559
19656SOL    HW262467   0.226  10.197  10.714  0.0364 -0.0109 -0.2364
19657SOL     OW62468   1.758   0.031   5.184 -0.1016 -0.2620  0.5208
19657SOL    HW162469   1.851   0.014   5.168 -0.4320 -2.2100  0.4760
19657SOL    HW262470   1.757   0.090   5.259  1.1973  1.2947 -0.6024
19658SOL     OW62471   8.898   8.575   5.088 -0.3168  0.8196 -0.1104
19658SOL    HW162472   8.931   8.661   5.062  3.3074 -0.3716 -0.0135
19658SOL    HW262473   8.861   8.538   5.008  2.5179  0.6963 -1.5042
19659SOL     OW62474   4.827   3.109   4.596  0.3393 -0.0116 -0.5281
19659SOL    HW162475   4.841   3.194   4.553  0.3303  0.9830  1.3365
19659SOL    HW262476   4.733   3.106   4.614  0.6171  0.5115  1.1746
19660SOL     OW62477   0.151   1.694   0.773 -0.1549  0.3806 -0.4877
19660SOL    HW162478   0.124   1.622   0.716 -0.1413 -0.1422  0.1537
19660SOL    HW262479   0.240   1.714   0.746  0.0160 -0.1743 -0.3508
19661SOL     OW62480   0.930   5.838   0.549 -0.1263  0.0172  0.5550
19661SOL    HW162481   0.955   5.898   0.478  3.1463 -0.3194  1.2589
19661SOL    HW262482   0.973   5.755   0.526 -1.2095 -0.8761  1.6387
19662SOL     OW62483  10.510   3.387   3.502 -0.7884 -0.2826 -0.2707
19662SOL    HW162484  10.521   3.478   3.476  0.5551 -0.7233 -1.4020
19662SOL    HW262485  10.438   3.388   3.565  1.4661  2.0941  2.6050
19663SOL     OW62486   4.894   6.007  10.751  0.3514 -0.3356 -0.0063
19663SOL    HW162487   4.843   6.078  10.791 -0.8116 -0.7594 -0.6789
19663SOL    HW262488   4.915   6.040  10.663 -0.4611 -0.9162 -0.4344
19664SOL     OW62489   4.542   4.784   5.468  0.5669 -0.2486  0.6040
19664SOL    HW162490   4.544   4.775   5.373  1.4262  1.3494  0.4206
19664SOL    HW262491   4.598   4.714   5.500  0.9614 -0.2776 -0.1310
19665SOL     OW62492   3.688   6.221   9.196  0.3873 -0.1081  0.2063
19665SOL    HW162493   3.695   6.202   9.103  0.4258  2.5055 -0.3982
19665SOL    HW262494   3.747   6.296   9.210  1.6603 -1.4241  2.6936
19666SOL     OW62495   5.232   9.627   1.969 -0.1367  0.8695 -0.4476
19666SOL    HW162496   5.300   9.642   2.035 -0.0961 -0.2749 -0.2069
19666SOL    HW262497   5.149   9.636   2.017 -0.1193  0.5677 -0.3617
19667SOL     OW62498   1.471   5.698   7.081 -0.3052 -0.3491 -0.0434
19667SOL    HW162499   1.416   5.673   7.155  0.4107  0.4623  0.8012
19667SOL    HW262500   1.560   5.699   7.117  0.0894 -0.2352 -0.9983
19668SOL     OW62501   4.690   5.184   7.092  0.1390  0.3498  0.7200
19668SOL    HW162502   4.634   5.262   7.097  0.2176  0.4740 -0.1861
19668SOL    HW262503   4.776   5.214   7.120  0.1558  0.5746  0.4302
19669SOL     OW62504   0.071   8.802   4.546 -0.0592 -0.1696 -0.3483
19669SOL    HW162505   0.083   8.726   4.604  0.3229  1.1614  1.4084
19669SOL    HW262506  -0.023   8.815   4.541 -0.0742  0.4783  1.1051
19670SOL     OW62507   3.038   5.228  11.008 -0.2924 -0.1186  0.4374
19670SOL    HW162508   2.965   5.290  10.997 -2.2301 -2.0717  1.5501
19670SOL    HW262509   3.033   5.171  10.932 -1.0040 -1.2505  1.2987
19671SOL     OW62510   6.268   1.430   6.017 -0.1072  0.4173  0.0412
19671SOL    HW162511   6.272   1.419   5.922  0.1515 -1.3454  0.2145
19671SOL    HW262512   6.236   1.346   6.049  2.8387 -0.2226  1.7030
19672SOL     OW62513   4.282   5.251   0.736 -0.3958  0.1803  0.3320
19672SOL    HW162514   4.289   5.274   0.643 -2.3303 -1.8342 -0.3996
19672SOL    HW262515   4.373   5.248   0.766  0.3445  0.1356 -1.7037
19673SOL     OW62516   8.030   8.719   8.501 -0.0047  0.3173 -0.5882
19673SOL    HW162517   8.038   8.644   8.560 -2.0937  0.3577 -0.1922
19673SOL    HW262518   7.969   8.690   8.433  1.0088  0.8750 -1.7842
19674SOL     OW62519   7.269   6.425   0.744  0.2005 -0.1704 -0.0880
19674SOL    HW162520   7.217   6.448   0.822 -1.8987  3.4931 -2.2523
19674SOL    HW262521   7.327   6.500   0.732  0.9125 -0.9532 -1.7347
19675SOL     OW62522  10.429  10.624  10.523  0.3907  0.0004 -0.2184
19675SOL    HW162523  10.343  10.615  10.564 -0.0861  0.6358 -1.0427
19675SOL    HW262524  10.452  10.716  10.535  1.7721 -0.4965  1.5080
19676SOL     OW62525   5.958  10.027  10.772  0.0615  0.0796 -0.3367
19676SOL    HW162526   5.891   9.960  10.784  0.8037 -0.6296 -0.1377
19676SOL    HW262527   6.039   9.986  10.800  0.6136  0.8838 -0.7241
19677SOL     OW62528  10.740   4.091   0.966  0.2692 -0.3835 -0.4509
19677SOL    HW162529  10.690   4.073   0.887  1.2745 -1.1322 -0.9348
19677SOL    HW262530  10.831   4.094   0.937  0.4668  2.3697  0.1491
19678SOL     OW62531   0.086   4.341   7.382 -0.0942  0.2506  0.1538
19678SOL    HW162532   0.172   4.318   7.347 -0.4188 -2.0165  0.6940
19678SOL    HW262533   0.089   4.436   7.393  2.0125  0.3225 -0.6766
19679SOL     OW62534   4.344   8.951   6.621  0.1079 -0.3961 -0.1089
19679SOL    HW162535   4.409   8.947   6.691  0.6251 -0.7530 -0.5991
19679SOL    HW262536   4.275   9.008   6.655  0.5872 -0.1663  0.4900
19680SOL     OW62537  10.077   4.151   2.897 -0.3412 -0.2009  0.4346
19680SOL    HW162538  10.057   4.062   2.926 -1.4831  0.2161  0.9838
19680SOL    HW262539  10.015   4.168   2.826  0.4430 -0.1325 -0.2589
19681SOL     OW62540   9.747   6.376   8.031 -0.4086  0.3489  0.1545
19681SOL    HW162541   9.677   6.354   7.969 -0.5012  1.2520 -0.0795
19681SOL    HW262542   9.767   6.294   8.074 -0.5119 -0.2594 -0.9113
19682SOL     OW62543   3.048   1.882   6.053  0.7133  0.4053 -0.5657
19682SOL    HW162544   2.961   1.842   6.047  0.6351  0.3798  0.5057
19682SOL    HW262545   3.048   1.949   5.985 -0.0395  0.2002 -0.7774
19683SOL     OW62546   4.099   8.145   3.187  0.0550  0.2532  0.1451
19683SOL    HW162547   4.172   8.138   3.248  0.3954  2.7545  0.1236
19683SOL    HW262548   4.022   8.121   3.238  0.6847 -0.9078  0.5884
19684SOL     OW62549   9.916   4.734   2.550  0.3018  0.2392 -0.2359
19684SOL    HW162550   9.903   4.679   2.627  0.8001  0.8842  0.3229
19684SOL    HW262551   9.829   4.764   2.527  0.2381  0.6749  0.5570
19685SOL     OW62552   9.924   3.859   5.431 -0.3128  0.2724  0.0113
19685SOL    HW162553  10.010   3.875   5.471  0.8480 -0.2774 -2.1092
19685SOL    HW262554   9.933   3.892   5.342 -1.0851 -2.9038 -1.3987
19686SOL     OW62555   1.103   1.420   3.833 -0.4824  0.3294 -0.6112
19686SOL    HW162556   1.151   1.403   3.914 -1.5823 -0.6213 -0.1282
19686SOL    HW262557   1.022   1.461   3.861  0.2363  2.4342 -1.4610
19687SOL     OW62558   0.295   2.335   1.325 -0.2871  0.4908 -0.0198
19687SOL    HW162559   0.218   2.301   1.279  0.3752  3.0636 -3.4529
19687SOL    HW262560   0.358   2.264   1.321 -1.4155 -0.5504 -0.0380
19688SOL     OW62561   5.184   3.495   0.095  0.3120 -0.5399 -0.0119
19688SOL    HW162562   5.259   3.526   0.045  1.4556 -1.6338  0.9273
19688SOL    HW262563   5.220   3.423   0.148 -1.2871 -0.7387  0.8514
19689SOL     OW62564   1.010   9.077   1.884 -0.6980  0.5527 -0.4090
19689SOL    HW162565   0.941   9.044   1.942 -2.0525 -0.4696 -2.4891
19689SOL    HW262566   1.024   9.006   1.821  0.3149  1.8384 -1.6778
19690SOL     OW62567  10.706   1.593   8.756 -0.4460  0.3481  0.1400
19690SOL    HW162568  10.778   1.648   8.727 -0.3585  0.3805  0.4205
19690SOL    HW262569  10.737   1.503   8.742  0.9914  0.2245  3.3271
19691SOL     OW62570   0.784   3.117   9.794  0.7767 -0.4251  0.5907
19691SOL    HW162571   0.733   3.199   9.799 -0.3310 -0.9914 -0.8640
19691SOL    HW262572   0.726   3.051   9.831  0.6924 -0.9684 -0.4851
19692SOL     OW62573   7.633   9.904   0.808  0.1383 -0.1477  0.5994
19692SOL    HW162574   7.554   9.910   0.861  0.4527 -0.6450  1.1362
19692SOL    HW262575   7.602   9.905   0.718 -0.4225  0.4149  0.7903
19693SOL     OW62576   4.840   6.780   1.100  0.2674 -0.4043  0.5791
19693SOL    HW162577   4.769   6.843   1.084  0.9254  0.0721 -0.5663
19693SOL    HW262578   4.799   6.694   1.088  0.0522 -0.1179 -0.8972
19694SOL     OW62579   8.150   4.342   4.667  0.2641  0.9714  0.3404
19694SOL    HW162580   8.119   4.269   4.614 -0.1842  1.0130  0.5381
19694SOL    HW262581   8.141   4.419   4.610  1.8841  0.7183 -0.2965
19695SOL     OW62582   1.646   0.516   0.925 -0.9948  0.6673  0.4978
19695SOL    HW162583   1.660   0.460   1.001 -1.0200 -0.0241  0.0009
19695SOL    HW262584   1.733   0.526   0.887 -1.2929 -0.8754 -0.6758
19696SOL     OW62585   8.103  10.593   6.799  0.2368  0.0688 -0.4793
19696SOL    HW162586   8.154  10.519   6.834  0.3147 -0.4313 -1.5747
19696SOL    HW262587   8.158  10.669   6.814 -0.0039 -0.0293  1.0028
19697SOL     OW62588   4.535   8.274   3.820  0.3154  0.0741 -0.2297
19697SOL    HW162589   4.480   8.203   3.854 -1.1414 -0.4668 -3.3708
19697SOL    HW262590   4.618   8.233   3.797  1.7432  0.6381  3.2477
19698SOL     OW62591   3.297   6.669   9.015  0.8218  0.0279 -0.0088
19698SOL    HW162592   3.205   6.645   9.005  0.1727  1.9875  0.8578
19698SOL    HW262593   3.305   6.696   9.106  1.4987  2.7547 -0.8004
19699SOL     OW62594   4.198   9.576   5.406  0.1177  0.3428 -0.1943
19699SOL    HW162595   4.142   9.532   5.342 -0.0025 -0.0327  0.1636
19699SOL    HW262596   4.211   9.510   5.475  3.0095 -0.5286 -1.4114
19700SOL     OW62597   2.548   6.498   4.268 -0.4376  0.2530  0.3446
19700SOL    HW162598   2.542   6.577   4.322 -2.1714  1.7750 -1.8998
19700SOL    HW262599   2.459   6.463   4.266  0.2557 -1.6854  1.0908
19701SOL     OW62600   9.324   4.198   7.966 -0.0394  0.8422 -0.1222
19701SOL    HW162601   9.329   4.105   7.987 -1.0353  0.8829  0.3553
19701SOL    HW262602   9.240   4.227   8.002  1.0806  2.3549  1.4464
19702SOL     OW62603   5.379   3.253   1.980 -0.5452  0.4611  0.0869
19702SOL    HW162604   5.378   3.185   1.912 -0.7730  1.6267 -1.1092
19702SOL    HW262605   5.287   3.265   2.002 -0.5284  0.6028  0.0756
19703SOL     OW62606  10.124   2.313   5.321  0.1921 -0.0783  0.2644
19703SOL    HW162607  10.132   2.408   5.332  2.1878 -0.4256  3.0584
19703SOL    HW262608  10.035   2.293   5.350 -0.8358  1.0194 -1.9098
19704SOL     OW62609   9.495   3.773  10.555 -0.1840 -0.1884  0.8783
19704SOL    HW162610   9.564   3.827  10.517 -0.7944 -0.1739 -0.2497
19704SOL    HW262611   9.415   3.825  10.545 -1.0747 -1.8403 -1.6592
19705SOL     OW62612   5.038  10.538   0.427  0.0547  0.0464  0.3523
19705SOL    HW162613   4.969  10.593   0.464  1.0216  1.9062 -0.4696
19705SOL    HW262614   5.075  10.493   0.503 -0.3333  1.0662  1.1729
19706SOL     OW62615   2.843   2.939   8.118 -0.3482  0.4853  0.2710
19706SOL    HW162616   2.857   3.000   8.045  1.2334  0.4306  0.5044
19706SOL    HW262617   2.930   2.925   8.155 -1.1062  0.4391  2.1363
19707SOL     OW62618  10.929   7.710   1.018 -0.1734  0.2310 -0.5570
19707SOL    HW162619  11.004   7.731   1.074  1.4730 -0.4785 -2.4306
19707SOL    HW262620  10.870   7.785   1.029 -0.7390 -0.5705  3.3307
19708SOL     OW62621   4.463   4.964   9.551 -0.4961  0.0840 -0.0870
19708SOL    HW162622   4.496   4.889   9.600  1.6264  1.2476  0.3552
19708SOL    HW262623   4.449   4.930   9.462  0.8123 -0.7537  0.0056
19709SOL     OW62624   4.356   8.643   1.259  0.3716  0.0299 -0.1348
19709SOL    HW162625   4.402   8.669   1.179 -0.8194  3.9895  0.2310
19709SOL    HW262626   4.280   8.593   1.228 -0.6915  2.4359 -1.6967
19710SOL     OW62627   8.683   0.716   0.906 -0.4352 -0.0040 -0.0371
19710SOL    HW162628   8.621   0.715   0.834 -0.9256 -1.8524  0.3708
19710SOL    HW262629   8.705   0.624   0.921 -0.5617  0.2807  2.3412
19711SOL     OW62630   9.763   0.881   7.131  0.3193 -0.4072 -0.5516
19711SOL    HW162631   9.834   0.824   7.161 -0.1210 -1.4022 -1.3667
19711SOL    HW262632   9.748   0.939   7.205  0.7745 -1.3530  0.3195
19712SOL     OW62633   8.061   5.970   1.070  0.1566 -0.1280  0.0667
19712SOL    HW162634   7.970   5.999   1.071  0.3334  0.6135 -2.0184
19712SOL    HW262635   8.065   5.905   1.000  1.5758  1.1588 -1.1037
19713SOL     OW62636   4.459   8.773   2.899  0.8193 -0.0853  0.1806
19713SOL    HW162637   4.422   8.689   2.925  0.6884 -0.2784 -0.5843
19713SOL    HW262638   4.537   8.749   2.847  0.9069  0.2694  0.1460
19714SOL     OW62639  10.429   0.967   9.564 -0.1898 -0.2462  0.2604
19714SOL    HW162640  10.434   1.049   9.615  2.3251  0.1349 -0.4462
19714SOL    HW262641  10.433   0.898   9.630  2.0338  0.2455  0.7280
19715SOL     OW62642   3.929   5.554   2.467 -0.3198  0.1743 -0.0212
19715SOL    HW162643   3.980   5.484   2.509  2.2960  2.7129  1.4010
19715SOL    HW262644   3.864   5.578   2.533 -0.2357  0.0854  0.0953
19716SOL     OW62645   7.983   8.864   0.730  0.7131 -0.1885  0.2850
19716SOL    HW162646   7.915   8.927   0.753 -1.1504 -0.7015 -3.0115
19716SOL    HW262647   8.065   8.911   0.740 -0.3685  1.5680  1.3262
19717SOL     OW62648  10.973   2.728  10.310  0.4718  0.0669  0.0137
19717SOL    HW162649  11.000   2.642  10.279 -2.8137 -0.6626 -1.2482
19717SOL    HW262650  11.047   2.760  10.362  1.7650 -3.5351  0.6232
19718SOL     OW62651   4.830  10.894   6.863 -0.3126 -0.2799  0.3748
19718SOL    HW162652   4.819  10.980   6.905  1.9955  0.2879 -0.0177
19718SOL    HW262653   4.924  10.876   6.872 -0.4619 -1.9650 -1.0843
19719SOL     OW62654   3.907  10.829   3.360 -0.0709  0.3528 -0.0286
19719SOL    HW162655   3.821  10.865   3.378 -0.3132  0.0714 -0.5878
19719SOL    HW262656   3.890  10.749   3.309  0.4977  0.0404  0.2578
19720SOL     OW62657   1.674   8.797   5.007 -0.2008  0.2668 -0.1366
19720SOL    HW162658   1.698   8.705   5.016 -0.1288  0.1813 -1.1916
19720SOL    HW262659   1.578   8.797   5.003 -0.2377  0.3095  0.5468
19721SOL     OW62660   0.417   8.509   4.359 -0.4323  0.3578 -0.0768
19721SOL    HW162661   0.505   8.477   4.337 -0.6018 -0.7674  0.7772
19721SOL    HW262662   0.380   8.440   4.415 -2.2855  0.2961 -1.3162
19722SOL     OW62663   1.405   2.823  10.364 -0.0061 -0.5819 -0.5481
19722SOL    HW162664   1.381   2.855  10.278  1.0935  0.4065 -0.5033
19722SOL    HW262665   1.464   2.750  10.347  1.3984  0.5404 -0.6630
19723SOL     OW62666   2.473   0.055   1.492  0.0215 -0.4683 -0.2838
19723SOL    HW162667   2.563   0.035   1.466  0.2004 -0.4209  0.2882
19723SOL    HW262668   2.436   0.101   1.417  0.3589 -0.8122 -0.6638
19724SOL     OW62669   0.502   0.098   1.480  0.1487 -0.4045 -0.1083
19724SOL    HW162670   0.547   0.153   1.417 -0.7926  1.5623  0.8281
19724SOL    HW262671   0.423   0.069   1.434 -0.1538  0.3873 -0.1034
19725SOL     OW62672   0.945   6.876   8.490 -0.3182 -0.2111  0.5696
19725SOL    HW162673   0.918   6.786   8.472  2.3712 -0.8232 -1.0282
19725SOL    HW262674   0.911   6.926   8.415 -0.2786 -0.2349  0.5357
19726SOL     OW62675   7.191   5.066   2.541 -0.4687  0.1339  0.3091
19726SOL    HW162676   7.270   5.102   2.581 -0.8302  1.4172 -0.0634
19726SOL    HW262677   7.222   4.997   2.483  0.3843  0.6133  0.1831
19727SOL     OW62678  10.046  10.048   1.552 -0.2625 -0.3926  0.0970
19727SOL    HW162679  10.126  10.087   1.589  0.8185 -0.0095 -2.4809
19727SOL    HW262680  10.070   9.957   1.535 -0.3531 -0.2680 -0.7081
19728SOL     OW62681   0.399   8.706   5.702 -0.9816  0.5040 -0.0756
19728SOL    HW162682   0.397   8.611   5.715 -1.6138  0.6286  0.8675
19728SOL    HW262683   0.492   8.728   5.694 -0.7482 -0.0448  0.9440
19729SOL     OW62684   0.856   9.700  10.602  0.2834  0.1640  0.5872
19729SOL    HW162685   0.890   9.747  10.678 -0.5840 -0.0667  1.1262
19729SOL    HW262686   0.848   9.609  10.631 -2.0589  0.4150  0.9611
19730SOL     OW62687   0.799   5.414   2.685  0.1633 -0.2793  0.3201
19730SOL    HW162688   0.804   5.329   2.730 -1.3755  0.2231  1.5399
19730SOL    HW262689   0.769   5.392   2.597 -0.0447 -1.0126  0.5632
19731SOL     OW62690   9.889   5.867   3.419 -0.1061  0.0964  0.1355
19731SOL    HW162691   9.930   5.938   3.468 -0.4516 -0.1084  0.7365
19731SOL    HW262692   9.926   5.787   3.456 -1.8119 -0.1429  1.4583
19732SOL     OW62693   0.039   8.732   0.861 -0.1280 -0.4466  0.2777
19732SOL    HW162694  -0.015   8.805   0.891 -0.0172 -0.2306 -0.0435
19732SOL    HW262695  -0.000   8.655   0.903 -1.3047 -0.4216 -0.7179
19733SOL     OW62696  10.369   8.827  10.224 -0.6588  0.3051  0.3469
19733SOL    HW162697  10.432   8.859  10.289 -0.1526  0.3858 -0.1680
19733SOL    HW262698  10.414   8.754  10.181 -0.3221  1.2714 -1.0132
19734SOL     OW62699   5.652   9.984   7.977  0.2787 -0.0140  0.2422
19734SOL    HW162700   5.634   9.920   8.046  0.1801 -1.5985 -1.1984
19734SOL    HW262701   5.583   9.970   7.912  0.0961  1.7685 -0.0222
19735SOL     OW62702   3.863   9.716   5.488  0.1800  0.0591 -0.0020
19735SOL    HW162703   3.939   9.767   5.461 -0.5893  2.7113  2.3010
19735SOL    HW262704   3.789   9.756   5.442 -0.1738 -0.4929  0.0735
19736SOL     OW62705   5.199  10.157   6.066  0.5238 -0.2322 -0.3470
19736SOL    HW162706   5.169  10.073   6.032  0.5263 -0.6613  0.6815
19736SOL    HW262707   5.218  10.140   6.159  1.7624  0.5883 -0.4362
19737SOL     OW62708   3.774   4.995   7.407 -0.0110  0.1482 -0.2196
19737SOL    HW162709   3.796   4.911   7.446 -1.8996 -0.1337  0.3437
19737SOL    HW262710   3.726   4.972   7.327 -2.2000  0.6063  0.8916
19738SOL     OW62711   7.476   0.585   7.313 -0.0183 -0.7126  0.1898
19738SOL    HW162712   7.457   0.535   7.233 -2.3060 -0.4231  0.4671
19738SOL    HW262713   7.512   0.667   7.282 -2.0769 -0.0737 -0.7202
19739SOL     OW62714   3.287  10.169   0.640 -0.4521 -0.6611 -1.1107
19739SOL    HW162715   3.207  10.140   0.598  0.0852 -0.8637 -2.0171
19739SOL    HW262716   3.296  10.113   0.717 -1.4150 -0.3220 -0.7405
19740SOL     OW62717   8.111   7.770   2.013  0.1114  0.3521 -0.1339
19740SOL    HW162718   8.020   7.773   2.044  0.1157  2.0582 -0.1893
19740SOL    HW262719   8.156   7.839   2.063  0.9809  0.6372 -1.2554
19741SOL     OW62720   9.290   6.964  10.696  0.5186 -0.0749  0.1368
19741SOL    HW162721   9.275   6.875  10.728  0.6145  0.4129  1.6078
19741SOL    HW262722   9.380   6.962  10.662 -0.1215 -1.0106 -1.6392
19742SOL     OW62723   7.810   6.684   8.431 -0.0373  0.1722  0.6987
19742SOL    HW162724   7.860   6.724   8.502  1.5390  0.5733 -0.5821
19742SOL    HW262725   7.812   6.590   8.450  1.3159  0.1708  0.6350
19743SOL     OW62726   9.662   9.508   2.259 -0.2660  0.6962 -0.3680
19743SOL    HW162727   9.679   9.577   2.195  0.3159 -0.3991 -1.4495
19743SOL    HW262728   9.706   9.431   2.223 -0.2311 -0.0583  1.1830
19744SOL     OW62729   5.373   7.922   2.482 -0.3483  0.0831  0.2910
19744SOL    HW162730   5.312   7.890   2.415 -0.4758  2.3063 -0.7277
19744SOL    HW262731   5.459   7.895   2.451 -0.6110 -1.5295  0.8390
19745SOL     OW62732  10.185   5.242   1.399  0.0451  0.3250  0.0265
19745SOL    HW162733  10.221   5.175   1.341 -1.3561 -0.7843  0.4024
19745SOL    HW262734  10.215   5.325   1.360  0.0043 -0.4130 -1.6954
19746SOL     OW62735   8.339  11.002   3.742 -0.4760  0.6750 -0.1405
19746SOL    HW162736   8.377  10.917   3.717  0.5641  0.3135  2.3992
19746SOL    HW262737   8.356  11.059   3.667  1.5980 -0.5472 -0.6664
19747SOL     OW62738   1.729   4.530   7.328 -0.0861  0.1541  0.3959
19747SOL    HW162739   1.685   4.450   7.300  1.8877  0.1484 -3.3091
19747SOL    HW262740   1.663   4.598   7.319 -0.6311 -0.4762 -0.5880
19748SOL     OW62741   0.130   5.366   5.452 -0.1229 -0.1279  0.1676
19748SOL    HW162742   0.134   5.305   5.526  2.4079  1.4978  1.4928
19748SOL    HW262743   0.096   5.447   5.490  0.6851  0.5605 -0.5408
19749SOL     OW62744   7.037   7.929  10.002 -0.1470 -0.6847  0.2993
19749SOL    HW162745   6.954   7.899  10.038  0.1272  0.0157  1.6004
19749SOL    HW262746   7.044   7.886   9.917 -2.1970 -0.1191 -0.2041
19750SOL     OW62747   6.085   8.810   0.140  0.5873  0.1134 -0.0096
19750SOL    HW162748   6.099   8.901   0.168  0.6742  0.5552 -1.4429
19750SOL    HW262749   5.994   8.807   0.113 -0.0395 -0.7959  1.9861
19751SOL     OW62750   0.055   0.539   2.088  0.2711  0.3044  0.1435
19751SOL    HW162751   0.004   0.614   2.057  1.1551  0.7889 -0.1983
19751SOL    HW262752   0.117   0.578   2.150  0.6831 -0.1535  0.0237
19752SOL     OW62753   8.765   5.539   8.473 -0.2094  1.1076  0.4842
19752SOL    HW162754   8.811   5.468   8.517 -1.5621  1.2794  2.3294
19752SOL    HW262755   8.825   5.613   8.478 -0.1573  1.0107  1.7942
19753SOL     OW62756   0.217   8.905  10.430 -0.3672 -0.0799 -0.3437
19753SOL    HW162757   0.188   8.814  10.432  1.0688 -0.5620 -0.2220
19753SOL    HW262758   0.177   8.944  10.507  1.5337 -1.4697  1.4616
19754SOL     OW62759   8.632   0.444   0.912 -0.4695 -0.0251  0.9626
19754SOL    HW162760   8.664   0.395   0.988 -0.1321  0.1293  0.9235
19754SOL    HW262761   8.585   0.380   0.860  0.4841 -0.4560  0.6055
19755SOL     OW62762   0.828   4.287  10.658  0.3152  0.0907 -0.0334
19755SOL    HW162763   0.887   4.240  10.598 -1.5421  0.2479 -2.1321
19755SOL    HW262764   0.867   4.275  10.744  0.9726 -3.6902 -0.6784
19756SOL     OW62765   6.531   7.377  10.334  0.2446  0.2659  0.1663
19756SOL    HW162766   6.568   7.366  10.422 -0.9145  3.1168  1.1168
19756SOL    HW262767   6.480   7.457  10.339 -1.3313 -0.4230 -2.6757
19757SOL     OW62768  10.201  10.620   6.245 -0.1318 -0.1812  0.0712
19757SOL    HW162769  10.210  10.695   6.305  1.6956  1.3348 -1.9106
19757SOL    HW262770  10.286  10.576   6.250  0.3505  0.4218 -1.8427
19758SOL     OW62771   9.865   2.172  10.128 -0.2500  0.2656 -0.6124
19758SOL    HW162772   9.813   2.251  10.143 -0.9303 -0.4090  0.7577
19758SOL    HW262773   9.802   2.101  10.138  0.8772 -0.5616  0.8566
19759SOL     OW62774   3.315   4.887   4.027  0.2321 -0.4558 -0.0868
19759SOL    HW162775   3.346   4.807   3.985  0.4728 -1.2253  1.4867
19759SOL    HW262776   3.228   4.866   4.061 -0.0167  0.1879 -0.3019
19760SOL     OW62777  10.314   5.098   9.520  0.1089  0.1264 -0.1586
19760SOL    HW162778  10.305   5.037   9.446  2.1128 -0.4064 -0.0314
19760SOL    HW262779  10.262   5.174   9.495 -1.5829 -1.1814 -0.8102
19761SOL     OW62780   7.507   7.849  10.831 -0.4396  0.2153 -0.3812
19761SOL    HW162781   7.475   7.861  10.920  1.0171 -1.1594  0.3648
19761SOL    HW262782   7.440   7.797  10.788 -1.3623  1.2611 -0.2402
19762SOL     OW62783   1.258   9.352   7.990  0.2138  0.4361  0.4966
19762SOL    HW162784   1.170   9.389   7.979  0.1864  0.6408  1.3668
19762SOL    HW262785   1.279   9.317   7.903 -0.5152  0.8362  0.1417
19763SOL     OW62786   0.338   7.690   4.921 -0.4721  0.0223  0.2495
19763SOL    HW162787   0.254   7.646   4.925 -0.0040 -0.8107  1.5211
19763SOL    HW262788   0.368   7.694   5.012  0.1411  1.7404  0.0182
19764SOL     OW62789   2.704   3.159   6.317  0.9762 -0.6603  0.0597
19764SOL    HW162790   2.785   3.203   6.344  0.2191 -1.1776  3.7150
19764SOL    HW262791   2.635   3.223   6.335  0.4168 -0.0197 -3.4990
19765SOL     OW62792   5.612   0.005   8.280  0.4586 -0.2114 -0.1776
19765SOL    HW162793   5.565  -0.049   8.343  0.3283  1.3163  1.1003
19765SOL    HW262794   5.563   0.088   8.279  1.6632  0.5120 -0.7127
19766SOL     OW62795   5.586   5.565   6.391 -0.0176 -0.0121 -0.0733
19766SOL    HW162796   5.616   5.495   6.333  0.0969 -0.9166  1.0410
19766SOL    HW262797   5.638   5.553   6.471 -2.1181 -0.5672  1.2876
19767SOL     OW62798   5.096   3.106   8.548 -0.2481 -0.4244 -0.4358
19767SOL    HW162799   5.059   3.186   8.512  1.0987  0.0414 -0.8618
19767SOL    HW262800   5.185   3.103   8.513 -0.2021 -2.0143 -0.2744
19768SOL     OW62801   9.833   9.873   2.225 -0.4538 -0.4979  0.5993
19768SOL    HW162802   9.750   9.887   2.271 -0.2204  0.3469  0.7652
19768SOL    HW262803   9.812   9.807   2.158 -1.1034 -0.7552  1.0471
19769SOL     OW62804   9.541   7.114   1.347  0.1288  0.4282  0.2038
19769SOL    HW162805   9.562   7.032   1.302  0.4301  0.6152 -0.0029
19769SOL    HW262806   9.530   7.089   1.439  1.0480  0.2784  0.2865
19770SOL     OW62807   5.527   4.206   6.276  0.8526 -0.4760  0.0149
19770SOL    HW162808   5.505   4.299   6.286 -0.8999 -0.6468 -1.6293
19770SOL    HW262809   5.609   4.196   6.323  1.1065  1.9181  0.2243
19771SOL     OW62810   6.336   0.542   5.957 -0.1050 -0.0286  0.2035
19771SOL    HW162811   6.420   0.498   5.950 -0.3378 -0.4212 -0.2057
19771SOL    HW262812   6.341   0.591   6.039  0.4659 -0.1583  0.2512
19772SOL     OW62813   7.496   8.955   1.165  0.0597 -0.1406  0.4020
19772SOL    HW162814   7.445   9.008   1.225  1.0728 -1.2877  2.3782
19772SOL    HW262815   7.583   8.951   1.204  0.4777 -1.7820 -0.5750
19773SOL     OW62816   8.884   3.213  10.964 -1.0327 -0.0835  0.3126
19773SOL    HW162817   8.970   3.173  10.956  0.1261  2.4030 -0.5711
19773SOL    HW262818   8.824   3.149  10.926  0.9114 -0.3039 -2.6939
19774SOL     OW62819   7.484  10.802   5.624  0.2777  0.3291 -0.8021
19774SOL    HW162820   7.538  10.880   5.611  1.4139  0.2777  2.6517
19774SOL    HW262821   7.395  10.836   5.634  0.5848  1.0653 -0.4892
19775SOL     OW62822   9.253   5.882   1.551  0.1643 -0.7714  0.5585
19775SOL    HW162823   9.276   5.949   1.487 -1.0842 -0.7586  0.0878
19775SOL    HW262824   9.226   5.931   1.629  2.5388 -0.7945  1.4585
19776SOL     OW62825   1.912   5.120   3.678 -0.1473  0.2568 -0.3702
19776SOL    HW162826   1.881   5.206   3.707 -0.0069  0.1540  0.0950
19776SOL    HW262827   1.914   5.067   3.758 -0.1924 -0.1689 -0.6450
19777SOL     OW62828   5.083   8.511   3.324 -0.1280 -0.2882  0.3402
19777SOL    HW162829   5.113   8.455   3.396  2.2707 -0.8255 -0.9586
19777SOL    HW262830   5.007   8.465   3.287  1.1643 -2.2253 -0.0438
19778SOL     OW62831   4.976   1.098   0.280 -0.4247  0.2791 -0.1547
19778SOL    HW162832   5.058   1.146   0.287  0.5264 -1.1460 -1.0778
19778SOL    HW262833   4.917   1.143   0.341  0.6095  2.1557 -0.4483
19779SOL     OW62834   4.728   7.687   4.212  0.2785  0.2210 -0.2205
19779SOL    HW162835   4.764   7.776   4.215 -0.1954  0.4727 -1.2559
19779SOL    HW262836   4.634   7.700   4.200 -0.0445 -0.4274  1.4063
19780SOL     OW62837   1.295   2.869   7.065 -0.1986 -0.0170  0.4952
19780SOL    HW162838   1.204   2.864   7.038 -0.0690  0.6324 -0.0924
19780SOL    HW262839   1.332   2.783   7.045 -0.0783  0.4678 -1.5262
19781SOL     OW62840   5.240   8.942   2.197  0.1170 -0.0917  0.3983
19781SOL    HW162841   5.204   8.949   2.285  0.7011 -1.8873  0.8365
19781SOL    HW262842   5.275   8.853   2.192  1.4201  0.4367 -1.1508
19782SOL     OW62843   0.069   4.806   1.388  0.7914 -0.2339  0.1778
19782SOL    HW162844   0.025   4.724   1.411  1.0047 -1.8924 -4.3504
19782SOL    HW262845   0.162   4.783   1.385  1.2176  1.0921  1.8701
19783SOL     OW62846   7.176  10.753   3.232 -0.5673 -0.4957 -0.0490
19783SOL    HW162847   7.178  10.804   3.151 -0.1560 -0.4123  0.0145
19783SOL    HW262848   7.254  10.781   3.280 -0.9490 -0.3544  0.4943
19784SOL     OW62849   1.745   1.151   1.980  0.0516  0.2021  0.2786
19784SOL    HW162850   1.693   1.096   1.922 -0.2568 -2.0084  2.4677
19784SOL    HW262851   1.707   1.239   1.970 -0.7555 -0.3312 -1.8889
19785SOL     OW62852   6.972   8.580   9.441  0.1018  0.4874  0.5322
19785SOL    HW162853   7.066   8.567   9.429  0.2323 -0.9739  2.6067
19785SOL    HW262854   6.931   8.513   9.385  0.3967 -0.4886  1.4600
19786SOL     OW62855   2.398   1.781   0.701  0.0569 -0.9876 -0.5627
19786SOL    HW162856   2.475   1.824   0.738 -0.1494  0.7953 -2.0371
19786SOL    HW262857   2.324   1.817   0.751  0.0157 -1.1268 -0.5213
19787SOL     OW62858   8.991   1.746   5.734 -0.0628 -0.1288  0.0964
19787SOL    HW162859   9.040   1.828   5.738  0.5045 -0.4200 -0.6097
19787SOL    HW262860   9.058   1.678   5.724 -0.5313 -0.6717  0.5201
19788SOL     OW62861   9.785  10.525   2.607  0.1415 -0.3101  0.5890
19788SOL    HW162862   9.701  10.527   2.653  0.1969 -1.4734  0.7808
19788SOL    HW262863   9.819  10.437   2.623  1.1390 -0.0424  0.0450
19789SOL     OW62864   2.674   9.285   4.290  0.1424  0.2410  0.4316
19789SOL    HW162865   2.634   9.199   4.286 -1.7186  1.0542  0.5028
19789SOL    HW262866   2.705   9.293   4.380 -0.8256  0.1159  0.7875
19790SOL     OW62867   1.630   0.579   2.244  0.9016 -0.7572  0.4669
19790SOL    HW162868   1.598   0.526   2.317 -0.8578  0.3748  0.5836
19790SOL    HW262869   1.620   0.523   2.167 -0.8718 -0.6909  0.5980
19791SOL     OW62870   1.660   1.295   9.333 -0.0956 -0.4576  0.0466
19791SOL    HW162871   1.592   1.310   9.268 -0.5004 -0.2795  0.5069
19791SOL    HW262872   1.616   1.249   9.404 -0.1112  1.0250  1.0382
19792SOL     OW62873  10.487   8.680   2.171 -0.0891  0.3229  0.3906
19792SOL    HW162874  10.443   8.765   2.172 -0.9259 -0.0744 -0.5965
19792SOL    HW262875  10.553   8.687   2.103  0.6297  0.5400  1.0911
19793SOL     OW62876   2.080   2.467   0.268 -0.1906 -0.0968 -0.2791
19793SOL    HW162877   2.038   2.383   0.289  0.0188 -0.3503 -0.8284
19793SOL    HW262878   2.156   2.442   0.215 -0.2256  0.4501 -0.5938
19794SOL     OW62879   2.055   9.987   5.891  0.1023  0.5531  0.1904
19794SOL    HW162880   2.080   9.925   5.823  0.2640  1.4256 -0.5566
19794SOL    HW262881   2.039  10.069   5.845  1.2290  1.4424  1.3111
19795SOL     OW62882   7.437   2.817   9.304  0.0601  0.6842 -0.6401
19795SOL    HW162883   7.421   2.884   9.371  1.5390 -0.1027  0.5599
19795SOL    HW262884   7.514   2.847   9.257  0.4904  0.0501 -0.3604
19796SOL     OW62885   4.411   1.894   0.230 -0.1708 -0.0186  0.2612
19796SOL    HW162886   4.337   1.869   0.285  0.0356 -0.9466  0.1345
19796SOL    HW262887   4.405   1.836   0.154  1.7531 -1.4634  1.1331
19797SOL     OW62888   7.482   6.131   0.975 -0.0029 -0.3590 -0.8457
19797SOL    HW162889   7.504   6.171   0.890 -0.4357 -0.0792 -0.8297
19797SOL    HW262890   7.411   6.186   1.009 -0.0677 -0.6815 -0.4623
19798SOL     OW62891   5.809   3.404   3.852 -0.2085 -0.1149 -0.2807
19798SOL    HW162892   5.807   3.406   3.756 -1.8387  0.8671 -0.2530
19798SOL    HW262893   5.769   3.320   3.875 -2.0374  0.6678 -0.4577
19799SOL     OW62894   1.937   2.553   7.960 -0.3554  0.0675  0.2602
19799SOL    HW162895   1.901   2.618   7.900  0.0209  0.0149 -0.0197
19799SOL    HW262896   1.866   2.538   8.023 -0.0351  1.6002  1.0205
19800SOL     OW62897   7.975   0.226   2.629  0.3335 -0.2674 -0.3540
19800SOL    HW162898   8.001   0.137   2.651 -0.4107 -0.7575 -1.3765
19800SOL    HW262899   7.891   0.239   2.673  0.0538 -0.3645 -0.8500
19801SOL     OW62900   2.664   7.593   0.547 -0.2134 -0.2835  0.3738
19801SOL    HW162901   2.680   7.499   0.537 -1.0097 -0.3608 -0.2935
19801SOL    HW262902   2.744   7.634   0.514  0.3063 -0.7290  1.0603
19802SOL     OW62903   9.308   4.861   9.378 -0.2193 -0.0966 -0.4921
19802SOL    HW162904   9.234   4.920   9.393 -1.9725 -1.9921 -1.3507
19802SOL    HW262905   9.316   4.810   9.459  2.7551  2.6241  1.1922
19803SOL     OW62906   7.409   7.728   1.767  0.4219 -0.1662  0.2663
19803SOL    HW162907   7.328   7.717   1.816  1.8334  0.2469  2.9315
19803SOL    HW262908   7.388   7.701   1.678 -2.4108 -0.7416  1.0121
19804SOL     OW62909   3.592   6.883  10.964 -0.5252  0.2611 -0.0649
19804SOL    HW162910   3.526   6.879  11.033 -1.8111  0.2594 -1.2411
19804SOL    HW262911   3.599   6.976  10.942  0.6894  0.3960  0.7725
19805SOL     OW62912   8.635   7.911   6.475  0.5674 -0.2809  0.6057
19805SOL    HW162913   8.673   7.967   6.543  0.6676 -0.0223  0.3400
19805SOL    HW262914   8.711   7.873   6.430  0.6479  1.8265 -1.2729
19806SOL     OW62915   3.191   7.652   3.724  0.7303  0.1741 -0.4396
19806SOL    HW162916   3.257   7.689   3.666 -0.4607 -0.6456 -2.4050
19806SOL    HW262917   3.116   7.712   3.718 -1.3164 -2.3470 -3.8568
19807SOL     OW62918   5.824   6.074   9.281  0.2220 -0.6487  0.5013
19807SOL    HW162919   5.881   5.999   9.268  0.7142 -0.3608  0.9699
19807SOL    HW262920   5.740   6.048   9.243  0.4655 -1.3343  0.4341
19808SOL     OW62921   7.300   3.593   1.293  0.1240 -0.0062 -0.5901
19808SOL    HW162922   7.316   3.532   1.221  1.3843  0.2484 -0.5526
19808SOL    HW262923   7.302   3.680   1.251 -0.4254  0.0775 -0.4469
19809SOL     OW62924   8.631   4.238   9.718  0.0922  0.0237  0.3336
19809SOL    HW162925   8.628   4.326   9.757 -1.2838  0.8693 -1.5404
19809SOL    HW262926   8.697   4.244   9.650  1.7607 -1.1603  1.7559
19810SOL     OW62927   6.390   7.477   1.586  0.1454 -0.1183  0.2536
19810SOL    HW162928   6.413   7.532   1.511  0.4121 -0.5317  0.0315
19810SOL    HW262929   6.337   7.534   1.642 -1.3213 -0.2407 -0.9487
19811SOL     OW62930   6.496   5.992   7.156  0.7942  0.2302 -0.1857
19811SOL    HW162931   6.540   6.061   7.206  1.5665 -0.0202 -0.5062
19811SOL    HW262932   6.563   5.925   7.143  0.9130  0.7021 -2.3712
19812SOL     OW62933   6.159  10.076   8.436  0.0455  0.5079 -0.0663
19812SOL    HW162934   6.195   9.988   8.449  0.3085  0.8087  1.3795
19812SOL    HW262935   6.113  10.070   8.352 -0.1640 -1.0838  0.1194
19813SOL     OW62936   2.531   9.520   9.369  0.4079 -0.1680  0.4492
19813SOL    HW162937   2.473   9.541   9.443 -0.4968  0.6403 -0.4485
19813SOL    HW262938   2.619   9.538   9.401  0.0389  0.0921  1.3526
19814SOL     OW62939  10.686   8.014   8.284  0.2985 -0.2129  0.3232
19814SOL    HW162940  10.763   7.961   8.264  0.4635  0.5466 -1.1674
19814SOL    HW262941  10.639   8.021   8.201  0.2028  1.8227  0.5039
19815SOL     OW62942  10.190   6.150   4.952  0.6019 -0.7944  0.1233
19815SOL    HW162943  10.125   6.186   5.011  0.5039  0.0271 -0.4552
19815SOL    HW262944  10.169   6.188   4.867  3.2184  1.4530  0.3306
19816SOL     OW62945   6.886  10.625   1.339  0.1630  0.3834  0.5421
19816SOL    HW162946   6.949  10.695   1.354  1.3506 -0.7428  0.9391
19816SOL    HW262947   6.827  10.629   1.415  0.6573  0.4927  0.9228
19817SOL     OW62948   3.960   1.994   1.899  0.5171  0.7311 -0.1952
19817SOL    HW162949   3.986   2.023   1.812  1.6028  0.3238 -0.0170
19817SOL    HW262950   4.037   2.009   1.954  0.4881 -0.7324  0.2838
19818SOL     OW62951   6.867   8.366   8.985  0.1642 -0.4043  0.3831
19818SOL    HW162952   6.876   8.414   9.067  1.2470  0.1844 -0.0548
19818SOL    HW262953   6.955   8.334   8.967 -0.0869 -0.6121 -0.4998
19819SOL     OW62954   7.912   0.115   6.152  0.2394 -0.6316  0.1926
19819SOL    HW162955   7.890   0.148   6.065  1.4420  1.9089  0.7468
19819SOL    HW262956   8.007   0.128   6.160  0.0477  0.0223  2.1376
19820SOL     OW62957   4.819   0.092  10.614  0.7554  0.4133 -0.4131
19820SOL    HW162958   4.876   0.059  10.684  0.8442  1.9813  0.3063
19820SOL    HW262959   4.847   0.045  10.536  1.1339 -0.8786  0.4666
19821SOL     OW62960   2.877   2.530   9.042 -0.4269  0.2612 -1.2139
19821SOL    HW162961   2.784   2.508   9.037 -0.7444  1.4133 -0.7331
19821SOL    HW262962   2.893   2.545   9.135 -0.2657  2.0689 -1.4985
19822SOL     OW62963   1.684   6.320  10.072  0.0165  0.2854 -0.4960
19822SOL    HW162964   1.704   6.247  10.130 -0.0299  1.0161  0.4780
19822SOL    HW262965   1.671   6.280   9.986  1.6137 -0.6534 -0.3312
19823SOL     OW62966   5.925   4.306   7.507 -0.1590 -0.3761 -0.0829
19823SOL    HW162967   5.962   4.336   7.425 -0.6418  1.6313  0.3726
19823SOL    HW262968   5.866   4.234   7.483 -0.7637  0.5832 -1.5730
19824SOL     OW62969   7.332   1.245   4.534  0.2133 -0.0168 -0.3661
19824SOL    HW162970   7.297   1.200   4.457 -0.9714  0.8299 -0.3414
19824SOL    HW262971   7.262   1.304   4.561  0.3274 -0.7742  1.7645
19825SOL     OW62972   6.832   8.435   1.501 -0.3982  0.2312  0.0013
19825SOL    HW162973   6.835   8.391   1.586  0.5602  0.4171  0.0738
19825SOL    HW262974   6.865   8.370   1.439 -1.3448  0.0082 -0.2730
19826SOL     OW62975   2.242   6.444   0.807  0.0840 -0.3497  0.2151
19826SOL    HW162976   2.235   6.398   0.890 -0.0199 -0.3034  0.2318
19826SOL    HW262977   2.258   6.535   0.831  1.6234 -0.5791  0.1832
19827SOL     OW62978   0.680   3.261   3.709 -0.2745 -0.1441 -0.1807
19827SOL    HW162979   0.763   3.290   3.746  0.9685 -3.2184 -0.2844
19827SOL    HW262980   0.704   3.224   3.624 -1.8202 -0.6334 -0.4252
19828SOL     OW62981   9.990   7.058   3.207 -0.3658 -0.4243  0.0831
19828SOL    HW162982  10.006   7.075   3.114 -0.0329  0.7123  0.3343
19828SOL    HW262983  10.051   6.987   3.228 -0.0208 -0.2871 -0.4241
19829SOL     OW62984   2.005   0.971  10.833 -0.0513  0.4238 -0.1637
19829SOL    HW162985   1.968   0.982  10.921 -1.2253  0.7625 -0.6720
19829SOL    HW262986   1.929   0.950  10.778  0.9697 -2.3460 -0.6891
19830SOL     OW62987   0.309   3.795   8.799 -0.3713  0.6967  0.0467
19830SOL    HW162988   0.365   3.789   8.876 -2.0056  1.1198  1.3109
19830SOL    HW262989   0.228   3.752   8.825 -0.5108 -0.3264 -1.8998
19831SOL     OW62990   6.267   3.909   2.371  0.3195  0.0268 -0.1940
19831SOL    HW162991   6.203   3.962   2.419  1.9075  1.6662  0.2179
19831SOL    HW262992   6.234   3.907   2.281 -0.9996 -0.3574  0.2626
19832SOL     OW62993   0.815   0.757   3.048 -0.2349 -0.1575 -0.5263
19832SOL    HW162994   0.892   0.764   2.991  0.9919 -0.4477  1.0235
19832SOL    HW262995   0.804   0.845   3.083  1.5851 -0.7885  1.9033
19833SOL     OW62996   9.671   9.448   6.418 -0.5357  0.1264  0.2201
19833SOL    HW162997   9.604   9.445   6.350 -0.8968 -1.2020  0.6104
19833SOL    HW262998   9.641   9.387   6.485  1.0952 -0.5887  0.3641
19834SOL     OW62999   6.590   6.153   2.876  0.3258 -0.6620 -0.2173
19834SOL    HW163000   6.654   6.162   2.806 -1.9264  1.5497 -2.1772
19834SOL    HW263001   6.597   6.061   2.903  1.9130 -1.3517 -2.7041
19835SOL     OW63002   8.719   8.589   7.606 -0.2590  0.5640  0.0123
19835SOL    HW163003   8.774   8.659   7.572 -1.4140  1.1817 -0.6295
19835SOL    HW263004   8.631   8.611   7.577 -0.7964 -0.6203  0.6708
19836SOL     OW63005   8.668   3.500   5.163 -0.1685  0.5893 -0.2506
19836SOL    HW163006   8.734   3.515   5.232 -0.9990 -0.7431  0.9017
19836SOL    HW263007   8.635   3.412   5.181 -0.6572  0.3325 -2.1927
19837SOL     OW63008   7.345   2.132  10.997 -0.0746 -0.2672 -0.1477
19837SOL    HW163009   7.336   2.069  11.069  0.5963 -0.4432 -0.2029
19837SOL    HW263010   7.403   2.087  10.935 -0.0311  0.1916 -0.4384
19838SOL     OW63011   2.427   4.982   3.377  0.0871 -0.2592  0.5072
19838SOL    HW163012   2.372   4.983   3.299  1.1734 -1.7117 -0.3042
19838SOL    HW263013   2.374   4.936   3.443 -0.0053 -0.8993 -0.0108
19839SOL     OW63014   9.836   5.649   1.681  0.1715  0.2083  0.4773
19839SOL    HW163015   9.785   5.727   1.658 -0.9360 -0.5926  0.0888
19839SOL    HW263016   9.806   5.626   1.769 -0.1374 -0.2618  0.2517
19840SOL     OW63017   3.034   9.352   2.815  0.0881 -0.0013 -0.0933
19840SOL    HW163018   3.066   9.361   2.905  0.5836 -0.0786 -0.2578
19840SOL    HW263019   3.102   9.392   2.761 -0.5418  0.7077 -0.3928
19841SOL     OW63020   4.696   1.211   5.933 -0.7081 -0.1071  0.3340
19841SOL    HW163021   4.723   1.270   6.003 -0.5523  0.9126 -0.5586
19841SOL    HW263022   4.637   1.149   5.975  2.1263 -1.7928  2.1712
19842SOL     OW63023   0.627  10.727   4.268  0.3212  0.0079  0.5800
19842SOL    HW163024   0.632  10.803   4.326  0.6033  0.0841  0.4594
19842SOL    HW263025   0.619  10.765   4.180  0.3077 -0.1036  0.5326
19843SOL     OW63026   2.755   0.156   6.219  0.6285 -0.2015  0.3376
19843SOL    HW163027   2.698   0.102   6.274  0.9268  0.8910  1.7693
19843SOL    HW263028   2.824   0.187   6.278  1.0592  0.8836 -0.6888
19844SOL     OW63029   9.011   5.086   7.312  0.4937 -0.4774 -0.0737
19844SOL    HW163030   9.010   5.141   7.233  0.4826 -0.0738  0.2004
19844SOL    HW263031   8.929   5.107   7.357  1.3029  0.6572  0.9481
19845SOL     OW63032   8.791   5.614   7.817 -0.5130  0.7825 -0.4341
19845SOL    HW163033   8.805   5.704   7.788  0.9872  0.6285 -0.2603
19845SOL    HW263034   8.696   5.602   7.815 -0.8983  2.9661  1.3048
19846SOL     OW63035   1.534   5.119   0.934  0.0212 -0.2781  0.5353
19846SOL    HW163036   1.498   5.186   0.877 -0.8994 -2.0126 -1.0531
19846SOL    HW263037   1.604   5.078   0.883 -0.4900 -1.5557  0.8099
19847SOL     OW63038  10.438   3.508   8.848 -0.1849  0.2753 -0.0443
19847SOL    HW163039  10.450   3.545   8.936 -0.9225 -0.0834  0.2183
19847SOL    HW263040  10.413   3.583   8.794  0.0383  0.4550  0.1008
19848SOL     OW63041   9.233  10.034   1.134 -0.3641  0.3801  0.4849
19848SOL    HW163042   9.304  10.056   1.194 -0.8836  0.2972  1.1448
19848SOL    HW263043   9.269  10.051   1.046  1.3150 -2.0471  0.6233
19849SOL     OW63044   4.882   5.522   7.634 -0.5216 -0.5178 -0.4529
19849SOL    HW163045   4.855   5.553   7.720  2.2703  0.3885  0.1903
19849SOL    HW263046   4.847   5.588   7.573  1.1465  1.3242  0.4655
19850SOL     OW63047   8.702   6.016   8.831  0.0636  0.2316  0.0285
19850SOL    HW163048   8.751   5.936   8.853 -1.3292 -0.9240 -0.9009
19850SOL    HW263049   8.690   6.060   8.915  2.9665  0.7764  0.2667
19851SOL     OW63050   9.882   0.676   6.702 -0.6183  0.2613 -0.2209
19851SOL    HW163051   9.808   0.725   6.739 -0.3043  2.4093 -2.1507
19851SOL    HW263052   9.958   0.709   6.750 -0.4931  1.2341 -1.0343
19852SOL     OW63053   0.054   1.721   7.182  0.0641  0.9035  0.3222
19852SOL    HW163054   0.109   1.777   7.127 -1.0587  2.2901  0.5573
19852SOL    HW263055   0.047   1.768   7.265 -0.2799  0.0362  0.7920
19853SOL     OW63056   7.302   9.246   2.472 -0.4324  0.3268 -0.7131
19853SOL    HW163057   7.240   9.279   2.407 -0.5108 -0.2325 -0.9274
19853SOL    HW263058   7.335   9.324   2.515 -1.6900  0.6171 -0.2213
19854SOL     OW63059   5.672   6.132   7.397  0.0531  0.2474  0.6129
19854SOL    HW163060   5.749   6.076   7.389  0.5734  1.1303 -1.2258
19854SOL    HW263061   5.704   6.210   7.441  0.1955  0.5535 -0.0202
19855SOL     OW63062   8.991   9.106   1.947 -0.1717  0.0167 -0.1986
19855SOL    HW163063   8.949   9.085   2.030 -1.0529 -0.4558 -0.7456
19855SOL    HW263064   9.035   9.189   1.962 -2.1363  1.0538  0.1278
19856SOL     OW63065   5.314  10.444   4.617  0.0474  0.2197 -0.2654
19856SOL    HW163066   5.367  10.480   4.688 -0.9134 -0.0053  0.5714
19856SOL    HW263067   5.346  10.489   4.539  0.0640  1.5988  0.5138
19857SOL     OW63068   0.140   6.695   6.571  0.1414 -0.3212  0.6692
19857SOL    HW163069   0.136   6.610   6.614  0.3106 -0.6766  0.0085
19857SOL    HW263070   0.118   6.758   6.639 -0.9559 -0.9647  0.9252
19858SOL     OW63071   8.871   2.374   0.680  0.4144 -0.9664 -0.7848
19858SOL    HW163072   8.837   2.286   0.697 -1.5477 -0.4290 -1.6589
19858SOL    HW263073   8.834   2.398   0.595 -0.7530  1.4502  0.3173
19859SOL     OW63074   9.668   3.298   7.437  0.1069 -0.1330  0.1669
19859SOL    HW163075   9.613   3.244   7.381 -0.5597 -1.0099  1.6294
19859SOL    HW263076   9.672   3.251   7.520  1.0811  1.1279  0.8697
19860SOL     OW63077   0.805   2.297   3.712 -0.0819 -0.1005 -0.1917
19860SOL    HW163078   0.834   2.231   3.650 -0.5159  0.6220 -1.1977
19860SOL    HW263079   0.768   2.366   3.658 -0.8375  0.3820  0.8925
19861SOL     OW63080   2.566   5.655   8.646  0.0186  0.2712  0.3506
19861SOL    HW163081   2.536   5.741   8.619  1.0719 -0.1477 -2.4377
19861SOL    HW263082   2.514   5.593   8.594  0.9810 -0.6645  0.4609
19862SOL     OW63083   7.465   7.670   0.575 -0.1784 -0.3144  0.0554
19862SOL    HW163084   7.472   7.631   0.663 -0.0564  0.7334  0.5247
19862SOL    HW263085   7.555   7.672   0.543 -0.2095 -0.5958 -0.0522
19863SOL     OW63086   9.570   8.251   2.846 -0.2187 -0.2411  0.2667
19863SOL    HW163087   9.527   8.228   2.928 -0.0306  0.4177  0.5623
19863SOL    HW263088   9.636   8.184   2.833  1.0166  0.6555  1.6450
19864SOL     OW63089   3.913   9.217  10.550 -0.4508  0.1770 -0.3413
19864SOL    HW163090   3.974   9.225  10.477  0.3926 -2.4358 -0.0200
19864SOL    HW263091   3.881   9.127  10.545 -0.4736 -0.0580  2.4329
19865SOL     OW63092  10.567   6.929   5.588  0.0148 -0.3415  0.1281
19865SOL    HW163093  10.581   6.967   5.675  1.3380  1.8696 -0.9508
19865SOL    HW263094  10.649   6.885   5.568  0.3185  0.5305 -0.6043
19866SOL     OW63095   0.387   2.758   7.927  0.0373 -0.0153  0.1823
19866SOL    HW163096   0.354   2.672   7.952 -0.7035  0.5627  1.2947
19866SOL    HW263097   0.440   2.786   8.001 -0.3649  0.8092  0.1695
19867SOL     OW63098   9.909   4.121   4.097  0.5614 -0.3072  0.5750
19867SOL    HW163099   9.844   4.052   4.082  0.9636  0.0533 -4.7042
19867SOL    HW263100   9.866   4.201   4.068  2.9856 -0.0146 -2.8650
19868SOL     OW63101   4.684   8.120   4.654  0.2144 -0.0638 -0.1700
19868SOL    HW163102   4.669   8.026   4.646 -1.0195  0.0244  0.8058
19868SOL    HW263103   4.740   8.142   4.580  0.4530 -1.5519 -0.4523
19869SOL     OW63104   5.947   6.388   0.664 -0.1539 -0.2528 -0.2812
19869SOL    HW163105   6.030   6.395   0.712 -0.6106  2.0984  0.2767
19869SOL    HW263106   5.880   6.399   0.731 -0.8546  0.1789 -1.0402
19870SOL     OW63107   9.054   8.147   8.642  0.0213 -0.0359 -0.0860
19870SOL    HW163108   9.132   8.176   8.690 -0.2646 -0.7914  0.8656
19870SOL    HW263109   9.049   8.053   8.659  0.0806 -0.3980 -1.8819
19871SOL     OW63110  10.114   9.644   4.307  0.0951 -1.0065 -0.8672
19871SOL    HW163111  10.209   9.638   4.321 -0.0678  0.0515  1.0597
19871SOL    HW263112  10.077   9.599   4.383 -0.9312  0.8585 -0.2155
19872SOL     OW63113  10.577   2.323   3.817 -0.2244  0.1940 -0.3620
19872SOL    HW163114  10.606   2.328   3.726 -0.7311  3.4129 -0.4494
19872SOL    HW263115  10.482   2.318   3.811 -0.2918  0.9654 -0.0322
19873SOL     OW63116   3.397   1.134   4.575  0.5565 -0.6229  0.2432
19873SOL    HW163117   3.358   1.118   4.660  2.2943  0.2528  1.2589
19873SOL    HW263118   3.333   1.187   4.528 -0.6058 -1.4853  0.8119
19874SOL     OW63119  10.934   0.430   6.457 -0.0866  0.0355  0.0202
19874SOL    HW163120  10.975   0.513   6.435  1.5192 -1.1139 -1.6038
19874SOL    HW263121  10.921   0.386   6.373 -2.1048 -0.8625  0.7286
19875SOL     OW63122   5.009   9.015   4.232  0.4373  0.0674 -0.3070
19875SOL    HW163123   4.985   8.927   4.261 -0.6597 -0.6972 -3.1597
19875SOL    HW263124   4.975   9.073   4.300  0.0550 -1.6231  1.0131
19876SOL     OW63125   6.362   4.838   9.616 -0.4631  0.4686 -0.2746
19876SOL    HW163126   6.416   4.800   9.546 -1.9407  1.2285 -1.9038
19876SOL    HW263127   6.411   4.915   9.645 -0.0492  0.4186 -0.8153
19877SOL     OW63128   0.204   4.573   6.276  0.7160  0.4029 -0.1936
19877SOL    HW163129   0.290   4.552   6.312  0.5109 -1.7248 -0.8561
19877SOL    HW263130   0.154   4.602   6.352  1.7805  0.9556  0.3254
19878SOL     OW63131   6.673   7.054   4.948 -0.5796  0.4636 -0.5636
19878SOL    HW163132   6.596   7.068   4.893 -1.0901  2.4731  0.5729
19878SOL    HW263133   6.707   6.969   4.920 -2.6676 -0.0628 -1.7290
19879SOL     OW63134   9.110   6.472   1.412  0.0885  0.1080 -0.2428
19879SOL    HW163135   9.068   6.392   1.382 -0.5652  0.3267  0.0617
19879SOL    HW263136   9.185   6.442   1.464  0.7832 -0.2788 -1.4143
19880SOL     OW63137  10.861   2.954   1.235 -0.4755  0.1490  0.1484
19880SOL    HW163138  10.805   2.895   1.184  0.8414  0.8462 -2.2318
19880SOL    HW263139  10.846   3.040   1.197  1.7950  0.4319 -0.2096
19881SOL     OW63140  10.847   2.347   6.214  0.0211  0.4268  0.3752
19881SOL    HW163141  10.755   2.364   6.235  0.6609  0.8371  3.2189
19881SOL    HW263142  10.887   2.434   6.205  0.2119  0.2520 -0.7129
19882SOL     OW63143   9.750   4.800   0.462 -0.2082  0.5823 -0.2874
19882SOL    HW163144   9.664   4.839   0.475 -1.1708 -1.6409  0.4904
19882SOL    HW263145   9.781   4.837   0.379 -1.9309  1.4092 -0.5984
19883SOL     OW63146   0.526   1.288   4.509 -0.2343 -0.0661 -0.0909
19883SOL    HW163147   0.443   1.315   4.470 -0.6771 -0.7338  0.3817
19883SOL    HW263148   0.504   1.214   4.565  0.5416  0.2891  0.7176
19884SOL     OW63149   9.828   4.182   6.450 -0.6873  0.3522  0.3347
19884SOL    HW163150   9.898   4.117   6.457 -1.2609 -0.3633 -0.2696
19884SOL    HW263151   9.801   4.197   6.541  0.2057  0.5965  0.5659
19885SOL     OW63152   8.945   4.961   6.386  0.2681  0.5025 -0.3577
19885SOL    HW163153   9.017   4.901   6.404 -1.0049 -1.0844 -0.3581
19885SOL    HW263154   8.912   4.985   6.473  0.0250  0.2440 -0.3768
19886SOL     OW63155  10.334   4.972   5.290  0.0772 -0.2766  0.2445
19886SOL    HW163156  10.385   5.026   5.231  0.6130  0.2699  1.1857
19886SOL    HW263157  10.244   5.003   5.279  0.3130  0.4952  0.4344
19887SOL     OW63158   4.608   9.564  10.868 -0.3585 -0.0947 -0.4549
19887SOL    HW163159   4.595   9.623  10.942  2.0517 -0.7778  0.6005
19887SOL    HW263160   4.599   9.476  10.905 -1.2841 -0.4555 -1.4655
19888SOL     OW63161   3.221   8.297   1.088  0.3434  0.1779 -0.0310
19888SOL    HW163162   3.271   8.308   1.169  0.5944 -2.2982  0.1993
19888SOL    HW263163   3.142   8.350   1.102  2.1409  3.0180  0.1492
19889SOL     OW63164   6.229   1.053  10.243 -0.0093 -0.0623 -0.0968
19889SOL    HW163165   6.144   1.014  10.221 -1.2760  1.9690  0.9579
19889SOL    HW263166   6.271   0.987  10.299 -2.8078  0.6054  3.1006
19890SOL     OW63167   6.106   9.751   7.557  0.2681 -0.2942 -0.6617
19890SOL    HW163168   6.192   9.713   7.575 -0.8464 -2.3100  0.7933
19890SOL    HW263169   6.072   9.701   7.482  0.8372  1.3915 -2.1162
19891SOL     OW63170   2.903   8.908   1.426  0.9635 -0.3640  0.0771
19891SOL    HW163171   2.929   8.817   1.411 -1.1296 -0.8991 -0.5684
19891SOL    HW263172   2.950   8.933   1.506 -0.1113 -2.7495  1.5555
19892SOL     OW63173   5.550   6.763   2.275 -0.1672 -0.1457  0.1396
19892SOL    HW163174   5.548   6.679   2.322  1.2045 -0.0942  0.3578
19892SOL    HW263175   5.570   6.739   2.184  0.7185 -0.0438  0.2978
19893SOL     OW63176   9.969  10.697   2.464  0.3405 -0.2552 -0.0232
19893SOL    HW163177   9.956  10.668   2.373  1.1800  1.8950 -0.9076
19893SOL    HW263178   9.893  10.662   2.511  0.6727 -2.7420 -1.1733
19894SOL     OW63179   1.688   2.972   7.112  0.3517 -0.2201 -0.2115
19894SOL    HW163180   1.778   2.940   7.108  0.1642 -0.6383 -2.6528
19894SOL    HW263181   1.638   2.908   7.061 -1.0586  0.8356 -0.1956
19895SOL     OW63182   4.382   6.384   1.876  0.5696 -0.6173 -0.6334
19895SOL    HW163183   4.338   6.456   1.831 -2.0095 -2.9458 -2.1918
19895SOL    HW263184   4.318   6.356   1.942  1.3740 -1.6647 -0.2789
19896SOL     OW63185  10.969   4.145   2.504  0.1576 -0.5232  0.1742
19896SOL    HW163186  10.996   4.099   2.584  2.7378  0.3493 -0.0868
19896SOL    HW263187  10.945   4.233   2.534 -0.7758 -0.7710  0.1867
19897SOL     OW63188   3.721   9.941   6.324  0.1266  0.5197  0.2228
19897SOL    HW163189   3.717   9.990   6.406  1.2765 -0.6630  1.0389
19897SOL    HW263190   3.646   9.881   6.327  0.5019  0.0587  0.7242
19898SOL     OW63191   3.418   4.390   3.204 -0.4783  0.7968  0.0831
19898SOL    HW163192   3.342   4.401   3.262  0.2322  1.5142  0.9138
19898SOL    HW263193   3.482   4.345   3.259  0.6513  2.5593  0.2740
19899SOL     OW63194   8.709   9.643   0.202 -0.0653  0.2938 -0.4448
19899SOL    HW163195   8.741   9.557   0.230 -1.3639 -0.6369 -1.6688
19899SOL    HW263196   8.632   9.659   0.256 -0.3705  0.2338 -0.8522
19900SOL     OW63197   8.354   2.690   0.004  0.2008  0.2876 -0.2114
19900SOL    HW163198   8.300   2.612   0.017 -0.6307  0.8185 -0.3830
19900SOL    HW263199   8.324   2.752   0.070 -0.9468  1.3734 -1.6926
19901SOL     OW63200   3.114   8.880   1.238 -0.4625  0.1713  0.0810
19901SOL    HW163201   3.117   8.798   1.286  1.0826 -0.1193 -0.4595
19901SOL    HW263202   3.152   8.945   1.297  0.4618  0.0195 -0.3233
19902SOL     OW63203   7.176   5.425   7.542  0.8866  0.1707 -0.5213
19902SOL    HW163204   7.185   5.512   7.581  0.2785  0.7967 -1.7371
19902SOL    HW263205   7.260   5.383   7.561  1.3468  1.1565 -0.2554
19903SOL     OW63206   4.431   2.624   1.553  0.2551  0.3306  0.0384
19903SOL    HW163207   4.401   2.712   1.574 -2.1574 -0.5245  0.5388
19903SOL    HW263208   4.526   2.627   1.567  0.1880  2.7162  0.4090
19904SOL     OW63209   2.444   9.040   4.058 -0.7009 -0.0705  0.5850
19904SOL    HW163210   2.521   9.067   4.009 -0.7129  1.0037  1.1287
19904SOL    HW263211   2.375   9.100   4.029 -1.6946 -1.7693 -0.7983
19905SOL     OW63212   7.879   3.594   5.785  0.4565 -0.0618  0.5521
19905SOL    HW163213   7.811   3.526   5.779 -1.2782  1.6746 -0.5034
19905SOL    HW263214   7.831   3.676   5.793  2.4826  1.1392  1.0804
19906SOL     OW63215  10.429   0.331   1.004 -0.0007  0.0235  0.1508
19906SOL    HW163216  10.371   0.295   1.071 -1.4678 -0.3890 -1.2651
19906SOL    HW263217  10.407   0.425   1.001 -0.1402 -0.0117  0.0568
19907SOL     OW63218   2.092   7.493   2.917 -0.2400  0.1181  0.0120
19907SOL    HW163219   2.082   7.565   2.855 -1.3588  0.7948  0.9469
19907SOL    HW263220   2.097   7.414   2.863  2.0869  0.9300 -1.0978
19908SOL     OW63221   7.652   9.781   3.878 -0.1799  0.3012 -0.1312
19908SOL    HW163222   7.626   9.758   3.789  1.7210 -1.1308 -0.3992
19908SOL    HW263223   7.742   9.813   3.869  0.3256 -0.5916  1.3308
19909SOL     OW63224   4.612   2.757   8.935 -0.4977 -0.2975 -0.5944
19909SOL    HW163225   4.531   2.763   8.986 -0.1994  0.4442 -0.1873
19909SOL    HW263226   4.607   2.831   8.874 -0.7231 -1.0134 -1.4702
19910SOL     OW63227   7.988   3.065   9.943 -0.2805  0.4013  0.5952
19910SOL    HW163228   7.949   2.978   9.933 -0.6031  0.4470  1.4119
19910SOL    HW263229   8.059   3.066   9.879  0.0147 -0.6235  0.8761
19911SOL     OW63230   5.240   3.742   2.491  0.3715 -0.7177  0.2646
19911SOL    HW163231   5.231   3.837   2.486  0.0414 -0.8108 -1.3648
19911SOL    HW263232   5.331   3.727   2.516  0.5458  0.0193  0.0768
19912SOL     OW63233   8.911   7.753   3.848  0.0576  0.6582  0.0017
19912SOL    HW163234   8.878   7.842   3.857 -0.8851  0.2166  1.1727
19912SOL    HW263235   8.937   7.728   3.937  2.1813  0.4464 -0.6194
19913SOL     OW63236   3.758   9.425   4.983  0.3463 -0.1793  0.9203
19913SOL    HW163237   3.739   9.388   4.897 -1.5543  2.1869  0.2024
19913SOL    HW263238   3.760   9.350   5.042 -2.0451 -1.5708 -0.6072
19914SOL     OW63239   2.768   4.887   4.477 -0.1512 -0.2493  0.3113
19914SOL    HW163240   2.800   4.967   4.434 -1.4981  0.0538 -0.1664
19914SOL    HW263241   2.840   4.824   4.467  1.8236  1.4685  2.5280
19915SOL     OW63242   1.334   4.004   4.076 -0.2023 -0.1504 -0.2787
19915SOL    HW163243   1.318   4.049   4.159  0.5040  2.1300 -1.2983
19915SOL    HW263244   1.249   4.005   4.032 -0.0150  0.9698 -0.6356
19916SOL     OW63245  10.263  10.239   7.714  0.6109 -0.4179  0.0116
19916SOL    HW163246  10.338  10.213   7.661  1.5247 -0.2930  1.2012
19916SOL    HW263247  10.247  10.330   7.691  1.3337 -0.2089  0.3255
19917SOL     OW63248   6.602   6.842   3.647 -0.0127 -0.7717 -0.5804
19917SOL    HW163249   6.660   6.906   3.605 -2.2828  1.0485 -1.1323
19917SOL    HW263250   6.651   6.813   3.725  1.7816  0.3590 -1.2239
19918SOL     OW63251   8.892   3.159   3.195 -0.1052  0.2176  0.8709
19918SOL    HW163252   8.852   3.206   3.122 -1.4612  0.5075  1.7666
19918SOL    HW263253   8.856   3.070   3.190  1.2963 -0.3457  0.0736
19919SOL     OW63254   3.094   6.957  10.360  0.6418  0.1066 -0.4234
19919SOL    HW163255   3.053   6.984  10.442  0.0419 -0.1349 -0.6327
19919SOL    HW263256   3.045   6.879  10.333  1.3782 -0.3032 -0.5881
19920SOL     OW63257   1.508   3.560  10.560  0.4811 -0.2123  0.1614
19920SOL    HW163258   1.495   3.637  10.505 -1.6796 -0.9052 -0.4000
19920SOL    HW263259   1.594   3.527  10.534  0.8133  1.1921 -0.6189
19921SOL     OW63260   0.577   5.976   7.488 -0.2431  0.0916 -0.3646
19921SOL    HW163261   0.515   5.969   7.560 -0.0443 -1.7326 -0.3327
19921SOL    HW263262   0.524   5.969   7.409 -0.5878  3.0511 -0.5073
19922SOL     OW63263   2.196   1.651   9.946 -0.0054  0.1982  0.5436
19922SOL    HW163264   2.266   1.689   9.893  0.1988  0.5437  1.0541
19922SOL    HW263265   2.116   1.676   9.901  0.2183 -1.0867 -0.6353
19923SOL     OW63266   6.855   8.970   6.865 -0.2389  0.6843 -0.1302
19923SOL    HW163267   6.785   9.029   6.837 -1.4087 -0.6430 -0.0950
19923SOL    HW263268   6.870   8.992   6.957  2.0209  3.4839 -1.0011
19924SOL     OW63269   5.477   8.115  10.330  0.1368 -0.2958 -0.3345
19924SOL    HW163270   5.452   8.024  10.347  0.5710 -0.3301  0.1072
19924SOL    HW263271   5.520   8.112  10.244 -1.6672 -0.1821 -1.2980
19925SOL     OW63272   4.344   9.199   8.581  0.1381  0.5166  0.9864
19925SOL    HW163273   4.374   9.275   8.631 -0.7486 -0.6456  3.4824
19925SOL    HW263274   4.254   9.220   8.556  1.2062  1.9445 -2.1138
19926SOL     OW63275   0.758  10.470   6.892 -0.5139 -0.1248  0.0870
19926SOL    HW163276   0.723  10.426   6.970 -1.3519  0.4048  0.0215
19926SOL    HW263277   0.838  10.421   6.871 -1.2233 -1.3978  0.2260
19927SOL     OW63278   3.799   0.637   3.444  0.7843  0.3433 -0.2343
19927SOL    HW163279   3.890   0.615   3.423  1.1105 -0.0944  1.5193
19927SOL    HW263280   3.764   0.557   3.484  0.6296  1.4937  2.0841
19928SOL     OW63281   6.010   9.051   1.705  0.4053  0.2252  0.3015
19928SOL    HW163282   6.056   9.012   1.631  1.2829  0.0496  0.9185
19928SOL    HW263283   5.918   9.027   1.692  0.5798  0.0352 -0.6162
19929SOL     OW63284   9.575  10.873   2.818 -0.2238  0.4208  0.1692
19929SOL    HW163285   9.660  10.873   2.862  0.4947  0.6741 -1.1814
19929SOL    HW263286   9.525  10.804   2.862  1.4456 -1.2230 -0.4380
19930SOL     OW63287   8.255   9.058   1.941 -0.3218  1.0069  0.3878
19930SOL    HW163288   8.243   9.013   2.025 -0.5634 -2.3865 -1.3022
19930SOL    HW263289   8.349   9.069   1.932 -0.2062  0.2067  0.5726
19931SOL     OW63290   4.541   5.801   7.549 -0.1206 -0.0740  0.0171
19931SOL    HW163291   4.521   5.891   7.574 -1.0069 -0.2192 -0.1380
19931SOL    HW263292   4.457   5.764   7.522  0.3072 -0.8172 -0.3405
19932SOL     OW63293   3.353   2.507   6.753 -0.1054  0.1898  0.1755
19932SOL    HW163294   3.361   2.453   6.832  1.9801  1.3542  0.8493
19932SOL    HW263295   3.335   2.595   6.786 -1.2689  0.3226 -0.7796
19933SOL     OW63296   3.411   5.372   7.336 -0.2006  0.1208  0.1084
19933SOL    HW163297   3.436   5.404   7.422  0.2695 -0.2844  0.1232
19933SOL    HW263298   3.319   5.346   7.346  0.8586 -3.6794  1.6084
19934SOL     OW63299   8.111   9.689   8.428  0.1258  0.1883 -0.1339
19934SOL    HW163300   8.162   9.614   8.458 -0.6886 -0.8849 -1.3258
19934SOL    HW263301   8.120   9.688   8.332 -0.8987  0.8777 -0.2550
19935SOL     OW63302   4.400   9.261   8.062  0.0458 -0.5975 -0.3306
19935SOL    HW163303   4.316   9.225   8.034  0.0670 -0.2942 -0.8039
19935SOL    HW263304   4.380   9.308   8.143 -0.3351 -0.1617 -0.6675
19936SOL     OW63305   5.301   9.662   0.198  0.2873 -0.4225 -0.5366
19936SOL    HW163306   5.338   9.702   0.119  0.3121  0.1656 -0.2321
19936SOL    HW263307   5.220   9.711   0.214  0.9751  0.3940  0.5860
19937SOL     OW63308   2.870   1.671   5.215  0.1160 -0.2880  0.2889
19937SOL    HW163309   2.896   1.674   5.123  0.1918  2.8651  0.3263
19937SOL    HW263310   2.778   1.646   5.214 -0.1424  0.6458 -0.7325
19938SOL     OW63311   4.231   5.055   2.417 -0.0869  0.4163  1.4114
19938SOL    HW163312   4.202   5.026   2.331  0.0100 -1.2731  1.9109
19938SOL    HW263313   4.154   5.048   2.473  0.9111 -3.3963  2.5744
19939SOL     OW63314   4.184   8.681   4.901 -0.0214 -0.2340 -0.0330
19939SOL    HW163315   4.214   8.740   4.970 -2.0424  0.4893  0.3023
19939SOL    HW263316   4.159   8.600   4.947  1.5881 -0.9549 -0.3472
19940SOL     OW63317   6.314   3.783   9.345 -0.3059  0.3060 -0.0239
19940SOL    HW163318   6.319   3.750   9.435 -0.0500 -1.1038 -0.5328
19940SOL    HW263319   6.248   3.728   9.303  0.5432  0.0602 -1.0691
19941SOL     OW63320   5.898   5.075   8.244  0.2173 -0.3914  0.0564
19941SOL    HW163321   5.812   5.083   8.202  0.2693 -1.0567 -0.1915
19941SOL    HW263322   5.882   5.092   8.337 -0.0217  0.3966 -0.1243
19942SOL     OW63323   1.894   7.553   3.356  0.5854  1.0880 -0.0299
19942SOL    HW163324   1.819   7.590   3.310  1.2062  0.7988 -1.3246
19942SOL    HW263325   1.900   7.603   3.437 -0.8822  1.2314  0.0173
19943SOL     OW63326   0.917   5.794   9.261  0.2245 -0.1992  0.0076
19943SOL    HW163327   1.006   5.763   9.278  0.2012  0.4696  1.5300
19943SOL    HW263328   0.925   5.889   9.258 -0.3216 -0.1664 -0.6550
19944SOL     OW63329   5.139   2.092   2.753  1.0329 -0.3260 -0.0870
19944SOL    HW163330   5.213   2.149   2.773  1.1907  0.1866 -1.9457
19944SOL    HW263331   5.168   2.004   2.777  0.8389  0.2576  2.6938
19945SOL     OW63332   1.618   9.818   0.386 -0.9231  0.3151 -0.3850
19945SOL    HW163333   1.676   9.745   0.365 -0.0840  0.9397 -0.2617
19945SOL    HW263334   1.584   9.848   0.302 -0.9039  0.0879 -0.4740
19946SOL     OW63335  10.157   3.689   7.669  0.1315 -0.0916  0.2862
19946SOL    HW163336  10.069   3.660   7.644  1.0888 -2.0963 -1.1065
19946SOL    HW263337  10.184   3.628   7.738  0.0821  1.1484  1.4374
19947SOL     OW63338   5.401  10.753   6.478  0.0458 -0.5168 -0.0257
19947SOL    HW163339   5.399  10.847   6.459 -0.9282 -0.8273 -1.6958
19947SOL    HW263340   5.433  10.747   6.568  0.7470  1.3718 -0.1018
19948SOL     OW63341   6.622   1.836   0.247  0.1861 -0.2894  0.3877
19948SOL    HW163342   6.573   1.800   0.172  0.1118 -0.1796  0.3829
19948SOL    HW263343   6.657   1.760   0.292 -1.5853 -0.5073  1.5023
19949SOL     OW63344  10.053   3.034   0.877 -0.4558 -0.1507 -0.2109
19949SOL    HW163345  10.035   2.952   0.830  3.1229 -1.0577 -0.2460
19949SOL    HW263346  10.099   3.088   0.813  2.4046 -0.4858  1.4086
19950SOL     OW63347   7.450   2.770   1.402  0.2057  0.3077 -0.9377
19950SOL    HW163348   7.394   2.719   1.343 -0.2186  1.3658 -1.4955
19950SOL    HW263349   7.539   2.746   1.377  0.0295  0.6037 -1.9134
19951SOL     OW63350   5.925   2.284   8.672 -0.0629 -0.5604  0.3479
19951SOL    HW163351   5.977   2.222   8.723  0.5727  0.1299  0.5368
19951SOL    HW263352   5.988   2.348   8.640 -0.9721  1.0771  1.7080
19952SOL     OW63353   7.055   4.727   1.106 -0.0778  0.5032  0.1295
19952SOL    HW163354   6.961   4.734   1.089 -0.1678 -0.6097  0.0485
19952SOL    HW263355   7.085   4.817   1.117 -1.5365  0.7973  2.2642
19953SOL     OW63356  10.183   9.841   2.080 -0.3258  0.2051  0.0119
19953SOL    HW163357  10.194   9.918   2.025  0.5417 -0.4732 -0.8102
19953SOL    HW263358  10.103   9.799   2.047  0.8176 -0.8302 -1.5818
19954SOL     OW63359   0.727   2.984   4.366  0.5378 -0.2258 -0.3787
19954SOL    HW163360   0.666   2.956   4.433  0.8873 -1.7656 -0.6651
19954SOL    HW263361   0.732   3.079   4.376 -0.1156 -0.3270  1.1503
19955SOL     OW63362   8.408   0.831   8.317 -0.0977 -0.1118 -0.0224
19955SOL    HW163363   8.363   0.861   8.397 -0.5565 -1.0593  0.0979
19955SOL    HW263364   8.432   0.911   8.272 -1.6027  0.4578  0.1029
19956SOL     OW63365   6.582   3.737   7.428 -0.3756 -0.7187 -0.2365
19956SOL    HW163366   6.505   3.723   7.372 -0.7417  1.0388 -0.2343
19956SOL    HW263367   6.549   3.791   7.500  0.8752  0.1995 -0.3232
19957SOL     OW63368   1.920   2.953   9.728 -0.2553  0.0900  0.2743
19957SOL    HW163369   1.851   2.944   9.793 -1.8854 -0.9027 -1.4660
19957SOL    HW263370   2.000   2.926   9.773 -1.0903  0.5818  2.1555
19958SOL     OW63371   6.967   6.189   5.743 -0.4258 -0.2016 -0.2283
19958SOL    HW163372   6.982   6.278   5.776  1.2358 -0.1812 -0.9236
19958SOL    HW263373   7.055   6.153   5.730 -1.0661 -1.8094 -0.3649
19959SOL     OW63374   9.538   3.404   6.300  0.6953 -0.2162  0.5239
19959SOL    HW163375   9.453   3.418   6.341  1.8232 -0.1489  3.0561
19959SOL    HW263376   9.556   3.487   6.254 -0.1451  0.1428  0.8252
19960SOL     OW63377   1.290   6.675   1.225 -0.1174  0.6555 -0.1137
19960SOL    HW163378   1.338   6.701   1.146 -0.5880  0.0356 -0.6100
19960SOL    HW263379   1.205   6.719   1.216  0.0101  0.9958  0.3070
19961SOL     OW63380   5.789   8.571   9.657  0.4590  0.9715  0.4256
19961SOL    HW163381   5.745   8.617   9.585  0.7154 -0.4818 -0.7265
19961SOL    HW263382   5.725   8.504   9.684  1.2668 -0.0584 -0.1228
19962SOL     OW63383   7.078   8.200  10.669 -0.0655  0.2630 -0.0887
19962SOL    HW163384   7.109   8.288  10.648  1.9173 -0.0556  1.3115
19962SOL    HW263385   7.153   8.143  10.653 -0.6647 -0.9019  1.0799
19963SOL     OW63386   5.271   6.092   4.509 -0.2784  0.0173 -0.3205
19963SOL    HW163387   5.186   6.058   4.536  0.2075  0.0091  1.2981
19963SOL    HW263388   5.332   6.019   4.520  0.0243  0.1398 -1.0812
19964SOL     OW63389   8.363   4.578   3.921 -0.2161 -0.1660 -0.2387
19964SOL    HW163390   8.344   4.671   3.935 -1.6422 -0.3620 -0.6717
19964SOL    HW263391   8.357   4.539   4.008 -0.1949  0.0586 -0.1357
19965SOL     OW63392   1.930   8.835   7.580  0.6894 -0.2260  0.1800
19965SOL    HW163393   2.016   8.810   7.614  1.5349  2.6584  0.4018
19965SOL    HW263394   1.915   8.774   7.508  2.3843 -1.5174  0.8336
19966SOL     OW63395   4.433  10.203   9.418  1.0626  0.2510  0.0309
19966SOL    HW163396   4.489  10.269   9.377  0.0579  1.0489 -0.0942
19966SOL    HW263397   4.472  10.189   9.505  2.3237 -0.3359 -0.6088
19967SOL     OW63398   3.451   2.055  10.636  0.3873 -0.5546 -0.5629
19967SOL    HW163399   3.500   2.024  10.713  1.9499  1.7886 -0.4926
19967SOL    HW263400   3.360   2.056  10.664  0.6805 -1.7031  0.5291
19968SOL     OW63401   7.384   5.429   0.183  0.0427  0.5936  0.0685
19968SOL    HW163402   7.368   5.521   0.207  0.7673  0.8707 -0.4725
19968SOL    HW263403   7.461   5.404   0.235  0.7690  0.7679 -0.8919
19969SOL     OW63404   4.119  10.025   2.903  0.1804 -0.4277 -0.6001
19969SOL    HW163405   4.061  10.078   2.848  1.1908 -0.2809 -1.5615
19969SOL    HW263406   4.188   9.995   2.844  0.4738 -1.5449  0.2684
19970SOL     OW63407   2.181   6.298   2.407  0.2712 -0.4469  0.3181
19970SOL    HW163408   2.183   6.209   2.443  0.9156 -0.0208  1.3525
19970SOL    HW263409   2.156   6.354   2.480 -0.8527  0.1565 -0.5052
19971SOL     OW63410   9.131  10.205   3.787  0.1059  0.4991  0.0148
19971SOL    HW163411   9.109  10.295   3.766  1.6059  0.8333 -0.2343
19971SOL    HW263412   9.206  10.185   3.731 -0.6580 -1.1576 -0.4833
19972SOL     OW63413   0.231   3.093   3.043  0.6214 -0.3626  0.8623
19972SOL    HW163414   0.239   3.172   2.990  0.3599  0.0288  1.3979
19972SOL    HW263415   0.233   3.021   2.980 -0.6467  0.1280  0.2452
19973SOL     OW63416   9.384   2.393   6.330 -0.4547 -0.3534 -0.1933
19973SOL    HW163417   9.298   2.351   6.324 -0.5573 -0.5441  1.9605
19973SOL    HW263418   9.446   2.321   6.317 -0.5906 -0.2641 -1.4675
19974SOL     OW63419   5.954   6.167   0.033 -0.0320 -0.3365  0.3336
19974SOL    HW163420   5.878   6.203  -0.012  1.1847  1.7689 -0.1940
19974SOL    HW263421   5.965   6.079  -0.005 -1.0812  0.0444 -0.9461
19975SOL     OW63422   4.486   6.401   2.840 -0.9547  0.4446  0.2254
19975SOL    HW163423   4.505   6.307   2.835 -3.2573 -0.2653  2.7308
19975SOL    HW263424   4.549   6.435   2.903  0.0171  0.7095 -0.8348
19976SOL     OW63425   9.595   7.001   0.237 -0.4463  0.1702 -0.6633
19976SOL    HW163426   9.605   6.966   0.148 -0.6728 -1.1004 -0.2017
19976SOL    HW263427   9.539   7.078   0.225  0.3312  0.6005 -1.7417
19977SOL     OW63428   2.498   3.213   0.876  0.5363 -0.3073 -0.1018
19977SOL    HW163429   2.412   3.197   0.838  0.2632 -0.0731  0.3973
19977SOL    HW263430   2.560   3.192   0.807  0.0463  0.2594 -0.7188
19978SOL     OW63431   4.081   6.664  10.886  0.7179  0.5200  0.2298
19978SOL    HW163432   4.026   6.729  10.843  2.2236  2.6089  1.2816
19978SOL    HW263433   4.170   6.696  10.874  1.5156 -1.2477  1.0053
19979SOL     OW63434   4.581   8.499   2.139  0.0408 -0.0166  0.1903
19979SOL    HW163435   4.577   8.439   2.214 -0.7098  1.5291  1.4562
19979SOL    HW263436   4.532   8.455   2.070  0.6712 -1.4400  0.6208
19980SOL     OW63437   3.044   3.708   4.751  0.1905  0.4370  0.4015
19980SOL    HW163438   3.109   3.741   4.690 -0.3614 -0.5102 -0.7416
19980SOL    HW263439   3.028   3.618   4.723 -0.0483 -0.0447  1.9780
19981SOL     OW63440  10.708   0.224   0.669  0.3047  0.1091 -0.2625
19981SOL    HW163441  10.635   0.163   0.665  0.1392  0.0582  2.1886
19981SOL    HW263442  10.774   0.186   0.611 -0.7702 -1.0113 -0.7912
19982SOL     OW63443   5.210   3.617   5.556  0.4183  0.0041 -0.2889
19982SOL    HW163444   5.230   3.689   5.615 -1.8253  0.2883  0.1941
19982SOL    HW263445   5.115   3.608   5.560  0.2663 -0.5232 -3.2277
19983SOL     OW63446   8.369   5.384   0.668 -0.2316  1.0424 -0.2493
19983SOL    HW163447   8.321   5.380   0.751 -0.2329  1.5849 -0.2241
19983SOL    HW263448   8.423   5.462   0.675  0.1904  0.7802 -0.5352
19984SOL     OW63449   6.057   4.069   7.327 -0.7444 -0.6687 -0.1784
19984SOL    HW163450   6.095   4.014   7.259 -0.4078 -0.5021 -0.1328
19984SOL    HW263451   6.087   4.157   7.305 -0.9771 -0.5581 -0.0481
19985SOL     OW63452   8.170   2.660   6.873  1.0260 -0.3567  0.1944
19985SOL    HW163453   8.102   2.718   6.908  0.5617 -0.7781  0.0030
19985SOL    HW263454   8.198   2.701   6.791  0.2007 -0.7491 -0.3006
19986SOL     OW63455   6.105   0.904   7.418 -0.1121 -0.5254  0.2450
19986SOL    HW163456   6.037   0.868   7.475  0.6807 -1.3080  0.7461
19986SOL    HW263457   6.173   0.835   7.417  0.4442  0.0254 -0.6204
19987SOL     OW63458   5.055   7.175   4.978 -0.2000  0.4024 -0.3256
19987SOL    HW163459   5.110   7.241   5.021 -0.4898  0.2361  0.3196
19987SOL    HW263460   5.052   7.201   4.887  0.4232  0.7770 -0.2426
19988SOL     OW63461   5.123   5.858  10.803  0.1120 -0.1581 -0.2621
19988SOL    HW163462   5.185   5.917  10.760  0.5635  0.0011  0.5917
19988SOL    HW263463   5.037   5.899  10.789  0.2521 -0.0851 -0.9545
19989SOL     OW63464   5.051   6.226   3.892 -0.0058  0.0893  0.0240
19989SOL    HW163465   5.061   6.151   3.951 -0.9641 -1.6186 -1.8366
19989SOL    HW263466   5.002   6.291   3.942  1.4610 -0.2037  1.9300
19990SOL     OW63467   8.706   9.279  10.539  0.0918 -0.1521 -0.3626
19990SOL    HW163468   8.683   9.368  10.568 -0.3771 -0.5186  0.4056
19990SOL    HW263469   8.781   9.292  10.482  0.3472  0.7066  0.1414
19991SOL     OW63470   5.313   6.846   5.418  0.1646 -0.1053 -0.1239
19991SOL    HW163471   5.220   6.826   5.423  0.1285 -0.3297 -1.3265
19991SOL    HW263472   5.356   6.762   5.436  0.1765  0.2556  1.6276
19992SOL     OW63473   6.085   8.415   4.774  0.4710  0.2441  0.2422
19992SOL    HW163474   6.129   8.437   4.692 -0.7909 -0.1718 -0.5805
19992SOL    HW263475   6.094   8.493   4.829  0.5520  0.8687 -0.6417
19993SOL     OW63476   3.514   2.999   2.773 -0.7180 -0.1643 -0.0306
19993SOL    HW163477   3.519   3.030   2.864 -1.4837 -2.5069  0.8816
19993SOL    HW263478   3.425   2.964   2.765 -0.2811 -1.0189 -1.3359
19994SOL     OW63479   5.997   2.423   3.973  0.1927 -0.6593 -0.7489
19994SOL    HW163480   6.000   2.461   4.061 -1.2759  0.5129 -1.1617
19994SOL    HW263481   5.994   2.498   3.914 -0.9050 -1.4041 -1.6842
19995SOL     OW63482   9.212   4.588   2.253  0.4287  0.1338  0.7975
19995SOL    HW163483   9.123   4.587   2.217  1.6987  0.7261 -2.7471
19995SOL    HW263484   9.246   4.675   2.229  2.0193 -0.1181  1.9890
19996SOL     OW63485   2.588   1.196   3.099  0.1982  0.1581  0.4531
19996SOL    HW163486   2.617   1.144   3.174  1.0371 -1.2521 -0.7776
19996SOL    HW263487   2.510   1.151   3.068  0.6740 -0.1417 -0.3513
19997SOL     OW63488  10.855   1.202   5.041 -0.4028  0.4518 -0.4001
19997SOL    HW163489  10.936   1.226   5.086 -0.7213 -1.1933  1.1722
19997SOL    HW263490  10.785   1.223   5.102 -0.9366 -0.6872 -0.5781
19998SOL     OW63491   0.265   3.092   1.044 -0.1099  0.0766  0.2146
19998SOL    HW163492   0.234   3.005   1.020 -0.7513  0.5233 -0.6561
19998SOL    HW263493   0.322   3.078   1.120  1.5090 -1.3610 -1.1820
19999SOL     OW63494   4.527   9.600   8.437  0.0062  0.2163 -0.3246
19999SOL    HW163495   4.620   9.611   8.451  0.3232  0.1525 -2.0757
19999SOL    HW263496   4.495   9.687   8.412 -0.1291 -0.0204 -1.0132
20000SOL     OW63497   1.068   6.616   6.628 -0.4154 -0.0055 -0.3556
20000SOL    HW163498   1.026   6.531   6.619  2.0386 -1.6190  1.9225
20000SOL    HW263499   1.128   6.622   6.555 -1.5346  0.4606 -1.2788
20001SOL     OW63500   9.947   0.643   1.631 -0.0903  0.1338 -0.0350
20001SOL    HW163501   9.942   0.559   1.586  2.2049  0.3870 -0.9085
20001SOL    HW263502  10.021   0.635   1.691  0.7350  1.7391 -0.7454
20002SOL     OW63503   1.450   5.602   5.993 -0.7926 -0.2550  0.0621
20002SOL    HW163504   1.385   5.573   5.929  2.2890 -2.9840 -2.1692
20002SOL    HW263505   1.493   5.522   6.022 -0.0798  1.1945  3.4225
20003SOL     OW63506   0.836   7.270   4.330 -0.1982 -0.7010  0.1955
20003SOL    HW163507   0.810   7.178   4.327  1.2723 -1.2219  1.8088
20003SOL    HW263508   0.894   7.276   4.406 -1.4681  1.8855  1.0992
20004SOL     OW63509   6.114   6.710   1.162  0.2832 -0.1351 -0.0286
20004SOL    HW163510   6.143   6.621   1.140 -0.3604 -1.2900  3.2333
20004SOL    HW263511   6.189   6.749   1.207 -0.0595  0.3110  0.1643
20005SOL     OW63512   6.201   8.326   2.281  0.3565  0.1347 -0.3196
20005SOL    HW163513   6.295   8.323   2.266  0.5361  0.7632  0.5982
20005SOL    HW263514   6.165   8.362   2.200  0.6552 -2.0726 -1.5111
20006SOL     OW63515   3.696   1.765   0.160 -0.5530  0.1782  0.1760
20006SOL    HW163516   3.764   1.821   0.198 -1.2365  0.9873  0.2424
20006SOL    HW263517   3.725   1.750   0.070  1.4116 -2.2816  1.1128
20007SOL     OW63518   8.294   2.841   5.340 -0.2277  0.0082  0.3134
20007SOL    HW163519   8.386   2.865   5.329  0.5469 -2.9923 -0.5054
20007SOL    HW263520   8.246   2.903   5.286  1.4179  0.7729 -0.3280
20008SOL     OW63521   0.228   8.922   4.340 -0.5797  0.1839 -0.5765
20008SOL    HW163522   0.241   8.883   4.254  1.4293  1.2619 -0.8306
20008SOL    HW263523   0.172   8.860   4.386 -1.1640 -0.7342 -2.4332
20009SOL     OW63524   7.621   2.796   6.314 -0.1221  0.0692 -0.3462
20009SOL    HW163525   7.624   2.717   6.261  0.4270 -1.8073  2.2647
20009SOL    HW263526   7.626   2.868   6.251  0.1109 -1.9559 -2.7937
20010SOL     OW63527   7.704   0.079   3.963 -0.3083  0.3188  0.3608
20010SOL    HW163528   7.636   0.066   3.896  0.3439 -2.0158  0.0702
20010SOL    HW263529   7.734   0.169   3.949  0.1463 -0.2013 -2.8882
20011SOL     OW63530   3.546   7.547   5.139 -0.1065  0.1341  0.5476
20011SOL    HW163531   3.552   7.456   5.111 -0.6306  0.1683  0.3028
20011SOL    HW263532   3.622   7.560   5.195 -1.1422 -1.0801  2.3350
20012SOL     OW63533   3.330   3.039   2.468 -0.9217 -0.1856 -0.6325
20012SOL    HW163534   3.411   3.071   2.428 -1.1447  0.2750 -0.7306
20012SOL    HW263535   3.260   3.078   2.415 -1.2292  0.7153  0.3920
20013SOL     OW63536  10.294   1.082   0.188 -0.1368 -0.1583  0.0463
20013SOL    HW163537  10.211   1.118   0.220  0.1405  0.3361  0.2233
20013SOL    HW263538  10.269   1.026   0.114 -0.6138  0.0796  0.0219
20014SOL     OW63539   0.481   8.797   9.948  0.1919  0.0881  0.1736
20014SOL    HW163540   0.481   8.890   9.922  1.4382 -0.0424 -0.3370
20014SOL    HW263541   0.439   8.752   9.875  1.4898  0.0112 -0.5391
20015SOL     OW63542   6.880   3.920   0.053 -0.0198  0.0160 -0.1414
20015SOL    HW163543   6.922   3.978   0.116  2.3046 -0.9138 -0.7422
20015SOL    HW263544   6.822   3.864   0.106 -1.2910  1.9263  0.5917
20016SOL     OW63545   7.520   4.908   2.137 -0.4073 -0.2189 -0.2968
20016SOL    HW163546   7.558   4.821   2.145  2.5072  0.7758 -1.8657
20016SOL    HW263547   7.465   4.904   2.059  1.0750 -0.2762 -1.3726
20017SOL     OW63548   9.684   2.527   3.893 -0.4256 -0.1856  0.5562
20017SOL    HW163549   9.709   2.437   3.911  0.9150 -0.2603 -1.3523
20017SOL    HW263550   9.594   2.522   3.864 -0.8048 -0.7075  1.7437
20018SOL     OW63551   0.409  10.612   4.683 -0.2550 -0.3247 -0.0175
20018SOL    HW163552   0.347  10.560   4.632 -0.3727  0.3594 -0.5955
20018SOL    HW263553   0.484  10.554   4.697 -0.4818 -0.7253 -0.4491
20019SOL     OW63554   8.101   8.793   7.682  0.3734 -0.4272 -0.1594
20019SOL    HW163555   8.138   8.881   7.674  0.3834 -0.4908 -0.8941
20019SOL    HW263556   8.113   8.770   7.774 -0.9407  0.9216  0.3889
20020SOL     OW63557   6.243  10.955   6.938  0.0263  0.0611 -0.5393
20020SOL    HW163558   6.155  10.941   6.903  0.5849 -3.6102 -0.8008
20020SOL    HW263559   6.245  10.905   7.020  2.0565 -0.5386 -0.8974
20021SOL     OW63560   4.104  10.737   1.979  0.2195  0.2078 -0.3362
20021SOL    HW163561   4.083  10.785   2.059 -0.0934  0.9780 -0.8665
20021SOL    HW263562   4.088  10.646   2.001  0.7250  0.3343  0.6685
20022SOL     OW63563   4.172   3.372   4.418  0.5957  0.8140  0.1135
20022SOL    HW163564   4.103   3.424   4.457  0.1707  1.0116 -0.8904
20022SOL    HW263565   4.129   3.321   4.350  1.5451  1.4977 -1.0449
20023SOL     OW63566   8.071   3.639   6.529 -0.1420 -0.0536  0.0037
20023SOL    HW163567   8.105   3.657   6.616 -0.9765  1.9037 -0.0183
20023SOL    HW263568   8.005   3.571   6.542  0.0346 -0.0695  0.8378
20024SOL     OW63569   8.906   2.637   7.058 -0.0081  0.0193  0.2416
20024SOL    HW163570   8.958   2.611   6.983  0.2060 -1.6630  0.9293
20024SOL    HW263571   8.823   2.667   7.020  0.3834 -0.0463 -0.6950
20025SOL     OW63572   2.829   4.186   6.248 -0.3227 -0.2883 -0.0323
20025SOL    HW163573   2.793   4.266   6.210  1.6331  0.6513 -0.0466
20025SOL    HW263574   2.756   4.148   6.297 -0.9817  2.2040  1.0846
20026SOL     OW63575   4.260   5.849   9.352  0.0052  0.6964 -0.2251
20026SOL    HW163576   4.274   5.944   9.341  0.2308  0.5342 -1.5501
20026SOL    HW263577   4.347   5.811   9.342 -0.1904  0.2969 -0.4380
20027SOL     OW63578   1.218   2.574   9.990  0.0239 -0.2047 -0.3165
20027SOL    HW163579   1.129   2.540   9.977 -1.0193  2.7471 -2.0695
20027SOL    HW263580   1.265   2.548   9.911  0.0169  0.1466 -0.4382
20028SOL     OW63581   9.043   9.357   8.174 -0.2627  0.6626 -0.0515
20028SOL    HW163582   9.071   9.282   8.122  0.0920  0.1320  0.8903
20028SOL    HW263583   8.954   9.335   8.202 -0.6201  1.1390 -0.7679
20029SOL     OW63584   9.630   2.984   3.846  0.8247 -0.1846  0.2408
20029SOL    HW163585   9.625   2.913   3.910  0.2922  0.4733  0.9552
20029SOL    HW263586   9.661   3.059   3.896 -0.4065  0.5640 -0.0626
20030SOL     OW63587   9.737   4.488   7.695  0.9103 -0.1150 -0.1199
20030SOL    HW163588   9.765   4.411   7.646 -1.2704 -2.2363  1.6726
20030SOL    HW263589   9.678   4.535   7.636  0.7528 -0.9028 -0.5960
20031SOL     OW63590   4.241   7.157   3.924  0.4479  0.1096  0.1223
20031SOL    HW163591   4.158   7.198   3.902  0.4570 -1.0544 -2.3459
20031SOL    HW263592   4.308   7.216   3.890  0.5786 -0.0582  0.0856
20032SOL     OW63593   0.010   0.629   4.406  0.7157  0.3691 -0.4865
20032SOL    HW163594   0.090   0.605   4.360  0.2061  0.2201 -1.3065
20032SOL    HW263595  -0.050   0.556   4.390 -0.7019  1.9033 -2.6435
20033SOL     OW63596   9.071   4.229   8.795  0.3308 -0.5228 -0.0275
20033SOL    HW163597   8.990   4.217   8.845  1.4009  2.4395  2.7923
20033SOL    HW263598   9.124   4.152   8.817 -0.1319 -0.4189  1.5879
20034SOL     OW63599   3.415   7.918   8.632 -0.1562 -0.4901  0.3598
20034SOL    HW163600   3.368   7.985   8.582  1.0229 -0.4014 -0.6818
20034SOL    HW263601   3.381   7.927   8.721 -1.6790 -0.0631 -0.2344
20035SOL     OW63602  10.291   6.631   8.458  0.0085  0.1255 -0.2992
20035SOL    HW163603  10.332   6.700   8.511 -0.2562  0.9250 -1.1042
20035SOL    HW263604  10.238   6.581   8.521 -2.3515  2.5732 -0.1175
20036SOL     OW63605   2.636   7.422   4.450  0.5577  0.0374 -0.1858
20036SOL    HW163606   2.574   7.463   4.511 -0.5181 -0.1951 -1.0895
20036SOL    HW263607   2.648   7.486   4.380  1.2966  0.0463 -0.0639
20037SOL     OW63608   7.220   5.451   6.504 -0.3017 -0.3476 -0.0951
20037SOL    HW163609   7.149   5.501   6.463 -0.3150 -0.0684  0.2614
20037SOL    HW263610   7.283   5.438   6.434  0.5070  1.6682  0.1994
20038SOL     OW63611   3.462  10.999   1.705  0.4672 -0.5607 -0.2185
20038SOL    HW163612   3.516  10.921   1.693  1.9784  0.7504 -3.2029
20038SOL    HW263613   3.382  10.981   1.656  0.6900 -0.3652 -0.6585
20039SOL     OW63614   5.728  10.806   9.499 -0.0191  0.0240 -0.4500
20039SOL    HW163615   5.715  10.754   9.578 -1.1926  0.0460 -0.6103
20039SOL    HW263616   5.810  10.852   9.514  1.0389 -1.8117 -0.2730
20040SOL     OW63617   3.814  10.470   7.420 -0.0350 -0.3840 -0.3287
20040SOL    HW163618   3.781  10.513   7.499  2.6034  1.8404 -0.3074
20040SOL    HW263619   3.880  10.408   7.452  0.4161 -0.1064 -0.7037
20041SOL     OW63620   2.283   2.951   2.425 -0.2531 -1.1005 -0.1047
20041SOL    HW163621   2.272   3.033   2.473 -1.0173 -1.1960 -0.1059
20041SOL    HW263622   2.365   2.915   2.458  0.5072  0.0474 -0.6749
20042SOL     OW63623   4.504   2.835   6.296  0.5521 -0.2093 -0.0098
20042SOL    HW163624   4.577   2.813   6.238  0.7582  0.1435  0.1128
20042SOL    HW263625   4.463   2.912   6.254  0.4543 -0.2031  0.0971
20043SOL     OW63626   3.058   7.582   2.617  0.2997  0.4799 -0.4142
20043SOL    HW163627   3.001   7.656   2.637  0.4300  0.2134  1.0340
20043SOL    HW263628   3.130   7.620   2.567  0.4525  1.3741  0.4663
20044SOL     OW63629   5.227   9.876   1.769  0.5926 -0.0513  0.1381
20044SOL    HW163630   5.249   9.904   1.858 -0.3941 -1.2258  0.7800
20044SOL    HW263631   5.134   9.855   1.773 -0.3654  2.9922 -2.0074
20045SOL     OW63632   6.397  10.427   8.399  0.2405 -0.3786 -0.0864
20045SOL    HW163633   6.370  10.342   8.363  2.6288 -0.7486 -1.1767
20045SOL    HW263634   6.318  10.480   8.393 -0.9667 -2.1168 -0.6337
20046SOL     OW63635   9.293   2.126   4.796 -0.2570 -0.0718 -0.2526
20046SOL    HW163636   9.285   2.046   4.849  0.2940  1.5118  2.3620
20046SOL    HW263637   9.202   2.154   4.783 -0.4367 -0.8870 -0.8839
20047SOL     OW63638   8.937   4.190   1.722  0.3711  0.2341 -0.1023
20047SOL    HW163639   8.847   4.164   1.741 -0.2133  1.7374 -0.6439
20047SOL    HW263640   8.977   4.204   1.808  0.2911 -0.9960  0.1586
20048SOL     OW63641   5.866   4.440   3.606  0.4480 -0.0184 -0.3204
20048SOL    HW163642   5.774   4.467   3.610  0.3139 -0.1745 -1.9804
20048SOL    HW263643   5.894   4.462   3.518  2.1748  0.4947  0.3106
20049SOL     OW63644  10.367   3.504   8.451 -0.0457  0.4298  0.1688
20049SOL    HW163645  10.338   3.414   8.464  0.2907  0.2010 -0.5874
20049SOL    HW263646  10.374   3.541   8.539 -0.9573 -0.0324  0.4413
20050SOL     OW63647   6.317   0.341   4.990 -0.1629 -0.3104 -0.3418
20050SOL    HW163648   6.380   0.410   5.012 -1.2961  0.9118 -0.7369
20050SOL    HW263649   6.296   0.357   4.898 -0.9940 -0.7107 -0.2337
20051SOL     OW63650   9.323   0.296  10.906 -0.0895  0.2808 -0.0785
20051SOL    HW163651   9.410   0.299  10.946 -0.5107  1.5052  0.8264
20051SOL    HW263652   9.290   0.386  10.914 -0.7156  0.2800 -2.0735
20052SOL     OW63653   9.072   5.979   2.538 -0.5318  0.0545  0.1580
20052SOL    HW163654   9.001   5.920   2.564 -0.4035  0.0598  0.5235
20052SOL    HW263655   9.091   6.029   2.617 -0.7541  0.7067 -0.1916
20053SOL     OW63656   2.262   5.078   3.933  0.3153 -0.4821  0.6128
20053SOL    HW163657   2.263   5.085   3.837  0.8665  1.9465  0.7197
20053SOL    HW263658   2.333   5.018   3.954  0.6329 -0.5121 -0.4910
20054SOL     OW63659   5.511   6.171  10.509  0.0680 -0.8712  0.1731
20054SOL    HW163660   5.512   6.104  10.441 -3.3239 -0.1235 -0.8054
20054SOL    HW263661   5.560   6.244  10.471 -0.8703 -0.8531 -1.0752
20055SOL     OW63662   2.493   1.703   9.258  0.4957  0.2321 -0.1759
20055SOL    HW163663   2.399   1.686   9.267  0.4426  0.5661 -0.0849
20055SOL    HW263664   2.505   1.715   9.163  0.4142  0.3641 -0.1704
20056SOL     OW63665   6.378   4.184   9.496 -0.2817  0.4422  0.2786
20056SOL    HW163666   6.381   4.115   9.561  1.5992  0.5002  0.2963
20056SOL    HW263667   6.406   4.142   9.414 -0.2414  0.9215  0.0405
20057SOL     OW63668   6.335   3.149  10.243 -1.1228 -0.1201 -0.4395
20057SOL    HW163669   6.355   3.071  10.295 -2.6570  0.1815  0.6737
20057SOL    HW263670   6.408   3.208  10.259 -1.2510 -0.2961  0.8676
20058SOL     OW63671   3.799   7.976   3.771  0.3188  0.6682 -0.5896
20058SOL    HW163672   3.778   7.913   3.702  0.6839  0.1063 -0.1950
20058SOL    HW263673   3.764   7.936   3.851 -0.0463  1.2858 -0.4349
20059SOL     OW63674   7.396  10.102   6.070 -0.2058  0.3611 -0.2942
20059SOL    HW163675   7.361  10.043   6.003  1.4976 -0.5619 -0.4449
20059SOL    HW263676   7.427  10.043   6.139 -3.0499  1.3116  2.0010
20060SOL     OW63677   8.859   9.639   9.531 -0.4693  0.7973 -0.4023
20060SOL    HW163678   8.849   9.732   9.513  0.0758  0.7337 -1.1023
20060SOL    HW263679   8.938   9.614   9.483  0.3144  0.3065  1.0882
20061SOL     OW63680   8.161   8.862   3.770  0.1892  0.0775 -0.4815
20061SOL    HW163681   8.065   8.866   3.772  0.2301  2.0658  1.2899
20061SOL    HW263682   8.187   8.859   3.862  1.8600  0.7858 -0.8865
20062SOL     OW63683  10.554   0.198   4.667 -0.0003 -0.1325 -0.0143
20062SOL    HW163684  10.480   0.187   4.727 -1.6562  0.2104 -1.9059
20062SOL    HW263685  10.606   0.119   4.679  0.9906  0.8794  3.4547
20063SOL     OW63686   6.880   6.652   8.913 -0.4954 -0.6192 -0.2855
20063SOL    HW163687   6.971   6.674   8.934 -0.9478  0.8349  0.2375
20063SOL    HW263688   6.874   6.661   8.818 -0.3242  0.2443 -0.2232
20064SOL     OW63689  10.355   0.464   4.153 -0.1355  0.7190  0.3285
20064SOL    HW163690  10.421   0.518   4.110 -0.1835  0.0637 -0.5877
20064SOL    HW263691  10.272   0.500   4.124 -0.1683  0.1104 -0.3626
20065SOL     OW63692   6.080  10.984   7.353  0.1235 -0.1057 -0.2045
20065SOL    HW163693   6.156  10.927   7.368  1.1887  1.5265  0.8811
20065SOL    HW263694   6.008  10.939   7.398  1.2717  0.0949  1.9675
20066SOL     OW63695   5.882   8.340   5.824 -0.2096 -0.0347 -0.0606
20066SOL    HW163696   5.890   8.434   5.842 -0.6185  0.7019 -3.1682
20066SOL    HW263697   5.799   8.332   5.778 -1.5816 -2.4569  2.5358
20067SOL     OW63698   6.849   3.314   2.241  0.0703  0.0068  0.3215
20067SOL    HW163699   6.812   3.374   2.176 -1.6456  0.4306  1.6056
20067SOL    HW263700   6.940   3.341   2.251 -0.6310  2.4159  0.8181
20068SOL     OW63701   0.364   3.729   4.638 -0.0993  0.2879  0.1324
20068SOL    HW163702   0.368   3.793   4.709  1.0856  0.9759 -0.5259
20068SOL    HW263703   0.283   3.680   4.655  0.1054  0.4857  1.8870
20069SOL     OW63704   9.207   8.519   0.843  0.8658  0.3938 -0.1151
20069SOL    HW163705   9.172   8.466   0.914  2.1720  0.7234  0.8173
20069SOL    HW263706   9.186   8.470   0.763  0.3417 -0.5328  0.5799
20070SOL     OW63707   0.875   9.100  10.612 -0.3600 -0.1528 -0.4491
20070SOL    HW163708   0.834   9.171  10.662  2.2644  0.9642  0.3296
20070SOL    HW263709   0.948   9.142  10.567  1.1271 -2.3013 -0.1953
20071SOL     OW63710   4.790   6.857   9.943  0.3213 -0.3585  0.4244
20071SOL    HW163711   4.770   6.945   9.910 -0.0222 -0.7322 -0.3896
20071SOL    HW263712   4.754   6.856  10.031 -2.1693 -0.5669 -0.5174
20072SOL     OW63713  10.356   5.442   3.176  0.3037 -0.5379 -0.6422
20072SOL    HW163714  10.384   5.400   3.257  0.1631  0.9085  0.2091
20072SOL    HW263715  10.436   5.480   3.139  0.1488  0.0690 -0.3778
20073SOL     OW63716   6.968   3.899   0.325 -0.0085  0.2054 -0.1374
20073SOL    HW163717   6.926   3.891   0.411 -2.0013 -1.1522 -1.1585
20073SOL    HW263718   6.961   3.811   0.286  1.0820  0.7187 -1.6089
20074SOL     OW63719  10.471   1.775   7.709 -0.5791 -0.1129 -0.2624
20074SOL    HW163720  10.469   1.838   7.782 -1.1105  1.9072 -1.9408
20074SOL    HW263721  10.561   1.741   7.709 -0.6895 -0.5108  1.5831
20075SOL     OW63722   6.734   1.559   1.108  0.1541  0.1655 -0.1499
20075SOL    HW163723   6.794   1.540   1.181  0.1407  1.0402  0.1025
20075SOL    HW263724   6.732   1.478   1.057  2.8060  0.5877 -1.0601
20076SOL     OW63725   3.408   8.605   6.764 -0.1622 -0.1005  0.1701
20076SOL    HW163726   3.426   8.537   6.828  0.5148 -0.4703 -0.3993
20076SOL    HW263727   3.432   8.687   6.807  2.1259 -0.4889 -0.2274
20077SOL     OW63728   2.542   8.140   2.747 -0.3467 -0.2023  0.0803
20077SOL    HW163729   2.513   8.148   2.656  0.9004  1.2414 -0.2221
20077SOL    HW263730   2.624   8.189   2.750  0.8927 -2.2078  1.4337
20078SOL     OW63731   2.498   8.557   4.685 -0.1520 -0.3627  0.1908
20078SOL    HW163732   2.410   8.531   4.712 -0.4553  0.9672  0.5536
20078SOL    HW263733   2.543   8.575   4.768 -0.2759  1.1971 -0.0517
20079SOL     OW63734   8.474   0.533   7.465  0.3124 -0.5059  0.0711
20079SOL    HW163735   8.564   0.515   7.437  0.3864 -0.5449  0.3387
20079SOL    HW263736   8.461   0.625   7.442  0.9329 -0.0678  1.4054
20080SOL     OW63737   4.013   5.633   4.344  0.4156  0.4423 -0.4538
20080SOL    HW163738   4.047   5.610   4.258  1.7567  2.3401 -0.4824
20080SOL    HW263739   4.080   5.601   4.405 -0.2608 -0.3980 -0.1383
20081SOL     OW63740  10.247   4.449   7.334  0.1606 -0.1687 -0.3938
20081SOL    HW163741  10.256   4.376   7.395  0.5286 -0.5118 -0.8513
20081SOL    HW263742  10.177   4.422   7.274 -0.5272  0.3699  0.1547
20082SOL     OW63743   4.594   1.188   0.956 -0.0222  0.3613  0.1853
20082SOL    HW163744   4.685   1.164   0.943  0.0158  1.3240 -1.7158
20082SOL    HW263745   4.581   1.185   1.051  1.9563  0.1733  0.4837
20083SOL     OW63746  10.447   2.603   8.248 -0.3172 -0.9339 -0.1740
20083SOL    HW163747  10.459   2.516   8.209  0.2318 -0.6052 -0.7461
20083SOL    HW263748  10.425   2.660   8.174  2.3667  0.0402 -0.3454
20084SOL     OW63749   2.067   9.379   8.226 -0.8859  0.2861  0.0649
20084SOL    HW163750   1.991   9.347   8.274  0.6393 -1.2185  1.6006
20084SOL    HW263751   2.120   9.301   8.211  1.1621  1.5246  0.5496
20085SOL     OW63752   3.289   5.611   8.358  0.3764 -0.7435 -0.6875
20085SOL    HW163753   3.234   5.570   8.426 -1.1018 -0.1315 -1.4751
20085SOL    HW263754   3.227   5.646   8.295  1.7113 -1.3811 -2.4444
20086SOL     OW63755   5.801   6.367   6.498  0.2396  0.5893 -0.0656
20086SOL    HW163756   5.764   6.432   6.557 -0.4280  0.5824 -0.4689
20086SOL    HW263757   5.865   6.416   6.446  0.0023  0.8477 -0.1172
20087SOL     OW63758   1.207   6.518   8.969 -0.1092 -0.6506  0.4563
20087SOL    HW163759   1.270   6.448   8.983  0.6091  0.2562  2.0530
20087SOL    HW263760   1.127   6.487   9.013 -0.3930 -1.2229 -0.4245
20088SOL     OW63761  10.227   2.937   9.230  0.0106  0.4054 -0.4156
20088SOL    HW163762  10.188   3.019   9.260 -1.5701  0.3571 -2.1296
20088SOL    HW263763  10.156   2.873   9.237 -0.2972  0.2663 -3.4916
20089SOL     OW63764   7.953   4.485   6.277 -0.3963  0.1296  0.4605
20089SOL    HW163765   8.004   4.527   6.208 -1.6508  2.4117  0.7944
20089SOL    HW263766   8.001   4.405   6.299  2.0602  1.2902 -0.3916
20090SOL     OW63767   0.206   8.606  10.674 -0.2558 -1.0187  0.2507
20090SOL    HW163768   0.182   8.599  10.582 -1.2064 -1.4378  0.5113
20090SOL    HW263769   0.297   8.634  10.674 -0.8258  0.9732 -0.7953
20091SOL     OW63770   5.590   7.581   1.040  0.0313 -0.1533  0.6232
20091SOL    HW163771   5.505   7.542   1.059  0.4984 -0.3182  2.5928
20091SOL    HW263772   5.633   7.587   1.125  1.2420  1.7017 -0.0553
20092SOL     OW63773   0.737  10.261   5.426  0.7665  0.3844 -0.0795
20092SOL    HW163774   0.676  10.188   5.414  0.4678  0.9888 -3.3974
20092SOL    HW263775   0.806  10.227   5.482 -0.0738 -1.9882 -0.3711
20093SOL     OW63776   0.571   2.928   9.224 -0.1988 -0.2576 -0.4582
20093SOL    HW163777   0.531   2.997   9.170 -0.1622 -0.0238 -0.1930
20093SOL    HW263778   0.560   2.959   9.314  1.1460  0.1273 -0.4003
20094SOL     OW63779   5.781   1.113   3.412 -0.2160 -0.3403  0.0388
20094SOL    HW163780   5.709   1.083   3.467 -0.2947  2.7975  1.8612
20094SOL    HW263781   5.806   1.036   3.362 -2.3125 -2.5331  2.0992
20095SOL     OW63782   4.584   2.458   8.994 -0.1041  0.5199 -0.1149
20095SOL    HW163783   4.590   2.481   9.087  1.3137  0.3778 -0.1509
20095SOL    HW263784   4.610   2.537   8.948  0.3397  0.2293 -0.3615
20096SOL     OW63785   3.641   5.050   9.896  0.0356  0.1278  0.3123
20096SOL    HW163786   3.671   4.964   9.870  0.8525  1.2852 -3.0407
20096SOL    HW263787   3.547   5.050   9.877  0.1339  0.1404 -0.1691
20097SOL     OW63788   1.444   2.230   2.738  0.4964  0.4745 -0.0331
20097SOL    HW163789   1.484   2.285   2.671  0.8754  1.1294  0.7162
20097SOL    HW263790   1.474   2.268   2.821  0.7809 -0.8639  0.5053
20098SOL     OW63791   9.424   3.219   6.030 -0.2290  0.2019  0.4567
20098SOL    HW163792   9.382   3.172   5.958  0.8165  0.6892 -0.5002
20098SOL    HW263793   9.457   3.150   6.088 -0.0824 -0.2182 -0.1207
20099SOL     OW63794   8.828   5.553   1.645 -0.9786 -0.2802 -0.4514
20099SOL    HW163795   8.893   5.595   1.589 -1.1419 -0.4315 -0.7552
20099SOL    HW263796   8.753   5.612   1.642 -0.9367 -0.2180 -0.2800
20100SOL     OW63797   1.255  10.286   2.531 -1.0576 -0.0437  0.1479
20100SOL    HW163798   1.238  10.296   2.624  0.4920 -0.1127  0.4662
20100SOL    HW263799   1.306  10.206   2.524 -1.0908 -0.0031 -0.7616
20101SOL     OW63800   0.778   5.200   5.478  0.3016 -0.3636 -0.0055
20101SOL    HW163801   0.762   5.268   5.543  1.7545 -0.3122  0.3273
20101SOL    HW263802   0.792   5.120   5.529 -2.2656 -1.1573 -0.4216
20102SOL     OW63803   8.460   4.969   7.381  0.1647  0.0742 -0.3076
20102SOL    HW163804   8.373   4.933   7.396  0.3935  0.1619  1.4225
20102SOL    HW263805   8.468   4.973   7.285 -0.2870 -3.4546 -0.6280
20103SOL     OW63806   4.116   0.542   2.612 -0.3728 -0.0555  0.2414
20103SOL    HW163807   4.190   0.570   2.665 -0.3210 -0.6558  0.4949
20103SOL    HW263808   4.044   0.533   2.675 -0.3636 -0.5733  0.1787
20104SOL     OW63809   4.555   6.038   1.470  0.8463 -0.6610  0.7752
20104SOL    HW163810   4.565   6.067   1.560 -1.2580 -0.2440  0.9315
20104SOL    HW263811   4.463   6.011   1.463  1.1837 -1.5340 -1.0012
20105SOL     OW63812   9.838   5.798   3.870 -0.2418 -0.0445  0.1949
20105SOL    HW163813   9.812   5.873   3.817 -0.2473 -0.3510 -0.2398
20105SOL    HW263814   9.926   5.821   3.902  0.1970 -0.2988 -0.7945
20106SOL     OW63815   7.898   7.836   0.209 -0.2124  0.2947  0.2617
20106SOL    HW163816   7.927   7.799   0.126 -1.3255  0.5850 -0.2784
20106SOL    HW263817   7.959   7.907   0.227 -1.6825  2.2460 -1.8861
20107SOL     OW63818  10.712   6.866   0.528  0.4617 -0.0279  0.8778
20107SOL    HW163819  10.730   6.886   0.436  1.9272  1.3880  1.4440
20107SOL    HW263820  10.677   6.777   0.526 -1.4686  0.6766 -1.2358
20108SOL     OW63821   3.765   9.153   2.152 -0.5236  0.0705 -0.6687
20108SOL    HW163822   3.792   9.064   2.175 -0.6764  0.3526  0.6520
20108SOL    HW263823   3.848   9.201   2.141 -0.4302  0.2385  0.5961
20109SOL     OW63824  10.777   9.343   6.923 -0.0472  0.7269  0.1505
20109SOL    HW163825  10.842   9.411   6.905 -0.5312  0.9880 -0.6338
20109SOL    HW263826  10.703   9.390   6.960 -0.3216  0.6108 -0.2473
20110SOL     OW63827   3.766   6.753   1.119 -0.4291 -0.1324 -0.5319
20110SOL    HW163828   3.827   6.822   1.092  0.8560 -0.5487  1.1028
20110SOL    HW263829   3.823   6.681   1.148 -1.7148 -0.9565  0.0462
20111SOL     OW63830  10.827   0.315   2.756 -0.3842  0.0377 -0.3304
20111SOL    HW163831  10.792   0.235   2.793  2.5879 -0.2444  2.3023
20111SOL    HW263832  10.823   0.379   2.827 -0.2289  1.4318 -1.5139
20112SOL     OW63833   7.897   0.573   0.746  0.0470  0.2498  0.4529
20112SOL    HW163834   7.854   0.641   0.694 -1.4640 -0.4649  0.7068
20112SOL    HW263835   7.871   0.591   0.836 -0.2163 -0.5442  0.5470
20113SOL     OW63836   8.231   4.754   2.310  0.1672 -0.2487 -0.6835
20113SOL    HW163837   8.204   4.797   2.229 -0.5974  0.1049 -0.2438
20113SOL    HW263838   8.287   4.682   2.280 -1.0050 -0.8158 -1.5999
20114SOL     OW63839   8.936  10.999   9.407 -0.1326  0.3305 -0.1494
20114SOL    HW163840   8.932  11.026   9.315  2.3307 -1.0948 -0.7716
20114SOL    HW263841   8.856  10.949   9.421 -0.5737  0.6165 -1.5166
20115SOL     OW63842   1.956   2.869   7.384  0.2236  0.1606  0.3862
20115SOL    HW163843   1.970   2.823   7.302 -0.6594  0.3429  0.1152
20115SOL    HW263844   1.866   2.846   7.408  0.5919 -0.2031  1.5058
20116SOL     OW63845   7.588   1.675   9.095 -0.0890  0.2031  0.2092
20116SOL    HW163846   7.521   1.689   9.028 -0.0071  0.7480  0.2384
20116SOL    HW263847   7.549   1.610   9.154 -0.5902  0.5074  0.2218
20117SOL     OW63848   8.674   6.280  10.318  0.1986  0.1859  0.3150
20117SOL    HW163849   8.633   6.310  10.400 -1.1072  1.2911 -0.7050
20117SOL    HW263850   8.736   6.213  10.346 -1.0882 -0.3305  2.1075
20118SOL     OW63851   1.749   8.791   4.571 -0.4466 -0.2343 -0.0305
20118SOL    HW163852   1.668   8.784   4.520 -1.0552 -0.4116  0.9414
20118SOL    HW263853   1.790   8.705   4.562 -0.4907 -0.2256 -0.3217
20119SOL     OW63854   2.758   4.319  10.947  0.0558  0.4635  0.0381
20119SOL    HW163855   2.745   4.408  10.914 -0.1437  0.5704  0.3964
20119SOL    HW263856   2.677   4.273  10.926 -0.3134  0.6990  0.8976
20120SOL     OW63857   1.071   1.533   0.454 -0.0811 -0.7035 -0.3937
20120SOL    HW163858   1.053   1.562   0.544  0.9697 -0.0748 -0.3699
20120SOL    HW263859   1.078   1.614   0.404  1.3269 -0.9696 -0.6501
20121SOL     OW63860   9.054   6.275   4.689 -0.4919  0.0807  0.0259
20121SOL    HW163861   8.986   6.339   4.669 -0.5452  0.1408  0.3864
20121SOL    HW263862   9.127   6.298   4.632 -0.3269  0.7704  0.5034
20122SOL     OW63863   2.064   6.435   2.650 -0.1626  0.7254  0.0833
20122SOL    HW163864   1.980   6.395   2.673  0.7005 -0.7806  0.7212
20122SOL    HW263865   2.125   6.403   2.716  1.1480  0.9290 -0.9884
20123SOL     OW63866  10.982   8.943   2.149 -0.2106  0.4997 -0.2613
20123SOL    HW163867  10.966   9.037   2.138  0.2341  0.5061 -0.9326
20123SOL    HW263868  11.056   8.939   2.210  0.3729  0.6266 -0.9419
20124SOL     OW63869   4.276   7.737   0.680  0.0860  0.5763  0.7118
20124SOL    HW163870   4.290   7.831   0.675  1.2567  0.3864  0.0299
20124SOL    HW263871   4.354   7.699   0.640 -0.4258 -0.6820  0.8604
20125SOL     OW63872   9.415   0.370   0.612  0.0950 -0.1299  0.8622
20125SOL    HW163873   9.456   0.290   0.642  0.2173  0.3317  1.9528
20125SOL    HW263874   9.416   0.363   0.516  1.2426 -0.8511  0.9136
20126SOL     OW63875   5.875  10.965   9.865  0.1232 -0.5035  0.1002
20126SOL    HW163876   5.826  10.938   9.943 -0.2063 -0.2975 -0.0308
20126SOL    HW263877   5.851  11.057   9.853  0.1484 -0.5435 -0.2624
20127SOL     OW63878   9.958   2.051   0.154 -0.0246 -0.0610  0.1463
20127SOL    HW163879   9.914   1.989   0.213  0.6856 -0.4646  0.2660
20127SOL    HW263880  10.005   2.109   0.213  0.8095 -0.5578 -0.0188
20128SOL     OW63881   5.358   3.474   4.412 -0.3752  0.1428 -0.3351
20128SOL    HW163882   5.424   3.422   4.366 -0.7792 -1.8279  1.1791
20128SOL    HW263883   5.398   3.560   4.422  1.0522 -0.3630 -1.4025
20129SOL     OW63884   9.305   0.369   9.307 -0.7304  0.1318 -0.4671
20129SOL    HW163885   9.354   0.369   9.225  0.8593 -1.8718  0.3812
20129SOL    HW263886   9.334   0.289   9.351  0.1766  2.1932  3.0280
20130SOL     OW63887   1.836   5.262   4.661  0.3524  0.1462 -0.1366
20130SOL    HW163888   1.745   5.273   4.634  0.0002  0.7536  1.1843
20130SOL    HW263889   1.863   5.348   4.692  1.6713  0.1720 -1.2804
20131SOL     OW63890   6.914   5.292   6.333 -0.0274  0.3763  0.1230
20131SOL    HW163891   6.838   5.252   6.290  0.8910 -0.2039 -1.0029
20131SOL    HW263892   6.880   5.325   6.416 -1.9616  1.7721 -1.1248
20132SOL     OW63893   1.088   7.668   1.701 -0.3594  0.1029  0.2776
20132SOL    HW163894   1.028   7.732   1.741 -0.3379  0.4143 -0.1786
20132SOL    HW263895   1.041   7.636   1.624 -0.0783  0.0962  0.1074
20133SOL     OW63896   8.686   4.586   1.594  0.4060  0.1576 -0.1678
20133SOL    HW163897   8.640   4.669   1.578  0.3242  0.2870  0.7113
20133SOL    HW263898   8.660   4.561   1.682  0.6738 -0.6546 -0.3125
20134SOL     OW63899   4.673   1.624  10.181 -0.1348 -0.8677 -0.3759
20134SOL    HW163900   4.749   1.681  10.172  0.2101 -1.3759 -0.7811
20134SOL    HW263901   4.707   1.545  10.224 -0.8134 -0.3837  1.1030
20135SOL     OW63902   7.309  10.265   2.461  0.0335  0.1920 -0.7297
20135SOL    HW163903   7.241  10.328   2.437  0.3837  0.7793 -0.2267
20135SOL    HW263904   7.369  10.315   2.518  1.5243  0.0342 -2.0956
20136SOL     OW63905   2.392   8.164   4.829  0.0588  0.1452  0.0625
20136SOL    HW163906   2.402   8.256   4.852 -0.1165  0.2523 -0.2873
20136SOL    HW263907   2.316   8.135   4.878  1.2747 -0.3440  1.7506
20137SOL     OW63908   5.113   2.163  10.859  0.5974  0.8718  0.4864
20137SOL    HW163909   5.080   2.243  10.900 -2.8585 -0.0467 -0.1718
20137SOL    HW263910   5.098   2.095  10.925 -1.3250  0.0171 -0.7585
20138SOL     OW63911   0.396   1.679   8.837  0.6708  0.5571  0.0143
20138SOL    HW163912   0.329   1.667   8.904  1.1425  1.1197  0.6026
20138SOL    HW263913   0.461   1.736   8.878  0.3871  1.9198 -1.3168
20139SOL     OW63914   2.570   0.745   2.986  0.6599 -0.9971 -0.4106
20139SOL    HW163915   2.517   0.741   2.906  0.2873 -0.7937 -0.1778
20139SOL    HW263916   2.512   0.785   3.051  2.1879  2.5799 -1.0187
20140SOL     OW63917   7.322   4.464   5.598 -0.8006 -0.9363  0.4137
20140SOL    HW163918   7.271   4.383   5.590  0.3356 -1.6235 -0.1083
20140SOL    HW263919   7.319   4.503   5.511  2.0196 -2.5413 -0.5311
20141SOL     OW63920   4.950   9.361   6.447 -0.0090  0.2546  0.1096
20141SOL    HW163921   4.990   9.329   6.528 -2.8294 -1.7073  0.8768
20141SOL    HW263922   4.926   9.281   6.399 -1.6771  1.3266 -0.9412
20142SOL     OW63923   9.474   1.541   2.363 -0.1296  0.5652 -0.2046
20142SOL    HW163924   9.533   1.532   2.438 -0.1448 -2.0258 -0.4163
20142SOL    HW263925   9.531   1.527   2.287 -0.7927 -0.9895 -0.4498
20143SOL     OW63926  10.044   4.634   1.711  0.2785 -0.0366 -0.3143
20143SOL    HW163927  10.088   4.650   1.795  0.1954 -1.5709  0.0375
20143SOL    HW263928   9.952   4.622   1.734  0.4859 -2.0961 -0.3861
20144SOL     OW63929   5.089   8.650   7.199 -0.0300 -0.4354  0.1441
20144SOL    HW163930   5.099   8.676   7.107 -1.8105  1.5321  0.4263
20144SOL    HW263931   5.162   8.693   7.244  0.8102 -1.3531 -0.3168
20145SOL     OW63932   3.628   0.596  10.791 -0.5890 -0.3168 -0.1456
20145SOL    HW163933   3.620   0.689  10.770 -0.8570 -0.4899 -0.8035
20145SOL    HW263934   3.539   0.569  10.814 -0.6897 -0.6351 -0.8892
20146SOL     OW63935  10.996   5.912   5.428 -0.1789  0.7450  0.0782
20146SOL    HW163936  10.968   5.829   5.466  0.6931  0.7756  0.8244
20146SOL    HW263937  11.089   5.900   5.411 -0.0636  1.5504  0.1246
20147SOL     OW63938   6.393   7.754   5.934  0.1190  0.1880 -0.0045
20147SOL    HW163939   6.478   7.789   5.958  0.0040  0.1784  0.4315
20147SOL    HW263940   6.395   7.663   5.963  0.1672  0.0272 -0.5080
20148SOL     OW63941   1.736   4.626  10.202 -0.6797 -0.3632 -0.1058
20148SOL    HW163942   1.789   4.706  10.206 -1.0642  0.0118 -1.8962
20148SOL    HW263943   1.785   4.562  10.253 -0.3903  1.0085  1.4226
20149SOL     OW63944   1.298   5.351   6.972  0.0451  0.5193 -0.0090
20149SOL    HW163945   1.305   5.340   7.067  0.3382  0.4623 -0.0349
20149SOL    HW263946   1.387   5.337   6.941 -0.4356 -1.8769 -0.5395
20150SOL     OW63947   9.315   9.097   9.243 -0.6217  0.2336 -0.0808
20150SOL    HW163948   9.233   9.141   9.221 -0.1560  1.2783  0.1765
20150SOL    HW263949   9.296   9.048   9.323 -1.5357 -1.2159 -1.1493
20151SOL     OW63950   4.813   6.160  10.999  0.0517 -0.7683 -0.0226
20151SOL    HW163951   4.719   6.142  10.995 -0.1383 -0.2633  1.5379
20151SOL    HW263952   4.825   6.234  10.940 -0.2877 -1.6730 -1.2619
20152SOL     OW63953   8.748   4.367   9.325 -0.7157 -0.2591  0.1700
20152SOL    HW163954   8.742   4.339   9.416  2.3534 -1.3811  0.1521
20152SOL    HW263955   8.790   4.452   9.329  0.0867 -0.6269 -0.1966
20153SOL     OW63956   3.874   7.504   0.706 -0.5044  0.0059 -0.0527
20153SOL    HW163957   3.856   7.550   0.624  1.6959 -0.7135 -0.9998
20153SOL    HW263958   3.866   7.411   0.684 -0.6084 -0.1899  0.7502
20154SOL     OW63959   1.834   7.389   1.685  0.0336 -0.1945  0.5717
20154SOL    HW163960   1.777   7.464   1.699  1.8057  2.2780 -3.5105
20154SOL    HW263961   1.922   7.420   1.707  0.8592 -0.8108 -1.5630
20155SOL     OW63962   3.951   8.014   2.159  0.1188 -0.1445  0.1652
20155SOL    HW163963   4.040   7.980   2.152  0.1162  0.1018 -1.3249
20155SOL    HW263964   3.931   8.009   2.252  0.9709 -2.0402  0.2939
20156SOL     OW63965   3.471   8.319  10.005  0.8590 -0.0955  0.4500
20156SOL    HW163966   3.377   8.328   9.987  1.1645  0.5620 -0.9566
20156SOL    HW263967   3.506   8.276   9.927  1.6923 -0.6978  1.1274
20157SOL     OW63968   4.269   1.675   2.590 -0.1471 -0.3589 -0.0156
20157SOL    HW163969   4.327   1.602   2.613 -0.2958  0.0242  1.7110
20157SOL    HW263970   4.329   1.748   2.574 -0.0754 -0.3661  0.2098
20158SOL     OW63971   4.181   5.497   2.223 -0.1337  0.1731  0.1777
20158SOL    HW163972   4.122   5.425   2.246  2.3935 -1.6465  1.3957
20158SOL    HW263973   4.185   5.551   2.302  0.5234 -0.2569  0.4514
20159SOL     OW63974   5.821   7.083   7.772  0.3699  0.2791 -0.1877
20159SOL    HW163975   5.729   7.087   7.746 -0.0584 -0.4952  1.1343
20159SOL    HW263976   5.832   7.158   7.832  0.4972  0.1488 -0.0489
20160SOL     OW63977   5.658  10.638   4.842  0.4232  0.0927  0.4540
20160SOL    HW163978   5.737  10.678   4.877  0.6329  0.0595  0.0243
20160SOL    HW263979   5.637  10.568   4.904  2.1621 -1.5582 -0.6999
20161SOL     OW63980   4.155   0.183   2.628 -0.4699 -0.3284 -0.0116
20161SOL    HW163981   4.246   0.192   2.653 -0.9958  2.0351  1.2821
20161SOL    HW263982   4.112   0.262   2.660 -2.9372 -1.2153 -0.8290
20162SOL     OW63983   0.052   9.212   2.050  0.0839 -0.0381 -0.3748
20162SOL    HW163984   0.021   9.200   2.140  0.9752  0.7311  0.0462
20162SOL    HW263985  -0.025   9.193   1.996 -0.9238  1.0772  0.6013
20163SOL     OW63986   8.763   1.917   8.571 -0.8825 -0.3203 -0.0880
20163SOL    HW163987   8.672   1.904   8.545 -1.8184  2.7349  1.1687
20163SOL    HW263988   8.758   1.961   8.656  1.8189 -0.9807  0.5109
20164SOL     OW63989   3.886   5.842   7.351 -0.0319  0.2907  0.2089
20164SOL    HW163990   3.840   5.832   7.267  1.6896 -1.0032 -0.6306
20164SOL    HW263991   3.822   5.887   7.407 -0.8396  2.2358 -2.0898
20165SOL     OW63992   1.507   2.814   4.016  0.1558  0.1637 -0.1240
20165SOL    HW163993   1.558   2.839   3.939 -2.1439  0.6928 -1.5732
20165SOL    HW263994   1.476   2.726   3.997 -0.3787  0.2733  0.2278
20166SOL     OW63995   1.614   3.990  10.331 -0.1303 -0.2309 -0.1132
20166SOL    HW163996   1.648   4.080  10.334 -0.1057 -0.1777 -1.4399
20166SOL    HW263997   1.622   3.965  10.239  1.5685 -2.2606  0.5053
20167SOL     OW63998   1.915   5.316   9.504  0.1361  0.7025  0.0554
20167SOL    HW163999   1.970   5.376   9.553 -0.4241  1.1263  0.1788
20167SOL    HW264000   1.886   5.252   9.569 -0.1797  0.9577  0.1677
20168SOL     OW64001   8.377   9.326   7.861  0.4680  0.4326 -0.3036
20168SOL    HW164002   8.418   9.320   7.947 -1.6167 -4.6352  0.7717
20168SOL    HW264003   8.283   9.335   7.880  0.0597  0.3432 -2.0751
20169SOL     OW64004   6.518   5.211   9.261 -0.6976 -0.1231  0.5794
20169SOL    HW164005   6.584   5.172   9.319 -0.0648 -0.3858 -0.2996
20169SOL    HW264006   6.435   5.194   9.305 -0.2183 -0.1361  1.5122
20170SOL     OW64007   6.666   3.806   6.849  0.3927  0.0255 -0.1513
20170SOL    HW164008   6.752   3.808   6.892 -0.0549  1.3286  0.7521
20170SOL    HW264009   6.680   3.853   6.766  0.9061 -1.1823 -0.7745
20171SOL     OW64010   4.496   1.910   6.261 -0.2107  0.5687 -0.3690
20171SOL    HW164011   4.474   1.948   6.176 -0.6674  0.7992 -0.1466
20171SOL    HW264012   4.587   1.882   6.251  0.1434  1.7301 -0.5366
20172SOL     OW64013   8.964   8.573   3.692  0.4304 -0.2457 -0.1953
20172SOL    HW164014   8.932   8.499   3.641 -1.0000 -1.9577  2.8565
20172SOL    HW264015   8.892   8.636   3.692 -0.0592 -0.7832  0.6038
20173SOL     OW64016   8.274   3.912   1.289 -0.2225 -0.7732  0.4316
20173SOL    HW164017   8.178   3.903   1.293 -0.1941 -0.9094  0.8886
20173SOL    HW264018   8.294   3.908   1.195 -0.7010 -0.3539  0.3047
20174SOL     OW64019   6.988   8.457   2.168 -0.5714 -0.2237  0.1619
20174SOL    HW164020   7.080   8.430   2.173 -0.2547  0.9828  1.1817
20174SOL    HW264021   6.940   8.383   2.205 -0.0589 -1.0020 -0.6852
20175SOL     OW64022   9.021  10.148   0.922  0.4815 -0.1247  0.1585
20175SOL    HW164023   8.957  10.125   0.855 -2.3882 -2.1802  3.2916
20175SOL    HW264024   9.038  10.067   0.969  3.2578  0.9701  1.3066
20176SOL     OW64025   7.352   0.081   5.721 -0.5362 -0.2940  0.5752
20176SOL    HW164026   7.261   0.086   5.749 -0.0442  2.0196  1.9749
20176SOL    HW264027   7.348   0.088   5.626 -1.8725 -1.8083  0.4809
20177SOL     OW64028   1.773   2.225   2.973 -0.1555  0.5817  0.3302
20177SOL    HW164029   1.779   2.182   2.887  0.3513  0.9721  0.1696
20177SOL    HW264030   1.720   2.165   3.026 -1.5328  0.9290 -0.6136
20178SOL     OW64031   6.039   1.061   2.830  0.6875 -0.1792  0.1216
20178SOL    HW164032   6.006   1.145   2.797  0.3314 -0.3707 -0.0092
20178SOL    HW264033   6.134   1.069   2.824  0.6395 -0.6163 -2.0260
20179SOL     OW64034   3.078   9.383   0.407  0.1902 -0.2105 -0.4688
20179SOL    HW164035   3.001   9.351   0.360 -0.5950 -0.9466  1.2273
20179SOL    HW264036   3.133   9.305   0.419  0.4993  0.0183 -0.3980
20180SOL     OW64037   0.260   8.998   9.146 -0.8163  0.5144  0.6635
20180SOL    HW164038   0.228   9.077   9.189  1.0462  1.6151  0.1514
20180SOL    HW264039   0.346   8.983   9.186  0.9935  1.5554 -2.5227
20181SOL     OW64040  10.001   1.279   2.959 -0.2354 -0.6410 -0.0715
20181SOL    HW164041   9.998   1.211   2.891 -0.3058 -1.3352  0.6061
20181SOL    HW264042   9.937   1.249   3.024 -0.0844 -0.0428  0.3559
20182SOL     OW64043   8.119   5.714   4.564 -0.5751  0.1711  0.6300
20182SOL    HW164044   8.065   5.762   4.627 -1.1259 -1.1943  1.2312
20182SOL    HW264045   8.127   5.774   4.490 -1.0708  1.2693  1.4277
20183SOL     OW64046   1.817   9.379   9.969  0.0722 -0.3439  0.4497
20183SOL    HW164047   1.844   9.310   9.908  0.9546  0.8564 -0.5855
20183SOL    HW264048   1.728   9.402   9.943 -0.0461 -0.7591  0.4889
20184SOL     OW64049   6.443   8.322  10.842 -0.0077 -0.4996  0.2567
20184SOL    HW164050   6.492   8.318  10.760 -1.8067  0.8881 -0.9807
20184SOL    HW264051   6.504   8.360  10.905  0.4257  1.6026 -1.3251
20185SOL     OW64052  10.990   2.645   0.308 -0.0368  0.0593 -0.5132
20185SOL    HW164053  10.897   2.621   0.312 -0.3618  1.3024 -0.2479
20185SOL    HW264054  11.033   2.584   0.368 -0.5322 -1.1136 -1.3057
20186SOL     OW64055   3.983   0.824  10.254 -0.3546  0.1036 -0.5519
20186SOL    HW164056   4.030   0.899  10.219 -0.1888 -1.1221 -3.2595
20186SOL    HW264057   3.917   0.805  10.187 -2.2223 -0.5151  1.3745
20187SOL     OW64058   6.998   5.309   1.714  0.1401  0.0597 -0.2896
20187SOL    HW164059   6.994   5.234   1.773 -0.8199 -0.1649 -0.6107
20187SOL    HW264060   6.919   5.359   1.734 -0.9029 -0.6883 -2.1943
20188SOL     OW64061   3.314   7.505  10.087 -0.3582  0.2710 -0.7943
20188SOL    HW164062   3.318   7.540  10.176  2.5598 -1.1718 -0.2419
20188SOL    HW264063   3.252   7.432  10.092 -0.6843  0.5885 -0.1092
20189SOL     OW64064   1.466   1.688   3.799  0.0304 -0.0636 -0.1645
20189SOL    HW164065   1.406   1.713   3.869 -0.0649 -1.6012  0.3273
20189SOL    HW264066   1.420   1.619   3.751  0.6696 -0.0015 -0.8818
20190SOL     OW64067  10.317   6.982   7.500  0.2092  0.3945 -0.3144
20190SOL    HW164068  10.312   7.021   7.587 -2.1740 -0.7813  0.1489
20190SOL    HW264069  10.314   6.888   7.515 -1.2637  0.1814 -1.6605
20191SOL     OW64070   0.998   3.805   7.474 -0.6391 -0.6939  0.2615
20191SOL    HW164071   1.065   3.867   7.445 -1.1121 -0.0631  0.5083
20191SOL    HW264072   0.998   3.812   7.569  0.3285 -2.1603  0.4042
20192SOL     OW64073   0.602   8.497   5.999 -0.6018  0.3337  0.2356
20192SOL    HW164074   0.570   8.493   5.909  2.2987  1.8548 -1.0253
20192SOL    HW264075   0.544   8.559   6.043 -0.8195  1.1805 -1.2000
20193SOL     OW64076   7.645   7.459   9.681 -0.0755  0.0035  0.4332
20193SOL    HW164077   7.578   7.453   9.748 -0.5926  1.6750  0.1120
20193SOL    HW264078   7.598   7.448   9.598 -0.4250  3.3525  0.0675
20194SOL     OW64079   8.649   3.555   1.521  0.0808 -0.2998 -0.2533
20194SOL    HW164080   8.699   3.537   1.441  0.0574 -0.9059 -0.1304
20194SOL    HW264081   8.714   3.560   1.590 -0.0629 -1.5157 -0.0216
20195SOL     OW64082   0.456   4.714  10.875 -0.3667  0.2165  0.7564
20195SOL    HW164083   0.514   4.637  10.867 -1.6973 -0.6525 -1.1742
20195SOL    HW264084   0.496   4.780  10.818  0.3947  0.7764  1.8834
20196SOL     OW64085   6.678   1.527   0.217 -0.7374 -0.2901 -0.1164
20196SOL    HW164086   6.621   1.481   0.277 -1.2995  2.2889  1.5058
20196SOL    HW264087   6.766   1.495   0.236 -1.2511 -1.8748 -0.2970
20197SOL     OW64088   1.424   5.774  10.345 -0.0845 -0.3765 -0.0996
20197SOL    HW164089   1.385   5.857  10.319  1.2522 -0.5977 -3.1595
20197SOL    HW264090   1.354   5.710  10.334  0.5662 -0.5998 -4.4230
20198SOL     OW64091  10.068   2.052   3.504  0.5391 -0.1191  0.5375
20198SOL    HW164092  10.086   2.045   3.598  0.5898 -1.6770  0.4385
20198SOL    HW264093  10.022   2.135   3.494 -1.2717 -0.8478  2.2339
20199SOL     OW64094   6.980   1.236   3.982  0.0045 -0.1328 -0.1557
20199SOL    HW164095   6.969   1.286   4.062 -0.1668  1.4527 -1.1292
20199SOL    HW264096   7.066   1.195   3.990 -0.2697 -0.5060  1.0841
20200SOL     OW64097   0.994   7.801   3.104  0.8666  0.5162  0.0674
20200SOL    HW164098   1.003   7.710   3.134  0.7491 -0.1244 -1.7443
20200SOL    HW264099   1.057   7.809   3.033  0.2826  1.6203 -0.3413
20201SOL     OW64100   3.549   5.974   6.434  0.1459 -0.3247  0.1378
20201SOL    HW164101   3.571   6.023   6.355 -0.9653 -2.0596 -1.3396
20201SOL    HW264102   3.495   6.034   6.486  0.1121  0.5373 -0.8648
20202SOL     OW64103   4.089   4.435   4.128  0.0040  0.6063  0.2000
20202SOL    HW164104   4.060   4.406   4.042 -0.9437  0.2357  0.6343
20202SOL    HW264105   4.175   4.394   4.139 -0.5628 -0.6478  0.0894
20203SOL     OW64106   1.663   5.707   3.337  0.1361  0.1615 -0.6728
20203SOL    HW164107   1.756   5.719   3.317 -0.4029  0.8771 -3.1039
20203SOL    HW264108   1.630   5.795   3.352 -0.4843  0.1175 -1.6763
20204SOL     OW64109   9.404   8.846   1.220 -0.1892 -0.2016 -0.1880
20204SOL    HW164110   9.498   8.850   1.204  0.1079  3.4303  1.4011
20204SOL    HW264111   9.365   8.838   1.133  1.5654  1.1128 -1.1605
20205SOL     OW64112   7.542   4.875   7.999  0.3129 -0.2088 -0.0263
20205SOL    HW164113   7.621   4.907   7.955 -0.9991  2.1789 -0.7753
20205SOL    HW264114   7.572   4.796   8.045  2.3849 -1.2370 -2.8498
20206SOL     OW64115   3.789   8.002   7.757  0.1455 -0.1614  0.4772
20206SOL    HW164116   3.873   7.957   7.757  1.1683  1.6282  0.5853
20206SOL    HW264117   3.811   8.093   7.735 -1.6621  0.5118  1.2344
20207SOL     OW64118   9.572   9.944   1.736 -0.4581  0.1076  0.1726
20207SOL    HW164119   9.491   9.895   1.721 -1.0731  0.6843  1.4411
20207SOL    HW264120   9.606   9.963   1.649  0.7019 -3.9665 -0.5075
20208SOL     OW64121   2.804   2.184   7.141 -0.3558 -0.0911 -0.1680
20208SOL    HW164122   2.837   2.156   7.226  0.4763  0.7162 -0.2195
20208SOL    HW264123   2.872   2.241   7.106 -1.5535  1.1674 -0.5120
20209SOL     OW64124   1.285  10.793   3.905 -0.1882  0.0752  0.1567
20209SOL    HW164125   1.374  10.818   3.931 -0.2362  0.5099 -0.0875
20209SOL    HW264126   1.298  10.728   3.836 -0.0533  0.3617 -0.0934
20210SOL     OW64127   4.345   8.881   4.206 -0.1240 -0.0183 -0.5823
20210SOL    HW164128   4.347   8.874   4.110  0.4117 -0.2719 -0.5608
20210SOL    HW264129   4.433   8.911   4.229 -0.1716 -0.1932 -0.1536
20211SOL     OW64130   6.595   3.896   5.264  0.2479 -0.1795 -0.0101
20211SOL    HW164131   6.516   3.934   5.301 -1.0433 -2.4094 -0.2980
20211SOL    HW264132   6.661   3.905   5.333 -0.7110  0.2607  0.8703
20212SOL     OW64133  10.233  10.334   1.018  0.4106 -0.3865  0.2151
20212SOL    HW164134  10.144  10.302   1.003  0.2356  0.2922 -0.2446
20212SOL    HW264135  10.287  10.255   1.016 -0.3850 -1.0401  2.3965
20213SOL     OW64136   4.076   6.891   1.262  0.0359  0.6925  0.2673
20213SOL    HW164137   4.025   6.910   1.184 -1.7644  0.7489  1.3968
20213SOL    HW264138   4.033   6.941   1.332  0.5560 -0.6665  1.6149
20214SOL     OW64139   3.115   7.899   4.138  0.3305 -0.1049  0.0465
20214SOL    HW164140   3.084   7.985   4.165  1.3981  0.0021  0.9450
20214SOL    HW264141   3.095   7.841   4.212  0.8916 -0.3426  0.0190
20215SOL     OW64142   9.783   9.702   2.032 -0.4563  0.3802 -0.1197
20215SOL    HW164143   9.853   9.684   1.969 -0.6841 -0.3858 -0.1629
20215SOL    HW264144   9.704   9.667   1.990 -0.8052  0.9156  0.0871
20216SOL     OW64145   1.435   5.345   1.222 -0.0503 -0.6776 -0.3813
20216SOL    HW164146   1.519   5.299   1.222  0.2564 -0.1793  1.2196
20216SOL    HW264147   1.448   5.419   1.163  0.2789 -1.1887 -0.9668
20217SOL     OW64148   8.942   1.575   9.155  0.2725  0.0892 -0.4317
20217SOL    HW164149   8.926   1.604   9.245  0.0190 -0.1477 -0.3983
20217SOL    HW264150   8.927   1.480   9.158 -0.6758  0.2132 -0.9313
20218SOL     OW64151   3.522   7.826   8.374 -0.1643 -0.0487 -0.3385
20218SOL    HW164152   3.541   7.796   8.463 -0.2063 -1.6192 -0.8179
20218SOL    HW264153   3.429   7.806   8.361 -0.7779  2.2723  0.0061
20219SOL     OW64154  10.281   7.388   2.282  0.2613  0.2783 -0.4640
20219SOL    HW164155  10.240   7.314   2.237 -2.4611  1.5583 -0.2632
20219SOL    HW264156  10.351   7.416   2.224 -1.8134  0.5773 -2.9937
20220SOL     OW64157   9.457   1.034   4.611 -0.2747 -0.2358  0.2821
20220SOL    HW164158   9.385   1.074   4.659  1.2981  3.0560  0.1557
20220SOL    HW264159   9.426   1.027   4.521 -0.7325  0.3375  0.3966
20221SOL     OW64160   0.387   6.026   7.694  0.0330  0.0670 -0.0006
20221SOL    HW164161   0.322   6.067   7.637  1.9656  0.2875 -2.2243
20221SOL    HW264162   0.360   5.934   7.698 -1.2388  0.4375  0.4049
20222SOL     OW64163   4.185   9.019  10.212 -0.1894  0.0703 -0.5829
20222SOL    HW164164   4.205   9.110  10.192 -0.2133 -0.2127 -1.9933
20222SOL    HW264165   4.089   9.014  10.208 -0.5485  0.7502  3.1762
20223SOL     OW64166   0.077   9.693   1.270  0.3128 -0.0233 -0.0569
20223SOL    HW164167   0.007   9.757   1.255  0.3149 -0.1401 -0.5934
20223SOL    HW264168   0.079   9.641   1.190 -0.3360 -1.3275  0.7334
20224SOL     OW64169   4.984  10.113   8.562 -0.3144 -0.3142  0.0375
20224SOL    HW164170   5.025  10.197   8.579  1.9140 -1.3115 -0.0091
20224SOL    HW264171   4.894  10.134   8.538  0.2284  2.0446 -0.1498
20225SOL     OW64172   5.620   5.463   4.953 -0.3548  0.0812 -0.0283
20225SOL    HW164173   5.686   5.403   4.919 -0.5043 -0.2445  0.2526
20225SOL    HW264174   5.565   5.483   4.877 -0.7998 -0.7913  0.0603
20226SOL     OW64175   2.066   2.839   2.316 -0.5456  0.4026  0.4050
20226SOL    HW164176   2.154   2.871   2.335  0.0684 -0.7150 -0.3888
20226SOL    HW264177   2.034   2.804   2.399  0.2555 -0.2764  0.4358
20227SOL     OW64178   4.687  10.071  10.485  0.3856  0.3537 -0.1511
20227SOL    HW164179   4.715  10.162  10.488  0.1167  0.4435 -0.3203
20227SOL    HW264180   4.741  10.027  10.550 -0.7042  0.9693  1.2319
20228SOL     OW64181   5.991   1.145   5.706  0.1587  0.1997 -0.7117
20228SOL    HW164182   5.905   1.107   5.687  0.6815 -1.0223 -0.7180
20228SOL    HW264183   5.988   1.164   5.800  0.0085 -0.2005 -0.6311
20229SOL     OW64184   5.754   8.906   4.057 -0.1057 -0.1955  0.3981
20229SOL    HW164185   5.768   8.832   3.997 -0.8586 -0.2391  0.2717
20229SOL    HW264186   5.780   8.873   4.143 -1.3084 -0.9051  0.5001
20230SOL     OW64187   2.354   4.583   9.892  0.0118 -0.3733  0.0190
20230SOL    HW164188   2.393   4.499   9.866  1.4430  0.5375 -0.9012
20230SOL    HW264189   2.283   4.597   9.829 -1.0958 -1.4625  0.9611
20231SOL     OW64190   0.283  10.779   4.885 -0.3018 -0.4505 -0.5609
20231SOL    HW164191   0.248  10.709   4.941  3.1185 -0.7663  1.4818
20231SOL    HW264192   0.318  10.733   4.809  0.5013 -0.8446  0.0217
20232SOL     OW64193   7.889   0.746   0.306 -0.1341 -0.2161 -0.5915
20232SOL    HW164194   7.848   0.698   0.378 -0.2839 -0.2731 -0.7122
20232SOL    HW264195   7.982   0.725   0.313 -0.0210  0.5051  0.1306
20233SOL     OW64196   9.980   2.885   9.047  0.2274  0.3594 -0.0083
20233SOL    HW164197   9.898   2.926   9.074 -0.4156  1.1736 -2.8584
20233SOL    HW264198  10.045   2.954   9.055 -0.1452  0.8926 -1.2973
20234SOL     OW64199   9.629   8.456   5.564 -0.5674  0.0337 -0.8328
20234SOL    HW164200   9.683   8.381   5.538  1.3368  1.4654 -1.2367
20234SOL    HW264201   9.556   8.455   5.503 -1.3237 -2.2167 -0.0023
20235SOL     OW64202   6.464   8.730  10.975 -0.4839  1.0108 -0.5728
20235SOL    HW164203   6.521   8.665  11.018 -1.1108  1.2315  0.6239
20235SOL    HW264204   6.406   8.678  10.920 -0.5630  0.5974 -0.1059
20236SOL     OW64205   0.991   1.701   1.402 -0.1597 -0.8801 -0.8968
20236SOL    HW164206   0.943   1.718   1.483  1.9978  3.1817 -0.2279
20236SOL    HW264207   1.056   1.635   1.426 -1.3467 -1.8160 -0.1546
20237SOL     OW64208   1.607   9.545   6.149  0.9038 -0.0766  0.3409
20237SOL    HW164209   1.577   9.462   6.185  2.0226  0.0114  1.5718
20237SOL    HW264210   1.659   9.584   6.220  0.1589  1.8107 -0.0972
20238SOL     OW64211  10.439   1.852   9.478 -0.1142 -0.0401 -0.0432
20238SOL    HW164212  10.439   1.788   9.406 -1.7806 -0.6677  0.4572
20238SOL    HW264213  10.356   1.836   9.524  0.8256  0.4304  1.9401
20239SOL     OW64214   7.535   0.435   9.784  0.4302  0.3841 -0.7781
20239SOL    HW164215   7.448   0.458   9.817 -0.2603  0.6830 -2.6893
20239SOL    HW264216   7.589   0.511   9.806 -0.0379  0.6330 -0.4578
20240SOL     OW64217   1.011   0.751   6.262  0.3869  0.0395 -0.3089
20240SOL    HW164218   1.078   0.739   6.195  0.5553  1.1010 -0.3555
20240SOL    HW264219   0.973   0.664   6.275  0.9142 -0.3313 -1.1854
20241SOL     OW64220   7.217   6.659   7.541 -0.2544  0.5083 -0.2327
20241SOL    HW164221   7.277   6.691   7.474  0.6311  0.8920  0.7005
20241SOL    HW264222   7.197   6.569   7.514  1.2971  0.1264 -0.2426
20242SOL     OW64223   1.319   9.893   5.835  0.2017 -0.5604  0.5561
20242SOL    HW164224   1.250   9.832   5.810 -0.8046  0.2027  1.3809
20242SOL    HW264225   1.334   9.876   5.928  0.2637  0.1037  0.6726
20243SOL     OW64226   0.964   5.345   7.330  0.0958  0.8879 -0.0182
20243SOL    HW164227   0.926   5.270   7.375 -0.5622  0.5155 -1.1459
20243SOL    HW264228   0.921   5.421   7.368 -0.1355  0.6064  0.2841
20244SOL     OW64229  10.107   6.609   2.680  0.0734  0.0749  0.0326
20244SOL    HW164230  10.176   6.550   2.712  1.4857  1.0618 -1.0386
20244SOL    HW264231  10.039   6.551   2.647 -0.2683 -0.9519  2.3451
20245SOL     OW64232   7.749   4.680   2.566  0.4091  0.0918 -0.0915
20245SOL    HW164233   7.684   4.615   2.541 -0.8918  1.6044 -0.8316
20245SOL    HW264234   7.832   4.645   2.533 -0.4684 -0.4943 -1.8081
20246SOL     OW64235  10.530   2.320   7.526 -0.0202  0.5757 -0.0195
20246SOL    HW164236  10.539   2.302   7.432 -0.2775 -1.0212  0.2283
20246SOL    HW264237  10.491   2.407   7.530 -3.6889 -0.7887 -1.5475
20247SOL     OW64238   7.107   7.468   3.687 -0.3595 -0.8342  0.2175
20247SOL    HW164239   7.101   7.527   3.611 -0.3095 -0.6054  0.3894
20247SOL    HW264240   7.017   7.459   3.718 -0.0745  1.6500  2.0777
20248SOL     OW64241   3.107   1.994   0.827 -0.1375  0.0304 -0.5662
20248SOL    HW164242   3.195   1.977   0.795 -0.3352 -1.0074 -0.6010
20248SOL    HW264243   3.116   2.000   0.922 -0.2727 -1.8718 -0.4034
20249SOL     OW64244   5.597   5.613   2.986  0.1013  0.4187  0.6850
20249SOL    HW164245   5.629   5.569   3.065  0.2243 -1.3494 -0.3044
20249SOL    HW264246   5.535   5.551   2.948  0.2732  1.1125 -0.7813
20250SOL     OW64247   8.979   1.053   9.578 -0.2045 -0.2242 -0.4267
20250SOL    HW164248   8.912   1.091   9.635 -1.2143  0.2963 -1.8951
20250SOL    HW264249   8.989   0.963   9.610 -0.5563  0.1160  0.7113
20251SOL     OW64250   4.973   7.711   4.569 -0.7444  0.0861 -0.3014
20251SOL    HW164251   4.995   7.782   4.509 -1.9827 -0.3374 -1.3151
20251SOL    HW264252   5.013   7.634   4.530  0.1189  0.1162  0.4947
20252SOL     OW64253   6.279   8.522   7.112 -0.1267  0.2154 -0.2628
20252SOL    HW164254   6.265   8.450   7.173 -0.6402 -0.4999 -1.1891
20252SOL    HW264255   6.260   8.484   7.026 -0.5938  1.5085 -0.7547
20253SOL     OW64256   9.609   2.761   0.381 -0.7152 -0.0996  0.0646
20253SOL    HW164257   9.589   2.689   0.441 -1.0488 -0.4110 -0.4129
20253SOL    HW264258   9.690   2.799   0.416 -0.4793 -0.7694  0.2712
20254SOL     OW64259   8.025   2.224   8.669 -0.1550 -0.4331  0.1635
20254SOL    HW164260   7.951   2.166   8.650  0.1305 -0.4517 -0.9857
20254SOL    HW264261   8.102   2.171   8.649  0.1018  0.4586 -1.3571
20255SOL     OW64262   7.727   0.208   2.202  0.4518  0.1788 -0.2487
20255SOL    HW164263   7.759   0.249   2.122  2.4505  0.9977  0.8868
20255SOL    HW264264   7.802   0.159   2.236 -0.3837 -0.2809  1.0522
20256SOL     OW64265   1.051   7.680   0.438  0.0742 -0.0408 -0.3079
20256SOL    HW164266   1.131   7.677   0.491  0.6523  1.4703 -1.0534
20256SOL    HW264267   1.040   7.590   0.407  0.1203 -0.8044  1.7446
20257SOL     OW64268   5.174   1.828   4.480  0.5519  0.2058  0.2330
20257SOL    HW164269   5.154   1.752   4.534 -2.4144  0.1567 -0.7602
20257SOL    HW264270   5.177   1.901   4.542  0.4192 -0.3002  0.8455
20258SOL     OW64271   8.888   5.135   5.105  0.5921  0.0819  0.0973
20258SOL    HW164272   8.886   5.209   5.044  3.0400 -1.2229 -1.7074
20258SOL    HW264273   8.964   5.152   5.161  0.3140 -0.3735  0.6243
20259SOL     OW64274   3.487   1.451   3.384 -0.1817 -0.1824  0.3981
20259SOL    HW164275   3.479   1.362   3.350  1.6843 -0.3076  0.1911
20259SOL    HW264276   3.461   1.507   3.311  0.4147 -0.5224 -0.0799
20260SOL     OW64277   9.871   2.736   5.837  0.4425  0.8636  0.3900
20260SOL    HW164278   9.945   2.684   5.870  0.5557  1.5386  1.2404
20260SOL    HW264279   9.861   2.709   5.746 -0.9373 -2.2731  1.3638
20261SOL     OW64280  10.065   2.585   0.078 -0.3375  0.5384 -0.2511
20261SOL    HW164281   9.991   2.639   0.049  0.1740  1.5171  0.2372
20261SOL    HW264282  10.085   2.617   0.166  1.5469  1.2193 -0.8903
20262SOL     OW64283   4.294   0.408   4.977 -0.7739 -0.2964  0.2167
20262SOL    HW164284   4.207   0.444   4.993 -0.7640 -0.2670  0.2049
20262SOL    HW264285   4.285   0.357   4.896 -1.1411 -1.5207  1.0008
20263SOL     OW64286   1.596   7.982   9.780  0.1779  0.3691  0.2147
20263SOL    HW164287   1.655   7.949   9.848  0.7478  0.3563 -0.2762
20263SOL    HW264288   1.517   7.929   9.789  0.4775 -0.0378  0.4866
20264SOL     OW64289   5.944   8.241   9.054  0.1313 -0.1357  0.0598
20264SOL    HW164290   5.941   8.323   9.105 -0.3207  0.1648 -0.4415
20264SOL    HW264291   5.908   8.265   8.969  1.3990 -0.4992 -0.5998
20265SOL     OW64292   1.808   1.659   1.345 -0.2450  0.4338  0.1008
20265SOL    HW164293   1.780   1.580   1.391  1.3146  1.0594  2.2909
20265SOL    HW264294   1.902   1.646   1.330 -0.3488  1.0786 -1.2627
20266SOL     OW64295   5.944   8.030   0.775  0.3565 -0.0231 -0.5208
20266SOL    HW164296   5.884   8.040   0.849 -0.0311  1.4127 -1.0078
20266SOL    HW264297   5.900   7.966   0.718  0.9292 -1.5838  0.7135
20267SOL     OW64298   7.917  10.595   9.381  0.0149  0.0378 -0.1950
20267SOL    HW164299   7.888  10.504   9.377  1.7449 -0.6364  1.2880
20267SOL    HW264300   7.844  10.641   9.423 -0.4661 -0.8611 -0.0115
20268SOL     OW64301   0.344   3.865  10.545 -0.4242 -0.1360 -0.4675
20268SOL    HW164302   0.386   3.942  10.583  0.1324 -1.2014  1.1835
20268SOL    HW264303   0.409   3.831  10.483  0.6787 -1.0206  1.1075
20269SOL     OW64304   5.712  10.260   1.988 -0.2999  0.0193  0.3055
20269SOL    HW164305   5.667  10.185   1.948 -2.4152  1.6715 -0.6276
20269SOL    HW264306   5.662  10.278   2.067  0.5662  0.1154  0.8449
20270SOL     OW64307   3.204   9.721   4.259 -0.2135 -0.0109 -0.3814
20270SOL    HW164308   3.131   9.659   4.256 -0.8258  0.6569  0.0717
20270SOL    HW264309   3.282   9.667   4.267 -0.8454 -0.7110  1.7064
20271SOL     OW64310   6.552   1.168  10.687 -0.4040  0.1115 -0.3653
20271SOL    HW164311   6.494   1.098  10.717  0.8212 -1.0317 -0.6133
20271SOL    HW264312   6.528   1.180  10.595  0.9594 -1.6598 -1.0041
20272SOL     OW64313   9.934   5.439  10.310  0.1131  0.4566  0.1789
20272SOL    HW164314   9.847   5.440  10.350 -0.3897  0.8440 -0.9023
20272SOL    HW264315   9.991   5.479  10.376 -0.2919 -0.8510  1.3756
20273SOL     OW64316   5.385   4.646   9.951 -0.2186  0.5301  0.1651
20273SOL    HW164317   5.356   4.677   9.865 -2.1679 -1.2215  0.1139
20273SOL    HW264318   5.344   4.560   9.961  0.4464  0.4119  2.6102
20274SOL     OW64319   2.835   1.942   1.066  0.0286 -0.3492  0.1806
20274SOL    HW164320   2.868   2.011   1.123  0.4471 -0.6734  0.3378
20274SOL    HW264321   2.766   1.984   1.014  0.5565  0.2865 -0.0143
20275SOL     OW64322   9.850   7.562   8.906  0.0344  0.0364  0.4299
20275SOL    HW164323   9.836   7.467   8.910 -0.5112  0.1470  1.5245
20275SOL    HW264324   9.854   7.590   8.997  0.3397  1.0564  0.1219
20276SOL     OW64325  10.210   0.233   1.153  0.2619 -0.2383  0.5471
20276SOL    HW164326  10.222   0.227   1.248  0.2458 -1.4206  0.4805
20276SOL    HW264327  10.119   0.262   1.143  0.1401 -0.4992  0.8808
20277SOL     OW64328   5.555   0.789   7.353 -0.0714  0.0337 -0.6902
20277SOL    HW164329   5.589   0.845   7.422 -2.3364  1.1847 -0.4298
20277SOL    HW264330   5.602   0.706   7.364  1.6372  1.0826  0.4048
20278SOL     OW64331   7.591   6.706   9.445  1.0675 -0.0548 -0.1241
20278SOL    HW164332   7.677   6.746   9.455  1.6754 -1.5173  0.9034
20278SOL    HW264333   7.541   6.738   9.521  0.5356  1.1349 -0.9503
20279SOL     OW64334   5.550   6.181   0.737 -0.1627  0.2039  0.2395
20279SOL    HW164335   5.480   6.180   0.671  2.2237 -1.1043 -2.5027
20279SOL    HW264336   5.524   6.115   0.801 -1.9512  0.5507 -0.0871
20280SOL     OW64337  10.583   3.592   3.351  1.0068  0.0737  0.2006
20280SOL    HW164338  10.599   3.607   3.258  3.8033 -1.3335  0.3580
20280SOL    HW264339  10.566   3.679   3.387 -2.9473  0.3952 -1.9683
20281SOL     OW64340   2.830   2.828   8.816 -0.3934 -0.1876  0.3192
20281SOL    HW164341   2.776   2.855   8.741  0.0927  0.7718  0.2986
20281SOL    HW264342   2.768   2.824   8.889 -1.1973 -2.6736 -0.3841
20282SOL     OW64343   4.019   5.102   4.117  0.4568 -0.0769  0.1598
20282SOL    HW164344   3.967   5.154   4.056  0.2866  0.2336  0.5639
20282SOL    HW264345   3.956   5.044   4.159  0.6593 -0.6850 -0.3548
20283SOL     OW64346   7.114   0.005   7.323  0.0072 -0.2449 -0.5461
20283SOL    HW164347   7.125   0.012   7.229  1.5347 -0.4697 -0.4153
20283SOL    HW264348   7.202  -0.010   7.357 -0.2239  1.6058  1.0805
20284SOL     OW64349   3.596   6.573   5.509 -0.1468  0.3773  0.5414
20284SOL    HW164350   3.568   6.609   5.594 -2.0927 -1.4122  0.7306
20284SOL    HW264351   3.608   6.479   5.526 -2.2085 -0.3352 -1.4863
20285SOL     OW64352   1.007   6.603   3.191 -0.6450 -0.2279  0.3295
20285SOL    HW164353   1.058   6.522   3.193  0.7950  0.6363  0.0643
20285SOL    HW264354   0.972   6.612   3.280  0.5290 -0.3278  0.8179
20286SOL     OW64355   0.634   0.983   0.434  0.0177  0.2152 -0.0152
20286SOL    HW164356   0.649   0.889   0.436  1.8186  0.4769 -0.1057
20286SOL    HW264357   0.671   1.015   0.516 -0.2883  0.8961 -0.1324
20287SOL     OW64358   5.255   9.536   3.841 -0.3735 -0.5169 -0.4286
20287SOL    HW164359   5.187   9.603   3.830 -0.8877 -0.7171  1.3090
20287SOL    HW264360   5.323   9.579   3.894 -0.0873 -0.9603 -0.4299
20288SOL     OW64361   4.677   0.666   8.186 -0.2570 -0.2264  0.2958
20288SOL    HW164362   4.633   0.602   8.129 -1.8587  1.0838 -0.0149
20288SOL    HW264363   4.628   0.747   8.173  2.2846  1.3596 -0.0495
20289SOL     OW64364   0.753   6.782  10.008 -0.8789 -0.4016  0.5645
20289SOL    HW164365   0.729   6.866  10.049 -0.7091  0.1371 -0.4215
20289SOL    HW264366   0.754   6.800   9.914 -0.1225 -1.3317  0.3798
20290SOL     OW64367   0.986   5.931   1.831 -0.1529  0.1291 -0.0496
20290SOL    HW164368   0.986   6.027   1.836 -0.8165  0.0951  0.8862
20290SOL    HW264369   1.000   5.912   1.738  0.4885  1.1198 -0.1764
20291SOL     OW64370   0.352   8.766   7.289 -0.0296  0.5752  0.4550
20291SOL    HW164371   0.436   8.799   7.319  0.1321 -0.3544  1.0784
20291SOL    HW264372   0.374   8.698   7.225 -0.3576  1.6890 -0.8935
20292SOL     OW64373   7.554   4.459   5.964  0.6505  0.5246  0.3359
20292SOL    HW164374   7.535   4.529   6.026 -0.2856  1.4491 -0.9367
20292SOL    HW264375   7.624   4.409   6.006  0.3253  1.3347  1.9406
20293SOL     OW64376   9.648   0.811   9.618 -0.7587  0.9902  0.1893
20293SOL    HW164377   9.585   0.879   9.595 -2.0881 -0.5210 -0.8617
20293SOL    HW264378   9.674   0.772   9.535 -0.7745 -0.4152  0.8193
20294SOL     OW64379   6.436   2.610  10.410 -0.6273 -0.1961 -1.0745
20294SOL    HW164380   6.512   2.560  10.381  0.3440 -0.5349  1.6858
20294SOL    HW264381   6.372   2.600  10.339  1.6166 -0.4459 -3.1931
20295SOL     OW64382   5.585   8.051   8.776  0.3992 -0.4216 -0.2295
20295SOL    HW164383   5.631   8.094   8.704 -0.5270  0.1159 -0.5229
20295SOL    HW264384   5.647   8.051   8.849  1.3754 -1.0375 -1.0379
20296SOL     OW64385   4.936   8.194   6.069  0.0144  0.3035  0.2659
20296SOL    HW164386   4.982   8.220   5.989 -1.2387 -0.3978 -0.7257
20296SOL    HW264387   4.954   8.264   6.131  1.1105  0.8112 -0.5829
20297SOL     OW64388   7.480   6.604   5.278 -0.0686  0.0861  0.0426
20297SOL    HW164389   7.476   6.699   5.293 -1.0908 -0.1361  1.3494
20297SOL    HW264390   7.391   6.573   5.296  0.5266 -1.2717  0.8283
20298SOL     OW64391   7.050   4.242   8.373 -0.3156 -0.1645  0.2864
20298SOL    HW164392   7.051   4.156   8.416  2.5273 -1.1976 -1.5693
20298SOL    HW264393   7.005   4.227   8.290  0.5649  0.0235 -0.2306
20299SOL     OW64394   8.624  10.687   1.402  0.5058 -0.5565  0.0113
20299SOL    HW164395   8.584  10.639   1.330 -0.1038  2.0145 -1.5131
20299SOL    HW264396   8.718  10.672   1.392  0.5787  0.8495 -2.3279
20300SOL     OW64397   2.145   9.102   5.143 -0.1027  0.6033  0.1300
20300SOL    HW164398   2.069   9.047   5.128  0.2243  0.2740 -0.3287
20300SOL    HW264399   2.205   9.081   5.072 -0.1635  1.9027 -0.3376
20301SOL     OW64400   9.001   4.258   7.430 -0.3082  0.2183  0.4775
20301SOL    HW164401   8.945   4.309   7.489 -0.9868 -1.8227  1.6842
20301SOL    HW264402   8.940   4.211   7.373  0.3016  0.6594 -0.5743
20302SOL     OW64403   2.029   2.807   8.689  0.7308 -0.2950 -0.6597
20302SOL    HW164404   2.106   2.780   8.639  0.5071 -0.7094 -0.7754
20302SOL    HW264405   2.063   2.874   8.749  0.4800  2.6121 -3.4562
20303SOL     OW64406   3.957   1.255   0.855 -0.1769 -0.5329 -0.0353
20303SOL    HW164407   3.868   1.285   0.873  0.2174  0.4167  0.3883
20303SOL    HW264408   3.946   1.165   0.822 -1.6827  0.9348 -4.2177
20304SOL     OW64409   6.026   5.476   4.504  0.1701 -0.2738 -0.6335
20304SOL    HW164410   6.005   5.553   4.452  1.1763  0.4097 -0.0553
20304SOL    HW264411   6.096   5.432   4.455 -0.5501 -0.9624 -1.0767
20305SOL     OW64412   4.545   4.542   6.992  0.1988  0.2977 -0.3404
20305SOL    HW164413   4.464   4.493   7.002  0.1425  0.2569 -0.9879
20305SOL    HW264414   4.530   4.599   6.917 -0.1014  2.0631  1.0018
20306SOL     OW64415   1.733   8.719   8.146  0.5131  0.2846 -0.2153
20306SOL    HW164416   1.751   8.719   8.240 -2.5308 -0.7394  0.4712
20306SOL    HW264417   1.640   8.742   8.139  0.4850 -0.3205 -2.9371
20307SOL     OW64418   2.259   2.925   8.821 -0.4413  0.3956 -0.6790
20307SOL    HW164419   2.290   3.012   8.795  2.9848 -0.0124  1.3894
20307SOL    HW264420   2.303   2.865   8.761 -0.7456 -0.0363 -0.4723
20308SOL     OW64421   8.324  10.095   0.476 -0.3612  0.5226  0.2298
20308SOL    HW164422   8.269  10.159   0.521  1.5817  1.9473  0.6752
20308SOL    HW264423   8.376  10.146   0.414  1.0259 -0.6431  0.3718
20309SOL     OW64424   3.382   5.434   2.603 -0.7082  0.5313  0.2153
20309SOL    HW164425   3.318   5.381   2.651 -0.4627  0.7052  0.7373
20309SOL    HW264426   3.459   5.378   2.597 -1.0105  0.1833 -0.7248
20310SOL     OW64427   4.370   9.238   0.083 -0.2782 -0.1502 -0.2723
20310SOL    HW164428   4.338   9.328   0.084 -0.6208 -0.2727  0.2624
20310SOL    HW264429   4.290   9.185   0.075 -0.0522 -0.3979 -0.9656
20311SOL     OW64430   6.521   2.171   0.784  0.0400  0.0694  0.4261
20311SOL    HW164431   6.486   2.094   0.739  0.6575 -0.1466  0.3059
20311SOL    HW264432   6.452   2.237   0.776 -0.7049 -0.6241  0.9745
20312SOL     OW64433   3.344  10.842   3.398  0.1983 -0.5000 -0.2386
20312SOL    HW164434   3.292  10.842   3.318 -1.7421  0.5805  0.9323
20312SOL    HW264435   3.364  10.934   3.414 -0.0351 -0.6232  0.8606
20313SOL     OW64436   5.751   5.884   0.023 -0.2017 -0.1219 -0.1937
20313SOL    HW164437   5.826   5.915  -0.027  0.1166  0.1756  0.4487
20313SOL    HW264438   5.744   5.791   0.001  0.4843 -0.2021 -0.1108
20314SOL     OW64439   1.347   1.185   3.770 -0.2354  0.1149  0.5867
20314SOL    HW164440   1.371   1.271   3.803 -1.0122  1.5720 -2.2926
20314SOL    HW264441   1.411   1.167   3.701 -0.2337 -1.5305  0.9754
20315SOL     OW64442   1.695   9.495   1.827 -0.0884  0.0065 -0.0020
20315SOL    HW164443   1.618   9.470   1.878 -0.3972  1.8614  0.4951
20315SOL    HW264444   1.721   9.580   1.862  1.0121  0.3164 -1.4719
20316SOL     OW64445   1.754   8.387   8.270 -0.0597  0.1132  0.5143
20316SOL    HW164446   1.794   8.442   8.337 -1.1360  0.1228  1.1838
20316SOL    HW264447   1.810   8.309   8.266  1.8327  1.4761 -0.8831
20317SOL     OW64448   5.603   3.397   2.530 -0.2113 -0.0534  0.0706
20317SOL    HW164449   5.614   3.388   2.435  2.2947 -0.1469  0.2899
20317SOL    HW264450   5.564   3.315   2.558  0.2822 -0.5734 -0.7343
20318SOL     OW64451  10.886   4.542   9.691 -0.6424 -0.5881  0.0537
20318SOL    HW164452  10.959   4.502   9.738 -0.2587  1.0376  0.9170
20318SOL    HW264453  10.862   4.618   9.745 -1.6422  0.0693 -1.2662
20319SOL     OW64454   5.138   8.520   0.637 -0.4017  0.3225  0.3130
20319SOL    HW164455   5.174   8.543   0.723  0.7054  1.0185 -0.3116
20319SOL    HW264456   5.102   8.602   0.604 -0.8717  0.0451  0.1286
20320SOL     OW64457  10.060   9.278   6.166  0.2748 -0.4162  0.1090
20320SOL    HW164458  10.115   9.356   6.165 -1.0378  0.5355  0.3482
20320SOL    HW264459   9.985   9.300   6.111 -0.5147 -1.1984  0.8462
20321SOL     OW64460   9.051   7.464   3.931 -0.5953  0.4543  0.8495
20321SOL    HW164461   9.145   7.451   3.923 -0.6656 -0.2746  1.1208
20321SOL    HW264462   9.041   7.554   3.961  0.1671 -0.2529  3.4932
20322SOL     OW64463   4.983   4.749   4.659  0.2312 -0.1018  0.0359
20322SOL    HW164464   5.043   4.674   4.662  0.7653  0.3486  1.5505
20322SOL    HW264465   4.899   4.714   4.687  0.8305  0.1177  2.3221
20323SOL     OW64466   5.599  10.082   1.195  0.7602  0.4679  0.0279
20323SOL    HW164467   5.669  10.098   1.259  0.8275  0.2639  0.0057
20323SOL    HW264468   5.622   9.999   1.155  1.1890  1.0094 -0.8841
20324SOL     OW64469   2.542   0.660   8.885  0.2708  0.2988  0.1042
20324SOL    HW164470   2.613   0.703   8.931  0.7624  0.0645 -0.4233
20324SOL    HW264471   2.571   0.570   8.875 -0.5057 -0.0324  0.7003
20325SOL     OW64472   2.290   3.902  10.809  0.4317  0.2324 -0.4698
20325SOL    HW164473   2.301   3.807  10.814 -1.1967  0.0520  0.1329
20325SOL    HW264474   2.304   3.932  10.899 -0.1424  0.4329 -0.4479
20326SOL     OW64475   9.452   1.146   5.546  0.4905  0.2718  0.3516
20326SOL    HW164476   9.432   1.085   5.475 -1.9898 -1.2489  2.2074
20326SOL    HW264477   9.547   1.144   5.553  0.5895 -1.9641 -0.8617
20327SOL     OW64478   6.259   6.380   6.244 -0.0512 -0.4586 -0.2759
20327SOL    HW164479   6.265   6.293   6.203  0.9645  0.4327 -2.1188
20327SOL    HW264480   6.331   6.429   6.206 -0.6618  1.2425  0.6835
20328SOL     OW64481   9.268   9.354   7.392 -0.4770 -0.1030  0.1227
20328SOL    HW164482   9.182   9.312   7.392  0.9670 -3.3482 -0.2341
20328SOL    HW264483   9.293   9.357   7.484  0.1475 -1.8329  0.0444
20329SOL     OW64484   0.770   1.208   5.435  0.8016 -0.7051  0.1231
20329SOL    HW164485   0.852   1.194   5.390  1.2240  2.5839 -0.3558
20329SOL    HW264486   0.792   1.198   5.528  1.3491 -1.3651 -0.0675
20330SOL     OW64487   9.785   8.460   1.554 -0.5727 -0.5500  0.3792
20330SOL    HW164488   9.723   8.388   1.542 -2.2860  0.9357 -0.0918
20330SOL    HW264489   9.794   8.500   1.468 -1.0695  0.9008  0.9665
20331SOL     OW64490   6.351   7.640   7.325  0.5313  0.3756 -0.4134
20331SOL    HW164491   6.411   7.642   7.250  0.3101  1.3307 -0.5786
20331SOL    HW264492   6.296   7.563   7.310  1.5512 -0.3835 -0.3802
20332SOL     OW64493   1.757   0.918   0.902  0.3322 -0.2955  0.4439
20332SOL    HW164494   1.745   0.888   0.812  3.2777 -0.4639  0.0061
20332SOL    HW264495   1.690   0.985   0.914 -0.4203 -0.5920 -1.7140
20333SOL     OW64496  10.736   5.893   8.462 -0.7412 -0.3571 -0.1715
20333SOL    HW164497  10.786   5.948   8.402 -1.1575 -0.8147 -0.9410
20333SOL    HW264498  10.683   5.956   8.512 -1.9959 -0.1005 -1.7630
20334SOL     OW64499   7.848  10.518   4.392 -0.4330  0.6510 -0.0872
20334SOL    HW164500   7.816  10.554   4.309 -0.2092 -1.0592 -0.9607
20334SOL    HW264501   7.772  10.472   4.428 -0.2299  0.4851  0.1288
20335SOL     OW64502   9.786   1.929   8.497 -0.1936  0.6747  0.2503
20335SOL    HW164503   9.765   1.966   8.583  3.3913  0.6000  1.3326
20335SOL    HW264504   9.814   2.004   8.445  1.1150  0.3002  0.3867
20336SOL     OW64505   5.490   0.494   9.322 -0.5051 -0.4277 -0.4627
20336SOL    HW164506   5.487   0.451   9.408 -1.5606 -0.3769 -0.4667
20336SOL    HW264507   5.582   0.486   9.295 -0.2919 -1.0028  0.3863
20337SOL     OW64508   3.423   8.006   4.743  0.7222 -0.4989  0.6173
20337SOL    HW164509   3.474   8.044   4.672 -0.3872  1.6097  0.8584
20337SOL    HW264510   3.332   8.011   4.713  0.3822 -1.1128  1.5009
20338SOL     OW64511   8.408   5.810   8.279  0.4892 -0.7305 -0.3103
20338SOL    HW164512   8.397   5.817   8.374 -1.1045  0.0665 -0.5133
20338SOL    HW264513   8.374   5.724   8.257  0.8374 -0.9067 -0.1591
20339SOL     OW64514   1.478   8.976   6.090  0.5134  0.1844 -0.0442
20339SOL    HW164515   1.453   8.931   6.170  0.0633 -0.1443 -0.3656
20339SOL    HW264516   1.541   9.042   6.118  0.5211 -0.0720  0.5484
20340SOL     OW64517   4.967   5.887   3.680 -0.3119  0.2721 -0.4297
20340SOL    HW164518   4.877   5.904   3.708 -0.1856  0.1739  0.0573
20340SOL    HW264519   4.959   5.824   3.609 -0.5862 -0.5779  0.3256
20341SOL     OW64520   6.035   5.171   3.031 -0.0319  0.7589  0.3803
20341SOL    HW164521   6.017   5.203   2.943 -0.7541  1.6050  0.8184
20341SOL    HW264522   5.951   5.134   3.061  0.3356  0.0346  0.5325
20342SOL     OW64523   3.883   2.509   7.797  0.0511 -0.1717  0.3264
20342SOL    HW164524   3.939   2.543   7.866 -1.5405  0.0544  1.5511
20342SOL    HW264525   3.930   2.433   7.763  1.3652  0.3756  0.8874
20343SOL     OW64526   2.184   7.481   0.839 -0.1844 -0.3618  0.2634
20343SOL    HW164527   2.276   7.490   0.863 -0.0223  0.4337 -0.5888
20343SOL    HW264528   2.175   7.534   0.759 -1.2596 -0.8529  0.0456
20344SOL     OW64529   9.153   4.470   4.860 -0.3768 -0.0020  0.1400
20344SOL    HW164530   9.209   4.532   4.905  2.0528 -1.6850 -0.3917
20344SOL    HW264531   9.188   4.465   4.771 -1.1925 -1.3078 -0.1423
20345SOL     OW64532   0.646   8.910   1.095 -0.3556  0.7489  0.6728
20345SOL    HW164533   0.628   8.981   1.157  0.0211  0.2125  1.4193
20345SOL    HW264534   0.561   8.867   1.084 -0.5422  1.1898  0.3782
20346SOL     OW64535   9.984   8.202   3.189  0.1996  0.0800  0.2502
20346SOL    HW164536   9.976   8.273   3.126  2.2802  1.3730  1.3232
20346SOL    HW264537   9.996   8.246   3.273  1.5656 -1.5008  0.9441
20347SOL     OW64538  10.616   0.313   6.808  0.4890 -0.0931  0.2301
20347SOL    HW164539  10.706   0.290   6.783  1.5657  1.3319  2.4418
20347SOL    HW264540  10.606   0.404   6.778 -0.3825 -0.3672 -0.3440
20348SOL     OW64541  10.212   0.890   5.256 -0.6687 -0.2950 -0.7532
20348SOL    HW164542  10.209   0.902   5.351 -1.3541 -0.0992 -0.7901
20348SOL    HW264543  10.248   0.802   5.244 -2.3011 -1.0877 -0.2383
20349SOL     OW64544   2.496   1.577  10.501 -0.2364 -0.0119  0.0841
20349SOL    HW164545   2.419   1.612  10.456  0.0299  0.4894  0.0136
20349SOL    HW264546   2.569   1.630  10.469  0.2335 -0.8853 -0.3189
20350SOL     OW64547   3.091   1.574   5.644  0.7063  0.3406 -0.3152
20350SOL    HW164548   3.098   1.489   5.601  1.1331 -0.4188  1.1774
20350SOL    HW264549   3.002   1.603   5.626 -0.1344 -1.3953  0.8316
20351SOL     OW64550   4.771   1.204   4.657 -0.0916 -0.1122  0.1507
20351SOL    HW164551   4.789   1.226   4.748 -3.3804 -0.5317  1.0202
20351SOL    HW264552   4.773   1.288   4.611  1.1600  0.1555  0.6639
20352SOL     OW64553   4.933   6.607   5.361 -0.2693  0.2189  0.0550
20352SOL    HW164554   4.871   6.679   5.368 -1.2545 -0.6085  0.0446
20352SOL    HW264555   4.903   6.542   5.425 -1.4819 -1.6726 -2.2707
20353SOL     OW64556   4.003   5.987   3.157 -0.3455  0.0280 -0.7744
20353SOL    HW164557   4.097   6.006   3.162 -0.3672  0.0310 -0.3324
20353SOL    HW264558   3.961   6.072   3.149 -0.2861  0.0006 -1.5211
20354SOL     OW64559   6.853   7.117   6.477 -0.1633 -0.4223  0.2438
20354SOL    HW164560   6.926   7.057   6.493 -0.5589 -0.8464  0.4546
20354SOL    HW264561   6.829   7.101   6.385 -0.0889 -0.3865  0.2178
20355SOL     OW64562  10.134   7.697   3.393  0.1329 -0.8556 -0.7377
20355SOL    HW164563  10.166   7.722   3.307  0.1329 -2.6134 -1.3039
20355SOL    HW264564  10.039   7.711   3.388  0.3209  0.5868 -0.4422
20356SOL     OW64565   8.508   4.952   5.540  0.3513 -0.1732 -0.1971
20356SOL    HW164566   8.563   4.925   5.466 -1.0837  1.2968 -1.8859
20356SOL    HW264567   8.429   4.899   5.531 -0.4849  1.1048 -0.7206
20357SOL     OW64568  10.621   6.907  10.615  0.5365  0.2330  0.4531
20357SOL    HW164569  10.662   6.906  10.528  0.5382  1.3434  0.4258
20357SOL    HW264570  10.620   6.816  10.642  1.9024  0.0274 -0.0848
20358SOL     OW64571   3.693   9.590   7.244 -0.1758 -0.3433  0.6090
20358SOL    HW164572   3.669   9.678   7.217  0.2531 -0.1760  0.7591
20358SOL    HW264573   3.668   9.586   7.337  0.9074  0.0411  0.9364
20359SOL     OW64574   8.513   1.373   6.794  0.1567 -0.0871  0.0109
20359SOL    HW164575   8.502   1.283   6.764  0.2957  0.3534 -1.4783
20359SOL    HW264576   8.466   1.377   6.877 -1.7801 -0.9838 -0.9694
20360SOL     OW64577  10.081   5.308   6.130 -0.5612  0.0539  0.1948
20360SOL    HW164578   9.997   5.316   6.084 -0.0301 -0.0898 -0.8083
20360SOL    HW264579  10.091   5.214   6.146 -0.5483  0.0644  0.2502
20361SOL     OW64580   8.047   2.961   3.715 -0.1710 -0.7049  0.1388
20361SOL    HW164581   7.984   3.020   3.756 -0.8265 -0.6882 -0.8522
20361SOL    HW264582   8.130   3.008   3.720 -0.5286 -0.0511  0.1019
20362SOL     OW64583  10.651   3.568   2.236  0.2129 -0.3528  0.0734
20362SOL    HW164584  10.647   3.628   2.161  1.1878  0.3497  0.5660
20362SOL    HW264585  10.709   3.498   2.208  2.0359  0.8148  0.7591
20363SOL     OW64586   2.357   5.984  10.605 -0.7999 -0.1154  0.3325
20363SOL    HW164587   2.382   6.076  10.599 -0.0597 -0.3904 -1.9043
20363SOL    HW264588   2.263   5.984  10.591 -0.6667  0.2583 -0.6511
20364SOL     OW64589   7.450   2.062  10.439  0.2091  0.5859  0.0137
20364SOL    HW164590   7.390   2.027  10.373 -0.5875  1.2574  0.3666
20364SOL    HW264591   7.468   2.152  10.411 -0.9775  1.2439  1.2438
20365SOL     OW64592   2.717   7.223   1.005 -0.2728 -0.0516 -0.1631
20365SOL    HW164593   2.651   7.239   0.937  0.3294 -3.1588 -1.6413
20365SOL    HW264594   2.685   7.146   1.052  0.9519  0.1144  0.9980
20366SOL     OW64595   6.953   5.276   0.454  0.3492 -0.1884 -0.5163
20366SOL    HW164596   6.963   5.260   0.360  2.3517  1.0750 -0.5740
20366SOL    HW264597   7.016   5.217   0.495  2.7675  2.3411 -0.3250
20367SOL     OW64598   4.512   9.353   7.378 -0.2679  0.1402  0.5227
20367SOL    HW164599   4.540   9.290   7.312 -1.2619 -1.5531  1.6314
20367SOL    HW264600   4.488   9.431   7.329  0.4751 -0.5239 -0.9571
20368SOL     OW64601   1.277   9.104   3.148 -0.2215  0.0525  0.4706
20368SOL    HW164602   1.197   9.091   3.097 -0.5932 -1.0339  1.2830
20368SOL    HW264603   1.305   9.193   3.126 -1.1113  0.1092 -0.5631
20369SOL     OW64604   6.988   5.577   8.163  0.1405  0.1120  0.0376
20369SOL    HW164605   6.919   5.637   8.194  0.0585  0.4789 -0.8204
20369SOL    HW264606   7.061   5.635   8.140  1.4260 -0.3837  2.5423
20370SOL     OW64607   5.703   6.299  10.952  0.8473  0.1307 -0.5250
20370SOL    HW164608   5.714   6.393  10.966  3.1587 -0.1745  0.0094
20370SOL    HW264609   5.665   6.292  10.864 -0.1323  1.5601 -0.2461
20371SOL     OW64610   7.790  10.675   1.187  0.4819  0.4512  0.5347
20371SOL    HW164611   7.875  10.664   1.145  0.6769 -0.0633  1.0479
20371SOL    HW264612   7.737  10.603   1.153 -0.1011  1.3820 -0.6078
20372SOL     OW64613   1.008   6.725   9.714  0.0782 -0.0151 -0.3067
20372SOL    HW164614   1.064   6.691   9.784 -0.2182 -1.8088 -0.8925
20372SOL    HW264615   1.007   6.820   9.728  1.8067 -0.1207  0.7766
20373SOL     OW64616   2.644   7.577   4.244 -0.4421 -0.3050  0.1135
20373SOL    HW164617   2.730   7.611   4.219 -0.5021 -0.2976 -0.0799
20373SOL    HW264618   2.590   7.587   4.166 -0.1793 -1.8341 -0.2851
20374SOL     OW64619   7.238   2.781   0.849 -0.6192  0.0889  0.3095
20374SOL    HW164620   7.164   2.841   0.863 -2.0177 -1.4813  0.0516
20374SOL    HW264621   7.300   2.802   0.918 -2.2932  0.0453  1.9064
20375SOL     OW64622   3.262   6.904   6.935 -0.4823 -0.5928 -0.3445
20375SOL    HW164623   3.322   6.867   7.000 -1.1463 -1.6665 -0.3252
20375SOL    HW264624   3.228   6.983   6.977  1.9687  0.8917 -0.9059
20376SOL     OW64625   4.321   2.963   7.954 -0.6225  0.0919  0.6835
20376SOL    HW164626   4.378   2.997   8.023 -0.3286  2.1553 -0.4883
20376SOL    HW264627   4.243   3.018   7.958 -0.3274  0.6766 -1.0208
20377SOL     OW64628   0.704   9.762   0.219  0.4143 -0.0196  0.4182
20377SOL    HW164629   0.782   9.817   0.226 -0.4402  1.5870 -1.6020
20377SOL    HW264630   0.633   9.817   0.252 -0.4589  0.1535 -1.6067
20378SOL     OW64631   2.007  10.050   9.217 -0.0517 -0.3861  0.0363
20378SOL    HW164632   2.032   9.971   9.266 -3.3044 -0.9746  0.9755
20378SOL    HW264633   1.947  10.096   9.275 -0.9706  0.9561 -1.8870
20379SOL     OW64634   7.717   1.845   6.638  0.3085 -0.6549 -0.3263
20379SOL    HW164635   7.698   1.921   6.582  3.8238 -0.2439 -1.2412
20379SOL    HW264636   7.728   1.883   6.726 -0.6791 -0.5839 -0.2201
20380SOL     OW64637   1.358   5.436   6.615 -0.0735 -0.3577 -0.3022
20380SOL    HW164638   1.351   5.458   6.522 -2.6348 -0.3433 -0.1823
20380SOL    HW264639   1.299   5.362   6.627 -0.3283  0.0660  1.4392
20381SOL     OW64640   8.605   3.336   2.742 -0.1198  0.1951 -0.3234
20381SOL    HW164641   8.512   3.315   2.743 -0.4905  1.6600  0.8910
20381SOL    HW264642   8.609   3.424   2.780  1.6912  0.4599 -1.0569
20382SOL     OW64643   4.022   9.805   1.335  0.0602 -0.1501 -0.8087
20382SOL    HW164644   4.054   9.867   1.400 -1.4098 -0.4705  0.2916
20382SOL    HW264645   3.973   9.741   1.386  0.0839 -1.2339 -2.1032
20383SOL     OW64646   9.186   3.803   9.126  0.6519  0.2491 -0.1386
20383SOL    HW164647   9.263   3.754   9.155  0.1324 -0.9735 -0.7365
20383SOL    HW264648   9.148   3.749   9.057 -1.6087  0.0058  1.1773
20384SOL     OW64649   7.452  10.039   1.660 -0.4883 -0.4734  0.0569
20384SOL    HW164650   7.509  10.027   1.736 -0.7567 -0.5907  0.2415
20384SOL    HW264651   7.385   9.971   1.670 -1.3571  0.4281  0.4895
20385SOL     OW64652   7.241   1.966   0.499 -0.6882 -0.7867  0.0201
20385SOL    HW164653   7.238   2.056   0.464  1.0005 -0.2039  1.2441
20385SOL    HW264654   7.172   1.965   0.565 -1.1769 -0.6181 -0.4760
20386SOL     OW64655   0.821   4.128   0.248 -0.1946 -0.5975 -0.7845
20386SOL    HW164656   0.788   4.183   0.177  1.4439 -0.9906 -1.9230
20386SOL    HW264657   0.895   4.081   0.209  0.0538 -1.6705  0.8825
20387SOL     OW64658   0.136   5.031  10.900  0.0356 -0.6069  0.0132
20387SOL    HW164659   0.116   5.112  10.852 -3.2873 -0.3062  1.5928
20387SOL    HW264660   0.195   5.059  10.970  1.1817 -0.1543 -1.0967
20388SOL     OW64661   4.408   9.943   2.375 -0.0716  0.6810  0.2549
20388SOL    HW164662   4.392  10.033   2.346  0.8959  0.6813 -0.3453
20388SOL    HW264663   4.323   9.900   2.369 -0.2240  1.1319 -1.0125
20389SOL     OW64664   9.135   9.187   8.601 -0.1098  0.0510 -0.3264
20389SOL    HW164665   9.179   9.103   8.590  0.0049 -0.3564  2.4088
20389SOL    HW264666   9.158   9.215   8.690 -4.6916  0.1626  1.0953
20390SOL     OW64667  10.391   0.320   5.583 -0.0798  0.0160 -0.2988
20390SOL    HW164668  10.462   0.260   5.607  0.0726  0.5818  0.6884
20390SOL    HW264669  10.435   0.405   5.570 -0.6491  0.5048  0.9070
20391SOL     OW64670   5.958   0.317   1.998  0.2098 -0.0386 -0.1205
20391SOL    HW164671   5.908   0.314   1.916  0.0729  1.0449 -0.0908
20391SOL    HW264672   5.912   0.381   2.052  1.1557  0.3790  0.2219
20392SOL     OW64673   8.122  10.645   0.026  0.1446 -0.4490  0.0349
20392SOL    HW164674   8.081  10.561   0.045 -2.2901  0.3749 -1.1865
20392SOL    HW264675   8.160  10.634  -0.062 -2.4071  0.3650 -1.2805
20393SOL     OW64676   9.502   9.947   3.745  0.3966  0.3554 -0.6213
20393SOL    HW164677   9.511   9.980   3.835 -0.1366  0.2454 -0.5269
20393SOL    HW264678   9.572   9.991   3.697 -0.4577  1.8564 -0.5504
20394SOL     OW64679   9.841   9.319   7.191 -0.9779  0.0855  0.5302
20394SOL    HW164680   9.827   9.228   7.216  2.7482 -0.5601  0.9142
20394SOL    HW264681   9.875   9.360   7.271 -2.3887  1.7910  0.2984
20395SOL     OW64682   6.262   1.506   3.112 -0.0385  0.0978  0.2414
20395SOL    HW164683   6.258   1.410   3.110  1.9969 -0.0092 -0.5856
20395SOL    HW264684   6.229   1.533   3.027 -1.0902  0.1956  0.6578
20396SOL     OW64685  10.546   2.285   4.846 -0.8696 -0.0686 -0.4379
20396SOL    HW164686  10.620   2.270   4.906 -0.0981 -1.5397 -1.6920
20396SOL    HW264687  10.485   2.215   4.866 -0.7997 -0.3130 -1.0777
20397SOL     OW64688   2.441   4.479   1.532  0.3199  0.3406 -0.9307
20397SOL    HW164689   2.424   4.400   1.481  0.8935 -0.3141 -0.1267
20397SOL    HW264690   2.371   4.481   1.597  0.6441  0.1669 -0.5730
20398SOL     OW64691   7.055   6.154  10.115 -0.4256 -0.2076 -0.5317
20398SOL    HW164692   6.993   6.148  10.042  1.3066 -0.6960 -2.0631
20398SOL    HW264693   7.127   6.206  10.080  0.0180  0.3976  1.2063
20399SOL     OW64694   8.019   8.877   8.739 -0.5886 -0.0976 -0.8035
20399SOL    HW164695   8.048   8.844   8.654  0.7912 -0.6153 -0.1637
20399SOL    HW264696   8.012   8.799   8.794  3.4576  0.5239  0.9549
20400SOL     OW64697  10.987   6.236   7.109  0.0157  0.3152  0.1051
20400SOL    HW164698  10.999   6.328   7.084  1.0151 -0.0094 -0.6594
20400SOL    HW264699  10.933   6.239   7.187 -1.0561  1.5018 -0.6459
20401SOL     OW64700   2.152   4.839   9.875 -0.0709  0.3305  0.0820
20401SOL    HW164701   2.246   4.852   9.863 -0.1682  0.6116 -0.3881
20401SOL    HW264702   2.126   4.779   9.806  0.1134 -1.3261  1.3916
20402SOL     OW64703   0.909   6.519   5.209  0.1628 -0.2698  0.5305
20402SOL    HW164704   0.867   6.568   5.280  2.1285  1.6921  0.4799
20402SOL    HW264705   0.855   6.538   5.132  0.1738  0.8378  0.7721
20403SOL     OW64706   5.264   3.519   3.576  1.0979  0.2528 -0.2769
20403SOL    HW164707   5.184   3.482   3.615  1.0085  0.6668 -0.0623
20403SOL    HW264708   5.309   3.560   3.650  1.0692  0.7927 -0.5565
20404SOL     OW64709   7.885  10.252   9.682 -0.4097 -0.3862  0.8604
20404SOL    HW164710   7.840  10.328   9.718 -0.0807  0.4068 -0.3627
20404SOL    HW264711   7.924  10.209   9.759 -0.3439  0.8346  1.5360
20405SOL     OW64712   5.998   7.377   0.055  0.5851 -0.0145  0.1715
20405SOL    HW164713   6.007   7.379   0.150 -2.0734 -2.3083  0.5848
20405SOL    HW264714   5.952   7.458   0.033 -1.5002 -0.8389  1.2801
20406SOL     OW64715  10.149  10.670   3.616  0.0457  0.3159 -0.2436
20406SOL    HW164716  10.226  10.722   3.593  1.1973 -1.0986  0.2896
20406SOL    HW264717  10.167  10.638   3.705 -0.9697 -0.3774 -0.2695
20407SOL     OW64718   6.206   7.604   7.983 -0.1338  0.1155 -0.5555
20407SOL    HW164719   6.190   7.652   7.902  3.1639 -0.4384 -1.6696
20407SOL    HW264720   6.271   7.538   7.960  0.6718 -0.2957  2.4650
20408SOL     OW64721   2.073   9.812   1.971  0.7207  0.8186 -0.4346
20408SOL    HW164722   2.095   9.899   1.938 -0.1881  0.6123 -1.6517
20408SOL    HW264723   2.066   9.758   1.893 -1.0028  0.1934  0.1076
20409SOL     OW64724   7.387   7.763   5.474  0.8906  0.4425 -0.2606
20409SOL    HW164725   7.476   7.784   5.501  0.4703  1.4333  0.4330
20409SOL    HW264726   7.332   7.805   5.541 -0.0473 -3.7226  1.8963
20410SOL     OW64727   8.031   8.729   6.119  0.3373 -0.2214 -0.8324
20410SOL    HW164728   8.043   8.824   6.122  1.1439 -0.3296  0.2748
20410SOL    HW264729   8.096   8.699   6.056  1.7759 -0.2172  0.5648
20411SOL     OW64730  10.480   4.778   3.182  0.1862 -0.1444  1.0160
20411SOL    HW164731  10.408   4.760   3.122  0.0354 -0.8814  1.4056
20411SOL    HW264732  10.528   4.695   3.188  1.6695  0.5939 -0.0123
20412SOL     OW64733   4.456   7.425   9.861 -0.4920 -0.6469 -0.0264
20412SOL    HW164734   4.368   7.463   9.857 -0.1082  0.3979  0.7569
20412SOL    HW264735   4.512   7.498   9.889  0.6486 -1.2564 -0.6264
20413SOL     OW64736   3.023   0.101   4.924 -0.2879  0.8980 -0.0627
20413SOL    HW164737   3.109   0.085   4.885  0.2877 -0.2681  1.5766
20413SOL    HW264738   3.039   0.168   4.990 -0.6304  0.6539  0.2694
20414SOL     OW64739   5.021   2.751   8.875 -0.2160  0.0658 -0.2455
20414SOL    HW164740   4.940   2.765   8.826  0.7569  0.0391 -1.9182
20414SOL    HW264741   5.014   2.809   8.951 -1.0675  1.3190 -1.2496
20415SOL     OW64742   6.049   7.528   9.880  0.2821 -0.1650 -0.1922
20415SOL    HW164743   6.093   7.461   9.932  0.3531  0.5644  0.7258
20415SOL    HW264744   5.967   7.487   9.852  0.9012 -1.0539 -0.7306
20416SOL     OW64745   9.875   3.862   3.452  0.0120 -0.2041  0.5163
20416SOL    HW164746   9.799   3.823   3.495  0.8296 -0.3989  1.8435
20416SOL    HW264747   9.850   3.953   3.436 -1.1576 -0.7044 -0.7679
20417SOL     OW64748   2.809   4.650   1.945  0.0140 -0.3305 -0.5069
20417SOL    HW164749   2.895   4.666   1.906  0.2281 -0.4323 -0.0882
20417SOL    HW264750   2.761   4.601   1.878 -0.0115  0.4423 -1.0721
20418SOL     OW64751   3.353   7.520   4.271 -0.0359  0.3084 -0.5157
20418SOL    HW164752   3.389   7.608   4.269  1.0243 -0.0656  0.7736
20418SOL    HW264753   3.329   7.506   4.363  0.2310 -0.8979 -0.6071
20419SOL     OW64754   0.072   9.061   3.193 -0.2572  0.8205  0.0896
20419SOL    HW164755   0.076   9.122   3.266 -2.3836 -1.4948  2.3515
20419SOL    HW264756  -0.011   9.081   3.149 -0.8772 -0.2178  0.7352
20420SOL     OW64757   4.979   3.572   1.326 -0.1473  0.3587  0.6099
20420SOL    HW164758   5.068   3.579   1.290  0.4802 -2.6027  1.3155
20420SOL    HW264759   4.926   3.542   1.253  0.1626 -1.0352  0.9173
20421SOL     OW64760   0.815   9.959   2.579 -0.3329  0.7216  0.2262
20421SOL    HW164761   0.853   9.876   2.606 -1.7041 -1.0675 -2.7747
20421SOL    HW264762   0.743   9.974   2.639 -0.3103 -0.4770  0.5706
20422SOL     OW64763   7.090   7.901   0.469  0.0439  0.0589 -0.1112
20422SOL    HW164764   7.137   7.895   0.552 -0.2389  1.2053  0.1518
20422SOL    HW264765   7.157   7.927   0.405  0.3117 -1.0613 -0.3083
20423SOL     OW64766   4.365   2.010   1.011 -0.5111 -0.1700  0.6953
20423SOL    HW164767   4.378   2.011   0.917 -1.8745 -1.1688  0.4583
20423SOL    HW264768   4.370   2.101   1.038 -0.0933  0.1206 -0.3336
20424SOL     OW64769  10.116   5.299  10.924  1.0646 -0.2143  0.0680
20424SOL    HW164770  10.164   5.216  10.921  2.8493  0.7168  1.3309
20424SOL    HW264771  10.184   5.366  10.920 -0.3559  1.2302 -1.1780
20425SOL     OW64772   4.046   5.200   0.834  0.0158  0.0024  0.3047
20425SOL    HW164773   4.137   5.213   0.806 -0.1614 -0.2014 -0.3797
20425SOL    HW264774   3.998   5.271   0.792 -0.6273 -1.5704 -1.8035
20426SOL     OW64775   0.343   1.740   9.789  0.2219  0.1510  0.1315
20426SOL    HW164776   0.313   1.683   9.719  0.8774 -0.7096  0.5286
20426SOL    HW264777   0.270   1.799   9.806 -0.9848 -1.4054  0.5635
20427SOL     OW64778   4.305   6.425   7.670 -0.5848  0.2581  0.1982
20427SOL    HW164779   4.293   6.400   7.579 -1.2745 -0.6103  0.5131
20427SOL    HW264780   4.366   6.499   7.667 -3.3070  2.6128 -1.2564
20428SOL     OW64781   9.187   5.117   1.403  0.0640 -0.5797 -0.1983
20428SOL    HW164782   9.239   5.111   1.322  1.3263  2.7192  0.1905
20428SOL    HW264783   9.154   5.207   1.403 -1.5302 -1.0829  2.0543
20429SOL     OW64784   2.786   1.739   3.324 -0.1853  0.1243  0.0525
20429SOL    HW164785   2.744   1.737   3.410  1.7701  0.8224  1.0876
20429SOL    HW264786   2.813   1.649   3.309 -0.8301 -0.0654  0.0091
20430SOL     OW64787   6.737   1.668   4.553 -0.2799 -0.0631  0.6701
20430SOL    HW164788   6.668   1.650   4.616  0.2269  0.3699  1.3685
20430SOL    HW264789   6.704   1.633   4.470 -0.9147 -0.7210  1.1892
20431SOL     OW64790   6.522   8.183   6.013 -0.5959  0.1130  0.0716
20431SOL    HW164791   6.475   8.252   6.059 -2.2075 -1.3093  0.6492
20431SOL    HW264792   6.459   8.148   5.950 -0.0667 -1.2608  0.2558
20432SOL     OW64793   8.456   1.873   9.740  0.1719 -0.4127  0.2922
20432SOL    HW164794   8.384   1.842   9.685 -0.4130 -0.0221  0.8242
20432SOL    HW264795   8.436   1.839   9.827 -0.8813  1.9454  1.0582
20433SOL     OW64796  10.318   1.646   6.560  0.4685 -0.6752 -0.4172
20433SOL    HW164797  10.401   1.613   6.593 -0.3062 -0.0414  2.4582
20433SOL    HW264798  10.294   1.717   6.620 -1.3046  0.3641 -2.2097
20434SOL     OW64799   0.755   6.807   2.900 -0.0203  0.6989  0.0905
20434SOL    HW164800   0.665   6.830   2.880 -0.9417 -0.1338  2.7359
20434SOL    HW264801   0.788   6.766   2.820 -2.3100  0.1381 -0.6557
20435SOL     OW64802   9.611   3.693   6.421  0.2123 -0.4076  0.0780
20435SOL    HW164803   9.700   3.696   6.454 -0.4229  2.8278  1.9159
20435SOL    HW264804   9.557   3.674   6.498 -0.7349 -3.8862 -1.2456
20436SOL     OW64805   6.009   1.890   3.338 -0.3891 -0.1923  0.1575
20436SOL    HW164806   6.011   1.963   3.400 -0.3342 -0.0262 -0.0429
20436SOL    HW264807   5.917   1.863   3.336 -0.3065 -0.5432  0.7169
20437SOL     OW64808   9.894   1.808   7.864 -0.7007  0.4243  0.0993
20437SOL    HW164809   9.837   1.803   7.787  0.6832 -5.4244 -1.0371
20437SOL    HW264810   9.976   1.845   7.830 -1.2245  1.3012 -0.2537
20438SOL     OW64811   5.267   1.395   5.991 -0.8987  0.4159 -0.8229
20438SOL    HW164812   5.344   1.444   6.019  0.4173 -2.0761  0.2282
20438SOL    HW264813   5.221   1.373   6.072 -0.3159 -1.7673 -1.0099
20439SOL     OW64814   9.440   7.576   5.143  0.0611  0.2910  0.2532
20439SOL    HW164815   9.390   7.498   5.120 -0.6930  0.8066  0.1282
20439SOL    HW264816   9.379   7.648   5.133  0.2862  0.7538  1.8610
20440SOL     OW64817   8.012   0.782  10.433  0.7520  0.1240 -0.9422
20440SOL    HW164818   7.979   0.872  10.433 -1.3555 -0.5797 -2.2096
20440SOL    HW264819   8.003   0.753  10.524 -0.8281  0.4659 -0.9516
20441SOL     OW64820  10.902   7.561   8.292 -0.0522  0.3644 -0.5967
20441SOL    HW164821  10.982   7.535   8.245  0.0698  1.9332 -1.3293
20441SOL    HW264822  10.834   7.564   8.224 -0.0024  2.0873 -0.6125
20442SOL     OW64823   7.774   5.615  10.651  0.4964 -0.1865  0.1653
20442SOL    HW164824   7.736   5.678  10.712  0.6739  1.2369 -1.1230
20442SOL    HW264825   7.708   5.545  10.645 -0.3360  0.5329  0.6132
20443SOL     OW64826   8.475   7.990   7.935  0.9577 -0.2559  0.4678
20443SOL    HW164827   8.541   8.048   7.898  2.2038 -2.5581 -1.1828
20443SOL    HW264828   8.426   7.957   7.859 -1.2220  0.3142  1.5408
20444SOL     OW64829   1.523  10.267   3.243  0.0704 -0.0496  0.6125
20444SOL    HW164830   1.475  10.327   3.186 -0.9786 -2.0120 -0.6687
20444SOL    HW264831   1.592  10.231   3.187  0.1581 -0.6614  1.1055
20445SOL     OW64832  10.133   1.655   7.923  0.2288 -0.1647  0.4946
20445SOL    HW164833  10.111   1.742   7.891  0.9119 -0.2518 -0.2452
20445SOL    HW264834  10.065   1.635   7.987  0.7563  1.4160  1.6256
20446SOL     OW64835   7.947   0.799   4.177 -0.1150 -0.3487  0.0207
20446SOL    HW164836   7.891   0.759   4.244 -0.3345  0.0148  0.0526
20446SOL    HW264837   7.889   0.857   4.128  0.8856  2.8264  2.2620
20447SOL     OW64838   0.357   8.835   0.158 -0.0867 -0.1937 -0.5755
20447SOL    HW164839   0.314   8.755   0.128 -0.4568  0.2537 -1.2706
20447SOL    HW264840   0.314   8.856   0.241  0.8689 -1.3821  0.2485
20448SOL     OW64841   1.541   1.636   5.984 -0.4260  0.2799  0.1939
20448SOL    HW164842   1.548   1.720   5.938  0.2125  0.8697  1.3313
20448SOL    HW264843   1.522   1.573   5.915  0.1018  1.2003 -0.8268
20449SOL     OW64844   0.816   5.781   3.915  0.5611  0.0435 -0.0754
20449SOL    HW164845   0.763   5.843   3.865  0.5185 -2.1931 -3.1016
20449SOL    HW264846   0.764   5.763   3.993 -0.8407  1.5096 -0.6127
20450SOL     OW64847   9.712   4.550   6.475  0.4707  0.1915 -0.3575
20450SOL    HW164848   9.762   4.625   6.441  0.3654  0.3273 -0.2154
20450SOL    HW264849   9.772   4.476   6.468  1.5174  0.7392  1.8715
20451SOL     OW64850   5.289   9.519   3.535 -0.1280 -0.0869 -0.0891
20451SOL    HW164851   5.200   9.493   3.508  0.3818 -0.7832 -1.1978
20451SOL    HW264852   5.307   9.464   3.611 -0.3096 -0.6159 -0.4198
20452SOL     OW64853   6.127   5.204   8.122  0.2213 -0.4766  0.0652
20452SOL    HW164854   6.094   5.250   8.045  0.8086 -0.8410 -0.4130
20452SOL    HW264855   6.052   5.153   8.153 -0.8002  1.6474  1.2998
20453SOL     OW64856   6.493   7.059   0.429  0.7594 -0.0488 -0.1336
20453SOL    HW164857   6.491   7.110   0.348  1.2781 -1.4603 -1.0818
20453SOL    HW264858   6.586   7.054   0.452  0.6699 -0.1741  0.2130
20454SOL     OW64859   8.085   4.771   9.664  0.2765 -0.4234 -0.1880
20454SOL    HW164860   8.069   4.865   9.659  1.2218 -0.3164 -1.7247
20454SOL    HW264861   8.180   4.763   9.674  0.3989 -1.2305 -1.7192
20455SOL     OW64862   0.239   9.899   1.656  0.0330  0.3796 -0.1564
20455SOL    HW164863   0.196   9.960   1.596 -1.2658 -0.6114 -0.2676
20455SOL    HW264864   0.246   9.948   1.738  0.5975  1.2727 -0.7139
20456SOL     OW64865   0.229   2.762   6.757  0.1090 -0.2833 -0.1173
20456SOL    HW164866   0.183   2.721   6.831  1.5542 -0.5801  0.6610
20456SOL    HW264867   0.167   2.757   6.684 -0.8725 -1.1712  0.7441
20457SOL     OW64868   7.305   6.871  10.945 -0.2033  0.2492  1.1055
20457SOL    HW164869   7.240   6.840  10.881  0.9325 -2.0723  0.9366
20457SOL    HW264870   7.272   6.955  10.975 -0.6721  1.6364 -2.7588
20458SOL     OW64871   5.796   2.679   1.937 -0.1911  0.1214 -0.1441
20458SOL    HW164872   5.742   2.753   1.912  0.6041 -0.0674 -2.7498
20458SOL    HW264873   5.876   2.689   1.885  1.2508 -0.9452  1.7198
20459SOL     OW64874   1.578   9.209   7.757 -0.7406 -0.2176  0.1940
20459SOL    HW164875   1.632   9.257   7.694 -1.6081  0.2914 -0.1719
20459SOL    HW264876   1.568   9.268   7.831 -0.8326 -0.2962  0.2456
20460SOL     OW64877   8.596   4.155   6.628 -0.2866 -0.0379 -0.3592
20460SOL    HW164878   8.551   4.147   6.713 -1.5054 -1.9297 -1.0954
20460SOL    HW264879   8.524   4.161   6.564  0.5312 -0.9603 -1.4103
20461SOL     OW64880   7.678   1.815   0.575 -0.7887  0.0159  0.0891
20461SOL    HW164881   7.766   1.851   0.579  0.0417 -1.9127  0.4923
20461SOL    HW264882   7.637   1.843   0.657 -1.1863  2.3181 -0.8337
20462SOL     OW64883   1.031   6.559   0.883 -0.3436 -0.0405 -0.1786
20462SOL    HW164884   0.972   6.634   0.883  0.7420  0.8419 -0.3246
20462SOL    HW264885   1.105   6.587   0.829  0.8346 -0.5911  1.0775
20463SOL     OW64886   2.849   5.282   0.578 -0.0382  0.1137 -0.0501
20463SOL    HW164887   2.880   5.318   0.661  2.2242 -0.0903 -0.7432
20463SOL    HW264888   2.761   5.318   0.568  0.1041  1.1164  1.8433
20464SOL     OW64889   6.191   6.373   5.459 -0.0130 -0.2458 -0.0622
20464SOL    HW164890   6.213   6.429   5.533  2.1671 -0.8631 -0.1563
20464SOL    HW264891   6.164   6.290   5.500  1.6688 -0.7578  0.1335
20465SOL     OW64892   6.994   7.745   1.117 -0.0280 -0.3024  0.3498
20465SOL    HW164893   6.969   7.743   1.025 -1.9591 -0.1355  0.8267
20465SOL    HW264894   6.943   7.675   1.157  1.3653 -0.8812  1.1871
20466SOL     OW64895   6.352   0.697  10.787 -0.0605  0.1711  0.5160
20466SOL    HW164896   6.278   0.689  10.726  0.8734  0.2748 -0.6579
20466SOL    HW264897   6.363   0.791  10.799  0.9188  0.2241 -0.6391
20467SOL     OW64898   9.926   6.852   9.576  0.0662 -0.3425 -0.0325
20467SOL    HW164899   9.987   6.856   9.502  0.8924  1.9555  0.6871
20467SOL    HW264900   9.897   6.943   9.588  1.6338 -0.1889  3.8053
20468SOL     OW64901   9.630   6.689   3.609  0.4879 -0.5800 -0.1538
20468SOL    HW164902   9.570   6.744   3.660  0.8587 -0.0371 -0.3069
20468SOL    HW264903   9.688   6.650   3.675  1.5194  0.7879 -0.2195
20469SOL     OW64904   5.043   1.732   4.849 -0.0121 -0.0015  0.0835
20469SOL    HW164905   5.055   1.666   4.781  0.6216  0.2205 -0.0219
20469SOL    HW264906   5.130   1.768   4.864 -0.5297  1.7404 -0.7847
20470SOL     OW64907  10.261   0.838  10.416  0.7167 -0.5472 -0.2652
20470SOL    HW164908  10.183   0.838  10.472  0.8469  0.2256 -0.0773
20470SOL    HW264909  10.230   0.805  10.332  0.3871 -1.1297  0.0761
20471SOL     OW64910   6.188   1.743  10.792  0.1052 -0.1804 -0.1438
20471SOL    HW164911   6.138   1.730  10.872 -0.2329 -2.2847 -0.6424
20471SOL    HW264912   6.278   1.722  10.816  0.1137 -0.1565 -0.1540
20472SOL     OW64913   8.944   4.600  10.698 -0.3868  0.1914  0.6145
20472SOL    HW164914   8.918   4.692  10.694 -2.3795 -0.3202  0.5629
20472SOL    HW264915   8.909   4.561  10.618 -1.2255 -0.9659  1.5000
20473SOL     OW64916   2.107   5.136   8.671 -0.0288  0.5131  0.1851
20473SOL    HW164917   2.012   5.122   8.670  0.2050 -2.0685 -3.4192
20473SOL    HW264918   2.119   5.225   8.637 -1.1180  0.2952 -0.7949
20474SOL     OW64919   1.898   2.206   3.879  0.3809 -0.1326  0.3718
20474SOL    HW164920   1.850   2.124   3.888  2.0975 -1.3259 -0.6296
20474SOL    HW264921   1.833   2.270   3.851 -1.0169 -1.1135  1.2529
20475SOL     OW64922   1.965   6.515   1.481 -0.2708  0.2557  0.1623
20475SOL    HW164923   2.003   6.434   1.446 -0.9672  0.7191 -1.7685
20475SOL    HW264924   2.039   6.575   1.486 -0.3388  0.6068 -1.9250
20476SOL     OW64925  10.460   9.978   9.840  0.0714  0.3304 -0.2079
20476SOL    HW164926  10.500  10.065   9.832 -1.8172  1.2671  0.0384
20476SOL    HW264927  10.430   9.973   9.930  0.7438 -0.8675 -0.0321
20477SOL     OW64928   1.620   7.459   7.111 -0.2256  0.3199 -0.0607
20477SOL    HW164929   1.567   7.440   7.188 -0.1665  2.7647  0.6473
20477SOL    HW264930   1.556   7.482   7.043 -0.3174 -2.3725 -1.0186
20478SOL     OW64931   7.073   6.226   1.446  0.2760 -0.2666  0.1502
20478SOL    HW164932   7.107   6.237   1.357 -2.1192  0.3656 -0.7725
20478SOL    HW264933   7.037   6.137   1.447  0.4905 -0.3493  0.5578
20479SOL     OW64934   8.362   8.573   6.463  0.3041 -0.2936 -0.6267
20479SOL    HW164935   8.444   8.569   6.413  0.7062  2.6609 -0.4230
20479SOL    HW264936   8.294   8.584   6.397  0.3724 -0.3914 -0.7132
20480SOL     OW64937   5.091   5.544   3.579 -0.4197 -0.0794 -0.1943
20480SOL    HW164938   5.069   5.471   3.636  2.4921 -1.9821 -1.2728
20480SOL    HW264939   5.011   5.597   3.576 -1.8458 -1.8272  2.6237
20481SOL     OW64940   7.504   9.144   8.048  0.3050  0.3712 -0.4446
20481SOL    HW164941   7.444   9.070   8.046 -0.8372  1.2323  0.5673
20481SOL    HW264942   7.590   9.105   8.065 -0.0846 -0.7991 -1.0509
20482SOL     OW64943   1.787   5.291   0.039 -0.4769  0.4437  0.2026
20482SOL    HW164944   1.868   5.340   0.022  0.0804  0.2810  2.2143
20482SOL    HW264945   1.776   5.237  -0.040  2.2886 -0.7585  0.5101
20483SOL     OW64946   7.105   7.950   6.866  0.4556 -0.0649 -0.3740
20483SOL    HW164947   7.076   7.978   6.953 -0.4888 -0.6177 -0.5094
20483SOL    HW264948   7.187   7.998   6.852 -1.3687  3.1587 -0.8662
20484SOL     OW64949   0.100   0.413   7.011  0.2939 -0.4408 -0.1494
20484SOL    HW164950   0.076   0.462   7.090  2.3365 -1.7409  1.3944
20484SOL    HW264951   0.191   0.438   6.994  0.1032 -0.7056 -1.7200
20485SOL     OW64952   4.484   4.491   4.646  0.2573 -0.1947  0.2652
20485SOL    HW164953   4.389   4.493   4.656  0.3336 -2.3418  2.2646
20485SOL    HW264954   4.500   4.419   4.585  0.6333 -1.4829  1.8182
20486SOL     OW64955   1.201   0.183   0.517  0.0433 -0.2923 -0.1495
20486SOL    HW164956   1.256   0.196   0.595  0.3611 -0.8288 -0.2772
20486SOL    HW264957   1.158   0.267   0.504 -0.2561 -0.2805  0.7891
20487SOL     OW64958   7.518   3.394   2.198  0.3274  0.2170 -0.4127
20487SOL    HW164959   7.557   3.459   2.257  2.1291 -0.7392 -0.4567
20487SOL    HW264960   7.470   3.335   2.256 -1.3194  1.5171 -0.3739
20488SOL     OW64961   8.382  10.125   6.118  0.8239  0.1461 -0.0725
20488SOL    HW164962   8.334  10.207   6.106 -0.0571 -0.0864  1.5250
20488SOL    HW264963   8.404  10.097   6.030 -1.2735  0.7124 -0.8489
20489SOL     OW64964   6.341   8.326   0.181  0.3637  0.3668 -0.0704
20489SOL    HW164965   6.317   8.407   0.137  1.3464  1.0327  0.5836
20489SOL    HW264966   6.372   8.269   0.110  1.1796  1.1437 -0.3594
20490SOL     OW64967   4.643   9.742   0.898 -0.6202 -0.1492 -0.0554
20490SOL    HW164968   4.597   9.759   0.981 -2.4434 -0.8866 -0.8667
20490SOL    HW264969   4.677   9.827   0.872  1.0377 -0.0858  1.9944
20491SOL     OW64970   1.170   8.613   2.971 -0.2724  0.6399 -0.4702
20491SOL    HW164971   1.240   8.664   2.929  0.4173  0.5178  0.4939
20491SOL    HW264972   1.203   8.523   2.971  0.5632  0.8711  1.8559
20492SOL     OW64973   9.346   5.770  10.960 -0.0111  0.0133  0.1318
20492SOL    HW164974   9.376   5.857  10.985  0.3033 -0.2359  0.6518
20492SOL    HW264975   9.333   5.725  11.044  0.7650 -0.7509 -0.1494
20493SOL     OW64976   2.849   7.927   4.354  0.5301  0.4375 -0.0926
20493SOL    HW164977   2.888   8.014   4.348  1.4046 -0.0165 -1.6545
20493SOL    HW264978   2.923   7.867   4.346 -0.1042 -0.4518  0.5920
20494SOL     OW64979   3.191   3.369   4.054 -0.2343  0.1785 -0.0849
20494SOL    HW164980   3.271   3.315   4.052 -0.6696 -0.4956  0.1331
20494SOL    HW264981   3.220   3.454   4.086  0.6108  0.3253 -1.1608
20495SOL     OW64982   3.736   0.496   4.982 -0.3552 -0.1990  0.3075
20495SOL    HW164983   3.693   0.575   4.951 -1.3420 -0.6831  0.4193
20495SOL    HW264984   3.688   0.470   5.060 -0.1004 -0.9526  0.2314
20496SOL     OW64985   6.363   5.731   4.769 -0.3645 -0.9276 -0.1962
20496SOL    HW164986   6.269   5.724   4.754 -0.4076 -0.8213  0.0128
20496SOL    HW264987   6.398   5.770   4.689 -0.6676  0.1690  0.1968
20497SOL     OW64988   0.256   0.308   2.719 -0.0421  0.2156  0.2677
20497SOL    HW164989   0.301   0.224   2.712 -0.1206  0.2675 -1.2842
20497SOL    HW264990   0.178   0.290   2.771  0.5257 -0.4094  0.9209
20498SOL     OW64991   3.952   3.800   2.503  0.0200 -0.2830  0.3187
20498SOL    HW164992   4.003   3.752   2.569  1.8654 -0.0326 -0.8565
20498SOL    HW264993   3.928   3.733   2.439  1.5127  0.0466 -0.6633
20499SOL     OW64994   1.809   8.049   0.119  0.4040 -0.1672  0.0126
20499SOL    HW164995   1.723   8.017   0.091  1.3260 -2.4073 -0.5357
20499SOL    HW264996   1.867   8.026   0.046  1.4128  1.7368  0.1602
20500SOL     OW64997   0.101   1.794   2.532  0.6436 -0.4265 -0.2024
20500SOL    HW164998   0.173   1.832   2.582  1.2839  0.1727 -1.5349
20500SOL    HW264999   0.067   1.724   2.588  0.9260  0.6029  1.3129
20501SOL     OW65000   0.873  10.313   7.361  0.3270  0.4546  0.2656
20501SOL    HW165001   0.890  10.235   7.307  2.0008  0.6657  0.4211
20501SOL    HW265002   0.885  10.282   7.451 -0.6263  0.5303  0.4263
20502SOL     OW65003   0.825   1.153   8.256 -0.1188  0.1842 -0.4074
20502SOL    HW165004   0.785   1.229   8.299 -1.1766 -1.1241  1.0693
20502SOL    HW265005   0.919   1.162   8.274 -0.3476  0.5997  0.6778
20503SOL     OW65006   2.073   4.402   2.070  0.2152 -0.2007  0.2304
20503SOL    HW165007   1.989   4.378   2.030  0.0292 -0.8891  1.0068
20503SOL    HW265008   2.131   4.329   2.048 -0.0685 -0.9122  1.7502
20504SOL     OW65009   2.235  10.917   1.277 -0.5972 -0.6753  0.0612
20504SOL    HW165010   2.258  11.008   1.299 -1.4568  0.2887 -2.6549
20504SOL    HW265011   2.148  10.905   1.314 -1.5815  0.5584 -1.6757
20505SOL     OW65012   0.859   5.839   6.253  0.2840  0.0129  0.0657
20505SOL    HW165013   0.781   5.803   6.210  0.3054 -0.2645  0.2568
20505SOL    HW265014   0.876   5.779   6.326 -0.3569  1.0525  1.0906
20506SOL     OW65015   5.511   8.461   2.563  0.0884  0.4681  0.5180
20506SOL    HW165016   5.537   8.522   2.632 -1.3269  0.1899  1.3328
20506SOL    HW265017   5.417   8.476   2.552 -0.1370 -1.0201  0.1978
20507SOL     OW65018   5.424   8.315   7.975 -0.3847  0.1800 -0.0119
20507SOL    HW165019   5.385   8.247   8.029 -1.6239 -1.4461 -2.7283
20507SOL    HW265020   5.445   8.270   7.893  2.9408  2.0952 -0.3694
20508SOL     OW65021   1.724   3.983   5.720 -0.3227 -0.1093 -0.4145
20508SOL    HW165022   1.818   3.967   5.716 -0.1513  1.1394 -2.4283
20508SOL    HW265023   1.717   4.067   5.767 -0.3676  0.1489 -0.8763
20509SOL     OW65024   6.395   1.070   4.877  0.1702  0.3095  0.4495
20509SOL    HW165025   6.360   1.123   4.805  0.3727  0.8630  0.7564
20509SOL    HW265026   6.428   1.134   4.940 -0.0646 -0.1672  1.0683
20510SOL     OW65027   6.328   3.987   4.201 -0.3043 -0.3457 -0.6154
20510SOL    HW165028   6.292   4.056   4.257 -1.0641 -0.7281 -0.6143
20510SOL    HW265029   6.287   4.002   4.116  1.0250  0.3754 -1.1535
20511SOL     OW65030   2.442   3.013   6.642  0.0843  0.7223 -0.1087
20511SOL    HW165031   2.404   2.954   6.706  0.8660 -0.7037 -0.9016
20511SOL    HW265032   2.442   3.099   6.685 -2.6073  0.5308  0.4564
20512SOL     OW65033   6.599   3.360  10.789  0.3553 -0.0626  0.2434
20512SOL    HW165034   6.659   3.285  10.791  0.0357 -0.4446 -2.1897
20512SOL    HW265035   6.655   3.435  10.770  0.3553 -0.0445  0.3128
20513SOL     OW65036   7.038   5.981   4.877 -0.1765  0.4014  0.3616
20513SOL    HW165037   7.063   5.899   4.920  0.5461  0.7514  0.6242
20513SOL    HW265038   7.083   6.049   4.927 -1.1316  1.0110  0.4315
20514SOL     OW65039   7.013   3.741   1.060  0.1309  0.5264 -0.3049
20514SOL    HW165040   7.037   3.815   1.116  1.9999  0.5389 -1.0380
20514SOL    HW265041   7.097   3.704   1.033 -0.7428 -0.5296 -1.7039
20515SOL     OW65042   1.061   1.262   0.449  0.2282  0.1058  0.2261
20515SOL    HW165043   1.039   1.257   0.542 -0.1193 -1.0055  0.0985
20515SOL    HW265044   1.085   1.354   0.435  0.3233  0.2781  1.4144
20516SOL     OW65045   5.890   6.846   9.523  0.1044  0.2617 -0.1876
20516SOL    HW165046   5.948   6.900   9.470 -1.8622  1.4903 -1.2517
20516SOL    HW265047   5.874   6.768   9.470 -0.4546  0.6681 -0.6322
20517SOL     OW65048  10.717   7.323   4.978 -0.4288  0.3788  0.2025
20517SOL    HW165049  10.721   7.402   4.924 -1.0897  0.5785  0.4340
20517SOL    HW265050  10.624   7.300   4.979 -0.1904 -0.6667 -0.2454
20518SOL     OW65051   3.096   3.162   5.808 -0.3154  0.1146  0.4520
20518SOL    HW165052   3.145   3.237   5.776 -0.0504  0.0048  0.5975
20518SOL    HW265053   3.125   3.151   5.899  1.3350 -1.5411 -0.2250
20519SOL     OW65054   4.692   4.844   8.445 -0.4118 -0.1302  0.2833
20519SOL    HW165055   4.682   4.814   8.354 -0.1932 -0.0592  0.2348
20519SOL    HW265056   4.682   4.939   8.440  1.6742  0.1394 -0.0033
20520SOL     OW65057   7.876   5.980   7.186 -0.8086 -0.4156 -0.0845
20520SOL    HW165058   7.910   5.994   7.098 -0.5834 -0.6087 -0.0276
20520SOL    HW265059   7.839   6.065   7.210  0.6985  0.1627  0.3132
20521SOL     OW65060   9.415   3.669   2.504 -0.2758  0.2279  0.8080
20521SOL    HW165061   9.500   3.704   2.478  0.6730 -1.6432  1.1979
20521SOL    HW265062   9.387   3.616   2.429  0.2320 -1.3597  1.6927
20522SOL     OW65063   7.059   5.133   7.334  0.0207 -0.9527 -0.5880
20522SOL    HW165064   7.035   5.052   7.288  1.5851 -1.5563 -0.4023
20522SOL    HW265065   7.154   5.138   7.326 -0.1145  1.4154 -1.4450
20523SOL     OW65066   1.992   7.621   7.222  0.8541 -0.4708 -0.0988
20523SOL    HW165067   2.067   7.671   7.190  0.5580  0.1892  0.2005
20523SOL    HW265068   1.956   7.578   7.145  0.5006  0.6241 -0.5629
20524SOL     OW65069  10.657   8.414   5.834 -0.0739  0.5987 -0.5832
20524SOL    HW165070  10.739   8.366   5.823  0.6298  1.7398 -0.4963
20524SOL    HW265071  10.609   8.365   5.900  1.5916  1.1731  1.1579
20525SOL     OW65072   4.561   7.408   5.783  0.2206 -0.2372  0.1724
20525SOL    HW165073   4.632   7.399   5.847  1.6032  0.1236 -1.2255
20525SOL    HW265074   4.552   7.320   5.745 -0.6887 -0.4826  0.9420
20526SOL     OW65075   1.376   4.132   4.361 -0.2240 -0.1505 -0.8103
20526SOL    HW165076   1.316   4.200   4.392 -0.0689  0.2964 -1.4800
20526SOL    HW265077   1.458   4.178   4.346  0.2023 -0.7007 -0.2095
20527SOL     OW65078   0.412   6.404  10.392  0.0707  0.7028  0.2906
20527SOL    HW165079   0.397   6.494  10.420 -1.7754  0.8568 -0.9853
20527SOL    HW265080   0.330   6.358  10.412 -1.3775  0.7596 -4.2318
20528SOL     OW65081   7.502   6.607   9.219  0.1372  0.0532 -0.0534
20528SOL    HW165082   7.482   6.651   9.302 -0.2378 -0.7881  0.3251
20528SOL    HW265083   7.576   6.654   9.183 -0.9552  1.7062 -0.2362
20529SOL     OW65084   6.305   0.908   2.277  0.6737 -0.2096 -0.0277
20529SOL    HW165085   6.385   0.876   2.320  2.2811 -0.6933 -3.1301
20529SOL    HW265086   6.290   0.846   2.205 -0.7527  1.5892 -1.3570
20530SOL     OW65087   3.470   8.326   3.104 -0.4722  0.0214  0.1632
20530SOL    HW165088   3.458   8.380   3.026 -1.6615  0.2346  0.4640
20530SOL    HW265089   3.520   8.250   3.073  0.5788  0.9225 -0.4177
20531SOL     OW65090   2.341   7.631   5.795  0.1122 -0.5882 -0.0845
20531SOL    HW165091   2.415   7.689   5.778 -1.8609  2.6752  1.4934
20531SOL    HW265092   2.286   7.638   5.718  0.0839 -0.7939 -0.0856
20532SOL     OW65093   7.500  10.848   1.309 -0.9728 -0.1346  0.9338
20532SOL    HW165094   7.565  10.888   1.252  0.7441 -0.5173  2.5089
20532SOL    HW265095   7.423  10.836   1.254  0.4829 -0.2084 -1.2011
20533SOL     OW65096   6.907   7.867   1.733 -0.0703  0.3198 -0.1033
20533SOL    HW165097   6.956   7.790   1.762  0.4827  0.4977 -0.5473
20533SOL    HW265098   6.893   7.853   1.640 -0.7810  0.3257 -0.0060
20534SOL     OW65099   9.844   5.706   2.881  0.0889  0.3149 -0.2144
20534SOL    HW165100   9.754   5.682   2.859  0.5660  0.0460 -2.0263
20534SOL    HW265101   9.840   5.732   2.973 -1.5473 -1.1408  0.1806
20535SOL     OW65102  10.080   5.837   9.588  0.2267 -0.0351 -0.1125
20535SOL    HW165103  10.064   5.910   9.648 -0.3787  0.2124 -0.5577
20535SOL    HW265104  10.174   5.823   9.592  0.1120 -0.6041  1.5518
20536SOL     OW65105   7.926   7.771   1.736  0.0231  0.7681 -0.2985
20536SOL    HW165106   7.850   7.814   1.775  0.8117  1.5927  0.3792
20536SOL    HW265107   7.971   7.841   1.687  0.5092  0.3626 -0.4415
20537SOL     OW65108   8.351   3.519   2.689  0.8850 -0.5073  0.1861
20537SOL    HW165109   8.332   3.461   2.615 -0.4029  0.5709 -0.3598
20537SOL    HW265110   8.292   3.488   2.758 -0.3559  0.5824 -0.3488
20538SOL     OW65111   2.560   6.126   8.959  0.5123 -0.1965 -0.1623
20538SOL    HW165112   2.635   6.075   8.990  1.7958  1.2680 -0.7312
20538SOL    HW265113   2.561   6.113   8.864  0.0108 -0.1886 -0.1709
20539SOL     OW65114   9.017   6.398   9.867  0.1267  0.0444  0.1486
20539SOL    HW165115   8.953   6.468   9.852  0.9967  0.7898 -0.1877
20539SOL    HW265116   9.036   6.401   9.960 -1.3295 -1.0948  0.5253
20540SOL     OW65117   0.249   2.176  10.893  0.0424 -0.2010  0.2968
20540SOL    HW165118   0.247   2.272  10.894 -2.4336 -0.1481 -1.0576
20540SOL    HW265119   0.317   2.155  10.829 -0.9356  0.7677 -1.1451
20541SOL     OW65120   1.451   0.127   1.234 -0.0649  0.2012  0.9222
20541SOL    HW165121   1.482   0.076   1.160  0.0795  0.3719  0.8631
20541SOL    HW265122   1.400   0.066   1.286 -1.2902  0.4127 -0.0081
20542SOL     OW65123   4.958   4.334   1.740  0.0452 -0.1246  0.1260
20542SOL    HW165124   5.015   4.297   1.673 -0.2699  1.5362 -1.1159
20542SOL    HW265125   5.012   4.401   1.783  0.4348 -1.5461  1.9672
20543SOL     OW65126   4.949   1.276   0.051  0.0605  0.3664 -0.2067
20543SOL    HW165127   4.863   1.315   0.066 -0.9943 -1.6831 -0.6704
20543SOL    HW265128   4.955   1.205   0.115  0.6200 -0.6607 -1.3596
20544SOL     OW65129   4.859   0.005   6.188 -0.0557  0.3392  0.2243
20544SOL    HW165130   4.864   0.044   6.101  0.8966  0.5941  0.3849
20544SOL    HW265131   4.796  -0.066   6.179  0.0259  0.3759 -0.6650
20545SOL     OW65132   2.794  10.347   7.165  0.2081  0.0801  0.1187
20545SOL    HW165133   2.796  10.274   7.227  1.7865  0.7968  0.9457
20545SOL    HW265134   2.849  10.318   7.092 -1.9468 -0.9168 -1.2025
20546SOL     OW65135   4.564  10.548   3.689  0.4891 -0.1379 -0.4434
20546SOL    HW165136   4.511  10.627   3.679 -1.1497 -1.2943 -1.3222
20546SOL    HW265137   4.627  10.552   3.617  1.7184  1.2858  0.6568
20547SOL     OW65138   2.142  10.652   2.158  0.2523 -0.1808 -0.3196
20547SOL    HW165139   2.178  10.693   2.079  1.6614  2.3912  1.5326
20547SOL    HW265140   2.052  10.683   2.163  0.1825 -0.2868 -0.8390
20548SOL     OW65141   0.741   4.215   9.160  0.4768  0.8872 -0.1523
20548SOL    HW165142   0.829   4.251   9.146  0.3831  0.9423 -0.6058
20548SOL    HW265143   0.688   4.251   9.089  0.0717  0.8980  0.1495
20549SOL     OW65144   1.179   8.466   0.933  0.1731  0.1425  0.2515
20549SOL    HW165145   1.184   8.370   0.937 -1.7142 -0.0622 -1.0859
20549SOL    HW265146   1.257   8.492   0.885  0.9177 -0.6853  0.9796
20550SOL     OW65147   6.414   8.637   7.930 -0.3953  0.1368 -0.0646
20550SOL    HW165148   6.468   8.614   8.005 -0.3626 -1.4872 -0.5447
20550SOL    HW265149   6.324   8.619   7.959 -0.3114 -1.3770 -0.6924
20551SOL     OW65150   2.995  10.029   5.111 -0.0873  0.1243  0.0295
20551SOL    HW165151   2.919  10.088   5.105  0.6835  1.2084  0.6805
20551SOL    HW265152   2.995   9.999   5.202 -0.4428 -0.8796 -0.2818
20552SOL     OW65153   8.626   6.451   8.762 -0.7708 -0.1087  0.7231
20552SOL    HW165154   8.689   6.518   8.789 -2.0982  1.4363  0.1912
20552SOL    HW265155   8.674   6.395   8.701  0.1706  0.8391  0.5780
20553SOL     OW65156   5.450   2.383   5.540 -0.4110 -0.3808  0.6169
20553SOL    HW165157   5.375   2.325   5.528 -0.3571  0.0549 -2.7027
20553SOL    HW265158   5.526   2.330   5.516 -0.1575  0.4512 -0.4792
20554SOL     OW65159  10.003  10.582   1.396  0.2543  0.7023 -0.2579
20554SOL    HW165160  10.038  10.584   1.485  0.5688  2.1097 -0.3872
20554SOL    HW265161  10.060  10.521   1.349 -1.1204 -1.6454  0.9326
20555SOL     OW65162   5.736   4.931   7.680 -0.0406  0.0151  0.7053
20555SOL    HW165163   5.683   4.862   7.720  0.5845 -2.3121 -2.0587
20555SOL    HW265164   5.674   4.986   7.633 -0.3963  0.1623  1.3454
20556SOL     OW65165   3.563   4.366   4.902 -0.0733 -0.3136  0.0339
20556SOL    HW165166   3.474   4.333   4.905 -0.0684 -0.2685  0.8085
20556SOL    HW265167   3.576   4.410   4.986  0.4196  0.3503 -0.3743
20557SOL     OW65168   8.136   3.224   8.987 -0.3560  0.1044 -0.2243
20557SOL    HW165169   8.207   3.270   8.943 -0.7986  0.1704 -0.8819
20557SOL    HW265170   8.059   3.279   8.972 -0.4402  0.3515  0.9992
20558SOL     OW65171  10.141  10.223   5.699  0.6136 -0.0161 -0.0251
20558SOL    HW165172  10.187  10.303   5.674  2.5381 -0.7315  0.9759
20558SOL    HW265173  10.162  10.211   5.792 -2.8577  0.3387  0.9545
20559SOL     OW65174   4.115   4.966  10.355  0.1326 -0.0696  0.1907
20559SOL    HW165175   4.023   4.952  10.336 -0.2889  3.5359 -1.0279
20559SOL    HW265176   4.160   4.948  10.273  0.5475 -1.5230  0.7010
20560SOL     OW65177   7.530   6.845   5.939 -0.7733  0.0038  0.0940
20560SOL    HW165178   7.437   6.859   5.924 -0.7675  1.1143  0.9499
20560SOL    HW265179   7.566   6.933   5.951  0.3732 -0.4120 -0.1245
20561SOL     OW65180   7.499   8.019   2.654 -0.3843 -0.8228  0.5080
20561SOL    HW165181   7.407   8.043   2.664  0.0285  0.1199  2.5781
20561SOL    HW265182   7.536   8.026   2.742  2.0161  0.2354 -0.4906
20562SOL     OW65183   2.377   0.770   3.406  0.0756 -0.2930  0.0440
20562SOL    HW165184   2.385   0.841   3.469  0.3222 -2.6151  2.8179
20562SOL    HW265185   2.449   0.711   3.426 -0.1567 -1.4248 -2.1189
20563SOL     OW65186  10.036   8.040   1.015  0.3287  0.6196  0.1947
20563SOL    HW165187  10.046   7.979   0.941 -1.0104  1.3658 -0.6473
20563SOL    HW265188  10.081   8.119   0.986  0.2081  0.7563  0.3824
20564SOL     OW65189   5.665   7.560   3.665  0.2459  0.4376 -0.0770
20564SOL    HW165190   5.691   7.536   3.754  1.0980  1.8192  0.0749
20564SOL    HW265191   5.746   7.558   3.615  0.0965  1.4246 -0.3900
20565SOL     OW65192   7.546   1.648   3.394 -0.4122 -0.0456 -0.1739
20565SOL    HW165193   7.572   1.698   3.316 -1.7144 -1.0221 -1.2996
20565SOL    HW265194   7.478   1.588   3.361 -1.1293 -0.3520  1.7677
20566SOL     OW65195   4.096   3.373   8.377 -0.2818 -0.0683  0.1548
20566SOL    HW165196   4.127   3.343   8.292  0.5424 -0.0038  0.4299
20566SOL    HW265197   4.001   3.381   8.366 -0.3453 -1.3550 -0.3496
20567SOL     OW65198   8.769   8.629   8.886  0.5267 -0.1663  0.7198
20567SOL    HW165199   8.715   8.608   8.962 -0.8308 -0.2353 -0.2317
20567SOL    HW265200   8.708   8.665   8.821  1.8816  1.3153  0.1877
20568SOL     OW65201   0.475   5.937  10.520  0.0259  0.6464  0.1477
20568SOL    HW165202   0.387   5.912  10.492  0.5556  0.9127 -1.9715
20568SOL    HW265203   0.464   6.023  10.560 -0.8899 -0.0807  1.5484
20569SOL     OW65204   6.101   5.547   2.822  0.4347  1.1466  0.3987
20569SOL    HW165205   6.041   5.593   2.881 -0.8998 -1.3038  1.1210
20569SOL    HW265206   6.163   5.503   2.881  1.2775  1.4874 -0.2200
20570SOL     OW65207   1.409   0.541   0.804  0.3066  0.3823 -0.5661
20570SOL    HW165208   1.489   0.540   0.857  0.5326  0.3804 -0.9038
20570SOL    HW265209   1.425   0.608   0.738 -0.2911  0.9455 -0.1524
20571SOL     OW65210   5.347   5.922   7.877  0.0716 -0.0581  0.4133
20571SOL    HW165211   5.406   5.986   7.917  0.4583  1.5226 -2.4050
20571SOL    HW265212   5.259   5.954   7.897  0.2164 -0.2590  1.3982
20572SOL     OW65213   4.713   6.076   8.010  0.1568  0.0652  0.6919
20572SOL    HW165214   4.684   6.163   7.984  0.6027 -0.1624 -0.6296
20572SOL    HW265215   4.739   6.033   7.928 -1.6932 -1.9455  1.0625
20573SOL     OW65216   4.692   0.427   5.387 -1.0559 -0.0673  0.8805
20573SOL    HW165217   4.621   0.449   5.326 -0.6609  1.2416  0.8563
20573SOL    HW265218   4.770   0.419   5.332 -0.9306 -0.1130  1.0639
20574SOL     OW65219   8.844   6.528  10.288 -0.2136  0.0173  0.8840
20574SOL    HW165220   8.770   6.485  10.244 -0.3702  1.0051  0.1348
20574SOL    HW265221   8.804   6.602  10.334  0.4478  1.4536 -0.7441
20575SOL     OW65222  10.634   9.762   0.007  0.1074 -0.0519  0.1600
20575SOL    HW165223  10.670   9.732  -0.076  0.9517 -0.8921  0.8201
20575SOL    HW265224  10.705   9.812   0.048 -0.2363  0.1917  0.4707
20576SOL     OW65225   7.698   5.737   9.592 -0.4442  0.2159  0.0993
20576SOL    HW165226   7.661   5.670   9.534  0.2748  0.0477 -0.1701
20576SOL    HW265227   7.623   5.768   9.642 -1.3255  1.2348 -1.7504
20577SOL     OW65228   7.218   4.893   3.672  0.3919 -0.0187 -0.3487
20577SOL    HW165229   7.299   4.862   3.712  0.1760  1.1282  1.0768
20577SOL    HW265230   7.244   4.972   3.623 -0.0975  1.4725  1.6694
20578SOL     OW65231   1.088   7.217   5.874 -0.4560  0.1201 -0.2490
20578SOL    HW165232   1.135   7.241   5.795  0.1724 -0.3339 -0.0218
20578SOL    HW265233   1.121   7.277   5.941 -0.5646  0.1274 -0.2015
20579SOL     OW65234  10.997   9.823  10.394 -0.0170 -1.4368 -0.7565
20579SOL    HW165235  11.041   9.738  10.395  1.4890 -0.6823  0.4776
20579SOL    HW265236  10.931   9.817  10.463  0.2712 -1.5266 -0.4857
20580SOL     OW65237   7.666   7.868   1.137 -0.3331  0.5383  0.0298
20580SOL    HW165238   7.732   7.839   1.200  0.1216 -2.1373 -1.5356
20580SOL    HW265239   7.599   7.910   1.191  0.0269 -1.5796  2.3438
20581SOL     OW65240   5.053   4.721   2.991  0.0327 -0.0671 -0.6757
20581SOL    HW165241   5.006   4.665   2.930 -2.5071  0.4591  0.6734
20581SOL    HW265242   5.025   4.810   2.970  2.5678  0.6236 -1.5574
20582SOL     OW65243   4.181   8.108  10.480  0.7248  0.4122  0.6709
20582SOL    HW165244   4.145   8.035  10.530 -1.7014 -0.4713 -2.0672
20582SOL    HW265245   4.249   8.069  10.425  0.2190  0.4343  0.0227
20583SOL     OW65246   1.185   0.572   1.108  1.0150 -0.3208  0.6017
20583SOL    HW165247   1.244   0.498   1.125  0.4335 -1.2374 -1.0948
20583SOL    HW265248   1.170   0.569   1.014 -1.8607 -0.2500  0.9673
20584SOL     OW65249   6.793   3.265   3.358  0.1826 -0.2066 -0.3997
20584SOL    HW165250   6.844   3.239   3.281  1.3073  1.4854 -0.2834
20584SOL    HW265251   6.736   3.336   3.326 -1.2916 -1.2739 -0.2455
20585SOL     OW65252   4.436   4.755   2.371  0.1044 -0.0377  0.5942
20585SOL    HW165253   4.423   4.718   2.284 -5.4078  1.2297  0.5108
20585SOL    HW265254   4.423   4.682   2.431  1.0783 -0.3601  0.4346
20586SOL     OW65255   8.842   6.358   7.949 -0.0280  0.5299  0.1531
20586SOL    HW165256   8.886   6.335   8.031 -0.0068  0.4954  0.1323
20586SOL    HW265257   8.751   6.330   7.962  0.2327 -0.5846 -0.2889
20587SOL     OW65258   2.728   6.524   5.771 -0.3044 -0.1307  0.0669
20587SOL    HW165259   2.809   6.490   5.807 -0.9495 -1.5699  0.2391
20587SOL    HW265260   2.708   6.601   5.825 -0.0790 -0.9275  1.3194
20588SOL     OW65261   5.662   1.189   0.368 -0.4621 -0.0694  0.3195
20588SOL    HW165262   5.684   1.144   0.449 -1.6023  0.8278  1.1572
20588SOL    HW265263   5.574   1.223   0.382  0.0888  1.8370 -0.5176
20589SOL     OW65264   3.145   8.267   8.545 -0.1240  0.3147 -0.6400
20589SOL    HW165265   3.183   8.180   8.527  2.1044  1.0126  0.3431
20589SOL    HW265266   3.074   8.275   8.481  0.9430 -1.3911 -2.1636
20590SOL     OW65267  10.958   9.565   7.477  0.0784 -0.0815 -0.3759
20590SOL    HW165268  10.907   9.485   7.463  1.5242 -0.8079 -1.7972
20590SOL    HW265269  10.989   9.558   7.568 -0.0251 -1.0079 -0.4062
20591SOL     OW65270   5.032   5.757   5.634 -0.3872 -0.2490 -0.2038
20591SOL    HW165271   4.998   5.671   5.608 -2.9821  0.4518  0.5701
20591SOL    HW265272   4.997   5.771   5.723  1.1166  1.0425  0.2323
20592SOL     OW65273   1.756   5.392  10.674 -0.0014 -0.6046  0.4313
20592SOL    HW165274   1.775   5.300  10.655  0.2594 -0.3846 -0.4228
20592SOL    HW265275   1.663   5.394  10.694 -0.3512 -0.8391 -1.0553
20593SOL     OW65276   2.871   0.206   1.244 -0.3367 -0.5554 -0.3083
20593SOL    HW165277   2.805   0.140   1.265 -0.7557  0.6224  2.6062
20593SOL    HW265278   2.938   0.196   1.311 -1.1331  2.7936  1.2270
20594SOL     OW65279   8.899   8.800   4.586 -0.3241 -0.3264  0.2783
20594SOL    HW165280   8.953   8.878   4.573 -0.4203 -0.1515  0.8964
20594SOL    HW265281   8.957   8.737   4.628 -0.1642 -0.6936 -0.4868
20595SOL     OW65282   5.379   4.931   4.417  0.5270 -0.0823 -0.2355
20595SOL    HW165283   5.351   5.006   4.470  0.3467  0.5541 -1.2131
20595SOL    HW265284   5.422   4.873   4.479 -0.6519  0.1367  0.8292
20596SOL     OW65285   3.882   1.335   1.628  0.0418 -0.7837  0.2693
20596SOL    HW165286   3.880   1.363   1.537  1.3587 -0.4738  0.3069
20596SOL    HW265287   3.960   1.281   1.635  1.6697  1.5569  1.8051
20597SOL     OW65288   2.243   6.978   0.675 -0.0060 -0.1236  0.4339
20597SOL    HW165289   2.259   6.971   0.769  0.3113 -2.1203  0.2776
20597SOL    HW265290   2.223   6.888   0.647 -1.0525  0.5759 -1.2483
20598SOL     OW65291  10.560   3.051   0.122 -0.2466  0.2351 -0.2174
20598SOL    HW165292  10.569   3.023   0.031  0.1968  0.6240 -0.2952
20598SOL    HW265293  10.600   3.138   0.125  0.9224 -0.2978  0.6204
20599SOL     OW65294   9.362   0.782   0.439 -0.2183  0.1201 -0.3820
20599SOL    HW165295   9.350   0.690   0.416  1.3607  0.2377 -1.9139
20599SOL    HW265296   9.273   0.817   0.446 -0.8284 -1.2762 -0.8044
20600SOL     OW65297   5.852   0.878   4.323  0.1712  0.2384 -0.1970
20600SOL    HW165298   5.810   0.803   4.282  0.5188 -1.3991  2.2321
20600SOL    HW265299   5.937   0.845   4.352  1.2583  2.2019 -0.9515
20601SOL     OW65300   4.510  10.454   7.616  0.1027 -0.1603 -0.1071
20601SOL    HW165301   4.506  10.511   7.540 -2.3406  0.4467  0.3940
20601SOL    HW265302   4.496  10.366   7.580 -0.0044  0.0004 -0.4643
20602SOL     OW65303   4.070   0.189   9.925  0.3292 -0.1305 -0.0081
20602SOL    HW165304   4.161   0.198   9.954  0.6115 -1.6726 -0.3467
20602SOL    HW265305   4.019   0.224   9.998  1.0999 -2.2124  1.6203
20603SOL     OW65306   4.481   5.076   8.641  0.2518  0.0058 -0.2721
20603SOL    HW165307   4.439   5.153   8.679 -2.0848 -1.8100  1.0886
20603SOL    HW265308   4.530   5.037   8.713  0.3729 -0.4668 -0.6064
20604SOL     OW65309   2.443   3.568   8.841 -0.3652  0.1362  0.2151
20604SOL    HW165310   2.394   3.562   8.759 -0.4051  0.6658  0.1932
20604SOL    HW265311   2.523   3.615   8.818 -1.4707  2.5275  0.9169
20605SOL     OW65312   8.972   0.476   4.847 -0.0017  0.3063 -0.9007
20605SOL    HW165313   8.977   0.399   4.790 -2.3439 -0.5851 -0.0194
20605SOL    HW265314   8.879   0.501   4.847  0.6375  3.0638 -1.0013
20606SOL     OW65315   7.078   8.066   8.098 -0.0492  0.5056 -0.1530
20606SOL    HW165316   7.170   8.066   8.122 -0.1239  0.8831  0.1502
20606SOL    HW265317   7.043   8.147   8.135 -0.7523 -0.1514  0.6737
20607SOL     OW65318   7.097   8.018   9.129  0.0240  0.4069  0.2888
20607SOL    HW165319   7.125   7.952   9.192 -0.2579 -1.5542 -1.5139
20607SOL    HW265320   7.021   8.060   9.170 -1.3230 -2.1086  0.5615
20608SOL     OW65321   7.657   2.539   6.488  0.2166 -0.3645  0.0581
20608SOL    HW165322   7.706   2.476   6.541  0.6021  0.9468  1.3146
20608SOL    HW265323   7.722   2.575   6.428 -0.0314 -1.2240 -0.7474
20609SOL     OW65324   2.722  10.141   0.332  0.1709  1.1243  0.3195
20609SOL    HW165325   2.816  10.156   0.345  0.7096 -1.7690  0.4919
20609SOL    HW265326   2.704  10.060   0.379 -2.0144  0.6163 -1.2247
20610SOL     OW65327   7.668   2.634   0.992 -0.2267  0.8470 -0.3636
20610SOL    HW165328   7.721   2.554   0.993 -1.2333  0.1623 -0.1979
20610SOL    HW265329   7.697   2.683   1.069  1.2829  1.2696 -1.1468
20611SOL     OW65330  10.367   6.814   1.085  0.2660  0.5657  0.4156
20611SOL    HW165331  10.352   6.868   1.008  2.1561  0.6964  0.0934
20611SOL    HW265332  10.344   6.725   1.057  0.8937  0.6172 -0.2889
20612SOL     OW65333   0.007   7.525   9.257 -0.5640  0.0576 -0.2322
20612SOL    HW165334  -0.030   7.457   9.201 -1.2538 -0.1776  0.4988
20612SOL    HW265335   0.091   7.490   9.286 -0.8593 -0.4333  0.0355
20613SOL     OW65336   8.819   8.320   8.337 -0.1382 -0.0471  0.7211
20613SOL    HW165337   8.906   8.296   8.304  0.0442 -0.8715  1.7783
20613SOL    HW265338   8.831   8.408   8.374 -0.7593  1.7921 -2.9308
20614SOL     OW65339   8.447   6.570   9.657 -0.2381  0.2416 -0.2038
20614SOL    HW165340   8.530   6.584   9.611 -0.1303  0.9591  0.1941
20614SOL    HW265341   8.384   6.623   9.610 -0.3077  0.3144 -0.0280
20615SOL     OW65342   6.207   5.932   2.862  0.0159  0.9071  0.6741
20615SOL    HW165343   6.148   5.887   2.800 -0.3515 -0.5393  1.9952
20615SOL    HW265344   6.220   5.868   2.932  1.3363  2.0777  1.5357
20616SOL     OW65345  10.082   3.436   6.880  0.2501 -0.5429  0.0846
20616SOL    HW165346  10.077   3.386   6.799  0.7888 -0.6063  0.0860
20616SOL    HW265347  10.001   3.487   6.882  0.9618  0.7262 -1.3208
20617SOL     OW65348   7.773   9.017   2.184  0.4636 -0.9042  0.1747
20617SOL    HW165349   7.807   9.078   2.119  0.8401 -0.6447  0.6140
20617SOL    HW265350   7.850   8.985   2.230  0.1238 -0.2345  1.2358
20618SOL     OW65351   7.213   3.217   0.012  0.1390  0.1291 -0.0006
20618SOL    HW165352   7.184   3.247  -0.074  0.5588  3.0984  0.7696
20618SOL    HW265353   7.307   3.203   0.002  0.1882  0.4799 -0.0431
20619SOL     OW65354   2.609   9.370   3.169 -0.4962  0.7599 -0.4074
20619SOL    HW165355   2.516   9.384   3.185 -0.2316  1.1582  0.9354
20619SOL    HW265356   2.614   9.283   3.131 -1.3524  0.4106  0.2403
20620SOL     OW65357   1.343   0.625   4.626 -0.4217 -0.3187 -0.4829
20620SOL    HW165358   1.406   0.658   4.690 -1.5523  0.1189  0.4192
20620SOL    HW265359   1.269   0.595   4.677 -0.0421 -3.0532 -1.3536
20621SOL     OW65360   2.400   2.042  10.504 -0.3467 -0.1329  0.2160
20621SOL    HW165361   2.349   2.118  10.531  0.5655  0.0132  1.6546
20621SOL    HW265362   2.427   2.000  10.586  2.2993  0.1300 -0.4109
20622SOL     OW65363   8.947   7.069   5.154 -0.4730  0.5047 -0.3001
20622SOL    HW165364   8.900   7.043   5.233  0.2889 -0.0779 -0.0319
20622SOL    HW265365   8.972   7.160   5.171  0.4369  0.1252  0.5172
20623SOL     OW65366   8.054  10.771   3.456 -0.4169  0.3370 -0.3374
20623SOL    HW165367   7.960  10.782   3.437 -0.2744 -0.1808 -1.3997
20623SOL    HW265368   8.085  10.860   3.473 -0.8341  0.6834 -1.3159
20624SOL     OW65369   0.344   4.880   6.544 -0.2530  0.2874  0.2625
20624SOL    HW165370   0.417   4.922   6.589  0.2144  2.2149 -2.0797
20624SOL    HW265371   0.382   4.847   6.463 -1.9202  1.2903 -0.9809
20625SOL     OW65372  10.122   7.776   9.549  0.3925 -0.3946 -0.3407
20625SOL    HW165373  10.185   7.842   9.577  0.2111  0.4748 -1.8454
20625SOL    HW265374  10.037   7.819   9.554  0.1822 -0.7790 -0.5288
20626SOL     OW65375   8.553   3.936   8.631  0.1463  0.2845 -0.3546
20626SOL    HW165376   8.624   3.959   8.571 -0.2125 -0.2109 -0.9837
20626SOL    HW265377   8.475   3.935   8.576 -0.5792  2.0813  0.5791
20627SOL     OW65378   7.680   8.721   5.563 -0.4825 -0.1662 -0.3824
20627SOL    HW165379   7.696   8.788   5.629  0.7806 -0.4383 -0.3837
20627SOL    HW265380   7.711   8.759   5.482 -0.5421 -0.4327 -0.5322
20628SOL     OW65381   6.458   8.948   2.467  0.0533  0.0979  0.3605
20628SOL    HW165382   6.400   8.899   2.525  1.1695 -0.2316  1.2177
20628SOL    HW265383   6.492   9.019   2.521  1.5604 -0.5556  0.2994
20629SOL     OW65384   1.156   2.677   3.533 -0.0371 -0.5412 -0.4350
20629SOL    HW165385   1.113   2.762   3.538 -0.5581 -0.8143 -0.1829
20629SOL    HW265386   1.113   2.633   3.459  0.0514 -0.6770 -0.4067
20630SOL     OW65387   6.298   0.404   0.624 -0.0233 -0.0405  0.2685
20630SOL    HW165388   6.292   0.417   0.719  0.9997  2.0353  0.1120
20630SOL    HW265389   6.212   0.427   0.591 -0.2876 -0.4616  0.6453
20631SOL     OW65390   9.257   4.575   9.240 -0.0722 -0.2946  0.4962
20631SOL    HW165391   9.274   4.498   9.186  0.1046 -0.1069  0.2839
20631SOL    HW265392   9.281   4.548   9.328  1.6511  0.0604  0.1681
20632SOL     OW65393   1.178   8.363   2.835  0.1829 -1.2211 -0.0295
20632SOL    HW165394   1.229   8.417   2.775 -0.4215  1.0137  1.3298
20632SOL    HW265395   1.106   8.328   2.782 -0.2492  0.5694 -0.7083
20633SOL     OW65396   9.552   3.883   4.641 -0.4165 -0.2588 -0.3753
20633SOL    HW165397   9.522   3.875   4.731 -0.3999 -0.8483 -0.4171
20633SOL    HW265398   9.640   3.846   4.641 -0.5670 -0.6278 -0.7058
20634SOL     OW65399   5.193   9.592   9.093  0.0331  0.1263  0.2201
20634SOL    HW165400   5.270   9.622   9.141 -0.9788  0.7944  1.4981
20634SOL    HW265401   5.221   9.591   9.001  1.5158  0.4480  0.6374
20635SOL     OW65402   0.026   7.257   0.177  0.4015  0.5600  0.1078
20635SOL    HW165403   0.115   7.274   0.209  0.4284 -0.4991  0.6731
20635SOL    HW265404  -0.016   7.212   0.250 -0.5953  1.0162 -0.1762
20636SOL     OW65405   0.599   9.122   3.424  0.6063  0.1216  0.0777
20636SOL    HW165406   0.666   9.134   3.492  1.8845  0.3287 -1.1658
20636SOL    HW265407   0.608   9.030   3.398  0.3417  0.1271 -0.0351
20637SOL     OW65408   5.194  10.738   9.486  0.2009  0.4469  0.5113
20637SOL    HW165409   5.275  10.694   9.512  0.7848  1.5138  0.5961
20637SOL    HW265410   5.193  10.733   9.391  0.6175  0.8207  0.4801
20638SOL     OW65411   1.355   7.107   2.838 -0.3935 -0.1855 -0.5951
20638SOL    HW165412   1.395   7.183   2.795  2.4526 -1.2628 -0.1153
20638SOL    HW265413   1.390   7.110   2.927 -1.5861 -1.1311 -0.0727
20639SOL     OW65414  10.064   7.376   4.207 -0.0814  0.2333 -0.1223
20639SOL    HW165415  10.032   7.286   4.197  1.8243 -0.6015  0.7913
20639SOL    HW265416  10.117   7.374   4.286  2.2450  1.4597 -1.5199
20640SOL     OW65417   6.386   9.430   1.378 -0.2216 -0.0696 -0.2185
20640SOL    HW165418   6.384   9.394   1.290 -1.0122 -1.6099  0.3850
20640SOL    HW265419   6.423   9.518   1.368  1.5320 -0.9321 -1.7948
20641SOL     OW65420  10.050   5.262   1.636  0.1261  0.1488 -0.7253
20641SOL    HW165421  10.046   5.357   1.646  1.2787  0.3194 -1.6653
20641SOL    HW265422  10.088   5.249   1.549 -1.3479 -1.1885 -1.2267
20642SOL     OW65423   9.052   4.916   6.154 -0.0500  0.4883 -0.0589
20642SOL    HW165424   9.037   4.957   6.069 -0.5185 -0.7836 -0.6082
20642SOL    HW265425   8.979   4.947   6.208 -1.1556 -0.6275 -0.8629
20643SOL     OW65426   7.283   3.672   0.329 -0.4651  0.1567  0.0370
20643SOL    HW165427   7.276   3.624   0.412  1.2001 -1.5316 -0.7259
20643SOL    HW265428   7.234   3.619   0.266 -1.0057  0.9834 -0.2530
20644SOL     OW65429   6.258   2.673   1.760 -0.1875  0.7410  0.7675
20644SOL    HW165430   6.337   2.717   1.729 -1.1351  1.8790 -0.1182
20644SOL    HW265431   6.269   2.666   1.854  0.6598  1.5155  0.7277
20645SOL     OW65432  10.895   9.950   8.131  0.6200 -0.5420 -0.2399
20645SOL    HW165433  10.984   9.914   8.124 -0.0190 -3.2525  2.8925
20645SOL    HW265434  10.844   9.880   8.172 -2.0646  2.1846  1.5364
20646SOL     OW65435   8.226   5.892   6.963 -0.0858  0.1269 -0.0735
20646SOL    HW165436   8.189   5.977   6.986 -0.0391 -0.2549  1.5394
20646SOL    HW265437   8.321   5.907   6.960  0.0114 -0.1108  1.4029
20647SOL     OW65438   9.922  10.391   0.694  0.1014  0.1856  0.6786
20647SOL    HW165439  10.013  10.417   0.708  0.2829  0.4457 -0.8110
20647SOL    HW265440   9.895  10.352   0.777  1.5451  0.1736  1.1694
20648SOL     OW65441   1.774   1.829   8.833  0.0615 -0.3565 -0.4535
20648SOL    HW165442   1.737   1.861   8.915 -0.3120 -1.9067  0.0136
20648SOL    HW265443   1.740   1.888   8.766 -0.7256  0.1159  0.3471
20649SOL     OW65444   7.856   5.648   8.804  0.2334  0.7907 -0.5082
20649SOL    HW165445   7.928   5.703   8.774 -0.8875  1.8077 -1.4294
20649SOL    HW265446   7.879   5.560   8.774  3.6675 -0.1260  3.6940
20650SOL     OW65447   2.129   1.188   3.333 -0.5404 -0.3877  1.1958
20650SOL    HW165448   2.098   1.276   3.312 -2.0181 -1.1682 -0.0568
20650SOL    HW265449   2.121   1.183   3.429 -1.4575  0.4912  1.1913
20651SOL     OW65450   6.188  10.007   6.215 -0.7352 -0.4701 -0.1628
20651SOL    HW165451   6.221   9.925   6.252 -0.0341  0.5677  1.6280
20651SOL    HW265452   6.185   9.991   6.121  1.2756 -1.8991 -0.0469
20652SOL     OW65453   3.067   0.841   4.873  0.2115 -0.5023 -0.2109
20652SOL    HW165454   2.995   0.890   4.835  0.5717  0.4887  0.3470
20652SOL    HW265455   3.106   0.794   4.800 -0.2517 -0.0961 -0.7225
20653SOL     OW65456   7.961   6.711   6.205 -0.4859 -0.5296 -0.6014
20653SOL    HW165457   7.992   6.693   6.117  0.7463  1.2123 -0.5618
20653SOL    HW265458   8.034   6.689   6.262 -1.5164 -2.3507  0.1198
20654SOL     OW65459   0.182   0.997   4.614 -0.0595 -0.8976 -0.3626
20654SOL    HW165460   0.150   0.907   4.607  1.2051 -1.3551 -0.3916
20654SOL    HW265461   0.254   1.003   4.552  1.7207 -0.7240  1.6274
20655SOL     OW65462   3.232   9.217   9.190  0.4621 -0.0000  0.2201
20655SOL    HW165463   3.253   9.285   9.254 -0.4743 -0.3277  0.9000
20655SOL    HW265464   3.317   9.182   9.163  0.8578 -0.9156  2.4711
20656SOL     OW65465   8.939   4.013   9.923 -0.2939 -0.0295  0.3056
20656SOL    HW165466   9.007   3.949   9.942 -0.2554  0.1350  0.7334
20656SOL    HW265467   8.954   4.039   9.832 -0.6936 -1.0933 -0.0842
20657SOL     OW65468   6.563   0.909   7.833 -0.1601 -0.7878  0.1890
20657SOL    HW165469   6.490   0.962   7.801  1.7195  1.0756 -1.3006
20657SOL    HW265470   6.550   0.824   7.792  0.2004  0.4791 -2.7691
20658SOL     OW65471  10.261   9.796   2.891  0.4978 -0.7129  0.6995
20658SOL    HW165472  10.171   9.816   2.864  0.9959  1.4468  0.4602
20658SOL    HW265473  10.311   9.802   2.809  0.9502 -1.3497  0.9280
20659SOL     OW65474  10.317   2.498   6.176 -0.4498 -0.2357 -0.5984
20659SOL    HW165475  10.316   2.573   6.235  0.6668 -0.5365 -0.1582
20659SOL    HW265476  10.260   2.433   6.217  0.9095 -0.7407  0.6114
20660SOL     OW65477   7.661   2.835   1.811  0.2859 -0.6930  0.1783
20660SOL    HW165478   7.568   2.814   1.817  0.0798  0.2329  0.4302
20660SOL    HW265479   7.663   2.930   1.799  1.2106 -0.6419  0.6545
20661SOL     OW65480   5.667   3.006   8.169  0.0451 -0.6911  0.0010
20661SOL    HW165481   5.740   3.010   8.107 -0.3692 -1.0018 -0.5129
20661SOL    HW265482   5.667   2.916   8.201  0.7714 -0.3222  1.0943
20662SOL     OW65483   1.570   9.025   8.300 -0.0339  0.4864  0.4524
20662SOL    HW165484   1.639   9.077   8.259 -0.2261  0.0024 -0.5160
20662SOL    HW265485   1.531   8.976   8.228 -0.7122 -0.0215  1.1478
20663SOL     OW65486   4.031   6.925   7.849  0.1585 -0.1218  0.2840
20663SOL    HW165487   3.969   6.996   7.832  0.2868 -0.0262  0.2162
20663SOL    HW265488   4.047   6.929   7.943  0.5457  0.2507  0.2027
20664SOL     OW65489   8.760   8.819   6.247  0.3656 -0.8114 -0.2581
20664SOL    HW165490   8.788   8.856   6.331 -0.2559  0.6647 -0.6802
20664SOL    HW265491   8.826   8.752   6.228  1.3770 -0.1173  0.6757
20665SOL     OW65492   0.723   8.998   4.872  0.5262  0.2000  0.0337
20665SOL    HW165493   0.761   9.037   4.793 -1.5166  0.4782 -0.8726
20665SOL    HW265494   0.709   9.072   4.931 -0.1449  0.3378 -0.2974
20666SOL     OW65495   0.969   2.684   1.273  0.8457 -0.2850 -0.2196
20666SOL    HW165496   1.037   2.749   1.293 -0.4159  1.0467 -0.1100
20666SOL    HW265497   0.912   2.728   1.210 -0.2399 -1.1736  0.1181
20667SOL     OW65498   3.958   2.760   1.085 -0.4673 -0.1959  0.2241
20667SOL    HW165499   3.927   2.769   0.994  0.6833  1.3612 -0.0636
20667SOL    HW265500   4.040   2.712   1.078 -1.5530 -2.2516  0.7481
20668SOL     OW65501   3.064   6.722   4.623  0.4362  0.5965  0.5598
20668SOL    HW165502   3.047   6.751   4.713  3.1359 -1.1566  1.7678
20668SOL    HW265503   3.029   6.633   4.621  0.8172  0.4593  0.0255
20669SOL     OW65504   0.514   5.967   2.238  0.5089 -0.5443  0.0430
20669SOL    HW165505   0.447   5.911   2.276 -0.0410  0.7743  1.1234
20669SOL    HW265506   0.571   5.908   2.190 -1.0364 -1.7864 -0.3260
20670SOL     OW65507   2.688   3.561   7.110 -0.4370 -0.0967 -1.0389
20670SOL    HW165508   2.753   3.631   7.108  0.0268 -0.4190  0.7088
20670SOL    HW265509   2.623   3.591   7.173 -1.7372 -0.0212 -2.3746
20671SOL     OW65510   3.766   1.080   7.212 -0.6787 -0.7575  0.1059
20671SOL    HW165511   3.828   1.051   7.279 -0.5918  0.7988  0.7268
20671SOL    HW265512   3.681   1.052   7.244 -0.4770 -1.4107  0.0833
20672SOL     OW65513   8.329   4.208   9.839  0.0087  0.3233 -0.2183
20672SOL    HW165514   8.418   4.240   9.824  0.1855 -0.5873 -1.2007
20672SOL    HW265515   8.335   4.114   9.827 -0.8992  0.1260  0.7036
20673SOL     OW65516   5.510   9.214   4.267 -0.3039  0.1967 -0.2775
20673SOL    HW165517   5.442   9.168   4.218  0.5640  0.9208 -2.2464
20673SOL    HW265518   5.468   9.235   4.351 -1.9147 -0.9085 -0.7567
20674SOL     OW65519   8.530   4.785  10.509  0.3205  0.0800 -0.3130
20674SOL    HW165520   8.537   4.732  10.588 -1.9739 -0.4915 -0.4518
20674SOL    HW265521   8.593   4.746  10.448  0.6266 -0.7589  0.5246
20675SOL     OW65522   0.675   3.657  10.158  0.2387  0.1529 -0.5152
20675SOL    HW165523   0.751   3.667  10.100 -0.3835  0.0943 -1.3742
20675SOL    HW265524   0.712   3.633  10.243  1.1484 -0.4621 -1.0638
20676SOL     OW65525   6.946   6.537  10.735  0.2408 -0.2441 -0.0519
20676SOL    HW165526   6.917   6.604  10.796  2.1852  1.1865 -0.6266
20676SOL    HW265527   6.903   6.559  10.652 -1.3627 -1.4284  0.4112
20677SOL     OW65528   0.411  10.561   7.438 -0.1215 -0.2340  0.2282
20677SOL    HW165529   0.490  10.534   7.484  0.4165  1.9326  0.6588
20677SOL    HW265530   0.428  10.541   7.346  1.3807  1.1725  0.1749
20678SOL     OW65531   6.574  10.641   7.626 -0.7646 -0.0415  0.8584
20678SOL    HW165532   6.525  10.718   7.598 -1.1155 -0.2117  1.0038
20678SOL    HW265533   6.625  10.670   7.701 -0.3867  0.2233  0.5048
20679SOL     OW65534   5.645   8.597   5.768  0.1013  0.0663 -0.1058
20679SOL    HW165535   5.643   8.593   5.864 -1.2939 -0.9424 -0.1547
20679SOL    HW265536   5.589   8.525   5.740 -0.5513  1.1439 -1.6787
20680SOL     OW65537   9.585   9.366   7.678  0.0184 -0.5299  0.1146
20680SOL    HW165538   9.490   9.355   7.685  0.1879 -1.2169  1.9612
20680SOL    HW265539   9.621   9.299   7.736  1.6001  0.4551  0.3346
20681SOL     OW65540   7.956   9.261   5.830  0.3077  0.4143  0.7790
20681SOL    HW165541   7.876   9.220   5.864  0.9665 -1.6153  0.0417
20681SOL    HW265542   8.025   9.229   5.888  1.0024 -0.5499 -0.5431
20682SOL     OW65543   8.245   0.391   2.095 -0.8079 -0.5199  0.1512
20682SOL    HW165544   8.310   0.407   2.164  0.4372  0.1057 -1.1100
20682SOL    HW265545   8.162   0.420   2.133  0.0665  1.1353  0.9140
20683SOL     OW65546   4.604   8.798   0.807  0.2644 -0.0662  0.0849
20683SOL    HW165547   4.653   8.842   0.737 -1.2786  0.4641 -0.7119
20683SOL    HW265548   4.532   8.753   0.761  1.7585 -3.5390  0.8350
20684SOL     OW65549   9.333   5.405   8.331  0.1903 -0.3671 -0.0581
20684SOL    HW165550   9.423   5.437   8.337  0.2980 -0.6344 -0.2310
20684SOL    HW265551   9.284   5.478   8.292  0.5277 -0.5967 -0.9208
20685SOL     OW65552   3.520   9.538   8.445 -0.0041 -0.1956 -0.1117
20685SOL    HW165553   3.614   9.524   8.459  0.8104  2.4629 -2.0590
20685SOL    HW265554   3.505   9.510   8.355 -0.7690  0.6053 -0.2433
20686SOL     OW65555   9.906   9.334   7.480  0.4805 -0.1243  0.4465
20686SOL    HW165556   9.875   9.262   7.535  1.3867 -1.6266 -0.9461
20686SOL    HW265557  10.001   9.322   7.476  0.6548  1.1933  0.2108
20687SOL     OW65558   5.153   4.680   9.132 -0.1440  0.3625 -0.0452
20687SOL    HW165559   5.218   4.629   9.084  1.6378  0.3877  2.1430
20687SOL    HW265560   5.085   4.616   9.154  1.4771 -0.9121  1.6398
20688SOL     OW65561   3.755   3.936   7.386  0.3726  0.2592  0.5089
20688SOL    HW165562   3.692   3.905   7.451  0.0708  0.7933  0.4831
20688SOL    HW265563   3.710   4.009   7.343  0.6131 -0.0223 -0.2250
20689SOL     OW65564   4.106   1.802   2.272  0.2301  0.2061 -0.5646
20689SOL    HW165565   4.027   1.794   2.325  0.0594  1.5220 -0.5820
20689SOL    HW265566   4.086   1.755   2.191  0.2776 -1.3194  0.2818
20690SOL     OW65567   9.874   3.273   5.567  0.0931 -0.1345 -0.1136
20690SOL    HW165568   9.917   3.306   5.646  1.1110 -1.2953 -0.1587
20690SOL    HW265569   9.780   3.274   5.589  0.3795 -0.7246  1.2256
20691SOL     OW65570   0.798   4.615   9.836  0.6493  0.5260  0.0747
20691SOL    HW165571   0.737   4.625   9.763  0.7700  0.4158 -0.0427
20691SOL    HW265572   0.743   4.591   9.910  0.6250 -0.2930 -0.2003
20692SOL     OW65573   2.805   6.517   2.250  0.1521 -0.1784  0.2768
20692SOL    HW165574   2.734   6.581   2.241  0.1898  0.1905  2.2853
20692SOL    HW265575   2.882   6.562   2.216 -0.1166  0.2911  0.2750
20693SOL     OW65576   9.495   2.662   3.172 -0.5667 -0.1484 -0.5692
20693SOL    HW165577   9.526   2.618   3.251 -0.9094 -0.2693 -0.5010
20693SOL    HW265578   9.525   2.606   3.100  1.0520  0.7166 -0.6310
20694SOL     OW65579   6.960   8.523   8.075 -0.7759  0.1659  0.4463
20694SOL    HW165580   6.973   8.429   8.087 -1.1114 -0.2793 -2.1190
20694SOL    HW265581   7.037   8.552   8.026 -1.4268  0.8956 -0.1617
20695SOL     OW65582   4.758   3.556   1.170 -0.3691  0.4627  0.2456
20695SOL    HW165583   4.681   3.542   1.225  0.3423  1.4825  1.5671
20695SOL    HW265584   4.725   3.600   1.092 -1.2964 -0.2989  0.1955
20696SOL     OW65585   1.986   4.969   9.598  1.0057  0.3062 -0.2058
20696SOL    HW165586   1.979   4.905   9.527 -0.1372  0.6251 -0.3908
20696SOL    HW265587   1.912   4.949   9.656  0.8450  1.2262 -0.0784
20697SOL     OW65588   5.309  10.287   7.856  0.2123 -0.1177  0.2674
20697SOL    HW165589   5.226  10.303   7.811  0.5226  0.1188 -0.2233
20697SOL    HW265590   5.354  10.371   7.855  1.3007 -0.6613 -1.2054
20698SOL     OW65591  10.371   2.047   1.934 -0.1236 -0.4261  0.0687
20698SOL    HW165592  10.414   1.973   1.978 -1.0291 -0.6218  0.6343
20698SOL    HW265593  10.355   2.015   1.845 -0.2723 -0.8170  0.2329
20699SOL     OW65594   5.351   1.248  10.214  0.1199 -0.1025  0.7383
20699SOL    HW165595   5.416   1.272  10.280  1.1184 -1.4792  0.2992
20699SOL    HW265596   5.375   1.300  10.137 -0.0391  0.2794  0.9442
20700SOL     OW65597  10.740   6.469   8.213 -0.1371  0.0597  0.3431
20700SOL    HW165598  10.760   6.552   8.256  0.3318  0.1681 -0.0727
20700SOL    HW265599  10.650   6.449   8.239 -0.3506  0.8387  0.2161
20701SOL     OW65600   9.875  10.550   3.796 -0.6067  0.0402  0.1750
20701SOL    HW165601   9.879  10.640   3.764  2.0263 -0.1130 -0.1126
20701SOL    HW265602   9.920  10.552   3.880  0.0454 -1.0943 -0.1268
20702SOL     OW65603   9.192   6.984   7.900 -0.1483  0.5329  0.0859
20702SOL    HW165604   9.127   7.019   7.838  0.5845 -0.0130 -1.0236
20702SOL    HW265605   9.232   6.910   7.854  0.7241  0.3794  1.0534
20703SOL     OW65606   6.378  10.484   0.878  0.2454  0.2394  0.7068
20703SOL    HW165607   6.427  10.451   0.802  0.4699 -2.2364  1.8357
20703SOL    HW265608   6.290  10.450   0.866  0.3028 -0.2423  1.5569
20704SOL     OW65609   4.225   3.167   1.022  0.2258 -0.9778  0.1105
20704SOL    HW165610   4.144   3.211   0.998 -0.0818 -1.2059  0.6945
20704SOL    HW265611   4.238   3.101   0.954 -0.1386 -1.0115  0.0715
20705SOL     OW65612   7.190  10.389   0.298 -0.8217  0.1155 -0.2242
20705SOL    HW165613   7.241  10.456   0.252 -0.7513  0.4306  0.2990
20705SOL    HW265614   7.256  10.332   0.338 -0.8057 -1.7578 -2.6589
20706SOL     OW65615   2.550   0.820   4.064 -0.2842 -0.2193  0.1068
20706SOL    HW165616   2.568   0.863   4.147  0.4099  1.5761 -0.9173
20706SOL    HW265617   2.631   0.775   4.042 -0.7835 -1.5507  0.8295
20707SOL     OW65618   3.462  10.624   0.906 -0.2436 -0.7756  0.2408
20707SOL    HW165619   3.397  10.679   0.950  0.5881  1.0159 -0.6651
20707SOL    HW265620   3.411  10.552   0.870 -1.3982 -0.5694  1.4015
20708SOL     OW65621   2.556   1.985  10.273 -0.2357 -0.3086  0.5845
20708SOL    HW165622   2.480   2.008  10.327  0.2998  1.1011  0.7640
20708SOL    HW265623   2.596   2.068  10.251  0.1145 -0.9127 -1.2211
20709SOL     OW65624   9.870  10.066  10.292  0.4440  0.1781  0.1415
20709SOL    HW165625   9.947  10.108  10.330 -0.0999 -0.3390  1.8998
20709SOL    HW265626   9.798  10.127  10.309  0.4455  0.7357 -1.6354
20710SOL     OW65627   9.428   7.622   3.165  0.7623  0.3058 -0.2303
20710SOL    HW165628   9.449   7.553   3.228  2.2592 -1.1769 -2.2260
20710SOL    HW265629   9.473   7.699   3.199  0.2953 -0.0403  1.2631
20711SOL     OW65630   0.670   8.058   8.347 -0.1122  0.7478  0.1437
20711SOL    HW165631   0.636   8.013   8.424 -0.9820 -1.3578 -1.3633
20711SOL    HW265632   0.597   8.111   8.316  0.3926  1.9797  1.0009
20712SOL     OW65633   6.701   6.789   3.900 -0.1990  0.4317 -0.0291
20712SOL    HW165634   6.662   6.869   3.936  1.4254  1.2066  0.1130
20712SOL    HW265635   6.648   6.718   3.936 -0.9135  1.3830  0.8599
20713SOL     OW65636   0.665   5.722   7.645  0.5785 -0.0697 -0.0920
20713SOL    HW165637   0.720   5.652   7.612  0.7547 -0.8066  1.6623
20713SOL    HW265638   0.623   5.759   7.567  3.7999  0.8098 -1.5972
20714SOL     OW65639   3.726   2.725   9.448 -0.1559  0.2674  0.0243
20714SOL    HW165640   3.743   2.696   9.358  1.1148 -1.7580  0.8515
20714SOL    HW265641   3.632   2.740   9.450 -0.1778  0.6208 -1.7166
20715SOL     OW65642   3.837   1.507   9.133 -0.2385 -0.1956  0.1835
20715SOL    HW165643   3.805   1.471   9.051  0.4129  0.5845 -0.4348
20715SOL    HW265644   3.931   1.519   9.119  0.4425 -2.6080  2.0057
20716SOL     OW65645   2.673   5.358  10.364 -0.2250  0.2232  0.3481
20716SOL    HW165646   2.655   5.326  10.276 -3.4678 -2.1129  1.6630
20716SOL    HW265647   2.589   5.393  10.395  0.8107  0.9860  2.5084
20717SOL     OW65648   3.328   9.891   4.731 -1.1671 -0.1781 -0.3141
20717SOL    HW165649   3.318   9.798   4.750 -0.7983 -0.3110 -0.7585
20717SOL    HW265650   3.249   9.931   4.767 -1.6999 -0.7694 -0.8042
20718SOL     OW65651   9.229   7.158   7.161 -0.0285  0.1825 -0.0481
20718SOL    HW165652   9.267   7.185   7.077  2.6777 -1.7764  0.4051
20718SOL    HW265653   9.154   7.103   7.137 -1.0173  1.8831 -1.0481
20719SOL     OW65654   1.747   7.358   5.118  0.3627  0.4912 -0.2477
20719SOL    HW165655   1.835   7.382   5.087  0.3292  1.8974  0.6767
20719SOL    HW265656   1.714   7.437   5.159 -0.2637 -0.8078  1.8595
20720SOL     OW65657   4.161   8.766   9.854 -0.1185  0.4395 -0.3061
20720SOL    HW165658   4.115   8.737   9.775 -1.7118 -0.0789  0.7458
20720SOL    HW265659   4.095   8.758   9.924  0.7328  2.4409  0.8033
20721SOL     OW65660   3.251  10.212   9.948 -0.4334  0.1981 -0.1140
20721SOL    HW165661   3.229  10.135   9.895 -0.3244  0.9813 -1.3444
20721SOL    HW265662   3.342  10.198   9.974  0.2395  0.7527 -1.9522
20722SOL     OW65663   5.829   8.780   6.469 -0.4575  0.1002  0.3833
20722SOL    HW165664   5.847   8.719   6.397 -0.2688  0.7819 -0.1549
20722SOL    HW265665   5.753   8.741   6.514 -0.9019 -0.0728 -0.4898
20723SOL     OW65666   9.037   7.881   8.610  0.2458 -0.0997 -0.4916
20723SOL    HW165667   8.955   7.844   8.576 -0.6824  2.3403 -1.1150
20723SOL    HW265668   9.054   7.832   8.691 -2.1819 -0.2294  0.0073
20724SOL     OW65669   5.055   3.488   6.246  0.4027 -0.5027 -0.2129
20724SOL    HW165670   5.118   3.500   6.176  1.8892 -1.5838  0.8684
20724SOL    HW265671   4.985   3.435   6.207  0.2667  0.4971 -1.3582
20725SOL     OW65672   7.905   3.130   3.498  0.2021 -0.0555 -0.1854
20725SOL    HW165673   7.958   3.083   3.563  2.3535  1.9956 -0.3381
20725SOL    HW265674   7.896   3.218   3.534  0.0789  0.6723 -1.9328
20726SOL     OW65675  10.562  10.745   4.008 -0.1603  0.4293  0.5381
20726SOL    HW165676  10.588  10.723   3.918  0.7981  0.9522  0.6618
20726SOL    HW265677  10.479  10.792   3.998 -0.4945 -0.2600  0.0032
20727SOL     OW65678   6.324   0.456  10.467 -0.0294  0.3740  0.0277
20727SOL    HW165679   6.400   0.460  10.525 -0.0072  4.0060 -0.0281
20727SOL    HW265680   6.260   0.403  10.515  1.6156 -0.6816  1.1727
20728SOL     OW65681   4.759   8.428   9.810  0.0812 -0.1001  0.3803
20728SOL    HW165682   4.696   8.472   9.867  0.0797  0.6555 -0.1911
20728SOL    HW265683   4.841   8.428   9.860  0.1538  0.8133  0.2896
20729SOL     OW65684   4.241   4.837   6.657  0.3703 -0.1184 -0.4238
20729SOL    HW165685   4.214   4.926   6.682  0.2214 -0.1026 -0.6367
20729SOL    HW265686   4.179   4.812   6.588 -1.3389 -1.4505  1.5127
20730SOL     OW65687   1.209   8.710   0.696 -0.2260 -0.3404 -0.3483
20730SOL    HW165688   1.149   8.758   0.640 -2.5973 -1.7002  0.8542
20730SOL    HW265689   1.169   8.713   0.783  1.0973 -1.8863  0.3786
20731SOL     OW65690   9.767   8.595   8.876  0.5331 -0.3660 -0.3600
20731SOL    HW165691   9.709   8.537   8.826 -0.3857  2.1007 -2.3651
20731SOL    HW265692   9.855   8.565   8.854  0.1257  0.0317 -2.7784
20732SOL     OW65693   2.418  10.648   1.455 -0.1404  0.7326 -0.2294
20732SOL    HW165694   2.336  10.609   1.424 -0.7307  1.4875  0.3446
20732SOL    HW265695   2.391  10.728   1.499  0.6142 -0.2892  2.3184
20733SOL     OW65696   0.039  10.941  10.512 -0.1015  0.5018  0.5758
20733SOL    HW165697  -0.017  10.877  10.467 -0.3863  1.2714 -0.1909
20733SOL    HW265698  -0.023  10.992  10.565  0.1777 -0.1165  1.5243
20734SOL     OW65699   3.065   8.134   8.927  0.0150 -0.3888  0.3661
20734SOL    HW165700   3.024   8.072   8.868 -0.7384  0.2732  0.1800
20734SOL    HW265701   3.159   8.121   8.915 -0.1331 -0.3703 -0.8592
20735SOL     OW65702  10.414   9.259   2.916 -0.2909  0.3412  0.3192
20735SOL    HW165703  10.326   9.283   2.944 -0.2444  0.8200  0.0588
20735SOL    HW265704  10.424   9.300   2.830  0.1034  0.0966  0.2452
20736SOL     OW65705   6.702   2.625   2.272  1.0502 -0.5417 -0.1276
20736SOL    HW165706   6.726   2.558   2.337  3.3850 -0.5411 -0.9045
20736SOL    HW265707   6.696   2.706   2.322 -1.1121 -1.1396  0.7044
20737SOL     OW65708   2.077   2.243   8.886 -0.6876  0.1148  0.1929
20737SOL    HW165709   2.160   2.290   8.876 -1.4261  1.4124 -0.0575
20737SOL    HW265710   2.016   2.290   8.829 -1.2202 -1.7910 -0.8993
20738SOL     OW65711   6.369   3.291   6.924  0.3369 -0.3031 -0.1614
20738SOL    HW165712   6.276   3.296   6.902  0.0564  0.5062  1.0989
20738SOL    HW265713   6.415   3.303   6.841 -0.6747  1.1637 -0.5275
20739SOL     OW65714   2.057   8.395   9.942 -0.5104 -0.0889  0.2917
20739SOL    HW165715   2.076   8.453  10.016 -0.8078 -0.4559  0.6596
20739SOL    HW265716   2.138   8.393   9.892 -0.8146  1.5152 -0.3351
20740SOL     OW65717   7.086   6.839   8.512  0.2015 -0.2453  0.2203
20740SOL    HW165718   7.176   6.836   8.541  0.5428  1.6865 -0.4978
20740SOL    HW265719   7.092   6.847   8.416 -0.5771  2.3967  0.2997
20741SOL     OW65720   8.141   0.743   3.554 -0.1261 -0.0830  0.9765
20741SOL    HW165721   8.104   0.761   3.467  0.8243 -0.3152  0.5169
20741SOL    HW265722   8.093   0.802   3.612 -0.9059 -0.0539  0.3271
20742SOL     OW65723   8.658  10.953   9.558 -0.1384  0.1363 -0.4161
20742SOL    HW165724   8.624  10.965   9.469  1.8740  0.4025 -1.1969
20742SOL    HW265725   8.651  11.040   9.598 -0.9827  0.0322 -0.3104
20743SOL     OW65726   2.291   9.521   3.159 -0.1555  0.3007  0.2627
20743SOL    HW165727   2.304   9.519   3.064  0.0541  0.1460  0.2931
20743SOL    HW265728   2.265   9.431   3.181  1.6641 -0.1804  0.6052
20744SOL     OW65729   8.807   5.097   9.644 -0.2256 -0.8245  0.3418
20744SOL    HW165730   8.895   5.058   9.649 -0.2046 -0.9044 -0.5347
20744SOL    HW265731   8.822   5.184   9.609 -0.6010 -1.2767 -1.0141
20745SOL     OW65732   4.728   9.952   2.107 -0.4828 -0.4303 -0.2128
20745SOL    HW165733   4.824   9.950   2.108 -0.4065  0.9795  1.4116
20745SOL    HW265734   4.702   9.881   2.166 -0.4171 -0.5812 -0.3660
20746SOL     OW65735   4.322   6.190  10.538  0.4605 -0.3668 -0.1946
20746SOL    HW165736   4.291   6.206  10.449 -0.5697  2.3545  0.5630
20746SOL    HW265737   4.310   6.096  10.550 -1.3623 -0.4858 -2.2190
20747SOL     OW65738   0.273   6.687   9.587  0.2732 -0.0111  0.1094
20747SOL    HW165739   0.210   6.635   9.636 -0.7047  0.2709 -0.8052
20747SOL    HW265740   0.315   6.625   9.528  1.6713 -0.4108  1.4583
20748SOL     OW65741   6.767   7.170   7.207  0.3908 -0.1434 -0.5217
20748SOL    HW165742   6.723   7.250   7.177 -0.1582 -0.2496 -0.0055
20748SOL    HW265743   6.802   7.131   7.126  2.8539  1.8745 -0.5380
20749SOL     OW65744   7.365  10.919   8.449 -0.5045  0.0098  0.0106
20749SOL    HW165745   7.437  10.860   8.429  0.2833  0.4460  1.4073
20749SOL    HW265746   7.329  10.886   8.531 -1.2725  0.3559 -0.1794
20750SOL     OW65747   6.145   8.123   8.835  0.2330 -0.4180  0.3039
20750SOL    HW165748   6.192   8.206   8.833  2.3308 -1.5524 -1.5603
20750SOL    HW265749   6.078   8.135   8.902  1.4644  2.2220  1.1841
20751SOL     OW65750   2.094   8.876   3.179 -0.1266 -0.4803  0.3885
20751SOL    HW165751   2.162   8.835   3.231 -0.4437 -0.3130  0.9428
20751SOL    HW265752   2.100   8.969   3.199  1.1512 -0.1028 -1.5181
20752SOL     OW65753  10.327   4.152   6.299 -0.4353  0.3353  0.0745
20752SOL    HW165754  10.302   4.182   6.386 -2.1313  0.1654 -0.3338
20752SOL    HW265755  10.350   4.232   6.251  0.2510  0.4501  0.5851
20753SOL     OW65756   2.050  10.135   5.298 -0.0558 -0.3582 -0.1467
20753SOL    HW165757   2.004  10.108   5.218 -1.2668  1.7539 -0.2419
20753SOL    HW265758   2.035  10.230   5.302  3.5195  0.2949  0.3705
20754SOL     OW65759  10.231   4.172   9.449 -0.0997  0.8666  0.0034
20754SOL    HW165760  10.267   4.246   9.497  0.4522  0.6971 -0.1366
20754SOL    HW265761  10.162   4.137   9.506  1.5434 -0.2652  1.4113
20755SOL     OW65762   7.819   3.209   5.902  0.2124  0.2414  0.1741
20755SOL    HW165763   7.907   3.173   5.912  1.7736  2.6689 -2.9570
20755SOL    HW265764   7.805   3.260   5.982  1.3311 -0.7650  1.0457
20756SOL     OW65765   9.350  10.795   1.950  0.1675  0.0810 -0.4127
20756SOL    HW165766   9.380  10.829   2.034  0.2304  1.2818 -0.9051
20756SOL    HW265767   9.366  10.866   1.888  2.7644 -1.7106 -2.0063
20757SOL     OW65768   1.648   7.591   5.217  0.0422 -0.2159 -0.1186
20757SOL    HW165769   1.613   7.641   5.143 -2.1855 -0.9525  0.3567
20757SOL    HW265770   1.573   7.580   5.275  1.8874  1.0227  2.6795
20758SOL     OW65771  10.634   7.459   7.728 -0.2633 -0.2121 -0.3711
20758SOL    HW165772  10.686   7.445   7.649 -0.7695 -0.8594 -0.5976
20758SOL    HW265773  10.585   7.539   7.710  0.7879  0.5223 -0.0713
20759SOL     OW65774   6.298   5.203   9.650  0.2172 -0.4468 -0.0087
20759SOL    HW165775   6.289   5.275   9.713 -2.9483  0.0766 -0.8770
20759SOL    HW265776   6.302   5.124   9.704 -0.7992  0.0935  0.8826
20760SOL     OW65777  10.701   1.408   3.753  0.1359 -0.7272 -0.6160
20760SOL    HW165778  10.654   1.481   3.713  2.5318  1.2292 -0.0541
20760SOL    HW265779  10.755   1.373   3.682  0.0323 -1.0615 -0.5316
20761SOL     OW65780   0.393   2.846   2.286 -0.9646  0.1138 -0.6495
20761SOL    HW165781   0.368   2.900   2.361 -1.9601  3.2825 -3.0401
20761SOL    HW265782   0.488   2.847   2.285 -0.9458  2.3731 -0.8844
20762SOL     OW65783   1.240   8.899   6.810  0.2174 -0.0078  0.3228
20762SOL    HW165784   1.327   8.881   6.844  0.9485  1.9835 -0.3157
20762SOL    HW265785   1.251   8.977   6.755 -1.8812  0.0444 -0.1337
20763SOL     OW65786  10.509   4.881   1.879 -0.2431  0.0210  0.5343
20763SOL    HW165787  10.485   4.799   1.837  0.5945  0.0912 -0.1089
20763SOL    HW265788  10.582   4.858   1.937 -0.3145  0.2241  0.7069
20764SOL     OW65789   6.533   2.089   5.597  0.0833 -0.1001  0.4392
20764SOL    HW165790   6.527   2.177   5.632 -0.5330 -0.4964  1.3684
20764SOL    HW265791   6.587   2.042   5.660 -0.7343 -0.7265  0.6984
20765SOL     OW65792  10.735   7.328   2.892  0.4829  0.2589  0.2220
20765SOL    HW165793  10.657   7.378   2.868  0.3044  0.4874  1.2360
20765SOL    HW265794  10.744   7.263   2.823  0.6968  1.6505 -1.1106
20766SOL     OW65795   4.873   5.812   6.559 -0.2211  0.3077  0.4950
20766SOL    HW165796   4.915   5.811   6.473  0.9653  0.2873  1.0620
20766SOL    HW265797   4.781   5.831   6.540  0.0753  0.5884 -0.7530
20767SOL     OW65798   1.505   2.734   0.538 -0.0030  0.1225  0.5492
20767SOL    HW165799   1.594   2.724   0.570 -0.2144 -0.5672  0.9425
20767SOL    HW265800   1.465   2.798   0.598  0.4209  0.9500 -0.0418
20768SOL     OW65801   1.262   1.431  10.848 -0.1960 -0.0704  0.1117
20768SOL    HW165802   1.224   1.518  10.835 -3.4141 -1.3530  0.1133
20768SOL    HW265803   1.297   1.433  10.937  2.7162  2.1007 -0.9057
20769SOL     OW65804   0.432   5.160   5.186 -0.1659  0.4138  0.2746
20769SOL    HW165805   0.410   5.138   5.096  0.7374  0.7073 -0.0331
20769SOL    HW265806   0.409   5.252   5.195  1.8796  1.0494 -0.4029
20770SOL     OW65807   5.107  10.502   5.693 -0.0489  0.7193  0.3042
20770SOL    HW165808   5.111  10.426   5.751 -0.8596 -0.2410 -0.8333
20770SOL    HW265809   5.136  10.469   5.608  0.1926  1.8454 -0.0679
20771SOL     OW65810   5.847   8.049   7.681 -0.0081  0.1530  0.8266
20771SOL    HW165811   5.792   8.080   7.609  0.5950  1.4508  0.9037
20771SOL    HW265812   5.895   8.126   7.711  1.6860 -0.8774  0.9298
20772SOL     OW65813   1.812   2.738   7.797 -0.0327  0.3651  0.0713
20772SOL    HW165814   1.872   2.785   7.739  0.7920 -3.3393 -2.4454
20772SOL    HW265815   1.729   2.785   7.789  0.6497  1.2896 -2.4740
20773SOL     OW65816   1.693   7.566   0.454  0.3347  0.3091  0.1154
20773SOL    HW165817   1.757   7.501   0.427 -0.7115 -0.8455  0.3288
20773SOL    HW265818   1.670   7.543   0.544 -0.1237  0.9114  0.1672
20774SOL     OW65819  10.721   3.757   2.513  0.3996  0.1250  0.0132
20774SOL    HW165820  10.636   3.729   2.482  0.9289 -1.3954 -0.1620
20774SOL    HW265821  10.766   3.790   2.435 -0.4438  2.1457  0.3272
20775SOL     OW65822   6.745   8.564  10.501  0.3210 -0.0583  0.0722
20775SOL    HW165823   6.824   8.552  10.449  0.2116  0.3154 -0.1804
20775SOL    HW265824   6.734   8.659  10.508  0.5156 -0.0948  1.0591
20776SOL     OW65825   0.535   5.977   4.635  0.2951  0.1189  0.4026
20776SOL    HW165826   0.583   6.052   4.601  1.5324 -0.5459  0.6325
20776SOL    HW265827   0.472   6.015   4.697  1.1716  0.9358  0.8132
20777SOL     OW65828   7.225   2.326   2.433 -0.4445 -0.2886  0.5782
20777SOL    HW165829   7.243   2.308   2.341 -1.0053 -0.1682  0.4444
20777SOL    HW265830   7.301   2.291   2.479  0.2078  0.3388  0.0103
20778SOL     OW65831   6.850  10.488   5.163  0.4987 -0.5632 -0.6786
20778SOL    HW165832   6.847  10.562   5.102 -0.0425 -0.4603 -0.5344
20778SOL    HW265833   6.759  10.473   5.186  0.7741  0.3875  1.2807
20779SOL     OW65834   7.610   4.163   6.724 -0.7326 -0.5832 -0.4757
20779SOL    HW165835   7.546   4.203   6.783 -0.5501 -0.0398 -0.6432
20779SOL    HW265836   7.635   4.233   6.665 -0.3894 -0.9422 -0.7588
20780SOL     OW65837   4.501   0.313   5.158  0.1375  0.3717 -0.1061
20780SOL    HW165838   4.447   0.316   5.079 -1.7467 -2.3294  0.9113
20780SOL    HW265839   4.444   0.350   5.226  0.4414 -0.3457  0.5542
20781SOL     OW65840   4.395   1.622   4.635  0.7279  0.2821  0.5879
20781SOL    HW165841   4.457   1.686   4.670 -0.1900  1.3493  0.3303
20781SOL    HW265842   4.321   1.675   4.604  0.3596 -0.8323 -0.5178
20782SOL     OW65843   8.138  10.478   3.895  0.0005  0.0444 -0.2573
20782SOL    HW165844   8.227  10.473   3.860 -0.2133 -0.8795 -0.7172
20782SOL    HW265845   8.125  10.570   3.916  1.3584  0.0645  0.6183
20783SOL     OW65846   1.712   4.154   0.261 -0.5303 -0.6879 -0.2434
20783SOL    HW165847   1.752   4.138   0.346 -0.2318  0.2409 -0.1992
20783SOL    HW265848   1.634   4.100   0.261 -0.6022 -0.6036  0.6706
20784SOL     OW65849   4.753   7.430   8.767  0.7943  0.1824 -0.5201
20784SOL    HW165850   4.737   7.415   8.674  0.2945 -0.3798 -0.3476
20784SOL    HW265851   4.754   7.343   8.806  1.1643  0.4033 -0.0201
20785SOL     OW65852   4.879   2.987   9.911  0.3734  0.1889 -0.3486
20785SOL    HW165853   4.930   2.952   9.984 -0.9927  0.0311  0.5705
20785SOL    HW265854   4.933   2.970   9.834  2.1792  0.9980  0.6750
20786SOL     OW65855   4.163   9.339   3.195  0.2087 -0.3691  0.2984
20786SOL    HW165856   4.242   9.297   3.162  0.8557 -1.3548  2.9060
20786SOL    HW265857   4.185   9.432   3.200  0.0353 -0.1506 -1.9948
20787SOL     OW65858  10.007  10.220   0.962  0.4489  0.1867  0.3058
20787SOL    HW165859   9.927  10.208   1.013  1.0528 -0.7210  1.0449
20787SOL    HW265860   9.995  10.164   0.885  0.5652 -0.2808  0.6309
20788SOL     OW65861   4.212   3.959   6.385  0.4986  0.2238 -0.1856
20788SOL    HW165862   4.149   3.974   6.315 -0.0832 -3.4637 -0.6574
20788SOL    HW265863   4.172   3.892   6.440  2.1956  0.9135  2.0380
20789SOL     OW65864   1.119   9.106   3.675 -0.0297 -0.5372 -0.0439
20789SOL    HW165865   1.030   9.137   3.691 -0.1412 -0.4279 -0.8629
20789SOL    HW265866   1.127   9.027   3.729 -0.4403 -0.2528  0.4405
20790SOL     OW65867   0.931   3.913  10.465  0.6077 -0.6823 -0.1439
20790SOL    HW165868   0.841   3.940  10.450  0.4004 -1.1448  0.2554
20790SOL    HW265869   0.978   3.995  10.481  0.3973 -0.3797 -1.0457
20791SOL     OW65870   7.597   7.144   1.147  0.2026  0.0006 -0.0501
20791SOL    HW165871   7.665   7.119   1.210  1.4880  0.7459 -1.1124
20791SOL    HW265872   7.540   7.067   1.143 -0.2308  0.0984  2.3797
20792SOL     OW65873   3.516   3.642   1.963  0.2678 -0.0677  0.6727
20792SOL    HW165874   3.558   3.696   2.030 -2.5247 -0.3217  2.8009
20792SOL    HW265875   3.499   3.559   2.007 -0.5790 -0.6747 -0.7453
20793SOL     OW65876   3.336   1.523   8.829 -0.5831 -0.2960  0.1001
20793SOL    HW165877   3.404   1.551   8.768 -0.3995 -0.5199  0.2015
20793SOL    HW265878   3.379   1.520   8.914 -1.3497  2.1982  0.6797
20794SOL     OW65879  10.343   7.175   8.651 -0.3967  0.1481 -0.2992
20794SOL    HW165880  10.437   7.176   8.669 -0.1526 -0.2292 -1.4717
20794SOL    HW265881  10.306   7.239   8.712  0.6122  0.2587  0.2119
20795SOL     OW65882   0.482   4.137   8.614  0.3486 -0.3939  0.8269
20795SOL    HW165883   0.462   4.044   8.617  2.3986 -0.9793 -0.8039
20795SOL    HW265884   0.558   4.143   8.555 -0.4927  2.4316 -0.1423
20796SOL     OW65885   7.495  10.983   6.403 -0.0595  0.0795  0.2190
20796SOL    HW165886   7.503  11.069   6.363  2.5072  1.3204  3.0335
20796SOL    HW265887   7.527  10.923   6.335 -0.0463  1.5323 -1.1246
20797SOL     OW65888   9.135   7.813   7.129 -0.2536 -1.1829 -0.4799
20797SOL    HW165889   9.164   7.731   7.168 -0.1239 -0.5282  0.8538
20797SOL    HW265890   9.042   7.798   7.108 -0.2043 -1.6979 -0.3434
20798SOL     OW65891   8.586   9.244   7.655 -0.2076  0.6135 -0.0631
20798SOL    HW165892   8.661   9.303   7.660 -0.5440  1.0496 -0.1101
20798SOL    HW265893   8.530   9.271   7.728  0.7170 -1.1744  1.3939
20799SOL     OW65894   5.738   5.641   6.610 -0.7587  0.0027  0.5315
20799SOL    HW165895   5.716   5.639   6.704  0.2307  0.8576  0.7934
20799SOL    HW265896   5.722   5.731   6.583 -1.0194 -0.2348 -0.1239
20800SOL     OW65897   5.094   7.527   8.940  0.1189 -0.0421 -0.1410
20800SOL    HW165898   5.158   7.456   8.933  0.7031  0.3756  0.8208
20800SOL    HW265899   5.146   7.606   8.952 -0.5225  0.5853 -1.2639
20801SOL     OW65900   0.098   3.028  10.023  0.0110 -0.8558  0.0774
20801SOL    HW165901   0.121   3.106   9.972  0.5221 -0.9451  0.1620
20801SOL    HW265902   0.161   2.962   9.993 -1.7541 -1.8929 -1.5859
20802SOL     OW65903   4.470   0.164   7.445 -0.5837  0.0148  0.5776
20802SOL    HW165904   4.383   0.202   7.441 -0.7159 -0.3168  0.2328
20802SOL    HW265905   4.509   0.201   7.524 -0.8897  0.4717  0.5164
20803SOL     OW65906   3.503   5.831   2.417 -0.5647  0.0463 -0.2435
20803SOL    HW165907   3.530   5.914   2.378  1.4013 -0.4586 -0.0775
20803SOL    HW265908   3.572   5.770   2.392 -2.9034 -2.0686 -1.9914
20804SOL     OW65909   2.994   4.160   6.480 -0.0831  0.2033  0.3285
20804SOL    HW165910   2.934   4.193   6.547 -0.7614  0.4356 -0.3753
20804SOL    HW265911   2.950   4.180   6.397  2.3091  3.2803 -0.4245
20805SOL     OW65912   5.075   6.315   2.061 -0.0620  0.2172 -0.2796
20805SOL    HW165913   5.130   6.321   1.983  0.0109 -0.4617 -0.2856
20805SOL    HW265914   4.985   6.321   2.027 -0.0716 -1.1405 -0.5482
20806SOL     OW65915   8.913   9.687   4.623  0.2444 -0.3425 -0.6687
20806SOL    HW165916   9.003   9.669   4.651  0.7897 -0.2990 -2.2620
20806SOL    HW265917   8.885   9.761   4.677  0.6009 -1.3049  0.8934
20807SOL     OW65918   0.207   4.089   4.231 -0.8988 -0.5903 -0.1941
20807SOL    HW165919   0.282   4.143   4.258 -1.8972  0.9247 -0.3096
20807SOL    HW265920   0.240   3.999   4.234  0.5558 -0.0680  0.9756
20808SOL     OW65921   3.353   7.521   1.334 -0.2552 -0.1071  0.3414
20808SOL    HW165922   3.289   7.478   1.391  0.0571  0.7367  1.3669
20808SOL    HW265923   3.306   7.596   1.298 -0.1401 -0.0412  0.3274
20809SOL     OW65924   0.286   6.293   8.619  0.0290  0.0070 -0.4799
20809SOL    HW165925   0.307   6.207   8.582  1.1084 -0.7174  1.6360
20809SOL    HW265926   0.360   6.348   8.593 -0.2831  0.1084 -1.1816
20810SOL     OW65927   2.282   3.150   5.928  0.1842 -0.2199 -0.0389
20810SOL    HW165928   2.333   3.231   5.931 -0.9332  0.4866  2.3767
20810SOL    HW265929   2.320   3.095   5.997 -0.8509 -0.6064  0.2408
20811SOL     OW65930   2.736  10.999   1.414 -0.5279  0.0502  0.6524
20811SOL    HW165931   2.787  10.939   1.361 -1.9116 -1.3191  0.7984
20811SOL    HW265932   2.797  11.031   1.481  1.0304  1.1929 -1.2049
20812SOL     OW65933   2.539   9.918   8.434  0.1845 -0.1565  0.3241
20812SOL    HW165934   2.575   9.894   8.349  0.0718 -0.0168  0.2374
20812SOL    HW265935   2.460   9.863   8.442  0.3068 -0.3184  0.4282
20813SOL     OW65936   1.252   3.578   0.826  0.2117  0.0024 -0.4524
20813SOL    HW165937   1.264   3.592   0.920  3.2909 -1.1597 -0.5471
20813SOL    HW265938   1.161   3.551   0.817 -0.1372  0.0256  2.2028
20814SOL     OW65939   2.604   7.677   9.983  0.0389 -0.7252  0.1762
20814SOL    HW165940   2.593   7.715   9.896  0.2979 -1.5770 -0.2446
20814SOL    HW265941   2.550   7.731  10.040  0.4147  0.2727 -0.3884
20815SOL     OW65942   9.091   7.549   3.363 -0.1963  0.5662  0.5673
20815SOL    HW165943   9.085   7.624   3.422  0.4449  0.9774  0.1214
20815SOL    HW265944   9.069   7.474   3.417  1.5083  0.7897  1.6408
20816SOL     OW65945   9.114   8.357   1.086  0.5140 -0.7457 -0.1614
20816SOL    HW165946   9.097   8.354   1.181  0.6527  0.3341 -0.0953
20816SOL    HW265947   9.135   8.266   1.063 -0.0709 -1.1295  0.7354
20817SOL     OW65948   0.014   4.634   3.593  0.5638 -0.5976  0.0435
20817SOL    HW165949   0.058   4.573   3.653  0.8112  1.6349  2.2914
20817SOL    HW265950  -0.074   4.644   3.629 -0.6045 -1.9923 -2.1772
20818SOL     OW65951   9.834   7.524   1.227 -0.2046 -0.2104 -0.4122
20818SOL    HW165952   9.852   7.553   1.137 -0.0844  2.9682  0.5243
20818SOL    HW265953   9.899   7.568   1.280 -1.4757 -0.4774  1.4676
20819SOL     OW65954   3.440   3.222   5.294 -0.0818 -0.2909 -0.3073
20819SOL    HW165955   3.492   3.207   5.215 -1.0806 -0.3359 -0.9769
20819SOL    HW265956   3.353   3.244   5.262 -0.4079  0.1016  0.7844
20820SOL     OW65957   6.362   3.623   7.315 -0.4918 -0.3970  0.0674
20820SOL    HW165958   6.345   3.591   7.226 -0.7398  1.8037 -0.7398
20820SOL    HW265959   6.275   3.645   7.349 -0.4799 -1.8827  1.1882
20821SOL     OW65960   6.065   1.417   7.344  0.3663 -0.6890 -0.0075
20821SOL    HW165961   6.077   1.389   7.435  1.6150 -1.3723 -0.3428
20821SOL    HW265962   6.057   1.512   7.348 -0.2910 -0.7787  0.8730
20822SOL     OW65963   4.004  10.906   4.923  0.7420 -0.8340  0.1573
20822SOL    HW165964   4.067  10.834   4.923  0.2090 -1.3100 -0.1330
20822SOL    HW265965   3.950  10.891   5.001  1.5912  0.1217  0.9454
20823SOL     OW65966   8.558   3.517   3.966  0.0100 -0.0731 -0.2040
20823SOL    HW165967   8.620   3.489   4.033 -0.6536  0.1257  0.5072
20823SOL    HW265968   8.583   3.467   3.888  0.1202 -1.1184  0.4864
20824SOL     OW65969   3.384   7.815   0.900 -0.0769  0.2683  0.5325
20824SOL    HW165970   3.408   7.765   0.978 -0.8903  1.2564  1.4573
20824SOL    HW265971   3.293   7.791   0.882 -0.0204  0.3429  0.1303
20825SOL     OW65972   1.378   6.670   8.823  0.1555  0.3324 -0.5293
20825SOL    HW165973   1.297   6.665   8.874  0.3704 -0.7726 -0.2759
20825SOL    HW265974   1.401   6.763   8.825 -0.6753  0.5435  0.0699
20826SOL     OW65975   0.656   8.286  10.187  0.7705  0.1733 -0.2510
20826SOL    HW165976   0.656   8.300  10.282  1.9519  0.2556 -0.2403
20826SOL    HW265977   0.620   8.368  10.151  0.1540  0.0746  0.1220
20827SOL     OW65978   4.204   0.961   3.480 -0.0116 -0.3076  0.4972
20827SOL    HW165979   4.253   1.021   3.537  0.2709 -0.3662  0.3139
20827SOL    HW265980   4.239   0.976   3.393 -1.5005  0.8957  0.0653
20828SOL     OW65981   7.090   2.488  10.550 -0.1107  0.2106 -0.5026
20828SOL    HW165982   7.120   2.399  10.571  0.9496  0.8360  0.7222
20828SOL    HW265983   7.160   2.525  10.496 -0.4101  0.4214 -0.7531
20829SOL     OW65984   4.812   8.543   1.592  0.0368 -0.0086 -0.2055
20829SOL    HW165985   4.800   8.535   1.687 -0.7790  0.6346 -0.2392
20829SOL    HW265986   4.724   8.555   1.558  0.5027  2.3318 -0.7665
20830SOL     OW65987   5.876   3.237  10.839  0.0554 -0.1718  0.2191
20830SOL    HW165988   5.893   3.185  10.918  0.9141 -1.4019 -0.7299
20830SOL    HW265989   5.964   3.255  10.804 -0.2785  1.1408  0.0204
20831SOL     OW65990   2.216   7.927   8.063  0.3582 -0.2366  0.1929
20831SOL    HW165991   2.125   7.899   8.068  0.1321  0.6705  1.5292
20831SOL    HW265992   2.266   7.846   8.074 -0.2887 -0.4751  1.5808
20832SOL     OW65993   0.765   5.506  10.239 -0.5393 -0.8007  0.4405
20832SOL    HW165994   0.831   5.551  10.291 -1.0522  0.5711 -0.0566
20832SOL    HW265995   0.685   5.511  10.292 -0.7279 -0.6543  0.1441
20833SOL     OW65996   0.187   6.643   3.874 -0.1565  0.2672 -0.5380
20833SOL    HW165997   0.236   6.722   3.897  1.2995 -0.7998  0.2086
20833SOL    HW265998   0.127   6.630   3.948  0.5108 -0.0226 -0.0394
20834SOL     OW65999   1.127   3.636   1.664 -0.8479 -0.0307  0.4537
20834SOL    HW166000   1.097   3.607   1.578 -0.4071 -0.3701  0.4095
20834SOL    HW266001   1.099   3.566   1.724  1.2376 -1.1701  0.1793
20835SOL     OW66002   6.918   3.788   8.994  0.0984  0.1528  0.4335
20835SOL    HW166003   6.884   3.748   8.914 -0.2100  1.3973 -0.0914
20835SOL    HW266004   6.924   3.716   9.057  0.0265 -0.7817 -0.6061
20836SOL     OW66005   4.131   4.997   2.171 -0.4136 -0.2968 -0.2130
20836SOL    HW166006   4.047   5.014   2.129 -0.0503  0.1874 -0.7522
20836SOL    HW266007   4.148   4.904   2.153 -1.8984 -1.0532  1.8536
20837SOL     OW66008   6.913   9.830   9.526 -0.0731  0.7001 -0.4403
20837SOL    HW166009   6.920   9.793   9.614 -1.7272 -1.4548 -1.1342
20837SOL    HW266010   6.997   9.874   9.512  1.0557 -0.7090  1.4113
20838SOL     OW66011  10.090   1.529   6.725  0.4711  0.7104  0.0361
20838SOL    HW166012  10.150   1.460   6.755 -1.4146 -0.6576  0.9275
20838SOL    HW266013  10.134   1.568   6.650  1.3218 -2.0483 -1.0586
20839SOL     OW66014   5.462   4.121   8.731 -0.0739 -0.4316  0.3397
20839SOL    HW166015   5.542   4.170   8.711 -1.3645  2.1050  1.1063
20839SOL    HW266016   5.491   4.029   8.733  2.7774  0.3770  0.5327
20840SOL     OW66017   9.505   5.720   0.925 -0.5070 -0.1662  0.3999
20840SOL    HW166018   9.529   5.642   0.874  1.1158  0.6968 -0.2351
20840SOL    HW266019   9.524   5.696   1.016 -3.2212 -1.6427  0.6964
20841SOL     OW66020  10.814   6.053   1.953  0.3624  0.1065  0.5226
20841SOL    HW166021  10.862   6.090   2.027 -1.3272  0.9462  1.2253
20841SOL    HW266022  10.740   6.007   1.992 -0.8640  1.0272 -0.6470
20842SOL     OW66023   6.264   5.517   5.902  0.0620  0.1960  0.2794
20842SOL    HW166024   6.239   5.587   5.963  2.6312  1.4125  0.0615
20842SOL    HW266025   6.290   5.562   5.822  2.6024 -0.8506  0.4101
20843SOL     OW66026   8.275   3.618   8.645 -0.2873  0.1927 -0.3703
20843SOL    HW166027   8.266   3.527   8.616 -1.2338  0.6336 -1.5342
20843SOL    HW266028   8.190   3.638   8.686  0.3737  0.1691  1.0860
20844SOL     OW66029   1.958   7.779   0.810  0.4125  0.4514 -0.6577
20844SOL    HW166030   1.882   7.806   0.860  1.0078  0.1806  0.4298
20844SOL    HW266031   1.940   7.688   0.785 -0.0200  0.6860 -1.2109
20845SOL     OW66032   3.851   5.796  10.305  0.5267 -0.2050  0.1033
20845SOL    HW166033   3.909   5.793  10.229  0.5124 -0.3779  0.0989
20845SOL    HW266034   3.763   5.790  10.269  0.4933  0.2694  0.0951
20846SOL     OW66035   4.872   9.941  10.322  0.2225 -0.5593  0.4623
20846SOL    HW166036   4.881   9.959  10.229 -1.9094 -1.7233 -0.0495
20846SOL    HW266037   4.801   9.999  10.351  1.1552  0.1163  1.4945
20847SOL     OW66038   8.749   6.843   3.744 -0.4341  0.5187  0.3068
20847SOL    HW166039   8.828   6.862   3.795 -0.5819 -1.3267  1.3042
20847SOL    HW266040   8.677   6.861   3.804 -0.8024  1.9391 -0.5161
20848SOL     OW66041   3.323   4.349   1.921  0.1929 -0.1415  0.1730
20848SOL    HW166042   3.293   4.355   2.012  1.4570 -0.8995  0.6766
20848SOL    HW266043   3.419   4.351   1.928  0.3072 -0.5303 -1.1218
20849SOL     OW66044   8.734   9.882   5.005 -0.2167  0.0821 -0.1473
20849SOL    HW166045   8.823   9.907   5.029 -0.3555  1.0135 -0.5663
20849SOL    HW266046   8.728   9.903   4.912 -0.7115 -0.4691 -0.2466
20850SOL     OW66047   9.919   9.854   5.659 -0.1722 -0.3885  0.1817
20850SOL    HW166048   9.876   9.866   5.574 -0.6805 -2.1248  0.1357
20850SOL    HW266049  10.005   9.819   5.638  0.1964  0.4061  0.3541
20851SOL     OW66050  10.560   2.824   3.603 -0.4598 -0.1694  0.0996
20851SOL    HW166051  10.619   2.862   3.669 -0.2330 -0.4672  0.0718
20851SOL    HW266052  10.474   2.823   3.645 -0.5788  0.8881 -0.1004
20852SOL     OW66053   2.918   4.979   5.865  0.3233 -0.1362 -0.4077
20852SOL    HW166054   2.865   5.028   5.928  0.0467  0.5150 -1.1294
20852SOL    HW266055   2.975   5.045   5.825 -1.7819  0.1534 -3.2071
20853SOL     OW66056   7.292   0.683   4.183 -0.2938  0.5677  0.4500
20853SOL    HW166057   7.375   0.684   4.135  0.8182  2.0473  2.2732
20853SOL    HW266058   7.228   0.715   4.120  1.3141  3.6166  0.1732
20854SOL     OW66059   6.842   8.484   0.167  0.6367  0.6085 -0.0594
20854SOL    HW166060   6.937   8.477   0.160  0.6221 -0.6276  0.5183
20854SOL    HW266061   6.818   8.412   0.227 -0.7649  0.1848 -1.0791
20855SOL     OW66062   8.743  10.147   4.227  0.4005 -0.4453  0.1804
20855SOL    HW166063   8.799  10.071   4.241 -0.6810 -1.3429 -0.2420
20855SOL    HW266064   8.734  10.153   4.131 -2.6690 -2.2314  0.2163
20856SOL     OW66065   4.483   1.145   4.626  0.4361  0.8361  0.4824
20856SOL    HW166066   4.576   1.149   4.650  0.2620  0.0898  1.2912
20856SOL    HW266067   4.436   1.170   4.706 -0.1337 -1.1937  0.8373
20857SOL     OW66068   9.462   3.571   8.455  0.9013  0.0884 -0.0544
20857SOL    HW166069   9.494   3.558   8.545 -0.3536  0.4370  0.4693
20857SOL    HW266070   9.433   3.484   8.427  0.5037  0.1363  0.2038
20858SOL     OW66071   8.550   9.044   5.796  0.1352  0.7167 -0.3938
20858SOL    HW166072   8.629   9.025   5.746  0.9146 -0.8550  1.3009
20858SOL    HW266073   8.578   9.040   5.887 -1.6967  1.1505  0.2322
20859SOL     OW66074   0.339   0.607   5.845  0.1036 -0.1667  0.3711
20859SOL    HW166075   0.384   0.675   5.896  1.2050 -0.9417  0.4769
20859SOL    HW266076   0.250   0.639   5.835  0.9935  2.1181 -1.0308
20860SOL     OW66077  10.684   2.404   6.821  0.2062  0.3513  0.1398
20860SOL    HW166078  10.633   2.469   6.774 -0.0736  1.7572  2.2323
20860SOL    HW266079  10.707   2.338   6.755  0.1467  2.3353 -1.9843
20861SOL     OW66080   5.182  10.807   4.329 -0.3490 -0.2187 -0.2995
20861SOL    HW166081   5.232  10.740   4.377 -2.1816 -0.5442  1.2550
20861SOL    HW266082   5.246  10.878   4.315  1.2645 -1.7022 -0.7962
20862SOL     OW66083   0.300   0.209  10.687 -0.1105 -0.3211  0.0898
20862SOL    HW166084   0.263   0.162  10.762  1.3818 -1.5038  0.1395
20862SOL    HW266085   0.313   0.141  10.620 -2.0782  0.8248 -1.5500
20863SOL     OW66086   9.464  10.729   2.506  0.8048 -0.0153 -0.1915
20863SOL    HW166087   9.427  10.672   2.438 -1.1813  1.7183 -0.6774
20863SOL    HW266088   9.501  10.669   2.570  0.2396 -1.7962 -1.4540
20864SOL     OW66089   5.862   4.777   1.984  0.0561  0.6895  0.6344
20864SOL    HW166090   5.863   4.845   2.052  1.0099  2.7104 -1.2753
20864SOL    HW266091   5.944   4.790   1.936  1.0683 -2.9205  1.1146
20865SOL     OW66092   5.707   2.497   7.048 -0.0641  0.1144 -0.4727
20865SOL    HW166093   5.693   2.567   7.113 -0.1881  0.6728 -1.0899
20865SOL    HW266094   5.620   2.460   7.034  0.2747 -1.5377  1.3321
20866SOL     OW66095   4.852   3.833   2.006  0.0023 -0.3091 -0.6196
20866SOL    HW166096   4.918   3.831   2.075  0.2086  0.1205 -0.8060
20866SOL    HW266097   4.877   3.906   1.950  0.0681 -0.8928 -1.3793
20867SOL     OW66098   9.725   1.456   2.203  0.3058  0.2263  0.6550
20867SOL    HW166099   9.745   1.461   2.110  1.2693  0.8744  0.8757
20867SOL    HW266100   9.706   1.364   2.219 -1.2664  0.3162 -0.4368
20868SOL     OW66101   9.956  10.953   4.580  0.1448  0.1397  0.7209
20868SOL    HW166102   9.961  11.048   4.581 -0.1310  0.2422 -1.7080
20868SOL    HW266103   9.969  10.927   4.671 -1.4888  2.5615  1.7570
20869SOL     OW66104   4.605   0.701   3.450 -0.5195 -0.7017 -0.3912
20869SOL    HW166105   4.674   0.689   3.386 -0.7769 -0.8643 -0.6435
20869SOL    HW266106   4.577   0.611   3.472 -0.0749 -0.6664  0.3394
20870SOL     OW66107   6.091   6.046   8.271  0.6016 -0.2374  0.0503
20870SOL    HW166108   6.110   6.019   8.181  0.5607 -2.3474  0.6102
20870SOL    HW266109   6.151   6.118   8.288 -0.7352  1.5806 -2.2723
20871SOL     OW66110   7.364   0.956   2.348  0.2095 -0.6096 -0.1843
20871SOL    HW166111   7.372   0.867   2.313  1.2829  0.1034 -1.8520
20871SOL    HW266112   7.272   0.964   2.373 -0.2138 -1.7224 -1.3235
20872SOL     OW66113  10.803   7.710  10.842 -0.2594 -0.3308  0.0088
20872SOL    HW166114  10.788   7.707  10.748  0.0004  3.4755 -0.3270
20872SOL    HW266115  10.719   7.685  10.880 -0.9899  0.0069 -1.3137
20873SOL     OW66116  10.603   9.151   7.701 -0.4704 -0.1287 -0.0353
20873SOL    HW166117  10.619   9.242   7.677  1.0502 -0.1009  0.9602
20873SOL    HW266118  10.577   9.155   7.793  4.0183 -0.9439  1.4738
20874SOL     OW66119   5.730   4.494   5.584  0.0826  0.3830  0.3685
20874SOL    HW166120   5.773   4.460   5.663 -1.3315  0.8227  1.3726
20874SOL    HW266121   5.793   4.479   5.514  1.0709 -0.7383  1.4454
20875SOL     OW66122   8.362   9.808   9.862  0.0775  0.2443  0.6201
20875SOL    HW166123   8.333   9.823   9.772 -2.1323 -2.8137  0.6543
20875SOL    HW266124   8.456   9.793   9.853 -0.3937 -2.2505 -1.6677
20876SOL     OW66125   4.130  10.783   8.739 -0.3891  0.0854 -0.3872
20876SOL    HW166126   4.218  10.773   8.701  0.3802 -0.3603  1.4004
20876SOL    HW266127   4.125  10.715   8.806 -1.8168  0.6026  0.0669
20877SOL     OW66128   3.767   6.055   4.305  0.5953 -0.2742  0.1869
20877SOL    HW166129   3.833   5.988   4.289 -0.7422 -1.4840 -0.5324
20877SOL    HW266130   3.721   6.063   4.222 -0.0074  0.7123  0.6034
20878SOL     OW66131   8.887  10.435   3.790 -0.0942  0.1966  0.3673
20878SOL    HW166132   8.865  10.402   3.703 -0.6066  2.2336 -0.3402
20878SOL    HW266133   8.976  10.468   3.782 -0.1870  0.5085  0.5573
20879SOL     OW66134   0.260   5.148   1.639 -0.5614  0.6089 -0.2179
20879SOL    HW166135   0.203   5.193   1.702 -0.0882 -0.5852  1.1043
20879SOL    HW266136   0.249   5.055   1.658 -2.2437 -0.0284 -3.5257
20880SOL     OW66137   6.233   6.637   5.951 -0.0322 -0.3842  0.2048
20880SOL    HW166138   6.229   6.553   5.998 -1.8146 -1.0767 -1.0535
20880SOL    HW266139   6.142   6.665   5.946  0.2106  0.1807 -1.8912
20881SOL     OW66140   0.135  10.033   1.010 -0.5054  0.0755  0.1616
20881SOL    HW166141   0.103  10.002   0.925 -0.3577 -1.2064  0.5584
20881SOL    HW266142   0.075   9.996   1.074  0.1839 -0.1002  0.7168
20882SOL     OW66143   2.804   9.285   7.841 -0.2806  0.2870  0.3175
20882SOL    HW166144   2.825   9.196   7.812  0.7270  0.6027  0.0413
20882SOL    HW266145   2.887   9.320   7.874 -1.2866  0.0461  3.4006
20883SOL     OW66146   3.448   9.589   3.353  1.0958 -0.1795 -0.3825
20883SOL    HW166147   3.434   9.608   3.445  0.3582 -0.2824 -0.4726
20883SOL    HW266148   3.403   9.506   3.338 -0.4289  0.7549 -1.2563
20884SOL     OW66149   2.079   2.990   0.821 -0.0223 -0.0662  0.0621
20884SOL    HW166150   2.010   3.049   0.790 -0.6959 -0.2771  1.1246
20884SOL    HW266151   2.147   2.995   0.754 -0.3906  1.3495 -0.2254
20885SOL     OW66152   6.648  10.175   1.181  0.1028 -0.0559  0.1322
20885SOL    HW166153   6.720  10.238   1.189 -1.1974  1.3355  1.6760
20885SOL    HW266154   6.575  10.227   1.148 -0.8385 -0.8841  0.8399
20886SOL     OW66155   9.327   4.252   7.660 -0.4017  0.0262 -0.1753
20886SOL    HW166156   9.290   4.173   7.622 -1.1065  0.7821 -1.1208
20886SOL    HW266157   9.346   4.229   7.751 -0.4099 -1.2720 -0.4804
20887SOL     OW66158   0.120   7.862   0.583 -0.0244 -0.0914 -0.4245
20887SOL    HW166159   0.170   7.822   0.511  0.1815  2.2621 -1.7015
20887SOL    HW266160   0.185   7.877   0.651  0.3327 -0.0091 -0.7753
20888SOL     OW66161   5.914   8.853   9.445 -0.2504  0.0907  0.0614
20888SOL    HW166162   5.833   8.814   9.479  0.1839  0.0840  1.1357
20888SOL    HW266163   5.908   8.843   9.350 -0.5021 -1.9362  0.2484
20889SOL     OW66164   5.804   9.468   6.845  0.1471 -0.0454 -0.3343
20889SOL    HW166165   5.770   9.382   6.821  1.8368 -0.8128 -0.1445
20889SOL    HW266166   5.848   9.454   6.928  1.5080  0.7095 -0.8946
20890SOL     OW66167   6.478   3.876   4.469 -0.1986 -0.1227  0.0457
20890SOL    HW166168   6.487   3.965   4.436  2.0499 -0.9365 -1.7672
20890SOL    HW266169   6.421   3.832   4.406 -1.6146  0.0724  1.1401
20891SOL     OW66170   7.214   0.096   7.714 -0.1040 -0.6721 -0.3671
20891SOL    HW166171   7.230   0.190   7.723 -0.8202 -0.6002  0.2248
20891SOL    HW266172   7.293   0.063   7.673  0.8127 -0.0482  0.8144
20892SOL     OW66173   3.885   9.576  10.614 -0.2229 -0.6751  0.1559
20892SOL    HW166174   3.974   9.568  10.581 -0.5778 -3.1463 -0.3854
20892SOL    HW266175   3.896   9.583  10.709  0.5666  0.9294 -0.0089
20893SOL     OW66176   9.141   5.689   5.176 -0.0506  0.5392  0.0860
20893SOL    HW166177   9.092   5.720   5.100  1.4125  1.2819 -0.5990
20893SOL    HW266178   9.129   5.758   5.242 -1.1360 -0.0002  0.4840
20894SOL     OW66179  10.278   4.805   9.702 -0.5372  0.3078 -0.6817
20894SOL    HW166180  10.201   4.849   9.668  0.3548  1.6642 -1.0331
20894SOL    HW266181  10.304   4.744   9.633 -1.1638 -0.0078 -0.6448
20895SOL     OW66182   0.894   1.493   5.469 -0.8085 -0.2054  0.0714
20895SOL    HW166183   0.871   1.464   5.380 -0.7431 -1.4517  0.4417
20895SOL    HW266184   0.990   1.494   5.469 -0.8136  0.4558 -0.0718
20896SOL     OW66185   3.227   6.697   2.873  0.1946  0.5473  0.0357
20896SOL    HW166186   3.210   6.790   2.861 -1.2349  0.1944 -0.9834
20896SOL    HW266187   3.198   6.678   2.962 -1.0367  0.7891 -0.2949
20897SOL     OW66188  10.098   2.768   1.282 -0.5088  0.2660  0.1657
20897SOL    HW166189  10.111   2.806   1.369 -1.6155  1.1780 -0.0324
20897SOL    HW266190  10.119   2.839   1.222  1.7424 -0.8002 -0.4133
20898SOL     OW66191   3.702   1.278   2.496 -0.4757 -0.2419 -0.0187
20898SOL    HW166192   3.633   1.323   2.545 -0.8838 -1.6892  0.7974
20898SOL    HW266193   3.777   1.337   2.502 -0.8829  0.1865  1.3126
20899SOL     OW66194  10.984   7.839   4.208  0.2198  0.2305 -0.6266
20899SOL    HW166195  11.043   7.850   4.283 -0.4910 -2.1353  0.3715
20899SOL    HW266196  10.918   7.907   4.220 -1.7350 -1.9342  2.8839
20900SOL     OW66197   7.382   9.517   8.490 -0.1903 -0.2649 -0.7117
20900SOL    HW166198   7.328   9.456   8.440 -0.6013 -0.7615  0.2969
20900SOL    HW266199   7.451   9.543   8.430  0.4941 -2.3855 -0.9261
20901SOL     OW66200   8.680   5.078   8.548  0.3025 -0.4173 -0.0047
20901SOL    HW166201   8.664   5.163   8.589  2.6961  0.3689 -0.5269
20901SOL    HW266202   8.628   5.080   8.468  0.3032  0.5572  0.0031
20902SOL     OW66203   6.085   1.593   0.642  0.1761 -0.1543  0.0094
20902SOL    HW166204   6.134   1.512   0.625  0.0625 -0.4198  0.9201
20902SOL    HW266205   6.008   1.587   0.585 -0.5551 -1.3601  1.0853
20903SOL     OW66206  10.750   7.752   9.204  0.2702 -0.2459  0.3177
20903SOL    HW166207  10.752   7.827   9.263  0.0673 -0.1492  0.2048
20903SOL    HW266208  10.764   7.676   9.260  0.6260 -0.1108  0.4097
20904SOL     OW66209   1.519   9.606   0.562 -0.5598 -0.1991 -0.4589
20904SOL    HW166210   1.557   9.680   0.517  0.1899 -0.3217 -0.0374
20904SOL    HW266211   1.578   9.588   0.635 -0.5328 -1.4283 -0.7514
20905SOL     OW66212   4.900   5.353   2.611 -0.1357 -0.3833  0.1172
20905SOL    HW166213   4.952   5.427   2.579 -1.2405  0.0796 -0.6655
20905SOL    HW266214   4.862   5.385   2.692  1.2027 -0.9192  0.9957
20906SOL     OW66215   5.800   7.779   2.734 -0.0418  0.7712  0.2985
20906SOL    HW166216   5.861   7.853   2.732  0.0721  0.6738  0.1859
20906SOL    HW266217   5.714   7.820   2.749  0.0556  0.9041  0.5089
20907SOL     OW66218   7.707   7.725   2.937 -0.3560  0.3468  0.1885
20907SOL    HW166219   7.654   7.801   2.961 -0.6923  0.1030  0.2191
20907SOL    HW266220   7.648   7.668   2.889  0.2477  0.7291 -1.0610
20908SOL     OW66221   5.640   7.563   9.349 -0.0955 -0.0317  0.1012
20908SOL    HW166222   5.729   7.533   9.363 -0.1909  0.0177  0.8532
20908SOL    HW266223   5.616   7.530   9.262  0.6704  0.0108 -0.1291
20909SOL     OW66224   4.436   5.707   9.863  1.1752 -0.7055 -0.7505
20909SOL    HW166225   4.517   5.664   9.889  2.5861  2.1690 -0.0104
20909SOL    HW266226   4.459   5.758   9.785 -0.1557 -0.5251 -1.0568
20910SOL     OW66227   1.015   5.837   5.069  0.6825  0.0179 -0.3075
20910SOL    HW166228   1.043   5.813   5.157  1.2839 -0.3021 -0.5772
20910SOL    HW266229   1.037   5.761   5.016 -0.3376 -0.0785 -0.6110
20911SOL     OW66230   4.570   7.583   6.910 -0.1754 -0.0863  0.0726
20911SOL    HW166231   4.592   7.506   6.858  1.5294  0.2851  0.1862
20911SOL    HW266232   4.576   7.554   7.000  0.2294  0.1059  0.1112
20912SOL     OW66233   9.312   0.911   0.941 -0.2326  0.3982 -0.6969
20912SOL    HW166234   9.304   0.944   0.852  0.8768 -2.2867 -1.8971
20912SOL    HW266235   9.233   0.858   0.954  0.6650 -1.0680 -0.9973
20913SOL     OW66236   9.328  10.360   8.442 -0.1327 -0.7034 -0.2676
20913SOL    HW166237   9.262  10.400   8.499 -0.2158  0.1704 -0.9541
20913SOL    HW266238   9.397  10.426   8.437 -0.7238 -0.1721 -2.2339
20914SOL     OW66239   8.413  10.643   8.789 -0.1314 -0.3091 -0.0409
20914SOL    HW166240   8.453  10.673   8.708  1.3588 -1.0437  0.3817
20914SOL    HW266241   8.467  10.682   8.858 -0.4738 -0.8710  0.5605
20915SOL     OW66242   3.133   8.494  10.216  0.2127 -0.2686 -0.0855
20915SOL    HW166243   3.069   8.555  10.254 -1.5101 -0.6822 -2.1105
20915SOL    HW266244   3.183   8.547  10.154  0.9503 -0.2462  0.5112
20916SOL     OW66245   8.472   9.992   0.686  0.2553  0.1973  0.2680
20916SOL    HW166246   8.398  10.000   0.626  1.0913 -0.7081 -0.9316
20916SOL    HW266247   8.514  10.078   0.683  0.8413 -0.1003 -1.2466
20917SOL     OW66248   2.311  10.220   2.296  0.0032 -0.2328 -0.3741
20917SOL    HW166249   2.373  10.229   2.369  0.4000 -0.6923 -0.6460
20917SOL    HW266250   2.318  10.128   2.270 -0.6096 -0.2300 -0.5771
20918SOL     OW66251   8.476   2.178   6.083 -0.0062 -0.4387  0.1264
20918SOL    HW166252   8.491   2.128   6.163 -0.7015 -0.8311  0.0180
20918SOL    HW266253   8.529   2.135   6.017 -1.6078 -1.9034 -0.2857
20919SOL     OW66254  10.124   6.971   4.428 -0.3111 -0.0779 -0.2905
20919SOL    HW166255  10.146   6.997   4.338 -0.8897  0.8066 -0.1890
20919SOL    HW266256  10.029   6.975   4.431 -0.2552  1.0772  0.6937
20920SOL     OW66257   0.928   4.553   4.557  0.5518  0.5367 -0.2264
20920SOL    HW166258   0.874   4.626   4.588 -0.2651 -0.2433  0.2207
20920SOL    HW266259   0.871   4.505   4.497  0.7927 -0.2168  0.1376
20921SOL     OW66260   5.655   5.331   2.852  0.3973  0.4064 -0.3082
20921SOL    HW166261   5.569   5.371   2.863  1.3986  2.4236  0.7109
20921SOL    HW266262   5.682   5.306   2.940  1.3134  0.8411 -0.4501
20922SOL     OW66263   4.024   7.131   9.542  0.5228 -0.3612  0.0628
20922SOL    HW166264   3.956   7.111   9.477  0.2891 -1.3947  0.5945
20922SOL    HW266265   4.062   7.213   9.513 -1.1382  0.3919 -0.1168
20923SOL     OW66266   5.819   4.413   6.746 -0.1144  0.6228  0.0025
20923SOL    HW166267   5.760   4.370   6.808  0.5211  0.8311  0.7724
20923SOL    HW266268   5.851   4.490   6.793  0.5658  0.6507 -0.4941
20924SOL     OW66269  10.596   3.794   1.018 -0.3003 -0.3972  0.4444
20924SOL    HW166270  10.566   3.878   0.983 -1.6038 -1.2679 -0.6079
20924SOL    HW266271  10.635   3.817   1.103 -1.3190  1.1739  0.5356
20925SOL     OW66272   3.279  10.090   8.438 -0.1816 -0.1591  0.0995
20925SOL    HW166273   3.277  10.091   8.534  0.3813 -0.4936  0.1182
20925SOL    HW266274   3.212  10.026   8.414 -0.7712  0.3912  0.2464
20926SOL     OW66275   2.420   0.320   6.268 -0.0879 -0.2336 -0.1406
20926SOL    HW166276   2.400   0.407   6.300  0.1518  0.1904 -1.1062
20926SOL    HW266277   2.494   0.333   6.208  0.7485 -1.2600  0.6070
20927SOL     OW66278   6.822   7.809   5.712 -0.1422 -0.6220 -0.0146
20927SOL    HW166279   6.899   7.754   5.726 -0.1724 -0.7565 -0.3641
20927SOL    HW266280   6.778   7.770   5.636  0.7545  0.8869 -1.3646
20928SOL     OW66281   7.445   9.529   4.473  0.3047  0.0333 -0.2102
20928SOL    HW166282   7.411   9.566   4.554  0.6717  1.1423 -0.5497
20928SOL    HW266283   7.367   9.514   4.419  0.1658  0.5320 -0.1522
20929SOL     OW66284  10.848   6.165   2.770 -0.2366 -0.1808 -0.1448
20929SOL    HW166285  10.846   6.119   2.854 -0.7142  1.0178  0.5206
20929SOL    HW266286  10.867   6.256   2.793 -1.7076  0.4378 -1.1873
20930SOL     OW66287   0.042   0.285   5.580  0.0890 -0.5952  0.3377
20930SOL    HW166288   0.119   0.231   5.561  1.0554 -0.3037  3.0907
20930SOL    HW266289  -0.017   0.227   5.628 -0.9412 -0.4685 -0.7120
20931SOL     OW66290   3.038   1.180   4.816 -0.0790 -0.5119  0.6699
20931SOL    HW166291   2.982   1.105   4.793  0.0886 -0.4778  0.1457
20931SOL    HW266292   3.127   1.148   4.803 -0.0092 -0.1827  0.3165
20932SOL     OW66293   4.867   3.595   5.969 -0.3789  0.0416 -0.2055
20932SOL    HW166294   4.805   3.570   5.900 -1.3300 -1.5649  1.1431
20932SOL    HW266295   4.865   3.521   6.030  1.6153  0.7236  0.7515
20933SOL     OW66296   9.893   0.673   3.462  0.6059  0.2954  0.8249
20933SOL    HW166297   9.841   0.709   3.534  1.1244 -0.7119  1.7281
20933SOL    HW266298   9.918   0.586   3.492 -1.7089 -1.4450 -1.7912
20934SOL     OW66299   0.325   5.575   0.183  0.2339  0.0834 -0.1095
20934SOL    HW166300   0.338   5.630   0.260  2.8433  0.6009 -0.8405
20934SOL    HW266301   0.364   5.491   0.208 -0.6371 -0.3603 -0.2181
20935SOL     OW66302  10.704   1.311   1.418  0.2974  0.2318  0.5351
20935SOL    HW166303  10.636   1.243   1.415  1.3695 -0.8836  0.8070
20935SOL    HW266304  10.776   1.270   1.466  0.7443  1.7844  1.2514
20936SOL     OW66305   9.559   7.017   5.473 -0.3097  0.1584 -0.0063
20936SOL    HW166306   9.610   7.090   5.507  2.0301  0.8679 -4.3251
20936SOL    HW266307   9.482   7.058   5.432  0.2895  0.1180 -1.2141
20937SOL     OW66308   6.775   8.978   5.667 -0.1816 -0.5071  0.1357
20937SOL    HW166309   6.837   9.037   5.624  1.1426 -1.2986  0.8828
20937SOL    HW266310   6.713   9.036   5.711  1.0174  0.3485  0.7695
20938SOL     OW66311   7.869   4.989   8.869  0.2687 -0.2955 -0.1938
20938SOL    HW166312   7.815   5.013   8.793  0.0566 -2.3835 -0.7558
20938SOL    HW266313   7.807   4.950   8.931  0.7242 -0.2172  0.3194
20939SOL     OW66314   1.784   4.859   6.426  0.2616  0.0091 -0.1215
20939SOL    HW166315   1.878   4.861   6.441  0.1517 -0.6308  0.7277
20939SOL    HW266316   1.745   4.867   6.513 -0.4839  0.8346 -0.5113
20940SOL     OW66317   8.644   0.261  10.527  0.4651 -0.3428  0.0520
20940SOL    HW166318   8.643   0.355  10.544 -0.8195 -0.4700  0.7986
20940SOL    HW266319   8.737   0.240  10.518  0.8736  0.7746  1.2265
20941SOL     OW66320   2.001   3.149   1.872 -0.4987 -0.2641 -0.2657
20941SOL    HW166321   1.968   3.133   1.960  0.2652 -3.6436 -0.4717
20941SOL    HW266322   2.096   3.155   1.884 -0.4748  0.5165 -0.7563
20942SOL     OW66323   7.712   5.280   5.397  0.0420 -0.2127 -0.1784
20942SOL    HW166324   7.655   5.248   5.467  0.6998 -0.3139  0.3182
20942SOL    HW266325   7.672   5.247   5.316 -0.3356 -0.6804  0.1942
20943SOL     OW66326   8.590   2.815   0.296  0.6595  0.6653  0.3064
20943SOL    HW166327   8.612   2.727   0.264  1.2760  0.3986  1.4248
20943SOL    HW266328   8.536   2.852   0.226 -0.9942 -1.1842  0.5072
20944SOL     OW66329   5.726  10.801   1.720  0.7106 -0.2470 -0.1014
20944SOL    HW166330   5.726  10.787   1.625  0.1505 -0.7675 -0.0351
20944SOL    HW266331   5.636  10.779   1.747  0.1969  2.0615  0.2476
20945SOL     OW66332   0.081   3.101   7.625  0.6021 -0.2964  0.1526
20945SOL    HW166333   0.131   3.045   7.565  0.6758 -0.7992  0.6810
20945SOL    HW266334   0.015   3.043   7.662 -1.3328  0.6552 -1.5813
20946SOL     OW66335   7.940   9.641   4.618  0.0256  0.5608  0.4987
20946SOL    HW166336   7.890   9.569   4.580  1.0073 -0.1370  0.4732
20946SOL    HW266337   8.010   9.597   4.667  1.9438  1.4925 -1.2538
20947SOL     OW66338   1.504   8.481   5.938  0.0364  0.9711  0.5768
20947SOL    HW166339   1.412   8.510   5.939 -0.0501  0.9182 -1.1584
20947SOL    HW266340   1.538   8.515   5.855  1.0598 -0.5222  0.3480
20948SOL     OW66341   8.099   9.026   3.187 -0.0811 -0.0441  0.4896
20948SOL    HW166342   8.037   9.075   3.240  0.2514  1.5853 -0.5577
20948SOL    HW266343   8.046   8.982   3.121 -0.2782 -0.1322  0.7070
20949SOL     OW66344   5.410   5.413   2.908 -0.1180  0.2265 -0.0638
20949SOL    HW166345   5.347   5.399   2.837 -0.9912  0.1565  0.7094
20949SOL    HW266346   5.357   5.414   2.988  0.7361  1.2275  0.5186
20950SOL     OW66347   8.249   9.835   3.653  0.2820  1.0506  0.0347
20950SOL    HW166348   8.323   9.786   3.616 -0.2447  1.5209 -1.7135
20950SOL    HW266349   8.200   9.770   3.703  0.4168  0.1066 -1.0199
20951SOL     OW66350   0.794   4.224   9.998  0.1047 -0.4265 -0.5166
20951SOL    HW166351   0.783   4.134  10.029 -0.5270  0.1680  1.0461
20951SOL    HW266352   0.709   4.265  10.014  0.2774  0.3713 -1.5575
20952SOL     OW66353   1.375   8.983   5.432  0.3164 -0.0667 -0.3837
20952SOL    HW166354   1.419   8.901   5.411  0.7320  0.1791 -0.4808
20952SOL    HW266355   1.439   9.032   5.484 -0.0817  0.0256  0.0290
20953SOL     OW66356   1.105   9.681   0.670 -0.0122 -0.1480 -0.2374
20953SOL    HW166357   1.041   9.617   0.701 -1.1744  1.1312  0.1365
20953SOL    HW266358   1.190   9.646   0.697 -0.5829 -1.6595 -0.3240
20954SOL     OW66359   1.899   7.542   4.321 -0.0825 -0.3921 -0.7417
20954SOL    HW166360   1.992   7.540   4.345  0.0692 -1.2568 -1.3545
20954SOL    HW266361   1.878   7.635   4.316 -0.0681 -0.1274  2.4094
20955SOL     OW66362   5.447   3.922   8.170  0.5322 -0.2202 -0.1720
20955SOL    HW166363   5.476   3.831   8.166 -1.9406 -1.0475 -1.5917
20955SOL    HW266364   5.408   3.939   8.084 -1.3051  1.3446  0.8849
20956SOL     OW66365   2.334   6.227   6.229 -0.4816 -0.0029 -0.5100
20956SOL    HW166366   2.264   6.251   6.169 -0.0911  0.3944 -0.8096
20956SOL    HW266367   2.413   6.229   6.176 -0.3630 -1.4830 -0.4372
20957SOL     OW66368   2.428   9.967   8.703  0.2796  0.2054 -0.3543
20957SOL    HW166369   2.520   9.961   8.676  0.0927  0.6886 -1.1143
20957SOL    HW266370   2.411   9.884   8.747  1.4826  0.6804  1.0772
20958SOL     OW66371   5.790   9.960   3.467  0.4270 -0.4834  0.1734
20958SOL    HW166372   5.781  10.040   3.519 -0.1557 -0.2244 -0.3187
20958SOL    HW266373   5.706   9.917   3.474  1.1763 -1.8053  1.6139
20959SOL     OW66374   4.389   2.012   0.596  0.1719  0.1679 -0.2737
20959SOL    HW166375   4.378   2.093   0.546  0.0757 -0.2457 -0.9291
20959SOL    HW266376   4.455   2.033   0.662  0.5539  0.6167 -0.7982
20960SOL     OW66377  10.844   2.009  10.330  0.2466  0.7152 -0.1734
20960SOL    HW166378  10.811   2.081  10.384  1.0921  1.7137 -0.9385
20960SOL    HW266379  10.830   1.930  10.383 -2.8663  1.0875 -0.2448
20961SOL     OW66380   0.438   3.557   3.112  0.5476 -0.5483  0.1309
20961SOL    HW166381   0.487   3.504   3.175  0.7830  0.4913  0.8511
20961SOL    HW266382   0.348   3.527   3.120  0.9259 -2.0929 -0.8009
20962SOL     OW66383   8.141   5.562   3.208  0.6436 -0.0896  0.3470
20962SOL    HW166384   8.086   5.499   3.255  0.0978 -0.3460 -0.6049
20962SOL    HW266385   8.219   5.512   3.183  0.3079 -0.3372 -0.2201
20963SOL     OW66386   9.191   9.385   3.230  0.8020  0.1436 -0.3337
20963SOL    HW166387   9.158   9.298   3.251  0.9806  0.2961  0.6583
20963SOL    HW266388   9.282   9.372   3.206  1.1250  0.1451  0.8066
20964SOL     OW66389  10.308   7.461   6.148  0.1555  0.5177  0.2252
20964SOL    HW166390  10.235   7.404   6.173 -0.6806  0.5633 -1.9245
20964SOL    HW266391  10.383   7.428   6.198 -0.9824 -0.4973  1.3263
20965SOL     OW66392  10.220   3.472   1.783 -0.1818 -0.0253  0.2146
20965SOL    HW166393  10.181   3.446   1.867 -0.8972 -2.9387 -0.8769
20965SOL    HW266394  10.309   3.498   1.804 -0.5083 -0.2197  1.9393
20966SOL     OW66395   9.606   2.720   7.404  0.2873 -0.1299 -0.3170
20966SOL    HW166396   9.525   2.683   7.370  0.5067 -0.9785  0.0457
20966SOL    HW266397   9.654   2.749   7.326 -0.5983  0.9132 -0.4967
20967SOL     OW66398  10.549   8.712   3.362 -0.2392  0.0220  0.3255
20967SOL    HW166399  10.602   8.695   3.439  0.7890  0.4206 -0.2747
20967SOL    HW266400  10.509   8.627   3.341  0.0805 -0.2618  0.8475
20968SOL     OW66401   8.756   4.042   7.588 -0.2589 -0.2349  0.4312
20968SOL    HW166402   8.846   4.030   7.619 -0.8103 -0.7446  1.9020
20968SOL    HW266403   8.765   4.053   7.493  1.3505 -0.2533  0.5508
20969SOL     OW66404   2.343  10.782   7.749 -0.1514  0.1745 -0.3700
20969SOL    HW166405   2.386  10.789   7.835  0.0615  0.4985 -0.5009
20969SOL    HW266406   2.396  10.719   7.701 -0.3565 -0.1188 -0.2128
20970SOL     OW66407   0.356   7.964   7.249  0.4340  0.1138  0.1765
20970SOL    HW166408   0.266   7.950   7.280  0.3407  0.5120  0.0984
20970SOL    HW266409   0.384   7.879   7.217  0.0514  0.0039  0.1248
20971SOL     OW66410   7.531   8.072   5.378  0.0223  0.7476  0.2844
20971SOL    HW166411   7.527   7.977   5.373  0.7777  0.6846  0.7584
20971SOL    HW266412   7.552   8.091   5.469  0.7464  1.3316  0.0023
20972SOL     OW66413   5.639   5.872   9.419  0.1124  0.3674  0.1830
20972SOL    HW166414   5.672   5.916   9.497 -0.0986 -0.1672  0.5726
20972SOL    HW266415   5.685   5.789   9.416  0.5149  0.5998 -0.5616
20973SOL     OW66416   9.878   6.048   0.634 -0.2167 -0.3020  0.4361
20973SOL    HW166417   9.925   6.107   0.693 -0.5001 -0.8960  1.2621
20973SOL    HW266418   9.929   6.051   0.553 -0.1339  0.9473  0.5103
20974SOL     OW66419   4.879   9.772   4.881 -0.0461  0.1041 -0.3532
20974SOL    HW166420   4.965   9.774   4.923 -0.7740 -1.7618  1.4003
20974SOL    HW266421   4.818   9.791   4.951 -1.2548 -2.0989 -0.7314
20975SOL     OW66422  10.516   7.469   2.830 -0.0772  0.1464  0.1039
20975SOL    HW166423  10.477   7.386   2.858 -0.0285 -0.1331 -0.6226
20975SOL    HW266424  10.493   7.531   2.899 -0.9797 -0.2396  0.1693
20976SOL     OW66425   6.148   4.886   2.612  0.0262 -0.2376  0.0434
20976SOL    HW166426   6.203   4.857   2.685  0.3636 -1.5322 -0.6972
20976SOL    HW266427   6.060   4.894   2.649  0.4856  0.7891  0.9807
20977SOL     OW66428   9.721  10.323   7.277 -0.7817 -0.6417  0.1097
20977SOL    HW166429   9.801  10.323   7.329 -0.0039  0.3927 -1.0371
20977SOL    HW266430   9.736  10.258   7.208 -0.3369  0.5439 -0.9405
20978SOL     OW66431   8.808   6.861  10.241  0.1859 -0.1696  0.2228
20978SOL    HW166432   8.829   6.941  10.191 -0.5756 -0.6858 -0.9716
20978SOL    HW266433   8.889   6.811  10.240 -0.1059 -0.6890 -1.5540
20979SOL     OW66434   3.254   3.784   5.148 -0.1663 -0.8601  0.0494
20979SOL    HW166435   3.317   3.716   5.124  0.9836  0.2580 -0.2247
20979SOL    HW266436   3.197   3.792   5.071  0.8641 -0.2333 -0.6745
20980SOL     OW66437   4.293   5.404   8.864  0.3456 -0.2807  0.0071
20980SOL    HW166438   4.288   5.464   8.939  1.4256 -1.6343  1.2177
20980SOL    HW266439   4.327   5.458   8.793  1.2096  0.5914  1.0327
20981SOL     OW66440   6.843  10.220   5.628  0.1346  0.9219  0.5124
20981SOL    HW166441   6.900  10.235   5.552  0.8743  0.5745  0.9854
20981SOL    HW266442   6.756  10.205   5.591  0.2433  1.9581 -0.2009
20982SOL     OW66443   3.362   1.788   6.107  0.5721 -0.6069  0.4793
20982SOL    HW166444   3.369   1.878   6.074  0.4332  0.1586  2.4048
20982SOL    HW266445   3.279   1.756   6.071 -1.4751  1.5152  2.9089
20983SOL     OW66446   3.529   1.655   1.999 -0.1063  0.0685 -0.1329
20983SOL    HW166447   3.448   1.681   2.045  0.0371  1.8415 -0.8036
20983SOL    HW266448   3.594   1.718   2.029  1.0943 -1.3951  0.4566
20984SOL     OW66449   5.792   2.284   0.120 -0.5693  0.2010 -0.0232
20984SOL    HW166450   5.800   2.353   0.054 -0.4196  0.2488  0.0438
20984SOL    HW266451   5.729   2.222   0.083 -1.7414  1.0534  0.5091
20985SOL     OW66452   9.492   9.106   6.709  0.3124  0.3132  1.1880
20985SOL    HW166453   9.562   9.070   6.655 -0.0938  1.4038 -0.1159
20985SOL    HW266454   9.421   9.041   6.701 -0.5588  1.4695 -1.4674
20986SOL     OW66455   1.346   6.270   5.374 -0.3070 -0.1863 -0.0997
20986SOL    HW166456   1.339   6.181   5.339 -2.8660  0.3004 -0.9554
20986SOL    HW266457   1.300   6.266   5.458  0.1767  0.1848  0.1885
20987SOL     OW66458   8.719   7.968   2.901 -0.1932  0.2844  0.1199
20987SOL    HW166459   8.806   7.980   2.939 -0.7804  1.1311  1.2613
20987SOL    HW266460   8.679   7.899   2.953 -0.6428  0.7648  0.4334
20988SOL     OW66461  10.864   1.079   1.837  0.4746 -0.7379 -0.3164
20988SOL    HW166462  10.912   1.006   1.799  0.6867  0.3892 -2.3243
20988SOL    HW266463  10.920   1.110   1.908  2.0680 -0.3735 -1.6711
20989SOL     OW66464   3.921   9.263   7.342 -0.1735 -0.5474 -0.0658
20989SOL    HW166465   3.959   9.300   7.421 -1.4856  0.2796  0.2123
20989SOL    HW266466   3.846   9.213   7.373 -2.1210  1.6745 -0.8927
20990SOL     OW66467   2.012   6.371  10.854 -0.3584 -0.3194  0.0191
20990SOL    HW166468   1.928   6.337  10.823  0.4621 -1.8269 -0.6723
20990SOL    HW266469   2.054   6.295  10.895  1.0635  0.1698 -0.4961
20991SOL     OW66470   2.385   8.968   6.046  0.9026  0.4285  0.5630
20991SOL    HW166471   2.370   9.023   5.969  0.2243  0.5061  0.7406
20991SOL    HW266472   2.470   8.927   6.030  0.5732  0.0934 -0.4409
20992SOL     OW66473  10.020   2.322   8.837 -0.2610 -0.3445  0.2923
20992SOL    HW166474  10.073   2.398   8.864 -0.1080 -0.1286 -0.5857
20992SOL    HW266475  10.066   2.247   8.873 -0.3515 -0.0335  1.0808
20993SOL     OW66476   8.204   8.786   4.541 -0.0733 -0.5477 -0.0449
20993SOL    HW166477   8.165   8.739   4.468 -1.8241  0.1278  0.3977
20993SOL    HW266478   8.130   8.804   4.600  0.6584  1.8919  0.2519
20994SOL     OW66479   9.760   0.246   5.330 -0.4643  0.2968 -0.0233
20994SOL    HW166480   9.754   0.290   5.245 -1.4896  1.1609  0.4863
20994SOL    HW266481   9.670   0.218   5.349 -0.0507 -0.9425  0.2512
20995SOL     OW66482   2.720   3.778   9.011  0.1955  0.3482  0.4541
20995SOL    HW166483   2.738   3.785   9.104 -0.9754  1.1387  0.6479
20995SOL    HW266484   2.624   3.785   9.005  0.0734 -1.5901 -0.6398
20996SOL     OW66485   9.177   0.205   5.842 -0.6752  0.0184 -0.2612
20996SOL    HW166486   9.129   0.282   5.811 -0.4502 -0.3840 -1.7052
20996SOL    HW266487   9.265   0.238   5.862 -1.1345  0.4933  1.0582
20997SOL     OW66488   1.887   0.850   2.886  0.3521  0.7995 -0.2398
20997SOL    HW166489   1.886   0.755   2.896  0.7853  0.8352  0.1469
20997SOL    HW266490   1.853   0.864   2.797 -2.3661  0.4263  0.6512
20998SOL     OW66491   1.355  10.048  10.720 -0.1133  0.0350 -0.1177
20998SOL    HW166492   1.380   9.977  10.660 -0.3121 -0.5343  0.4586
20998SOL    HW266493   1.334  10.122  10.663  0.4322 -0.2611 -0.7146
20999SOL     OW66494   1.656   9.551   3.902  0.0216 -0.0004 -0.0280
20999SOL    HW166495   1.751   9.542   3.914  0.2193  1.0389 -0.6396
20999SOL    HW266496   1.618   9.499   3.972  1.0673  1.2418  1.5437
21000SOL     OW66497   8.770   8.388   3.156 -0.2419  0.2779 -0.0204
21000SOL    HW166498   8.685   8.394   3.113 -0.0673  1.0448 -0.2776
21000SOL    HW266499   8.832   8.418   3.089  0.1505  0.4460  0.4180
21001SOL     OW66500   3.648   4.679   5.586 -0.0110 -0.1326 -0.1148
21001SOL    HW166501   3.736   4.709   5.565 -0.4422  0.8595 -0.5742
21001SOL    HW266502   3.657   4.585   5.601  1.0605 -0.1007 -0.5058
21002SOL     OW66503   4.390   8.689   1.657  0.0662 -0.4154 -0.3667
21002SOL    HW166504   4.399   8.594   1.652 -0.4371 -0.6489  1.8261
21002SOL    HW266505   4.431   8.713   1.740 -0.4092  1.1945 -0.5461
21003SOL     OW66506   3.529   9.906   9.737 -0.1966 -0.2920  0.5194
21003SOL    HW166507   3.454   9.846   9.741  1.9165 -3.3158 -0.9494
21003SOL    HW266508   3.600   9.857   9.779  1.1611  2.2215  1.3447
21004SOL     OW66509   6.576   5.465   5.976  0.1661 -0.0672  0.2063
21004SOL    HW166510   6.539   5.553   5.968  0.9210  0.2260 -0.0720
21004SOL    HW266511   6.504   5.412   6.012 -0.0856  0.7990  1.0079
21005SOL     OW66512   0.814  10.493   4.947 -0.1840 -0.0217  0.5081
21005SOL    HW166513   0.859  10.566   4.989  1.1666 -0.4249 -0.1894
21005SOL    HW266514   0.785  10.437   5.019  0.0611  0.4655  0.9888
21006SOL     OW66515  10.127   7.760   9.924 -0.0275  0.1639 -0.0818
21006SOL    HW166516  10.150   7.800  10.008  0.9345 -0.5869  0.0265
21006SOL    HW266517  10.161   7.671   9.930  0.2965  0.1832 -1.3837
21007SOL     OW66518  10.398   8.308   4.476 -0.2726  0.7905  0.1577
21007SOL    HW166519  10.365   8.229   4.518  0.8196 -0.3739 -1.0666
21007SOL    HW266520  10.474   8.333   4.529 -0.8055  1.2177  0.7302
21008SOL     OW66521  10.062   2.945   2.753 -0.3075 -0.7278 -0.1891
21008SOL    HW166522  10.157   2.936   2.743 -0.2351  1.0059 -1.7124
21008SOL    HW266523  10.044   2.918   2.843  2.0397  1.5507  1.1087
21009SOL     OW66524   3.172  10.405   6.327  0.7719 -0.2797  0.1906
21009SOL    HW166525   3.223  10.338   6.281  0.2225 -0.3303 -0.3608
21009SOL    HW266526   3.189  10.486   6.278  1.2767 -0.0468  0.7354
21010SOL     OW66527   2.502   9.207   2.219  0.0518 -0.2419 -0.0891
21010SOL    HW166528   2.587   9.167   2.240 -0.2374 -0.6899  0.2278
21010SOL    HW266529   2.513   9.241   2.131  0.9127  0.6410  0.3378
21011SOL     OW66530   0.895   9.488   5.760 -0.1730 -0.4368  0.1883
21011SOL    HW166531   0.893   9.396   5.787  1.9244 -0.2714  1.1216
21011SOL    HW266532   0.923   9.486   5.669  1.2535 -0.7172  0.6058
21012SOL     OW66533  10.229   8.331   1.283  0.7458  0.2812  0.3002
21012SOL    HW166534  10.245   8.237   1.296  2.3019  0.5716  0.6778
21012SOL    HW266535  10.210   8.363   1.371  0.5767  0.3764  0.2270
21013SOL     OW66536   4.395   7.722   5.082 -0.2337 -0.5679 -0.1414
21013SOL    HW166537   4.465   7.733   5.017  0.0244 -1.2216  0.0185
21013SOL    HW266538   4.439   7.732   5.166 -0.2579 -1.3190 -0.0301
21014SOL     OW66539   0.059   8.884   6.155  0.8541  0.9683  0.0904
21014SOL    HW166540   0.033   8.817   6.218  2.8768 -1.2785 -1.2957
21014SOL    HW266541   0.008   8.866   6.076  3.9433 -1.4966 -1.5650
21015SOL     OW66542   8.495  10.739   9.755  0.7177 -0.2926  0.0982
21015SOL    HW166543   8.542  10.817   9.783 -1.0881  0.2765  1.8332
21015SOL    HW266544   8.550  10.666   9.784  0.7818  0.3432  1.7136
21016SOL     OW66545  10.747   4.188   9.531 -0.5526  0.9470 -0.2688
21016SOL    HW166546  10.804   4.245   9.479  0.3367  0.0670 -0.2691
21016SOL    HW266547  10.753   4.222   9.620 -0.5099  1.2299 -0.3790
21017SOL     OW66548   3.714   3.644   2.717 -0.2827  0.2502 -0.0682
21017SOL    HW166549   3.782   3.679   2.774  0.1823  0.4800 -0.7401
21017SOL    HW266550   3.678   3.720   2.672 -1.5851  0.2332  0.8909
21018SOL     OW66551   2.420  10.309   0.300  0.3165 -0.3116  0.4658
21018SOL    HW166552   2.487  10.270   0.244  0.1837 -1.7057  1.2347
21018SOL    HW266553   2.406  10.245   0.370 -1.7517 -0.0366  0.3911
21019SOL     OW66554   8.037   8.473   3.157  0.2512  0.5779  0.2240
21019SOL    HW166555   8.080   8.442   3.237  0.1552 -0.7703 -0.2287
21019SOL    HW266556   7.946   8.487   3.183  0.3034  0.5290  0.4368
21020SOL     OW66557   8.592   0.268   7.115 -0.1161 -0.0469  0.2538
21020SOL    HW166558   8.615   0.180   7.085 -0.0811 -0.1140  0.4763
21020SOL    HW266559   8.637   0.277   7.200 -0.6675 -0.0678  0.5500
21021SOL     OW66560  10.034   8.345  10.232 -0.3609  0.0113 -0.4881
21021SOL    HW166561  10.068   8.369  10.318 -0.8426 -1.0046 -0.0048
21021SOL    HW266562   9.939   8.343  10.244 -0.4309 -0.1036 -1.0538
21022SOL     OW66563  10.559   8.010   2.751 -0.3126  0.4983 -0.3126
21022SOL    HW166564  10.484   8.013   2.809 -0.3944  1.4442 -0.4582
21022SOL    HW266565  10.614   8.083   2.778 -0.4794  1.1321 -1.5770
21023SOL     OW66566   4.974   3.131   9.314 -0.4604  0.3623 -0.0966
21023SOL    HW166567   5.021   3.204   9.274  1.0292 -0.2069  0.5801
21023SOL    HW266568   5.013   3.053   9.274 -1.0642 -0.1157  0.2374
21024SOL     OW66569  10.346   7.583   8.982 -0.4221  0.1866 -0.4587
21024SOL    HW166570  10.396   7.629   8.914  0.4006  0.1881  0.1283
21024SOL    HW266571  10.323   7.650   9.045  3.0373 -0.4828  1.7648
21025SOL     OW66572   6.171  10.657   9.635 -0.2359  0.5312 -0.5802
21025SOL    HW166573   6.147  10.565   9.649  1.4645 -0.3890 -2.8661
21025SOL    HW266574   6.267  10.657   9.641 -0.0707  1.7546 -2.3318
21026SOL     OW66575  10.485   7.076  10.815  0.6972  0.0423  0.1112
21026SOL    HW166576  10.409   7.111  10.769  0.9717  1.3498  0.6183
21026SOL    HW266577  10.545   7.048  10.746  0.2539  0.1077 -0.3000
21027SOL     OW66578   0.087   5.483   6.262 -0.3227 -0.0181 -0.0917
21027SOL    HW166579   0.179   5.504   6.248 -0.6575  2.2580  0.6526
21027SOL    HW266580   0.072   5.404   6.210  2.1780 -0.8395  0.3183
21028SOL     OW66581   9.099   3.969   2.637  0.1219 -0.3309 -0.4478
21028SOL    HW166582   9.170   3.969   2.573 -0.3435 -0.1071 -0.9722
21028SOL    HW266583   9.034   4.030   2.601 -0.9068 -1.4805 -0.6116
21029SOL     OW66584   3.492  10.054   9.503  0.6582 -0.1774  0.4851
21029SOL    HW166585   3.423  10.023   9.444  0.9520  0.3959 -0.1614
21029SOL    HW266586   3.473  10.009   9.586  0.0417 -0.7241  0.0635
21030SOL     OW66587   6.613   3.791   1.961  0.2935 -0.0027 -0.1804
21030SOL    HW166588   6.684   3.800   1.899 -0.4245  0.6851 -0.9199
21030SOL    HW266589   6.539   3.760   1.909 -0.2186  0.2379  0.3871
21031SOL     OW66590  10.852   4.444  10.187  0.3491 -0.2554  0.1030
21031SOL    HW166591  10.865   4.539  10.177 -2.5313  0.2694  0.6096
21031SOL    HW266592  10.908   4.421  10.262  1.1622  1.0235 -0.0761
21032SOL     OW66593   7.622   9.722   5.145 -0.2435 -0.0607 -0.5788
21032SOL    HW166594   7.608   9.798   5.088 -3.3334 -0.3371 -0.3683
21032SOL    HW266595   7.663   9.656   5.088  0.0954  0.8902 -1.4620
21033SOL     OW66596   5.619   9.550   5.514  0.0441 -0.1418 -0.1174
21033SOL    HW166597   5.550   9.611   5.488 -0.1129  0.2257  1.1171
21033SOL    HW266598   5.625   9.488   5.440 -2.2666 -0.7570  0.1441
21034SOL     OW66599   8.706   4.107   3.545  0.0288 -0.5048  0.2360
21034SOL    HW166600   8.613   4.128   3.543 -0.0764 -0.9651  0.2985
21034SOL    HW266601   8.716   4.037   3.480  0.4260 -0.0618 -0.1863
21035SOL     OW66602   3.376   9.355   6.422  0.2327 -0.0637  0.0210
21035SOL    HW166603   3.456   9.386   6.463 -0.4593  0.8989  0.6636
21035SOL    HW266604   3.357   9.419   6.353  1.0333 -1.3176 -1.4400
21036SOL     OW66605   2.447  10.972   8.262 -0.1302 -0.0708  0.4801
21036SOL    HW166606   2.499  11.048   8.237 -1.8273  0.7400 -0.7964
21036SOL    HW266607   2.432  10.924   8.180 -0.6118 -0.7743  0.9599
21037SOL     OW66608   8.291   1.374   1.511  0.3366 -0.3748  0.0900
21037SOL    HW166609   8.275   1.438   1.580  0.6263  0.8059 -0.8988
21037SOL    HW266610   8.331   1.299   1.556 -0.8445 -0.2584  1.4124
21038SOL     OW66611   7.827   7.104   4.084  0.8441 -0.3466  0.7224
21038SOL    HW166612   7.743   7.060   4.100  0.0771  1.0856  0.8905
21038SOL    HW266613   7.893   7.039   4.105 -0.2071 -0.7705  3.0956
21039SOL     OW66614   7.083   8.214  10.072 -0.0920  0.7521 -0.3092
21039SOL    HW166615   7.056   8.264   9.996 -1.8130  2.1829  1.1495
21039SOL    HW266616   7.047   8.126  10.057 -1.4609  1.3407 -0.6360
21040SOL     OW66617   4.779   3.455   3.004  0.0168  0.2684  0.0827
21040SOL    HW166618   4.778   3.541   2.963 -1.2685 -1.0616 -2.9932
21040SOL    HW266619   4.687   3.437   3.025  0.3278 -0.2027  1.1018
21041SOL     OW66620   9.357   2.593   9.831  0.5409 -1.0762 -0.2505
21041SOL    HW166621   9.352   2.575   9.925  0.0704  0.4465  0.0392
21041SOL    HW266622   9.449   2.614   9.816  0.4026 -0.1575  0.1148
21042SOL     OW66623   9.342   3.766   3.740 -0.0740 -0.0589 -0.0758
21042SOL    HW166624   9.355   3.701   3.809 -1.4870  1.0833  1.3248
21042SOL    HW266625   9.267   3.734   3.690 -2.5084  1.6464  2.2127
21043SOL     OW66626  10.268   7.442   2.588 -0.1042  0.0258 -0.2045
21043SOL    HW166627  10.185   7.455   2.541 -0.2941 -4.0758 -1.4546
21043SOL    HW266628  10.241   7.411   2.675  0.0937 -0.3850 -0.2852
21044SOL     OW66629   6.084   4.084   2.487 -0.5038  0.0493 -0.2190
21044SOL    HW166630   6.113   4.089   2.578 -1.3541  1.6758 -0.0169
21044SOL    HW266631   6.095   4.172   2.453 -1.0410 -0.3374 -1.4486
21045SOL     OW66632   8.615   9.262   8.890  0.6325 -0.5021 -0.1203
21045SOL    HW166633   8.620   9.306   8.805  0.4444 -0.7839 -0.2810
21045SOL    HW266634   8.524   9.233   8.896  0.3264  0.5611  0.7131
21046SOL     OW66635   0.499   2.954   3.159 -0.0653 -0.0163  0.5850
21046SOL    HW166636   0.422   2.993   3.118 -0.6465 -0.7728  0.9344
21046SOL    HW266637   0.465   2.882   3.212  0.8900 -0.4550  0.6379
21047SOL     OW66638   6.941   3.395   8.064  0.4549 -0.1658 -0.6381
21047SOL    HW166639   6.976   3.315   8.103 -0.0857 -0.2247 -0.2520
21047SOL    HW266640   6.847   3.379   8.057  0.4643  0.0910 -1.4026
21048SOL     OW66641   5.224   2.509   6.932  0.0456 -0.0105 -0.3839
21048SOL    HW166642   5.171   2.533   6.856 -2.2958  0.3563  1.2589
21048SOL    HW266643   5.179   2.433   6.969  0.3143  0.6438  1.3884
21049SOL     OW66644   5.217   4.321   3.102  0.1045 -0.0619  0.3130
21049SOL    HW166645   5.235   4.398   3.156  0.7881  0.0142 -0.0064
21049SOL    HW266646   5.252   4.247   3.152  3.2177  0.2839 -1.1407
21050SOL     OW66647   1.731   6.857   7.715  0.1032  0.3020  0.8655
21050SOL    HW166648   1.727   6.767   7.682  3.3255 -0.7302  2.8457
21050SOL    HW266649   1.763   6.908   7.641  0.3226 -0.6030  0.3189
21051SOL     OW66650  10.613   9.209   9.071 -0.2011 -0.4849  0.2551
21051SOL    HW166651  10.704   9.230   9.090 -0.0703  0.7484 -1.4944
21051SOL    HW266652  10.609   9.114   9.076  0.9808 -0.5080  1.1667
21052SOL     OW66653   4.892   5.789   0.171  0.1526  0.3121  0.4752
21052SOL    HW166654   4.921   5.853   0.108  0.2114  0.7583  0.9480
21052SOL    HW266655   4.950   5.800   0.246 -0.1730  0.0743  0.7711
21053SOL     OW66656   3.259   2.730   1.446  1.0476  0.0506 -0.3635
21053SOL    HW166657   3.206   2.795   1.400 -0.1363 -1.0873 -0.6646
21053SOL    HW266658   3.251   2.754   1.538 -0.9421 -0.7100 -0.2815
21054SOL     OW66659   4.303   9.935   1.484  0.2028 -0.4682 -0.0234
21054SOL    HW166660   4.378   9.978   1.525  1.3021 -3.0519  0.9281
21054SOL    HW266661   4.312   9.843   1.509 -3.2237 -0.9339  0.0040
21055SOL     OW66662   4.058   3.330   9.214  0.7757  0.0973  0.0548
21055SOL    HW166663   4.048   3.361   9.304 -0.0471  0.3584 -0.1197
21055SOL    HW266664   4.098   3.404   9.168  0.0352  0.4345 -0.0652
21056SOL     OW66665   1.171   9.396   3.165  0.1388 -0.9385 -0.6432
21056SOL    HW166666   1.173   9.371   3.257  1.2387  1.2405 -0.0135
21056SOL    HW266667   1.088   9.443   3.154  0.7851  0.3535 -0.2624
21057SOL     OW66668  10.977   8.690   4.207 -0.2338 -0.1717  0.1113
21057SOL    HW166669  11.064   8.674   4.243  0.1522 -1.2067 -1.1869
21057SOL    HW266670  10.918   8.638   4.262  0.1581 -0.5996  0.1334
21058SOL     OW66671   7.982   8.439   9.328 -0.4847 -0.8369  0.3417
21058SOL    HW166672   7.997   8.418   9.420 -0.0700 -0.9847  0.2415
21058SOL    HW266673   7.895   8.402   9.310  0.6526 -3.5237 -0.1151
21059SOL     OW66674   6.506  10.861   4.186 -0.4765  0.0711 -0.0799
21059SOL    HW166675   6.596  10.829   4.182 -0.4304  0.3378 -1.2812
21059SOL    HW266676   6.452  10.784   4.164 -0.6013 -0.2351  1.1742
21060SOL     OW66677   7.885   2.779   9.392  0.5684 -0.3909  0.3642
21060SOL    HW166678   7.919   2.728   9.318  0.8936  1.8402 -1.1352
21060SOL    HW266679   7.946   2.852   9.401 -1.0063  0.9119  0.9652
21061SOL     OW66680   7.761   8.245  10.789  0.5289 -0.2858 -0.2159
21061SOL    HW166681   7.755   8.320  10.847  0.9748  0.7369 -1.4593
21061SOL    HW266682   7.703   8.180  10.828  1.3247  0.1075  1.7368
21062SOL     OW66683   5.996   7.599  10.696 -0.0301 -0.2021 -0.3498
21062SOL    HW166684   5.976   7.685  10.659 -0.9480 -0.5787 -0.7461
21062SOL    HW266685   5.946   7.595  10.777  0.2732 -0.2326 -0.1647
21063SOL     OW66686   0.331   2.402   3.439 -0.7105 -0.2686  0.1814
21063SOL    HW166687   0.341   2.343   3.364 -1.9008  0.6451 -0.7460
21063SOL    HW266688   0.261   2.362   3.491  0.7283 -1.3836  1.3328
21064SOL     OW66689   1.123   4.423  10.494  0.0467 -0.0120 -0.0409
21064SOL    HW166690   1.132   4.461  10.581  1.5125 -1.0086  0.2787
21064SOL    HW266691   1.069   4.486  10.446  2.8530  2.8270  0.2310
21065SOL     OW66692   4.104   5.133   3.116 -0.0592  0.1031 -0.1507
21065SOL    HW166693   4.069   5.086   3.191  1.7223 -1.3602 -0.1568
21065SOL    HW266694   4.052   5.214   3.111 -0.7298 -0.1231  2.1487
21066SOL     OW66695   3.906   8.226  10.131  0.2628 -0.6824  0.2555
21066SOL    HW166696   3.879   8.156  10.190  1.0182 -0.6074  0.7123
21066SOL    HW266697   3.988   8.258  10.169 -0.1212  0.5213  0.1210
21067SOL     OW66698   3.693   4.325   7.679  0.1334  0.4603  0.1792
21067SOL    HW166699   3.650   4.396   7.726 -0.7190 -0.1111  0.2883
21067SOL    HW266700   3.621   4.273   7.642  0.5946 -1.6293  1.9954
21068SOL     OW66701   5.802   2.781   8.404  0.5384 -0.1828 -0.0537
21068SOL    HW166702   5.753   2.803   8.325  0.6927  1.9762  0.4067
21068SOL    HW266703   5.872   2.846   8.408  0.8224 -0.5449  1.6255
21069SOL     OW66704   0.436  10.878   6.624  0.0901  0.2326  0.3151
21069SOL    HW166705   0.429  10.784   6.635 -0.1796  0.2365  0.1775
21069SOL    HW266706   0.425  10.893   6.530 -2.0934  0.5903  0.5821
21070SOL     OW66707   6.728   9.179   8.364 -0.0409  0.4259 -0.0440
21070SOL    HW166708   6.717   9.145   8.275  0.1258 -1.1324  0.5022
21070SOL    HW266709   6.660   9.246   8.372  0.3026  0.9968 -1.5203
21071SOL     OW66710   6.782   5.627   4.497 -0.0038  0.2493 -0.0168
21071SOL    HW166711   6.823   5.586   4.573 -1.6889 -0.8028  0.3726
21071SOL    HW266712   6.727   5.697   4.534 -0.1661  0.3000 -0.3517
21072SOL     OW66713   9.548  10.971   0.823  0.4186 -0.1466 -0.1281
21072SOL    HW166714   9.590  10.885   0.820  1.1912  0.2259 -0.1586
21072SOL    HW266715   9.461  10.956   0.785  1.6715 -0.3030 -3.3075
21073SOL     OW66716   5.658   7.715   2.998  0.1824 -0.6999 -0.9516
21073SOL    HW166717   5.645   7.624   2.969  0.7954 -0.7623 -1.0423
21073SOL    HW266718   5.658   7.766   2.917 -1.2722 -0.4684 -0.8283
21074SOL     OW66719   4.938   9.172   4.453 -0.0443  1.2010 -0.5820
21074SOL    HW166720   4.843   9.179   4.439 -0.7958  1.4468  3.3955
21074SOL    HW266721   4.966   9.261   4.474  0.7430  0.8541 -0.1121
21075SOL     OW66722   8.591   0.481   2.653 -0.3018  0.7696 -0.0081
21075SOL    HW166723   8.497   0.478   2.670 -0.0970  1.6240  1.4577
21075SOL    HW266724   8.608   0.572   2.628  0.1188  0.5880 -0.3988
21076SOL     OW66725   1.032   6.293   6.162 -0.5587  0.2306 -0.3936
21076SOL    HW166726   1.076   6.230   6.220  0.2040  1.2980  0.2079
21076SOL    HW266727   1.034   6.376   6.209  0.2547  1.1798 -2.0011
21077SOL     OW66728   6.387   4.228  10.548  0.5343  0.2106 -0.2550
21077SOL    HW166729   6.361   4.226  10.456  0.8251  0.2352 -0.3403
21077SOL    HW266730   6.382   4.137  10.577  4.0039 -0.5020 -1.3317
21078SOL     OW66731   5.885   2.247   5.390  0.2050  0.2575 -0.0052
21078SOL    HW166732   5.952   2.190   5.352 -0.9047 -0.3099 -1.2041
21078SOL    HW266733   5.888   2.327   5.337  0.7262  0.7167  0.7020
21079SOL     OW66734   3.514   1.393   2.643  0.1411 -0.0872  0.1846
21079SOL    HW166735   3.497   1.487   2.640 -0.8254 -0.2439  0.2224
21079SOL    HW266736   3.428   1.354   2.664  0.8530 -0.8655  1.8691
21080SOL     OW66737   7.579   1.844   8.244  0.3664  0.0004 -0.2359
21080SOL    HW166738   7.538   1.865   8.160  0.8650  0.9841 -0.2500
21080SOL    HW266739   7.667   1.882   8.238  0.7312 -0.7059  0.3900
21081SOL     OW66740   3.804   1.073   6.260 -0.2585  0.1954  0.8739
21081SOL    HW166741   3.813   1.049   6.168 -1.1019 -1.6348  1.2389
21081SOL    HW266742   3.894   1.091   6.289 -0.1840  3.3345 -0.8815
21082SOL     OW66743   0.606   9.165   9.197 -0.3004  0.1641 -0.1988
21082SOL    HW166744   0.567   9.079   9.207 -0.2622  0.0488 -1.0016
21082SOL    HW266745   0.592   9.188   9.105  2.0474 -0.1484 -0.7004
21083SOL     OW66746   1.484   3.818   6.564 -0.3314 -0.1558 -0.4777
21083SOL    HW166747   1.517   3.876   6.495  0.6314  1.1148  0.9732
21083SOL    HW266748   1.483   3.873   6.643 -0.2500 -1.8729  0.7727
21084SOL     OW66749   8.274   2.076   8.504 -0.0921  0.6361  0.0835
21084SOL    HW166750   8.298   1.985   8.525  0.6383  0.7986 -0.0340
21084SOL    HW266751   8.348   2.128   8.535 -0.1481  1.1209 -0.5929
21085SOL     OW66752   9.996   9.698   1.867  0.1572  0.0289 -0.3103
21085SOL    HW166753   9.958   9.758   1.803 -1.3263 -0.4326  0.1109
21085SOL    HW266754   9.967   9.611   1.839  1.9277 -0.4876 -0.6613
21086SOL     OW66755   2.166   2.016   1.826  0.5592  0.1927  0.0385
21086SOL    HW166756   2.173   2.065   1.744 -0.4264 -0.5865 -0.5372
21086SOL    HW266757   2.199   1.929   1.805  0.1525 -0.0560  0.4065
21087SOL     OW66758   4.262  10.333   1.683 -0.4011  0.0508  0.3697
21087SOL    HW166759   4.300  10.281   1.753  1.2310  0.8397  0.1337
21087SOL    HW266760   4.170  10.341   1.705 -0.2881 -1.2596  1.4293
21088SOL     OW66761   6.276   6.872   0.303  0.5746  0.1597  0.1125
21088SOL    HW166762   6.236   6.908   0.224  1.4469 -0.3124 -0.5723
21088SOL    HW266763   6.370   6.869   0.283  0.7512 -0.4646  0.9612
21089SOL     OW66764   9.673   1.244   3.784 -0.0195 -0.2172 -0.4056
21089SOL    HW166765   9.754   1.201   3.811 -0.1538  0.2979  0.8835
21089SOL    HW266766   9.621   1.251   3.864 -1.5254 -0.8962 -1.2845
21090SOL     OW66767   6.992   4.834   0.645 -0.3526 -0.3344 -0.0022
21090SOL    HW166768   6.916   4.789   0.609 -0.5350  0.5178 -0.7139
21090SOL    HW266769   6.962   4.865   0.731 -0.9628  0.3897 -0.4686
21091SOL     OW66770   7.402   4.526   3.343  0.6298 -0.4564 -0.2268
21091SOL    HW166771   7.405   4.430   3.345  1.4773 -0.4273  0.4361
21091SOL    HW266772   7.454   4.553   3.418  1.8359  0.5599 -1.3833
21092SOL     OW66773   7.887   9.207   6.827  0.1744 -0.3814 -0.3080
21092SOL    HW166774   7.832   9.283   6.847 -0.3926 -1.1335  1.1283
21092SOL    HW266775   7.824   9.138   6.806  0.5781 -1.1097  0.8357
21093SOL     OW66776  10.793  10.496   1.641 -0.0794 -0.3562  0.1892
21093SOL    HW166777  10.758  10.583   1.620  1.3564  0.0199 -0.7786
21093SOL    HW266778  10.726  10.456   1.697 -1.9203  0.3991 -1.3819
21094SOL     OW66779   5.405  10.602   9.575 -0.1290  0.0572  0.2433
21094SOL    HW166780   5.360  10.528   9.616  0.0438 -0.2336 -0.0886
21094SOL    HW266781   5.497  10.587   9.596  0.0592 -0.5380 -0.9324
21095SOL     OW66782   6.546   4.149  10.019 -0.1103 -0.1140 -0.4545
21095SOL    HW166783   6.459   4.178   9.990 -0.9286 -1.3685  0.6443
21095SOL    HW266784   6.589   4.229  10.049 -0.8841  0.5212 -0.9867
21096SOL     OW66785   3.640   9.882   8.319  0.2317 -0.2778  0.1252
21096SOL    HW166786   3.546   9.877   8.334 -0.2047 -0.9649 -2.4079
21096SOL    HW266787   3.649   9.938   8.241  1.9139 -0.2449  0.2962
21097SOL     OW66788  10.642   1.939   6.746  0.3575 -0.3581  0.4459
21097SOL    HW166789  10.615   2.006   6.683 -1.5907 -0.0191  1.5480
21097SOL    HW266790  10.669   1.865   6.693 -2.6024 -0.6373 -0.8824
21098SOL     OW66791   6.746   9.137   9.910 -0.0833 -0.0177  0.6475
21098SOL    HW166792   6.739   9.086   9.829 -3.2089  2.9609 -1.2899
21098SOL    HW266793   6.824   9.191   9.898  0.7296 -1.1458  0.7073
21099SOL     OW66794   9.527   1.404   0.796  0.3668 -0.3565  0.1295
21099SOL    HW166795   9.444   1.430   0.755  0.1697 -0.0227  0.7302
21099SOL    HW266796   9.574   1.486   0.810  0.6032 -0.5039  0.2089
21100SOL     OW66797   5.660  10.138   0.195  0.9547 -0.0014  0.0318
21100SOL    HW166798   5.676  10.116   0.287  0.7688  0.3217  0.1456
21100SOL    HW266799   5.647  10.233   0.196  0.8869 -0.0061 -0.3212
21101SOL     OW66800   0.654   8.561   5.265  0.0706 -0.6757  0.2544
21101SOL    HW166801   0.596   8.635   5.278  0.3266 -0.3934 -0.1867
21101SOL    HW266802   0.703   8.582   5.186 -1.3017 -2.2252 -1.1122
21102SOL     OW66803   8.695  10.724   2.661 -0.2083  0.5162 -0.4149
21102SOL    HW166804   8.753  10.792   2.626  0.2347  1.1814  1.5042
21102SOL    HW266805   8.659  10.763   2.741  0.2288 -1.6161  0.8643
21103SOL     OW66806   7.313   9.234   0.996  0.2052  0.1893  0.1010
21103SOL    HW166807   7.302   9.247   1.090 -0.8957  0.8257 -0.1011
21103SOL    HW266808   7.228   9.201   0.966  0.1996  1.0125 -0.8386
21104SOL     OW66809  10.801   8.570   4.709 -0.1449 -0.3410  0.3082
21104SOL    HW166810  10.841   8.597   4.792 -1.2572 -1.8091  1.3757
21104SOL    HW266811  10.746   8.644   4.684  0.1791  0.1143  0.9040
21105SOL     OW66812   2.802   7.100   6.230  0.6504  0.8499 -0.1050
21105SOL    HW166813   2.819   7.169   6.295 -0.9196  1.2471 -0.0574
21105SOL    HW266814   2.706   7.089   6.233  0.8289 -1.1113 -0.3432
21106SOL     OW66815   2.718   3.393   1.919 -0.1169  0.2887  0.3950
21106SOL    HW166816   2.683   3.346   1.843  0.2235 -0.1741  0.5204
21106SOL    HW266817   2.641   3.422   1.967 -0.3502 -1.0390  0.8649
21107SOL     OW66818   8.338   4.269   2.160  0.2734 -0.0635  0.3218
21107SOL    HW166819   8.424   4.301   2.133 -0.1547  0.7941 -0.0612
21107SOL    HW266820   8.353   4.179   2.187  1.0267 -0.4634 -1.2830
21108SOL     OW66821   9.204   2.596   8.196  0.1144  1.0095 -0.1684
21108SOL    HW166822   9.167   2.622   8.280  1.1474 -0.3779  0.7770
21108SOL    HW266823   9.131   2.601   8.135 -1.0782  0.5222  1.1464
21109SOL     OW66824   3.451   3.112  10.634  0.3696 -0.0614  0.2584
21109SOL    HW166825   3.407   3.197  10.633 -0.7644 -0.6047  1.5735
21109SOL    HW266826   3.484   3.101  10.544  0.5288  1.7427  0.0600
21110SOL     OW66827   4.756   6.669   9.743  0.0793 -0.0357  0.2967
21110SOL    HW166828   4.848   6.669   9.718  0.0668 -0.5198  0.2451
21110SOL    HW266829   4.752   6.723   9.822  0.5443 -0.7073  0.7868
21111SOL     OW66830   0.375  10.154   1.066 -0.3279  0.6878 -0.4563
21111SOL    HW166831   0.291  10.109   1.056 -0.5974  0.5261  2.0043
21111SOL    HW266832   0.429  10.093   1.116 -0.5905  2.8141  2.7170
21112SOL     OW66833   1.221   7.407   1.196 -0.3429 -0.8432  0.7747
21112SOL    HW166834   1.148   7.376   1.142 -1.5005  2.1549  0.4241
21112SOL    HW266835   1.299   7.389   1.143 -1.2892  0.2456 -1.0981
21113SOL     OW66836   1.768   9.206   4.879 -0.6076  0.2690  0.1758
21113SOL    HW166837   1.754   9.158   4.798 -0.6873  1.4011 -0.4923
21113SOL    HW266838   1.798   9.139   4.941  2.1745 -0.1934 -1.4828
21114SOL     OW66839   8.637   1.727   8.249  0.2809 -0.5361  0.3940
21114SOL    HW166840   8.706   1.680   8.295 -1.2104 -2.3782  0.8810
21114SOL    HW266841   8.583   1.766   8.318 -1.9738 -3.3205  0.4050
21115SOL     OW66842  10.831   1.942   1.709 -0.1912  0.0652  0.1866
21115SOL    HW166843  10.909   1.901   1.673 -0.6834  0.6910 -1.6763
21115SOL    HW266844  10.761   1.918   1.648 -0.9956  1.4769  0.5204
21116SOL     OW66845   1.484  10.201   6.647 -0.5960 -0.2771  0.3021
21116SOL    HW166846   1.554  10.243   6.598 -0.1985 -0.7556  0.4455
21116SOL    HW266847   1.404  10.239   6.613 -0.2540  0.4770  0.3228
21117SOL     OW66848  10.965   3.248   8.272 -0.9745 -0.0009 -0.1610
21117SOL    HW166849  10.918   3.166   8.261 -0.0236 -0.4546 -1.0776
21117SOL    HW266850  10.953   3.294   8.189  3.2243 -1.8042 -2.0450
21118SOL     OW66851   3.410   8.857   9.171 -0.6826  0.4612 -0.1201
21118SOL    HW166852   3.459   8.876   9.250 -0.7369 -1.7293  0.4963
21118SOL    HW266853   3.462   8.895   9.100  1.2565 -0.6527  0.6389
21119SOL     OW66854   5.900   6.594   8.360 -0.4626  0.2758 -0.2628
21119SOL    HW166855   5.822   6.540   8.371  0.4742 -0.6607  2.7528
21119SOL    HW266856   5.973   6.535   8.374  0.6570  1.8437  0.9376
21120SOL     OW66857   9.608   9.367   5.684  0.0540  0.0152  0.3024
21120SOL    HW166858   9.703   9.367   5.697  0.2124 -0.1667 -0.7309
21120SOL    HW266859   9.592   9.293   5.626 -0.6298  0.4870 -0.1310
21121SOL     OW66860   6.857  10.619   0.806  0.1133 -0.0888 -0.0536
21121SOL    HW166861   6.934  10.608   0.863 -1.6973 -2.0075  2.2424
21121SOL    HW266862   6.796  10.672   0.857 -0.2893  1.1576 -1.7214
21122SOL     OW66863   3.829   4.189   7.500 -0.5006  0.1084  0.3238
21122SOL    HW166864   3.776   4.185   7.421  0.9194  0.4444 -0.6990
21122SOL    HW266865   3.775   4.237   7.563 -1.4278  0.3603 -0.6313
21123SOL     OW66866   5.057   2.299   7.873  0.2898  0.0649  0.6675
21123SOL    HW166867   5.117   2.251   7.932  0.0351  0.0515  0.9156
21123SOL    HW266868   5.022   2.370   7.927  1.2823  1.0373  0.0737
21124SOL     OW66869   4.223   8.994   7.709 -0.9327  0.3028 -0.0700
21124SOL    HW166870   4.140   8.995   7.661 -0.1370  1.2724 -1.5293
21124SOL    HW266871   4.245   9.087   7.721 -0.3153  0.0620  0.7755
21125SOL     OW66872   7.406  10.527   8.114  0.0314  0.4063 -0.4125
21125SOL    HW166873   7.384  10.502   8.204 -1.6383 -0.1204 -0.9385
21125SOL    HW266874   7.367  10.458   8.060 -0.7498  1.7596 -1.6357
21126SOL     OW66875   2.220   6.653   5.773 -0.3787  0.3103 -0.9669
21126SOL    HW166876   2.251   6.668   5.684  0.3153 -0.6501 -0.8983
21126SOL    HW266877   2.244   6.733   5.821  0.5937  0.2214 -1.2915
21127SOL     OW66878  10.778   4.477   2.248 -0.4266 -0.1394 -0.1649
21127SOL    HW166879  10.823   4.524   2.318  0.5411 -0.9019 -0.2404
21127SOL    HW266880  10.753   4.544   2.185  1.3468  0.2449 -0.5063
21128SOL     OW66881   3.858   5.680   8.016  0.2510 -0.0521 -0.0801
21128SOL    HW166882   3.893   5.745   8.078  1.1280  0.0080 -0.6202
21128SOL    HW266883   3.909   5.601   8.033 -0.4664 -0.4526  0.2232
21129SOL     OW66884   2.955   9.284   8.147  0.1574  0.0078  0.1553
21129SOL    HW166885   2.994   9.237   8.073 -0.7754  0.8397 -0.9050
21129SOL    HW266886   2.974   9.228   8.223  0.4845 -1.2667 -0.8156
21130SOL     OW66887   9.055   3.981   4.785  0.0803  0.4979 -0.3442
21130SOL    HW166888   9.118   3.927   4.832  0.3003 -0.6208 -1.8373
21130SOL    HW266889   9.108   4.042   4.734 -0.1659  3.3328  2.4962
21131SOL     OW66890  10.838   0.608   3.503 -0.3823  0.4405  0.1618
21131SOL    HW166891  10.844   0.700   3.530 -0.2967  1.2434 -2.2980
21131SOL    HW266892  10.751   0.580   3.530  0.0431  0.8241  2.0429
21132SOL     OW66893   8.109   6.296   1.781  0.1024  0.3937 -0.0347
21132SOL    HW166894   8.060   6.378   1.786  0.3573  0.4721  2.2410
21132SOL    HW266895   8.043   6.228   1.793  0.0288  0.2932 -0.9490
21133SOL     OW66896   2.917   7.497   3.981 -0.1637  0.1598  0.5189
21133SOL    HW166897   2.851   7.433   3.953  0.0574  0.5434 -0.9549
21133SOL    HW266898   2.965   7.452   4.051 -0.5861 -0.9548  0.1202
21134SOL     OW66899   3.938   0.303   1.945  0.3244 -0.1726 -0.3795
21134SOL    HW166900   3.919   0.392   1.916  1.2818 -0.1832 -1.0622
21134SOL    HW266901   4.011   0.274   1.890 -0.5918 -1.7381 -0.8337
21135SOL     OW66902   8.107  10.862   9.431  0.0224 -0.0465 -0.1838
21135SOL    HW166903   8.042  10.928   9.456  1.0886  1.1120 -0.3711
21135SOL    HW266904   8.185  10.885   9.483  0.4725 -1.0486 -0.3990
21136SOL     OW66905   9.389   6.333   5.908 -0.5263 -0.6479  0.0446
21136SOL    HW166906   9.360   6.421   5.884  0.6355  0.1250  1.3074
21136SOL    HW266907   9.309   6.287   5.934 -1.0596  0.2733  0.0599
21137SOL     OW66908   5.309   0.652   4.391  0.1525 -0.3510 -0.0327
21137SOL    HW166909   5.398   0.634   4.359  0.2892  0.8308 -0.3862
21137SOL    HW266910   5.322   0.684   4.480 -0.0070 -1.1298  0.2717
21138SOL     OW66911  10.230   5.746   5.398 -0.2258  0.4346 -0.6621
21138SOL    HW166912  10.247   5.740   5.304  1.1172 -0.3491 -0.4046
21138SOL    HW266913  10.172   5.673   5.417  0.7102 -0.3402 -0.6656
21139SOL     OW66914  10.376   1.602   5.391 -0.6176 -0.1001  0.2117
21139SOL    HW166915  10.332   1.517   5.385 -1.5807  0.4454 -1.0026
21139SOL    HW266916  10.348   1.648   5.312  2.3749  0.2019 -0.7895
21140SOL     OW66917   8.889  10.443  10.418 -0.7896  0.0551  0.3106
21140SOL    HW166918   8.847  10.521  10.384  0.4274  0.4485 -0.3802
21140SOL    HW266919   8.818  10.382  10.435 -1.5502  0.2359 -1.9805
21141SOL     OW66920  10.198   4.590   2.188  0.2648  0.7372 -1.1898
21141SOL    HW166921  10.267   4.523   2.193  1.0027  1.3606 -2.5370
21141SOL    HW266922  10.210   4.630   2.102 -1.7261  0.9365 -1.4158
21142SOL     OW66923  10.481   4.634   0.901  0.2254  0.1426  0.6002
21142SOL    HW166924  10.490   4.559   0.960  0.3881 -0.4865 -0.1973
21142SOL    HW266925  10.394   4.669   0.920 -0.3695 -1.0320  0.1207
21143SOL     OW66926   9.977   8.198   2.352  0.3771 -0.5930  0.0876
21143SOL    HW166927  10.045   8.138   2.319  2.9488  2.2725 -0.3215
21143SOL    HW266928   9.948   8.245   2.275 -2.9630 -2.3363  0.0959
21144SOL     OW66929   6.579   4.485   4.913  0.0487  0.7597  0.7203
21144SOL    HW166930   6.558   4.500   4.821 -0.0053  0.9807  0.7684
21144SOL    HW266931   6.580   4.390   4.922 -1.7679  0.7160  0.9017
21145SOL     OW66932  10.900   1.562   4.588  0.0947  0.6912 -0.1161
21145SOL    HW166933  10.834   1.492   4.587  0.2677  0.5146  0.3961
21145SOL    HW266934  10.883   1.612   4.508  0.5056 -0.4385 -0.9366
21146SOL     OW66935   4.183   5.392   6.025 -0.2492 -0.4509  0.4406
21146SOL    HW166936   4.087   5.393   6.024 -0.2659  1.2551 -0.6591
21146SOL    HW266937   4.206   5.352   6.109 -1.9743  1.9751  2.2202
21147SOL     OW66938   1.082   7.337   6.141 -0.1113  0.2857  0.4180
21147SOL    HW166939   0.993   7.351   6.175  0.2146  1.0550  0.9835
21147SOL    HW266940   1.124   7.423   6.148  0.3786  0.1630 -0.7724
21148SOL     OW66941   2.737   1.030   8.819  1.0631  0.2647  0.4222
21148SOL    HW166942   2.734   1.120   8.786  1.4875 -0.3195 -1.3036
21148SOL    HW266943   2.734   0.975   8.741  1.1858 -1.2300  1.4197
21149SOL     OW66944   1.948   4.131   2.934  0.3901 -0.2551  0.4541
21149SOL    HW166945   1.923   4.224   2.933 -0.4846 -0.4006  2.8057
21149SOL    HW266946   2.041   4.132   2.913  0.7356  1.3402  1.7696
21150SOL     OW66947   5.824   0.256   9.737 -0.3462 -0.4013 -0.0809
21150SOL    HW166948   5.825   0.311   9.815  0.5911  0.5401 -0.7142
21150SOL    HW266949   5.771   0.305   9.674 -0.1426 -0.5841 -0.3988
21151SOL     OW66950   7.617   5.614   7.715 -0.1441 -0.2120 -0.4121
21151SOL    HW166951   7.672   5.539   7.735  1.2648  1.1998  1.3682
21151SOL    HW266952   7.535   5.597   7.762 -0.1083 -0.9319 -0.5984
21152SOL     OW66953   9.722   5.900   8.936  0.6180 -0.4003 -0.4811
21152SOL    HW166954   9.698   5.865   8.850  0.9701 -0.0517 -0.7247
21152SOL    HW266955   9.766   5.983   8.916  2.8955 -1.4571 -0.1147
21153SOL     OW66956   8.116  10.633   7.942 -0.4454  0.6896 -0.1668
21153SOL    HW166957   8.206  10.667   7.947  0.4810 -1.2454 -2.1580
21153SOL    HW266958   8.106  10.580   8.021  0.3406  0.5380 -0.1580
21154SOL     OW66959   1.908   4.062   2.377 -0.1145  0.3247  0.3096
21154SOL    HW166960   1.884   4.039   2.467 -0.2914  0.1255  0.2128
21154SOL    HW266961   1.942   3.980   2.340 -1.0663  0.1202 -0.1479
21155SOL     OW66962   1.086   3.792   9.201  0.2617 -0.1476 -0.4968
21155SOL    HW166963   1.028   3.813   9.127 -0.7067 -2.1322 -0.3738
21155SOL    HW266964   1.053   3.709   9.234  2.6215 -0.8817  0.2129
21156SOL     OW66965  10.554   6.907   0.116  0.7952  0.0209 -0.4034
21156SOL    HW166966  10.563   6.995   0.079  2.7680  0.3127  0.6526
21156SOL    HW266967  10.503   6.919   0.196  0.7035  0.1268 -0.4776
21157SOL     OW66968   3.817   3.010  10.098 -0.5083  0.3435 -0.4875
21157SOL    HW166969   3.909   3.020  10.124 -0.6428 -0.5799  0.3775
21157SOL    HW266970   3.813   2.924  10.058 -1.1883 -0.0660  0.4213
21158SOL     OW66971   2.719   3.660  10.071 -0.2101 -0.3936  0.5308
21158SOL    HW166972   2.675   3.741  10.098 -0.3821 -0.6344  0.9774
21158SOL    HW266973   2.799   3.657  10.123 -0.2060 -0.5101  0.5194
21159SOL     OW66974   0.590   1.373   3.114 -0.2807  0.0518 -0.4874
21159SOL    HW166975   0.563   1.290   3.154  0.9745 -0.7742 -1.2561
21159SOL    HW266976   0.679   1.356   3.084  0.5152  2.1207  0.5201
21160SOL     OW66977   6.592   8.063   3.505  0.0451  0.0779 -0.1755
21160SOL    HW166978   6.582   8.013   3.424 -1.1224  0.3464 -0.2181
21160SOL    HW266979   6.585   8.154   3.478 -3.6411  0.1679  0.5287
21161SOL     OW66980  10.604  10.440   0.427  1.3022 -0.0500 -0.3228
21161SOL    HW166981  10.571  10.513   0.374  1.6992 -1.4486 -2.6596
21161SOL    HW266982  10.699  10.442   0.414  1.6588  0.7185  1.9921
21162SOL     OW66983   0.331   2.483   6.720 -0.0050 -0.4476 -1.0322
21162SOL    HW166984   0.322   2.558   6.660 -0.7107 -0.3741 -0.8418
21162SOL    HW266985   0.321   2.521   6.807 -0.5470 -0.7826 -0.9415
21163SOL     OW66986  10.496   8.312   9.957  0.0120  0.0963  0.2909
21163SOL    HW166987  10.528   8.231   9.917 -0.1110  0.4518 -0.5377
21163SOL    HW266988  10.545   8.381   9.914 -0.7944  0.5476  0.0724
21164SOL     OW66989   3.489   2.059   3.022  0.4974  0.5650 -0.2240
21164SOL    HW166990   3.442   2.004   3.084 -0.2547  0.5278 -0.8229
21164SOL    HW266991   3.566   2.007   2.998 -0.1055 -0.1459 -0.6337
21165SOL     OW66992   3.723   2.864   7.242 -0.3188  0.0035  0.3176
21165SOL    HW166993   3.707   2.931   7.309  2.2629  0.4517  0.6128
21165SOL    HW266994   3.728   2.782   7.291 -0.8953 -0.0357  0.3163
21166SOL     OW66995   8.297   6.419   9.006  0.5555  0.0469 -0.1564
21166SOL    HW166996   8.259   6.387   9.087  0.1929  0.2969 -0.2278
21166SOL    HW266997   8.386   6.384   9.006  0.8783  0.8195  0.8033
21167SOL     OW66998   9.991   1.599   8.534 -0.0957 -0.2887 -0.3837
21167SOL    HW166999   9.923   1.594   8.601  0.2025 -0.2783 -0.0787
21167SOL    HW267000  10.001   1.693   8.517 -1.4494 -0.3655 -1.7639
21168SOL     OW67001   6.870   5.972   5.992 -0.1805  0.0978 -0.3711
21168SOL    HW167002   6.955   6.014   6.002  0.0407 -0.2049 -0.9165
21168SOL    HW267003   6.832   6.014   5.914 -0.0229 -0.5852 -0.8295
21169SOL     OW67004   0.493   8.542   0.267 -1.0614  0.2428 -0.4564
21169SOL    HW167005   0.562   8.577   0.211  0.0450 -0.7228  0.2537
21169SOL    HW267006   0.412   8.559   0.220 -0.2039 -0.0797 -2.1064
21170SOL     OW67007   5.613   5.937   8.469  0.2903  0.2229 -0.6234
21170SOL    HW167008   5.699   5.978   8.465  0.7400 -0.6659 -0.4045
21170SOL    HW267009   5.612   5.891   8.553 -0.8726  1.2183 -0.0797
21171SOL     OW67010   4.223   9.005   4.474  0.4838  0.2594  0.1507
21171SOL    HW167011   4.233   8.998   4.379 -0.0893  0.3009  0.0846
21171SOL    HW267012   4.303   8.966   4.509 -0.0543 -1.3426 -0.3059
21172SOL     OW67013   3.849   7.600   4.080  0.2116 -0.4690 -0.0188
21172SOL    HW167014   3.918   7.554   4.129  0.7301 -0.6166 -0.8694
21172SOL    HW267015   3.783   7.533   4.063  1.7714 -1.4586 -2.8206
21173SOL     OW67016   7.728   9.657   5.686  0.2026 -0.6494 -0.0096
21173SOL    HW167017   7.725   9.617   5.599  1.1527 -1.6382  0.3928
21173SOL    HW267018   7.638   9.653   5.717 -0.4364  0.9921 -1.4763
21174SOL     OW67019   0.115   8.181   6.453  0.1365 -0.7091 -0.0757
21174SOL    HW167020   0.139   8.274   6.445  0.3721 -0.5682  1.6868
21174SOL    HW267021   0.104   8.168   6.547 -1.2645 -2.1540 -0.4038
21175SOL     OW67022   0.519  10.702   3.659  0.6149 -0.0619 -0.0568
21175SOL    HW167023   0.523  10.652   3.577  0.7659 -0.4721  0.1983
21175SOL    HW267024   0.605  10.690   3.699  0.9052  0.9991 -0.3293
21176SOL     OW67025   3.752   1.925   7.818  0.6385 -0.1086 -0.0933
21176SOL    HW167026   3.660   1.902   7.825  0.2341  0.6066 -2.2899
21176SOL    HW267027   3.790   1.855   7.765  0.5233  1.4121 -2.3047
21177SOL     OW67028   7.328   9.295   4.977  0.3071 -0.1651  0.7320
21177SOL    HW167029   7.328   9.388   4.956 -0.1629 -0.3863 -0.3401
21177SOL    HW267030   7.246   9.262   4.941  0.4919 -1.0108  1.0410
21178SOL     OW67031   4.608   7.204  10.420  0.2295  0.4428  0.0153
21178SOL    HW167032   4.590   7.133  10.481 -0.8778  0.4552 -0.2773
21178SOL    HW267033   4.697   7.187  10.389  0.4629 -0.0679  0.9371
21179SOL     OW67034   6.988   0.258   3.374  0.2112  0.0669  0.1838
21179SOL    HW167035   6.938   0.219   3.302 -0.4619  0.4731  0.4108
21179SOL    HW267036   7.031   0.334   3.334 -0.6988  0.6825  0.3423
21180SOL     OW67037   8.202  10.470   7.435 -0.2525 -0.1188  0.3817
21180SOL    HW167038   8.227  10.550   7.389 -1.7632  0.0731 -0.1541
21180SOL    HW267039   8.109  10.482   7.456 -0.1635 -1.1535  1.5210
21181SOL     OW67040   8.333   1.137   0.529  0.3913  0.0697  0.5003
21181SOL    HW167041   8.361   1.186   0.452 -0.6326  1.5575  1.0357
21181SOL    HW267042   8.377   1.052   0.520  2.8483  1.2949 -0.0856
21182SOL     OW67043   4.729   0.298  10.818  0.7889 -0.6811  0.0269
21182SOL    HW167044   4.642   0.339  10.816  0.7167 -0.8255  0.1611
21182SOL    HW267045   4.725   0.230  10.751  1.4006  0.4961 -1.2525
21183SOL     OW67046   4.840   2.152   6.022 -0.0755 -0.3777 -0.4928
21183SOL    HW167047   4.934   2.163   6.012 -0.1828 -0.3122 -1.5538
21183SOL    HW267048   4.830   2.071   6.072  0.5321 -0.7854 -1.0113
21184SOL     OW67049   6.020   1.363   8.603 -0.4944 -0.5524  0.2718
21184SOL    HW167050   5.977   1.413   8.534  0.5547 -1.0142 -0.7685
21184SOL    HW267051   5.956   1.357   8.673 -1.4632  0.2445 -0.5206
21185SOL     OW67052  10.733   8.401   0.266 -0.0915 -0.2313  0.0706
21185SOL    HW167053  10.676   8.426   0.193 -1.4960 -0.4382  1.0427
21185SOL    HW267054  10.804   8.351   0.225 -0.5528  0.1105 -1.1979
21186SOL     OW67055   8.628   4.609   0.914  0.2763 -0.2618 -0.4380
21186SOL    HW167056   8.712   4.584   0.875  0.0719 -0.6041 -0.6670
21186SOL    HW267057   8.638   4.589   1.007  0.5315 -0.0777 -0.4256
21187SOL     OW67058   5.707   5.872   3.530  0.1376 -0.3251 -0.2998
21187SOL    HW167059   5.628   5.918   3.503 -0.6207 -1.5880 -0.3144
21187SOL    HW267060   5.720   5.896   3.621  0.4478  0.8488 -0.6410
21188SOL     OW67061   7.844   2.407   2.513  0.4884  0.3425  0.0402
21188SOL    HW167062   7.914   2.351   2.548  1.2945 -0.1194 -2.1353
21188SOL    HW267063   7.890   2.483   2.477 -0.3779  1.2401  0.7915
21189SOL     OW67064   8.165   5.253   3.336 -0.1819  0.1285  0.6881
21189SOL    HW167065   8.090   5.311   3.347  0.4867  1.0961  0.3069
21189SOL    HW267066   8.185   5.221   3.424  0.6999  2.1156  1.2796
21190SOL     OW67067  10.285   4.843   8.687 -0.0757 -0.2026 -0.1613
21190SOL    HW167068  10.260   4.779   8.620  0.5625 -0.8926  0.2481
21190SOL    HW267069  10.380   4.839   8.690  0.1069  1.8541 -1.1777
21191SOL     OW67070   8.838   1.193   0.595  0.0311 -0.1907  0.2409
21191SOL    HW167071   8.799   1.232   0.518  2.5471 -0.4797 -1.2793
21191SOL    HW267072   8.830   1.098   0.581  0.3515 -0.2462  0.4173
21192SOL     OW67073   4.699   8.686   5.953  0.3256  0.6268 -0.4443
21192SOL    HW167074   4.742   8.682   5.867  1.5065  0.7105  0.1102
21192SOL    HW267075   4.647   8.766   5.951  0.5658  0.7704 -0.9862
21193SOL     OW67076   7.846  10.203   9.225  0.5935  0.0244  0.3239
21193SOL    HW167077   7.751  10.204   9.213  0.8400 -0.2907 -2.2463
21193SOL    HW267078   7.880  10.238   9.143  2.7386 -0.5111  0.9390
21194SOL     OW67079  10.942   4.626   2.687  0.0208 -0.4265  0.4222
21194SOL    HW167080  10.898   4.680   2.753 -0.4698  0.1036 -0.3149
21194SOL    HW267081  11.034   4.625   2.713  0.3565  2.1222 -0.4002
21195SOL     OW67082   1.527   5.561   8.216 -0.0981 -0.2753  0.0021
21195SOL    HW167083   1.444   5.568   8.169 -1.3196 -0.3320  2.0221
21195SOL    HW267084   1.567   5.481   8.184  1.4066  1.8620 -4.2279
21196SOL     OW67085   7.873   6.412   2.967  0.3116 -0.9309  0.1804
21196SOL    HW167086   7.853   6.466   2.891  0.4546  0.0974  0.8497
21196SOL    HW267087   7.960   6.440   2.995  1.4466 -3.2149 -0.8673
21197SOL     OW67088   8.594   8.235  10.753 -0.0368 -0.4494 -0.5440
21197SOL    HW167089   8.542   8.297  10.702 -0.9875 -0.5220  0.3104
21197SOL    HW267090   8.558   8.240  10.841  1.7696 -0.1051  0.2318
21198SOL     OW67091   6.666   1.140   6.357  1.0140  0.0039 -0.4285
21198SOL    HW167092   6.681   1.090   6.276  1.2442 -3.2459  1.4288
21198SOL    HW267093   6.703   1.085   6.426 -0.9526  1.6495  2.1266
21199SOL     OW67094   9.970   3.090  10.087 -0.1564  0.4098  0.6305
21199SOL    HW167095   9.880   3.097  10.118 -0.2353  1.2961  0.2357
21199SOL    HW267096   9.974   3.005  10.044 -1.3627  1.1257 -1.0353
21200SOL     OW67097   2.984   4.263   4.064 -0.0566  0.0721  0.5314
21200SOL    HW167098   2.976   4.310   3.981  0.8441  1.1669  1.0341
21200SOL    HW267099   2.957   4.326   4.131  2.2725  0.3322  1.3243
21201SOL     OW67100   4.556   9.123   5.356 -0.5718  0.4381  0.3709
21201SOL    HW167101   4.476   9.115   5.409 -1.4130  2.2251 -0.5524
21201SOL    HW267102   4.627   9.116   5.420 -1.4801 -0.4314  1.3217
21202SOL     OW67103   7.624   1.402   2.554 -0.3911  0.2580  0.7113
21202SOL    HW167104   7.674   1.457   2.494  0.9372 -0.3500  1.2180
21202SOL    HW267105   7.539   1.445   2.562  0.8988  2.7531  1.8267
21203SOL     OW67106   4.056   6.525   8.866  0.6779  0.2863  0.1196
21203SOL    HW167107   3.969   6.538   8.903  0.1526 -2.0638 -0.1027
21203SOL    HW267108   4.100   6.609   8.877 -1.5530  1.5090  0.3682
21204SOL     OW67109   6.869   5.902   4.337  0.0874  0.5487 -0.4268
21204SOL    HW167110   6.804   5.916   4.405  1.2718 -0.8653  1.0612
21204SOL    HW267111   6.951   5.933   4.375  1.0379 -1.5852 -0.5731
21205SOL     OW67112   9.370   0.754   8.972 -0.0840  0.1341  0.4898
21205SOL    HW167113   9.375   0.765   8.877 -0.6951 -2.0305  0.1481
21205SOL    HW267114   9.376   0.843   9.007 -1.1320  1.1089 -1.6251
21206SOL     OW67115  10.527   4.378   7.584  0.4298 -0.0152 -0.2792
21206SOL    HW167116  10.621   4.364   7.569  0.2866 -0.7469 -0.5400
21206SOL    HW267117  10.508   4.462   7.542  0.6977 -0.5053 -1.4118
21207SOL     OW67118   5.307  10.113   4.581 -0.1687 -0.3413  0.1457
21207SOL    HW167119   5.340  10.188   4.629  0.6813  0.5402 -1.7118
21207SOL    HW267120   5.385  10.062   4.560 -0.5503 -0.8388 -0.0833
21208SOL     OW67121   9.558   7.840   8.116  0.0270 -0.2847  0.2346
21208SOL    HW167122   9.488   7.791   8.073  0.4485 -1.0231  0.3799
21208SOL    HW267123   9.635   7.826   8.061  0.1841  0.1057  0.3497
21209SOL     OW67124   3.018   3.159   3.939 -0.7434  0.0342  0.1666
21209SOL    HW167125   2.929   3.179   3.908 -0.8181  0.0072  0.3574
21209SOL    HW267126   3.053   3.244   3.967 -0.8172  0.0010  0.3620
21210SOL     OW67127   3.356   5.887   7.476  0.1473  0.4925 -0.1364
21210SOL    HW167128   3.278   5.884   7.531  0.7894 -1.2300  0.7812
21210SOL    HW267129   3.416   5.825   7.518  1.2298  0.2463 -1.9681
21211SOL     OW67130   5.850   2.152   6.624  0.7893  0.6980 -0.1604
21211SOL    HW167131   5.777   2.159   6.686  1.3110 -0.5972  0.6320
21211SOL    HW267132   5.921   2.114   6.675  1.1405 -0.6792 -1.6048
21212SOL     OW67133  10.367   4.472   7.953  0.4032  0.1441 -0.1684
21212SOL    HW167134  10.369   4.379   7.927  0.0980  0.7985 -2.8655
21212SOL    HW267135  10.275   4.496   7.948  0.4668  0.5878  0.6383
21213SOL     OW67136   0.795   3.787   4.009 -0.4752 -0.1462 -0.3030
21213SOL    HW167137   0.887   3.773   4.033 -0.7430 -0.2599  0.6802
21213SOL    HW267138   0.760   3.699   3.994 -0.8856 -0.2305  1.0880
21214SOL     OW67139   8.913   3.152   7.948 -0.1056  0.2509  0.3994
21214SOL    HW167140   8.898   3.076   8.005 -0.1467 -0.0314  0.0156
21214SOL    HW267141   8.940   3.114   7.864 -0.0002  0.6659  0.2442
21215SOL     OW67142   8.698   6.059   0.456  0.0644  0.1480 -0.2989
21215SOL    HW167143   8.723   6.150   0.470  0.9260 -0.0875 -0.2557
21215SOL    HW267144   8.732   6.038   0.368 -2.1300  0.5366 -1.3140
21216SOL     OW67145   6.647   1.810   0.990  0.1176  0.2254  0.6528
21216SOL    HW167146   6.605   1.754   0.925  1.5256  0.5426 -0.5771
21216SOL    HW267147   6.659   1.753   1.066 -0.3999 -0.5196  0.1930
21217SOL     OW67148   2.084  10.439   0.368 -0.2399  0.1057 -0.3013
21217SOL    HW167149   2.045  10.519   0.403 -1.7019  0.5171 -2.5817
21217SOL    HW267150   2.106  10.387   0.445 -2.3029  1.3069  1.2117
21218SOL     OW67151  10.252   6.185   0.580 -0.2949  0.2224 -0.2936
21218SOL    HW167152  10.248   6.273   0.543  0.2569  1.1004  1.5890
21218SOL    HW267153  10.169   6.175   0.627 -0.2333 -0.1520 -0.2609
21219SOL     OW67154   3.332   7.163   1.163 -0.1849  0.2782  0.3721
21219SOL    HW167155   3.399   7.196   1.222  0.3149 -1.6168  0.9392
21219SOL    HW267156   3.263   7.130   1.221 -0.8468  0.6944 -0.1676
21220SOL     OW67157   2.313   2.668   6.142 -0.3412 -0.6719  0.2707
21220SOL    HW167158   2.221   2.692   6.152 -0.8082 -1.7688 -0.9827
21220SOL    HW267159   2.342   2.716   6.064 -0.7750 -2.5780 -1.1724
21221SOL     OW67160   1.730   7.503   1.998  0.2931  0.2979 -0.1347
21221SOL    HW167161   1.714   7.436   2.065 -0.4913 -0.4591 -1.0676
21221SOL    HW267162   1.659   7.567   2.010  0.7464  0.7193  0.4124
21222SOL     OW67163  10.733   7.978   8.570 -0.0106  0.1142  0.0414
21222SOL    HW167164  10.739   8.027   8.488  0.5091 -0.1561 -0.0837
21222SOL    HW267165  10.821   7.945   8.585 -0.1446  0.0121  0.6189
21223SOL     OW67166   7.491  10.209  10.453  0.4447  0.8197 -0.4256
21223SOL    HW167167   7.511  10.158  10.531  0.0734 -0.1227 -0.9244
21223SOL    HW267168   7.570  10.204  10.400  0.1405  0.0798 -0.8240
21224SOL     OW67169   4.834   9.809   0.356  0.5160 -0.7508  0.4471
21224SOL    HW167170   4.773   9.764   0.414  1.5337 -0.6498  1.6541
21224SOL    HW267171   4.789   9.889   0.329  0.1639 -0.6112  1.4297
21225SOL     OW67172   0.869   2.513  10.719 -0.0537  0.4857  0.1006
21225SOL    HW167173   0.898   2.554  10.638  1.1783 -0.6757 -0.0949
21225SOL    HW267174   0.949   2.476  10.756 -1.0855 -1.8995  0.1320
21226SOL     OW67175  10.029   7.000  10.222 -0.3576 -0.4746  0.0587
21226SOL    HW167176  10.120   6.996  10.193 -0.5440 -1.7880 -0.3933
21226SOL    HW267177   9.980   6.953  10.155 -1.1506 -1.2884  1.1686
21227SOL     OW67178   1.260   0.998   3.338  0.3117 -0.0876 -0.1053
21227SOL    HW167179   1.203   1.075   3.334  2.0026  1.1776 -2.7386
21227SOL    HW267180   1.280   0.979   3.246  1.7116 -2.3491  0.5989
21228SOL     OW67181   5.127   0.784   6.488  0.1345 -0.2683  0.3657
21228SOL    HW167182   5.074   0.704   6.491  0.8329 -0.7043  1.3389
21228SOL    HW267183   5.153   0.799   6.579 -0.1083  1.1555  0.2164
21229SOL     OW67184   9.160  10.485   3.813  0.3072 -0.7203 -0.2285
21229SOL    HW167185   9.211  10.434   3.875 -0.9512 -0.6591  0.8864
21229SOL    HW267186   9.203  10.570   3.811  0.6108 -0.8607  0.2399
21230SOL     OW67187   5.754   5.307   1.190 -0.0435  0.5730  0.0392
21230SOL    HW167188   5.660   5.326   1.198 -0.3076  0.0698 -1.5882
21230SOL    HW267189   5.774   5.254   1.267 -1.0267  0.8949  0.5400
21231SOL     OW67190   0.277   4.208   9.659  0.0177  0.2995  0.1101
21231SOL    HW167191   0.224   4.203   9.738  0.3449  0.2057  0.3268
21231SOL    HW267192   0.357   4.160   9.680  0.1236  0.3061 -0.2636
21232SOL     OW67193   5.804   0.277   7.383 -0.0714 -0.0934 -0.1359
21232SOL    HW167194   5.895   0.252   7.398 -0.2907 -1.5662 -1.0456
21232SOL    HW267195   5.769   0.295   7.471  1.1484  0.7335  0.1923
21233SOL     OW67196   8.435   0.081   2.047  0.2166  1.2022  0.3526
21233SOL    HW167197   8.368   0.017   2.073  1.3585  0.0446  0.5756
21233SOL    HW267198   8.487   0.095   2.126  1.0415  1.0315 -0.1370
21234SOL     OW67199   0.297   0.640   3.936 -0.0354  0.0841 -0.2079
21234SOL    HW167200   0.252   0.702   3.993  0.6041  0.8852 -0.5575
21234SOL    HW267201   0.304   0.560   3.988 -0.1981  0.5403  0.5215
21235SOL     OW67202   1.054   1.067   9.440  0.3903  0.6396  0.0693
21235SOL    HW167203   1.088   0.980   9.421 -0.8927 -0.2523  1.6205
21235SOL    HW267204   1.032   1.065   9.533  0.2850  2.6158  0.1362
21236SOL     OW67205   4.300   8.188   6.082  0.4932 -0.1792 -0.3355
21236SOL    HW167206   4.354   8.266   6.069 -0.2720  0.4311  0.0823
21236SOL    HW267207   4.306   8.141   5.999  0.9531  0.3184 -0.5929
21237SOL     OW67208   8.969   8.426   2.957  1.0826  0.4577  0.0759
21237SOL    HW167209   8.933   8.415   2.869  1.9047  2.0250 -0.4958
21237SOL    HW267210   9.053   8.382   2.955  1.7268  1.6557 -0.3882
21238SOL     OW67211   3.423   6.148   3.029 -0.7437  0.5889  0.5269
21238SOL    HW167212   3.400   6.055   3.023 -1.9400  0.9073 -0.0951
21238SOL    HW267213   3.345   6.189   3.066 -0.6481  1.4987 -0.2559
21239SOL     OW67214   2.101   6.464   8.948 -0.0983  0.2544 -0.0990
21239SOL    HW167215   2.141   6.474   9.035  0.3255  0.1113 -0.2739
21239SOL    HW267216   2.097   6.370   8.934 -0.7820  0.2572  0.0411
21240SOL     OW67217   6.517   4.411   6.872  0.7209  0.1070 -0.1470
21240SOL    HW167218   6.528   4.470   6.798  2.2926 -0.0431 -0.0633
21240SOL    HW267219   6.533   4.465   6.949  0.3587 -0.0239  0.0231
21241SOL     OW67220   4.913   9.683   0.838  0.2458  0.0145 -0.1719
21241SOL    HW167221   4.823   9.701   0.863  0.4127 -0.6388  0.9750
21241SOL    HW267222   4.956   9.657   0.919  0.6109 -3.1922 -1.2685
21242SOL     OW67223   6.491   7.067   1.294 -0.2053 -0.0631 -0.3360
21242SOL    HW167224   6.573   7.028   1.324  0.4012  0.4988 -1.2204
21242SOL    HW267225   6.512   7.159   1.281 -1.0320  0.1219 -0.4069
21243SOL     OW67226   6.805   6.958   7.366  0.6749  0.4853  0.5853
21243SOL    HW167227   6.740   6.892   7.340  0.4655  0.8859  0.0642
21243SOL    HW267228   6.781   7.036   7.316  1.7080  0.5662  0.1775
21244SOL     OW67229   4.588   0.580   2.592 -0.0949  0.4206 -0.0533
21244SOL    HW167230   4.523   0.602   2.525  0.3533 -1.5370 -1.2123
21244SOL    HW267231   4.631   0.663   2.613 -1.0932  1.2799 -1.2682
21245SOL     OW67232   1.737   1.521  10.145  0.3148 -0.0320 -0.0125
21245SOL    HW167233   1.750   1.488  10.056 -0.9866 -2.4706  0.6152
21245SOL    HW267234   1.826   1.534  10.178  0.8260  1.7495 -1.9012
21246SOL     OW67235   5.333   2.232   7.635  0.5942  0.2249  0.5934
21246SOL    HW167236   5.403   2.269   7.689  0.3506 -0.4552  1.3975
21246SOL    HW267237   5.377   2.164   7.583  0.5949  0.0418  0.8347
21247SOL     OW67238   6.220   4.981   0.630  0.2004 -0.2405  0.6772
21247SOL    HW167239   6.309   5.014   0.645  1.0607 -2.0424 -0.1427
21247SOL    HW267240   6.202   5.001   0.538 -0.0173 -0.4000  0.6851
21248SOL     OW67241  10.423   3.333   0.521 -0.3677 -0.7343  0.4133
21248SOL    HW167242  10.401   3.240   0.521 -0.6059 -0.6789  0.4608
21248SOL    HW267243  10.509   3.337   0.478 -0.0721 -1.0381  0.9714
21249SOL     OW67244   3.905   4.311   0.564  0.0305  0.1857  0.1062
21249SOL    HW167245   3.826   4.311   0.510  0.7885 -0.3135 -1.0304
21249SOL    HW267246   3.874   4.338   0.650 -1.6689 -1.5372  0.1146
21250SOL     OW67247   0.786   6.882   8.281 -0.1007  0.2457  0.5279
21250SOL    HW167248   0.854   6.932   8.237  0.1587  0.4894  1.1921
21250SOL    HW267249   0.794   6.793   8.246 -0.9815  0.7862 -1.1467
21251SOL     OW67250   0.496   8.598   2.722 -0.3604  0.5000 -0.2878
21251SOL    HW167251   0.450   8.562   2.797 -0.6276  0.6691 -0.3703
21251SOL    HW267252   0.481   8.535   2.652 -2.4212  1.6720 -0.9682
21252SOL     OW67253   1.743   9.820   7.788 -0.4110  0.4277 -0.4580
21252SOL    HW167254   1.712   9.833   7.698 -2.0256  1.8880  0.2521
21252SOL    HW267255   1.838   9.832   7.783 -0.5913  1.5095 -1.8118
21253SOL     OW67256   5.428   5.487   9.058 -0.2081  0.3777 -0.4079
21253SOL    HW167257   5.460   5.461   8.971 -1.4232 -1.9772 -0.2372
21253SOL    HW267258   5.446   5.411   9.113 -1.0766  1.1536  0.9929
21254SOL     OW67259   7.120   6.132   8.215  0.1795 -0.0059  0.4821
21254SOL    HW167260   7.028   6.142   8.191  0.3001 -1.4830 -0.7061
21254SOL    HW267261   7.150   6.055   8.167  2.4613  1.3168 -0.4311
21255SOL     OW67262   8.329   8.972   2.197  0.5520 -0.2526  0.9316
21255SOL    HW167263   8.319   8.894   2.251 -0.2690 -0.3488  0.6606
21255SOL    HW267264   8.405   8.954   2.143  0.5423 -0.7463  1.0751
21256SOL     OW67265   1.803  10.238   5.638  0.0082 -0.0778  0.3226
21256SOL    HW167266   1.846  10.153   5.636 -0.5619 -0.3914  1.0110
21256SOL    HW267267   1.779  10.251   5.730 -0.4580  0.5504  0.1229
21257SOL     OW67268   0.334   6.122   2.501  0.2971 -0.3958  0.7909
21257SOL    HW167269   0.245   6.131   2.536  0.5545  0.4958  1.2292
21257SOL    HW267270   0.340   6.030   2.475 -1.8282  0.1812 -2.2199
21258SOL     OW67271   6.288   4.839   8.427 -0.7641  0.0232  0.2274
21258SOL    HW167272   6.276   4.750   8.460  0.0569  0.0019  0.4799
21258SOL    HW267273   6.311   4.828   8.335 -1.5182  0.0187  0.0314
21259SOL     OW67274   4.541   5.684   8.932 -0.1433  0.7081 -0.4483
21259SOL    HW167275   4.568   5.772   8.958 -1.6563  0.1806  3.6776
21259SOL    HW267276   4.448   5.680   8.954 -0.2257 -1.7920 -0.9434
21260SOL     OW67277   8.389   4.107   3.755  0.6002  0.1116  0.0914
21260SOL    HW167278   8.327   4.099   3.683  0.1019 -0.1962  0.5505
21260SOL    HW267279   8.412   4.200   3.756  0.7255  0.0912 -0.5554
21261SOL     OW67280  10.309  10.002  10.739  0.3613 -0.1610  0.1608
21261SOL    HW167281  10.219  10.028  10.759 -0.7888 -2.9778 -0.9133
21261SOL    HW267282  10.317  10.013  10.645  0.0819 -2.6895 -0.2186
21262SOL     OW67283   7.813   3.421   7.410  0.3630  0.1305  0.2151
21262SOL    HW167284   7.726   3.444   7.379 -0.8252 -3.3157  0.5755
21262SOL    HW267285   7.810   3.440   7.504  0.6712  1.5924 -0.0344
21263SOL     OW67286   9.359   0.828   8.427  0.1870  0.0423 -0.5371
21263SOL    HW167287   9.271   0.830   8.388 -0.0198 -0.2873 -0.0994
21263SOL    HW267288   9.367   0.913   8.472 -0.1821 -0.2044  0.0040
21264SOL     OW67289  10.705   2.430   8.407 -0.1144  0.5230  0.2158
21264SOL    HW167290  10.755   2.482   8.343 -1.1062  0.5597 -0.5445
21264SOL    HW267291  10.737   2.341   8.395  0.8318  0.7604  0.7869
21265SOL     OW67292   2.790   4.255   8.262  0.3419 -0.8382 -0.1044
21265SOL    HW167293   2.764   4.343   8.233 -0.7158 -1.2649 -0.5046
21265SOL    HW267294   2.873   4.239   8.217  0.2846 -0.2438 -0.4353
21266SOL     OW67295   4.531   4.257   1.549 -0.3565  0.0685  0.2542
21266SOL    HW167296   4.597   4.202   1.593 -0.1587 -1.2511 -1.5627
21266SOL    HW267297   4.481   4.195   1.496 -1.3872  1.4258 -0.3961
21267SOL     OW67298   9.995   4.390   4.875  0.1631 -0.3906  0.0638
21267SOL    HW167299   9.982   4.339   4.796 -1.2513 -1.2402  0.8063
21267SOL    HW267300  10.057   4.459   4.850  1.8448 -2.2230 -1.0654
21268SOL     OW67301   8.292  10.414   5.488  0.4011 -0.4882  0.3529
21268SOL    HW167302   8.210  10.435   5.445  1.4813  3.2009 -0.2852
21268SOL    HW267303   8.324  10.498   5.522  4.0339 -1.6522  0.3131
21269SOL     OW67304   9.417   2.613   7.908 -0.1637 -0.3144  0.3111
21269SOL    HW167305   9.438   2.641   7.819 -1.2129 -0.2941  0.0609
21269SOL    HW267306   9.341   2.666   7.932 -1.6888 -2.3296  0.1332
21270SOL     OW67307   8.935   7.562   8.141  0.0878  0.3922 -0.3696
21270SOL    HW167308   9.027   7.541   8.130 -0.2004  0.2593 -3.3760
21270SOL    HW267309   8.934   7.644   8.190  1.8034  0.5769 -0.5918
21271SOL     OW67310   5.158   8.012   5.732  0.0474 -0.2465  0.0834
21271SOL    HW167311   5.205   7.938   5.694  0.0639  0.5776 -1.5930
21271SOL    HW267312   5.110   8.051   5.659 -0.9369  0.6887  1.1659
21272SOL     OW67313   5.131   5.378   7.109  0.2695 -0.0738 -0.0728
21272SOL    HW167314   5.135   5.383   7.204 -3.0569  0.9423  0.1312
21272SOL    HW267315   5.100   5.464   7.081  0.5280 -0.5602 -2.0270
21273SOL     OW67316   0.367   7.223   9.781 -0.2540  0.1718  0.0823
21273SOL    HW167317   0.294   7.243   9.721  1.0432  0.6408 -1.4197
21273SOL    HW267318   0.369   7.298   9.841 -1.1929 -0.0002  0.3470
21274SOL     OW67319   0.541   3.118   7.298  0.0670  0.6142 -0.2751
21274SOL    HW167320   0.483   3.061   7.247  1.1149 -0.5148 -0.2677
21274SOL    HW267321   0.485   3.153   7.368 -1.1948  1.5726 -1.7028
21275SOL     OW67322  10.051   4.173   8.036  0.3410  0.0901 -0.0550
21275SOL    HW167323  10.023   4.142   8.122 -0.3456  0.5209 -0.1228
21275SOL    HW267324   9.973   4.166   7.981  0.5195  0.7348 -0.3988
21276SOL     OW67325   7.948   6.527   1.587 -0.1320  0.1761  0.1136
21276SOL    HW167326   7.871   6.475   1.563 -0.2018 -0.5213  1.7447
21276SOL    HW267327   7.955   6.519   1.682 -0.0453  3.0339  0.4518
21277SOL     OW67328   2.671   8.508  10.833 -0.2709 -0.5007 -0.4233
21277SOL    HW167329   2.756   8.464  10.825  1.0486  1.5387  1.3641
21277SOL    HW267330   2.647   8.528  10.742  1.5767 -0.3966 -0.9487
21278SOL     OW67331   2.469   9.121   1.195  0.0344  0.4264  0.3189
21278SOL    HW167332   2.531   9.096   1.262 -0.3783 -1.4315  0.0666
21278SOL    HW267333   2.391   9.067   1.212 -0.2431  0.2219 -1.3388
21279SOL     OW67334   4.864   2.712   6.909  0.5700 -0.1201 -0.5854
21279SOL    HW167335   4.941   2.673   6.868  0.7921  0.3468 -0.6225
21279SOL    HW267336   4.832   2.775   6.845  0.2829 -0.1578 -0.4804
21280SOL     OW67337   0.622   6.100   9.128  0.2018  0.8028 -0.1182
21280SOL    HW167338   0.551   6.163   9.115 -0.5407  0.1659  0.7356
21280SOL    HW267339   0.579   6.015   9.125  1.2476  0.2869 -1.5906
21281SOL     OW67340   7.702   1.079   4.751  0.0259  0.2525 -0.0001
21281SOL    HW167341   7.788   1.042   4.771 -0.6080 -0.0948  2.3330
21281SOL    HW267342   7.703   1.166   4.790  0.3357  1.5351 -2.6321
21282SOL     OW67343   2.094   4.438   2.538 -0.1435  0.6706 -0.2656
21282SOL    HW167344   2.078   4.475   2.451 -0.7883 -0.0066 -0.4396
21282SOL    HW267345   2.176   4.390   2.529  0.2996  1.3919 -0.2342
21283SOL     OW67346   5.402   3.092   6.444 -0.4359  0.0871 -0.2384
21283SOL    HW167347   5.348   3.031   6.493  1.1387 -0.4841  0.8943
21283SOL    HW267348   5.342   3.137   6.385 -1.8462 -1.5691 -0.1123
21284SOL     OW67349   0.323   6.891   6.379 -0.2900 -0.3314  0.1014
21284SOL    HW167350   0.282   6.930   6.457  0.4533 -0.2192  0.4507
21284SOL    HW267351   0.402   6.944   6.365  1.0914 -2.0735  0.9712
21285SOL     OW67352  10.518   9.417   6.521 -0.4843  0.7709 -0.2588
21285SOL    HW167353  10.556   9.464   6.446 -0.3612  1.3008  0.1291
21285SOL    HW267354  10.516   9.482   6.591  0.8771 -0.1405  0.6860
21286SOL     OW67355   8.683  10.687   8.867 -0.0452 -0.6763 -0.6909
21286SOL    HW167356   8.681  10.762   8.807 -2.0517 -0.1223 -0.0363
21286SOL    HW267357   8.775  10.675   8.889  0.4765  0.6069 -2.0262
21287SOL     OW67358   1.692   2.741   8.420  0.0695  0.3742  0.3245
21287SOL    HW167359   1.774   2.753   8.468  0.1825  0.9509 -0.0050
21287SOL    HW267360   1.643   2.677   8.472  0.4711  0.4765  0.8383
21288SOL     OW67361   2.211   3.696   6.305 -0.5059 -0.7727 -0.6280
21288SOL    HW167362   2.300   3.730   6.304 -0.3024 -1.3010 -0.6498
21288SOL    HW267363   2.180   3.710   6.394 -0.3743 -0.6646 -0.6001
21289SOL     OW67364  10.488   1.992   5.273  0.2436 -0.1325  0.0037
21289SOL    HW167365  10.564   1.993   5.215  0.2452 -0.2788  0.0042
21289SOL    HW267366  10.454   2.082   5.269  0.8198  0.1129  0.5389
21290SOL     OW67367   5.416   1.478   4.757  0.1994  0.0885  0.2764
21290SOL    HW167368   5.510   1.497   4.761  0.0953  0.7304 -0.1609
21290SOL    HW267369   5.409   1.403   4.697  0.4902 -0.4095  0.8624
21291SOL     OW67370   4.542   5.300   8.954 -1.3774 -0.7437  0.3712
21291SOL    HW167371   4.518   5.273   9.042 -1.1356  1.3919  1.1421
21291SOL    HW267372   4.461   5.337   8.917 -0.9436  0.3741  0.5228
21292SOL     OW67373   1.528  10.051   1.042 -0.3835  0.3093 -0.3746
21292SOL    HW167374   1.572   9.969   1.062  0.2074  0.6938 -0.0550
21292SOL    HW267375   1.596  10.117   1.049 -1.2919  1.1110  1.5532
21293SOL     OW67376   4.693   7.094   7.600 -0.0723 -0.6082  0.5241
21293SOL    HW167377   4.639   7.054   7.532  1.1209 -1.0351 -0.2026
21293SOL    HW267378   4.635   7.155   7.645 -1.4343 -1.8287  0.4667
21294SOL     OW67379   0.739   1.860   6.826  0.3539  0.2928 -0.0989
21294SOL    HW167380   0.777   1.877   6.913  1.0542  1.3853 -0.5917
21294SOL    HW267381   0.812   1.825   6.775 -0.1539 -0.7148 -0.1636
21295SOL     OW67382   5.887  10.009   6.202 -0.0242  0.4325  0.2722
21295SOL    HW167383   5.980   9.991   6.194 -0.1658 -0.6472  0.7727
21295SOL    HW267384   5.852   9.932   6.247 -1.2046  0.6773 -0.1843
21296SOL     OW67385   0.813   8.581   7.926 -0.2888 -0.3662  0.4736
21296SOL    HW167386   0.726   8.540   7.930 -0.5938  0.3326  1.9486
21296SOL    HW267387   0.867   8.527   7.984  0.5918 -1.4486 -1.2936
21297SOL     OW67388   4.418   7.761   9.998  0.4089 -0.1473 -0.1300
21297SOL    HW167389   4.333   7.796   9.972  0.3105 -0.6687 -0.5275
21297SOL    HW267390   4.402   7.719  10.083  0.3288 -0.0195 -0.0820
21298SOL     OW67391   7.552   7.712  10.039 -0.2541 -0.1947 -0.4825
21298SOL    HW167392   7.542   7.711   9.944  0.2566 -0.4419 -0.5383
21298SOL    HW267393   7.505   7.790  10.067 -0.3875 -0.1059 -0.9438
21299SOL     OW67394   8.021   7.273   7.497  0.0029  0.7336 -0.3273
21299SOL    HW167395   7.933   7.297   7.467  0.9020  1.7889 -2.2714
21299SOL    HW267396   8.037   7.188   7.457 -0.4545  0.0823  0.8105
21300SOL     OW67397   5.071   4.117   2.973  0.1394 -0.0836  0.0836
21300SOL    HW167398   5.077   4.139   2.880  0.1093  0.8628  0.2966
21300SOL    HW267399   5.123   4.184   3.017  0.4540 -0.7395  0.7206
21301SOL     OW67400   8.171   1.430   5.332 -0.1850  0.1179  0.4492
21301SOL    HW167401   8.102   1.476   5.381  2.4449  3.5170  1.3565
21301SOL    HW267402   8.227   1.393   5.399  0.8320  0.6081 -0.1120
21302SOL     OW67403   1.039   1.024   2.941  0.2900  0.3390 -0.1591
21302SOL    HW167404   1.046   0.936   2.905  1.3942  0.4600 -0.2952
21302SOL    HW267405   0.957   1.025   2.990  0.7359 -1.0731  0.6672
21303SOL     OW67406   7.359   6.910   8.921  0.0347 -0.1276  0.1451
21303SOL    HW167407   7.385   7.002   8.918 -0.4357  0.0488  1.1118
21303SOL    HW267408   7.423   6.868   8.978 -0.3564 -0.1931  0.5347
21304SOL     OW67409  10.564   2.071   9.962  0.2403  0.5026 -0.4855
21304SOL    HW167410  10.590   1.989  10.003  1.2123  1.3166  0.5811
21304SOL    HW267411  10.474   2.056   9.932  0.5160 -1.0443 -0.6149
21305SOL     OW67412   9.797   4.003  10.797  0.1645  0.1058 -0.5633
21305SOL    HW167413   9.889   4.011  10.775 -0.1749  0.4588 -1.9431
21305SOL    HW267414   9.794   3.933  10.863  1.2803 -0.7599 -1.3932
21306SOL     OW67415   4.822   6.168   8.911 -0.1699 -0.8727 -0.3273
21306SOL    HW167416   4.811   6.224   8.834 -2.3094  0.0799  0.5756
21306SOL    HW267417   4.797   6.223   8.985 -0.0394 -2.3278  0.8556
21307SOL     OW67418   7.845   7.742   4.220  0.5649 -0.6285 -0.7107
21307SOL    HW167419   7.934   7.705   4.221  0.4070 -1.1636  2.2998
21307SOL    HW267420   7.858   7.836   4.234  0.6765 -0.7723  0.2268
21308SOL     OW67421   9.578   9.542   0.206 -0.3880 -0.0523  0.4545
21308SOL    HW167422   9.643   9.564   0.273  0.9130 -2.6266  0.1804
21308SOL    HW267423   9.601   9.598   0.132  0.7098  0.0301  0.8330
21309SOL     OW67424   2.200  10.653   6.601 -0.0986  0.0131 -0.1028
21309SOL    HW167425   2.247  10.640   6.683 -1.1718 -1.6930  0.2847
21309SOL    HW267426   2.268  10.676   6.537  0.8421  0.5721  1.0615
21310SOL     OW67427   1.173   2.350   0.910  0.0474  0.1723  0.5844
21310SOL    HW167428   1.182   2.375   1.002 -0.3081  0.0965  0.6427
21310SOL    HW267429   1.136   2.427   0.867 -0.0316  0.1174  0.5541
21311SOL     OW67430   7.996   4.630   0.034 -0.3082  0.3423 -0.0412
21311SOL    HW167431   7.918   4.576   0.050 -0.1306  0.8282  3.1399
21311SOL    HW267432   7.961   4.718   0.017 -0.4864  0.2900  0.0492
21312SOL     OW67433   5.370   3.892   3.487  0.0261  0.1937  0.0759
21312SOL    HW167434   5.380   3.863   3.578 -1.2019  0.7138  0.3890
21312SOL    HW267435   5.322   3.974   3.493 -0.9191 -0.2549 -1.0913
21313SOL     OW67436   7.945   9.164   3.378  0.8493 -0.2511  0.2443
21313SOL    HW167437   7.849   9.170   3.382  0.8464 -0.1232  0.0161
21313SOL    HW267438   7.975   9.210   3.456  0.7381  0.2624 -0.0061
21314SOL     OW67439   1.694   2.587   8.977 -0.0379 -0.0411 -0.0789
21314SOL    HW167440   1.717   2.541   9.058  0.0207 -1.5986 -0.9363
21314SOL    HW267441   1.661   2.672   9.006 -0.1052 -0.5966  1.5836
21315SOL     OW67442  10.573   6.616   4.651  0.0092  0.2222  0.2876
21315SOL    HW167443  10.545   6.650   4.566  0.0262  0.2645  0.2984
21315SOL    HW267444  10.498   6.631   4.708 -0.6342 -1.3073 -0.1062
21316SOL     OW67445   3.010   1.455   4.753 -0.0414  0.5693  0.7114
21316SOL    HW167446   2.994   1.365   4.781 -0.4594  0.8081  1.2627
21316SOL    HW267447   3.101   1.455   4.723 -0.0609 -0.0493  0.6317
21317SOL     OW67448   8.463   5.932   7.880 -0.3456 -0.1980 -0.1279
21317SOL    HW167449   8.519   5.973   7.947  1.8698 -1.5909 -1.0190
21317SOL    HW267450   8.430   5.853   7.923  0.4976 -0.7185 -0.4124
21318SOL     OW67451   5.781   9.636   1.734  0.3506  0.2355 -0.3007
21318SOL    HW167452   5.810   9.559   1.686  0.3673  1.3893 -2.2258
21318SOL    HW267453   5.689   9.617   1.756  0.5717 -0.6260 -0.0967
21319SOL     OW67454  10.529   6.133   2.259  0.0506  0.3291 -0.0264
21319SOL    HW167455  10.584   6.102   2.332 -1.1492 -1.3417  0.2446
21319SOL    HW267456  10.522   6.057   2.201 -2.2710  0.3232  0.1710
21320SOL     OW67457   0.926   1.751   8.640 -0.4540  0.1958  0.2921
21320SOL    HW167458   0.885   1.837   8.648 -1.6896 -0.4267  0.8431
21320SOL    HW267459   0.859   1.689   8.671  0.5387 -0.9330  0.2481
21321SOL     OW67460  10.141   3.744   4.849  0.4321  0.1829 -0.9253
21321SOL    HW167461  10.219   3.771   4.800  0.8630  0.9144  0.1312
21321SOL    HW267462  10.088   3.697   4.785  2.0400 -0.9329 -1.4946
21322SOL     OW67463   3.310   9.777   2.437 -0.3791 -0.4585  0.1710
21322SOL    HW167464   3.283   9.688   2.415 -1.4144 -0.3765  1.0743
21322SOL    HW267465   3.334   9.773   2.530  0.1944  0.0681  0.0537
21323SOL     OW67466   3.282   0.871   3.477 -0.5018 -0.1293 -0.8822
21323SOL    HW167467   3.239   0.791   3.508  1.5930 -0.8743  0.3458
21323SOL    HW267468   3.374   0.846   3.469 -0.1095  1.6364 -2.4576
21324SOL     OW67469   8.938   8.622   6.209  0.9474 -0.3329 -0.0196
21324SOL    HW167470   8.893   8.563   6.149  1.5909  0.0347 -0.8880
21324SOL    HW267471   9.028   8.591   6.211  1.9320  1.9946 -2.4250
21325SOL     OW67472  10.529   4.904  10.137  0.3736 -0.0067  0.1952
21325SOL    HW167473  10.446   4.858  10.149  0.3805 -0.4076 -1.2083
21325SOL    HW267474  10.505   4.989  10.101  0.4520  0.6852  1.6840
21326SOL     OW67475   2.740   3.778   6.249  0.1778 -0.2242  0.4514
21326SOL    HW167476   2.814   3.745   6.299  0.7757  2.3079  1.4189
21326SOL    HW267477   2.776   3.798   6.163  1.0430  2.1021  1.2629
21327SOL     OW67478  10.730   6.092   8.958  0.0051  0.2072  0.1843
21327SOL    HW167479  10.799   6.026   8.949  0.7767  1.0135  0.0145
21327SOL    HW267480  10.651   6.048   8.928  0.6646 -0.3860 -0.7462
21328SOL     OW67481   2.431   0.853   0.970  0.0629  0.5684  1.1247
21328SOL    HW167482   2.484   0.912   1.024  2.5657  1.3291 -1.8966
21328SOL    HW267483   2.372   0.910   0.921  0.6510  0.3359  0.1209
21329SOL     OW67484   7.623  10.644   0.401 -0.2750 -0.3273 -0.1259
21329SOL    HW167485   7.571  10.573   0.438 -0.5626 -0.7885 -1.3892
21329SOL    HW267486   7.578  10.669   0.321  1.8977 -1.4052 -1.8015
21330SOL     OW67487   9.730   3.698   8.402  0.3775  0.6233  0.2154
21330SOL    HW167488   9.651   3.645   8.405  0.2898  0.7760  0.7450
21330SOL    HW267489   9.731   3.736   8.314 -0.7085  1.4733  0.5441
21331SOL     OW67490   4.222  10.001   2.628  0.6234  0.0475  0.0499
21331SOL    HW167491   4.148  10.058   2.607 -0.2630 -0.9098  0.4528
21331SOL    HW267492   4.299  10.047   2.593 -0.3117  0.4056 -1.6624
21332SOL     OW67493   3.184   0.754   4.644  0.8122 -0.0260 -0.7278
21332SOL    HW167494   3.260   0.709   4.606  0.7072 -1.1104  0.2933
21332SOL    HW267495   3.109   0.718   4.597  0.7487 -0.7742 -0.0780
21333SOL     OW67496   7.052   0.116   1.360 -0.0413  0.3046  0.4138
21333SOL    HW167497   7.128   0.172   1.341  0.2485  0.0166  0.7181
21333SOL    HW267498   7.087   0.027   1.357  0.1059  0.2351  2.5922
21334SOL     OW67499   2.085   1.524   4.075 -0.2886  0.6568 -0.2993
21334SOL    HW167500   2.111   1.462   4.143 -2.3439 -2.0005 -1.6895
21334SOL    HW267501   2.165   1.570   4.051  0.4219  2.2533  4.2305
21335SOL     OW67502   8.692   4.090   1.786 -0.0786 -0.0603  0.4143
21335SOL    HW167503   8.716   4.028   1.718  0.0797  0.3382  0.1036
21335SOL    HW267504   8.649   4.162   1.739  1.2739  0.8739  0.5613
21336SOL     OW67505   5.463   9.529   1.083 -0.9407 -0.4930  0.1177
21336SOL    HW167506   5.458   9.557   0.991 -1.2725 -0.3214  0.1862
21336SOL    HW267507   5.379   9.558   1.121 -0.4580  0.1886  0.6868
21337SOL     OW67508   5.282   1.849   6.755  0.3167 -0.1665  0.0042
21337SOL    HW167509   5.255   1.938   6.733 -1.3818 -0.4178  0.9245
21337SOL    HW267510   5.325   1.856   6.840 -0.0465 -0.2645  0.1953
21338SOL     OW67511   4.862   1.765   3.862 -0.3458 -0.3524  0.2635
21338SOL    HW167512   4.884   1.727   3.947  1.9936  0.7021  0.1999
21338SOL    HW267513   4.930   1.732   3.802  0.0867  1.6040 -0.4056
21339SOL     OW67514   4.945   9.702   8.974 -0.4304 -0.2543 -0.2471
21339SOL    HW167515   5.029   9.677   9.013 -1.0464 -0.4521  0.9827
21339SOL    HW267516   4.970   9.754   8.897  0.8456  1.2586  1.1074
21340SOL     OW67517   4.317   6.274   8.841 -0.3879 -0.1729 -0.0294
21340SOL    HW167518   4.283   6.329   8.771  2.7792  1.0793 -0.7790
21340SOL    HW267519   4.347   6.337   8.908  2.5404 -0.8651 -0.5267
21341SOL     OW67520   6.868   0.227   6.418 -0.1742  0.0207 -0.7601
21341SOL    HW167521   6.824   0.165   6.476  0.6937 -0.4303 -0.5532
21341SOL    HW267522   6.961   0.202   6.424  0.0534  0.6688 -1.4962
21342SOL     OW67523   7.778   1.092   9.182 -0.0880 -0.2644 -0.1101
21342SOL    HW167524   7.858   1.046   9.158  1.2358  1.7937  0.0387
21342SOL    HW267525   7.754   1.055   9.267 -0.0725 -1.8241 -0.7566
21343SOL     OW67526   9.443   7.552   2.212 -0.2981  0.2798 -0.1444
21343SOL    HW167527   9.452   7.522   2.303 -2.9055 -0.4868 -0.0632
21343SOL    HW267528   9.367   7.610   2.213 -0.9721 -0.5002 -1.9808
21344SOL     OW67529   5.875   6.398   9.737  0.2018 -0.7792 -0.3050
21344SOL    HW167530   5.829   6.375   9.656  0.4918 -0.0931 -0.6720
21344SOL    HW267531   5.943   6.459   9.709 -0.8040  0.8724  0.6720
21345SOL     OW67532   3.594   9.620   9.510 -0.0767  0.0541  0.2335
21345SOL    HW167533   3.633   9.648   9.427 -0.1897 -1.3018 -0.2928
21345SOL    HW267534   3.571   9.528   9.497 -1.1951  0.1414  1.3744
21346SOL     OW67535   0.349   5.347   4.013 -0.5720  0.1378  0.1560
21346SOL    HW167536   0.296   5.337   4.092 -1.3077  3.2953  0.1951
21346SOL    HW267537   0.376   5.438   4.013  2.5518 -0.6325 -1.3840
21347SOL     OW67538   4.270   0.372   0.376  0.2185 -0.2959  0.2717
21347SOL    HW167539   4.190   0.327   0.350 -0.5328  0.9264  0.4161
21347SOL    HW267540   4.329   0.302   0.404 -1.0658 -1.1494  0.9032
21348SOL     OW67541   5.254   8.791   4.904 -0.0890 -1.1116 -0.6412
21348SOL    HW167542   5.246   8.746   4.821 -0.6673 -1.2147 -0.5296
21348SOL    HW267543   5.262   8.721   4.969 -0.5233 -1.0449 -0.5166
21349SOL     OW67544   6.163   5.479   6.469 -0.1254 -0.0792  0.5125
21349SOL    HW167545   6.130   5.569   6.467 -0.8334 -0.3265 -1.5621
21349SOL    HW267546   6.256   5.487   6.447 -0.2661  0.1267 -0.0195
21350SOL     OW67547   3.702  10.337   4.144 -0.0240 -0.5334 -0.0470
21350SOL    HW167548   3.761  10.334   4.219  1.1307 -1.3838 -0.9559
21350SOL    HW267549   3.758  10.361   4.070 -1.2952  1.1813 -0.5269
21351SOL     OW67550   3.361  10.832   3.958 -0.3707 -0.3093  0.0240
21351SOL    HW167551   3.300  10.872   4.020 -2.2798 -1.9745 -0.6708
21351SOL    HW267552   3.329  10.861   3.872  1.3626  0.7864 -0.3132
21352SOL     OW67553  10.448   6.051  10.223 -0.1094  0.2062  0.2440
21352SOL    HW167554  10.515   5.988  10.249  1.2635  0.3825 -2.5720
21352SOL    HW267555  10.367   6.001  10.222  0.9022 -1.5290 -1.5969
21353SOL     OW67556   9.219   5.528   4.408 -0.2923 -0.0285  0.1365
21353SOL    HW167557   9.212   5.459   4.342  0.5655 -1.0151  1.0228
21353SOL    HW267558   9.297   5.504   4.458  0.4065  1.9601  0.0662
21354SOL     OW67559   3.036   3.728   6.276 -0.0521 -0.2516  0.5379
21354SOL    HW167560   3.099   3.793   6.243  1.2755 -1.2825  0.9765
21354SOL    HW267561   3.021   3.753   6.367 -0.6985  0.3014  0.2860
21355SOL     OW67562   9.138   3.194   2.977  0.3617 -0.2170 -0.1202
21355SOL    HW167563   9.135   3.124   3.042 -0.0750  0.0919  0.1921
21355SOL    HW267564   9.197   3.259   3.015 -1.3889  0.8630  0.8868
21356SOL     OW67565   9.051   6.671   1.209 -0.4581 -0.2441  1.1478
21356SOL    HW167566   9.033   6.606   1.141  2.9220 -0.7002  0.5001
21356SOL    HW267567   9.075   6.620   1.286  1.7931  0.1256  0.7647
21357SOL     OW67568   5.985   9.100   0.772  0.1347 -0.2832 -0.5017
21357SOL    HW167569   6.062   9.134   0.818 -0.3048  0.8197 -0.5749
21357SOL    HW267570   5.976   9.011   0.806  0.0456  0.3720  1.3029
21358SOL     OW67571   8.856   1.006   2.805  0.3185  0.1133 -0.1376
21358SOL    HW167572   8.870   1.076   2.741 -0.0145 -0.6385 -1.0653
21358SOL    HW267573   8.812   1.049   2.879  2.3619  1.3621  0.4183
21359SOL     OW67574   9.890   3.721   9.251 -0.2434 -0.4205  0.3349
21359SOL    HW167575   9.973   3.737   9.296 -0.0691 -1.2615  0.3203
21359SOL    HW267576   9.916   3.689   9.165 -0.5588  1.7257 -0.6202
21360SOL     OW67577   3.381   0.734   8.838  0.2096  0.4667  0.1032
21360SOL    HW167578   3.320   0.660   8.836 -1.7902  1.9858  0.5494
21360SOL    HW267579   3.410   0.743   8.747 -2.3233  1.2179 -0.7433
21361SOL     OW67580   3.740   6.799  10.469 -0.2515  0.2624  0.2770
21361SOL    HW167581   3.682   6.726  10.493  0.9358 -0.6835  0.3522
21361SOL    HW267582   3.715   6.820  10.379 -2.3523  1.5100  1.0812
21362SOL     OW67583   3.636   3.290   3.608  0.2017 -0.0235  0.3820
21362SOL    HW167584   3.643   3.217   3.669  0.6732  0.6036  1.1156
21362SOL    HW267585   3.631   3.250   3.522 -1.3442 -0.9726  0.8664
21363SOL     OW67586   4.584   3.665   3.930  0.3992  0.0248 -0.3297
21363SOL    HW167587   4.555   3.640   4.017  0.1722  1.1562 -0.0641
21363SOL    HW267588   4.661   3.611   3.913  1.6750  1.1949  1.4158
21364SOL     OW67589   7.203   9.204   8.066 -0.5889 -0.2677 -0.1147
21364SOL    HW167590   7.194   9.109   8.061 -0.2121 -0.3025 -0.1696
21364SOL    HW267591   7.297   9.219   8.062 -0.7120  0.2049 -2.0016
21365SOL     OW67592   3.973   2.055   4.778  0.5888 -0.0746  0.1302
21365SOL    HW167593   3.982   2.149   4.796  0.4444 -0.2469  1.1704
21365SOL    HW267594   3.925   2.021   4.854 -0.9887 -0.6790 -1.0917
21366SOL     OW67595   6.271   5.067   1.894 -0.0998 -0.2505 -0.0386
21366SOL    HW167596   6.250   5.067   1.801 -0.2145  1.1437 -0.0397
21366SOL    HW267597   6.347   5.010   1.902 -0.9308 -1.4984 -0.7641
21367SOL     OW67598   9.431   9.587   9.575 -0.8597 -0.6094 -0.4658
21367SOL    HW167599   9.520   9.558   9.560 -0.6441  0.3307 -1.1183
21367SOL    HW267600   9.438   9.682   9.588 -1.7863 -0.4711 -0.8624
21368SOL     OW67601   6.127   1.399  10.616 -0.0991 -0.1446  0.1878
21368SOL    HW167602   6.139   1.304  10.618 -0.9077 -0.3535 -1.8351
21368SOL    HW267603   6.214   1.434  10.598  0.1036 -0.5570  0.3490
21369SOL     OW67604   8.685   9.865   8.653  0.0862 -0.1157  0.2284
21369SOL    HW167605   8.617   9.916   8.697  1.3291  0.3182  1.7635
21369SOL    HW267606   8.691   9.904   8.566 -1.6312 -0.1985  0.0396
21370SOL     OW67607   3.004   1.204   2.864  0.3827 -0.0693 -0.2508
21370SOL    HW167608   3.084   1.181   2.816 -0.7183 -0.1733 -2.1642
21370SOL    HW267609   2.991   1.131   2.925  1.4600 -0.3047 -0.2838
21371SOL     OW67610   5.433   7.070   4.657 -0.5019 -0.5500 -0.1016
21371SOL    HW167611   5.496   7.047   4.589 -0.3916 -0.1955 -0.1221
21371SOL    HW267612   5.374   7.132   4.614 -0.3611 -0.2347  0.1619
21372SOL     OW67613   9.582   4.559   9.288  0.4209 -0.0231  0.0625
21372SOL    HW167614   9.559   4.595   9.202  0.2740 -1.5481 -0.5686
21372SOL    HW267615   9.600   4.636   9.342  0.1093  0.9843 -1.2130
21373SOL     OW67616   5.018   7.967   9.515  0.6823  1.0030 -0.2402
21373SOL    HW167617   5.002   7.957   9.421 -0.7677 -0.6088  0.1242
21373SOL    HW267618   5.025   7.877   9.548 -0.4837  1.4759  1.4352
21374SOL     OW67619   3.591   6.486   4.497 -0.2804 -0.5293 -0.4330
21374SOL    HW167620   3.574   6.496   4.591  3.0460 -1.0736  0.3396
21374SOL    HW267621   3.653   6.413   4.492 -0.7598 -0.8474 -3.1373
21375SOL     OW67622   2.115  10.785   7.285  0.2680 -0.3344 -0.8380
21375SOL    HW167623   2.147  10.842   7.356  0.4992 -0.1260 -1.1071
21375SOL    HW267624   2.142  10.697   7.312 -0.4027 -0.3651 -0.2482
21376SOL     OW67625   4.209   9.336  10.073  0.2282  0.3551  0.0401
21376SOL    HW167626   4.208   9.423  10.112  0.4485  0.7079 -0.7045
21376SOL    HW267627   4.301   9.318  10.056  0.0826  0.6369 -1.1854
21377SOL     OW67628   1.349   8.260   6.027 -0.3357  0.4606 -0.7543
21377SOL    HW167629   1.428   8.296   6.067 -0.8419  1.2678 -0.4450
21377SOL    HW267630   1.323   8.189   6.086 -0.4605  0.9272 -0.2379
21378SOL     OW67631   0.393   0.657  10.697 -0.1769  0.0069 -0.4554
21378SOL    HW167632   0.348   0.733  10.734  1.7686  0.2605  1.7097
21378SOL    HW267633   0.335   0.583  10.714 -0.0769  0.3706  1.9107
21379SOL     OW67634   4.935   6.759   7.677 -0.4363 -0.3121 -0.3784
21379SOL    HW167635   5.024   6.732   7.655 -0.2986  0.8617 -1.3824
21379SOL    HW267636   4.901   6.795   7.595 -0.5601  2.5978  0.8402
21380SOL     OW67637   0.333   1.456   9.248 -0.0187 -0.0116 -0.9044
21380SOL    HW167638   0.389   1.521   9.291 -1.2436  0.6846 -0.3015
21380SOL    HW267639   0.353   1.374   9.291 -1.2435  0.6680  1.1320
21381SOL     OW67640   9.343   3.420   7.376  0.3006  0.0701  0.0960
21381SOL    HW167641   9.282   3.473   7.429  0.9037  0.1157  0.7568
21381SOL    HW267642   9.400   3.485   7.334  1.5575 -0.0491  1.5361
21382SOL     OW67643   9.569   0.074   1.333  0.3488 -0.1157  0.8389
21382SOL    HW167644   9.632   0.016   1.291  1.0190  0.1521  1.4481
21382SOL    HW267645   9.555   0.144   1.269  1.9632  0.7043  1.3325
21383SOL     OW67646   3.133   9.562   3.911 -0.2687  0.3094  0.2384
21383SOL    HW167647   3.092   9.549   3.997  1.2066 -1.0641  0.8023
21383SOL    HW267648   3.115   9.481   3.864  0.4353  0.3255 -0.0739
21384SOL     OW67649   6.606   1.391   9.715 -0.6511  0.0292 -0.0421
21384SOL    HW167650   6.614   1.485   9.704 -0.6191 -0.0906 -1.2119
21384SOL    HW267651   6.526   1.368   9.669 -0.7328 -0.5018  0.3487
21385SOL     OW67652   8.307   2.500   8.497  0.2153 -0.5186 -0.3151
21385SOL    HW167653   8.336   2.480   8.408 -0.7840 -1.1219 -0.5223
21385SOL    HW267654   8.216   2.471   8.500  0.4897 -1.3621  1.1765
21386SOL     OW67655   5.103   7.612   5.017 -0.0456  0.3522 -0.1999
21386SOL    HW167656   5.180   7.557   5.033 -0.4669  0.4369  2.6164
21386SOL    HW267657   5.033   7.570   5.069 -0.5972  2.9937  1.3598
21387SOL     OW67658   7.536   6.282   8.929 -0.2932 -0.5867 -0.2114
21387SOL    HW167659   7.537   6.191   8.959  2.4921 -0.3647  0.5849
21387SOL    HW267660   7.506   6.331   9.005  2.3190 -0.4872  0.8385
21388SOL     OW67661   9.689  10.751   7.866  0.2449  0.0528 -0.0413
21388SOL    HW167662   9.654  10.679   7.812 -2.3189  1.1683 -0.0207
21388SOL    HW267663   9.761  10.712   7.915  2.1284 -1.2688 -3.5305
21389SOL     OW67664   0.431   6.384   6.311  0.3292 -0.5236  0.3693
21389SOL    HW167665   0.418   6.379   6.406  3.6974 -0.8041  0.9464
21389SOL    HW267666   0.497   6.318   6.293  1.3929  1.0304 -1.8031
21390SOL     OW67667   1.759   7.056   6.528  0.4739  0.2834 -0.1253
21390SOL    HW167668   1.733   7.002   6.453 -1.4918  1.1069 -0.1096
21390SOL    HW267669   1.706   7.024   6.601 -0.3745  1.8308  0.0017
21391SOL     OW67670  10.004   1.869   7.480  0.5618  0.5381  0.5851
21391SOL    HW167671  10.089   1.837   7.510  1.5072  2.7344  0.4554
21391SOL    HW267672   9.998   1.841   7.389  0.1606 -1.3963  1.1535
21392SOL     OW67673   7.684   8.885   6.331 -0.6670  0.0443  0.0237
21392SOL    HW167674   7.733   8.948   6.384 -1.2916 -1.1377  2.1437
21392SOL    HW267675   7.593   8.910   6.343 -0.9915 -1.6665  1.5798
21393SOL     OW67676   4.151   5.797   4.698  0.0360 -0.3887  0.5151
21393SOL    HW167677   4.079   5.828   4.754 -0.3332 -0.0035 -0.1594
21393SOL    HW267678   4.110   5.782   4.613  0.3503 -2.0527  0.6073
21394SOL     OW67679  10.781   2.496   1.010  0.4599  0.3492 -0.2398
21394SOL    HW167680  10.718   2.554   0.967  0.8497  0.4729 -0.6549
21394SOL    HW267681  10.730   2.420   1.036 -0.2012  1.1737  0.9344
21395SOL     OW67682   7.692   0.635   4.722  0.3608 -0.1305 -0.1776
21395SOL    HW167683   7.612   0.686   4.737  0.4624  0.7784 -2.4012
21395SOL    HW267684   7.659   0.548   4.697  0.1006 -0.1949  0.3824
21396SOL     OW67685   0.460   9.619   6.575 -0.0106 -0.1917  0.0273
21396SOL    HW167686   0.508   9.559   6.632  0.1342  0.4056  0.5595
21396SOL    HW267687   0.369   9.593   6.585 -0.0820  0.4276  1.2137
21397SOL     OW67688   2.910   9.272   9.299 -0.4570 -0.4162 -0.3457
21397SOL    HW167689   2.827   9.304   9.264 -0.6986 -1.5810 -0.9036
21397SOL    HW267690   2.892   9.181   9.324  0.5866 -0.6063 -0.2308
21398SOL     OW67691   3.481   6.214   2.711 -0.0332 -0.1788  0.0186
21398SOL    HW167692   3.430   6.289   2.743 -1.2818 -0.7092 -0.6398
21398SOL    HW267693   3.417   6.143   2.704  1.3734 -1.7275  1.8896
21399SOL     OW67694   8.155   1.341   2.934 -0.3635 -0.3602  0.3717
21399SOL    HW167695   8.238   1.387   2.924 -0.7301  0.0927 -0.6527
21399SOL    HW267696   8.172   1.277   3.004  0.8958 -0.4137  0.0448
21400SOL     OW67697   0.162   8.951  10.938 -0.5879 -0.3455  0.0996
21400SOL    HW167698   0.219   8.913  11.005  0.6207 -0.1841 -0.8087
21400SOL    HW267699   0.121   8.876  10.896 -0.9179 -0.4668  0.6175
21401SOL     OW67700   1.310   5.352  10.123  0.0625  0.0230 -0.5356
21401SOL    HW167701   1.278   5.372  10.211 -2.7166  3.0834 -1.9852
21401SOL    HW267702   1.370   5.424  10.103 -0.2934  0.0746 -1.4984
21402SOL     OW67703   6.562   5.074   1.562 -0.3720  0.2842  0.0443
21402SOL    HW167704   6.535   5.016   1.492  1.4843 -0.3642 -0.1836
21402SOL    HW267705   6.653   5.097   1.541 -0.2134  1.1473  1.5195
21403SOL     OW67706   9.066   2.106   3.288 -0.1278  0.1323 -0.0014
21403SOL    HW167707   9.147   2.115   3.239  0.3657 -0.8523  0.6075
21403SOL    HW267708   9.089   2.132   3.377 -0.6533  0.4842  0.0399
21404SOL     OW67709   3.589   8.180   1.371  0.1524 -0.0667 -0.3589
21404SOL    HW167710   3.596   8.151   1.281 -0.5996 -0.0856 -0.4205
21404SOL    HW267711   3.657   8.132   1.418 -0.9525 -1.8622 -0.4819
21405SOL     OW67712   8.192   9.523   6.924 -0.3232 -0.2192  0.5329
21405SOL    HW167713   8.169   9.601   6.975  1.2305  0.6435 -0.0095
21405SOL    HW267714   8.168   9.450   6.980  0.4009  0.6953  2.1095
21406SOL     OW67715   3.293   3.882   4.426 -0.0730  0.7366 -0.0377
21406SOL    HW167716   3.221   3.829   4.393  0.0153  0.2447  0.5418
21406SOL    HW267717   3.286   3.965   4.378 -0.8223  0.5753 -0.2144
21407SOL     OW67718   7.400   2.583   9.539  0.3027 -0.0805  0.4318
21407SOL    HW167719   7.447   2.620   9.465  1.7350 -1.0496  0.7991
21407SOL    HW267720   7.468   2.538   9.590 -0.9534 -1.0804  1.2860
21408SOL     OW67721   1.506   6.838   9.484 -0.4459 -0.3032 -0.1447
21408SOL    HW167722   1.593   6.850   9.523 -0.6535 -0.8188  0.5014
21408SOL    HW267723   1.514   6.759   9.432 -0.2649  0.1949 -0.8886
21409SOL     OW67724   9.595   3.700   2.883 -0.8812 -0.5187 -0.1921
21409SOL    HW167725   9.677   3.705   2.833 -1.5032 -0.1971 -1.2296
21409SOL    HW267726   9.621   3.670   2.970  0.1083 -2.4460 -1.0768
21410SOL     OW67727   9.982   7.793   4.858  0.1419  0.0846  0.5623
21410SOL    HW167728  10.029   7.783   4.941  0.7260 -0.3748  0.1904
21410SOL    HW267729   9.939   7.878   4.864  1.3070  0.6772  0.7872
21411SOL     OW67730   1.092   9.154   0.796  0.0804 -0.1327  0.1434
21411SOL    HW167731   1.029   9.218   0.762 -0.9234 -0.4283  1.3620
21411SOL    HW267732   1.175   9.177   0.753 -0.7575  0.5168 -1.1934
21412SOL     OW67733   7.141   6.049   6.029  0.4319 -0.4427 -0.5916
21412SOL    HW167734   7.184   6.133   6.046  0.8677  0.0025 -3.2910
21412SOL    HW267735   7.204   5.983   6.058  0.0591  0.1219  1.6118
21413SOL     OW67736   4.032   8.282   5.949 -0.5254 -0.0996  0.4517
21413SOL    HW167737   4.010   8.188   5.951  2.4456 -0.8869  1.3277
21413SOL    HW267738   4.094   8.290   5.876 -0.1669  1.0375  0.8699
21414SOL     OW67739   3.785   4.224   4.935 -0.4014 -0.0092 -0.5438
21414SOL    HW167740   3.748   4.136   4.938 -0.4636  0.0062 -0.8862
21414SOL    HW267741   3.714   4.280   4.905 -0.5766  0.2738  0.3724
21415SOL     OW67742   1.938   6.874   0.042 -1.0583  0.1584  0.4836
21415SOL    HW167743   2.031   6.880   0.021 -1.3246  2.8286 -0.2909
21415SOL    HW267744   1.907   6.800  -0.011  0.3366  0.1691 -0.4019
21416SOL     OW67745   3.315   8.335   9.417  0.1636  0.3162 -0.3263
21416SOL    HW167746   3.327   8.358   9.509  0.3993  0.1123 -0.3076
21416SOL    HW267747   3.299   8.419   9.374  1.9214  0.6468 -0.4006
21417SOL     OW67748   1.163   6.765   2.581 -0.0922 -0.3608 -0.0531
21417SOL    HW167749   1.221   6.753   2.657  2.5850 -1.4617 -2.1209
21417SOL    HW267750   1.184   6.691   2.524 -1.9277  0.5126 -1.9512
21418SOL     OW67751   1.496   7.142   6.339 -0.8145 -0.4876  0.0913
21418SOL    HW167752   1.541   7.197   6.275 -0.7663 -1.0425 -0.3550
21418SOL    HW267753   1.517   7.053   6.313 -1.4401 -0.7329  0.4221
21419SOL     OW67754   0.518   8.279   1.354 -0.1980  0.0081  0.4326
21419SOL    HW167755   0.456   8.230   1.299 -0.4123  1.5930 -0.7982
21419SOL    HW267756   0.597   8.285   1.301  0.1833  0.1011  1.0079
21420SOL     OW67757   7.210   3.561   6.423  0.3818  0.3221 -0.2796
21420SOL    HW167758   7.159   3.505   6.481  1.8628  0.7036  1.4672
21420SOL    HW267759   7.153   3.637   6.407 -0.4473 -0.2711 -0.2203
21421SOL     OW67760   7.846   3.398   8.339  0.2694  0.3585  0.3375
21421SOL    HW167761   7.827   3.459   8.268  1.4200  0.5913  0.2097
21421SOL    HW267762   7.895   3.450   8.403  0.6983 -0.2737  0.5273
21422SOL     OW67763   2.739   7.414   3.534  0.5233 -0.2602 -0.0668
21422SOL    HW167764   2.799   7.367   3.477  2.0293 -0.6355  1.7142
21422SOL    HW267765   2.769   7.504   3.532 -0.3288  0.0204 -0.9494
21423SOL     OW67766   5.919   1.220   8.155 -0.7185 -0.3493 -0.1081
21423SOL    HW167767   5.999   1.272   8.160  0.9063 -2.7783  2.1760
21423SOL    HW267768   5.905   1.206   8.061  0.3144  1.8034 -0.6478
21424SOL     OW67769   7.674   7.818   1.535 -0.2283 -0.2384 -0.1707
21424SOL    HW167770   7.754   7.858   1.501  1.4617 -1.8919  1.6234
21424SOL    HW267771   7.674   7.839   1.628 -0.6425 -2.1449  0.3015
21425SOL     OW67772   4.870   4.888   5.385 -0.0877  0.3378 -0.2818
21425SOL    HW167773   4.877   4.983   5.382 -0.0165  0.3074 -1.4505
21425SOL    HW267774   4.804   4.866   5.320  0.1090 -0.4311 -0.2384
21426SOL     OW67775   2.744   6.319   9.391  0.3875 -0.3275 -0.3408
21426SOL    HW167776   2.770   6.392   9.335 -0.2060 -0.0703 -0.2924
21426SOL    HW267777   2.791   6.333   9.473  0.8294 -0.3967 -0.5833
21427SOL     OW67778   1.961   9.614   5.957 -0.2673  0.5109  0.1154
21427SOL    HW167779   1.945   9.559   6.034 -1.7256 -0.6357 -0.9510
21427SOL    HW267780   2.032   9.569   5.911 -1.0217 -0.1686 -0.4199
21428SOL     OW67781   9.449   4.146   1.692  0.1534  0.8570  1.1725
21428SOL    HW167782   9.379   4.118   1.633 -0.8208  1.2889  2.0920
21428SOL    HW267783   9.408   4.214   1.747  1.8755  2.7086  0.3001
21429SOL     OW67784   0.065   5.259   3.430 -0.0180 -0.6114  0.0381
21429SOL    HW167785   0.011   5.192   3.472 -1.3839  0.8055  0.6306
21429SOL    HW267786   0.034   5.261   3.339  0.6737 -1.3837 -0.2376
21430SOL     OW67787   8.456  10.552   2.143 -0.1718  0.1832 -0.4059
21430SOL    HW167788   8.489  10.613   2.077 -1.2165  1.4486  0.1949
21430SOL    HW267789   8.476  10.594   2.227  0.7808 -1.2131  0.0942
21431SOL     OW67790   0.642   8.585  10.206  0.1931  0.0054 -0.1919
21431SOL    HW167791   0.698   8.632  10.143 -1.7167 -2.3161 -3.9413
21431SOL    HW267792   0.568   8.644  10.221  2.1132  1.9996  2.8346
21432SOL     OW67793   7.261   8.297   6.781 -0.1056 -0.7042 -0.3555
21432SOL    HW167794   7.182   8.247   6.764 -0.3915 -0.7672  1.0192
21432SOL    HW267795   7.280   8.281   6.874  0.4435  0.8118 -0.1736
21433SOL     OW67796   8.987   4.544   7.938  0.0155 -0.3241 -0.2466
21433SOL    HW167797   9.070   4.513   7.975 -0.9264 -1.1611  1.2699
21433SOL    HW267798   8.949   4.598   8.008  0.3067  2.0384 -1.7735
21434SOL     OW67799   7.984   0.975   5.623 -0.0999 -0.1051  0.4511
21434SOL    HW167800   8.067   0.948   5.583 -1.7488 -3.1332 -1.3305
21434SOL    HW267801   7.974   0.919   5.700 -1.2453 -1.0704 -0.3596
21435SOL     OW67802   9.923   0.090   9.665  0.3015  0.6174  0.0774
21435SOL    HW167803   9.903  -0.003   9.676 -1.2187  1.1316  2.4456
21435SOL    HW267804   9.845   0.128   9.625  0.0363  1.1991  1.1107
21436SOL     OW67805   6.071   2.583   7.361 -0.3482  0.2270 -0.0917
21436SOL    HW167806   6.123   2.562   7.438 -0.8658  3.6005  1.3166
21436SOL    HW267807   6.011   2.509   7.352 -0.8441  0.0548  3.2859
21437SOL     OW67808   7.442   9.064   5.725 -0.5673 -0.2247  0.2970
21437SOL    HW167809   7.454   8.993   5.788 -1.6504 -1.3793 -0.7267
21437SOL    HW267810   7.360   9.043   5.680  0.0035  0.7058 -1.2763
21438SOL     OW67811   4.641   2.795   8.166 -0.3266 -0.2563  0.2915
21438SOL    HW167812   4.711   2.799   8.231 -0.6384  1.4530  0.5675
21438SOL    HW267813   4.679   2.837   8.088 -0.6392 -0.4512  0.0338
21439SOL     OW67814   2.638   2.236  10.224  0.5573  0.3818  0.4695
21439SOL    HW167815   2.702   2.237  10.295 -0.1276 -0.3570  1.1253
21439SOL    HW267816   2.670   2.300  10.161  3.8608 -2.3090 -0.9278
21440SOL     OW67817  10.334   2.225   5.662 -0.5272 -0.4321 -0.0474
21440SOL    HW167818  10.395   2.249   5.732 -1.6675  1.8148  0.2673
21440SOL    HW267819  10.375   2.257   5.582 -0.5946 -0.2923 -0.0264
21441SOL     OW67820  10.518   3.878   7.031 -0.3235 -0.0684 -0.4450
21441SOL    HW167821  10.570   3.848   7.106  1.4464  2.7615 -0.3857
21441SOL    HW267822  10.430   3.893   7.068 -0.0976 -0.9191  0.4882
21442SOL     OW67823   6.395   5.052   6.341 -0.1667 -0.0941 -0.0709
21442SOL    HW167824   6.415   5.136   6.383  0.0670 -0.3872  0.4039
21442SOL    HW267825   6.437   4.986   6.396 -0.3772 -0.5296 -0.4227
21443SOL     OW67826   0.405   7.689   6.712  0.4840 -0.7006 -0.9519
21443SOL    HW167827   0.412   7.660   6.803  0.7595 -1.3771 -1.1840
21443SOL    HW267828   0.315   7.668   6.687  0.4131 -0.5294 -0.8419
21444SOL     OW67829  10.848   2.730   2.986 -0.2235  0.3344  0.0103
21444SOL    HW167830  10.858   2.803   2.926  0.6986  0.3155  0.1353
21444SOL    HW267831  10.884   2.761   3.069 -1.1726  0.2415  0.4745
21445SOL     OW67832   7.457   4.343   7.643 -0.5013  0.5591  0.5650
21445SOL    HW167833   7.443   4.402   7.569  0.2143 -0.3297 -0.3048
21445SOL    HW267834   7.441   4.397   7.721  0.0821  1.8787 -0.2061
21446SOL     OW67835   4.699   7.724   1.493  0.1178  0.0213 -0.2735
21446SOL    HW167836   4.637   7.758   1.428  1.6885  0.4973 -1.6181
21446SOL    HW267837   4.785   7.754   1.461  1.0882 -1.0211  1.2362
21447SOL     OW67838   6.534   2.113   7.609 -0.3920  0.3511  0.4716
21447SOL    HW167839   6.484   2.073   7.680 -0.5898 -2.1664 -0.9500
21447SOL    HW267840   6.607   2.156   7.652 -0.0523 -1.7779  2.2100
21448SOL     OW67841   7.387   5.513   7.881  0.7098  0.6220 -0.0899
21448SOL    HW167842   7.403   5.554   7.966  1.4547 -0.2483  0.2112
21448SOL    HW267843   7.376   5.420   7.901 -1.3069  0.6743 -0.7099
21449SOL     OW67844   2.903   9.099   9.056 -0.1238  0.4882 -0.3757
21449SOL    HW167845   2.901   9.093   9.151 -0.4964 -1.5235 -0.4728
21449SOL    HW267846   2.816   9.071   9.028  1.0376 -2.3824 -1.3985
21450SOL     OW67847   8.714   1.207   0.169  0.1485 -0.1759  0.3054
21450SOL    HW167848   8.701   1.114   0.189  1.0956 -0.2948  0.4159
21450SOL    HW267849   8.806   1.213   0.144 -0.0366  0.6520 -0.1978
21451SOL     OW67850   1.784  10.178   3.108  0.5018 -0.5746  0.1609
21451SOL    HW167851   1.830  10.178   3.024 -0.2186 -1.2288 -0.2446
21451SOL    HW267852   1.837  10.122   3.165  2.0948  1.4453  0.8014
21452SOL     OW67853   0.258   8.036   2.533 -0.3897  0.4957 -0.2994
21452SOL    HW167854   0.202   7.986   2.474 -0.0557 -0.0432 -0.1675
21452SOL    HW267855   0.295   7.971   2.593 -0.0985  0.9246 -0.0009
21453SOL     OW67856   6.752   2.252   9.525 -0.2865  0.3329 -0.2054
21453SOL    HW167857   6.730   2.346   9.524 -0.8717  0.1998 -0.0332
21453SOL    HW267858   6.671   2.208   9.500 -0.4367 -0.1955  1.1290
21454SOL     OW67859   0.747   8.742   8.621  0.4870 -0.1574  0.6171
21454SOL    HW167860   0.737   8.650   8.598  0.2443 -0.1258  0.5926
21454SOL    HW267861   0.673   8.761   8.679  1.2296 -0.3052  1.6392
21455SOL     OW67862   6.161  10.508  10.353  0.0212 -0.0637  0.2401
21455SOL    HW167863   6.246  10.497  10.396  1.1879  0.4750 -1.7887
21455SOL    HW267864   6.143  10.602  10.360  0.3210  0.0641 -0.5702
21456SOL     OW67865   4.510   1.743   3.664  0.2813  0.4720 -0.6745
21456SOL    HW167866   4.571   1.670   3.679  0.0084 -0.1240 -2.2767
21456SOL    HW267867   4.424   1.706   3.682  0.3321  2.1692  4.9498
21457SOL     OW67868   9.595   4.785   5.539  0.1747  0.3491  0.1519
21457SOL    HW167869   9.540   4.725   5.488  1.4635 -1.1624  0.4248
21457SOL    HW267870   9.597   4.865   5.487  0.2404 -0.6325 -1.4581
21458SOL     OW67871  10.243   4.730   5.150 -0.1175 -0.1265  0.1370
21458SOL    HW167872  10.289   4.797   5.200  2.0137 -1.0951 -0.4076
21458SOL    HW267873  10.226   4.771   5.065  1.2280 -0.2387 -0.2149
21459SOL     OW67874   5.147   0.083  10.412  0.7222  0.0704 -0.0729
21459SOL    HW167875   5.128   0.166  10.456  2.5420  0.5995 -0.2272
21459SOL    HW267876   5.062   0.038  10.410  0.2060  0.7638  2.3826
21460SOL     OW67877   6.059  10.585   6.148 -0.0188  0.2006 -0.0868
21460SOL    HW167878   6.061  10.530   6.226  1.5728  0.0746 -0.1830
21460SOL    HW267879   6.020  10.530   6.080 -1.1549  0.2209  0.5309
21461SOL     OW67880   8.175   1.793   3.368 -0.4353 -0.0983 -0.1255
21461SOL    HW167881   8.116   1.739   3.315  0.8189 -0.2031 -1.4973
21461SOL    HW267882   8.224   1.844   3.303  1.8785 -0.9587  0.8350
21462SOL     OW67883   8.725   9.135   5.575 -0.9249 -0.3168 -0.1246
21462SOL    HW167884   8.801   9.110   5.524 -0.1538  0.4606  0.6119
21462SOL    HW267885   8.654   9.141   5.512 -0.1033  0.1579 -1.0186
21463SOL     OW67886   7.566   8.367   0.592 -0.4648 -0.1693 -0.5064
21463SOL    HW167887   7.547   8.280   0.557 -3.4217 -0.0385  0.4933
21463SOL    HW267888   7.596   8.352   0.682  1.3562 -0.1937 -1.0644
21464SOL     OW67889   8.839   9.991   7.889 -0.3529 -0.4589 -0.2159
21464SOL    HW167890   8.776  10.021   7.955  0.7155 -1.3008  1.2211
21464SOL    HW267891   8.805   9.906   7.861  1.3152 -2.1020  2.3546
21465SOL     OW67892   3.618   6.812   5.323 -0.1230  0.6758  0.0237
21465SOL    HW167893   3.653   6.739   5.374 -2.3582 -0.6476 -0.2159
21465SOL    HW267894   3.533   6.831   5.363 -0.5896  1.6318 -1.3506
21466SOL     OW67895   2.642   3.202   0.625  0.4219  0.3292  0.0478
21466SOL    HW167896   2.580   3.141   0.585  0.3270  0.4419  0.0189
21466SOL    HW267897   2.697   3.232   0.552 -0.7405  1.7166 -0.3184
21467SOL     OW67898   6.589   5.888   7.518  0.5033 -0.5964  0.1664
21467SOL    HW167899   6.540   5.811   7.488  0.0338 -0.3739  0.3596
21467SOL    HW267900   6.662   5.895   7.456  0.1831 -0.8145 -0.2419
21468SOL     OW67901   9.908   1.372   1.428  0.4989 -0.5091 -0.5000
21468SOL    HW167902   9.865   1.438   1.483 -0.9493 -2.3632  0.7071
21468SOL    HW267903   9.864   1.379   1.343  0.0789 -0.1992 -0.2636
21469SOL     OW67904   3.556   5.985   9.292 -0.8456 -0.4479 -0.3291
21469SOL    HW167905   3.559   5.957   9.200  0.4712  0.3561 -0.5601
21469SOL    HW267906   3.600   6.070   9.292 -1.8209  0.0846  0.8867
21470SOL     OW67907   3.445   4.229   8.188 -0.3470 -0.1835 -0.3826
21470SOL    HW167908   3.502   4.306   8.182  0.3499 -0.7736 -1.5578
21470SOL    HW267909   3.501   4.160   8.223 -0.5290 -0.5889 -0.8839
21471SOL     OW67910   2.554   9.653   5.099 -0.1598 -0.0364 -0.4258
21471SOL    HW167911   2.649   9.665   5.105  0.1230 -2.0095 -0.3945
21471SOL    HW267912   2.530   9.693   5.016  0.4756  1.5531  0.1038
21472SOL     OW67913   6.519   9.319   9.772  0.0790  0.0547  0.0800
21472SOL    HW167914   6.545   9.328   9.863 -0.5288  0.6045  0.2074
21472SOL    HW267915   6.475   9.234   9.768 -0.6482  0.4050  0.4933
21473SOL     OW67916   6.945   4.181  10.799 -0.6942  0.0502  0.3051
21473SOL    HW167917   7.010   4.121  10.836  0.8005 -0.3773 -2.7052
21473SOL    HW267918   6.979   4.269  10.821  0.8473 -0.1709 -0.9817
21474SOL     OW67919   7.217   7.933   3.446 -0.4871  0.1409  0.4400
21474SOL    HW167920   7.186   8.017   3.479 -1.8929 -1.4375  3.5922
21474SOL    HW267921   7.152   7.908   3.379  0.1696  1.6506 -0.8169
21475SOL     OW67922   4.537   3.385   6.076 -0.2216 -0.0438  0.4968
21475SOL    HW167923   4.485   3.447   6.026  0.6801 -1.2260 -2.0815
21475SOL    HW267924   4.479   3.357   6.147 -0.9276  3.0419  1.2963
21476SOL     OW67925   4.471   4.837   3.609 -0.5917  0.2027  0.2685
21476SOL    HW167926   4.512   4.798   3.531  1.2836  1.5847  0.4854
21476SOL    HW267927   4.412   4.904   3.573  1.5233  2.0314 -0.0592
21477SOL     OW67928   4.645   1.050  10.447 -0.1305  0.3593 -0.0054
21477SOL    HW167929   4.725   1.032  10.397  1.1662  3.7107  0.5679
21477SOL    HW267930   4.670   1.038  10.538 -0.6043  0.4126  0.1366
21478SOL     OW67931  10.153   3.027   3.223 -0.2757  0.1257 -0.2396
21478SOL    HW167932  10.172   3.103   3.277 -1.8379  1.0260 -0.8939
21478SOL    HW267933  10.081   2.983   3.268  0.1123 -0.5701 -0.2711
21479SOL     OW67934   2.593   6.131   3.172  0.1822  0.4749  0.5261
21479SOL    HW167935   2.642   6.049   3.178 -0.1496  0.3253  1.2137
21479SOL    HW267936   2.546   6.125   3.088  0.2027 -0.0073  0.5478
21480SOL     OW67937   9.126   7.835   4.414  0.7130  0.4948 -0.1750
21480SOL    HW167938   9.112   7.741   4.422  0.7064  0.5033 -0.0830
21480SOL    HW267939   9.085   7.872   4.492  0.4643  0.6010 -0.3541
21481SOL     OW67940   0.395   5.698   6.694  0.0109  0.3094  0.4250
21481SOL    HW167941   0.477   5.746   6.678  0.3908  0.4245  2.4670
21481SOL    HW267942   0.424   5.611   6.722 -0.6114 -0.0339  0.0216
21482SOL     OW67943   4.713   6.390   8.090 -0.0792  0.1094  0.3527
21482SOL    HW167944   4.726   6.407   8.183  0.3264 -1.6049  0.6558
21482SOL    HW267945   4.636   6.441   8.066  0.0712  0.9181  1.5105
21483SOL     OW67946   0.899   2.007  10.512  0.0147  0.2745  0.3548
21483SOL    HW167947   0.862   2.094  10.496  1.3683  1.0383  1.1099
21483SOL    HW267948   0.914   2.005  10.607 -0.9583 -1.2078  0.5083
21484SOL     OW67949   8.630   7.490   2.117 -0.2307  0.3287  0.3834
21484SOL    HW167950   8.582   7.568   2.144  0.2166  0.1066  1.9204
21484SOL    HW267951   8.722   7.517   2.116  0.0004 -0.3468  1.6508
21485SOL     OW67952   3.994   5.275  10.550  0.1949  0.1725  0.4700
21485SOL    HW167953   3.902   5.278  10.575 -0.3534  0.5264 -1.3993
21485SOL    HW267954   4.036   5.342  10.603 -0.7564  0.4716  0.8642
21486SOL     OW67955   7.462  10.598  10.136 -0.4846  0.6594  0.3007
21486SOL    HW167956   7.498  10.667  10.081 -0.1256 -0.7153 -1.2646
21486SOL    HW267957   7.537  10.544  10.161 -0.9437 -0.0482  0.2080
21487SOL     OW67958   9.051   9.024   4.514  0.2599  0.1404  0.1850
21487SOL    HW167959   9.051   9.054   4.605  0.0091  2.2987 -0.4665
21487SOL    HW267960   9.095   9.094   4.466  2.3306 -1.9364 -1.1122
21488SOL     OW67961   3.692   2.806   1.643 -0.0296  0.0172  0.1134
21488SOL    HW167962   3.622   2.845   1.695 -0.3831 -1.3527  0.7015
21488SOL    HW267963   3.727   2.736   1.697  1.9648  0.7881 -0.0820
21489SOL     OW67964   4.487   2.112   3.872  0.4059 -0.1286  0.0589
21489SOL    HW167965   4.505   2.152   3.957  1.6367 -0.4661 -0.0188
21489SOL    HW267966   4.553   2.044   3.864 -0.9403 -1.4419 -0.3110
21490SOL     OW67967   5.032  10.692   7.674  0.1669 -0.2229 -0.3385
21490SOL    HW167968   5.059  10.667   7.762  1.3668 -1.6324 -1.0796
21490SOL    HW267969   5.028  10.788   7.677 -1.2765 -0.2790  1.6285
21491SOL     OW67970   9.872   8.642   3.270  0.0443  0.0534  0.2019
21491SOL    HW167971   9.826   8.599   3.341  0.3030  1.3498  1.1821
21491SOL    HW267972   9.904   8.570   3.215 -2.0250 -0.9031  0.1766
21492SOL     OW67973  10.668   7.947  10.236 -0.1499 -0.2148  0.0628
21492SOL    HW167974  10.645   8.040  10.234 -1.1231 -0.4395  0.1738
21492SOL    HW267975  10.708   7.934  10.322  0.7185  0.2547 -0.2558
21493SOL     OW67976   9.669   1.507   8.393  0.4177  0.8492 -0.0450
21493SOL    HW167977   9.714   1.454   8.459  0.8973 -1.5665 -2.1709
21493SOL    HW267978   9.578   1.511   8.423  0.3350 -1.3600  0.1508
21494SOL     OW67979   9.432   8.505   1.979  0.2120 -0.0597 -0.4099
21494SOL    HW167980   9.470   8.589   1.952  1.9087  0.2552  2.5266
21494SOL    HW267981   9.507   8.446   1.987 -0.2147 -0.3627  2.3422
21495SOL     OW67982   3.525  10.871   3.029 -0.2807 -0.0907  0.4441
21495SOL    HW167983   3.524  10.965   3.048  2.5257  0.8260 -2.8518
21495SOL    HW267984   3.443  10.855   2.983  0.5523  1.6505 -1.8708
21496SOL     OW67985   9.788   9.660   6.281 -0.3064  0.5575 -0.2730
21496SOL    HW167986   9.719   9.724   6.298  2.0113  2.6815  2.0040
21496SOL    HW267987   9.749   9.576   6.309 -1.8126  1.7586  1.4871
21497SOL     OW67988   1.187   9.185   9.779  0.0262  0.1102 -0.6913
21497SOL    HW167989   1.281   9.182   9.759  0.8037 -1.0804  2.4779
21497SOL    HW267990   1.159   9.094   9.776 -0.4492  0.1951  0.5462
21498SOL     OW67991   4.988   2.780  10.115  0.2565 -0.2476 -0.1854
21498SOL    HW167992   4.969   2.751  10.204  0.0526  0.5657  0.0397
21498SOL    HW267993   5.067   2.731  10.091 -0.9668 -2.1720 -0.4129
21499SOL     OW67994   0.154   0.016   9.621 -0.0973 -0.3061  0.1455
21499SOL    HW167995   0.089   0.031   9.552  1.3602  0.1596 -1.1819
21499SOL    HW267996   0.143   0.091   9.680 -0.6283 -0.1291 -0.1674
21500SOL     OW67997   0.460   0.062   4.321 -0.4386  0.0129  0.2303
21500SOL    HW167998   0.488  -0.013   4.374  1.0812 -0.2085 -0.8151
21500SOL    HW267999   0.378   0.033   4.281 -1.1973 -0.1129  1.7869
21501SOL     OW68000  10.578   9.575   0.206  0.1420 -0.2891 -0.6163
21501SOL    HW168001  10.643   9.559   0.275  1.7760  1.4690 -1.6295
21501SOL    HW268002  10.615   9.648   0.156 -2.2996  0.2823 -1.7212
21502SOL     OW68003   7.656   8.752   1.425 -0.3578  0.1131  0.1482
21502SOL    HW168004   7.671   8.672   1.374  0.0589  0.1611  0.1927
21502SOL    HW268005   7.697   8.821   1.373 -1.3329  0.4148 -0.2390
21503SOL     OW68006   8.031   5.204   4.454  0.3143 -0.1909 -0.4504
21503SOL    HW168007   7.972   5.212   4.379  1.2796  0.8254 -1.1473
21503SOL    HW268008   8.051   5.294   4.479  1.2045 -0.5083  0.0580
21504SOL     OW68009   2.487   2.781   9.943  0.6330 -0.3904  0.1017
21504SOL    HW168010   2.568   2.829   9.959  0.3528  0.1558 -0.0911
21504SOL    HW268011   2.425   2.848   9.914  0.6911 -1.0961 -1.8029
21505SOL     OW68012   2.992   7.391   0.604 -0.3024  0.2895  0.2016
21505SOL    HW168013   3.002   7.461   0.540  1.0279  0.1973  0.2936
21505SOL    HW268014   3.033   7.424   0.684 -1.4855  0.2002  0.8796
21506SOL     OW68015   8.957   5.606   5.533 -0.1826 -0.1150 -0.1972
21506SOL    HW168016   9.046   5.620   5.566 -0.4898  0.0370  0.5914
21506SOL    HW268017   8.911   5.688   5.550 -0.5733 -0.3145 -0.2681
21507SOL     OW68018   9.006   6.796   6.876 -0.5079 -0.4371 -0.0043
21507SOL    HW168019   9.085   6.743   6.862 -0.5922 -0.9635  1.3382
21507SOL    HW268020   9.017   6.871   6.817  0.2423 -1.2757 -0.9730
21508SOL     OW68021   1.318   4.070   7.181 -0.0490  0.4553  0.6052
21508SOL    HW168022   1.243   4.115   7.143  0.0599  2.3176  2.4436
21508SOL    HW268023   1.392   4.097   7.127 -0.5433 -1.0314 -0.9318
21509SOL     OW68024   1.392  10.104   1.602 -0.6458 -0.5047 -0.3616
21509SOL    HW168025   1.336  10.180   1.586 -1.6687 -1.2694 -0.4548
21509SOL    HW268026   1.418  10.075   1.515  1.0058  0.6303 -0.2934
21510SOL     OW68027   2.465   9.502   4.826  0.3295 -0.3497  0.6594
21510SOL    HW168028   2.422   9.576   4.869 -0.1636  0.5016 -1.1839
21510SOL    HW268029   2.396   9.436   4.817 -0.5157  0.7308 -1.6312
21511SOL     OW68030   9.993   2.333   3.129  0.3746 -0.1557 -0.0125
21511SOL    HW168031  10.021   2.310   3.041 -0.5090  0.1808 -0.3945
21511SOL    HW268032  10.066   2.383   3.165  0.5221  0.1914 -0.7661
21512SOL     OW68033   3.284   8.950   0.502 -0.1877 -0.1945  0.4869
21512SOL    HW168034   3.306   8.934   0.593  1.7133  0.3112  0.1742
21512SOL    HW268035   3.320   8.874   0.455  0.6975  0.5114 -0.0212
21513SOL     OW68036   0.827   1.023  10.521 -0.1057 -0.2969 -0.4155
21513SOL    HW168037   0.805   1.008  10.613  0.6893  3.9776  0.6958
21513SOL    HW268038   0.915   0.989  10.511  0.6247  1.0106  1.1111
21514SOL     OW68039   1.134  10.208   8.842 -0.4463 -0.7397 -0.2413
21514SOL    HW168040   1.188  10.272   8.889  0.2630 -0.8436 -0.8997
21514SOL    HW268041   1.170  10.123   8.868 -1.3122 -0.8827  0.5409
21515SOL     OW68042   4.707   9.676   4.181  0.0054  0.6045  0.0934
21515SOL    HW168043   4.683   9.663   4.273  0.1753  1.0686  0.2032
21515SOL    HW268044   4.719   9.770   4.172 -0.3629  0.6017 -0.4940
21516SOL     OW68045   5.918  10.630   1.344  0.3182 -0.1899  0.6740
21516SOL    HW168046   5.941  10.568   1.414  1.2403 -0.7382 -0.0983
21516SOL    HW268047   5.975  10.606   1.271 -1.4294 -0.3738 -0.6774
21517SOL     OW68048   1.378   1.498   3.630 -0.3066 -0.4215 -0.6283
21517SOL    HW168049   1.415   1.419   3.670 -1.4494 -0.8707 -0.4277
21517SOL    HW268050   1.362   1.474   3.539 -0.1274 -0.2352 -0.7094
21518SOL     OW68051   5.482   5.348   1.166  0.2072  0.5929  0.1848
21518SOL    HW168052   5.457   5.256   1.165 -0.3010  0.6360  2.5602
21518SOL    HW268053   5.450   5.383   1.083  1.6760 -1.6386 -1.4083
21519SOL     OW68054   9.488   9.449   6.218 -0.2929 -0.0693 -0.7338
21519SOL    HW168055   9.507   9.448   6.124  1.9062 -3.5290 -0.4301
21519SOL    HW268056   9.415   9.388   6.229 -0.5183  0.2896 -0.1812
21520SOL     OW68057   1.290   1.034  10.822  0.2661  0.1123  0.3217
21520SOL    HW168058   1.366   1.091  10.812  0.2875  0.1155  0.5080
21520SOL    HW268059   1.233   1.081  10.882 -1.1119  1.3999 -1.8629
21521SOL     OW68060   6.074   4.811  10.501  0.5139  0.7606  0.4697
21521SOL    HW168061   6.103   4.902  10.488 -2.7668  2.1043  1.5267
21521SOL    HW268062   6.028   4.789  10.420  2.1692 -0.4240 -0.1983
21522SOL     OW68063   4.731  10.169   6.615 -0.8583 -0.1324 -0.1756
21522SOL    HW168064   4.792  10.219   6.561 -0.2042  0.2434  0.8781
21522SOL    HW268065   4.784  10.139   6.689 -1.9537  0.2317  0.7892
21523SOL     OW68066   0.330   5.302   8.689  0.0821 -0.4240  0.0355
21523SOL    HW168067   0.412   5.277   8.732 -0.0459 -3.8132 -1.3696
21523SOL    HW268068   0.261   5.269   8.747 -0.1897 -0.8400 -0.5203
21524SOL     OW68069   9.883   2.100   7.014  0.1596 -0.5965  0.6705
21524SOL    HW168070   9.939   2.049   7.073  1.0593  0.7026  1.0019
21524SOL    HW268071   9.939   2.173   6.986 -0.6898 -0.4604 -0.7369
21525SOL     OW68072  10.289  10.771   4.660 -0.3020 -0.5757 -0.0579
21525SOL    HW168073  10.233  10.759   4.583 -1.0934 -0.6092  0.5113
21525SOL    HW268074  10.266  10.859   4.693 -1.4714 -1.3491  1.3112
21526SOL     OW68075   5.201   3.119   8.182 -0.4906  0.5564  0.0040
21526SOL    HW168076   5.271   3.140   8.120 -0.9258 -0.8752 -1.0301
21526SOL    HW268077   5.240   3.134   8.268  0.8654  0.4457 -0.5589
21527SOL     OW68078   2.372   4.969   0.297 -0.6081 -0.5137 -0.0697
21527SOL    HW168079   2.445   4.913   0.323 -1.5555 -1.6263  0.2664
21527SOL    HW268080   2.320   4.980   0.376 -2.3244 -2.1153 -0.8959
21528SOL     OW68081   3.056   6.117   9.639  0.0117  0.3161 -0.7033
21528SOL    HW168082   3.032   6.079   9.555  0.3977  1.1337 -1.2034
21528SOL    HW268083   3.150   6.135   9.631  0.7569 -2.1975  0.9525
21529SOL     OW68084   9.773   5.108   3.911 -0.0426 -0.1659  0.1892
21529SOL    HW168085   9.851   5.105   3.856  0.1552 -0.0559  0.4595
21529SOL    HW268086   9.701   5.083   3.853 -0.0462  1.2852 -0.4634
21530SOL     OW68087  10.737   1.014   6.014 -0.0804  0.2762 -0.3028
21530SOL    HW168088  10.739   1.008   5.919 -1.0542  0.0533 -0.3164
21530SOL    HW268089  10.653   0.974   6.039  0.4458 -0.2514  0.6870
21531SOL     OW68090   8.213   2.294   5.944 -0.1811 -0.1272 -0.1014
21531SOL    HW168091   8.246   2.211   5.979  0.3898 -0.8049 -2.0711
21531SOL    HW268092   8.262   2.306   5.862 -0.8040  1.7747 -0.2403
21532SOL     OW68093   1.949  10.026   4.297 -0.3149  0.1078  0.1166
21532SOL    HW168094   1.957  10.004   4.204  2.2832  0.4668  0.1669
21532SOL    HW268095   1.945  10.121   4.299  1.3699  0.1955  0.4071
21533SOL     OW68096   5.769   9.934   9.346 -0.0869 -0.2573  0.4485
21533SOL    HW168097   5.806   9.931   9.434  0.2661  0.8256  0.3546
21533SOL    HW268098   5.722   9.851   9.337 -0.1668 -0.3669  1.6703
21534SOL     OW68099   1.106   2.289   1.340  0.3717 -0.4171 -0.5100
21534SOL    HW168100   1.041   2.289   1.271 -2.7403  1.8115  2.1010
21534SOL    HW268101   1.103   2.200   1.376 -0.2660 -0.7188 -1.2828
21535SOL     OW68102   0.728   7.388   9.159 -0.4101 -0.0380  0.5159
21535SOL    HW168103   0.711   7.461   9.220 -2.4698  1.1782 -1.3529
21535SOL    HW268104   0.802   7.418   9.106 -0.3941  0.0959  0.6123
21536SOL     OW68105   8.258   2.997   6.892 -0.0995 -0.3806 -0.1403
21536SOL    HW168106   8.336   3.042   6.926  2.2004 -3.2752 -1.1716
21536SOL    HW268107   8.227   3.055   6.823  2.1171  0.1863 -0.7663
21537SOL     OW68108   6.553   6.148   3.995  0.4638 -0.1550  0.2902
21537SOL    HW168109   6.467   6.185   4.014  0.2505 -0.6952  0.3993
21537SOL    HW268110   6.614   6.219   4.014  0.0463  0.2273  0.2355
21538SOL     OW68111   5.524   7.816   3.226  0.3863  0.3505  0.9179
21538SOL    HW168112   5.558   7.764   3.153  0.9715  2.4226 -0.3597
21538SOL    HW268113   5.529   7.757   3.301  1.6404 -1.2212 -0.3200
21539SOL     OW68114  10.225  10.600   3.870 -0.1629 -0.5323 -0.0564
21539SOL    HW168115  10.267  10.514   3.864  1.5109  0.2502 -0.1140
21539SOL    HW268116  10.169  10.594   3.948  1.3766 -1.0944  1.0407
21540SOL     OW68117   9.449   1.779   2.001 -0.1813 -0.2204 -0.0044
21540SOL    HW168118   9.489   1.855   1.957 -0.7317  0.4133  0.5722
21540SOL    HW268119   9.500   1.769   2.082 -1.1669  0.6102  0.7510
21541SOL     OW68120   9.745   2.813   1.898 -0.5339 -0.1093 -0.0947
21541SOL    HW168121   9.699   2.880   1.848  0.7665  0.3056 -0.7701
21541SOL    HW268122   9.836   2.818   1.869 -0.2991 -1.8380  0.1933
21542SOL     OW68123   1.302  10.310   6.460  0.3195  0.2839  0.3879
21542SOL    HW168124   1.279  10.398   6.489  2.5051  1.5968 -1.4418
21542SOL    HW268125   1.221  10.274   6.424 -0.1047  2.6907 -1.3524
21543SOL     OW68126   6.224   8.926   5.824 -0.2493 -0.2868 -0.4526
21543SOL    HW168127   6.271   8.919   5.907 -0.3671  0.2982 -0.3294
21543SOL    HW268128   6.161   8.854   5.826 -1.2692  0.5854  0.6391
21544SOL     OW68129   8.136   3.239   5.960 -0.0740  0.2236 -0.0646
21544SOL    HW168130   8.128   3.325   5.918 -0.4467 -0.4328 -1.3904
21544SOL    HW268131   8.231   3.226   5.970 -0.0263  0.9027  0.4017
21545SOL     OW68132   6.856   5.207   8.931  0.4143 -0.9475 -0.0263
21545SOL    HW168133   6.886   5.283   8.882 -1.3543  0.1568  0.5135
21545SOL    HW268134   6.772   5.185   8.891 -0.3714 -0.9207  1.5643
21546SOL     OW68135   6.254   6.645   5.138 -0.2975  0.5394  0.2167
21546SOL    HW168136   6.324   6.608   5.192  0.0739  1.2765  0.2597
21546SOL    HW268137   6.178   6.647   5.196 -0.0323  0.8604  0.5649
21547SOL     OW68138   9.224   1.300   3.608 -0.0800 -0.2975 -0.3066
21547SOL    HW168139   9.319   1.302   3.595 -0.2128  0.4824 -1.2794
21547SOL    HW268140   9.203   1.207   3.615  0.5503 -0.6006 -1.9223
21548SOL     OW68141   6.034   6.527   6.359  0.1355  0.5873  0.2668
21548SOL    HW168142   6.109   6.494   6.309  0.5651  2.0704 -0.1241
21548SOL    HW268143   6.034   6.622   6.342 -1.8723  0.6124  0.1999
21549SOL     OW68144  10.513   7.814   9.912  0.3465 -0.2920 -0.3062
21549SOL    HW168145  10.599   7.839   9.879  0.3229 -0.5277 -0.5511
21549SOL    HW268146  10.452   7.867   9.860  0.2941 -0.8676 -0.8490
21550SOL     OW68147   8.615  10.429   8.970 -0.1507  0.2451 -0.0244
21550SOL    HW168148   8.614  10.511   8.920  1.0941 -0.3178 -1.0330
21550SOL    HW268149   8.708  10.413   8.988 -0.4065 -0.7621  0.4706
21551SOL     OW68150   4.319   6.529   6.729 -0.1734  0.2657 -0.1339
21551SOL    HW168151   4.372   6.478   6.667  0.3568  0.5598  0.0709
21551SOL    HW268152   4.354   6.618   6.722 -1.6556  0.8026 -1.1022
21552SOL     OW68153   6.963   0.258   9.996  0.2535 -0.3040 -0.6560
21552SOL    HW168154   6.870   0.247  10.016  0.3247  0.3807  0.1142
21552SOL    HW268155   6.966   0.333   9.936  0.3440 -0.0541 -0.3388
21553SOL     OW68156   1.074   3.854   9.828 -0.4683  0.6548 -0.0280
21553SOL    HW168157   1.168   3.856   9.845 -0.6389 -0.9138  1.3182
21553SOL    HW268158   1.062   3.914   9.754  1.6545  0.4757 -0.5855
21554SOL     OW68159   4.417   3.872   6.027  0.5022 -0.4929  0.2169
21554SOL    HW168160   4.354   3.801   6.009 -0.7280  0.3319  1.0759
21554SOL    HW268161   4.432   3.912   5.942 -0.1064 -0.7470 -0.0186
21555SOL     OW68162   9.812   5.570   3.277  0.0899  0.5567 -0.0203
21555SOL    HW168163   9.900   5.536   3.266 -0.5237 -0.7665 -1.3050
21555SOL    HW268164   9.811   5.652   3.228  0.8450  1.0559  0.7883
21556SOL     OW68165   6.072   5.528   0.634  0.2409  0.0821 -0.2433
21556SOL    HW168166   6.047   5.470   0.706 -4.4138  1.3973 -0.4703
21556SOL    HW268167   6.128   5.594   0.675 -0.9547 -0.1133  1.8687
21557SOL     OW68168   2.561   4.483   7.457 -0.3051 -0.5492  0.6928
21557SOL    HW168169   2.602   4.528   7.531 -1.7269  1.2617  0.4480
21557SOL    HW268170   2.496   4.425   7.498  1.6863 -2.6916  1.0208
21558SOL     OW68171  10.947   1.489   7.379  0.0222 -0.5758  0.0615
21558SOL    HW168172  10.963   1.471   7.286  2.4107 -0.8119  0.4519
21558SOL    HW268173  11.035   1.499   7.417 -0.9245  2.6085  1.7148
21559SOL     OW68174   3.005   1.103   8.923 -0.2966 -0.2821 -0.3227
21559SOL    HW168175   3.055   1.137   8.849 -0.4963 -0.6011 -0.6045
21559SOL    HW268176   2.914   1.106   8.894 -0.6735  1.9794  0.8162
21560SOL     OW68177   9.202   9.010   1.628  0.1305  0.1752 -0.2190
21560SOL    HW168178   9.206   8.955   1.706  2.8175 -2.2028 -1.8353
21560SOL    HW268179   9.226   9.097   1.659  0.6761 -0.5991  1.6957
21561SOL     OW68180   5.143   2.108   6.016  0.2345  0.2319 -0.0782
21561SOL    HW168181   5.169   2.157   5.938 -0.2748 -0.8842 -0.9624
21561SOL    HW268182   5.221   2.109   6.072  0.6968  0.7859 -0.7220
21562SOL     OW68183   5.839   6.117   8.140 -0.1836  0.0724 -0.0817
21562SOL    HW168184   5.916   6.062   8.148  0.1718  0.2882 -1.6460
21562SOL    HW268185   5.773   6.061   8.099 -0.0722  0.5604 -0.9573
21563SOL     OW68186   1.879   6.599   4.390  0.3011  0.1528 -0.5877
21563SOL    HW168187   1.913   6.517   4.354 -2.3321 -0.4787 -1.8373
21563SOL    HW268188   1.857   6.579   4.481 -0.2332 -0.5204 -0.8587
21564SOL     OW68189   4.769   4.586   5.717 -0.3351 -0.0703 -0.0834
21564SOL    HW168190   4.815   4.670   5.719  1.2705 -0.8838 -0.7051
21564SOL    HW268191   4.736   4.577   5.628 -2.4643  0.8421  0.5437
21565SOL     OW68192   0.231   4.882   2.079 -0.3217 -0.0868  0.5012
21565SOL    HW168193   0.310   4.901   2.129  1.3802  1.2657 -2.4565
21565SOL    HW268194   0.172   4.955   2.100 -1.0997 -1.2934  3.0020
21566SOL     OW68195   8.557   4.649   0.370  0.0823  0.3251  0.2224
21566SOL    HW168196   8.514   4.734   0.370  1.5664  1.1123  0.3905
21566SOL    HW268197   8.537   4.612   0.456  1.1365  1.4530  0.9978
21567SOL     OW68198   2.942   3.811   8.371 -0.0176 -0.1592  0.0690
21567SOL    HW168199   3.023   3.858   8.391 -0.1895 -0.0046  0.4035
21567SOL    HW268200   2.872   3.870   8.400 -0.2284 -0.8339  0.9593
21568SOL     OW68201   8.283   0.242   1.066  0.3533  0.2574  0.0781
21568SOL    HW168202   8.188   0.254   1.057  0.3056  0.8698  1.2539
21568SOL    HW268203   8.321   0.307   1.006  0.0556 -0.8058 -1.3244
21569SOL     OW68204  10.341  10.519   9.560  0.2869 -0.1480  0.0234
21569SOL    HW168205  10.269  10.582   9.563  0.0247 -0.2401 -2.2554
21569SOL    HW268206  10.335  10.471   9.643 -1.2719  0.9066  0.5632
21570SOL     OW68207   3.111   5.372   3.908 -0.3009 -0.1786  0.3073
21570SOL    HW168208   3.056   5.350   3.983 -1.9397  1.0294 -0.4998
21570SOL    HW268209   3.050   5.383   3.835  1.1804 -0.5019 -1.0404
21571SOL     OW68210   3.586   8.149   7.866  0.3199 -0.1852  0.4676
21571SOL    HW168211   3.649   8.112   7.805 -1.3831 -0.1171 -1.4427
21571SOL    HW268212   3.586   8.089   7.940  1.4114 -1.0723 -0.2205
21572SOL     OW68213   4.887   6.781   3.182 -0.6630 -0.4939 -0.8367
21572SOL    HW168214   4.910   6.823   3.099  0.2531  2.1560  0.6559
21572SOL    HW268215   4.970   6.776   3.230 -1.5843  0.4610  0.9338
21573SOL     OW68216   2.956   0.944   6.036 -0.6317  0.0521  0.1234
21573SOL    HW168217   2.924   0.854   6.048  1.5808 -0.8124  0.1285
21573SOL    HW268218   2.988   0.946   5.945  1.1222  0.1623  0.6997
21574SOL     OW68219  10.035   1.116   2.751  0.2054 -0.0459 -0.2175
21574SOL    HW168220   9.957   1.118   2.695 -0.1428 -3.7302 -0.1638
21574SOL    HW268221  10.106   1.092   2.691  0.7235  0.3945  0.2141
21575SOL     OW68222   4.781   1.954   2.999 -0.2820  0.3366  0.0596
21575SOL    HW168223   4.796   1.892   2.928 -0.4235  0.2873  0.0739
21575SOL    HW268224   4.796   2.040   2.959  0.7978  0.2634  0.2507
21576SOL     OW68225   9.156  10.601   6.434  0.0369 -0.3774 -0.2539
21576SOL    HW168226   9.119  10.670   6.379 -0.4863 -1.4718 -1.3244
21576SOL    HW268227   9.169  10.643   6.520 -0.8159  0.8724 -0.7041
21577SOL     OW68228   3.417   4.720  10.323  0.1709  0.1572  0.3391
21577SOL    HW168229   3.452   4.687  10.405 -1.5893 -2.7871  0.0577
21577SOL    HW268230   3.432   4.650  10.260 -2.0411  0.6466 -0.8628
21578SOL     OW68231   6.496   5.816   4.543 -0.2436  0.2120  0.3579
21578SOL    HW168232   6.542   5.857   4.616 -1.2042  2.4013 -0.1792
21578SOL    HW268233   6.523   5.866   4.466 -1.7841  0.1338 -0.2765
21579SOL     OW68234   6.362   2.751   2.689 -0.0233 -0.0753  0.4355
21579SOL    HW168235   6.315   2.822   2.733 -0.2527 -0.2048  0.4016
21579SOL    HW268236   6.300   2.678   2.688 -0.2685  0.1309 -0.7019
21580SOL     OW68237   5.567   1.979   4.970 -0.2117  0.0973  0.3225
21580SOL    HW168238   5.606   2.047   4.915 -2.2272 -0.3404 -1.8438
21580SOL    HW268239   5.620   1.901   4.953  0.1345  0.3505  0.2321
21581SOL     OW68240   0.137   2.382   5.584 -0.8173 -0.2466  0.0431
21581SOL    HW168241   0.218   2.331   5.590 -2.5485 -3.1394  1.1310
21581SOL    HW268242   0.067   2.317   5.594 -3.3170  2.0806 -0.9461
21582SOL     OW68243   3.165   2.755   3.761  0.1187  0.4878 -0.4211
21582SOL    HW168244   3.161   2.832   3.819  0.1644  0.8878 -0.9490
21582SOL    HW268245   3.074   2.728   3.751  0.1855 -0.1917  0.6395
21583SOL     OW68246   2.516   9.845   7.482 -0.3549 -0.1205 -0.0944
21583SOL    HW168247   2.565   9.825   7.562  1.0196  0.6705 -0.6917
21583SOL    HW268248   2.530   9.769   7.426  0.8543  0.3900 -0.5339
21584SOL     OW68249   8.009   9.121   0.904 -0.3453  0.1170  0.3246
21584SOL    HW168250   7.923   9.164   0.898 -0.2091  0.3426 -0.0348
21584SOL    HW268251   8.067   9.176   0.852 -0.1837 -0.5382 -0.2000
21585SOL     OW68252   7.867   2.844   4.235 -0.0749  0.0302 -0.1399
21585SOL    HW168253   7.942   2.829   4.292 -2.0847 -0.4278  2.6120
21585SOL    HW268254   7.878   2.934   4.205 -0.6026  1.7789  4.0765
21586SOL     OW68255   3.503   6.520   7.430  0.2928 -1.1060  0.1416
21586SOL    HW168256   3.558   6.455   7.386  0.8132 -0.0501 -0.8454
21586SOL    HW268257   3.564   6.570   7.485  0.4055  0.1588 -1.0581
21587SOL     OW68258   9.402   5.624   8.046  0.1387 -0.0441  0.3608
21587SOL    HW168259   9.477   5.630   8.105  0.2895 -1.6329  0.3684
21587SOL    HW268260   9.409   5.702   7.991  1.0481  0.5002  1.2171
21588SOL     OW68261   2.915  10.879   7.621 -0.1472 -0.4819 -0.1486
21588SOL    HW168262   2.933  10.808   7.559 -0.0637  0.5875 -1.3961
21588SOL    HW268263   2.996  10.887   7.672  0.5937 -0.0060 -1.3423
21589SOL     OW68264   2.703   3.306   8.103  0.4719  0.2664  0.0374
21589SOL    HW168265   2.657   3.372   8.154 -0.7997 -1.1043  0.7498
21589SOL    HW268266   2.704   3.340   8.014 -1.5012  0.5823  0.0973
21590SOL     OW68267   4.928   1.663   3.594 -0.1442 -0.0544 -0.2562
21590SOL    HW168268   5.016   1.702   3.590 -0.5020  0.7554 -0.5112
21590SOL    HW268269   4.874   1.722   3.542 -0.5963 -1.2329 -1.1672
21591SOL     OW68270   0.441   7.906   2.740 -0.3563  0.0925 -0.6010
21591SOL    HW168271   0.520   7.860   2.768  0.8970  1.8496 -1.1288
21591SOL    HW268272   0.397   7.844   2.682  0.8252 -0.7715 -0.6054
21592SOL     OW68273   2.122   9.337   5.891 -0.3262  0.1711 -0.0700
21592SOL    HW168274   2.039   9.328   5.843  1.2386  0.7385 -3.0972
21592SOL    HW268275   2.098   9.323   5.983 -3.6871 -0.0739 -0.8636
21593SOL     OW68276   2.518   8.533   7.455 -0.3113  0.2363 -0.2075
21593SOL    HW168277   2.530   8.561   7.365 -3.0288 -3.0484 -1.7826
21593SOL    HW268278   2.579   8.460   7.466 -0.2775  0.3601  0.4751
21594SOL     OW68279   6.341   6.041   2.410 -0.4918  0.0913 -0.5441
21594SOL    HW168280   6.384   6.019   2.493  0.6526  1.0867 -0.8508
21594SOL    HW268281   6.256   5.998   2.416  0.3306 -1.5558  0.2956
21595SOL     OW68282   8.051   8.018   7.859 -0.3824  0.0124  0.2558
21595SOL    HW168283   8.102   8.071   7.920 -0.8425  2.0538 -1.0173
21595SOL    HW268284   8.115   7.959   7.819  0.4257  0.5316  0.7568
21596SOL     OW68285   8.756   5.976   1.776  0.0658  0.0175  0.0295
21596SOL    HW168286   8.827   5.992   1.838  1.2941 -2.2754 -0.6674
21596SOL    HW268287   8.726   5.887   1.796 -2.7865  0.9483  0.3952
21597SOL     OW68288   3.899  10.182   3.751  0.2080 -0.3572  0.2884
21597SOL    HW168289   3.840  10.109   3.768  0.1321 -0.4677 -0.4461
21597SOL    HW268290   3.968  10.173   3.817  1.2211 -2.1957 -0.9336
21598SOL     OW68291   1.773   3.059   7.745 -0.4315  0.1460  0.3930
21598SOL    HW168292   1.781   3.153   7.728  0.8286 -0.0785 -0.3488
21598SOL    HW268293   1.680   3.047   7.765 -0.8176  1.3901 -0.4809
21599SOL     OW68294   7.529   5.624   2.867 -0.1899  0.0328 -0.1044
21599SOL    HW168295   7.537   5.585   2.954 -1.3518 -0.9559 -0.4213
21599SOL    HW268296   7.555   5.716   2.880  0.0787 -0.2043  1.1865
21600SOL     OW68297   5.474  10.614  10.973  0.1541 -0.2842  0.0894
21600SOL    HW168298   5.568  10.616  10.989  0.1691 -1.7692  0.3245
21600SOL    HW268299   5.464  10.652  10.886  0.6883  2.1754  1.0152
21601SOL     OW68300  10.773   8.497   3.780  0.6405  0.1188 -0.6519
21601SOL    HW168301  10.830   8.477   3.854 -1.4520  0.8129  1.2684
21601SOL    HW268302  10.830   8.489   3.703  2.6657 -1.6621  0.8947
21602SOL     OW68303   9.579   3.446   5.923 -0.3751 -0.3645 -0.4361
21602SOL    HW168304   9.492   3.484   5.914 -0.1106  0.0801 -1.1113
21602SOL    HW268305   9.566   3.373   5.984 -1.1489 -0.0832 -0.2484
21603SOL     OW68306   1.650  10.374   4.575 -0.3791  0.1250 -0.4959
21603SOL    HW168307   1.647  10.433   4.651 -1.1844 -0.7213  0.1533
21603SOL    HW268308   1.605  10.422   4.506  1.1265  1.2736 -0.7389
21604SOL     OW68309   7.878   7.721   1.281 -0.2567 -0.0073 -0.0734
21604SOL    HW168310   7.895   7.634   1.317  0.4504 -0.3072 -1.0786
21604SOL    HW268311   7.902   7.781   1.351  2.3081 -0.5264 -0.4049
21605SOL     OW68312   6.946   5.291   6.770  0.2403 -0.1905  0.3848
21605SOL    HW168313   6.942   5.385   6.789 -1.2265 -0.5757  2.4755
21605SOL    HW268314   7.038   5.268   6.781  0.5361  0.9058  0.3437
21606SOL     OW68315  10.442   5.048   4.792 -0.4907 -0.1268 -0.0086
21606SOL    HW168316  10.498   5.116   4.756  1.3585 -0.7905  1.4045
21606SOL    HW268317  10.360   5.055   4.743  0.9296  0.6648 -2.4464
21607SOL     OW68318   2.086   0.025   5.459 -0.3670  0.2483  0.3336
21607SOL    HW168319   2.123   0.105   5.421  1.9568 -1.6813 -1.7770
21607SOL    HW268320   2.002   0.014   5.415 -0.9571  1.7380  1.0215
21608SOL     OW68321   5.780   9.613  10.787 -0.0304 -0.0482  0.0688
21608SOL    HW168322   5.868   9.580  10.770  0.2154 -0.8061  2.4720
21608SOL    HW268323   5.723   9.560  10.730  0.8837 -0.8033 -0.1612
21609SOL     OW68324   7.630   8.218  10.517  0.1066 -0.2667  0.2683
21609SOL    HW168325   7.638   8.228  10.612 -0.7513 -2.2799  0.6123
21609SOL    HW268326   7.652   8.126  10.501  0.3787  0.0721 -1.5149
21610SOL     OW68327   7.234   7.096   7.341 -0.8868 -0.0627 -0.3198
21610SOL    HW168328   7.285   7.123   7.264 -3.1515  0.5587 -1.6855
21610SOL    HW268329   7.250   7.166   7.405  1.2101 -0.7033 -0.0730
21611SOL     OW68330   8.051  10.429   2.308  0.0155  0.3195  0.0076
21611SOL    HW168331   8.110  10.438   2.233  0.3280  0.1978  0.2350
21611SOL    HW268332   8.053  10.336   2.329 -0.0090  0.3655  0.2149
21612SOL     OW68333   7.129   6.470   8.170 -0.0852 -0.1113  0.1162
21612SOL    HW168334   7.162   6.387   8.205  0.6915 -0.6913 -1.8707
21612SOL    HW268335   7.081   6.445   8.091  2.5102  1.4633 -2.1268
21613SOL     OW68336   5.541   9.346   1.991  1.1088 -0.2238 -0.0462
21613SOL    HW168337   5.446   9.348   1.992  1.1090 -0.0798 -0.1393
21613SOL    HW268338   5.567   9.358   2.082  1.0495  1.0544 -0.1735
21614SOL     OW68339   3.489   7.104   6.711 -0.9618  0.1789 -0.2949
21614SOL    HW168340   3.416   7.103   6.649 -0.4721  0.4934 -0.8921
21614SOL    HW268341   3.453   7.144   6.790 -1.4819  0.1691 -0.5250
21615SOL     OW68342   4.684   5.128   9.535 -0.3788 -0.0650  0.4257
21615SOL    HW168343   4.758   5.083   9.494 -0.4390  0.7719 -0.6481
21615SOL    HW268344   4.610   5.069   9.522 -0.6140  0.5963 -1.6293
21616SOL     OW68345   4.405   6.999   4.411  0.0002 -0.2729 -0.3237
21616SOL    HW168346   4.356   6.960   4.484 -0.7797 -0.2444 -0.8310
21616SOL    HW268347   4.340   7.048   4.361  0.9858  1.9334  0.4325
21617SOL     OW68348   7.849   5.409   4.499  0.2048  0.1054  0.1983
21617SOL    HW168349   7.834   5.322   4.462  0.6722 -0.2590  0.8456
21617SOL    HW268350   7.827   5.469   4.428 -2.7352 -0.4242  0.5370
21618SOL     OW68351   7.430   9.772   2.800  0.5282  0.1481  0.5250
21618SOL    HW168352   7.473   9.730   2.874  1.1760 -1.4449 -0.7119
21618SOL    HW268353   7.425   9.864   2.825  0.8373 -0.3286  2.4855
21619SOL     OW68354   3.716   3.282   6.383 -0.1696  0.0719  0.1877
21619SOL    HW168355   3.629   3.318   6.401 -0.8801 -0.9457 -0.9930
21619SOL    HW268356   3.748   3.333   6.308 -1.0580 -1.4385 -1.3041
21620SOL     OW68357   9.198   0.387   1.460 -0.2411  0.0093 -0.2680
21620SOL    HW168358   9.165   0.434   1.536  1.1288  0.0782  0.3247
21620SOL    HW268359   9.290   0.414   1.454 -0.1843 -0.4103 -1.6287
21621SOL     OW68360   2.403   1.838   4.200  0.3913  0.6947  0.0305
21621SOL    HW168361   2.354   1.787   4.136  0.5078  0.6759 -0.0426
21621SOL    HW268362   2.371   1.927   4.190  0.8251  0.7989 -0.4546
21622SOL     OW68363   8.616   2.783   0.844 -0.1712  0.9711  0.1391
21622SOL    HW168364   8.648   2.819   0.761 -0.5810 -0.2171 -0.5530
21622SOL    HW268365   8.660   2.698   0.852 -0.3628  0.9410  0.9931
21623SOL     OW68366  10.018   2.838   9.914  0.1335 -0.4845  0.2904
21623SOL    HW168367   9.997   2.753   9.875  0.2207 -0.9126  1.1488
21623SOL    HW268368  10.065   2.817   9.995 -0.5898  0.3451  0.9608
21624SOL     OW68369   1.300   8.662   4.300 -0.1170 -0.0978  0.2600
21624SOL    HW168370   1.256   8.657   4.215 -0.1117 -0.3109  0.2687
21624SOL    HW268371   1.232   8.692   4.361 -0.1445 -0.0334  0.1978
21625SOL     OW68372   9.197   0.630  10.208  0.0297 -0.3226  0.1614
21625SOL    HW168373   9.263   0.694  10.235  0.7843 -0.9620 -0.1313
21625SOL    HW268374   9.198   0.633  10.113  0.8133 -1.5044  0.1191
21626SOL     OW68375   9.740   0.181   8.954 -0.1177 -0.2205 -0.0292
21626SOL    HW168376   9.699   0.193   9.040 -0.6755  1.7949 -0.5289
21626SOL    HW268377   9.688   0.112   8.913  0.7361 -1.9032  1.5422
21627SOL     OW68378  10.223   6.457   0.505  0.7035  0.5361 -0.3387
21627SOL    HW168379  10.308   6.461   0.549 -0.5179  0.0302  2.2589
21627SOL    HW268380  10.179   6.539   0.530 -0.5008 -0.3319  0.5044
21628SOL     OW68381  10.057   5.514   5.386 -0.5012  0.6452 -0.4589
21628SOL    HW168382  10.056   5.419   5.388  1.3130  0.5985  0.0381
21628SOL    HW268383   9.987   5.540   5.446 -0.9316 -0.3534 -0.5051
21629SOL     OW68384   0.139   5.925   3.474  0.3024 -0.5429 -0.1206
21629SOL    HW168385   0.176   5.953   3.391 -1.8902 -1.7529 -1.5991
21629SOL    HW268386   0.093   5.844   3.454  0.8694 -1.6431  2.5940
21630SOL     OW68387  10.291   1.811   0.859  0.0273  0.1402 -0.1380
21630SOL    HW168388  10.343   1.891   0.850 -0.3313  0.6061  1.4844
21630SOL    HW268389  10.333   1.748   0.801  0.5727  1.3787 -1.1328
21631SOL     OW68390   5.231   5.809  10.520  0.1407  0.1089 -0.2779
21631SOL    HW168391   5.318   5.793  10.556  0.6375 -1.9984 -2.1914
21631SOL    HW268392   5.191   5.722  10.515 -0.4397  0.4429 -3.3007
21632SOL     OW68393   2.189   9.661   7.191 -0.2925 -0.0556  0.7771
21632SOL    HW168394   2.140   9.716   7.251 -0.6990  1.5384 -0.9464
21632SOL    HW268395   2.135   9.582   7.181 -0.4082 -0.1752  2.1363
21633SOL     OW68396   5.583   0.623   6.619  0.0803  0.3581 -0.0333
21633SOL    HW168397   5.519   0.573   6.669  0.1947  0.6556  0.4180
21633SOL    HW268398   5.616   0.688   6.681  0.0443  0.8902 -0.5624
21634SOL     OW68399   3.427   9.971   0.814  0.2197 -0.4803  0.2191
21634SOL    HW168400   3.447   9.881   0.788  0.5424 -0.4410  0.3263
21634SOL    HW268401   3.381   9.961   0.898  0.0513 -0.5554  0.1190
21635SOL     OW68402   2.888   6.504   9.584  0.3228  0.7621  0.0363
21635SOL    HW168403   2.842   6.566   9.641 -0.5361  0.8397 -0.7094
21635SOL    HW268404   2.875   6.539   9.496 -0.3166 -0.5545 -0.4120
21636SOL     OW68405   5.050   7.654   1.177  0.2340  0.0436 -0.0268
21636SOL    HW168406   5.068   7.616   1.263  1.1221  1.5146  0.4674
21636SOL    HW268407   4.993   7.589   1.134  1.5332 -1.7434  0.8134
21637SOL     OW68408   5.585   1.952   9.018 -0.7840 -0.3530  0.1432
21637SOL    HW168409   5.648   1.954   9.090  0.3983 -0.4287 -0.8611
21637SOL    HW268410   5.500   1.945   9.061 -0.2653  1.6019  1.6037
21638SOL     OW68411   0.520   3.568   5.462  0.4358  0.1599 -0.3377
21638SOL    HW168412   0.448   3.578   5.399  0.6729  2.0283 -0.3604
21638SOL    HW268413   0.507   3.639   5.525  2.7397  1.1360 -0.8649
21639SOL     OW68414  10.625   6.429   4.294 -0.1286  0.0501  0.0363
21639SOL    HW168415  10.675   6.391   4.366  0.2836 -0.0428 -0.3000
21639SOL    HW268416  10.617   6.522   4.315 -2.1944 -0.3843  1.4977
21640SOL     OW68417   3.401   2.312   3.173  0.3585  0.4931 -0.0766
21640SOL    HW168418   3.343   2.310   3.249  1.0027  0.5631  0.4297
21640SOL    HW268419   3.489   2.305   3.210  0.6604  0.0671 -0.8472
21641SOL     OW68420   0.037   5.035   7.710 -0.4219 -0.5794  0.3077
21641SOL    HW168421   0.095   4.966   7.679  0.9228  0.0460  1.3453
21641SOL    HW268422   0.053   5.109   7.651 -0.1416 -0.3989  0.6086
21642SOL     OW68423   9.321   1.270   5.841 -0.0164  0.1606  0.4465
21642SOL    HW168424   9.402   1.300   5.882 -0.0676 -0.1617  0.7903
21642SOL    HW268425   9.329   1.175   5.838  0.5255  0.2110 -1.4286
21643SOL     OW68426   8.880   7.802   8.289  0.4660  0.0802  0.0423
21643SOL    HW168427   8.939   7.874   8.267 -1.3174  1.7737  0.5029
21643SOL    HW268428   8.882   7.798   8.385 -0.2711  0.3066  0.0793
21644SOL     OW68429   5.563  10.652  10.345 -0.3723  0.4547 -0.4115
21644SOL    HW168430   5.606  10.619  10.424  0.1162  0.3672 -0.7039
21644SOL    HW268431   5.473  10.620  10.351 -0.4893  0.9015  0.3692
21645SOL     OW68432   5.617   1.531   2.626 -0.0565  0.0683  0.3858
21645SOL    HW168433   5.617   1.436   2.629 -2.4912  0.0284  0.9266
21645SOL    HW268434   5.672   1.553   2.550 -0.7996 -1.8169 -0.7553
21646SOL     OW68435   5.721   4.496   2.305 -0.4203 -0.0559  0.4737
21646SOL    HW168436   5.652   4.552   2.340 -2.6662 -2.6103  0.5246
21646SOL    HW268437   5.693   4.477   2.215 -0.2830 -1.7836  0.7636
21647SOL     OW68438   9.656   6.672   0.286  0.2227 -0.5865 -0.5276
21647SOL    HW168439   9.675   6.579   0.303 -1.7548 -1.2130 -1.3801
21647SOL    HW268440   9.683   6.685   0.195  0.5362 -0.3108 -0.3952
21648SOL     OW68441   7.202   2.310   7.500  0.2348  0.4264  0.1524
21648SOL    HW168442   7.174   2.260   7.576  0.6620 -0.5089 -0.2871
21648SOL    HW268443   7.232   2.394   7.536 -2.2611  1.1663  0.7186
21649SOL     OW68444   2.800  10.922   7.193 -0.0460  0.0308 -0.5530
21649SOL    HW168445   2.759  10.881   7.117 -0.2285 -2.7198  0.9247
21649SOL    HW268446   2.893  10.904   7.183 -0.2054 -1.4963  0.4790
21650SOL     OW68447   3.912   3.456   0.760 -0.4493  0.7881  0.1858
21650SOL    HW168448   3.849   3.517   0.724 -0.0825  1.7749  1.1630
21650SOL    HW268449   3.937   3.494   0.845  1.1186  0.2088  0.0214
21651SOL     OW68450   9.176   3.664   1.709  0.1006 -0.3685 -0.1251
21651SOL    HW168451   9.160   3.596   1.643  1.5050  0.8129 -1.7599
21651SOL    HW268452   9.255   3.636   1.755  0.4515 -0.0678 -0.5331
21652SOL     OW68453   9.774   7.014   2.407 -0.2010  0.3132  0.2058
21652SOL    HW168454   9.779   7.066   2.487  1.8431  0.7802 -0.1621
21652SOL    HW268455   9.863   6.982   2.394 -0.3066  0.8129 -2.2547
21653SOL     OW68456   8.329   6.969   1.222 -0.0552  0.1270  0.3369
21653SOL    HW168457   8.369   7.008   1.300  0.3155  1.6652 -0.5894
21653SOL    HW268458   8.267   6.905   1.257 -0.3181  1.1917  1.9089
21654SOL     OW68459   2.901   0.711   3.202  0.5202 -0.0063 -0.2036
21654SOL    HW168460   2.965   0.781   3.209 -0.1803  0.7123 -0.7895
21654SOL    HW268461   2.857   0.709   3.287  0.7846  0.0271 -0.0683
21655SOL     OW68462   7.835   5.543   9.288  0.1474 -0.1287  0.0247
21655SOL    HW168463   7.922   5.505   9.278  0.4814  0.8453 -1.0567
21655SOL    HW268464   7.810   5.569   9.199 -1.1205 -0.1275  0.3653
21656SOL     OW68465   4.421   5.476   9.371 -0.8286  0.2373 -0.2592
21656SOL    HW168466   4.436   5.557   9.322 -1.1391 -0.7810 -2.1344
21656SOL    HW268467   4.507   5.452   9.404 -0.4016  0.4392 -1.1875
21657SOL     OW68468   4.792   9.202  10.855 -0.4578 -0.2277 -0.7619
21657SOL    HW168469   4.881   9.222  10.886 -0.4466 -1.8312  0.3331
21657SOL    HW268470   4.735   9.246  10.918 -0.4596  0.4459 -1.2212
21658SOL     OW68471   4.894   1.650   2.572  0.8146  0.1139 -0.1539
21658SOL    HW168472   4.882   1.698   2.490 -1.1410 -1.4943 -0.9211
21658SOL    HW268473   4.905   1.559   2.544  2.8953 -0.1278  1.2909
21659SOL     OW68474   0.949   0.275   6.071 -0.2068  0.6584 -0.4930
21659SOL    HW168475   0.893   0.254   5.996  0.9150  0.4061 -1.2872
21659SOL    HW268476   0.946   0.197   6.127 -2.0170  1.2967  0.3840
21660SOL     OW68477   9.682   1.041   0.192 -0.2734 -0.8433 -0.3148
21660SOL    HW168478   9.638   1.092   0.260 -0.3208  0.8497 -1.5420
21660SOL    HW268479   9.738   1.104   0.147  0.1588 -2.0261 -1.5176
21661SOL     OW68480  10.274   4.597   3.390  0.5539  0.1120  0.3453
21661SOL    HW168481  10.236   4.610   3.304  1.1822 -0.2036  0.0087
21661SOL    HW268482  10.283   4.685   3.427  0.2151  0.2405  0.1215
21662SOL     OW68483   1.636   5.268   2.977  0.4751  0.0383 -0.5732
21662SOL    HW168484   1.724   5.259   3.012  0.5369  2.7999  0.2162
21662SOL    HW268485   1.583   5.295   3.053 -0.5263  0.8187 -1.5148
21663SOL     OW68486   8.949   4.239   3.942 -0.6960  0.2184  0.4130
21663SOL    HW168487   8.869   4.217   3.894 -0.3398 -2.2268  0.8025
21663SOL    HW268488   9.003   4.284   3.877 -1.5437 -0.0332 -0.5126
21664SOL     OW68489   9.179   2.328   7.428  0.6509  0.1929 -0.1784
21664SOL    HW168490   9.233   2.377   7.490  1.3310  0.0353 -0.6402
21664SOL    HW268491   9.093   2.371   7.433  0.9060  0.6673  0.3032
21665SOL     OW68492   7.491   5.796   5.496  0.4022 -0.4712 -0.0310
21665SOL    HW168493   7.576   5.757   5.473  0.9663 -0.7218  2.2225
21665SOL    HW268494   7.489   5.793   5.592 -2.0265 -0.1590 -0.0138
21666SOL     OW68495   2.824   5.309   4.569  0.4453  0.2648 -0.6562
21666SOL    HW168496   2.838   5.248   4.641 -0.7292  1.1825  0.3853
21666SOL    HW268497   2.759   5.267   4.513  0.2586  0.2058 -0.3919
21667SOL     OW68498   2.459   3.023   5.702  0.3778  0.2287 -0.1460
21667SOL    HW168499   2.396   3.027   5.630  0.7424  0.3616 -0.4620
21667SOL    HW268500   2.415   3.065   5.776  0.1685  0.4874 -0.4179
21668SOL     OW68501   6.699  10.207   2.238 -0.2365 -0.3617  0.1605
21668SOL    HW168502   6.716  10.216   2.145 -0.5103  0.4983  0.1829
21668SOL    HW268503   6.716  10.294   2.274 -0.3750 -0.6203  0.8777
21669SOL     OW68504   7.253   7.442   7.804  0.2975  0.1128  0.3248
21669SOL    HW168505   7.277   7.351   7.788 -0.5906 -0.2434  0.9203
21669SOL    HW268506   7.277   7.457   7.896 -0.9261 -0.0026  0.6856
21670SOL     OW68507   7.046   9.991   1.177  0.2363 -0.2186 -0.0792
21670SOL    HW168508   6.975   9.929   1.189 -1.0435  1.1096 -0.4112
21670SOL    HW268509   7.019  10.068   1.227  1.0403  0.6176 -0.8865
21671SOL     OW68510   3.896   4.856   1.152  0.1688 -0.1316  0.5011
21671SOL    HW168511   3.877   4.933   1.205 -0.1695 -0.0583  0.2704
21671SOL    HW268512   3.897   4.887   1.062 -2.5949 -0.8451  0.1278
21672SOL     OW68513   8.655   8.730   7.118 -0.5766  0.2465  0.0802
21672SOL    HW168514   8.602   8.689   7.187 -1.2726 -0.0864 -0.6292
21672SOL    HW268515   8.637   8.677   7.040  1.5546 -0.4500  0.0210
21673SOL     OW68516   6.898   1.021   3.538  0.5460  0.0736 -0.1816
21673SOL    HW168517   6.905   0.925   3.543  2.4520  0.1674 -0.4705
21673SOL    HW268518   6.870   1.047   3.626  0.4360 -0.7188  0.0313
21674SOL     OW68519   0.495   9.858   5.616  0.2150 -0.4065  0.0084
21674SOL    HW168520   0.431   9.796   5.581  0.6873 -0.3089 -1.0594
21674SOL    HW268521   0.548   9.807   5.677 -0.9039 -0.4773  0.9480
21675SOL     OW68522   8.234   8.992   0.715  0.3732 -0.8701  0.7044
21675SOL    HW168523   8.275   8.956   0.794  1.3358  1.9935  1.6177
21675SOL    HW268524   8.231   9.086   0.730 -0.2529 -0.3048 -2.3348
21676SOL     OW68525   4.763   5.979   2.943 -0.0713  0.4894 -0.5283
21676SOL    HW168526   4.813   5.897   2.945 -1.2627 -0.2980 -1.4307
21676SOL    HW268527   4.781   6.021   3.027 -1.1473 -1.7616  0.9072
21677SOL     OW68528   2.094   5.079  10.008 -0.2743  0.2243 -0.0852
21677SOL    HW168529   2.064   5.137   9.938  0.5105 -0.5496 -1.0955
21677SOL    HW268530   2.113   4.996   9.964 -0.4865 -0.5240  1.1745
21678SOL     OW68531   0.448   9.629   1.323 -0.9432 -0.6944 -0.3732
21678SOL    HW168532   0.447   9.716   1.363 -3.7063 -0.0410 -1.6082
21678SOL    HW268533   0.367   9.588   1.353  0.3373 -2.9371  0.2349
21679SOL     OW68534   8.536   9.313   0.876 -0.4475  0.7724  0.3319
21679SOL    HW168535   8.571   9.299   0.963 -0.8951 -0.7909  0.2864
21679SOL    HW268536   8.599   9.271   0.817 -2.2379 -2.0214  0.2484
21680SOL     OW68537   5.507   5.995   5.314 -0.2852  0.0997  0.2538
21680SOL    HW168538   5.483   6.078   5.273  0.7502  0.4705  0.3500
21680SOL    HW268539   5.449   5.987   5.390 -0.5923  0.5947  0.0725
21681SOL     OW68540   0.589   8.929   0.079 -0.1502 -0.1574 -0.6508
21681SOL    HW168541   0.500   8.914   0.111 -0.0331  1.4529  0.5225
21681SOL    HW268542   0.581   8.933  -0.016 -1.4491  0.6913 -0.5131
21682SOL     OW68543   7.932  10.228   0.464  0.6522 -0.2591 -0.3478
21682SOL    HW168544   7.971  10.176   0.394  1.1653 -0.0356 -0.2274
21682SOL    HW268545   7.842  10.196   0.469  0.5948 -0.2415 -1.1430
21683SOL     OW68546   9.806   2.108   9.523 -0.9665 -0.8591 -0.3389
21683SOL    HW168547   9.718   2.129   9.489 -0.6381 -0.1622 -0.7850
21683SOL    HW268548   9.848   2.061   9.452 -0.2811  0.5893 -0.9396
21684SOL     OW68549   0.671   2.132   2.744  0.2076 -0.2094  1.0720
21684SOL    HW168550   0.749   2.169   2.785 -0.7346  1.3421  1.5799
21684SOL    HW268551   0.669   2.170   2.656  0.0943 -0.3369  1.0178
21685SOL     OW68552   8.090   0.733   7.359  0.5287  0.1903  0.4041
21685SOL    HW168553   8.101   0.721   7.453  1.7894 -0.8075  0.1623
21685SOL    HW268554   7.996   0.723   7.344 -0.4062  4.3410  2.0200
21686SOL     OW68555   5.418   5.996   0.382  0.4025  0.3135 -0.2537
21686SOL    HW168556   5.470   6.038   0.313 -1.2535 -0.3771 -2.0072
21686SOL    HW268557   5.454   5.908   0.389 -0.0513  0.0621 -0.9697
21687SOL     OW68558   6.948   2.706   1.992 -0.1430 -0.2490  0.7310
21687SOL    HW168559   6.942   2.735   2.083  0.0003  1.2913  0.2803
21687SOL    HW268560   7.019   2.758   1.954  0.1542 -1.2473 -0.1328
21688SOL     OW68561   7.953   2.881   8.900  0.3698  0.1180  0.1594
21688SOL    HW168562   8.044   2.853   8.906  0.4603  0.3333 -0.1455
21688SOL    HW268563   7.958   2.972   8.870  0.0255 -0.2677 -1.1544
21689SOL     OW68564  10.073   6.951   2.668 -0.3958  0.8775  0.2267
21689SOL    HW168565  10.168   6.957   2.678 -0.3352 -1.0896  1.3975
21689SOL    HW268566  10.060   6.894   2.593 -0.6379  0.6289  0.4552
21690SOL     OW68567   9.033  10.500   6.002  0.2228  0.1438 -0.8351
21690SOL    HW168568   9.115  10.534   5.967  0.7263  0.1780  0.3262
21690SOL    HW268569   8.971  10.572   5.992  0.6276  0.5151 -0.7020
21691SOL     OW68570   7.839   0.819   8.224 -0.1579  0.3994 -0.4350
21691SOL    HW168571   7.755   0.793   8.186  0.9753 -0.6937 -2.3491
21691SOL    HW268572   7.858   0.752   8.289 -0.5715  0.4002 -0.3144
21692SOL     OW68573   8.586   8.239   0.612  0.1784 -0.3220 -0.1437
21692SOL    HW168574   8.504   8.289   0.603 -0.2292 -0.6052  1.5720
21692SOL    HW268575   8.577   8.194   0.696  1.4634 -1.5862 -0.6456
21693SOL     OW68576   4.540   4.966   7.111  0.7714  0.1492  0.0682
21693SOL    HW168577   4.474   5.024   7.073 -0.9335 -0.4920  1.8983
21693SOL    HW268578   4.622   5.015   7.104 -0.3194  2.0510  0.0505
21694SOL     OW68579   4.430  10.642   1.571  0.4380  0.4588 -0.3650
21694SOL    HW168580   4.435  10.596   1.655 -1.6671  1.9495  0.6774
21694SOL    HW268581   4.408  10.574   1.507 -0.6164 -0.2945  0.7700
21695SOL     OW68582  10.257  10.046  10.448 -0.7183 -0.0221 -0.7434
21695SOL    HW168583  10.194  10.116  10.465 -0.6318 -0.4586  1.6729
21695SOL    HW268584  10.218   9.995  10.377 -1.1644  1.9548 -2.0090
21696SOL     OW68585   5.189   3.623   0.435  0.4646 -0.2832  0.0807
21696SOL    HW168586   5.260   3.685   0.453  0.2527 -0.4283  1.5075
21696SOL    HW268587   5.233   3.540   0.416  0.7014 -0.0726 -0.3115
21697SOL     OW68588   0.041   7.027  10.494  0.2808  0.6400  0.0053
21697SOL    HW168589   0.076   6.939  10.481 -0.1616  0.4152  0.3197
21697SOL    HW268590  -0.001   7.049  10.410 -0.0443  0.3530  0.0933
21698SOL     OW68591   3.684  10.780   9.894 -0.0963 -0.6731 -0.2130
21698SOL    HW168592   3.610  10.838   9.878 -0.4536 -1.0153  0.1777
21698SOL    HW268593   3.755  10.839   9.921 -0.6174 -0.4567  0.7285
21699SOL     OW68594   5.590   6.347   9.562 -0.6588 -0.3720 -0.0882
21699SOL    HW168595   5.553   6.390   9.484 -1.4193 -0.5412  0.1718
21699SOL    HW268596   5.657   6.289   9.527 -0.3362  0.2542 -0.5369
21700SOL     OW68597   7.556   2.116   5.499 -0.1858 -0.1545 -0.0607
21700SOL    HW168598   7.591   2.041   5.452 -0.6102 -0.5194  0.2020
21700SOL    HW268599   7.477   2.141   5.450  0.0787  0.2695 -0.2828
21701SOL     OW68600   2.040   1.830   5.921 -0.2560 -0.6880  0.2713
21701SOL    HW168601   2.089   1.751   5.898 -1.1802 -1.7986  1.8644
21701SOL    HW268602   1.982   1.802   5.993 -3.0096  0.5834 -1.2707
21702SOL     OW68603   0.431   4.928   3.092  0.6318 -0.1026  0.1437
21702SOL    HW168604   0.521   4.956   3.073  0.5291  0.8533  0.9706
21702SOL    HW268605   0.441   4.863   3.161  0.6718  0.3466  0.5685
21703SOL     OW68606   5.587  10.529   7.241 -0.1292  0.8875  0.1533
21703SOL    HW168607   5.550  10.613   7.214 -0.7210  0.1460 -1.4811
21703SOL    HW268608   5.677  10.531   7.210 -0.6160  0.3054 -1.4027
21704SOL     OW68609   4.577   9.829   8.306  0.5962 -0.4282 -0.1077
21704SOL    HW168610   4.627   9.889   8.361 -0.8500  0.7276  0.0038
21704SOL    HW268611   4.627   9.825   8.224  0.9995  0.5188  0.0790
21705SOL     OW68612   2.379   1.044   4.154 -0.0410 -0.6187  0.1306
21705SOL    HW168613   2.368   1.007   4.066  0.4871  0.7668 -0.5490
21705SOL    HW268614   2.417   0.973   4.205 -1.6110 -1.8866 -0.3894
21706SOL     OW68615   8.172   9.400   2.284 -0.1594 -0.1905  0.4707
21706SOL    HW168616   8.246   9.340   2.271  0.5858  0.3774  1.8791
21706SOL    HW268617   8.202   9.483   2.249 -0.9400 -0.4550 -0.8665
21707SOL     OW68618   2.391   9.224   3.055 -1.0065 -0.2474  0.3703
21707SOL    HW168619   2.413   9.148   3.001 -1.4902 -1.2919  1.5938
21707SOL    HW268620   2.361   9.290   2.992  1.4181 -0.2660 -0.9275
21708SOL     OW68621  10.099   5.820   5.690 -0.0488  0.6857 -0.4689
21708SOL    HW168622  10.047   5.899   5.702 -0.3268  0.2570  1.5743
21708SOL    HW268623  10.047   5.751   5.732  0.6442 -0.4060 -1.3281
21709SOL     OW68624   6.891   8.132   3.419  0.0813 -0.2605  0.3999
21709SOL    HW168625   6.961   8.122   3.483  1.4396  0.9991 -0.7996
21709SOL    HW268626   6.836   8.055   3.431  1.8577 -1.4716  1.1765
21710SOL     OW68627   0.076   3.297   3.980  0.3684 -0.0527  0.1436
21710SOL    HW168628   0.122   3.343   3.909  0.4072 -0.1251  0.1218
21710SOL    HW268629  -0.017   3.312   3.961  0.3088 -1.5507 -0.9354
21711SOL     OW68630   1.742   9.423  10.311  0.5045 -0.4205  0.1155
21711SOL    HW168631   1.660   9.386  10.344  0.6490 -0.4552  0.4454
21711SOL    HW268632   1.742   9.513  10.343  0.3332 -0.2548 -0.3595
21712SOL     OW68633   2.408   3.411   7.050  0.4345  0.0390  0.3189
21712SOL    HW168634   2.397   3.408   7.145 -1.7557  3.6181  0.3727
21712SOL    HW268635   2.498   3.439   7.037  0.7217 -0.3611  1.3148
21713SOL     OW68636   9.535   4.017   6.791  0.3056 -0.1499 -0.3381
21713SOL    HW168637   9.494   4.001   6.705 -0.2878 -0.8200  0.0552
21713SOL    HW268638   9.526   4.111   6.805  0.3567 -0.0451 -0.9875
21714SOL     OW68639   4.228   6.113   4.610 -0.4023 -0.0709 -0.5041
21714SOL    HW168640   4.298   6.098   4.545  0.2819  0.9540 -0.0278
21714SOL    HW268641   4.259   6.187   4.662 -0.5636 -1.3560  1.5307
21715SOL     OW68642   0.426   4.188   2.014 -0.4717 -0.7878 -0.0069
21715SOL    HW168643   0.465   4.149   2.092 -1.6459 -0.9032  0.5436
21715SOL    HW268644   0.337   4.152   2.011 -1.2965  1.1515  0.0089
21716SOL     OW68645   3.214   7.555   7.768  0.7554  1.2095  0.1559
21716SOL    HW168646   3.200   7.473   7.815 -0.7581  1.6336  0.5110
21716SOL    HW268647   3.245   7.528   7.682  0.6433  0.2824  0.3903
21717SOL     OW68648   1.729   4.911   6.005  0.3749 -0.0738  0.1340
21717SOL    HW168649   1.706   4.903   5.913 -0.1359  1.4888  0.1003
21717SOL    HW268650   1.751   4.822   6.032 -2.3714 -1.1043 -0.7120
21718SOL     OW68651   3.376   6.962   3.161  0.1788  0.0266  0.4187
21718SOL    HW168652   3.328   7.023   3.217  0.0581 -0.2153  0.5835
21718SOL    HW268653   3.332   6.878   3.175  0.3826 -0.1086  0.2431
21719SOL     OW68654   2.197   1.768   4.490 -0.0685 -0.1820 -0.5468
21719SOL    HW168655   2.227   1.849   4.449 -1.8790  0.4972 -0.6399
21719SOL    HW268656   2.112   1.791   4.529 -0.3060 -1.8592  0.0086
21720SOL     OW68657   7.034   7.461   8.511  0.6162  0.0469 -0.2809
21720SOL    HW168658   7.105   7.519   8.483  1.1944 -0.4304  0.1614
21720SOL    HW268659   6.960   7.486   8.457  0.7586  1.4212  0.1279
21721SOL     OW68660   3.289   3.422   8.791 -0.9548  0.5542 -0.0978
21721SOL    HW168661   3.235   3.467   8.726 -2.2251 -0.4652  0.2325
21721SOL    HW268662   3.378   3.455   8.774 -1.5183  1.5895 -1.2193
21722SOL     OW68663   1.798   2.971   3.065  0.1681 -0.1070  0.1659
21722SOL    HW168664   1.730   2.944   3.003 -0.5326 -0.7537  1.1919
21722SOL    HW268665   1.796   3.066   3.062 -0.1166 -0.1266 -0.5232
21723SOL     OW68666   0.309   0.444   5.369 -0.3646  0.7765  0.0804
21723SOL    HW168667   0.333   0.458   5.460 -0.1100  0.9305 -0.0102
21723SOL    HW268668   0.229   0.496   5.357 -1.6012 -0.8629  0.7689
21724SOL     OW68669  10.786   3.817   6.402  0.0025 -0.0939 -0.1787
21724SOL    HW168670  10.856   3.816   6.468 -0.0325 -0.5736 -0.1486
21724SOL    HW268671  10.753   3.907   6.404 -0.6026 -0.3250  1.0921
21725SOL     OW68672   8.813   7.809   4.927 -0.1280  0.5731  0.1503
21725SOL    HW168673   8.753   7.857   4.870 -1.9240  0.5584  1.9136
21725SOL    HW268674   8.833   7.870   4.998  2.9088  0.9738 -0.8915
21726SOL     OW68675   3.152   1.805   1.182  0.2033  0.6202 -0.3411
21726SOL    HW168676   3.232   1.779   1.228  0.6440 -0.6299 -1.7282
21726SOL    HW268677   3.163   1.899   1.167  1.5133  0.4325 -0.6838
21727SOL     OW68678   4.387   5.212   4.863  0.4650 -0.4507  0.0223
21727SOL    HW168679   4.446   5.143   4.831 -0.6744 -1.5361  0.2122
21727SOL    HW268680   4.405   5.217   4.957 -1.3734 -2.4697  0.5439
21728SOL     OW68681   5.349   4.011   6.181  0.2224  0.4116  0.4280
21728SOL    HW168682   5.379   3.959   6.256  2.2701  1.0696  0.1449
21728SOL    HW268683   5.412   4.083   6.175 -0.1965  0.6793 -1.5889
21729SOL     OW68684   2.833   1.817   8.789 -0.0155  0.2448 -0.3216
21729SOL    HW168685   2.910   1.802   8.844 -0.4244  3.7688  1.5024
21729SOL    HW268686   2.760   1.818   8.851 -1.4099 -1.6461 -1.8372
21730SOL     OW68687   5.056   1.067   1.932  0.1545  0.2460  0.3425
21730SOL    HW168688   5.071   1.007   2.005  0.1169  0.5401  0.5961
21730SOL    HW268689   5.135   1.121   1.929  1.0352 -1.0303 -1.0862
21731SOL     OW68690   8.756   0.927   0.564  0.4700  0.3730 -0.3265
21731SOL    HW168691   8.797   0.855   0.517 -0.7465 -0.8354  0.4145
21731SOL    HW268692   8.672   0.940   0.521 -0.0627  0.1784  0.6331
21732SOL     OW68693   8.475   7.386   0.178  0.4628 -0.3920  0.0587
21732SOL    HW168694   8.536   7.382   0.252  1.8139 -0.2752 -1.0035
21732SOL    HW268695   8.492   7.305   0.129 -2.2258 -1.7602  1.1755
21733SOL     OW68696   4.126   5.642  10.859 -0.7198  0.2494  0.2451
21733SOL    HW168697   4.084   5.703  10.798  1.3798  2.3041  0.7139
21733SOL    HW268698   4.065   5.636  10.933 -1.7842  0.3074 -0.5988
21734SOL     OW68699   5.127   4.442   8.564  0.0809 -0.1718  0.6122
21734SOL    HW168700   5.105   4.457   8.656 -0.9003 -1.7547  0.6748
21734SOL    HW268701   5.203   4.383   8.567  1.2448  1.2637  0.3820
21735SOL     OW68702   4.104   6.091   2.613  0.1013  0.6713  0.4901
21735SOL    HW168703   4.118   6.086   2.708 -0.9445 -2.5284  0.5785
21735SOL    HW268704   4.184   6.055   2.575 -0.0007  0.7583  0.1940
21736SOL     OW68705   5.070   2.617   0.232  0.3937 -0.1466  0.0611
21736SOL    HW168706   5.053   2.524   0.221  0.2980 -0.5421  2.8594
21736SOL    HW268707   4.997   2.660   0.188 -1.0079 -1.4933  0.9660
21737SOL     OW68708   6.300   9.288   2.076  0.1320  0.4720  0.0512
21737SOL    HW168709   6.256   9.353   2.021  1.8104  0.1023 -1.8774
21737SOL    HW268710   6.251   9.207   2.063 -0.4467  0.7643  0.4103
21738SOL     OW68711   8.523   4.349   5.823  0.2427  0.5006 -1.0159
21738SOL    HW168712   8.587   4.417   5.842 -1.3100  1.5718  0.7742
21738SOL    HW268713   8.573   4.277   5.784  2.3214  1.6819 -0.6100
21739SOL     OW68714   9.217   4.500   7.541  0.0821  1.2627 -0.1465
21739SOL    HW168715   9.141   4.507   7.599 -0.5801 -0.8549 -0.6420
21739SOL    HW268716   9.259   4.418   7.567  0.5056  0.9211 -1.7878
21740SOL     OW68717  10.777   8.823   2.290 -0.4852  0.1678  0.1146
21740SOL    HW168718  10.708   8.884   2.263 -0.1319  0.9903  1.0189
21740SOL    HW268719  10.852   8.845   2.235 -0.2135  0.8855  0.7492
21741SOL     OW68720   0.550   7.263   3.710 -0.5842  0.4093 -0.2196
21741SOL    HW168721   0.491   7.276   3.635 -2.6218 -2.9078  0.6060
21741SOL    HW268722   0.599   7.184   3.688 -0.6488 -0.1619  1.5792
21742SOL     OW68723  10.372   1.949   2.420  0.7680 -0.3751  0.2644
21742SOL    HW168724  10.440   1.983   2.361  0.7942  0.6951  0.8701
21742SOL    HW268725  10.421   1.901   2.487  0.7513 -1.4221 -0.4538
21743SOL     OW68726   7.263   8.603   1.367 -0.2823 -0.3820  0.1397
21743SOL    HW168727   7.301   8.680   1.324 -0.2882  0.1976  1.1477
21743SOL    HW268728   7.170   8.622   1.374 -0.1876 -0.2050  0.9506
21744SOL     OW68729   3.605   8.912   0.696 -0.1372 -0.8203  0.1308
21744SOL    HW168730   3.619   8.875   0.609 -1.3573 -0.5348 -0.2001
21744SOL    HW268731   3.527   8.868   0.729 -0.1669 -0.3320  0.7395
21745SOL     OW68732   3.577  10.631   0.387  0.2612 -0.0206  0.3545
21745SOL    HW168733   3.652  10.681   0.355  0.7704 -0.2014  1.2382
21745SOL    HW268734   3.533  10.690   0.448 -1.5817  0.8893 -1.7313
21746SOL     OW68735   5.177   9.673   8.538 -0.2245 -0.3358 -0.0929
21746SOL    HW168736   5.239   9.615   8.494  1.1702  0.9218  0.1471
21746SOL    HW268737   5.143   9.729   8.468 -0.0458 -0.1201 -0.0084
21747SOL     OW68738   6.688   1.108   0.788  0.0637 -0.0466  0.2278
21747SOL    HW168739   6.618   1.171   0.772 -1.9730 -2.0538  0.6640
21747SOL    HW268740   6.645   1.023   0.782  2.2453 -1.3597  1.6995
21748SOL     OW68741   7.146  10.703   0.223  0.7248  0.4884  0.3815
21748SOL    HW168742   7.074  10.726   0.282 -0.7369  1.2203 -1.5688
21748SOL    HW268743   7.134  10.760   0.147  1.1209 -1.9283 -1.6374
21749SOL     OW68744   3.184   6.661   9.904  0.2723 -0.2274  0.3151
21749SOL    HW168745   3.258   6.667   9.843 -0.0824 -1.8878 -0.3345
21749SOL    HW268746   3.164   6.751   9.927  1.1436  0.3792 -1.1782
21750SOL     OW68747   0.032   6.649   6.349  0.2565 -0.4807  0.8100
21750SOL    HW168748   0.079   6.675   6.428  1.0732  0.2847  0.0878
21750SOL    HW268749   0.092   6.668   6.277 -0.0311 -2.1746  0.0581
21751SOL     OW68750   4.803   8.064   9.976  0.0270  0.5549  0.3425
21751SOL    HW168751   4.820   8.057  10.070  1.0156  0.5481  0.1775
21751SOL    HW268752   4.890   8.059   9.936 -0.3396  1.0941 -0.5435
21752SOL     OW68753   2.167   6.980   5.739  0.1566 -0.4910 -0.2052
21752SOL    HW168754   2.167   6.948   5.829 -2.0667 -0.9824 -0.3098
21752SOL    HW268755   2.089   7.036   5.734  0.5756  0.0120 -1.6684
21753SOL     OW68756   2.339   8.178   0.417  0.2672  0.3230 -0.0643
21753SOL    HW168757   2.417   8.214   0.373 -0.8254  1.4412 -1.1503
21753SOL    HW268758   2.347   8.207   0.508 -0.5970  3.5308 -0.8887
21754SOL     OW68759   8.317   3.049   7.213  0.6421 -0.1384  0.1532
21754SOL    HW168760   8.244   3.021   7.158  1.1555 -0.2808 -0.4765
21754SOL    HW268761   8.278   3.107   7.277 -0.3663 -1.8463  1.1568
21755SOL     OW68762   6.389   8.141   1.962 -0.3445  0.2821  0.2369
21755SOL    HW168763   6.427   8.219   1.921 -1.0960  1.4974  1.7423
21755SOL    HW268764   6.446   8.123   2.037 -1.3568  0.6797  1.1262
21756SOL     OW68765   3.623   1.020   8.679 -0.3916  0.2945  0.1633
21756SOL    HW168766   3.564   0.996   8.607 -0.6865 -1.8772  1.0646
21756SOL    HW268767   3.710   1.015   8.640 -0.6674  3.6140 -1.2020
21757SOL     OW68768   1.512   8.465  10.910  0.0739  0.1981 -0.6490
21757SOL    HW168769   1.584   8.466  10.973 -0.2701 -0.7983 -0.2297
21757SOL    HW268770   1.474   8.378  10.918 -1.5736  0.9013 -0.4379
21758SOL     OW68771   9.304   3.374   0.633  0.4050  0.4476 -0.7076
21758SOL    HW168772   9.260   3.289   0.630  1.3012 -0.2179  2.2812
21758SOL    HW268773   9.276   3.413   0.716  2.5238  1.6091 -0.4704
21759SOL     OW68774   2.461  10.956   7.402  0.1380 -0.3818 -0.1362
21759SOL    HW168775   2.485  11.026   7.463  1.8071 -0.9148 -0.1341
21759SOL    HW268776   2.533  10.894   7.407 -1.1240 -1.9410 -0.4276
21760SOL     OW68777   3.535   2.129  10.055  0.1264 -0.0524 -0.8085
21760SOL    HW168778   3.501   2.173  10.133 -0.1131 -2.2286  0.3720
21760SOL    HW268779   3.522   2.193   9.985 -3.0112  0.6522  0.2355
21761SOL     OW68780   3.466   0.337   8.416 -0.0753  0.3143  0.4355
21761SOL    HW168781   3.481   0.411   8.474 -2.1070  1.3185 -0.2392
21761SOL    HW268782   3.538   0.341   8.352 -0.3656  1.9630  0.1821
21762SOL     OW68783   5.250   1.525   0.496 -0.5115  0.6051  0.2188
21762SOL    HW168784   5.340   1.497   0.480 -0.6656  0.5194 -0.5352
21762SOL    HW268785   5.198   1.473   0.434 -1.3578 -1.1261  2.2617
21763SOL     OW68786   6.808   7.766   9.449 -0.1293  0.3182  0.5322
21763SOL    HW168787   6.836   7.846   9.403  0.4834  0.5909  1.3548
21763SOL    HW268788   6.753   7.798   9.520 -0.5044 -0.0557  0.4140
21764SOL     OW68789   6.780   9.966   8.050  0.0616 -0.3559  0.0265
21764SOL    HW168790   6.740   9.881   8.069 -0.9175  0.3356  1.1872
21764SOL    HW268791   6.765   9.979   7.956 -2.3296 -0.2103  0.3763
21765SOL     OW68792   9.197   1.909   9.353  0.0074  0.5770  1.0542
21765SOL    HW168793   9.231   1.824   9.383 -1.7793  0.0472  1.6674
21765SOL    HW268794   9.159   1.890   9.267  0.1592  0.9099  0.9125
21766SOL     OW68795   9.104   2.870   6.678 -0.5315  0.0135  0.1541
21766SOL    HW168796   9.029   2.833   6.632 -0.3955  2.2886 -2.1204
21766SOL    HW268797   9.172   2.803   6.672 -1.5351 -1.0007 -0.1358
21767SOL     OW68798   1.305   3.215   0.810 -0.0581  0.3790 -0.3494
21767SOL    HW168799   1.396   3.188   0.826 -0.3356  0.8115  2.5400
21767SOL    HW268800   1.265   3.214   0.897 -2.4380  1.6319 -1.3602
21768SOL     OW68801   7.121   1.664   3.020  0.4758  0.0167 -0.1477
21768SOL    HW168802   7.162   1.583   2.989  0.8523  0.5617 -1.0990
21768SOL    HW268803   7.029   1.655   2.995 -0.3538 -1.7299  3.0188
21769SOL     OW68804   5.569   8.659   2.757  0.4573 -0.0534 -0.5382
21769SOL    HW168805   5.621   8.712   2.817 -0.8500 -0.9265  1.4530
21769SOL    HW268806   5.489   8.640   2.804  0.1497 -2.3839 -1.8378
21770SOL     OW68807   2.347   6.949   9.201  0.4977 -0.3656  0.0826
21770SOL    HW168808   2.323   7.024   9.147 -1.8991 -1.3061 -0.2666
21770SOL    HW268809   2.335   6.873   9.143  0.3684 -1.2026  1.1727
21771SOL     OW68810   3.620   0.340   3.255  0.2977 -0.3669 -0.5061
21771SOL    HW168811   3.676   0.270   3.289 -0.7534 -1.4248 -0.8858
21771SOL    HW268812   3.560   0.296   3.195 -0.5165  0.8380 -0.6130
21772SOL     OW68813   1.768   0.784   2.072  0.3533 -0.1777  0.4025
21772SOL    HW168814   1.732   0.724   2.138 -0.1752 -2.0762 -1.4880
21772SOL    HW268815   1.715   0.768   1.994  0.4478  2.5412 -0.3272
21773SOL     OW68816   1.847   1.013   4.514 -0.9768  0.5977 -0.2880
21773SOL    HW168817   1.891   0.931   4.538 -0.8931  0.4598 -0.8877
21773SOL    HW268818   1.759   0.986   4.487 -1.1161  0.7637 -0.0001
21774SOL     OW68819   1.368   7.236   0.354  0.0983 -0.2448  0.3535
21774SOL    HW168820   1.389   7.296   0.282  0.0973 -0.0243  0.5364
21774SOL    HW268821   1.442   7.245   0.414  0.4097 -0.9114  0.0671
21775SOL     OW68822   0.657   8.500   4.700  1.2570 -0.1832 -0.0231
21775SOL    HW168823   0.597   8.446   4.752  0.5225 -0.7320 -1.3771
21775SOL    HW268824   0.626   8.590   4.714  0.6361 -0.3875 -0.0519
21776SOL     OW68825   5.923  10.940   5.859 -0.5414 -0.0317 -0.8283
21776SOL    HW168826   5.963  11.007   5.804  1.2602 -1.4768 -1.3861
21776SOL    HW268827   5.996  10.902   5.908 -1.6717 -0.8241  0.3277
21777SOL     OW68828   1.970   3.537   7.193  0.1752 -0.0817  0.1197
21777SOL    HW168829   1.947   3.619   7.237  1.0942 -0.0200  0.5095
21777SOL    HW268830   1.940   3.548   7.103 -2.5626 -0.5427  0.8750
21778SOL     OW68831  10.158   5.045   6.235  0.2363  0.3581  0.3111
21778SOL    HW168832  10.217   4.971   6.221 -0.3206 -0.5360  2.3163
21778SOL    HW268833  10.131   5.038   6.327 -1.0138  2.2000  0.1562
21779SOL     OW68834   1.641   7.177   5.307 -0.4924  0.0630 -0.8288
21779SOL    HW168835   1.657   7.231   5.230 -0.4318  0.8600 -0.2637
21779SOL    HW268836   1.726   7.137   5.327 -0.5424 -0.2618 -1.2588
21780SOL     OW68837   8.418   0.644  10.952  0.2788 -0.2378  0.5869
21780SOL    HW168838   8.424   0.572  11.014  0.3924 -1.0341 -0.3172
21780SOL    HW268839   8.329   0.636  10.916 -0.6901  1.6943  2.3549
21781SOL     OW68840   7.156   7.435   5.306  0.6206 -0.3437  0.3986
21781SOL    HW168841   7.068   7.430   5.269 -0.1839 -1.0999  2.2712
21781SOL    HW268842   7.191   7.518   5.274 -0.3902 -0.4859 -1.1613
21782SOL     OW68843   0.593   6.060   0.913  0.2429  0.5839  0.4210
21782SOL    HW168844   0.592   6.023   0.824 -1.9238 -0.3552  0.7571
21782SOL    HW268845   0.597   5.984   0.971 -0.2557  1.0665  1.1140
21783SOL     OW68846   1.926  10.826   8.225 -0.2330 -0.2157 -0.5612
21783SOL    HW168847   2.022  10.829   8.217 -0.1485 -0.3053  0.3394
21783SOL    HW268848   1.894  10.877   8.150  0.5130 -0.3241 -0.9636
21784SOL     OW68849   2.500   1.329   9.870 -0.3264 -0.5232 -0.5384
21784SOL    HW168850   2.469   1.287   9.950 -0.4987  1.0989  0.2898
21784SOL    HW268851   2.420   1.350   9.822 -0.3034 -0.2645 -0.4685
21785SOL     OW68852   7.485   8.231   1.799  0.0813  0.4461  0.4298
21785SOL    HW168853   7.395   8.256   1.820 -0.0111  1.3715 -0.9923
21785SOL    HW268854   7.489   8.137   1.819 -1.5992  0.0882 -0.7608
21786SOL     OW68855   4.388   4.553   0.482  0.3458 -1.1307  0.5023
21786SOL    HW168856   4.318   4.489   0.473 -0.5649 -0.6939  3.5544
21786SOL    HW268857   4.442   4.521   0.555  0.9828  0.5719  0.8460
21787SOL     OW68858   8.711   2.502   8.872  0.0483 -0.0063  0.9019
21787SOL    HW168859   8.737   2.515   8.963  0.0917 -0.0856  0.9012
21787SOL    HW268860   8.616   2.492   8.875  0.1300 -0.8783  1.0436
21788SOL     OW68861   5.700   7.798  10.711 -0.6372  0.0934 -0.1012
21788SOL    HW168862   5.715   7.879  10.759  1.2069 -0.1842 -0.1248
21788SOL    HW268863   5.722   7.729  10.773 -0.9731 -0.3403 -0.4634
21789SOL     OW68864   7.220   2.220   6.550  0.0268 -0.1943 -0.3287
21789SOL    HW168865   7.275   2.293   6.520 -1.5709  2.0131  1.7350
21789SOL    HW268866   7.132   2.245   6.525 -0.3767 -2.6430 -1.6622
21790SOL     OW68867   3.169   5.062   6.403 -0.2157  0.6988  0.4676
21790SOL    HW168868   3.161   4.967   6.396  0.1800  0.7075 -0.1291
21790SOL    HW268869   3.137   5.081   6.491 -3.8791  0.4362 -0.6267
21791SOL     OW68870   8.211   2.859   2.421  0.5803 -0.4474  0.0607
21791SOL    HW168871   8.223   2.862   2.326 -1.6757 -1.9061 -0.3565
21791SOL    HW268872   8.293   2.823   2.454  1.2555 -0.3042 -1.3844
21792SOL     OW68873   7.283   8.741   9.591  0.1339 -0.2128  0.2338
21792SOL    HW168874   7.270   8.660   9.542 -0.5468 -0.7785  1.3011
21792SOL    HW268875   7.351   8.788   9.542 -2.0430  0.3298 -2.5157
21793SOL     OW68876   8.679   8.193   1.469 -0.5424 -0.0716 -0.0630
21793SOL    HW168877   8.627   8.149   1.402  0.7391 -0.5982 -0.7491
21793SOL    HW268878   8.725   8.263   1.423 -2.0461  1.6251  0.9006
21794SOL     OW68879   9.202   5.406  10.566  0.1951  0.5388  0.0099
21794SOL    HW168880   9.235   5.427  10.479 -2.8541  0.7353 -1.2114
21794SOL    HW268881   9.177   5.314  10.561 -1.6356  1.0129  0.0724
21795SOL     OW68882  10.457   1.313   9.465 -0.1214 -0.1572  0.0421
21795SOL    HW168883  10.522   1.284   9.529 -1.6084 -1.1500  1.1655
21795SOL    HW268884  10.379   1.331   9.516 -1.0983 -0.1336 -1.3917
21796SOL     OW68885   4.951   8.399  10.002  0.2405  0.5089 -0.2847
21796SOL    HW168886   4.992   8.312   9.992 -1.4408 -0.3816  0.2080
21796SOL    HW268887   4.894   8.389  10.078 -1.7445  1.3473 -1.6058
21797SOL     OW68888   4.023   9.562   7.454  0.2090 -0.2789  0.4140
21797SOL    HW168889   4.107   9.574   7.410  0.6321 -0.3304  1.2004
21797SOL    HW268890   3.958   9.573   7.384  0.8871 -0.9662 -0.3482
21798SOL     OW68891   5.861   3.077   0.499 -0.3109 -0.1744 -0.4685
21798SOL    HW168892   5.775   3.044   0.473 -0.0139 -0.8038 -0.6799
21798SOL    HW268893   5.888   3.019   0.570  0.0147 -0.1028 -0.5310
21799SOL     OW68894   8.699   8.402  10.102  0.2364 -0.3982 -0.0567
21799SOL    HW168895   8.767   8.402  10.035  0.0482  0.5542 -0.2640
21799SOL    HW268896   8.716   8.480  10.153 -0.8371 -0.0169 -0.2595
21800SOL     OW68897   3.548   1.700   1.711  0.2666  0.1350  0.0533
21800SOL    HW168898   3.565   1.694   1.805 -0.9897 -1.6253  0.2253
21800SOL    HW268899   3.586   1.620   1.674 -0.8246 -0.0819 -0.6522
21801SOL     OW68900   2.800   1.351   6.338  0.4414  0.3428  0.2764
21801SOL    HW168901   2.804   1.273   6.282 -0.6829 -0.9272  1.8659
21801SOL    HW268902   2.728   1.403   6.302 -0.5994 -0.6998  0.8119
21802SOL     OW68903   2.587   8.787   3.430 -0.1877 -0.7776  0.4523
21802SOL    HW168904   2.608   8.695   3.444  0.6521 -0.7543 -0.5093
21802SOL    HW268905   2.575   8.795   3.335 -0.3337  0.0780  0.5345
21803SOL     OW68906   8.608   1.327   1.551  0.5758 -0.4350 -0.8219
21803SOL    HW168907   8.590   1.295   1.462 -0.7719 -2.0548 -0.0142
21803SOL    HW268908   8.568   1.262   1.609  1.2176  0.7071  0.9864
21804SOL     OW68909   8.283   6.952  10.354 -0.3932  0.0524 -0.1415
21804SOL    HW168910   8.268   6.862  10.381  1.4816 -0.1154  0.4915
21804SOL    HW268911   8.366   6.949  10.306 -0.5812  1.3559 -0.5854
21805SOL     OW68912   7.357  10.791   2.822  0.1336  0.3353  0.5909
21805SOL    HW168913   7.370  10.712   2.875 -1.2493 -0.8120 -0.6822
21805SOL    HW268914   7.317  10.854   2.882  0.4326 -0.2251  1.4073
21806SOL     OW68915   9.604   8.644   4.372 -0.2180 -0.1769 -0.1797
21806SOL    HW168916   9.509   8.641   4.386 -0.1931  0.5517  0.1423
21806SOL    HW268917   9.614   8.682   4.284 -0.2542 -1.4884 -0.7832
21807SOL     OW68918   4.534  10.150   9.668 -0.6005 -0.0426  0.1535
21807SOL    HW168919   4.559  10.226   9.720 -0.4145 -0.0393  0.0599
21807SOL    HW268920   4.515  10.082   9.733 -1.9371  0.4278  0.2836
21808SOL     OW68921   3.921   4.975   0.925 -0.3150 -0.0911  0.1055
21808SOL    HW168922   3.907   4.899   0.869 -0.4530  0.0929 -0.1131
21808SOL    HW268923   3.976   5.034   0.873  0.5303 -0.4191  0.6135
21809SOL     OW68924   3.306   6.350   4.370 -0.5058 -0.5667 -0.7861
21809SOL    HW168925   3.252   6.413   4.321 -0.5767 -0.8048 -1.0188
21809SOL    HW268926   3.263   6.266   4.356  0.3549 -0.8953 -1.6424
21810SOL     OW68927   2.908  10.080   0.698  0.0171 -0.2089 -0.5712
21810SOL    HW168928   2.947  10.114   0.778 -0.5570  0.0225 -0.3856
21810SOL    HW268929   2.814  10.079   0.715 -0.1384  0.1491 -1.3612
21811SOL     OW68930   1.740  10.727   7.340 -0.1817  0.2704 -0.0453
21811SOL    HW168931   1.796  10.777   7.399 -0.0367 -0.3352  0.3469
21811SOL    HW268932   1.799  10.663   7.299 -0.3725  0.3788 -0.4962
21812SOL     OW68933   4.426   5.865   6.319  0.1643  0.1158  0.5641
21812SOL    HW168934   4.482   5.931   6.361  0.6470 -0.7350  1.3033
21812SOL    HW268935   4.487   5.804   6.278 -0.2923  0.5964 -0.9152
21813SOL     OW68936   7.407   9.321   0.223 -0.0146  0.2162  0.2653
21813SOL    HW168937   7.420   9.263   0.298 -0.5733  0.4169  0.5185
21813SOL    HW268938   7.424   9.265   0.147 -0.3679 -0.2314  0.5128
21814SOL     OW68939   3.494   1.260   7.636 -0.0779 -0.4652 -0.1249
21814SOL    HW168940   3.444   1.281   7.715  0.2737 -0.6910  0.1606
21814SOL    HW268941   3.466   1.171   7.612 -0.8661 -0.0570 -0.7915
21815SOL     OW68942   4.921   7.411   6.873 -0.0702  0.4486 -0.2924
21815SOL    HW168943   4.982   7.337   6.873  0.0920  0.5693  0.4798
21815SOL    HW268944   4.949   7.465   6.799  0.4877  0.2752 -0.2166
21816SOL     OW68945   8.316   0.269   1.349  0.0510  0.0073  0.2155
21816SOL    HW168946   8.244   0.224   1.393 -0.2637  0.7301  0.4598
21816SOL    HW268947   8.318   0.231   1.261 -0.4856 -0.1760  0.2769
21817SOL     OW68948  10.903   0.901   4.481 -0.6397  0.0011 -0.2051
21817SOL    HW168949  10.808   0.892   4.469 -0.6720  0.1920 -0.0916
21817SOL    HW268950  10.937   0.812   4.465 -0.7517  0.0905 -1.0060
21818SOL     OW68951   2.643   4.905   0.350 -0.2183  0.2454 -0.1897
21818SOL    HW168952   2.690   4.988   0.357  1.0052 -0.5849  3.4292
21818SOL    HW268953   2.695   4.852   0.291  0.9287  0.8922  0.2151
21819SOL     OW68954   9.403   2.299   2.649 -0.5241  0.5108 -0.2824
21819SOL    HW168955   9.359   2.381   2.672  2.7396  2.3074  0.1240
21819SOL    HW268956   9.458   2.280   2.725  1.0198 -0.3919 -1.5730
21820SOL     OW68957   5.312   4.529   8.372  0.2360 -0.1576 -0.0278
21820SOL    HW168958   5.261   4.533   8.453  0.8798 -2.0100  0.5100
21820SOL    HW268959   5.388   4.584   8.390  0.7474 -1.1479  0.9276
21821SOL     OW68960   1.518   9.352   7.290 -0.0079 -0.3281  0.1115
21821SOL    HW168961   1.454   9.422   7.277 -0.3654 -0.7875 -0.6713
21821SOL    HW268962   1.584   9.365   7.222 -0.5583 -1.2725 -0.6282
21822SOL     OW68963  10.886   8.092   7.187  0.1585 -0.0202 -0.0652
21822SOL    HW168964  10.836   8.173   7.186  1.8585  1.0950  0.3714
21822SOL    HW268965  10.944   8.098   7.110  3.2614  1.2550  2.1493
21823SOL     OW68966   2.069   4.330   0.119 -0.3453 -0.3828  0.9083
21823SOL    HW168967   2.060   4.265   0.050 -1.5950  0.6430  0.0559
21823SOL    HW268968   2.162   4.351   0.121 -0.3846  0.1398 -1.0282
21824SOL     OW68969   8.077   8.611   3.988 -0.5516  0.0800 -0.2522
21824SOL    HW168970   8.160   8.646   4.019 -1.3862  2.5368 -0.5469
21824SOL    HW268971   8.050   8.549   4.056  0.8833  0.2036  0.4714
21825SOL     OW68972   3.111   3.470   6.217  0.4192  0.2109 -0.2119
21825SOL    HW168973   3.117   3.565   6.226  1.1369  0.4220 -2.3874
21825SOL    HW268974   3.190   3.445   6.169 -0.3553 -1.3222 -0.7694
21826SOL     OW68975   7.454   4.983   1.074 -0.5919 -0.4448  0.1532
21826SOL    HW168976   7.473   5.006   0.983  0.5441  0.5764  0.6183
21826SOL    HW268977   7.483   4.892   1.083  0.6843 -0.0832 -0.1393
21827SOL     OW68978   5.757   2.681   4.067  0.0956  0.1780  0.3413
21827SOL    HW168979   5.824   2.665   4.000 -0.3072  1.3675 -0.3901
21827SOL    HW268980   5.778   2.619   4.137 -0.4188 -2.2471 -1.5181
21828SOL     OW68981   4.500   9.016   9.811 -0.0118 -0.1586 -0.0066
21828SOL    HW168982   4.440   9.078   9.770  1.4989  0.0892 -2.0113
21828SOL    HW268983   4.473   8.931   9.778 -0.2060 -0.2350  0.3401
21829SOL     OW68984   7.876   9.453   2.139  0.2531  0.7402  0.1540
21829SOL    HW168985   7.913   9.480   2.223  0.4829 -0.9930  0.6339
21829SOL    HW268986   7.936   9.386   2.107  0.0042  1.1653 -1.2689
21830SOL     OW68987   6.604  10.422   5.090  0.1108  0.0418  0.0585
21830SOL    HW168988   6.566  10.498   5.134  0.2640  0.3443 -0.3210
21830SOL    HW268989   6.580  10.433   4.998  2.1981  0.9563 -0.4361
21831SOL     OW68990   9.857   6.993   6.776 -0.2068 -0.1886 -0.3677
21831SOL    HW168991   9.862   6.968   6.868  2.0594  0.2385 -0.3172
21831SOL    HW268992   9.800   7.071   6.775 -0.0352 -0.0401  0.7036
21832SOL     OW68993   5.068   2.882   2.179  0.3331  0.1603 -0.4198
21832SOL    HW168994   5.005   2.814   2.154 -0.0542  0.4895 -0.3456
21832SOL    HW268995   5.147   2.862   2.128  0.6382 -1.0486  0.4848
21833SOL     OW68996   1.623   9.380   5.040  0.0754  0.2711  0.3611
21833SOL    HW168997   1.688   9.317   5.009  0.4300  0.6609  0.3126
21833SOL    HW268998   1.593   9.344   5.123 -1.9400 -1.5646 -1.0366
21834SOL     OW68999   6.257   7.691   9.839 -0.3281 -0.5213  0.3830
21834SOL    HW169000   6.172   7.647   9.846  0.3090 -2.0134 -0.8578
21834SOL    HW269001   6.244   7.758   9.771 -0.3129 -1.2807 -0.3812
21835SOL     OW69002   6.736   2.054   0.894  0.1121  0.1942 -0.6132
21835SOL    HW169003   6.666   2.102   0.850  0.1078 -0.4192 -1.2980
21835SOL    HW269004   6.693   1.979   0.935  0.3517 -0.1651 -1.0049
21836SOL     OW69005   2.317   3.012  10.913  0.2523 -0.6636 -0.3573
21836SOL    HW169006   2.253   2.991  10.981 -0.6628  0.5810 -0.8134
21836SOL    HW269007   2.378   3.072  10.955 -0.1547 -0.1123 -0.5458
21837SOL     OW69008   5.092   9.586   7.092  0.3203  0.5290  0.2004
21837SOL    HW169009   5.019   9.634   7.051 -0.4195 -0.8472 -0.1696
21837SOL    HW269010   5.167   9.605   7.036 -0.2067  0.3934 -0.5853
21838SOL     OW69011  10.731   7.442   8.110 -0.0582  0.3643  0.2000
21838SOL    HW169012  10.788   7.375   8.071  1.3326  0.3253  2.1513
21838SOL    HW269013  10.643   7.403   8.107  0.6018 -1.2413  0.5688
21839SOL     OW69014   9.885   5.223   4.979  0.3798 -0.8119 -0.2505
21839SOL    HW169015   9.961   5.171   4.955  0.5581  0.0268 -1.6183
21839SOL    HW269016   9.921   5.307   5.006 -0.0733  0.4241 -3.1196
21840SOL     OW69017  10.059   9.537   5.783 -0.5543 -0.5573  0.5024
21840SOL    HW169018  10.144   9.543   5.828 -0.6775  3.4922  0.5087
21840SOL    HW269019   9.995   9.529   5.853 -0.3459 -2.4196  0.5423
21841SOL     OW69020   9.834   7.278   8.935  0.3922  0.7519  0.0546
21841SOL    HW169021   9.805   7.247   8.849  0.4014  0.6493  0.0878
21841SOL    HW269022   9.754   7.284   8.987  0.5764 -1.0357  0.6271
21842SOL     OW69023   8.323   0.201   7.355 -0.2231  0.1801  0.3590
21842SOL    HW169024   8.294   0.292   7.344  0.5160  0.3238 -0.5132
21842SOL    HW269025   8.289   0.176   7.441 -0.0987  1.4047  0.7914
21843SOL     OW69026   0.508   1.868   8.091  0.1856 -0.0584  0.0531
21843SOL    HW169027   0.556   1.857   8.008  0.5019 -1.6783  0.4205
21843SOL    HW269028   0.544   1.801   8.148 -0.8895  0.2574  1.1246
21844SOL     OW69029   6.300   1.505   8.806  0.1410  0.3530  0.7792
21844SOL    HW169030   6.263   1.431   8.853 -0.2313  1.2378  1.9050
21844SOL    HW269031   6.250   1.510   8.724  0.2827 -0.7202  0.6170
21845SOL     OW69032   5.260   5.316   6.873 -0.2955 -0.0375 -0.0064
21845SOL    HW169033   5.213   5.314   6.956  1.4338  0.6920  1.0320
21845SOL    HW269034   5.259   5.225   6.843  0.4530 -0.6183  1.6385
21846SOL     OW69035   3.432  10.836   6.571  0.4461  0.0242 -0.2551
21846SOL    HW169036   3.356  10.795   6.613  1.8120 -0.6244  1.7302
21846SOL    HW269037   3.495  10.764   6.561  0.9419  0.6126 -1.5927
21847SOL     OW69038   9.788   4.604   4.418  0.0024 -0.4480  0.3195
21847SOL    HW169039   9.769   4.523   4.370 -0.4025  0.1977 -0.6549
21847SOL    HW269040   9.746   4.592   4.503  0.7911 -1.6489  0.5671
21848SOL     OW69041   7.657   6.106   4.490 -0.2471  0.7815  0.0566
21848SOL    HW169042   7.608   6.170   4.542  0.0266  0.5433  0.6115
21848SOL    HW269043   7.728   6.157   4.451  0.2728  0.7245  0.9087
21849SOL     OW69044   4.675   7.942   3.471  0.2851  0.4406  0.0006
21849SOL    HW169045   4.743   7.879   3.495  0.0397  0.3112  0.3623
21849SOL    HW269046   4.602   7.888   3.442 -0.9959  0.3927  3.0055
21850SOL     OW69047   6.111   4.561   2.018  0.1304 -0.5014  0.2008
21850SOL    HW169048   6.133   4.585   1.928  0.5666 -0.3431  0.3509
21850SOL    HW269049   6.025   4.600   2.033 -0.1691 -0.9431 -0.3097
21851SOL     OW69050   1.278   3.977   4.760 -0.4189 -0.2485 -0.2832
21851SOL    HW169051   1.296   3.932   4.678 -0.0600 -0.0196 -0.3310
21851SOL    HW269052   1.304   3.915   4.828 -1.3906 -0.7232 -0.3260
21852SOL     OW69053   9.176   2.414   4.757  0.0389  0.2416  0.1104
21852SOL    HW169054   9.135   2.340   4.801  1.6695  0.3190  1.8768
21852SOL    HW269055   9.118   2.488   4.776  2.1373  0.9880  5.0873
21853SOL     OW69056   0.142   0.487   9.774 -0.7700 -0.0471  1.0741
21853SOL    HW169057   0.127   0.559   9.713  3.1505  0.1599  0.0995
21853SOL    HW269058   0.148   0.528   9.860  2.5274  1.1790  0.4159
21854SOL     OW69059   9.774   8.359   0.655  0.4152 -0.5146  0.2338
21854SOL    HW169060   9.823   8.418   0.598  0.0016 -0.2337  0.1614
21854SOL    HW269061   9.831   8.346   0.731 -1.1670  3.6507  2.4926
21855SOL     OW69062   4.889   8.283   7.426  0.5676 -0.7436  0.5066
21855SOL    HW169063   4.824   8.222   7.392 -0.3878  0.3583  0.3092
21855SOL    HW269064   4.972   8.252   7.389 -0.4119  0.5063 -3.1069
21856SOL     OW69065   4.541   6.354   4.133  0.1542  0.0687  0.7739
21856SOL    HW169066   4.542   6.446   4.156 -2.4406  0.8121 -1.6302
21856SOL    HW269067   4.604   6.346   4.061  2.5239 -0.7365  2.7790
21857SOL     OW69068  10.439   8.063   6.321 -0.4904  0.2107 -0.9532
21857SOL    HW169069  10.348   8.052   6.346 -0.0826 -0.3193  0.3771
21857SOL    HW269070  10.477   7.976   6.328  0.2682  0.5376 -0.8497
21858SOL     OW69071   5.775   2.475  10.925  0.2457 -0.2254 -0.5225
21858SOL    HW169072   5.749   2.557  10.884 -0.5838 -0.1175  0.1932
21858SOL    HW269073   5.695   2.443  10.967  1.1186 -0.1493  1.2981
21859SOL     OW69074   8.589   7.459   7.043  0.9086  0.4124  0.3850
21859SOL    HW169075   8.551   7.432   6.960 -0.8073  0.2483  1.1894
21859SOL    HW269076   8.648   7.388   7.068  1.4650  0.4846 -0.6865
21860SOL     OW69077   2.355   5.641   1.256 -0.2446  0.5078  0.0482
21860SOL    HW169078   2.446   5.610   1.256 -0.3884 -0.0657  1.9377
21860SOL    HW269079   2.317   5.604   1.176  0.7997 -0.5124 -0.0121
21861SOL     OW69080   6.003   8.620   4.524 -0.0938 -0.4789  0.3137
21861SOL    HW169081   6.025   8.701   4.571 -0.1010  0.4048 -1.1655
21861SOL    HW269082   6.087   8.579   4.507  0.0010 -0.1475 -0.0305
21862SOL     OW69083   4.594   4.028   7.895 -0.3284  0.0172  0.2124
21862SOL    HW169084   4.528   4.096   7.893  0.4307  0.7819 -2.0393
21862SOL    HW269085   4.678   4.075   7.891  0.2540 -0.9985 -0.0274
21863SOL     OW69086  10.168   9.303   7.428 -0.3925 -0.8738 -0.9437
21863SOL    HW169087  10.257   9.339   7.431  0.1616 -2.2302  1.2620
21863SOL    HW269088  10.176   9.225   7.374  0.2271 -2.0001  0.7020
21864SOL     OW69089   1.505   4.992   7.940  0.3283  0.5641 -0.0388
21864SOL    HW169090   1.464   4.921   7.891 -1.8151  1.4307  0.3628
21864SOL    HW269091   1.599   4.982   7.923 -0.0899 -0.9311 -1.8612
21865SOL     OW69092   7.383   9.736   8.945  0.1260  0.7340 -0.1407
21865SOL    HW169093   7.466   9.689   8.948 -1.5591 -2.4847  0.4903
21865SOL    HW269094   7.348   9.718   8.858 -0.7372  0.4342  0.2569
21866SOL     OW69095   3.168   1.938   1.537 -0.0534 -0.1293 -0.2229
21866SOL    HW169096   3.096   1.878   1.516  0.0886  0.0210 -1.1765
21866SOL    HW269097   3.228   1.885   1.590 -0.6444 -0.3861  0.2040
21867SOL     OW69098   9.088   5.754   6.425 -0.0481  0.4489  0.3653
21867SOL    HW169099   9.082   5.699   6.503 -0.3252 -0.3541 -0.2128
21867SOL    HW269100   9.015   5.815   6.432  0.1505  0.6265  0.9176
21868SOL     OW69101   7.400   3.975   2.210  0.2679  0.5139  0.9600
21868SOL    HW169102   7.322   3.986   2.265 -0.9088 -0.4779 -0.4632
21868SOL    HW269103   7.436   3.890   2.236 -0.8336 -0.4084 -0.3964
21869SOL     OW69104   6.866   2.164   4.125 -0.0277 -0.2355  0.8303
21869SOL    HW169105   6.880   2.225   4.198 -0.9263  0.1055  0.7348
21869SOL    HW269106   6.890   2.214   4.047 -1.5216  0.2992  0.6797
21870SOL     OW69107   9.956   6.555  10.812  0.4326 -0.3684 -0.0554
21870SOL    HW169108   9.951   6.548  10.717  1.2635 -1.3827 -0.0471
21870SOL    HW269109  10.045   6.528  10.834  0.0339 -0.8887  1.0584
21871SOL     OW69110   5.142   0.593   0.562 -0.7371 -0.3884 -0.0663
21871SOL    HW169111   5.061   0.588   0.613 -1.0119 -1.1867 -0.5535
21871SOL    HW269112   5.180   0.506   0.568  0.0028 -0.0665  0.0110
21872SOL     OW69113   2.454   8.086   0.110 -0.5969  0.1095 -0.0598
21872SOL    HW169114   2.525   8.076   0.173  0.4157  2.0340 -0.8000
21872SOL    HW269115   2.465   8.175   0.076 -1.0251 -0.8479 -3.0110
21873SOL     OW69116   4.185   7.887   2.157  0.0346 -0.1261 -0.2132
21873SOL    HW169117   4.217   7.863   2.244 -1.8895 -0.4773  0.4545
21873SOL    HW269118   4.236   7.834   2.096  2.4555  1.1744  0.5306
21874SOL     OW69119   7.447   8.779   2.505 -0.0724 -0.1709 -0.0613
21874SOL    HW169120   7.499   8.699   2.506  0.9643  0.4398 -1.4319
21874SOL    HW269121   7.502   8.845   2.548 -0.6852 -0.0503  0.5565
21875SOL     OW69122   7.920   5.557   2.462 -0.1817 -0.5235  0.6714
21875SOL    HW169123   7.891   5.648   2.475  0.5154 -0.2085  0.0364
21875SOL    HW269124   7.864   5.506   2.521 -1.8350  0.1051 -0.2791
21876SOL     OW69125   3.134   4.025   3.483  0.1166 -0.3568 -0.5447
21876SOL    HW169126   3.193   4.095   3.453  2.1526 -1.5405  0.4396
21876SOL    HW269127   3.127   4.038   3.577 -1.3940 -0.1331 -0.6762
21877SOL     OW69128  10.503   6.236   2.850 -0.7166 -0.8304  0.1737
21877SOL    HW169129  10.458   6.153   2.834  2.8972 -3.5911  2.7543
21877SOL    HW269130  10.556   6.250   2.771 -0.1540 -1.8994  0.3451
21878SOL     OW69131  10.707   6.043   0.908  0.1482  0.3669  0.6584
21878SOL    HW169132  10.722   6.059   1.001 -1.3426 -0.8809  1.1532
21878SOL    HW269133  10.793   6.056   0.867  0.9292  0.4963  2.2589
21879SOL     OW69134   0.309   6.153   0.511  0.0122  0.8143 -0.1015
21879SOL    HW169135   0.386   6.207   0.525 -2.4024  4.5310  0.2980
21879SOL    HW269136   0.277   6.178   0.424 -1.4880  0.4994  0.3200
21880SOL     OW69137   4.801   0.440   2.679 -0.1291  0.0035 -0.0907
21880SOL    HW169138   4.715   0.472   2.652  0.3286 -0.3945 -2.1178
21880SOL    HW269139   4.860   0.462   2.607  1.2495 -0.7208  0.7671
21881SOL     OW69140   0.502   9.333   7.133 -0.3631 -0.2910  0.7750
21881SOL    HW169141   0.450   9.252   7.134  1.4909 -1.5827 -0.5412
21881SOL    HW269142   0.585   9.309   7.173  0.0192  1.1312  0.8724
21882SOL     OW69143  10.967   4.851   0.641 -0.5541 -0.5210  0.2266
21882SOL    HW169144  10.944   4.905   0.717  1.6141  0.2302  0.4341
21882SOL    HW269145  11.028   4.786   0.676  0.4910 -0.1518 -0.8392
21883SOL     OW69146   1.112   7.608   4.308  0.2012 -0.0159 -0.2924
21883SOL    HW169147   1.127   7.561   4.390 -1.6099 -0.7474 -0.3334
21883SOL    HW269148   1.199   7.631   4.278  1.0323 -1.4283  0.8645
21884SOL     OW69149   6.954   8.825   9.271 -0.4756  0.0590 -0.1551
21884SOL    HW169150   7.047   8.830   9.296 -0.9701  0.6656  1.7604
21884SOL    HW269151   6.938   8.732   9.256  0.5257 -0.0088 -0.8797
21885SOL     OW69152   3.194   0.879   5.825  0.2042  0.3258  0.0385
21885SOL    HW169153   3.158   0.967   5.810 -0.8499  0.4566  2.8085
21885SOL    HW269154   3.282   0.895   5.858  1.1800  0.1576 -2.2890
21886SOL     OW69155   1.549   8.550   2.789  0.4896  0.1571 -0.0962
21886SOL    HW169156   1.561   8.631   2.739  0.0851  1.5357  1.8865
21886SOL    HW269157   1.621   8.550   2.852 -1.3545  0.8281  2.1680
21887SOL     OW69158   3.695   7.096   4.986 -0.3443 -0.1748 -0.1410
21887SOL    HW169159   3.789   7.081   4.974 -0.6989 -2.3520 -0.4480
21887SOL    HW269160   3.667   7.137   4.904  0.2593  0.2202 -0.1628
21888SOL     OW69161   4.493   3.205   8.815  0.1054 -0.0932  0.0461
21888SOL    HW169162   4.506   3.272   8.748  1.4286 -0.2820  0.0862
21888SOL    HW269163   4.453   3.252   8.888  2.7882  1.1568  0.8435
21889SOL     OW69164   5.958   4.947   5.442  0.3971  0.2646  0.0447
21889SOL    HW169165   5.989   4.994   5.518  0.4657 -1.5282  1.1796
21889SOL    HW269166   6.034   4.900   5.409  0.0399 -0.1215 -0.2498
21890SOL     OW69167   6.772   1.284   5.561  0.0358 -0.0690  0.0124
21890SOL    HW169168   6.676   1.277   5.568  0.1225 -3.3000 -0.4190
21890SOL    HW269169   6.803   1.260   5.649  0.5340  3.3091  0.8946
21891SOL     OW69170   7.247  10.029   3.384 -0.4376  0.1104 -0.7166
21891SOL    HW169171   7.156  10.055   3.392  0.4335  2.9872  1.1955
21891SOL    HW269172   7.285  10.091   3.322  0.5591  0.0552 -0.1911
21892SOL     OW69173   8.111   0.948   9.721  0.1699 -0.0901  0.0077
21892SOL    HW169174   8.061   0.877   9.762 -1.5924  0.9304 -0.2827
21892SOL    HW269175   8.200   0.936   9.754 -0.1995 -2.0610  0.4421
21893SOL     OW69176   9.897   5.010  10.246 -0.3877 -0.1091  0.7028
21893SOL    HW169177   9.898   4.915  10.237  0.9476  0.0077 -0.9425
21893SOL    HW269178   9.955   5.027  10.320  1.7998 -0.5106 -0.8213
21894SOL     OW69179   9.132   9.699   5.908 -0.5120 -0.7731  0.0851
21894SOL    HW169180   9.076   9.777   5.909  0.6335  0.1379  2.2230
21894SOL    HW269181   9.091   9.640   5.971  0.8364 -0.0561  1.7511
21895SOL     OW69182   4.501   8.499   6.780 -0.6046  0.2075 -0.4393
21895SOL    HW169183   4.448   8.428   6.816 -0.6621 -0.1765 -1.2619
21895SOL    HW269184   4.438   8.564   6.750 -0.5518  0.6626  0.3767
21896SOL     OW69185   8.854   8.742   8.571 -0.2773 -0.1354  0.2683
21896SOL    HW169186   8.801   8.740   8.650 -0.1648 -0.5590  0.3357
21896SOL    HW269187   8.826   8.821   8.525 -0.7103 -0.1660  0.4802
21897SOL     OW69188   5.725   4.484   4.051  0.1799 -0.5241 -0.3413
21897SOL    HW169189   5.802   4.507   4.103 -0.4849 -1.1164  0.9579
21897SOL    HW269190   5.690   4.568   4.022 -0.3307 -0.0497  1.5395
21898SOL     OW69191   0.533   7.202  10.007  0.2557  0.3484  0.4588
21898SOL    HW169192   0.504   7.180   9.918 -0.5938  0.2091  0.7675
21898SOL    HW269193   0.453   7.212  10.057  0.4739  4.4704  0.3353
21899SOL     OW69194   9.088   6.216   1.089  0.3476 -0.3521  0.0019
21899SOL    HW169195   9.140   6.296   1.088 -2.0234  1.3100 -1.2605
21899SOL    HW269196   9.046   6.215   1.175  0.8657 -0.5966  0.2547
21900SOL     OW69197   3.703   6.229   2.548  0.0765 -0.5250 -0.1501
21900SOL    HW169198   3.750   6.149   2.573 -1.7632 -1.8115 -0.5785
21900SOL    HW269199   3.623   6.227   2.602 -0.3129  0.6913 -0.6489
21901SOL     OW69200   1.877   4.662   5.247 -0.4126 -0.0829  0.1197
21901SOL    HW169201   1.899   4.725   5.178 -0.8228 -0.4220 -0.3285
21901SOL    HW269202   1.781   4.663   5.250 -0.4026 -0.1734  0.5962
21902SOL     OW69203   1.495   5.992   5.337  0.6486 -0.1777  0.2712
21902SOL    HW169204   1.565   6.025   5.392 -0.7906  1.9007  0.9817
21902SOL    HW269205   1.536   5.977   5.252  1.9580  0.9895  0.6678
21903SOL     OW69206   6.891  10.667   4.502  0.0535  0.4182  0.0776
21903SOL    HW169207   6.901  10.623   4.418  2.9069  0.1982  0.4457
21903SOL    HW269208   6.948  10.743   4.496 -0.2928  0.8254  1.5614
21904SOL     OW69209   7.527   8.740   0.308  0.0640  0.0827 -0.1024
21904SOL    HW169210   7.570   8.705   0.387  0.9302 -0.1265 -0.6580
21904SOL    HW269211   7.470   8.669   0.279  1.5624 -0.7840 -1.0331
21905SOL     OW69212   7.676   9.045   6.757 -0.4561  0.3174  0.1222
21905SOL    HW169213   7.662   8.950   6.759  0.8438 -0.0489 -2.8870
21905SOL    HW269214   7.591   9.081   6.731  0.1034 -0.5479 -3.3717
21906SOL     OW69215   3.850  10.760   6.401  0.3870  0.0729 -0.4386
21906SOL    HW169216   3.909  10.759   6.476 -1.2169  2.5542  0.9978
21906SOL    HW269217   3.765  10.731   6.436 -0.0793 -0.1296 -1.6575
21907SOL     OW69218   6.831   1.091   2.119  0.2026 -0.1068 -0.4859
21907SOL    HW169219   6.808   1.146   2.193 -3.1995  0.8217 -2.0383
21907SOL    HW269220   6.877   1.150   2.059  0.3792 -0.0936 -0.3377
21908SOL     OW69221   1.015   1.304   0.751  0.3453  0.1312  0.2435
21908SOL    HW169222   1.090   1.359   0.774  0.9876 -1.2139  1.5552
21908SOL    HW269223   0.994   1.258   0.832 -2.2233  0.8016  0.0287
21909SOL     OW69224   4.431   1.952   6.681 -0.1489 -0.2626  0.1409
21909SOL    HW169225   4.367   1.901   6.632 -0.0905  0.6072 -0.8755
21909SOL    HW269226   4.408   2.043   6.663  0.0798  0.0757  1.4733
21910SOL     OW69227   0.333   4.979   7.446 -0.1088 -0.0635  0.2085
21910SOL    HW169228   0.282   5.009   7.371  0.3189 -0.7075 -0.3443
21910SOL    HW269229   0.424   4.978   7.415 -0.0063 -1.0231  0.4980
21911SOL     OW69230   4.954   5.229   9.215 -0.2924  0.1897 -0.0715
21911SOL    HW169231   5.036   5.278   9.200 -1.2318  1.9602  0.2273
21911SOL    HW269232   4.921   5.209   9.128 -0.1227  0.5379 -0.2195
21912SOL     OW69233   5.465   2.308   8.077 -0.0123  0.0255  0.0591
21912SOL    HW169234   5.539   2.314   8.017 -1.8914 -1.2868 -2.5766
21912SOL    HW269235   5.487   2.237   8.136  1.1406  0.1540 -0.1987
21913SOL     OW69236   5.686   2.280   8.564  0.7507  0.8475  0.2337
21913SOL    HW169237   5.779   2.286   8.584  0.6179 -0.0211  1.2233
21913SOL    HW269238   5.679   2.302   8.471  2.1376 -0.6204 -0.2519
21914SOL     OW69239   8.479   9.467  10.281 -0.1018  0.1661  0.2207
21914SOL    HW169240   8.538   9.540  10.267  0.1834 -0.1811 -0.4154
21914SOL    HW269241   8.533   9.389  10.265 -0.3757 -0.1875  0.9747
21915SOL     OW69242   8.370   5.967   4.761  0.5058 -0.3262 -0.0431
21915SOL    HW169243   8.408   5.940   4.845  0.2536 -0.2930  0.0819
21915SOL    HW269244   8.427   6.037   4.730  0.6203 -0.3624  0.0841
21916SOL     OW69245   0.503   7.325   9.451 -0.1109 -0.2249 -0.2573
21916SOL    HW169246   0.593   7.322   9.483  0.1260 -1.3142 -0.9473
21916SOL    HW269247   0.463   7.398   9.497  1.0347  0.0687  0.3071
21917SOL     OW69248   2.017   3.960   3.258 -0.4456 -1.0689 -0.4826
21917SOL    HW169249   1.967   4.015   3.319  0.0276 -0.1455 -0.9095
21917SOL    HW269250   1.951   3.903   3.218 -1.4947  1.1646 -2.1639
21918SOL     OW69251   1.309   5.785   4.983  0.3383 -0.7765  1.2081
21918SOL    HW169252   1.299   5.734   5.063 -1.7570  0.3474  1.7227
21918SOL    HW269253   1.296   5.721   4.913  0.2496 -1.4088  1.7821
21919SOL     OW69254   7.221   3.411   0.212  0.1475 -0.3390  0.2628
21919SOL    HW169255   7.223   3.346   0.142  1.7069 -0.6085  0.5159
21919SOL    HW269256   7.253   3.364   0.289  1.1987  0.6872  0.4736
21920SOL     OW69257   9.596   9.047   3.137 -0.2013 -0.1234 -0.4378
21920SOL    HW169258   9.624   8.955   3.129 -1.7483 -0.7509  0.7842
21920SOL    HW269259   9.525   9.056   3.073 -0.3233  0.0915 -0.2742
21921SOL     OW69260   1.693   2.560   3.291 -0.2000  0.1376 -0.1440
21921SOL    HW169261   1.758   2.520   3.349  0.3283 -1.5980 -1.8234
21921SOL    HW269262   1.630   2.490   3.275 -0.7749  0.8361 -1.0218
21922SOL     OW69263   5.903   0.382   2.550  0.1690  0.6086 -0.6016
21922SOL    HW169264   5.843   0.340   2.613  1.0485  0.1963 -0.0193
21922SOL    HW269265   5.873   0.351   2.465 -1.0863  1.2198 -0.4046
21923SOL     OW69266   9.617   0.380   2.573  0.0160 -0.3831 -0.2607
21923SOL    HW169267   9.583   0.374   2.662  0.5896  0.0902  0.0001
21923SOL    HW269268   9.558   0.439   2.529 -0.9804 -1.5605 -0.5545
21924SOL     OW69269  10.998   2.485   2.969 -0.4892 -0.3568  0.3471
21924SOL    HW169270  11.087   2.511   2.948 -0.9658  1.1305  0.0341
21924SOL    HW269271  10.948   2.567   2.969 -1.9509 -1.2024  0.0239
21925SOL     OW69272   3.253   3.526   3.255  0.4845  0.3519 -0.2527
21925SOL    HW169273   3.317   3.527   3.326 -0.3937  1.2369  0.5464
21925SOL    HW269274   3.230   3.618   3.242 -1.2190 -0.0138  0.0203
21926SOL     OW69275   8.270  10.648   4.292 -0.5091  0.5220 -0.1978
21926SOL    HW169276   8.191  10.605   4.260 -0.3523  0.3024 -0.2912
21926SOL    HW269277   8.341  10.612   4.238  0.0621 -1.3836  1.6928
21927SOL     OW69278   5.592   1.719   8.790  0.2706  0.0058  0.0812
21927SOL    HW169279   5.606   1.750   8.700 -0.8712 -1.4366 -0.6470
21927SOL    HW269280   5.674   1.738   8.835  0.8629  0.7893 -1.2577
21928SOL     OW69281   9.936   0.257   0.994  0.2453  0.0945 -0.4267
21928SOL    HW169282   9.987   0.194   0.944  1.2351 -0.2662  0.9598
21928SOL    HW269283   9.845   0.240   0.970  0.6913  0.3100 -2.4613
21929SOL     OW69284   5.709   0.512   6.002 -0.3194  0.1392 -0.0060
21929SOL    HW169285   5.761   0.590   6.025 -0.2828 -0.2879  1.4899
21929SOL    HW269286   5.629   0.521   6.055 -0.8267 -0.2703 -0.6979
21930SOL     OW69287   7.618   2.587   2.928 -0.4968 -0.1205  0.2035
21930SOL    HW169288   7.576   2.548   2.851 -0.1532 -0.4848  0.1921
21930SOL    HW269289   7.626   2.680   2.907 -1.1445 -0.0799  0.1420
21931SOL     OW69290   4.720   1.397  10.301  0.0161  0.0283 -0.2710
21931SOL    HW169291   4.721   1.372  10.394 -0.4001 -1.1587 -0.5718
21931SOL    HW269292   4.740   1.316  10.254 -0.9165  0.3595 -1.2650
21932SOL     OW69293   0.382   1.385   0.017  0.3502 -0.3709 -0.2804
21932SOL    HW169294   0.374   1.477   0.045 -0.0932 -1.0059  1.8589
21932SOL    HW269295   0.472   1.379  -0.016  0.2870  0.8888 -0.7698
21933SOL     OW69296   1.942   4.556   4.021 -0.9359  0.3884 -0.4299
21933SOL    HW169297   1.916   4.554   4.114  0.9630 -3.4566  0.2302
21933SOL    HW269298   2.038   4.562   4.024 -0.7714 -0.9761 -2.0835
21934SOL     OW69299   7.433   2.664   7.728  0.5605  0.0069  0.5718
21934SOL    HW169300   7.434   2.746   7.679 -0.6774 -0.3147 -0.0514
21934SOL    HW269301   7.462   2.687   7.816 -1.9890  1.6115  1.0775
21935SOL     OW69302   2.890   2.221   5.691 -0.8975 -0.7112  0.3185
21935SOL    HW169303   2.967   2.179   5.730  0.3864  0.3962 -0.9540
21935SOL    HW269304   2.885   2.307   5.734 -0.7473 -0.3356 -0.4139
21936SOL     OW69305   5.565   1.501   0.429  0.5379  0.5171  0.0453
21936SOL    HW169306   5.600   1.575   0.380  1.7708 -0.4436 -0.6166
21936SOL    HW269307   5.608   1.507   0.515  1.2089  0.1737 -0.2590
21937SOL     OW69308   5.065   9.816   8.761 -0.2943  0.5417 -0.8898
21937SOL    HW169309   5.131   9.780   8.702  1.4608  0.3090  1.0629
21937SOL    HW269310   5.002   9.860   8.704  2.1369  1.7619 -2.8428
21938SOL     OW69311   6.028   0.768   2.846 -0.1579  0.7143 -0.0671
21938SOL    HW169312   6.016   0.860   2.825  2.7144  0.8986 -1.3742
21938SOL    HW269313   5.999   0.722   2.767  0.3880  0.6572 -0.2373
21939SOL     OW69314   1.381   4.880   9.428  0.0470 -0.2496 -0.0298
21939SOL    HW169315   1.308   4.888   9.489  0.1725  1.5469 -0.0544
21939SOL    HW269316   1.456   4.914   9.477  0.4154 -0.0323 -0.7434
21940SOL     OW69317   1.022   3.424   2.187 -0.4360 -0.1103 -0.4079
21940SOL    HW169318   1.055   3.492   2.127  0.6939 -1.4806 -1.4093
21940SOL    HW269319   0.955   3.469   2.239  1.3599  2.2101  0.0915
21941SOL     OW69320   1.383   3.265   8.193  0.2307  0.1336 -0.1316
21941SOL    HW169321   1.373   3.360   8.188 -0.6302  0.0979  0.6930
21941SOL    HW269322   1.457   3.252   8.253  1.1173  0.2884 -1.1620
21942SOL     OW69323   8.211   8.086   2.936 -0.1423  0.0439  0.0795
21942SOL    HW169324   8.148   8.027   2.977  0.0176  0.2999  0.7217
21942SOL    HW269325   8.292   8.073   2.986  0.2038  0.0068 -0.4790
21943SOL     OW69326   4.612   1.661  10.471 -0.7279 -0.6232  0.0739
21943SOL    HW169327   4.662   1.658  10.389 -0.1688 -1.4360  0.4309
21943SOL    HW269328   4.660   1.603  10.530 -0.5936  0.6761  1.2791
21944SOL     OW69329   9.110  10.253   1.728 -0.2499  0.5853 -0.1514
21944SOL    HW169330   9.047  10.223   1.794  0.4444 -0.5164  0.0369
21944SOL    HW269331   9.084  10.343   1.710 -1.2019  0.5115  0.7327
21945SOL     OW69332   3.067   3.149   4.896  0.2831 -0.3204  0.0472
21945SOL    HW169333   3.052   3.069   4.946  1.0537 -0.6507 -0.2391
21945SOL    HW269334   3.016   3.215   4.941  0.2663 -0.8030  0.7491
21946SOL     OW69335   4.080   7.294   2.304 -0.3719  0.4398 -0.2794
21946SOL    HW169336   4.035   7.225   2.255 -0.3061 -0.8997  1.4108
21946SOL    HW269337   4.169   7.293   2.271 -0.6630  0.5293 -1.0794
21947SOL     OW69338  10.431   5.264   7.714 -0.0402 -0.5904  0.4731
21947SOL    HW169339  10.486   5.234   7.642  1.3130 -1.8767  1.9670
21947SOL    HW269340  10.471   5.346   7.743  0.3314 -0.8663  0.7414
21948SOL     OW69341   1.523   8.406   7.164 -0.4593  0.2601 -0.2840
21948SOL    HW169342   1.618   8.405   7.173 -0.5616 -0.3132  0.9232
21948SOL    HW269343   1.505   8.353   7.086  0.1352 -0.9644  0.3923
21949SOL     OW69344   1.419   9.475   1.406 -0.2537  0.2448 -0.2093
21949SOL    HW169345   1.473   9.531   1.461 -0.1492  0.1229 -0.1885
21949SOL    HW269346   1.436   9.386   1.437 -0.3597  0.1946 -0.2936
21950SOL     OW69347   6.927   3.680   6.515 -0.2620 -0.0715  0.3056
21950SOL    HW169348   6.873   3.689   6.437 -1.4439  1.3005  1.2161
21950SOL    HW269349   6.926   3.767   6.555  0.3234 -0.7200  1.8289
21951SOL     OW69350  10.562   5.925   5.255  0.2108 -0.4321 -0.0356
21951SOL    HW169351  10.481   5.877   5.243 -0.1540  0.3001 -0.6127
21951SOL    HW269352  10.588   5.952   5.167  1.2592 -0.9337  0.1033
21952SOL     OW69353   3.142   6.127   4.335  0.1963 -0.5155  0.0295
21952SOL    HW169354   3.066   6.162   4.381  1.5939  1.2495  1.1744
21952SOL    HW269355   3.125   6.145   4.243 -1.3373 -1.3607  0.1283
21953SOL     OW69356   7.494   7.213   2.388 -0.2911 -0.3338  0.2508
21953SOL    HW169357   7.521   7.297   2.426 -0.3083 -0.1721 -0.0853
21953SOL    HW269358   7.446   7.238   2.309 -0.4019 -0.6598  0.2149
21954SOL     OW69359   8.047   0.151   6.551  0.0968 -0.1125  0.2435
21954SOL    HW169360   7.995   0.140   6.472 -1.3736  0.0766  1.1569
21954SOL    HW269361   7.995   0.209   6.606  1.5536  0.5729  0.9567
21955SOL     OW69362   0.811  10.739   3.403 -0.1271 -0.4767 -0.2144
21955SOL    HW169363   0.812  10.765   3.311  1.0047 -1.5866 -0.5365
21955SOL    HW269364   0.754  10.662   3.406 -0.9485  0.1271  0.2013
21956SOL     OW69365   4.552   3.676   9.791  0.0921 -0.0376  0.1625
21956SOL    HW169366   4.528   3.585   9.775 -0.8454 -0.0218  1.3371
21956SOL    HW269367   4.638   3.672   9.834 -1.4877 -0.6591  3.5544
21957SOL     OW69368   8.781   7.526   9.859  0.3905  0.6962  0.0086
21957SOL    HW169369   8.867   7.498   9.828 -0.1409 -0.0901 -0.8074
21957SOL    HW269370   8.719   7.483   9.800 -0.5737  1.0907  0.7064
21958SOL     OW69371  10.942  10.072   4.506 -0.1196  0.3056 -0.7025
21958SOL    HW169372  10.925  10.134   4.435  0.6708  0.1715 -1.0170
21958SOL    HW269373  10.872  10.008   4.500 -0.4361  0.6735 -0.9365
21959SOL     OW69374  10.431   8.175   8.220  0.2910  0.1417 -0.1240
21959SOL    HW169375  10.354   8.119   8.213  1.6215 -1.8825  0.5798
21959SOL    HW269376  10.477   8.145   8.298  1.7253  1.3987 -0.4200
21960SOL     OW69377   5.823   6.313   2.315  0.0950  0.2836 -0.6013
21960SOL    HW169378   5.818   6.219   2.326 -0.6483  0.1291 -1.9913
21960SOL    HW269379   5.915   6.335   2.331  0.5283 -0.8484 -1.4571
21961SOL     OW69380   0.122   3.319   4.237  0.2256  0.5577 -0.0453
21961SOL    HW169381   0.081   3.393   4.281  0.0644  0.1610  0.4894
21961SOL    HW269382   0.110   3.336   4.144  0.3330  1.2780  0.0725
21962SOL     OW69383   0.522   5.059   7.983 -0.2367  0.3451  0.2011
21962SOL    HW169384   0.544   5.132   8.041  1.8716  0.0879 -0.1915
21962SOL    HW269385   0.462   5.097   7.919  0.8816  1.7912 -0.0454
21963SOL     OW69386   0.386   4.236   7.519 -0.0473  0.1894 -0.1103
21963SOL    HW169387   0.459   4.298   7.521 -0.9365  1.2369  0.7087
21963SOL    HW269388   0.379   4.210   7.427  1.2701  0.1728 -0.2169
21964SOL     OW69389   6.126   9.910   2.610 -0.4780 -0.5240 -0.2482
21964SOL    HW169390   6.046   9.961   2.614 -0.0602  0.1317 -0.0270
21964SOL    HW269391   6.191   9.962   2.658 -0.5708 -2.2727  1.9702
21965SOL     OW69392   8.879   4.510   0.873  0.0964 -0.2094 -0.1736
21965SOL    HW169393   8.847   4.428   0.910  1.8931 -1.4888 -1.3155
21965SOL    HW269394   8.954   4.534   0.928  0.6897 -0.3273 -0.9098
21966SOL     OW69395   1.801   0.705   4.424 -0.3610  0.1636 -0.0381
21966SOL    HW169396   1.736   0.768   4.457 -0.5271  0.3131 -0.6349
21966SOL    HW269397   1.771   0.684   4.336  0.9333  0.9955 -0.7026
21967SOL     OW69398   1.900   9.647   9.561 -0.3342  0.1051  0.0420
21967SOL    HW169399   1.836   9.692   9.505  0.1452  0.9748  0.1728
21967SOL    HW269400   1.889   9.555   9.540 -1.0058  0.3168 -0.5982
21968SOL     OW69401   8.469   5.581   1.960  0.1242  0.0281 -0.3751
21968SOL    HW169402   8.513   5.666   1.968  0.8671 -0.3527 -0.2647
21968SOL    HW269403   8.426   5.567   2.044  1.6466 -0.5758  0.3521
21969SOL     OW69404   2.373   3.028   7.042  0.0994 -0.5282 -0.2695
21969SOL    HW169405   2.413   3.056   7.124 -0.0082 -0.0124 -0.3904
21969SOL    HW269406   2.319   2.952   7.066  0.5618 -0.7726  0.0214
21970SOL     OW69407   0.872   4.622   9.460  0.0060  0.1153  0.3906
21970SOL    HW169408   0.958   4.581   9.473  0.3994  0.8640  0.1849
21970SOL    HW269409   0.889   4.696   9.401 -1.3851 -2.1246 -3.1927
21971SOL     OW69410   8.877   9.907   8.978 -0.0900  0.8231  0.5405
21971SOL    HW169411   8.844   9.820   8.957  0.3233  0.8355 -0.2021
21971SOL    HW269412   8.905   9.901   9.069  2.2593 -0.5660 -0.1979
21972SOL     OW69413   7.512   8.216   7.571  0.2059 -0.5132 -0.5444
21972SOL    HW169414   7.525   8.123   7.549  0.7034 -0.8109  0.8959
21972SOL    HW269415   7.417   8.226   7.573  0.1465 -0.9043 -1.0482
21973SOL     OW69416   6.575   2.300   1.082  0.0453  0.1892  0.3698
21973SOL    HW169417   6.575   2.394   1.062 -0.3914 -0.0664 -0.9222
21973SOL    HW269418   6.523   2.260   1.011 -1.0398 -0.8658  1.7103
21974SOL     OW69419   9.024  10.968   3.258 -0.2959  0.2680  0.2943
21974SOL    HW169420   9.007  11.039   3.320  0.1271 -0.9694  1.9136
21974SOL    HW269421   8.957  10.903   3.277  0.0970 -0.3162 -0.2792
21975SOL     OW69422   5.655   4.478   8.111  0.3845  0.3683  1.1126
21975SOL    HW169423   5.594   4.550   8.096 -0.3878  0.1506  2.9848
21975SOL    HW269424   5.604   4.413   8.159  1.7139 -0.4143  1.5071
21976SOL     OW69425   0.078  10.718   4.407 -0.1323 -0.1357 -0.0799
21976SOL    HW169426   0.091  10.813   4.410 -0.6773 -0.0496 -0.2427
21976SOL    HW269427   0.150  10.685   4.353  1.1796 -0.0476  1.5457
21977SOL     OW69428  10.335   1.427   3.691  0.0460  0.0466 -0.1349
21977SOL    HW169429  10.288   1.354   3.651  2.2511  0.3980 -3.8120
21977SOL    HW269430  10.384   1.388   3.763 -1.3223 -1.3931  0.0704
21978SOL     OW69431   2.426   6.507   6.885  0.0461 -0.3329  0.6912
21978SOL    HW169432   2.456   6.584   6.838  0.9951 -1.2884 -0.3254
21978SOL    HW269433   2.355   6.539   6.940  1.2365  1.5077  1.2564
21979SOL     OW69434   1.058   4.093  10.243 -0.5625  0.1395 -0.7333
21979SOL    HW169435   1.077   3.999  10.243  0.2046  0.2356  1.7245
21979SOL    HW269436   1.064   4.119  10.335  0.7644  2.9242 -1.5024
21980SOL     OW69437   8.863   2.496  10.761 -0.0480 -0.1784 -0.4975
21980SOL    HW169438   8.797   2.550  10.806  2.0989  1.7539  0.5496
21980SOL    HW269439   8.838   2.498  10.669 -1.8887 -0.2262 -0.0388
21981SOL     OW69440   9.556   3.724   1.977 -0.8734 -0.2924 -0.1611
21981SOL    HW169441   9.622   3.674   1.928 -1.9679 -0.9333 -1.0230
21981SOL    HW269442   9.517   3.782   1.911 -2.2790 -1.0722 -0.0433
21982SOL     OW69443   2.631   3.743   8.767  0.6860  0.3894 -0.2234
21982SOL    HW169444   2.548   3.789   8.779  0.6734  0.5798 -0.9510
21982SOL    HW269445   2.686   3.774   8.839  0.7878  1.8322 -0.8721
21983SOL     OW69446   6.999   8.888   1.206 -0.1501 -0.0105  0.0457
21983SOL    HW169447   7.074   8.847   1.162  0.0218  0.8680 -0.4952
21983SOL    HW269448   6.951   8.814   1.244  0.0613 -0.7319 -1.0520
21984SOL     OW69449   2.130   1.338  10.919 -0.2908  0.6487 -0.3960
21984SOL    HW169450   2.067   1.337  10.990 -0.3244 -1.1563 -0.3850
21984SOL    HW269451   2.214   1.318  10.960 -0.3546 -0.6858 -0.8556
21985SOL     OW69452  10.090   9.804   0.240  0.1443  0.1967 -0.1903
21985SOL    HW169453  10.037   9.728   0.262  0.6587 -0.1366 -0.0864
21985SOL    HW269454  10.179   9.770   0.231  0.4721  0.8633  0.3616
21986SOL     OW69455   8.031   6.230   0.780 -0.1178  0.9938 -0.9487
21986SOL    HW169456   7.949   6.215   0.828 -0.1666  1.6635 -0.8070
21986SOL    HW269457   8.030   6.166   0.709  0.4729 -0.7821  0.5727
21987SOL     OW69458   8.456   7.713   5.275 -0.4359  0.1810  0.7717
21987SOL    HW169459   8.437   7.802   5.306 -0.8056  0.5379 -0.4234
21987SOL    HW269460   8.546   7.697   5.303 -0.2425  1.0714  0.7024
21988SOL     OW69461   9.512   6.108  10.128  0.2568  0.0603 -0.0872
21988SOL    HW169462   9.543   6.041  10.067 -0.1432  0.3752 -0.6505
21988SOL    HW269463   9.462   6.169  10.073  0.8443  0.9684  0.3591
21989SOL     OW69464   8.466   3.615   6.433 -0.0844 -0.3241  0.0771
21989SOL    HW169465   8.433   3.623   6.522  0.0227 -1.0699  0.1864
21989SOL    HW269466   8.559   3.637   6.440  0.1714 -1.4354  0.3485
21990SOL     OW69467  10.639   5.707   5.057  0.0035  0.6116  0.6587
21990SOL    HW169468  10.650   5.750   4.972 -0.8641  1.4444  0.9545
21990SOL    HW269469  10.718   5.653   5.066  0.4141  1.0020 -0.3830
21991SOL     OW69470   2.994   2.631   5.002  0.0135  0.4177 -0.1037
21991SOL    HW169471   3.025   2.559   4.948  1.8444  0.5867  0.6677
21991SOL    HW269472   3.069   2.656   5.055 -0.9752  2.0045  0.6272
21992SOL     OW69473   4.514   5.712   0.816 -0.3124 -0.5963 -0.4151
21992SOL    HW169474   4.431   5.681   0.780 -0.3618 -2.0015  0.8260
21992SOL    HW269475   4.580   5.654   0.777  0.0982  0.3893 -1.2443
21993SOL     OW69476   6.384   9.068   0.543 -0.1186  0.0610  0.5064
21993SOL    HW169477   6.476   9.089   0.562 -0.0504  1.6188 -1.2521
21993SOL    HW269478   6.336   9.145   0.574 -0.7188 -0.3353  0.5551
21994SOL     OW69479   0.658   1.873  10.343  0.1453  0.5925 -0.1084
21994SOL    HW169480   0.597   1.838  10.408 -0.1166  0.9797 -0.1442
21994SOL    HW269481   0.727   1.915  10.394 -0.1113  0.9817 -0.0840
21995SOL     OW69482   1.777   8.166   0.479 -0.9948 -0.3421  0.9674
21995SOL    HW169483   1.798   8.085   0.526 -1.4837 -0.7352  0.5358
21995SOL    HW269484   1.845   8.172   0.411 -0.3096  0.2085  1.6882
21996SOL     OW69485   5.461  10.267   9.117 -0.2234 -0.1953 -0.2744
21996SOL    HW169486   5.484  10.351   9.156 -0.8477 -0.1649  0.0224
21996SOL    HW269487   5.542  10.215   9.124 -0.1273  0.0432  0.4183
21997SOL     OW69488   6.746   8.301   5.475  0.0400  0.4504  0.1701
21997SOL    HW169489   6.750   8.215   5.517 -0.0483  0.1604 -0.4046
21997SOL    HW269490   6.818   8.350   5.515  0.2687  0.0155  0.3061
21998SOL     OW69491   0.040   2.218   9.262  0.2092 -0.1438  0.1400
21998SOL    HW169492   0.027   2.297   9.210  2.2992 -0.8960 -1.6912
21998SOL    HW269493  -0.045   2.201   9.303 -0.7868  1.9949 -0.9089
21999SOL     OW69494   1.490  10.517   4.372 -0.0530  0.4784  0.0298
21999SOL    HW169495   1.439  10.588   4.412 -0.3088  0.6623 -0.6051
21999SOL    HW269496   1.424  10.462   4.329 -0.1264 -1.4676  2.4411
22000SOL     OW69497   9.645   1.633   0.796  0.1078 -0.2552 -0.5756
22000SOL    HW169498   9.599   1.696   0.852  1.1694  1.1266 -1.1843
22000SOL    HW269499   9.670   1.684   0.719  2.6736 -0.8767 -0.2568
22001SOL     OW69500   6.394   2.310   9.952 -0.8448 -0.2506 -0.1758
22001SOL    HW169501   6.392   2.216   9.935 -1.5932 -0.7515  2.2088
22001SOL    HW269502   6.484   2.328   9.980 -1.0399 -0.5765  0.7075
22002SOL     OW69503   0.723   8.508   9.915 -0.4470 -1.6254 -0.3330
22002SOL    HW169504   0.729   8.414   9.898  1.7861 -1.4185 -1.0180
22002SOL    HW269505   0.794   8.525   9.978  0.3346 -0.1565 -1.5575
22003SOL     OW69506   6.111   6.006   7.999 -0.1033 -0.3485  0.3437
22003SOL    HW169507   6.169   6.032   7.927  1.0815 -3.1293  0.1544
22003SOL    HW269508   6.027   5.988   7.956  0.5260 -1.7517 -0.3710
22004SOL     OW69509   9.528   2.037   1.935 -0.0785 -0.7287 -0.5986
22004SOL    HW169510   9.621   2.046   1.910 -0.2382 -0.3242 -1.0586
22004SOL    HW269511   9.481   2.094   1.874 -0.6083 -0.7103 -0.1799
22005SOL     OW69512   0.715   7.844   3.040  0.3499  1.1362  0.2332
22005SOL    HW169513   0.791   7.848   3.099 -0.0434  2.2354  0.6911
22005SOL    HW269514   0.643   7.814   3.096  0.6739 -1.2507 -0.4913
22006SOL     OW69515   5.485   7.513   0.742 -0.0052 -0.3228 -0.3142
22006SOL    HW169516   5.574   7.511   0.777 -0.3031  0.2226  0.5088
22006SOL    HW269517   5.430   7.530   0.818 -0.8293 -0.7760 -0.7936
22007SOL     OW69518   7.239   0.661   0.131  0.0052  0.0613 -0.1262
22007SOL    HW169519   7.310   0.602   0.104  0.7510 -0.0643  1.9802
22007SOL    HW269520   7.175   0.603   0.174 -0.0226  0.5722  0.5252
22008SOL     OW69521   6.330  10.690   5.531  0.2520 -0.4151 -0.3609
22008SOL    HW169522   6.346  10.785   5.527 -0.6575 -0.2287  0.0167
22008SOL    HW269523   6.309  10.666   5.441  0.3726 -0.2329 -0.4390
22009SOL     OW69524   3.707   7.942   2.039  0.0240 -0.3084 -0.1117
22009SOL    HW169525   3.676   7.882   2.106 -0.1064 -0.0919  0.0224
22009SOL    HW269526   3.785   7.983   2.078 -0.0634 -0.1680 -0.0851
22010SOL     OW69527   5.437   8.080   7.464  0.6024  0.0115  0.1920
22010SOL    HW169528   5.447   8.126   7.547  1.2710 -0.0240  0.1377
22010SOL    HW269529   5.377   8.008   7.483 -0.5172  0.9401  0.2559
22011SOL     OW69530   3.512   6.335   2.259  0.1910  0.5302 -0.0560
22011SOL    HW169531   3.419   6.354   2.245 -0.8716 -3.9569 -0.7277
22011SOL    HW269532   3.557   6.381   2.189 -1.5207  2.4859  0.0439
22012SOL     OW69533   0.406   0.103   9.562  0.5423 -1.1058 -0.5592
22012SOL    HW169534   0.400   0.079   9.654  0.8899  0.1657 -0.1895
22012SOL    HW269535   0.315   0.113   9.533  0.3890  1.6892  0.5547
22013SOL     OW69536   4.232   1.258   1.422 -0.3174  0.3720  0.5413
22013SOL    HW169537   4.171   1.198   1.463  2.6147 -3.2546  0.0823
22013SOL    HW269538   4.280   1.298   1.495  1.2876 -2.0282  0.9000
22014SOL     OW69539   4.090   9.326   8.605  0.3913  0.5629 -0.1203
22014SOL    HW169540   4.093   9.417   8.635 -1.1775  1.5638 -2.6536
22014SOL    HW269541   3.997   9.303   8.608  0.6191 -0.4958 -0.7611
22015SOL     OW69542   9.143   1.441   3.258  0.5714 -0.4113 -0.5923
22015SOL    HW169543   9.195   1.377   3.208  0.2733  0.9268 -2.7325
22015SOL    HW269544   9.201   1.469   3.329  0.4610 -3.5215  0.8949
22016SOL     OW69545   0.290   5.611   3.136 -0.1873  0.0689 -0.1192
22016SOL    HW169546   0.205   5.624   3.178 -0.3811  0.6987 -0.7014
22016SOL    HW269547   0.306   5.517   3.144 -0.7372  0.0076  0.3658
22017SOL     OW69548   7.111   7.076   9.004  0.1703 -0.6979  0.2083
22017SOL    HW169549   7.172   7.148   8.987  0.4079 -0.6749  1.1046
22017SOL    HW269550   7.025   7.113   8.985  0.4609 -0.9853 -1.8982
22018SOL     OW69551   3.472   7.173   8.505 -0.5838  0.7935  0.1773
22018SOL    HW169552   3.485   7.124   8.425 -1.4877 -0.6561  0.8711
22018SOL    HW269553   3.382   7.205   8.499 -0.9986 -0.1652  1.0205
22019SOL     OW69554   8.389   7.340   4.974 -0.4462  0.5484  0.2700
22019SOL    HW169555   8.354   7.393   4.902  0.1023 -0.4885 -0.7996
22019SOL    HW269556   8.369   7.250   4.949  0.8062  0.0918  0.8312
22020SOL     OW69557   8.589  10.611  10.993 -0.5071 -0.3393  1.0489
22020SOL    HW169558   8.549  10.698  10.982  1.6289  1.0935  3.4939
22020SOL    HW269559   8.650  10.622  11.066  2.4711 -2.9725 -0.7871
22021SOL     OW69560   4.464   3.435   9.722 -0.3321 -0.0026  0.8392
22021SOL    HW169561   4.504   3.363   9.673 -1.7358 -0.4199  0.2563
22021SOL    HW269562   4.479   3.412   9.814  2.7716  1.0376  0.7107
22022SOL     OW69563   0.442   1.770   7.660  0.1138 -0.6718  0.2384
22022SOL    HW169564   0.492   1.843   7.696 -0.7547  0.8826 -1.5790
22022SOL    HW269565   0.509   1.710   7.627  0.8312  0.5325 -0.5653
22023SOL     OW69566   8.982   9.401   1.985  0.2380  0.2249 -0.4859
22023SOL    HW169567   8.904   9.404   1.930 -0.5478  0.5845  0.6327
22023SOL    HW269568   9.019   9.489   1.978  2.3046 -0.7024 -3.4152
22024SOL     OW69569   6.612  10.319   8.723 -0.4237 -0.8344 -0.6793
22024SOL    HW169570   6.655  10.289   8.643 -0.6583 -2.4726 -0.2345
22024SOL    HW269571   6.606  10.241   8.778 -1.3832 -0.0155  0.4454
22025SOL     OW69572   3.188   2.966  10.662  0.2378 -0.1803  0.1045
22025SOL    HW169573   3.256   3.028  10.636  0.5822 -0.3009  0.6818
22025SOL    HW269574   3.113   3.021  10.686  0.5042  0.0134  0.5107
22026SOL     OW69575   0.954   5.628   9.925 -0.0378  0.3677 -0.4037
22026SOL    HW169576   0.861   5.634   9.949  0.0955  0.8097 -0.0022
22026SOL    HW269577   0.979   5.539   9.952 -0.5116 -0.0011 -1.1297
22027SOL     OW69578   4.686   0.853   2.620 -0.2543  0.0855  0.4146
22027SOL    HW169579   4.774   0.828   2.649 -0.0952  1.2085  0.9605
22027SOL    HW269580   4.700   0.896   2.535  0.0651  2.4410  1.5769
22028SOL     OW69581   3.801   7.938   2.899 -0.1027 -0.7611  0.0572
22028SOL    HW169582   3.841   7.855   2.926 -0.2780 -0.4355  1.4096
22028SOL    HW269583   3.872   7.987   2.857 -0.0382 -1.6374 -0.8997
22029SOL     OW69584   4.520   8.977   0.174  0.1501 -0.1396 -0.0964
22029SOL    HW169585   4.452   9.028   0.131 -1.3159 -0.8319  1.3008
22029SOL    HW269586   4.528   8.898   0.120  0.6150  0.4047 -0.8418
22030SOL     OW69587   2.262   9.997   7.425 -0.3821  0.7460 -0.8369
22030SOL    HW169588   2.326   9.951   7.479 -0.3701 -0.3083 -1.7002
22030SOL    HW269589   2.189   9.936   7.417 -1.5295  1.9483  0.1505
22031SOL     OW69590   5.855   0.190   5.538 -0.6301  0.0529  0.3389
22031SOL    HW169591   5.848   0.281   5.509  1.8051  0.9033  2.0340
22031SOL    HW269592   5.797   0.185   5.614  1.5011  1.2245  2.1785
22032SOL     OW69593  10.952   4.215   1.493  0.2766 -0.0108  0.0746
22032SOL    HW169594  11.009   4.256   1.428  1.0841 -0.3037  0.5764
22032SOL    HW269595  10.918   4.137   1.449  1.4776 -0.6676  0.2526
22033SOL     OW69596   2.680   6.201   0.555 -0.5699  0.0359  0.1370
22033SOL    HW169597   2.704   6.228   0.466  2.1000  0.3182  0.8699
22033SOL    HW269598   2.643   6.280   0.595 -1.1475  0.0949 -0.4967
22034SOL     OW69599   8.052   4.103   4.547 -0.3758 -0.2822 -0.6128
22034SOL    HW169600   8.059   4.008   4.556 -0.4016 -0.7339 -4.1420
22034SOL    HW269601   7.970   4.116   4.500 -1.4022  1.7252  1.5204
22035SOL     OW69602   3.068   8.848  10.538  0.2955  0.4417  0.2741
22035SOL    HW169603   3.035   8.880  10.621 -0.3813 -1.6929  0.8876
22035SOL    HW269604   2.990   8.835  10.484  0.6924  1.3691 -0.5731
22036SOL     OW69605   4.792   4.606   9.766 -0.6317  0.1296 -0.5096
22036SOL    HW169606   4.718   4.601   9.827 -0.7644 -0.8187 -0.7312
22036SOL    HW269607   4.759   4.568   9.685 -0.0320  0.1083 -0.7486
22037SOL     OW69608   7.190   2.258   5.051  0.5679  0.0848 -0.0960
22037SOL    HW169609   7.172   2.293   4.963 -0.8157 -1.5408 -0.5193
22037SOL    HW269610   7.282   2.232   5.047  0.5459  0.0859 -1.0566
22038SOL     OW69611   7.752   7.674   2.549 -0.4728 -0.2437 -0.6093
22038SOL    HW169612   7.826   7.720   2.508 -0.9334  0.8630 -0.2264
22038SOL    HW269613   7.782   7.656   2.638 -0.8491  0.6985 -0.2792
22039SOL     OW69614   3.655   6.401   9.407 -0.5194 -0.7165  0.0815
22039SOL    HW169615   3.682   6.312   9.427 -3.0259 -0.8848  3.5492
22039SOL    HW269616   3.692   6.454   9.478 -0.2725  0.8087 -1.1333
22040SOL     OW69617   7.750   1.401   2.094 -0.0683 -0.0617  0.5961
22040SOL    HW169618   7.691   1.342   2.140 -0.0176 -0.9826 -0.4626
22040SOL    HW269619   7.692   1.457   2.042 -0.1139  0.8297  1.5639
22041SOL     OW69620   7.874   1.599   5.347 -0.4025  0.1068  0.3722
22041SOL    HW169621   7.855   1.623   5.256  0.0347  1.3523  0.5902
22041SOL    HW269622   7.925   1.673   5.381  2.8220 -1.9847  0.4870
22042SOL     OW69623   7.592  10.879   0.647  0.1426  0.3524 -0.0225
22042SOL    HW169624   7.573  10.841   0.562  0.7865 -0.4781  0.1952
22042SOL    HW269625   7.520  10.941   0.662 -0.5535 -0.2724 -0.6933
22043SOL     OW69626   8.964   8.791   9.140  0.3148 -0.1018  0.1682
22043SOL    HW169627   8.889   8.765   9.193 -0.1662  0.8127 -0.0489
22043SOL    HW269628   9.039   8.785   9.199 -0.2283  0.9927  0.9972
22044SOL     OW69629  10.269   5.876   4.664  0.2409 -0.5472  0.3104
22044SOL    HW169630  10.268   5.970   4.650 -1.2349 -0.2495  2.0585
22044SOL    HW269631  10.192   5.858   4.718  0.5017 -2.7542  0.0709
22045SOL     OW69632   3.781   9.950   3.825  0.1404 -0.1397  0.6574
22045SOL    HW169633   3.703   9.911   3.865 -1.3883 -0.9673 -2.8007
22045SOL    HW269634   3.854   9.903   3.865 -1.2043 -0.8579  2.4205
22046SOL     OW69635   1.767   2.290   1.117  0.1240 -0.1738  0.4748
22046SOL    HW169636   1.805   2.306   1.030  0.6546 -1.0797  0.5248
22046SOL    HW269637   1.690   2.235   1.099 -0.2092  0.2797  0.5141
22047SOL     OW69638   8.724   5.376   6.025  0.0346  0.3693 -0.3129
22047SOL    HW169639   8.630   5.361   6.027  0.0188  0.3452 -1.0635
22047SOL    HW269640   8.759   5.320   6.095 -0.3137 -1.1019 -1.2714
22048SOL     OW69641   6.149   8.116  10.322 -0.0518 -0.3990  0.4050
22048SOL    HW169642   6.101   8.186  10.276  0.0846 -0.5176  0.0773
22048SOL    HW269643   6.190   8.065  10.252  1.0227  0.0340  0.6955
22049SOL     OW69644   7.167   4.278   7.542 -0.1019  0.2776 -0.6781
22049SOL    HW169645   7.240   4.339   7.535 -0.0777  0.1279 -2.1237
22049SOL    HW269646   7.205   4.192   7.525 -0.5155  0.1327 -0.8965
22050SOL     OW69647   2.761   2.762   9.461  0.0444  0.1101 -0.3420
22050SOL    HW169648   2.744   2.851   9.430 -0.7207  0.3795  0.7998
22050SOL    HW269649   2.709   2.754   9.541  2.5620 -0.2965  1.3351
22051SOL     OW69650   4.805   2.718   8.712  0.2193  0.4063  0.2105
22051SOL    HW169651   4.779   2.789   8.654  1.3967  2.1237  1.6993
22051SOL    HW269652   4.739   2.718   8.781 -0.9957 -1.4247 -0.8539
22052SOL     OW69653  10.953   8.543   8.761  0.1839 -0.1136  0.2159
22052SOL    HW169654  10.911   8.565   8.678  1.9598 -0.6765 -0.8934
22052SOL    HW269655  10.921   8.455   8.782 -0.9053  0.3537  0.5906
22053SOL     OW69656   9.965   8.249   4.091 -0.2614 -0.0833  0.3841
22053SOL    HW169657  10.013   8.249   4.173  1.0006 -1.7895 -0.2910
22053SOL    HW269658   9.997   8.326   4.044  0.5966 -0.2700  0.6468
22054SOL     OW69659   9.868   7.887   9.307  0.0766 -0.0275  0.0934
22054SOL    HW169660   9.944   7.943   9.293  0.8754 -1.2047 -0.4548
22054SOL    HW269661   9.862   7.877   9.402  1.0100 -0.4442  0.1157
22055SOL     OW69662   2.079   2.954   4.164  0.2514  0.0366 -0.2588
22055SOL    HW169663   2.144   2.931   4.098 -0.1515  1.4116 -1.1915
22055SOL    HW269664   2.017   3.010   4.117 -0.2995  0.6872  1.1897
22056SOL     OW69665   7.641   6.979   6.515 -0.3142 -0.1159 -0.1758
22056SOL    HW169666   7.555   6.956   6.478 -0.1510  0.8679 -1.2101
22056SOL    HW269667   7.631   7.070   6.544  0.1619 -0.2386  0.3887
22057SOL     OW69668   8.207   6.471  10.177 -0.2107 -0.0118  0.4055
22057SOL    HW169669   8.271   6.486  10.109 -0.4382 -2.2921 -0.3906
22057SOL    HW269670   8.124   6.462  10.131 -0.8693  1.2332  1.2711
22058SOL     OW69671   5.620   4.404   9.189  0.2422 -0.1262  0.0088
22058SOL    HW169672   5.676   4.328   9.171  2.2464  1.0497  0.8755
22058SOL    HW269673   5.651   4.470   9.127  0.6148  0.9005  1.2614
22059SOL     OW69674   4.349   5.019   5.289 -0.0230  0.3500  0.6254
22059SOL    HW169675   4.294   5.061   5.355 -1.5902 -0.9263  0.1930
22059SOL    HW269676   4.381   4.939   5.330 -0.8267 -0.3401 -0.0571
22060SOL     OW69677   0.292   5.941   6.871 -0.1106  0.9468 -0.0602
22060SOL    HW169678   0.301   5.953   6.776  0.9180  1.0868  0.0477
22060SOL    HW269679   0.304   5.847   6.883 -0.7240  0.8558 -0.1098
22061SOL     OW69680   3.418   4.051   2.081  0.5174  0.2684 -0.4859
22061SOL    HW169681   3.441   4.142   2.066  1.5595 -0.0225 -0.7151
22061SOL    HW269682   3.458   4.003   2.008 -1.4551 -0.1951 -1.3472
22062SOL     OW69683   4.569   1.322   8.757 -0.5354 -0.6942 -0.0412
22062SOL    HW169684   4.585   1.416   8.767 -0.9590 -0.4682 -1.3455
22062SOL    HW269685   4.638   1.292   8.697 -2.1567 -0.5946 -2.0516
22063SOL     OW69686   9.853   5.127   6.562  0.3815 -0.1408 -0.0385
22063SOL    HW169687   9.850   5.198   6.626 -1.7586 -1.4155  1.4136
22063SOL    HW269688   9.924   5.070   6.592  0.3305  0.0117  0.3748
22064SOL     OW69689   8.593   1.559   7.079  0.6160 -0.1718  0.4448
22064SOL    HW169690   8.524   1.625   7.080 -0.0574 -0.7860 -0.9344
22064SOL    HW269691   8.674   1.608   7.068  0.1176  0.4469 -0.6481
22065SOL     OW69692   3.939   3.111   2.850  0.2503  0.0002 -0.0896
22065SOL    HW169693   3.940   3.206   2.855 -0.0635 -0.0175  0.4125
22065SOL    HW269694   3.979   3.091   2.766 -0.5044  0.6086 -0.6048
22066SOL     OW69695   4.354   6.507   5.205  0.1367  0.2890  0.0352
22066SOL    HW169696   4.447   6.508   5.182  0.2396 -0.1039  0.4221
22066SOL    HW269697   4.309   6.493   5.122  0.3725  1.3944 -0.2945
22067SOL     OW69698   5.960  10.844   9.642  0.0957 -0.0670 -0.3652
22067SOL    HW169699   5.913  10.885   9.716 -1.3113 -2.4851  0.1664
22067SOL    HW269700   6.046  10.823   9.678  0.2128  0.7695 -0.1197
22068SOL     OW69701   3.212   2.036   9.839  0.3836  0.3156  0.4918
22068SOL    HW169702   3.272   2.009   9.909  0.7919  0.1129  0.0629
22068SOL    HW269703   3.258   2.106   9.794 -0.1721  0.9189  0.8491
22069SOL     OW69704   6.796   4.784  10.063 -0.2772 -0.0710  0.0935
22069SOL    HW169705   6.816   4.851   9.997 -1.5138 -0.0007 -0.2410
22069SOL    HW269706   6.852   4.710  10.040  0.9035  0.7343  0.2983
22070SOL     OW69707   6.949   6.627   3.369 -0.2348 -0.2537 -0.0574
22070SOL    HW169708   6.922   6.567   3.439 -1.3282  0.7978  0.4580
22070SOL    HW269709   6.868   6.647   3.322  0.5611 -1.3853 -2.0353
22071SOL     OW69710   0.901   9.310   0.653 -0.6365 -0.1820  0.1804
22071SOL    HW169711   0.890   9.373   0.724  1.0551 -0.4469  0.7303
22071SOL    HW269712   0.899   9.364   0.574  2.2806  0.8710  0.7051
22072SOL     OW69713   4.645   5.552   3.507  0.6279 -0.1018 -0.3166
22072SOL    HW169714   4.556   5.517   3.509  0.2946  0.6885 -0.6772
22072SOL    HW269715   4.700   5.481   3.540 -0.1720 -0.4916  0.2173
22073SOL     OW69716   9.781  10.843   1.912 -0.3623 -0.1306  0.2858
22073SOL    HW169717   9.708  10.784   1.896  0.3872 -0.7808 -0.9085
22073SOL    HW269718   9.826  10.848   1.827  2.4552 -1.7789  1.5372
22074SOL     OW69719   1.185   7.122  10.398 -0.8798 -0.2469  0.6207
22074SOL    HW169720   1.232   7.205  10.387 -0.9165 -0.4879 -1.8286
22074SOL    HW269721   1.209   7.093  10.486  1.2420  1.0590  0.5542
22075SOL     OW69722  10.128   3.925   1.281 -0.2484  0.6145  0.2025
22075SOL    HW169723  10.102   4.017   1.290 -1.2150  0.3400  0.3663
22075SOL    HW269724  10.063   3.887   1.222  1.0083  0.3649 -1.0715
22076SOL     OW69725   2.604   1.469   3.409 -0.1363  0.4683  0.6570
22076SOL    HW169726   2.675   1.434   3.355  0.5453 -1.0535  2.4027
22076SOL    HW269727   2.524   1.448   3.360  0.4759 -0.3849 -0.0105
22077SOL     OW69728   8.129   9.364   5.446 -0.5704  0.2423  0.5210
22077SOL    HW169729   8.212   9.370   5.400 -1.8719 -0.6555 -2.1159
22077SOL    HW269730   8.105   9.455   5.464 -1.2534  0.9362 -3.1003
22078SOL     OW69731   8.450   2.954   5.772  0.2858 -0.1548 -0.2915
22078SOL    HW169732   8.460   2.932   5.865  0.4798  2.0321  0.2409
22078SOL    HW269733   8.522   2.908   5.729  0.7352 -0.4680  0.7563
22079SOL     OW69734   0.737   2.699   7.427 -0.1032 -0.1667 -0.1252
22079SOL    HW169735   0.823   2.683   7.466 -0.2524 -2.9643 -0.7327
22079SOL    HW269736   0.730   2.794   7.422  2.8654  0.1530  0.1213
22080SOL     OW69737   4.112   6.410   8.624  0.6948 -0.2834 -0.5703
22080SOL    HW169738   4.078   6.453   8.703 -2.3809  3.0510 -3.3189
22080SOL    HW269739   4.198   6.450   8.610 -0.2411  1.8379 -0.6786
22081SOL     OW69740  10.404   6.414   2.048  0.0361 -0.4210  0.3271
22081SOL    HW169741  10.495   6.401   2.022  0.0547  0.8731 -0.3564
22081SOL    HW269742  10.407   6.414   2.144  0.9530  0.6922  0.3248
22082SOL     OW69743   3.440   3.583   2.769 -0.0545  0.6617 -0.4128
22082SOL    HW169744   3.433   3.488   2.756  1.0990  0.6992 -1.5158
22082SOL    HW269745   3.532   3.603   2.753 -0.2613  1.9644 -0.1023
22083SOL     OW69746  10.635   9.923   4.130  0.4155 -0.3160 -0.5915
22083SOL    HW169747  10.599  10.011   4.143  1.5602  0.0218  0.5670
22083SOL    HW269748  10.704   9.935   4.064 -0.2426 -0.5880 -1.3414
22084SOL     OW69749   5.008   4.614   3.304 -0.4525 -0.3988  0.0244
22084SOL    HW169750   5.051   4.651   3.227 -1.5919  0.1188 -0.3829
22084SOL    HW269751   4.916   4.604   3.279 -1.1055  0.9039  1.6720
22085SOL     OW69752   6.884   4.993   8.704  0.1647  0.1041  0.2358
22085SOL    HW169753   6.852   5.007   8.794 -0.8383 -2.0774  0.2992
22085SOL    HW269754   6.820   4.933   8.666  3.1750 -3.1216 -0.2532
22086SOL     OW69755   2.015   2.230   0.403 -0.2285  0.2294  0.1594
22086SOL    HW169756   1.923   2.257   0.396 -0.7695 -0.9808  1.7715
22086SOL    HW269757   2.011   2.136   0.420  1.4215 -0.2418 -1.6917
22087SOL     OW69758   6.535   5.353  10.037 -0.2194 -0.1965 -0.1110
22087SOL    HW169759   6.503   5.398  10.116  0.9531  0.4485  0.0141
22087SOL    HW269760   6.615   5.400  10.013 -1.1249  0.3415 -2.3312
22088SOL     OW69761   7.713   6.411   4.079 -0.1989 -0.9321 -0.1295
22088SOL    HW169762   7.665   6.493   4.064  1.7083  0.1532 -0.5731
22088SOL    HW269763   7.671   6.373   4.156 -0.8141  0.7034  0.3823
22089SOL     OW69764   4.288   6.477   9.347  0.1455  0.1792 -0.4951
22089SOL    HW169765   4.211   6.495   9.400 -1.0009 -1.5610 -1.4726
22089SOL    HW269766   4.261   6.500   9.258  1.4516  1.3928 -0.6146
22090SOL     OW69767   7.855   2.544   2.084 -0.6656 -0.7689  0.4171
22090SOL    HW169768   7.946   2.548   2.114 -0.1599 -1.8157 -0.8951
22090SOL    HW269769   7.826   2.455   2.105 -1.0344 -0.7764 -0.0903
22091SOL     OW69770   2.550   3.721   5.876  0.2156 -0.3373  0.4264
22091SOL    HW169771   2.600   3.787   5.925 -0.3928 -0.3908  1.1460
22091SOL    HW269772   2.476   3.699   5.934 -0.7156 -0.1638 -0.6678
22092SOL     OW69773   3.859   2.613   6.117 -0.1961  0.3965 -0.1938
22092SOL    HW169774   3.946   2.649   6.100  0.2256 -0.9540 -1.0389
22092SOL    HW269775   3.868   2.519   6.099 -1.0150 -0.3595  2.7127
22093SOL     OW69776   1.630   5.849   7.334  0.3943 -0.0449 -0.2930
22093SOL    HW169777   1.646   5.881   7.423  1.7150 -0.2277 -0.4451
22093SOL    HW269778   1.535   5.841   7.329  0.1909  1.3557  0.6130
22094SOL     OW69779   7.147   3.622   6.763 -0.0800 -0.3498  0.2585
22094SOL    HW169780   7.094   3.553   6.724  0.3979 -0.7348  0.2804
22094SOL    HW269781   7.205   3.575   6.824 -0.2548  0.1486  0.8165
22095SOL     OW69782   7.351   7.526   3.808  0.3479  0.5000 -0.1880
22095SOL    HW169783   7.374   7.609   3.767 -1.1760  1.2441  0.3575
22095SOL    HW269784   7.285   7.488   3.749  0.6629 -0.0775 -0.1726
22096SOL     OW69785   1.386   5.860   2.271 -0.0291  0.2694  0.5928
22096SOL    HW169786   1.315   5.850   2.334  1.3485 -0.2349  2.1121
22096SOL    HW269787   1.466   5.861   2.324  1.3969 -2.5828 -1.2744
22097SOL     OW69788   5.655   5.586   0.193 -0.1940  0.8389  0.4124
22097SOL    HW169789   5.700   5.514   0.236  0.1395  1.8200  1.7780
22097SOL    HW269790   5.685   5.582   0.102 -0.2677 -0.7831  0.4299
22098SOL     OW69791   0.379   8.435   5.748  0.2407 -0.6073  0.2201
22098SOL    HW169792   0.286   8.427   5.768  0.7320 -0.7193  2.7990
22098SOL    HW269793   0.406   8.347   5.721  0.0353 -1.1413  1.6944
22099SOL     OW69794   8.943   7.418   8.733 -0.2044 -0.1324 -1.0182
22099SOL    HW169795   8.948   7.464   8.649 -0.1351  0.9698 -0.4152
22099SOL    HW269796   8.854   7.432   8.763 -0.3149 -0.7712 -1.0355
22100SOL     OW69797   1.375   7.944   6.364  0.0894  0.2309 -0.2005
22100SOL    HW169798   1.339   8.001   6.295 -1.2471 -1.0936 -0.6360
22100SOL    HW269799   1.309   7.945   6.433 -0.1595 -1.1431 -0.4068
22101SOL     OW69800   5.712   4.806   9.642 -0.2770  0.1057  1.0064
22101SOL    HW169801   5.790   4.850   9.608 -1.0040  0.4429 -0.3161
22101SOL    HW269802   5.706   4.834   9.733 -0.2936  2.1938  0.4248
22102SOL     OW69803   2.965   7.406   9.437  0.0254  0.0257  0.2723
22102SOL    HW169804   3.058   7.420   9.452  0.5804 -2.1025 -0.6828
22102SOL    HW269805   2.951   7.431   9.346 -0.7372  1.8441  0.8437
22103SOL     OW69806   4.670   2.340   0.850  0.7089 -0.0698  0.6200
22103SOL    HW169807   4.714   2.406   0.904  1.0818  0.7338 -0.6183
22103SOL    HW269808   4.620   2.391   0.785  1.0789 -0.9918 -0.4257
22104SOL     OW69809   1.838   8.517   0.520  0.2558 -0.4342 -0.4768
22104SOL    HW169810   1.746   8.490   0.514 -0.5043  1.9626 -0.5091
22104SOL    HW269811   1.852   8.572   0.443  0.7160  1.8843  1.1537
22105SOL     OW69812   9.432   1.970   0.588  0.2564 -0.2347 -0.4786
22105SOL    HW169813   9.454   2.045   0.533 -0.0879  0.9335  0.9080
22105SOL    HW269814   9.430   2.005   0.677  0.1800 -1.9203  0.2287
22106SOL     OW69815   3.127   5.921   9.989  0.0792 -0.2738  0.0852
22106SOL    HW169816   3.135   5.837  10.035 -0.1502  0.0081  0.6464
22106SOL    HW269817   3.214   5.960   9.996 -0.1373  0.0719  0.8771
22107SOL     OW69818   7.953   4.114   0.617 -0.2063 -0.0584 -0.5423
22107SOL    HW169819   8.009   4.043   0.647  1.4207  1.3059 -0.2339
22107SOL    HW269820   8.000   4.153   0.544 -0.8213  1.0326 -0.3737
22108SOL     OW69821   3.507   9.738   2.158 -0.3066  0.3882  0.1217
22108SOL    HW169822   3.499   9.678   2.233  0.2522 -0.4859 -0.4946
22108SOL    HW269823   3.598   9.730   2.132  0.7076  3.8636  1.9157
22109SOL     OW69824   4.664   3.963   9.928  0.3378  0.2121 -0.6018
22109SOL    HW169825   4.671   3.869   9.914  0.1314  0.0757  0.1620
22109SOL    HW269826   4.590   3.972   9.989 -0.7330  0.9825 -1.9561
22110SOL     OW69827   0.954   2.036   7.617 -0.6190  0.3400 -0.4404
22110SOL    HW169828   1.021   2.052   7.551  1.7959  1.8741  2.1514
22110SOL    HW269829   0.924   2.123   7.643 -1.9828 -0.2364  0.0429
22111SOL     OW69830   2.329   2.443   3.140 -0.0561  0.1341  0.5837
22111SOL    HW169831   2.258   2.490   3.184 -0.1808 -1.2991  2.0023
22111SOL    HW269832   2.292   2.415   3.057 -0.5573  0.9160  0.5273
22112SOL     OW69833   5.215   5.240   3.829  0.0711  0.0352  0.3385
22112SOL    HW169834   5.176   5.315   3.874 -0.8792 -0.9455  1.1893
22112SOL    HW269835   5.222   5.172   3.896  1.8522 -0.3303 -0.1758
22113SOL     OW69836   4.163   8.726   0.698 -0.0094  0.4171 -0.4912
22113SOL    HW169837   4.140   8.818   0.684  0.2554  0.5573 -0.0099
22113SOL    HW269838   4.093   8.678   0.655  0.5521  0.8308 -1.9370
22114SOL     OW69839   1.266   0.639   1.470 -0.0734 -0.2584 -0.3346
22114SOL    HW169840   1.261   0.689   1.389 -1.5250  0.9047  0.4176
22114SOL    HW269841   1.341   0.580   1.458  0.9171  1.2140 -1.7572
22115SOL     OW69842   3.277   1.063   7.338 -0.1659  0.7249 -0.2904
22115SOL    HW169843   3.194   1.110   7.333 -0.2918  0.5559  0.1636
22115SOL    HW269844   3.293   1.053   7.432 -1.3731 -2.2652 -0.2854
22116SOL     OW69845   4.601   0.795   8.906  0.4107 -0.1100 -0.4375
22116SOL    HW169846   4.540   0.765   8.975  1.7991 -0.1689  0.8062
22116SOL    HW269847   4.583   0.737   8.832  0.8864 -2.0501  0.8836
22117SOL     OW69848   6.917   0.610   8.822  1.2690 -0.2549 -0.6644
22117SOL    HW169849   6.969   0.690   8.826 -0.6047  1.0122 -0.0422
22117SOL    HW269850   6.929   0.569   8.907  1.1132  0.1353 -0.4508
22118SOL     OW69851   9.343  10.004   2.456  0.1021 -0.2254  0.2066
22118SOL    HW169852   9.390   9.970   2.533  0.1425 -1.3719 -0.3062
22118SOL    HW269853   9.386  10.087   2.437 -0.3562  0.4249  1.8327
22119SOL     OW69854   3.658   1.521   2.198 -0.7771 -0.0347  0.3631
22119SOL    HW169855   3.616   1.435   2.204  0.0032 -0.4940 -0.4435
22119SOL    HW269856   3.645   1.548   2.107 -0.9308  0.6531  0.5874
22120SOL     OW69857   4.515   7.651   0.566  0.4989  0.4297 -0.2538
22120SOL    HW169858   4.578   7.604   0.511  0.9082  1.1588 -0.4263
22120SOL    HW269859   4.566   7.723   0.604  0.3216 -0.2617  1.3798
22121SOL     OW69860   7.923  10.162   3.303 -0.6337 -0.4762 -0.0152
22121SOL    HW169861   7.878  10.236   3.345  0.6018  1.4107 -1.8390
22121SOL    HW269862   7.968  10.118   3.375 -0.3919  1.2913  0.9779
22122SOL     OW69863   1.187   0.359   4.360 -0.3904 -0.0205  0.5634
22122SOL    HW169864   1.154   0.277   4.398 -0.6425  0.1159  0.6422
22122SOL    HW269865   1.115   0.390   4.305  0.3628 -0.7920 -0.9353
22123SOL     OW69866   2.393   4.549   8.153 -0.9055  0.3116  0.2360
22123SOL    HW169867   2.352   4.466   8.179 -0.0705 -0.1018  0.2701
22123SOL    HW269868   2.432   4.582   8.234  0.0792 -0.0348 -0.0890
22124SOL     OW69869   2.074   9.893   6.763  0.3608 -0.2566 -0.0801
22124SOL    HW169870   2.001   9.833   6.779  0.6719 -1.3017 -2.2388
22124SOL    HW269871   2.123   9.893   6.845 -0.9330 -1.1112  0.7319
22125SOL     OW69872   9.328   4.690   9.604  0.0982 -0.2276 -0.1740
22125SOL    HW169873   9.388   4.661   9.672  0.7130  1.8085  0.2433
22125SOL    HW269874   9.246   4.643   9.622  1.0970 -1.8886  0.1846
22126SOL     OW69875   2.894   4.779   9.482  0.1883  0.7201  0.2397
22126SOL    HW169876   2.891   4.868   9.515 -0.2311  1.4206 -1.5916
22126SOL    HW269877   2.964   4.737   9.532 -0.5523  1.6109  2.1353
22127SOL     OW69878   3.362   6.587   5.192 -0.3632 -0.2399  0.3875
22127SOL    HW169879   3.382   6.613   5.102  2.0060  0.2184  0.9764
22127SOL    HW269880   3.319   6.664   5.229 -0.9882 -0.2825 -0.2300
22128SOL     OW69881  10.811   6.731   9.262  0.3101 -0.0837  0.1166
22128SOL    HW169882  10.751   6.786   9.212  0.5163  0.5763  0.5811
22128SOL    HW269883  10.796   6.643   9.228 -1.4130 -0.0509  0.6742
22129SOL     OW69884   2.697   4.787   1.308  0.1218 -0.3903 -0.7113
22129SOL    HW169885   2.782   4.752   1.333 -0.0881 -0.4782 -0.0954
22129SOL    HW269886   2.710   4.882   1.306  0.5098 -0.4571 -1.6944
22130SOL     OW69887   1.719   5.552   7.440 -0.0034  0.0024  0.7098
22130SOL    HW169888   1.638   5.598   7.415  0.3847  0.8843  1.0127
22130SOL    HW269889   1.776   5.621   7.474  1.9838 -0.1007 -2.0762
22131SOL     OW69890   5.337   3.343   9.053 -0.3282 -0.5475 -0.4433
22131SOL    HW169891   5.298   3.429   9.035  0.0201 -0.1751  0.5263
22131SOL    HW269892   5.407   3.334   8.988 -0.0942  0.0879 -0.2826
22132SOL     OW69893   8.061   6.713   9.858  0.0225  0.2401 -0.0462
22132SOL    HW169894   8.136   6.758   9.819  0.9347 -1.0215  0.1610
22132SOL    HW269895   8.032   6.652   9.790  0.7799 -1.0262  0.7147
22133SOL     OW69896   3.632   3.398   6.972  0.3389  0.3221 -0.2030
22133SOL    HW169897   3.637   3.360   7.060  0.7561 -0.2086 -0.4502
22133SOL    HW269898   3.721   3.393   6.938  0.6125  2.4235  0.1003
22134SOL     OW69899   1.083   6.209   6.522  0.4744  0.6885 -0.0018
22134SOL    HW169900   1.025   6.151   6.474  1.4966  0.1046 -0.5567
22134SOL    HW269901   1.151   6.151   6.558 -0.6377  0.9773  2.8011
22135SOL     OW69902   1.371   0.198   6.151  0.2788 -0.8305  0.3530
22135SOL    HW169903   1.463   0.221   6.138  0.2911 -0.4389  1.0884
22135SOL    HW269904   1.352   0.136   6.080  0.6638  0.2712 -0.7646
22136SOL     OW69905   6.948   2.345   4.337  0.0316  0.5702 -0.4919
22136SOL    HW169906   6.909   2.380   4.418  0.7986 -0.9374  0.5840
22136SOL    HW269907   7.029   2.394   4.326  0.8920 -0.5054  0.7696
22137SOL     OW69908   2.570   9.590   7.320  0.3723  0.9064 -0.3802
22137SOL    HW169909   2.522   9.628   7.247  0.1878 -0.3447 -0.9349
22137SOL    HW269910   2.519   9.513   7.346  1.5005  0.1556 -0.2890
22138SOL     OW69911   2.275   6.216   1.826  0.0212 -0.2706 -0.8031
22138SOL    HW169912   2.322   6.293   1.793  1.9330 -1.6004 -1.3895
22138SOL    HW269913   2.333   6.143   1.805 -0.6160 -1.6421  1.8461
22139SOL     OW69914   3.215   7.719   1.172 -0.7899 -0.1506 -0.3159
22139SOL    HW169915   3.145   7.670   1.129 -2.1750  0.7926  0.7734
22139SOL    HW269916   3.201   7.810   1.147 -0.6985  0.2129  0.8661
22140SOL     OW69917   9.828   0.621  10.434 -0.3227 -1.0064  0.1901
22140SOL    HW169918   9.891   0.668  10.379 -1.4639 -0.6881 -0.8954
22140SOL    HW269919   9.843   0.656  10.522 -0.2098  0.3883 -0.3603
22141SOL     OW69920   4.436   2.525   9.223  0.4704 -0.2625  0.0110
22141SOL    HW169921   4.510   2.555   9.277  0.1364 -0.2059  0.4422
22141SOL    HW269922   4.377   2.599   9.220  0.5666 -0.2074 -0.5875
22142SOL     OW69923   7.230   7.036   1.261  0.1642 -0.4527 -0.0586
22142SOL    HW169924   7.281   7.117   1.269 -0.3647 -0.0966 -0.1873
22142SOL    HW269925   7.278   6.972   1.312  0.9123 -0.2065 -0.4366
22143SOL     OW69926   9.501  10.262   3.893 -0.0064  0.4484 -0.5671
22143SOL    HW169927   9.530  10.257   3.802 -1.3364 -1.3489 -0.9312
22143SOL    HW269928   9.531  10.348   3.922 -1.1013  1.8557 -3.2268
22144SOL     OW69929   7.854   8.782   3.211  0.0725  0.7743  0.2570
22144SOL    HW169930   7.763   8.763   3.236 -0.5426  2.5406 -0.4713
22144SOL    HW269931   7.855   8.766   3.116  0.1447  1.9876  0.0348
22145SOL     OW69932   3.981   2.357   9.871  0.2906  0.4181 -0.1634
22145SOL    HW169933   3.945   2.402   9.948  0.2272 -0.0514  0.0893
22145SOL    HW269934   4.059   2.312   9.904  0.3408  0.3260 -0.4039
22146SOL     OW69935   3.168   6.060   8.714 -0.5563  0.2828 -0.2446
22146SOL    HW169936   3.181   6.124   8.644 -1.3137  1.2130  0.4269
22146SOL    HW269937   3.242   6.074   8.773 -1.0920  1.0897  0.2739
22147SOL     OW69938   6.238   4.895   8.091  0.4019 -0.0597  0.5633
22147SOL    HW169939   6.242   4.975   8.142  1.1036 -0.1921  0.7223
22147SOL    HW269940   6.304   4.906   8.023 -1.4042  0.6829 -1.1763
22148SOL     OW69941  10.146   7.301   4.765  0.4083 -0.3181 -0.5055
22148SOL    HW169942  10.151   7.395   4.746  1.2057 -0.0891  0.6980
22148SOL    HW269943  10.148   7.296   4.861  1.7848 -1.6158 -0.5592
22149SOL     OW69944  10.890   6.567   1.566  0.4796 -0.1276 -0.0740
22149SOL    HW169945  10.863   6.496   1.623  1.4863  1.4292  2.5075
22149SOL    HW269946  10.808   6.611   1.543 -0.1084 -1.8090 -1.3810
22150SOL     OW69947   2.960   8.489   7.061 -0.0253  0.0661  0.4245
22150SOL    HW169948   2.887   8.437   7.027 -0.6604  0.2262  1.5195
22150SOL    HW269949   3.038   8.441   7.035 -0.5327 -0.3535 -0.3499
22151SOL     OW69950   1.964   2.393   9.206  0.0181  0.6013 -0.2398
22151SOL    HW169951   1.870   2.377   9.210  0.2937 -0.7693  2.1439
22151SOL    HW269952   2.003   2.306   9.203  1.2394  1.1585 -1.6646
22152SOL     OW69953   1.954   8.203  10.126  0.1244 -0.5840  0.0236
22152SOL    HW169954   1.963   8.234  10.036  0.6747 -1.5653 -0.2846
22152SOL    HW269955   1.920   8.278  10.175 -0.2011 -0.0476 -1.0026
22153SOL     OW69956   3.727   8.004   8.864 -0.1011 -0.1541 -0.1527
22153SOL    HW169957   3.697   8.021   8.774  1.1096  0.6420 -0.4246
22153SOL    HW269958   3.758   7.914   8.861 -0.5791 -0.3190 -0.3820
22154SOL     OW69959   2.271   7.947   2.519 -0.2130  0.0628  0.0485
22154SOL    HW169960   2.265   7.879   2.452 -1.3112 -0.2718  0.4665
22154SOL    HW269961   2.290   7.899   2.599  1.6463  0.5111 -0.0891
22155SOL     OW69962   1.615   0.634   3.103  0.0692  0.4024 -0.2155
22155SOL    HW169963   1.697   0.585   3.096  0.2238  0.5179  0.6352
22155SOL    HW269964   1.547   0.568   3.095  0.2068  0.4209 -1.8712
22156SOL     OW69965   5.039   0.884   3.180 -0.0005  0.9190 -0.3303
22156SOL    HW169966   4.980   0.958   3.188  0.8689  1.5078  1.0733
22156SOL    HW269967   5.123   0.916   3.212  0.2610 -0.8108  0.8881
22157SOL     OW69968   4.840   0.397   3.206  0.9038  0.4495 -0.3039
22157SOL    HW169969   4.833   0.422   3.114  1.5533  1.5189 -0.0780
22157SOL    HW269970   4.833   0.479   3.255 -1.3048 -0.2885  0.7376
22158SOL     OW69971   9.041  10.610   2.515  0.1457 -0.3769  0.2867
22158SOL    HW169972   8.969  10.603   2.453 -0.2548  0.4846  0.6357
22158SOL    HW269973   9.105  10.667   2.472  0.0495 -0.1116  0.4887
22159SOL     OW69974   6.385   8.865   7.499  0.3252  0.3120  0.1384
22159SOL    HW169975   6.418   8.822   7.578 -0.6733  2.0383  1.5693
22159SOL    HW269976   6.290   8.871   7.514 -0.0469 -0.3113 -1.7235
22160SOL     OW69977   5.315   2.546   8.133  0.7459  0.2327  0.0360
22160SOL    HW169978   5.327   2.636   8.102 -0.5424  0.5658  0.4173
22160SOL    HW269979   5.317   2.493   8.054  2.4565  0.4573 -0.1108
22161SOL     OW69980   7.910   7.226   1.764 -0.2542  0.2872  0.2465
22161SOL    HW169981   7.886   7.291   1.830 -0.1120  1.1242 -0.5119
22161SOL    HW269982   7.838   7.226   1.702  0.9954  1.8676 -1.3299
22162SOL     OW69983   6.646   4.498   1.128 -0.2961  0.3830  0.1870
22162SOL    HW169984   6.707   4.511   1.055  2.0979 -0.3524  1.9604
22162SOL    HW269985   6.639   4.584   1.169  1.0506  0.0927  1.0671
22163SOL     OW69986   7.566   1.886   8.531  0.0005 -0.4414 -0.2961
22163SOL    HW169987   7.563   1.813   8.593  2.8366 -0.6094 -0.2485
22163SOL    HW269988   7.574   1.845   8.445 -0.2534 -0.1868 -0.4432
22164SOL     OW69989   7.021   6.645   4.232  0.5059  0.1286  0.5230
22164SOL    HW169990   7.096   6.668   4.178 -0.3090 -0.1250 -0.7463
22164SOL    HW269991   7.055   6.581   4.295  1.5539  0.7457  0.6009
22165SOL     OW69992   8.619   8.965   6.930  0.5794 -0.0311 -0.2074
22165SOL    HW169993   8.645   8.893   6.987 -0.8255 -0.8705 -0.5924
22165SOL    HW269994   8.611   8.926   6.843  0.1443  0.6724 -0.4951
22166SOL     OW69995   9.810   6.817   3.435  0.0987 -0.4370  0.1099
22166SOL    HW169996   9.755   6.794   3.509  0.1293 -0.8172  0.0192
22166SOL    HW269997   9.888   6.761   3.445 -0.8628 -2.1657 -1.4229
22167SOL     OW69998   4.300   8.293   3.640  0.0739  0.0693  0.0793
22167SOL    HW169999   4.387   8.299   3.680  0.1127 -1.3273  0.2535
22167SOL    HW270000   4.251   8.365   3.678  0.6096 -0.2259  1.3989
22168SOL     OW70001  10.263   7.897   3.541  0.3163 -0.4032  0.4502
22168SOL    HW170002  10.224   7.876   3.626 -0.6288  0.6651  0.3079
22168SOL    HW270003  10.235   7.826   3.483 -0.5635 -0.2017  0.6133
22169SOL     OW70004   8.004   1.898   3.570 -0.3771 -0.6631  0.2261
22169SOL    HW170005   7.925   1.920   3.521 -0.4994 -1.7774 -0.1061
22169SOL    HW270006   8.066   1.869   3.503  0.0719 -0.4849  0.5584
22170SOL     OW70007   4.947   2.718   0.593  0.1730 -0.1725  0.8030
22170SOL    HW170008   4.888   2.782   0.554  1.4607  1.5665  1.5626
22170SOL    HW270009   4.890   2.656   0.637 -1.1277  1.6455  1.8217
22171SOL     OW70010   7.860   1.674   7.505  0.2852 -0.0953  0.0421
22171SOL    HW170011   7.917   1.727   7.560 -0.3840  1.5476 -0.7784
22171SOL    HW270012   7.773   1.713   7.515 -0.2029 -0.9367 -0.7268
22172SOL     OW70013   8.063   1.823   7.823 -0.0330 -0.0289 -0.0159
22172SOL    HW170014   7.972   1.820   7.796 -0.4857  0.8714  1.3019
22172SOL    HW270015   8.064   1.883   7.897  1.4405 -0.9066  0.7259
22173SOL     OW70016   8.142   6.757   3.964 -0.1436  0.4108  0.0960
22173SOL    HW170017   8.053   6.775   3.993  0.1117  0.0048  1.2037
22173SOL    HW270018   8.161   6.824   3.898 -1.0556  0.8477  0.2710
22174SOL     OW70019   4.188   7.485   0.525  0.4661 -0.6111 -0.2770
22174SOL    HW170020   4.243   7.466   0.601 -0.4058 -0.5507  0.3799
22174SOL    HW270021   4.243   7.542   0.470  0.3608  1.1421  1.3293
22175SOL     OW70022   7.572   6.265   0.056  0.4615 -0.5290 -0.0032
22175SOL    HW170023   7.648   6.323   0.048  0.2770 -0.4584 -1.5248
22175SOL    HW270024   7.518   6.306   0.124  1.3627 -0.1089  0.4803
22176SOL     OW70025   2.506   9.511   7.903  0.2245  0.4452  0.2611
22176SOL    HW170026   2.567   9.531   7.832  0.6169  0.3919  0.5771
22176SOL    HW270027   2.547   9.438   7.950  1.0802  1.8774  1.8431
22177SOL     OW70028   5.128  10.198   3.020 -0.1110 -0.3605 -0.5243
22177SOL    HW170029   5.139  10.293   3.016  0.9605 -0.3799  1.0078
22177SOL    HW270030   5.065  10.184   3.090  0.5957 -0.8151  0.0297
22178SOL     OW70031   7.504   2.384   1.288  0.3948 -0.5620  0.3266
22178SOL    HW170032   7.599   2.392   1.273  0.3002  1.1229  0.4253
22178SOL    HW270033   7.469   2.355   1.204  0.9419 -0.6757  0.1314
22179SOL     OW70034   6.673   9.131   9.327  0.5772 -0.3333 -0.3825
22179SOL    HW170035   6.749   9.168   9.282  0.2309 -0.7856 -1.3623
22179SOL    HW270036   6.604   9.197   9.315  0.8851  0.2211  0.7758
22180SOL     OW70037   2.548   7.342  10.267 -0.4996 -0.3364 -0.3195
22180SOL    HW170038   2.550   7.361  10.173  1.5466  1.8668  0.0665
22180SOL    HW270039   2.640   7.333  10.292 -1.0437 -2.4831  1.2466
22181SOL     OW70040  10.228   1.144   2.208 -0.5618  0.3595  0.3716
22181SOL    HW170041  10.317   1.179   2.217 -0.7761  0.5940  1.9421
22181SOL    HW270042  10.240   1.052   2.186  0.1311  0.0606  1.8370
22182SOL     OW70043   7.734   9.417   8.392  0.4324  0.3975 -0.6577
22182SOL    HW170044   7.664   9.356   8.368  0.8088 -0.0870 -0.5535
22182SOL    HW270045   7.815   9.367   8.377  0.7120  0.4263  0.6575
22183SOL     OW70046   7.680   1.746   2.494  0.2691 -0.7787  0.3933
22183SOL    HW170047   7.710   1.664   2.456  3.2543  0.7968 -0.9636
22183SOL    HW270048   7.667   1.804   2.419 -0.4575  0.4096  1.3976
22184SOL     OW70049   1.083   6.272   6.990  0.0846  0.0926 -0.6023
22184SOL    HW170050   1.002   6.323   6.983 -0.6006 -1.1428 -1.9666
22184SOL    HW270051   1.055   6.181   6.986  1.3450 -0.4434  1.2612
22185SOL     OW70052   2.466   1.934  10.750  0.7691 -0.1576 -0.2013
22185SOL    HW170053   2.465   2.018  10.795  0.0687 -0.1215 -0.2718
22185SOL    HW270054   2.507   1.874  10.812 -0.1632 -0.1024  0.4868
22186SOL     OW70055   8.582   9.328   3.531  0.1210  0.1622 -0.2737
22186SOL    HW170056   8.577   9.374   3.447 -1.0384 -0.5329 -0.6090
22186SOL    HW270057   8.617   9.393   3.592 -1.1436  1.4107 -0.8115
22187SOL     OW70058   7.673   0.279   9.342  0.1962  0.0257 -0.1868
22187SOL    HW170059   7.657   0.293   9.435 -0.0893  0.2224 -0.2659
22187SOL    HW270060   7.654   0.363   9.301 -0.2744 -0.2246 -0.4959
22188SOL     OW70061   5.103   1.067   6.594 -0.2738 -0.2390 -0.1057
22188SOL    HW170062   5.157   1.127   6.646 -0.1250 -1.2289  0.9213
22188SOL    HW270063   5.165   1.025   6.534 -0.1869 -0.1622 -0.0695
22189SOL     OW70064   3.710   6.685   8.397 -0.5114 -0.4754 -0.0839
22189SOL    HW170065   3.723   6.681   8.492 -0.5762 -3.9136 -0.1128
22189SOL    HW270066   3.737   6.600   8.365  0.8247  1.0227 -3.4160
22190SOL     OW70067   5.053   4.037   0.066 -0.1967 -0.2464  0.2592
22190SOL    HW170068   4.968   3.995   0.083  1.0690 -2.9680  0.2841
22190SOL    HW270069   5.118   3.970   0.084  2.0481  1.8363  0.5202
22191SOL     OW70070   4.579  10.169   4.375  0.2580 -0.1202 -0.4974
22191SOL    HW170071   4.625  10.138   4.452  1.8794  0.2782 -1.2466
22191SOL    HW270072   4.487  10.148   4.390  0.6796 -0.9096  1.0893
22192SOL     OW70073   4.858   0.826  10.078 -0.5982  0.2017 -0.2395
22192SOL    HW170074   4.921   0.817  10.007 -1.1830 -0.3784 -0.6953
22192SOL    HW270075   4.805   0.747  10.073  0.5956 -0.8525  2.0909
22193SOL     OW70076   3.841   3.592   9.542 -0.2086  0.5999  0.4529
22193SOL    HW170077   3.774   3.640   9.591 -1.7026 -1.1115  0.1750
22193SOL    HW270078   3.799   3.566   9.461  0.6587 -0.8308  0.4200
22194SOL     OW70079   5.581   2.174  10.183  0.3426 -0.6870 -0.0222
22194SOL    HW170080   5.530   2.188  10.263 -0.4177 -0.8193 -0.4707
22194SOL    HW270081   5.613   2.084  10.190 -0.0896 -0.8485 -0.0594
22195SOL     OW70082   1.052   8.085  10.269  0.3367 -0.5595  0.2877
22195SOL    HW170083   1.043   8.035  10.350  1.3271 -0.1229  0.6826
22195SOL    HW270084   1.087   8.022  10.206  1.8741 -0.3497  0.8642
22196SOL     OW70085   3.279   2.479  10.487  0.0559 -0.1571 -0.1135
22196SOL    HW170086   3.349   2.499  10.425  1.5998 -0.3251  1.4896
22196SOL    HW270087   3.253   2.564  10.522 -0.6208 -0.0860 -0.7842
22197SOL     OW70088   6.471  10.363   4.053 -0.0590  0.2776 -0.6658
22197SOL    HW170089   6.446  10.271   4.048  0.4697  0.1375 -0.7704
22197SOL    HW270090   6.512  10.381   3.968  1.9404 -0.0189  0.1864
22198SOL     OW70091   0.351   8.814   3.544  0.1035  0.2389 -0.5795
22198SOL    HW170092   0.322   8.842   3.631 -0.5861 -1.1221 -0.3351
22198SOL    HW270093   0.284   8.847   3.484  0.1045  0.4124 -0.4854
22199SOL     OW70094   8.363   5.611   6.033 -0.0924  0.1317 -0.2191
22199SOL    HW170095   8.356   5.590   6.126 -2.2217  0.1025 -0.3543
22199SOL    HW270096   8.313   5.544   5.988 -0.9483  1.3758 -1.2083
22200SOL     OW70097   4.560   3.781   1.377 -0.5253 -0.0652  0.4889
22200SOL    HW170098   4.540   3.702   1.328  1.1883 -0.7331  0.8084
22200SOL    HW270099   4.583   3.750   1.465  4.4285  0.1798 -0.4190
22201SOL     OW70100  10.254   0.549   5.023 -0.1508  0.2925 -0.3615
22201SOL    HW170101  10.319   0.555   5.092  2.3487 -1.0874 -2.4119
22201SOL    HW270102  10.268   0.627   4.970 -1.0392  0.6020 -0.1598
22202SOL     OW70103   4.017   4.089   7.287 -0.6185  0.1167 -0.3094
22202SOL    HW170104   4.093   4.103   7.343 -1.1644 -1.7615  1.0107
22202SOL    HW270105   3.948   4.141   7.327 -0.4182  0.6595 -0.6550
22203SOL     OW70106  10.004   0.389   6.198 -0.0005  0.2272 -0.1061
22203SOL    HW170107   9.985   0.353   6.284  3.1618 -1.4280  0.0489
22203SOL    HW270108   9.925   0.372   6.147 -0.8087 -1.6419  1.6258
22204SOL     OW70109   6.633   3.827   9.635 -0.1752  0.1052  0.0876
22204SOL    HW170110   6.638   3.782   9.551  1.5620  0.9393 -0.3162
22204SOL    HW270111   6.552   3.879   9.629  1.1382  2.1562 -2.2092
22205SOL     OW70112   0.482   0.581  10.033 -0.3508  0.5683 -0.2875
22205SOL    HW170113   0.391   0.550  10.030  0.4108 -1.8473 -0.5537
22205SOL    HW270114   0.481   0.661   9.980 -2.1010 -0.0518 -1.3025
22206SOL     OW70115   9.565   9.911  10.752  0.6610  0.1822 -0.1733
22206SOL    HW170116   9.573   9.876  10.841  0.0960  3.8171  1.4967
22206SOL    HW270117   9.651   9.894  10.712  1.6768  0.2367  1.8369
22207SOL     OW70118   7.058   2.250   1.269  0.2402 -0.4110  0.8066
22207SOL    HW170119   6.983   2.240   1.210  0.6668 -0.1616  0.2141
22207SOL    HW270120   7.086   2.340   1.256  1.0244 -0.6881  0.5674
22208SOL     OW70121   0.080   3.066   3.269 -0.4412  0.2107 -0.1997
22208SOL    HW170122   0.114   3.120   3.340 -0.3774 -0.5174  0.3415
22208SOL    HW270123   0.147   3.069   3.201 -0.3617  0.6686 -0.0991
22209SOL     OW70124   5.244   2.613   1.584  0.3749 -0.3213  0.4552
22209SOL    HW170125   5.177   2.638   1.520  2.6087  2.0721 -1.1004
22209SOL    HW270126   5.295   2.545   1.540  1.8335  1.2348 -0.3515
22210SOL     OW70127   8.831   1.841   0.482 -0.3157 -0.1665  0.0434
22210SOL    HW170128   8.844   1.889   0.400  0.7565 -0.5088  0.0032
22210SOL    HW270129   8.761   1.779   0.463 -1.7815  1.3861  0.1137
22211SOL     OW70130   3.985  10.131   9.679 -0.9155 -0.0259 -0.2960
22211SOL    HW170131   3.900  10.125   9.723 -1.4189 -2.6968 -1.4464
22211SOL    HW270132   4.001  10.043   9.644  1.0182  1.0690 -2.5073
22212SOL     OW70133   5.075  10.857   8.776 -0.2241  0.1098  0.0329
22212SOL    HW170134   5.015  10.803   8.724 -0.1265  1.2348 -1.3111
22212SOL    HW270135   5.097  10.930   8.718 -0.1188  1.4359  1.6795
22213SOL     OW70136   5.988   8.189   0.534 -0.7046  0.2133  0.1920
22213SOL    HW170137   6.081   8.167   0.536 -0.7092  0.2636  1.4903
22213SOL    HW270138   5.947   8.128   0.596 -1.6566 -0.2807 -0.8735
22214SOL     OW70139   7.654   4.369   6.549  0.2975  0.1635 -0.6709
22214SOL    HW170140   7.672   4.461   6.572  0.1785  0.4390 -1.6447
22214SOL    HW270141   7.644   4.370   6.454 -1.8250 -0.4888 -0.4957
22215SOL     OW70142   2.104   8.352   4.342  0.4723 -0.1619 -0.1393
22215SOL    HW170143   2.107   8.363   4.437 -1.7845 -1.1555  0.1096
22215SOL    HW270144   2.153   8.427   4.307  0.3092  0.8785  1.7701
22216SOL     OW70145   1.136   4.471   2.572  0.0226  0.1457 -0.1236
22216SOL    HW170146   1.050   4.435   2.595  0.7651 -1.9633 -0.4789
22216SOL    HW270147   1.119   4.527   2.496 -1.1635  0.5938  0.4348
22217SOL     OW70148   8.673   7.909  10.245  0.0289  0.0951  0.5922
22217SOL    HW170149   8.638   7.823  10.265  0.9505 -0.6828 -0.9490
22217SOL    HW270150   8.768   7.897  10.245  0.1622  0.2931 -2.6065
22218SOL     OW70151   3.632   5.862   8.242 -0.1530  0.4603  0.3430
22218SOL    HW170152   3.562   5.924   8.264  0.5992  0.6058  2.4753
22218SOL    HW270153   3.708   5.892   8.292  0.2498 -2.1553  1.4487
22219SOL     OW70154   1.518  10.112   8.832 -0.3508 -0.3756  0.4591
22219SOL    HW170155   1.614  10.105   8.840 -0.3657 -1.1875  0.0484
22219SOL    HW270156   1.503  10.202   8.803  0.2324  0.0115  1.3421
22220SOL     OW70157   9.672   4.817   7.304  0.3218  0.1769  0.2418
22220SOL    HW170158   9.691   4.903   7.266  0.0908  0.1006 -0.0477
22220SOL    HW270159   9.706   4.822   7.393 -1.6818  1.3630  1.0129
22221SOL     OW70160   5.056   2.830   4.182  0.0136 -0.1333 -0.6129
22221SOL    HW170161   5.072   2.757   4.242  2.7929 -0.6502 -1.8235
22221SOL    HW270162   4.998   2.794   4.115 -1.6615 -0.0597  0.7125
22222SOL     OW70163   4.402   6.599   2.660 -0.7108 -0.2716 -0.0218
22222SOL    HW170164   4.476   6.657   2.674 -0.6144 -0.3389 -0.2531
22222SOL    HW270165   4.414   6.529   2.725 -1.0034  0.1309  0.4791
22223SOL     OW70166  10.015   6.286   1.437 -0.0823 -0.4235 -0.0776
22223SOL    HW170167  10.011   6.362   1.494  0.6309 -0.2857 -0.2111
22223SOL    HW270168  10.106   6.281   1.409 -0.6611  0.2787 -2.2607
22224SOL     OW70169   5.949   4.846   0.043 -0.6083 -0.2181  0.4557
22224SOL    HW170170   5.963   4.829  -0.050 -0.6713  0.2362  0.3648
22224SOL    HW270171   5.951   4.759   0.083 -2.1276 -0.5870 -0.1836
22225SOL     OW70172   9.263   6.685   1.927  0.5741  0.2973 -0.0952
22225SOL    HW170173   9.213   6.620   1.876  1.2005 -0.0048 -0.3488
22225SOL    HW270174   9.201   6.718   1.992 -0.0373  0.1551 -0.5901
22226SOL     OW70175   6.520   3.128   3.335 -0.2935  0.0072 -0.7048
22226SOL    HW170176   6.606   3.087   3.324  0.1281  1.4101 -3.5919
22226SOL    HW270177   6.518   3.156   3.426  2.0744 -0.5614 -0.4125
22227SOL     OW70178   6.767   2.538   0.417  0.6122  0.4756  0.0753
22227SOL    HW170179   6.813   2.613   0.454  1.5397  0.5442 -1.1504
22227SOL    HW270180   6.829   2.465   0.427  0.2057  0.1362  0.1572
22228SOL     OW70181  10.265   7.131   5.932  0.1803 -0.4978 -0.3080
22228SOL    HW170182  10.211   7.182   5.992 -0.8423 -0.6310 -1.0938
22228SOL    HW270183  10.337   7.099   5.987 -0.7573 -0.6754  0.8646
22229SOL     OW70184   3.050   1.258   0.692  0.2587  0.1901 -0.1140
22229SOL    HW170185   2.963   1.298   0.689 -0.6919 -1.5844  1.5937
22229SOL    HW270186   3.093   1.302   0.765 -0.0430 -0.4992  0.4799
22230SOL     OW70187   4.504   8.752   1.958 -0.1451  0.8477 -0.4860
22230SOL    HW170188   4.513   8.693   2.033  1.2405  0.9842 -0.5176
22230SOL    HW270189   4.468   8.833   1.995  0.0858  0.7506 -0.0433
22231SOL     OW70190   0.147   9.542  10.409  0.0134 -0.4687 -0.3932
22231SOL    HW170191   0.208   9.484  10.455 -0.3536  0.0476  0.7894
22231SOL    HW270192   0.074   9.486  10.386  1.3946 -1.3924 -2.9305
22232SOL     OW70193   5.229   4.639   4.979 -0.2167  0.6665 -0.6251
22232SOL    HW170194   5.215   4.570   5.043 -0.0617  1.4881  0.3152
22232SOL    HW270195   5.163   4.705   4.999 -0.2052  0.9097 -1.3528
22233SOL     OW70196   3.210  10.417   4.038 -0.1502 -0.0917 -0.0879
22233SOL    HW170197   3.251  10.402   4.123  0.0486  0.4531 -0.0809
22233SOL    HW270198   3.280  10.403   3.975 -0.3462 -0.6910 -0.1807
22234SOL     OW70199   9.191   1.019   5.849  0.6511  0.3571 -0.0740
22234SOL    HW170200   9.101   1.008   5.817  0.9997 -1.7359 -0.4212
22234SOL    HW270201   9.246   0.986   5.779  1.5844 -0.5887  1.0663
22235SOL     OW70202   4.876   1.215   6.653 -0.0298 -0.3711 -0.1794
22235SOL    HW170203   4.940   1.167   6.602 -0.6457 -0.4898 -0.8584
22235SOL    HW270204   4.900   1.307   6.643 -3.2002  0.2759 -5.3381
22236SOL     OW70205   6.097   8.192   7.751  0.5097  0.2180  0.1063
22236SOL    HW170206   6.085   8.106   7.790  0.6869 -1.1007 -2.5396
22236SOL    HW270207   6.057   8.253   7.813  0.6888 -1.7022  2.2143
22237SOL     OW70208   6.469   5.850   3.618 -0.0795  0.3732 -0.2121
22237SOL    HW170209   6.434   5.840   3.706 -0.3007  1.5152 -0.1564
22237SOL    HW270210   6.564   5.856   3.630 -0.0199 -0.6159 -0.1649
22238SOL     OW70211   7.232   7.499   2.599 -0.1160  0.0072 -0.3001
22238SOL    HW170212   7.286   7.463   2.669 -0.6694 -0.8293 -0.2792
22238SOL    HW270213   7.171   7.428   2.577 -0.9325  0.7767 -0.6037
22239SOL     OW70214   3.050   7.167   4.371 -0.0892 -0.1990 -0.0257
22239SOL    HW170215   3.131   7.144   4.325  0.3051  0.4879  0.3097
22239SOL    HW270216   3.015   7.083   4.400 -0.2367 -0.6423 -1.3826
22240SOL     OW70217   8.122   5.274   0.140 -0.1700 -0.0299 -0.6342
22240SOL    HW170218   8.200   5.258   0.086  0.4220 -0.6300  0.3679
22240SOL    HW270219   8.156   5.283   0.229 -1.1128  1.1493 -0.3798
22241SOL     OW70220   9.661   4.323   9.392 -0.5073  0.1949  0.2042
22241SOL    HW170221   9.596   4.256   9.415  0.5298 -1.1842 -0.7308
22241SOL    HW270222   9.617   4.378   9.327 -0.6426 -0.9495 -0.6986
22242SOL     OW70223   5.485   9.424   8.779  0.6536 -0.5367 -0.3541
22242SOL    HW170224   5.496   9.333   8.750 -0.4317 -0.4706 -1.0428
22242SOL    HW270225   5.393   9.443   8.763  1.4570  1.6788 -3.1834
22243SOL     OW70226   7.526   9.366   0.846 -0.4648 -0.1551  0.2046
22243SOL    HW170227   7.466   9.413   0.789 -0.3942 -0.4440 -0.1124
22243SOL    HW270228   7.470   9.307   0.896 -0.4611 -0.3215  0.0119
22244SOL     OW70229   1.626   9.149   0.204  0.4306 -0.0974 -0.7128
22244SOL    HW170230   1.643   9.056   0.190 -0.0177 -0.0455 -1.7721
22244SOL    HW270231   1.554   9.169   0.144 -0.0948  0.7324  0.1677
22245SOL     OW70232   7.612   5.449   3.872 -0.1471  0.0306 -0.0025
22245SOL    HW170233   7.701   5.420   3.852  0.2082  0.5825  0.7412
22245SOL    HW270234   7.559   5.411   3.802  0.8785  0.9330 -1.3350
22246SOL     OW70235   4.071  10.096   3.963 -0.0516  0.1448  0.2887
22246SOL    HW170236   4.155  10.100   3.918 -0.1532  0.3493  0.1167
22246SOL    HW270237   4.061  10.004   3.987 -0.1584 -0.0318 -0.4158
22247SOL     OW70238   2.120   3.483   8.175  0.5912 -0.1930  0.0767
22247SOL    HW170239   2.195   3.520   8.222  0.0057  0.6069  0.3951
22247SOL    HW270240   2.155   3.459   8.090  0.8800  1.6605 -0.3673
22248SOL     OW70241   5.380   0.251   3.839  0.2524  0.2804 -0.3254
22248SOL    HW170242   5.381   0.344   3.864  0.0215  0.7776 -1.9832
22248SOL    HW270243   5.433   0.207   3.905  0.5562  1.6318  0.3674
22249SOL     OW70244   5.262   2.306   8.415 -0.0813 -0.6591  0.2984
22249SOL    HW170245   5.294   2.365   8.483  0.0359  0.8793 -1.0195
22249SOL    HW270246   5.342   2.273   8.372 -0.1697 -0.4943  0.0023
22250SOL     OW70247   1.920   4.011   1.311 -0.2069 -0.1344 -0.2445
22250SOL    HW170248   1.970   4.058   1.244  1.1033 -1.9032 -0.5689
22250SOL    HW270249   1.923   4.068   1.388  1.4284  0.2651 -0.5797
22251SOL     OW70250   6.105   9.783   6.468 -0.1178  0.0118 -0.3118
22251SOL    HW170251   6.134   9.705   6.419 -1.4783 -0.3104 -0.6371
22251SOL    HW270252   6.015   9.798   6.439 -0.5170  0.5945  1.1377
22252SOL     OW70253   7.843   0.033   9.621  0.0537  0.4543 -0.2105
22252SOL    HW170254   7.800   0.116   9.601  0.4888  0.8058  0.2839
22252SOL    HW270255   7.859  -0.008   9.536  2.6236  2.2777 -0.6952
22253SOL     OW70256   5.352   2.192   2.150  0.1673 -0.4670  0.0386
22253SOL    HW170257   5.271   2.230   2.181 -0.3491 -1.7949  0.3700
22253SOL    HW270258   5.338   2.097   2.153  1.1516 -0.7081 -1.4152
22254SOL     OW70259  10.945   8.656   6.920 -0.0090 -0.3218 -0.1218
22254SOL    HW170260  10.968   8.623   7.007 -1.6218 -0.8040  0.1540
22254SOL    HW270261  10.927   8.749   6.933 -3.9105 -1.0584  0.9209
22255SOL     OW70262   4.406   1.765   5.504 -0.3661 -0.4596  0.5002
22255SOL    HW170263   4.338   1.770   5.570  0.6012 -0.3881  1.5251
22255SOL    HW270264   4.391   1.681   5.460 -0.3265 -1.0696  1.6131
22256SOL     OW70265   0.819   8.587   5.060 -0.8545 -0.1846  0.0277
22256SOL    HW170266   0.866   8.530   4.999  1.1305 -0.0935  1.3489
22256SOL    HW270267   0.861   8.672   5.049 -1.5984  0.2292  0.3470
22257SOL     OW70268   1.244   8.701   7.804  0.4440 -0.6355  0.0138
22257SOL    HW170269   1.334   8.669   7.802  0.9110  0.6292 -0.0764
22257SOL    HW270270   1.237   8.746   7.889  0.0746 -0.2630 -0.2108
22258SOL     OW70271   4.621   8.871  10.015 -0.6713  0.4457 -0.5297
22258SOL    HW170272   4.595   8.915  10.096 -1.1029  0.1004 -0.4764
22258SOL    HW270273   4.579   8.922   9.946 -2.6805 -0.8697 -0.3813
22259SOL     OW70274   0.261   4.351   9.225 -0.1545  0.3792 -0.1822
22259SOL    HW170275   0.300   4.438   9.222  2.3688 -0.5214  1.9652
22259SOL    HW270276   0.318   4.298   9.169  0.2493 -0.4603  0.9849
22260SOL     OW70277   7.118   6.666   4.873 -0.0802 -0.4544  0.0917
22260SOL    HW170278   7.199   6.615   4.870  0.8307  0.9355 -0.1060
22260SOL    HW270279   7.059   6.615   4.928 -0.0400 -2.8297 -1.8841
22261SOL     OW70280   1.661   7.212   1.833 -0.4472 -0.1133  0.2117
22261SOL    HW170281   1.753   7.191   1.850 -0.9503 -1.3611  1.6230
22261SOL    HW270282   1.663   7.269   1.757  1.5942  0.9244  0.9616
22262SOL     OW70283  10.157   1.924   3.727 -0.1789  0.3253  0.1764
22262SOL    HW170284  10.234   1.982   3.732 -0.7119  1.0252  0.4429
22262SOL    HW270285  10.100   1.954   3.797 -0.6458 -0.2798  0.0642
22263SOL     OW70286   8.328   9.698   0.999 -0.4021 -0.1375  0.0721
22263SOL    HW170287   8.366   9.632   1.058 -1.4282 -0.5722  0.2653
22263SOL    HW270288   8.272   9.751   1.056 -0.0134  0.5545 -0.1921
22264SOL     OW70289   6.211   3.870   8.277 -0.0007  0.1437  0.3513
22264SOL    HW170290   6.221   3.874   8.373 -1.4784 -1.3275  0.6160
22264SOL    HW270291   6.282   3.812   8.249  0.3791  0.4992  0.5705
22265SOL     OW70292   7.011   7.593   5.576  0.0043  0.8003 -0.1737
22265SOL    HW170293   7.085   7.587   5.637  0.2581 -0.9097 -0.5829
22265SOL    HW270294   7.005   7.686   5.555  0.3288  1.3534  1.9170
22266SOL     OW70295   8.742   3.441   8.618  0.4219 -0.3621  0.7386
22266SOL    HW170296   8.770   3.518   8.667 -0.7996 -0.1937  1.2007
22266SOL    HW270297   8.818   3.419   8.564 -0.2470  3.3204 -2.1599
22267SOL     OW70298  10.584   3.051   0.821  0.0140  0.0161 -0.8158
22267SOL    HW170299  10.504   3.016   0.782  0.4773 -0.8734 -0.9943
22267SOL    HW270300  10.615   3.116   0.757 -1.8401  2.2189  0.3638
22268SOL     OW70301   8.041   1.432   0.837 -0.3717 -0.2742 -0.4720
22268SOL    HW170302   8.081   1.439   0.924 -0.9646  1.2974 -0.2873
22268SOL    HW270303   8.049   1.340   0.814  2.1013 -0.2855  0.1341
22269SOL     OW70304  10.591   9.752   9.763 -0.2314 -0.5496  0.6386
22269SOL    HW170305  10.542   9.826   9.799 -0.4637 -1.4487  2.2898
22269SOL    HW270306  10.536   9.718   9.693 -1.6556 -1.0766  1.9624
22270SOL     OW70307   6.375   0.144   0.949 -0.2807 -0.3266 -0.5637
22270SOL    HW170308   6.286   0.152   0.985  0.6042  0.0055  1.7282
22270SOL    HW270309   6.402   0.234   0.933 -0.2218 -0.4047 -0.9024
22271SOL     OW70310   6.855   6.656   6.812  0.1416  0.0279  0.1294
22271SOL    HW170311   6.856   6.624   6.722 -1.5071  1.5338 -0.4862
22271SOL    HW270312   6.773   6.704   6.819  0.2831  0.0448  2.4253
22272SOL     OW70313   9.546   6.831   4.501 -0.1678 -0.1928 -0.6950
22272SOL    HW170314   9.520   6.781   4.578 -0.3420  0.0898 -0.5680
22272SOL    HW270315   9.526   6.774   4.427  0.2807 -0.5870 -0.5172
22273SOL     OW70316   9.074   2.587   6.380  0.2437  0.4352 -0.0345
22273SOL    HW170317   9.087   2.515   6.442  0.7952  0.2525 -0.3539
22273SOL    HW270318   9.007   2.642   6.420 -0.7368 -0.6501 -0.1245
22274SOL     OW70319   2.898   8.235   7.181 -0.1743 -0.5658 -0.5544
22274SOL    HW170320   2.976   8.233   7.236 -1.1412  1.2219  1.0281
22274SOL    HW270321   2.825   8.228   7.243 -1.3189  2.1649 -1.4335
22275SOL     OW70322   8.906   5.960   3.579  0.2098 -0.3579  0.1784
22275SOL    HW170323   8.899   6.005   3.495  2.8545 -2.6913 -1.4742
22275SOL    HW270324   8.860   5.877   3.566  1.0345 -0.9422  0.8724
22276SOL     OW70325   5.752   8.038   8.978  0.0905  0.0859 -0.4604
22276SOL    HW170326   5.817   7.968   8.973  1.9751  1.6893  0.2375
22276SOL    HW270327   5.795   8.107   9.028 -2.1653  1.2637 -0.0180
22277SOL     OW70328   4.737   3.229   5.911  0.2724 -0.3707  0.2430
22277SOL    HW170329   4.672   3.256   5.976 -0.1184  0.9717 -0.6609
22277SOL    HW270330   4.693   3.241   5.827  0.7113 -2.2458 -0.2953
22278SOL     OW70331   6.514   1.246   1.223 -0.0705 -0.1475  0.0936
22278SOL    HW170332   6.420   1.226   1.221  0.0255 -0.6022  0.2102
22278SOL    HW270333   6.555   1.169   1.263  0.0846  1.0542  2.4260
22279SOL     OW70334   1.140   4.875   9.584  0.5368  0.4966 -0.3493
22279SOL    HW170335   1.090   4.957   9.580  1.1328  0.8625 -0.3507
22279SOL    HW270336   1.113   4.835   9.666  1.1551  1.2859  0.2467
22280SOL     OW70337   1.264   4.307   5.694  0.2999 -0.0936  0.0770
22280SOL    HW170338   1.216   4.225   5.703 -0.5433  0.4254  0.4038
22280SOL    HW270339   1.224   4.349   5.618 -1.8572  1.6937  2.0611
22281SOL     OW70340   9.161   7.629  10.627 -0.6613 -0.1353 -0.0022
22281SOL    HW170341   9.224   7.613  10.557  1.5058  0.9562  1.6150
22281SOL    HW270342   9.101   7.554  10.622  0.4575 -0.9729 -1.8928
22282SOL     OW70343   4.100  10.171   0.091 -0.6986 -0.2576  0.0460
22282SOL    HW170344   4.088  10.251   0.141  0.5616 -1.0407  1.7242
22282SOL    HW270345   4.166  10.193   0.025  1.0868 -0.3164  1.7070
22283SOL     OW70346   2.809   1.491   3.207 -0.3303 -0.0121  0.3193
22283SOL    HW170347   2.781   1.443   3.129  0.5742 -1.4619  0.8390
22283SOL    HW270348   2.905   1.480   3.209 -0.2830  0.4718  1.3093
22284SOL     OW70349   5.680  10.918   2.979 -0.5002 -0.0048  0.3459
22284SOL    HW170350   5.614  10.966   3.030 -0.6900 -0.0983  0.1906
22284SOL    HW270351   5.658  10.937   2.888 -0.4997 -0.2864  0.2869
22285SOL     OW70352   1.024  10.372  10.576 -0.2082 -0.0983 -0.2186
22285SOL    HW170353   1.067  10.338  10.654 -1.3481 -0.0674  0.4391
22285SOL    HW270354   0.945  10.415  10.608  0.0049  1.1540 -1.2499
22286SOL     OW70355   0.203   6.469   1.553  0.1785  0.0521 -0.1204
22286SOL    HW170356   0.119   6.464   1.599 -0.6398  0.7571 -1.4708
22286SOL    HW270357   0.222   6.563   1.547  1.6029 -0.1152  1.0441
22287SOL     OW70358   3.156   2.727  10.512 -0.0863 -0.0024  0.2625
22287SOL    HW170359   3.082   2.724  10.451 -0.5381 -0.8474  0.8450
22287SOL    HW270360   3.155   2.817  10.545 -0.1548  0.3155 -0.5807
22288SOL     OW70361   4.879  10.319  10.312  0.1772  0.5907 -0.5424
22288SOL    HW170362   4.968  10.308  10.346 -0.8441 -2.3082  1.6524
22288SOL    HW270363   4.837  10.378  10.375 -0.1505 -0.2543  0.0589
22289SOL     OW70364   8.914   1.596   1.498  0.3754  0.0719 -0.2726
22289SOL    HW170365   8.992   1.644   1.468  0.2932  0.3864  0.0001
22289SOL    HW270366   8.894   1.635   1.583  1.4267 -1.7226  0.8594
22290SOL     OW70367   3.366   8.830   9.731 -0.6365  0.4314  0.2200
22290SOL    HW170368   3.277   8.801   9.753 -0.5278 -1.2821 -1.3361
22290SOL    HW270369   3.368   8.830   9.635  0.4616  2.4351  0.1882
22291SOL     OW70370   1.995   7.641   6.632  0.3144  0.3601 -0.2704
22291SOL    HW170371   1.963   7.656   6.721 -1.7376  0.4879 -0.9738
22291SOL    HW270372   2.090   7.655   6.638  0.0460  1.8699  1.5866
22292SOL     OW70373   2.685   0.627   1.946  0.2568 -0.3058 -0.7991
22292SOL    HW170374   2.626   0.702   1.958  1.6506  0.7716 -0.2487
22292SOL    HW270375   2.673   0.574   2.025  0.6083  0.3676 -0.2740
22293SOL     OW70376   3.693  10.392   6.929  0.1800  0.3197  0.3629
22293SOL    HW170377   3.786  10.383   6.912  0.0643 -0.2490  0.0166
22293SOL    HW270378   3.666  10.307   6.963 -0.1037  0.6530  0.9855
22294SOL     OW70379   5.429   5.781   5.452 -0.7646  0.0968 -0.4343
22294SOL    HW170380   5.467   5.835   5.383 -0.6070 -1.1419 -1.3333
22294SOL    HW270381   5.336   5.777   5.430 -0.8588  0.3557 -0.1059
22295SOL     OW70382   1.899   3.799   7.283  0.1191 -0.0969  0.5407
22295SOL    HW170383   1.805   3.813   7.277  0.2146  0.6108  0.5952
22295SOL    HW270384   1.938   3.883   7.259  0.7158 -0.1401  1.3029
22296SOL     OW70385   3.892   7.814   4.417  0.5086 -0.3831 -0.1770
22296SOL    HW170386   3.963   7.772   4.369 -1.5360 -0.7675 -3.1751
22296SOL    HW270387   3.836   7.742   4.445  0.1050  0.0162  0.0665
22297SOL     OW70388  10.116  10.616   6.600 -0.3052  0.4347  0.6190
22297SOL    HW170389  10.137  10.535   6.554  2.9218  0.4514  1.8522
22297SOL    HW270390  10.148  10.685   6.542 -0.2641  0.6725  0.9214
22298SOL     OW70391   3.339   7.541   9.129  0.0396  0.6108 -0.1034
22298SOL    HW170392   3.345   7.621   9.076 -1.8653 -0.0512 -1.4290
22298SOL    HW270393   3.374   7.472   9.072  2.0209  0.4806  1.1649
22299SOL     OW70394   5.324   1.133   1.041  0.1228  0.8112  0.6501
22299SOL    HW170395   5.380   1.058   1.062  0.6513  1.6200  2.2798
22299SOL    HW270396   5.238   1.094   1.023  0.4245 -0.2096  1.3275
22300SOL     OW70397  10.826   4.779   6.831 -0.1830 -0.4803  0.1654
22300SOL    HW170398  10.876   4.806   6.908 -1.1345  1.0782  0.2846
22300SOL    HW270399  10.735   4.800   6.853 -0.6888 -1.6279 -0.7204
22301SOL     OW70400   6.894   9.288   8.069 -0.0582 -0.1180  0.0119
22301SOL    HW170401   6.983   9.259   8.090  0.9578  2.0208 -0.9176
22301SOL    HW270402   6.871   9.349   8.139 -0.4955 -0.1228 -0.1250
22302SOL     OW70403   8.517   0.363  10.156  0.0015  0.0476 -0.4254
22302SOL    HW170404   8.588   0.319  10.202 -0.1975 -0.8879 -0.9985
22302SOL    HW270405   8.452   0.381  10.224  0.9326  1.2784  0.1889
22303SOL     OW70406   7.642   4.926  10.303 -0.3184 -0.2267  0.7075
22303SOL    HW170407   7.683   4.840  10.289 -1.5967 -0.9824  1.4570
22303SOL    HW270408   7.549   4.907  10.312 -0.6616  1.2902  0.6139
22304SOL     OW70409  10.401   8.833  10.560  0.1218 -0.2470 -0.1701
22304SOL    HW170410  10.453   8.765  10.604  0.5281  1.5879  2.4189
22304SOL    HW270411  10.312   8.822  10.596 -0.3880 -0.8737 -1.5663
22305SOL     OW70412   8.024   2.768   5.451 -0.6657  0.3491  0.2067
22305SOL    HW170413   8.116   2.794   5.442 -0.1030 -1.4635  0.3032
22305SOL    HW270414   7.978   2.820   5.385  0.6250  0.4255 -0.6790
22306SOL     OW70415   4.630   8.387   5.474  0.1574 -0.5247 -0.3601
22306SOL    HW170416   4.583   8.417   5.552  2.0544 -1.6724  1.3181
22306SOL    HW270417   4.698   8.452   5.459  0.3695 -0.7787 -0.5116
22307SOL     OW70418   5.970   3.634   9.472 -0.0008  0.1048  0.6696
22307SOL    HW170419   5.909   3.561   9.463  0.2049 -0.2821  2.1196
22307SOL    HW270420   6.016   3.638   9.388 -1.1150 -0.4063  0.0155
22308SOL     OW70421   4.851   6.729  10.693 -0.6137  0.0451  0.3304
22308SOL    HW170422   4.888   6.714  10.606 -1.4620 -1.1842  0.1587
22308SOL    HW270423   4.887   6.814  10.720 -0.6192  0.6265 -1.3695
22309SOL     OW70424   4.076   9.908   9.582 -0.4205 -0.4025  0.1328
22309SOL    HW170425   4.140   9.911   9.511 -0.5831  1.9177 -0.0197
22309SOL    HW270426   4.025   9.829   9.566 -1.3129  0.6793 -3.1677
22310SOL     OW70427   0.222   9.149   0.288  0.5135  0.1190  0.3870
22310SOL    HW170428   0.224   9.055   0.268  1.4004  0.1606  0.2396
22310SOL    HW270429   0.136   9.163   0.328 -0.3945 -0.3947 -1.2732
22311SOL     OW70430   1.309   9.705   4.429  0.3081  0.1043  0.1487
22311SOL    HW170431   1.218   9.699   4.402  0.8427  0.3714 -1.9084
22311SOL    HW270432   1.326   9.799   4.437  1.0725  0.2467 -2.2540
22312SOL     OW70433   6.515   7.520   4.800  0.0629  0.0787 -0.1513
22312SOL    HW170434   6.597   7.476   4.823  0.2060  1.1116  1.4120
22312SOL    HW270435   6.450   7.449   4.795  0.8003 -0.6023 -0.2802
22313SOL     OW70436   5.729   3.894   2.902  0.2809  0.0025  0.1768
22313SOL    HW170437   5.650   3.845   2.923  0.8046 -0.6637  0.6061
22313SOL    HW270438   5.720   3.976   2.952 -0.2345  0.0211  0.0555
22314SOL     OW70439   9.259   6.890   6.617  0.1678 -0.3257 -0.0459
22314SOL    HW170440   9.273   6.848   6.702 -1.7689 -0.3876  0.2945
22314SOL    HW270441   9.233   6.818   6.559  0.1171 -0.0883 -0.3216
22315SOL     OW70442   8.927   2.303   5.974  0.2930  0.6884 -0.3376
22315SOL    HW170443   8.910   2.396   5.991 -0.8992  0.3973  0.2260
22315SOL    HW270444   8.864   2.279   5.906  0.2375  0.1868 -0.1163
22316SOL     OW70445   3.322   5.087   4.297  0.0403 -0.2698 -0.1826
22316SOL    HW170446   3.380   5.159   4.272 -0.2349 -0.1799 -0.5712
22316SOL    HW270447   3.374   5.008   4.286  0.4611 -0.1117  0.5844
22317SOL     OW70448   4.837  10.471   5.758  0.0546  0.3249 -0.2580
22317SOL    HW170449   4.928  10.496   5.742  0.1388 -0.0706 -0.4140
22317SOL    HW270450   4.785  10.539   5.715  0.2425  1.6790  1.5439
22318SOL     OW70451   5.954  10.530   7.593 -0.4425  0.4182 -0.0515
22318SOL    HW170452   5.925  10.600   7.535 -0.4225  2.1251  1.8628
22318SOL    HW270453   6.049  10.529   7.584 -0.5876 -1.2887 -2.0899
22319SOL     OW70454   5.760   9.844   4.318 -0.2267  0.0169  0.2529
22319SOL    HW170455   5.798   9.795   4.391  0.8621 -1.0335 -0.9660
22319SOL    HW270456   5.743   9.777   4.251  0.6165  1.1896 -1.1919
22320SOL     OW70457   0.915  10.755   7.153 -0.5793 -0.2309  0.2074
22320SOL    HW170458   0.929  10.672   7.200  1.5724 -0.0495  0.0143
22320SOL    HW270459   0.866  10.731   7.075 -0.3463 -1.2756  0.3666
22321SOL     OW70460   8.014   4.013   5.108 -0.4070 -0.2447 -0.7672
22321SOL    HW170461   8.010   4.007   5.013 -0.7779  1.2389 -0.8788
22321SOL    HW270462   7.923   4.017   5.136 -0.3360 -1.7506 -0.2343
22322SOL     OW70463   6.166   5.411   7.887 -0.3501 -0.6398  0.4651
22322SOL    HW170464   6.135   5.425   7.797  2.3247  2.7166 -0.1097
22322SOL    HW270465   6.246   5.359   7.877 -0.1539 -0.4318  0.9251
22323SOL     OW70466   2.315   7.223  10.335 -0.4777  0.0059 -0.5312
22323SOL    HW170467   2.280   7.268  10.413 -2.5757  1.0347 -1.9835
22323SOL    HW270468   2.388   7.279  10.307  0.8302 -0.8031  1.0949
22324SOL     OW70469   1.056   3.812   4.698 -0.3057  0.1788  0.1795
22324SOL    HW170470   1.013   3.895   4.719 -0.6556 -0.2535  1.2322
22324SOL    HW270471   1.136   3.838   4.653 -0.1462  1.1164  0.9583
22325SOL     OW70472  10.935   7.780   3.653 -0.6548 -0.2580  0.2197
22325SOL    HW170473  11.019   7.767   3.611 -1.4137 -1.0231 -1.1109
22325SOL    HW270474  10.926   7.875   3.660  0.7096 -0.1728  1.2534
22326SOL     OW70475   0.990   0.622   1.811  0.3794 -0.2026  0.5261
22326SOL    HW170476   0.938   0.594   1.886  0.0833  0.3401  0.5314
22326SOL    HW270477   0.976   0.554   1.745 -0.7525  0.1815  0.3488
22327SOL     OW70478   3.925   6.697   1.548  0.1506 -0.0364 -0.0027
22327SOL    HW170479   3.873   6.628   1.589 -0.5194 -0.2651 -1.2016
22327SOL    HW270480   4.012   6.660   1.539  0.1734 -0.1722  0.7225
22328SOL     OW70481   1.911   5.865   5.812  0.2228  0.4397 -0.4287
22328SOL    HW170482   1.887   5.921   5.885 -0.2646  1.3440 -1.2518
22328SOL    HW270483   2.003   5.844   5.826  0.3265  1.1983  0.0567
22329SOL     OW70484   0.696  10.036   4.421  0.1213  0.2455  0.2375
22329SOL    HW170485   0.666  10.123   4.447  0.6967  0.4890  0.0788
22329SOL    HW270486   0.729  10.046   4.332  1.0021  0.0588  0.5306
22330SOL     OW70487   4.686   0.756   9.708  0.2000  0.6124  0.3308
22330SOL    HW170488   4.658   0.848   9.713  1.4236  1.0634 -0.4605
22330SOL    HW270489   4.781   0.760   9.720  0.0126 -0.8769  3.2986
22331SOL     OW70490   6.861   8.254   3.862  0.0444  0.1068  0.6238
22331SOL    HW170491   6.801   8.193   3.817 -0.0675  1.1649 -0.7270
22331SOL    HW270492   6.919   8.197   3.912 -0.6312 -1.0715  0.1219
22332SOL     OW70493   4.414   4.844  10.463  0.5804 -0.1025 -0.2922
22332SOL    HW170494   4.401   4.768  10.407 -1.2822  0.1967 -0.3208
22332SOL    HW270495   4.504   4.872  10.446  0.2385 -0.3240 -2.7276
22333SOL     OW70496   8.565   9.930  10.497  0.4570  0.3891 -0.2996
22333SOL    HW170497   8.537   9.857  10.442 -0.5550  0.9074 -0.5056
22333SOL    HW270498   8.630   9.976  10.444 -0.5247  0.8989 -1.1250
22334SOL     OW70499   5.874   9.667   0.515 -0.3055  0.5021 -0.2625
22334SOL    HW170500   5.834   9.598   0.569  0.2560  0.0188 -0.4534
22334SOL    HW270501   5.953   9.691   0.563  0.6632 -0.5357 -1.2680
22335SOL     OW70502   0.368   3.847   3.156  0.1408 -0.3661  0.2340
22335SOL    HW170503   0.417   3.766   3.141  1.2487  0.3747 -0.3338
22335SOL    HW270504   0.433   3.907   3.192 -0.5242  0.4463  0.1023
22336SOL     OW70505   6.852   9.181   4.853  0.0579  0.7410 -0.2111
22336SOL    HW170506   6.946   9.164   4.852  0.0871  0.7985 -2.1142
22336SOL    HW270507   6.814   9.104   4.894  0.8264 -0.0548 -0.9542
22337SOL     OW70508   8.453   1.318   0.273 -0.8301 -0.3004 -0.0282
22337SOL    HW170509   8.505   1.368   0.336 -0.9516  0.8238 -0.7898
22337SOL    HW270510   8.517   1.260   0.231 -0.4740 -0.0362  0.1352
22338SOL     OW70511   5.603   1.745   1.846 -0.3814  0.0766  0.2689
22338SOL    HW170512   5.556   1.704   1.773 -0.9017  0.1292  0.5713
22338SOL    HW270513   5.556   1.826   1.862 -0.6550 -0.2286  1.0726
22339SOL     OW70514   9.622   2.204   6.956  0.5732 -0.5447  0.0079
22339SOL    HW170515   9.638   2.263   6.883 -0.6381 -0.5413 -0.2612
22339SOL    HW270516   9.709   2.172   6.979  0.9741 -0.5994 -1.4732
22340SOL     OW70517   0.508   4.383   1.081  0.4493 -0.1696 -0.4928
22340SOL    HW170518   0.490   4.424   0.996  1.5551 -0.8888 -1.0839
22340SOL    HW270519   0.541   4.454   1.135  2.0277 -0.1568 -1.4099
22341SOL     OW70520   3.538   0.416   5.166  0.0250 -0.0326  0.2045
22341SOL    HW170521   3.536   0.342   5.226 -0.4976 -0.2999 -0.1339
22341SOL    HW270522   3.480   0.391   5.094 -0.4899  0.8714  0.2823
22342SOL     OW70523   8.057   5.306   9.093 -0.3186 -0.8327  0.3864
22342SOL    HW170524   8.066   5.212   9.110 -0.7624 -0.3955  3.5534
22342SOL    HW270525   8.080   5.348   9.176 -0.2316  1.8930 -0.9070
22343SOL     OW70526   3.488   0.934   1.774  0.0265 -0.0231 -0.3691
22343SOL    HW170527   3.567   0.892   1.741 -0.3665 -1.2636  0.1875
22343SOL    HW270528   3.465   0.998   1.707  0.1712 -1.3066 -1.7033
22344SOL     OW70529   2.868  10.481   6.108 -0.1044 -0.8028  0.1705
22344SOL    HW170530   2.943  10.454   6.056  0.6837  0.3961  0.6469
22344SOL    HW270531   2.905  10.535   6.178 -1.5090  1.2588 -0.5535
22345SOL     OW70532   6.723   4.590   2.343 -0.1280  0.2202 -0.6476
22345SOL    HW170533   6.741   4.502   2.311  0.7969 -1.1634  3.1664
22345SOL    HW270534   6.640   4.581   2.390  0.7338  0.9231  1.0948
22346SOL     OW70535   3.691   5.392   7.995  0.1282 -0.3626 -0.1769
22346SOL    HW170536   3.610   5.425   7.956  1.1994  0.2058 -2.0391
22346SOL    HW270537   3.682   5.410   8.088 -1.2564  1.0631 -0.5542
22347SOL     OW70538   1.772   5.217   2.254 -0.2742 -0.3803  0.0795
22347SOL    HW170539   1.746   5.132   2.287  2.7309 -0.2020  3.5593
22347SOL    HW270540   1.850   5.199   2.200 -1.9920 -0.0893 -2.7017
22348SOL     OW70541   9.731   2.983   5.719 -0.4276  0.5760 -0.3996
22348SOL    HW170542   9.802   2.942   5.670  0.0622  0.6228  0.2535
22348SOL    HW270543   9.773   3.017   5.798 -1.1403  0.7827 -0.1014
22349SOL     OW70544   8.589   1.377   7.639 -0.2153 -0.2793 -0.3167
22349SOL    HW170545   8.614   1.429   7.563  0.7056 -0.5169 -0.1870
22349SOL    HW270546   8.497   1.356   7.624 -0.2343  0.2584 -1.0215
22350SOL     OW70547   7.518   3.414   3.465  0.1929  0.0206  0.2142
22350SOL    HW170548   7.501   3.352   3.394  3.1447  0.9088 -1.4496
22350SOL    HW270549   7.469   3.492   3.440  1.6646  0.5316 -1.2690
22351SOL     OW70550   6.833  10.959   1.751  0.1379  0.0004 -0.3806
22351SOL    HW170551   6.820  10.898   1.678 -4.0971  0.2662 -0.0991
22351SOL    HW270552   6.908  11.013   1.724  1.6423 -2.7795 -2.3506
22352SOL     OW70553   5.783   7.207   3.218  0.1240  0.0208  0.0651
22352SOL    HW170554   5.862   7.230   3.169 -0.3883  1.8686  0.0141
22352SOL    HW270555   5.813   7.198   3.309  0.2502  1.9570  0.2613
22353SOL     OW70556   8.964   6.406  10.527 -0.1060 -0.4157 -0.4280
22353SOL    HW170557   8.923   6.433  10.445  0.9613 -2.5321 -1.7486
22353SOL    HW270558   8.894   6.361  10.575 -0.6631  0.5961 -0.2612
22354SOL     OW70559   5.270   8.972   1.575  0.1802 -0.6515 -0.1177
22354SOL    HW170560   5.175   8.980   1.582  0.4478  2.1105  2.1590
22354SOL    HW270561   5.292   9.015   1.493 -0.5076 -1.9713 -1.0439
22355SOL     OW70562   5.007   0.376   2.201 -0.3121  0.0362 -0.2332
22355SOL    HW170563   5.076   0.415   2.254 -1.1398  0.2159  0.7659
22355SOL    HW270564   5.012   0.421   2.117  0.2490  0.6221  0.1075
22356SOL     OW70565   0.296   9.871   3.787  0.1468 -0.8011  0.2808
22356SOL    HW170566   0.271   9.875   3.694  1.1579 -0.5210  0.0107
22356SOL    HW270567   0.361   9.800   3.791  0.8981 -0.1168  0.5728
22357SOL     OW70568   3.973   6.336   9.177  0.4621 -0.6631  0.1125
22357SOL    HW170569   4.019   6.415   9.151 -0.4364 -0.7058 -1.7923
22357SOL    HW270570   3.991   6.326   9.270  2.8910  0.2143 -0.2095
22358SOL     OW70571   1.552   8.685   9.203 -0.1329 -0.0997  0.3896
22358SOL    HW170572   1.572   8.592   9.194  1.7876  0.1623  1.3216
22358SOL    HW270573   1.586   8.725   9.122  1.6504  0.1025  1.1834
22359SOL     OW70574   7.024  10.830  10.812  0.8273  0.2720 -0.2471
22359SOL    HW170575   7.002  10.739  10.791  1.0366  0.4180 -1.1309
22359SOL    HW270576   7.099  10.850  10.757  2.3144  0.2516  1.6623
22360SOL     OW70577   0.405   1.656   0.390  0.0963  0.3104 -0.3247
22360SOL    HW170578   0.313   1.668   0.366 -0.4585  0.2752  1.6171
22360SOL    HW270579   0.452   1.719   0.335 -1.2772  1.5134 -0.1863
22361SOL     OW70580   4.641  10.294   5.917 -0.1555 -0.1187  0.8336
22361SOL    HW170581   4.704  10.317   5.849 -0.7606 -0.3097  0.2068
22361SOL    HW270582   4.672  10.211   5.952 -1.6264 -1.7256 -1.4594
22362SOL     OW70583   3.642   2.895  10.903  0.0802  0.6071  0.5435
22362SOL    HW170584   3.556   2.865  10.874  0.6530  0.4864 -1.1075
22362SOL    HW270585   3.667   2.961  10.839  0.9199  1.1682  1.4233
22363SOL     OW70586   3.680   6.163   5.021  0.5781 -0.2457  0.0864
22363SOL    HW170587   3.743   6.213   4.970  0.5578 -0.4835 -0.1695
22363SOL    HW270588   3.667   6.082   4.972 -0.5298  0.1337 -0.2865
22364SOL     OW70589   2.967   6.843   5.570 -0.0494  0.2665  0.4154
22364SOL    HW170590   3.058   6.829   5.542 -0.0623  0.0124  0.5034
22364SOL    HW270591   2.921   6.763   5.544 -1.0547  1.7505 -2.9764
22365SOL     OW70592   3.088   1.925   7.714 -0.2146  0.2911 -0.2016
22365SOL    HW170593   3.043   1.872   7.779 -0.3619 -0.5885 -1.0114
22365SOL    HW270594   3.168   1.876   7.694  0.2733  0.9976 -0.0380
22366SOL     OW70595   4.112   9.967   8.461 -0.0716 -0.0301  0.2278
22366SOL    HW170596   4.115  10.040   8.523  0.9080 -0.3533  0.5664
22366SOL    HW270597   4.198   9.966   8.420 -0.5351 -0.1562 -0.7560
22367SOL     OW70598   6.800   9.790   8.323  0.2382  0.0650  0.2171
22367SOL    HW170599   6.828   9.761   8.236 -1.1410 -1.1366  0.1141
22367SOL    HW270600   6.869   9.761   8.382  2.1891  2.6707 -0.6396
22368SOL     OW70601   8.318   6.243   4.874  0.2186 -0.2887  0.2344
22368SOL    HW170602   8.296   6.170   4.932  0.7692  0.9644  2.1272
22368SOL    HW270603   8.414   6.244   4.874  0.2908  1.8833  2.3164
22369SOL     OW70604  10.762   8.555   3.224 -0.0371 -0.4959  0.4359
22369SOL    HW170605  10.734   8.616   3.156  1.0307  0.4651  0.8096
22369SOL    HW270606  10.685   8.543   3.280 -0.7137 -0.7352 -0.5386
22370SOL     OW70607   8.823   5.691   3.634 -0.7480  0.5500  0.1613
22370SOL    HW170608   8.904   5.659   3.593 -1.3018 -0.2066 -0.3632
22370SOL    HW270609   8.849   5.714   3.723  0.9541  4.0829 -1.0567
22371SOL     OW70610   6.878   8.208   1.639 -0.3809 -0.2871  0.0330
22371SOL    HW170611   6.831   8.193   1.721 -0.5729  1.3234  0.2580
22371SOL    HW270612   6.958   8.157   1.647  0.2664  0.9108  1.8598
22372SOL     OW70613   7.521   1.568   9.660  0.7024  0.6942 -0.5398
22372SOL    HW170614   7.440   1.547   9.614 -0.3875 -0.2975  1.6375
22372SOL    HW270615   7.511   1.659   9.687  0.8802  0.9541 -1.3396
22373SOL     OW70616   5.847   0.244   1.756  0.9595 -0.6976  0.1566
22373SOL    HW170617   5.922   0.247   1.697  0.5014 -2.0221 -0.5383
22373SOL    HW270618   5.819   0.152   1.756 -0.6482 -0.2552  0.4176
22374SOL     OW70619   0.370   5.676   2.668  0.0425 -0.0782 -0.4861
22374SOL    HW170620   0.357   5.605   2.732 -0.6676 -0.2908 -0.8603
22374SOL    HW270621   0.459   5.662   2.635  0.1815 -0.3474 -0.0162
22375SOL     OW70622   1.724   2.371   4.181  0.0766 -0.2882  0.4376
22375SOL    HW170623   1.682   2.285   4.187 -0.4452 -0.0955 -0.2393
22375SOL    HW270624   1.664   2.423   4.127  0.4746  0.4454  0.6876
22376SOL     OW70625   9.024  10.071   6.407 -0.2006 -0.0058 -0.2425
22376SOL    HW170626   9.017  10.166   6.413 -1.5538 -0.0807 -0.2404
22376SOL    HW270627   9.009  10.052   6.315 -1.1073 -0.2824 -0.0468
22377SOL     OW70628   8.678   6.944   1.439 -0.4906 -0.1313 -0.3905
22377SOL    HW170629   8.757   6.923   1.489 -0.6710  1.2711  0.5424
22377SOL    HW270630   8.701   6.926   1.348  0.9719  0.4410 -0.1565
22378SOL     OW70631   5.664   1.608   5.600 -0.0938  0.1394  0.2159
22378SOL    HW170632   5.747   1.656   5.613 -0.2264  0.3553  0.2732
22378SOL    HW270633   5.599   1.677   5.588  0.2311  0.0561 -3.1002
22379SOL     OW70634   3.267   3.375  10.107 -0.2226 -0.2587 -0.0878
22379SOL    HW170635   3.174   3.394  10.104 -0.4850 -1.5311 -0.8791
22379SOL    HW270636   3.298   3.414  10.189 -1.1513  1.3768 -0.4805
22380SOL     OW70637   0.099   4.323   2.914  0.1559 -0.5275  0.2801
22380SOL    HW170638   0.171   4.296   2.972 -0.1415  0.6094  1.2041
22380SOL    HW270639   0.142   4.337   2.829  0.8446 -0.8730  0.5587
22381SOL     OW70640   2.957   7.353   7.045 -0.7504  0.1040 -0.3440
22381SOL    HW170641   3.042   7.370   7.004 -0.5307 -0.3356 -0.0726
22381SOL    HW270642   2.909   7.435   7.033 -0.2160  0.4299 -0.3119
22382SOL     OW70643   0.623   1.734   1.320 -0.2259 -0.7640  0.2662
22382SOL    HW170644   0.689   1.745   1.252 -0.0823  2.4955  0.7623
22382SOL    HW270645   0.626   1.642   1.343  2.1685 -1.2489 -1.6879
22383SOL     OW70646   8.754   2.901   8.332  0.5688  0.0599 -0.6200
22383SOL    HW170647   8.727   2.984   8.372 -1.0994 -0.5353 -0.4345
22383SOL    HW270648   8.803   2.927   8.254  0.3846  1.2280 -0.3681
22384SOL     OW70649   0.424   5.312   0.218  0.2995 -0.3866  0.4878
22384SOL    HW170650   0.392   5.326   0.307  1.1645 -2.1724  1.1281
22384SOL    HW270651   0.519   5.314   0.226  0.4039  0.7325 -0.6580
22385SOL     OW70652   9.431   1.358   8.469 -0.0216  0.0019  0.0842
22385SOL    HW170653   9.461   1.348   8.559  0.6417  0.4534 -0.0782
22385SOL    HW270654   9.356   1.419   8.475  0.3414  0.4383  0.2762
22386SOL     OW70655   4.740   4.599   3.605 -0.4192  0.6801  0.6662
22386SOL    HW170656   4.810   4.537   3.623 -0.8804 -0.3565 -0.8500
22386SOL    HW270657   4.660   4.551   3.628 -0.6800  1.6836  1.9539
22387SOL     OW70658   7.522  10.404   2.616  0.4270 -0.1617 -0.3062
22387SOL    HW170659   7.588  10.390   2.548  0.4664  0.9979 -0.5236
22387SOL    HW270660   7.561  10.469   2.674 -0.0525 -0.3371  0.2197
22388SOL     OW70661   7.886   6.152   1.343 -0.1878 -0.2774  0.0352
22388SOL    HW170662   7.934   6.166   1.425  0.2736 -1.1016 -0.0849
22388SOL    HW270663   7.884   6.238   1.302  2.4997 -0.4338 -0.6418
22389SOL     OW70664   5.675   4.601   0.145  0.3270  0.0601  0.2954
22389SOL    HW170665   5.734   4.537   0.107  0.1979  0.5965 -0.8476
22389SOL    HW270666   5.630   4.639   0.070 -2.1851 -1.0027  1.1472
22390SOL     OW70667  10.102   0.216   9.280  0.0363  0.4981 -0.1140
22390SOL    HW170668  10.018   0.252   9.309  0.1681  0.8734 -0.1958
22390SOL    HW270669  10.108   0.131   9.324 -1.3127 -0.4534 -1.6934
22391SOL     OW70670   7.632   1.379   7.777  0.7720  0.2611  0.5168
22391SOL    HW170671   7.635   1.444   7.848  0.3349 -0.2823  1.0405
22391SOL    HW270672   7.561   1.410   7.720 -0.2686 -0.3904  1.4142
22392SOL     OW70673   2.523   6.117   5.946  0.2261  0.0014 -0.2859
22392SOL    HW170674   2.478   6.134   5.863 -0.2471  0.1193 -0.0007
22392SOL    HW270675   2.560   6.201   5.971 -0.1979  0.1163 -0.0367
22393SOL     OW70676   3.022   9.249   7.508  0.3965 -0.1322 -0.2362
22393SOL    HW170677   3.105   9.200   7.503  1.4509  1.5939 -0.7255
22393SOL    HW270678   3.021   9.301   7.427 -2.0092 -1.3106 -1.0566
22394SOL     OW70679   1.362   3.687   4.295 -0.0593 -0.3950 -0.3621
22394SOL    HW170680   1.359   3.720   4.205 -1.4101  2.1231  0.5182
22394SOL    HW270681   1.272   3.658   4.313 -0.4513  1.4512  0.9142
22395SOL     OW70682   4.316   8.974   7.249  0.2690 -0.5985  0.5209
22395SOL    HW170683   4.258   9.049   7.252 -0.7737 -1.3722  4.2839
22395SOL    HW270684   4.297   8.932   7.165  0.8130  3.1062 -1.6502
22396SOL     OW70685   9.280   4.387   6.920  0.0310  0.2180 -0.6757
22396SOL    HW170686   9.248   4.311   6.872  0.7493 -0.0948 -0.6732
22396SOL    HW270687   9.252   4.373   7.010  0.9272 -0.4966 -0.4960
22397SOL     OW70688   6.658   1.721   8.078  0.4040 -0.1754  0.3415
22397SOL    HW170689   6.721   1.744   8.011 -0.0195 -0.4669 -0.1633
22397SOL    HW270690   6.664   1.792   8.142  3.0262 -1.4136  1.6065
22398SOL     OW70691   7.356   8.050   9.406 -0.8089 -0.0812  0.2633
22398SOL    HW170692   7.432   8.059   9.350 -0.7835  0.6703  0.4114
22398SOL    HW270693   7.313   7.969   9.376 -1.1602  0.6483 -1.2715
22399SOL     OW70694   4.411  10.840   0.095  0.6312 -0.2644 -0.4821
22399SOL    HW170695   4.499  10.839   0.056  0.8265 -0.9605 -0.0522
22399SOL    HW270696   4.360  10.899   0.039  0.8298 -1.4149 -1.9299
22400SOL     OW70697   2.749   5.791  10.393 -0.0770 -0.1975  0.3143
22400SOL    HW170698   2.678   5.824  10.337  1.6040 -0.9475 -2.4575
22400SOL    HW270699   2.769   5.864  10.452 -1.2391  1.0722 -0.7863
22401SOL     OW70700   0.915   5.476   5.138  0.4857 -0.0029 -0.2761
22401SOL    HW170701   0.944   5.430   5.216 -0.6746  0.1692  0.2745
22401SOL    HW270702   0.830   5.512   5.161 -0.6425 -1.3079 -2.1262
22402SOL     OW70703   1.317   4.932   0.527  0.0064 -0.0403  1.0196
22402SOL    HW170704   1.256   4.864   0.555 -0.7796  0.1751 -0.1062
22402SOL    HW270705   1.404   4.898   0.550 -0.1709 -2.3889 -1.3172
22403SOL     OW70706   7.829   2.972   4.691  0.2161  0.1413 -0.1067
22403SOL    HW170707   7.805   2.879   4.685  0.8993 -0.0164 -0.5558
22403SOL    HW270708   7.924   2.971   4.707  0.1346  0.7587  0.4255
22404SOL     OW70709   7.456   0.542   1.132 -0.1451 -0.1454 -0.7160
22404SOL    HW170710   7.370   0.514   1.162 -0.3902  1.2367 -0.0827
22404SOL    HW270711   7.482   0.474   1.068 -1.7496 -0.4987 -1.0392
22405SOL     OW70712   6.919   8.208   7.221 -0.1085 -0.1602  1.0551
22405SOL    HW170713   6.925   8.266   7.145 -1.0484 -0.5014  0.7074
22405SOL    HW270714   7.008   8.175   7.233  0.1344  0.2252  0.3690
22406SOL     OW70715   2.269   2.205   2.636 -0.0578  0.1997 -0.1782
22406SOL    HW170716   2.349   2.218   2.584  0.6884 -0.5796  0.7409
22406SOL    HW270717   2.281   2.263   2.712  0.8376 -1.7599  1.2471
22407SOL     OW70718   9.539   8.214   8.628  0.2314 -0.2058  0.1247
22407SOL    HW170719   9.506   8.304   8.625 -0.1101 -0.3480 -1.2203
22407SOL    HW270720   9.460   8.159   8.628  0.4387 -0.5093 -0.0820
22408SOL     OW70721   6.129   8.581   2.899  0.1403 -0.1463  0.4879
22408SOL    HW170722   6.061   8.526   2.938  0.8388 -1.5858 -0.2122
22408SOL    HW270723   6.160   8.530   2.824  0.8560  1.2187 -0.1768
22409SOL     OW70724   9.393   5.322   0.115  0.7490 -0.5825 -0.3040
22409SOL    HW170725   9.316   5.299   0.062  1.2485 -0.8110 -0.9394
22409SOL    HW270726   9.456   5.253   0.096  1.2488 -0.1918 -0.0711
22410SOL     OW70727   7.220   9.617   2.762 -0.3731 -0.1422 -0.4087
22410SOL    HW170728   7.139   9.669   2.764 -0.5964 -0.4406  2.7173
22410SOL    HW270729   7.289   9.679   2.786 -0.0843 -0.4808 -0.3577
22411SOL     OW70730   7.654   8.103   0.502  0.4991  0.1712  0.0413
22411SOL    HW170731   7.662   8.012   0.475 -1.1066  0.1372 -0.4416
22411SOL    HW270732   7.700   8.153   0.435 -0.0368 -0.1886 -0.5998
22412SOL     OW70733   0.554   1.749   6.536  0.0135 -0.1799  0.8933
22412SOL    HW170734   0.585   1.725   6.623 -0.0540 -1.2386  0.6355
22412SOL    HW270735   0.465   1.713   6.531  0.7715 -2.0224 -0.3646
22413SOL     OW70736  10.230   2.658   2.471 -0.5783  0.6290 -0.2275
22413SOL    HW170737  10.251   2.618   2.555 -1.2169  0.3437 -0.1959
22413SOL    HW270738  10.315   2.675   2.430 -0.2430  1.3101  0.7196
22414SOL     OW70739   1.274   7.934   0.355  0.0758  0.5245  0.4442
22414SOL    HW170740   1.191   7.950   0.310  0.4223 -1.5094 -1.0369
22414SOL    HW270741   1.340   7.939   0.286  0.9405 -0.0043  1.2124
22415SOL     OW70742   9.112   7.172   6.852  0.3202 -0.2776  0.1073
22415SOL    HW170743   9.174   7.168   6.779  2.4442  0.9313  1.7039
22415SOL    HW270744   9.102   7.265   6.870 -1.0284 -0.5116  0.6749
22416SOL     OW70745   3.790   7.514   1.996  0.1258  0.0911  0.2294
22416SOL    HW170746   3.805   7.480   2.084  2.3717 -0.1398 -0.1905
22416SOL    HW270747   3.853   7.585   1.986  1.8013 -1.5689 -2.0554
22417SOL     OW70748   9.969   3.932  10.377 -0.4494  0.0120 -0.5060
22417SOL    HW170749   9.998   3.921  10.467 -1.3304 -0.3510 -0.2556
22417SOL    HW270750   9.972   3.845  10.339  1.0464  0.3369 -1.2024
22418SOL     OW70751   9.882   3.174   3.024 -0.2053  0.0045  0.1824
22418SOL    HW170752   9.904   3.136   3.109 -0.0971 -0.4581 -0.0490
22418SOL    HW270753   9.932   3.256   3.020  1.9452 -1.2332 -0.5291
22419SOL     OW70754   6.505   1.348   3.431 -0.2286  0.3856  0.5889
22419SOL    HW170755   6.560   1.327   3.506 -1.4848 -0.8931  1.1956
22419SOL    HW270756   6.438   1.406   3.465 -0.3786  0.3826  0.3014
22420SOL     OW70757   3.202   3.840   8.557 -0.0729  0.6889  0.4801
22420SOL    HW170758   3.295   3.846   8.580  0.0967  0.0983 -0.0267
22420SOL    HW270759   3.202   3.822   8.463 -0.6250 -1.7683  0.8824
22421SOL     OW70760   1.141   6.492   5.943 -0.0048 -0.5672 -0.0452
22421SOL    HW170761   1.066   6.448   5.983 -1.3555  0.2958 -1.5118
22421SOL    HW270762   1.133   6.584   5.970 -0.6666 -0.0707 -1.8157
22422SOL     OW70763  10.019   8.994   1.074 -0.5254  0.5121  0.3535
22422SOL    HW170764   9.982   8.942   1.004 -2.9166 -0.8846  2.4792
22422SOL    HW270765   9.970   9.077   1.071 -1.3669  0.0543  0.9431
22423SOL     OW70766   9.141   8.239   8.354  1.1129 -0.0525  0.2249
22423SOL    HW170767   9.229   8.274   8.369  0.6999  0.7151  0.9916
22423SOL    HW270768   9.107   8.223   8.442  1.0407 -1.8098 -0.0871
22424SOL     OW70769   4.688   3.622   8.083 -0.0247 -0.2348 -0.0069
22424SOL    HW170770   4.742   3.695   8.113  0.4727 -1.1346  1.3518
22424SOL    HW270771   4.662   3.647   7.994 -0.0520  1.6807  0.4966
22425SOL     OW70772   8.543   5.302  10.881  0.7364  0.3543  0.5201
22425SOL    HW170773   8.448   5.291  10.885  0.8055 -1.4340 -1.1872
22425SOL    HW270774   8.559   5.339  10.794  1.6280  0.5940  0.7759
22426SOL     OW70775   3.493   5.780   3.389  0.5267  0.4716 -0.2308
22426SOL    HW170776   3.503   5.874   3.377 -0.3652  0.7726  1.1992
22426SOL    HW270777   3.564   5.741   3.338  0.3844  1.8609 -1.5615
22427SOL     OW70778   1.908   6.009   7.199  0.0727  0.0538 -0.3818
22427SOL    HW170779   1.923   5.985   7.107 -1.7111  0.8634 -0.9169
22427SOL    HW270780   1.831   6.064   7.197  0.0304  0.1265  1.6321
22428SOL     OW70781   7.679   7.553   3.333 -0.7764  0.1454 -0.4051
22428SOL    HW170782   7.663   7.516   3.420 -0.3297 -0.9796 -0.7741
22428SOL    HW270783   7.592   7.561   3.294 -0.8339 -1.8343 -0.7993
22429SOL     OW70784   5.229   0.052   6.374 -0.1584  0.3779  0.1921
22429SOL    HW170785   5.207   0.007   6.455  0.5315 -0.6031 -0.1476
22429SOL    HW270786   5.295   0.117   6.399  1.4758 -1.2016  0.1379
22430SOL     OW70787   6.620   1.050   3.974 -0.3423 -0.0058  0.5168
22430SOL    HW170788   6.540   1.000   3.989 -0.5344  0.1282 -0.0166
22430SOL    HW270789   6.639   1.092   4.057 -1.0025  0.2096  0.5613
22431SOL     OW70790   7.065   6.822   5.154 -0.6098  0.0646  0.0625
22431SOL    HW170791   7.015   6.760   5.101 -0.7474  1.2225 -1.2291
22431SOL    HW270792   7.024   6.907   5.137  0.0956  0.6486  1.1253
22432SOL     OW70793   0.290   3.480   0.537  0.5933 -0.6771  0.1472
22432SOL    HW170794   0.371   3.497   0.585  0.3450 -0.7386  0.5976
22432SOL    HW270795   0.309   3.507   0.447  0.7623  0.3733  0.4768
22433SOL     OW70796   7.105   6.053   6.358  0.4124  0.2352 -0.1347
22433SOL    HW170797   7.076   5.995   6.287  1.7890 -0.3137 -0.2804
22433SOL    HW270798   7.158   6.120   6.314  2.1778 -0.7134  0.4393
22434SOL     OW70799   2.089   4.778   7.897 -0.3044  0.1219  0.2156
22434SOL    HW170800   2.035   4.738   7.829 -0.2462  1.7084 -0.8347
22434SOL    HW270801   2.054   4.867   7.905  1.5384  0.8958  0.1691
22435SOL     OW70802   5.322   2.590   4.171  0.2241  0.4245 -0.3190
22435SOL    HW170803   5.282   2.677   4.174 -0.7509  0.0934 -2.0081
22435SOL    HW270804   5.386   2.595   4.100  0.4040 -0.1335 -0.2028
22436SOL     OW70805   5.486   5.013   7.058 -0.1900  0.0184 -0.1217
22436SOL    HW170806   5.421   4.963   7.105  0.0725 -1.1054 -0.9189
22436SOL    HW270807   5.513   4.957   6.986  0.5247  1.0818 -0.7220
22437SOL     OW70808   9.763   2.976   1.184 -0.2081  0.0005 -0.0374
22437SOL    HW170809   9.783   3.059   1.140  0.5041 -0.9242 -1.5452
22437SOL    HW270810   9.844   2.925   1.174 -0.9699 -1.2324  0.0100
22438SOL     OW70811   3.559   1.100   5.366 -0.6141 -0.4724  0.4968
22438SOL    HW170812   3.480   1.074   5.414 -0.9513 -1.4501 -0.5461
22438SOL    HW270813   3.574   1.028   5.305 -0.2082  0.7453 -0.8744
22439SOL     OW70814   9.488   5.350   5.854  1.0604 -0.6589  0.4607
22439SOL    HW170815   9.451   5.318   5.936  0.5104  0.8884  0.8490
22439SOL    HW270816   9.564   5.402   5.881  0.9490 -0.2428 -0.0007
22440SOL     OW70817   8.801   5.454   0.859 -0.6384 -0.1593 -0.8064
22440SOL    HW170818   8.882   5.402   0.857 -0.7840 -0.3692 -1.5229
22440SOL    HW270819   8.735   5.396   0.820 -1.0263  0.1948 -0.6778
22441SOL     OW70820   7.453   9.914   6.258  0.7033  0.1016 -0.5527
22441SOL    HW170821   7.499   9.912   6.342  1.0986  0.5598 -0.7545
22441SOL    HW270822   7.455   9.824   6.228  1.5992  0.1365 -0.6230
22442SOL     OW70823   2.559   8.048   4.662  0.0316 -0.3944  0.1539
22442SOL    HW170824   2.521   7.981   4.606 -1.1607  0.2260  0.1662
22442SOL    HW270825   2.486   8.076   4.718  0.3303  1.3176 -0.2549
22443SOL     OW70826   9.852   4.765   6.034 -0.1556  0.2372 -0.1343
22443SOL    HW170827   9.915   4.745   5.964 -0.3751  0.6006 -0.4396
22443SOL    HW270828   9.878   4.852   6.065 -0.9798  0.7299 -0.7989
22444SOL     OW70829   2.317   3.710   0.967  0.1834 -0.1942 -0.6662
22444SOL    HW170830   2.300   3.655   1.043  1.0385  1.2595  0.6516
22444SOL    HW270831   2.322   3.649   0.893 -0.7383 -1.6414  0.4089
22445SOL     OW70832   4.811   5.317   3.284 -0.2738 -0.4050 -0.2710
22445SOL    HW170833   4.734   5.315   3.341 -0.9379  1.9985 -0.9663
22445SOL    HW270834   4.784   5.268   3.207 -1.2150  0.5544 -0.5793
22446SOL     OW70835   7.355   0.358   3.343 -0.1827  0.1211  0.0218
22446SOL    HW170836   7.332   0.266   3.357  0.6941 -0.0683  0.2787
22446SOL    HW270837   7.275   0.397   3.308 -1.2664 -0.2580  1.8930
22447SOL     OW70838   5.490   5.822   5.758  0.0586 -0.0678  0.2629
22447SOL    HW170839   5.548   5.749   5.777  1.5359  0.9398 -0.2068
22447SOL    HW270840   5.424   5.786   5.700 -0.5304 -1.5293  1.7551
22448SOL     OW70841   7.738   2.656   6.088  0.2736 -0.3532  0.8192
22448SOL    HW170842   7.724   2.584   6.027 -4.9639 -2.0400  3.3613
22448SOL    HW270843   7.729   2.735   6.034 -3.0123 -1.7477 -0.9964
22449SOL     OW70844   6.637   5.748   3.205 -0.1708 -0.0891  0.0083
22449SOL    HW170845   6.693   5.768   3.280 -1.7546  0.0708  1.1881
22449SOL    HW270846   6.652   5.655   3.189  1.7627  0.3093 -0.8861
22450SOL     OW70847   7.012   5.897   1.181  0.1757 -0.0611 -0.0997
22450SOL    HW170848   7.062   5.918   1.102 -0.6345 -0.0612 -0.6243
22450SOL    HW270849   6.980   5.808   1.165 -1.1437  0.4533 -0.3779
22451SOL     OW70850   5.065   3.247   9.578  0.2449  0.0650 -0.4389
22451SOL    HW170851   4.992   3.306   9.597  0.3673  0.5728 -1.5031
22451SOL    HW270852   5.041   3.205   9.495 -0.9198 -3.1058  1.3064
22452SOL     OW70853   7.537  10.829   3.120  0.4694 -0.4991  0.0652
22452SOL    HW170854   7.499  10.887   3.186  1.8400  0.5781 -0.0641
22452SOL    HW270855   7.463  10.777   3.089 -0.7520  0.9832  0.3713
22453SOL     OW70856   3.856   5.855   3.616  0.2939  0.1147  0.1557
22453SOL    HW170857   3.934   5.893   3.574  2.4727 -2.4291  1.5688
22453SOL    HW270858   3.817   5.801   3.547  0.0471  1.0462 -0.4407
22454SOL     OW70859   9.574   6.517   1.073  0.3037 -0.1179  0.1571
22454SOL    HW170860   9.604   6.429   1.098  0.7661  0.2717  1.0359
22454SOL    HW270861   9.649   6.574   1.092  0.1052  0.4287 -0.6761
22455SOL     OW70862   6.227   8.073   5.550  0.3349  0.5128  0.3010
22455SOL    HW170863   6.202   8.153   5.503 -0.1087  0.5926  0.6636
22455SOL    HW270864   6.255   8.012   5.482 -1.1591  0.3069 -0.1751
22456SOL     OW70865   7.487   8.897   1.592 -0.4130 -0.3664 -0.6839
22456SOL    HW170866   7.530   8.834   1.533  1.5401 -0.3371  0.6232
22456SOL    HW270867   7.501   8.862   1.679 -0.9109  0.9469 -0.0461
22457SOL     OW70868   2.714   3.826  10.448 -0.0635 -0.2021 -0.1194
22457SOL    HW170869   2.686   3.917  10.462 -0.2574 -0.0117 -1.5962
22457SOL    HW270870   2.632   3.777  10.445  0.0567 -0.5022  1.0414
22458SOL     OW70871   1.594  10.547   8.986 -0.2933 -0.0619 -0.0503
22458SOL    HW170872   1.665  10.516   8.929 -1.3540  0.0763 -1.4986
22458SOL    HW270873   1.565  10.469   9.033  2.2091  0.2445  2.2516
22459SOL     OW70874   8.563   4.374   6.948  0.0485 -0.2183  0.1079
22459SOL    HW170875   8.574   4.280   6.963  1.5641  0.0520  0.8508
22459SOL    HW270876   8.630   4.396   6.883  0.8300  0.6324  1.1698
22460SOL     OW70877   3.652   6.507   5.216  0.0291 -0.2925 -0.3357
22460SOL    HW170878   3.628   6.520   5.308  1.9368 -0.1713  0.1993
22460SOL    HW270879   3.578   6.461   5.178 -1.7383  1.5025  0.7170
22461SOL     OW70880  10.760   7.242   9.599 -0.3095 -0.6989 -0.7026
22461SOL    HW170881  10.815   7.307   9.556 -0.2666 -0.5755 -0.4647
22461SOL    HW270882  10.805   7.222   9.681 -1.2592  0.3675  0.1074
22462SOL     OW70883   1.604   6.386   5.357  0.0533  0.1645  0.1372
22462SOL    HW170884   1.532   6.339   5.314  0.4418  0.6807 -1.1402
22462SOL    HW270885   1.568   6.412   5.442 -2.2425  2.5871 -1.3829
22463SOL     OW70886  10.629   4.174   4.024  0.2322  0.2799  0.1862
22463SOL    HW170887  10.604   4.255   3.980 -0.2434  0.3096  0.5023
22463SOL    HW270888  10.610   4.105   3.961  2.6632  0.5237 -0.9609
22464SOL     OW70889   5.078   1.437   0.327 -0.1920 -0.3392  0.0692
22464SOL    HW170890   5.061   1.438   0.233 -0.0469  2.6667 -0.0164
22464SOL    HW270891   5.013   1.496   0.364 -1.4192 -2.8194  2.1772
22465SOL     OW70892   8.380   4.792   9.054 -0.2342  0.3383 -0.1028
22465SOL    HW170893   8.424   4.757   9.132 -0.5998 -0.2383 -0.1485
22465SOL    HW270894   8.304   4.735   9.042  0.3401 -0.2045 -1.4462
22466SOL     OW70895   6.899   0.109   0.214 -0.3381  0.1397 -0.1909
22466SOL    HW170896   6.965   0.063   0.160  1.5805  2.0749  0.3779
22466SOL    HW270897   6.921   0.201   0.205 -2.3111  0.7740  0.9750
22467SOL     OW70898   0.820   9.309   2.475 -0.2238  0.2132 -0.4735
22467SOL    HW170899   0.904   9.309   2.521 -0.4173  1.0635 -0.0957
22467SOL    HW270900   0.759   9.266   2.535  0.1257 -1.2316 -1.1282
22468SOL     OW70901   2.182   8.285   9.060 -0.8143  0.5684 -0.1569
22468SOL    HW170902   2.261   8.231   9.059 -1.5366 -0.5178 -1.2059
22468SOL    HW270903   2.193   8.342   9.135 -0.1996 -1.3256  1.2653
22469SOL     OW70904   3.383   0.202   6.985  0.1629 -0.4534 -0.2271
22469SOL    HW170905   3.449   0.234   6.924  0.2467 -0.0982  0.0501
22469SOL    HW270906   3.429   0.189   7.067 -0.0672 -0.3902 -0.0852
22470SOL     OW70907   3.545   8.396   8.044  0.0658 -0.1713  0.5409
22470SOL    HW170908   3.552   8.471   7.986 -0.4517  0.7513  1.6408
22470SOL    HW270909   3.542   8.320   7.985  1.9355  0.5234 -0.5551
22471SOL     OW70910   5.156   9.049   0.488 -0.5674 -0.4746 -0.4177
22471SOL    HW170911   5.092   9.119   0.498  1.4889  1.2128  2.1805
22471SOL    HW270912   5.133   8.986   0.556 -0.4110 -0.6396 -0.5169
22472SOL     OW70913   7.272   1.325   0.298  0.0337 -0.1824  0.1571
22472SOL    HW170914   7.336   1.391   0.324  0.6836 -0.3931 -0.8642
22472SOL    HW270915   7.269   1.264   0.372  0.8342 -0.0345  0.3193
22473SOL     OW70916   8.068   5.543   5.654  0.3079  0.1202 -0.1402
22473SOL    HW170917   8.042   5.476   5.591 -0.2627  0.3141 -0.1176
22473SOL    HW270918   8.112   5.609   5.601 -1.5512  1.0496 -0.6171
22474SOL     OW70919   7.098   0.521   4.730  0.3151  0.0540  0.2400
22474SOL    HW170920   7.104   0.610   4.694 -0.5301 -0.3960 -1.0624
22474SOL    HW270921   7.060   0.469   4.660  1.2944 -1.4728  0.7849
22475SOL     OW70922   4.410   8.506   2.938 -0.2914  0.4552 -0.2947
22475SOL    HW170923   4.342   8.445   2.968 -1.2748  0.9168 -1.4729
22475SOL    HW270924   4.436   8.472   2.853  1.9409 -0.4347  0.6553
22476SOL     OW70925   9.017   0.682   3.022 -0.4305  0.0949  0.0298
22476SOL    HW170926   9.046   0.731   2.945  1.3873 -2.5072 -1.0617
22476SOL    HW270927   8.952   0.621   2.988  0.2498 -0.9478  0.5655
22477SOL     OW70928   7.623   3.069   6.251  0.0341 -0.3260 -0.6069
22477SOL    HW170929   7.597   3.133   6.318 -0.4612 -1.7949  0.6423
22477SOL    HW270930   7.718   3.072   6.251  0.1619 -1.9714  1.9101
22478SOL     OW70931   9.372   4.640   8.679  0.0501 -0.3485 -0.2776
22478SOL    HW170932   9.285   4.642   8.641 -0.5539  1.0497  1.0879
22478SOL    HW270933   9.367   4.573   8.747 -0.1646  0.2269  0.2723
22479SOL     OW70934   5.713   1.814   7.315  0.0214  0.4548  0.2102
22479SOL    HW170935   5.756   1.762   7.382  0.4491 -0.8717 -1.0507
22479SOL    HW270936   5.754   1.900   7.321 -1.1072  0.8917  2.7139
22480SOL     OW70937   1.131   3.261   8.512  0.0705 -0.3931  0.3096
22480SOL    HW170938   1.144   3.346   8.471 -1.6890  0.0342  0.5434
22480SOL    HW270939   1.123   3.281   8.606 -0.4312 -0.7944  0.3558
22481SOL     OW70940   4.179   2.218   0.452  0.5774  0.3141  0.1788
22481SOL    HW170941   4.131   2.187   0.528  0.2105  2.1730  0.7584
22481SOL    HW270942   4.265   2.243   0.486  0.1361  1.9409  0.2010
22482SOL     OW70943   3.933   4.757   0.777  0.0656 -0.1277 -0.0455
22482SOL    HW170944   3.966   4.683   0.827 -0.6103 -1.2475 -1.2079
22482SOL    HW270945   3.994   4.766   0.704 -0.4620 -0.2271 -0.5005
22483SOL     OW70946   4.432  10.774   3.093  0.5110  0.2568  0.3362
22483SOL    HW170947   4.462  10.758   3.183 -1.1948 -1.5082  0.6590
22483SOL    HW270948   4.353  10.720   3.084 -0.0675  1.3549 -1.8394
22484SOL     OW70949   2.062   1.004   4.769 -0.2227  0.2810 -0.8668
22484SOL    HW170950   2.080   1.084   4.719  1.3982 -0.8989 -2.2552
22484SOL    HW270951   2.057   0.935   4.704  0.1148 -1.0267  0.4333
22485SOL     OW70952   5.752   2.590   1.324 -0.0953  0.0363 -0.1730
22485SOL    HW170953   5.839   2.621   1.298 -0.4081  0.0091 -1.3200
22485SOL    HW270954   5.698   2.669   1.324 -0.2861 -0.0911 -0.4465
22486SOL     OW70955   3.662   3.665   3.380  0.3728  0.0470 -0.0161
22486SOL    HW170956   3.613   3.724   3.438  0.2754 -0.2306  0.1875
22486SOL    HW270957   3.740   3.642   3.431 -1.2237 -2.7842  1.4041
22487SOL     OW70958   8.528   6.490  10.833 -0.5119  0.0976 -0.7152
22487SOL    HW170959   8.603   6.453  10.787 -0.9070  1.3325 -2.4443
22487SOL    HW270960   8.465   6.419  10.839 -1.0534  0.2433 -3.4979
22488SOL     OW70961   6.382  10.774   1.234 -0.2569  0.4367 -0.1069
22488SOL    HW170962   6.322  10.704   1.260  0.0120  0.4374  0.5310
22488SOL    HW270963   6.416  10.745   1.149 -0.1802 -0.1908  0.1295
22489SOL     OW70964   0.247   0.488   1.409 -0.3951  0.8713 -0.0914
22489SOL    HW170965   0.172   0.546   1.423 -1.6644 -0.4881 -0.9168
22489SOL    HW270966   0.238   0.459   1.318  1.0282  0.5192 -0.1326
22490SOL     OW70967   2.903   0.317   3.516  0.4455  0.2186  0.4964
22490SOL    HW170968   2.848   0.395   3.507 -0.2328 -0.2565  0.4157
22490SOL    HW270969   2.969   0.326   3.446  0.2027  0.5818  0.3105
22491SOL     OW70970  10.652   7.134   0.996  0.2180  0.0672 -0.7684
22491SOL    HW170971  10.678   7.226   0.998  0.2432  0.0885 -1.6774
22491SOL    HW270972  10.670   7.106   0.907 -2.1026 -0.1276 -1.2493
22492SOL     OW70973   2.609   7.357   7.260 -0.6177 -0.2497  0.0970
22492SOL    HW170974   2.657   7.283   7.296  1.6743  0.8729 -0.4655
22492SOL    HW270975   2.650   7.374   7.175 -0.0292  2.5642  0.8484
22493SOL     OW70976   6.922   6.781   1.380 -0.4132 -0.5395 -0.5227
22493SOL    HW170977   6.849   6.734   1.420 -0.4423 -1.0529 -1.1636
22493SOL    HW270978   6.992   6.776   1.446 -0.7237 -0.6667 -0.1984
22494SOL     OW70979   0.933   7.192   2.971 -0.0332  0.8789  0.2032
22494SOL    HW170980   0.972   7.112   2.937 -0.4462  0.5954  0.3876
22494SOL    HW270981   1.001   7.258   2.961 -0.1450  0.8027 -1.1633
22495SOL     OW70982  10.671   1.918   1.145 -0.2779  0.3093 -0.0299
22495SOL    HW170983  10.585   1.878   1.128  0.3973 -0.3052 -2.3992
22495SOL    HW270984  10.733   1.857   1.106  1.3182  0.5383  1.9954
22496SOL     OW70985   6.622   1.724   4.136 -0.0708  0.1226 -0.8072
22496SOL    HW170986   6.543   1.695   4.091 -0.5169 -1.2167  0.7362
22496SOL    HW270987   6.647   1.805   4.091 -1.5418 -0.1423 -2.1878
22497SOL     OW70988   5.371   1.721   2.465 -0.5287  0.0563  0.4896
22497SOL    HW170989   5.357   1.682   2.551 -1.6275  0.9741  0.7459
22497SOL    HW270990   5.394   1.812   2.483 -0.8241  0.2717 -0.1845
22498SOL     OW70991   0.697   4.822   2.863  0.0449  0.2950  0.3587
22498SOL    HW170992   0.660   4.752   2.918  0.4600 -0.6646 -0.5436
22498SOL    HW270993   0.756   4.776   2.803  0.7155  1.4993  0.0745
22499SOL     OW70994   0.280   5.699   0.619 -0.4440  0.8228  0.2590
22499SOL    HW170995   0.262   5.700   0.526  0.1822 -0.3125  0.1015
22499SOL    HW270996   0.242   5.617   0.651  1.5898 -0.1063  0.4739
22500SOL     OW70997   9.995   9.230   6.590 -0.0416 -0.0563 -0.1990
22500SOL    HW170998  10.055   9.295   6.551 -1.3731  1.2528 -0.1475
22500SOL    HW270999  10.000   9.247   6.684 -0.7229  0.2787 -0.2193
22501SOL     OW71000   8.287   0.111   8.148 -0.1690  0.0103 -0.4258
22501SOL    HW171001   8.223   0.057   8.194  0.1387 -0.3264 -0.3959
22501SOL    HW271002   8.236   0.187   8.118 -0.5496 -0.1769 -0.2641
22502SOL     OW71003   5.384   3.094   4.146  0.0406  0.2770  0.0071
22502SOL    HW171004   5.443   3.066   4.216  0.9661 -0.6735 -1.0969
22502SOL    HW271005   5.388   3.023   4.082  1.0196  2.0522 -2.0591
22503SOL     OW71006   8.016   9.126   5.520 -0.0507  0.2038 -0.0710
22503SOL    HW171007   8.064   9.190   5.468  1.9700 -0.3014  1.0626
22503SOL    HW271008   7.982   9.176   5.594 -0.3594  0.3680 -0.3236
22504SOL     OW71009   3.177   3.964   2.588  0.1133  0.3334  0.2175
22504SOL    HW171010   3.238   4.037   2.601 -0.1784  0.5461  0.3935
22504SOL    HW271011   3.098   3.990   2.634 -0.1606  0.1137 -0.1242
22505SOL     OW71012   2.784   1.346   0.693  0.0709 -0.0071  0.2784
22505SOL    HW171013   2.726   1.356   0.618  0.2351 -2.6337 -0.2868
22505SOL    HW271014   2.774   1.428   0.742 -0.8846  1.3106 -1.9899
22506SOL     OW71015   9.053   6.573   3.372  0.0155  0.0024  0.0348
22506SOL    HW171016   9.131   6.543   3.418  1.3379  2.3026 -0.5409
22506SOL    HW271017   8.985   6.574   3.438  0.2904 -2.4674  0.4589
22507SOL     OW71018   1.568   2.338   3.457 -0.1053 -0.0095 -0.5789
22507SOL    HW171019   1.487   2.326   3.409 -0.5091 -0.9387  0.2905
22507SOL    HW271020   1.609   2.252   3.458 -0.0357  0.0136  0.5794
22508SOL     OW71021   2.200   3.291   3.331 -0.3715 -0.1027  0.0274
22508SOL    HW171022   2.216   3.197   3.323  1.0909  0.0053  1.2941
22508SOL    HW271023   2.262   3.331   3.270  1.4913  0.1409  1.9717
22509SOL     OW71024   6.764   0.959   8.396 -0.8878 -0.0086  0.1083
22509SOL    HW171025   6.702   0.949   8.324 -1.1406 -2.7326  0.6057
22509SOL    HW271026   6.710   0.961   8.475 -0.4438 -1.1284  0.4598
22510SOL     OW71027   0.417   1.099   1.662 -0.2859 -0.2093  0.1687
22510SOL    HW171028   0.330   1.118   1.628  0.1681  1.0593 -0.3369
22510SOL    HW271029   0.467   1.068   1.587 -0.3862 -1.2690  0.5281
22511SOL     OW71030   3.911   6.384   5.187  0.1626  0.0236 -0.0073
22511SOL    HW171031   3.829   6.430   5.208 -0.6051 -2.2092  2.4749
22511SOL    HW271032   3.913   6.382   5.091 -1.9026  1.4525 -0.1615
22512SOL     OW71033   5.826   4.411   0.027  0.4218  0.0882 -0.5596
22512SOL    HW171034   5.880   4.415   0.106 -0.8867  0.1736  0.3841
22512SOL    HW271035   5.851   4.329  -0.015  0.4565 -0.4756  0.5011
22513SOL     OW71036   3.116   4.776   6.780  0.4323 -0.0211 -0.1553
22513SOL    HW171037   3.114   4.862   6.736 -0.7611 -0.5939 -1.2855
22513SOL    HW271038   3.039   4.730   6.746  0.9960 -1.5085  0.5173
22514SOL     OW71039   6.266   7.804   3.374  0.2654 -0.0597  0.1530
22514SOL    HW171040   6.237   7.760   3.294 -0.2023  0.5644 -0.0258
22514SOL    HW271041   6.193   7.860   3.399  0.8802  0.6852  0.3324
22515SOL     OW71042   6.620   2.295  10.806  0.0430  0.3954 -0.0502
22515SOL    HW171043   6.598   2.384  10.780 -1.3912  0.1283  0.1895
22515SOL    HW271044   6.644   2.302  10.898 -2.2636  0.2487  0.6234
22516SOL     OW71045   2.689   1.632   0.495  0.0337  0.0270 -0.6258
22516SOL    HW171046   2.666   1.551   0.449 -0.0513  0.0299 -0.5892
22516SOL    HW271047   2.680   1.610   0.588 -0.2630  0.1593 -0.6236
22517SOL     OW71048   8.484   5.685   4.366  0.0853 -0.1877 -0.7288
22517SOL    HW171049   8.537   5.661   4.290  0.2776 -1.3196 -0.2609
22517SOL    HW271050   8.395   5.696   4.332  0.5272  1.4072 -1.4637
22518SOL     OW71051   5.680   2.771   3.686 -0.0749 -0.2293  0.1595
22518SOL    HW171052   5.707   2.837   3.623 -0.6612 -0.5273 -0.4250
22518SOL    HW271053   5.592   2.798   3.713 -0.3161 -0.7568 -0.0773
22519SOL     OW71054   5.705  10.747   0.063  0.5539  0.0096  0.4632
22519SOL    HW171055   5.767  10.720   0.130  0.7945 -1.1758 -0.2059
22519SOL    HW271056   5.744  10.825   0.023  1.1716 -0.2074  0.6477
22520SOL     OW71057   5.755   3.380   7.493  0.4453 -0.4359  0.0658
22520SOL    HW171058   5.804   3.438   7.551 -0.5354  2.2137 -1.5260
22520SOL    HW271059   5.666   3.379   7.530  0.5971 -1.4792  0.4266
22521SOL     OW71060   2.493   3.967   4.654  0.2476  0.1533 -0.4079
22521SOL    HW171061   2.500   4.057   4.621  0.6351  0.0819 -0.5268
22521SOL    HW271062   2.579   3.949   4.691  0.6728 -0.6947 -1.7349
22522SOL     OW71063   6.761   5.620   4.215  0.2032  0.6220 -0.0638
22522SOL    HW171064   6.669   5.645   4.203  0.6133  1.2431 -2.4514
22522SOL    HW271065   6.796   5.686   4.274 -0.4137  1.6275 -0.7815
22523SOL     OW71066   4.545   4.110   6.502 -0.1101  0.8324  0.2144
22523SOL    HW171067   4.471   4.127   6.561 -0.2159  1.5615 -0.1246
22523SOL    HW271068   4.514   4.039   6.446  0.7909 -1.5094  2.4563
22524SOL     OW71069   6.759   6.463   9.113 -0.1789  0.4125 -0.3216
22524SOL    HW171070   6.781   6.528   9.047 -1.4243  0.9135 -0.2539
22524SOL    HW271071   6.779   6.506   9.196  2.3328 -0.5569 -0.3192
22525SOL     OW71072   5.873   9.789   8.255 -0.3234 -0.2544 -0.7151
22525SOL    HW171073   5.807   9.720   8.244 -0.4268 -0.1365 -0.8375
22525SOL    HW271074   5.920   9.790   8.172 -0.6718  0.1841 -0.9117
22526SOL     OW71075   2.499   1.092   0.547 -0.0005 -0.5606 -0.2883
22526SOL    HW171076   2.414   1.127   0.571  0.9189  2.4116 -1.0202
22526SOL    HW271077   2.549   1.092   0.628 -0.1144 -0.5105 -0.2173
22527SOL     OW71078   6.381  10.205  10.310 -0.4697 -0.0545  0.4538
22527SOL    HW171079   6.468  10.167  10.298 -0.0532  1.2314 -1.0893
22527SOL    HW271080   6.368  10.258  10.231 -2.8550 -0.5659  0.4329
22528SOL     OW71081   1.301   6.040   6.584  0.0031 -0.5720 -0.1464
22528SOL    HW171082   1.312   6.037   6.679  2.2837  0.8287 -0.2991
22528SOL    HW271083   1.314   5.950   6.556 -0.4458 -0.9606  0.8398
22529SOL     OW71084   1.283   0.492   3.746  0.5518 -0.1569  0.0747
22529SOL    HW171085   1.269   0.586   3.736 -1.2148 -0.3070  0.8180
22529SOL    HW271086   1.364   0.485   3.797  1.2321  0.9061 -0.8174
22530SOL     OW71087   3.019   7.954   0.598 -0.1055 -0.2652 -0.1833
22530SOL    HW171088   3.003   8.037   0.644  1.9679  0.6928 -1.0370
22530SOL    HW271089   3.111   7.958   0.574 -0.5071 -1.8181 -2.2461
22531SOL     OW71090   1.130   5.844   2.904  0.0309  0.2183  0.2448
22531SOL    HW171091   1.212   5.795   2.913  0.8692  1.7612  1.5717
22531SOL    HW271092   1.070   5.801   2.964  0.2985 -0.0636  0.3155
22532SOL     OW71093   2.778  10.094   8.522  0.0481  0.3334  0.0043
22532SOL    HW171094   2.732  10.010   8.521 -0.2674  0.5132 -0.8510
22532SOL    HW271095   2.860  10.076   8.568  0.8504 -0.9093 -1.8038
22533SOL     OW71096  10.491   8.126   6.688  0.7233 -0.1587 -0.5804
22533SOL    HW171097  10.479   8.202   6.746 -3.2825 -0.7207 -0.3713
22533SOL    HW271098  10.470   8.159   6.600 -0.1575 -0.7611 -0.6164
22534SOL     OW71099   7.208  10.983   0.914  0.0888  0.0588 -0.1618
22534SOL    HW171100   7.231  11.076   0.907  1.2868 -0.1092  1.2020
22534SOL    HW271101   7.118  10.978   0.881  0.1454  1.6333 -0.6181
22535SOL     OW71102   2.459  10.761   6.049  0.1030  0.0214 -0.4474
22535SOL    HW171103   2.436  10.790   5.961  0.5913  1.8721 -0.0018
22535SOL    HW271104   2.502  10.837   6.089  1.6930 -1.4053  0.7068
22536SOL     OW71105   6.458  10.615   7.100 -0.1589 -0.2817  0.1031
22536SOL    HW171106   6.513  10.600   7.177 -2.1628 -0.6388  1.5453
22536SOL    HW271107   6.511  10.671   7.043  2.2441 -1.7642  0.7037
22537SOL     OW71108   7.661   8.511   2.905  0.3512 -0.2606  0.0638
22537SOL    HW171109   7.663   8.496   2.811 -1.8767  2.1353 -0.4968
22537SOL    HW271110   7.700   8.597   2.917  2.2702 -1.2720  1.6300
22538SOL     OW71111   0.577   2.605   5.449 -0.8021 -0.7547  0.3450
22538SOL    HW171112   0.573   2.641   5.360 -0.0387  0.3295  0.7330
22538SOL    HW271113   0.658   2.554   5.451 -0.7212 -0.6229  0.4713
22539SOL     OW71114   2.655   0.276   1.029 -0.1071 -0.1568 -0.1565
22539SOL    HW171115   2.676   0.188   1.061  1.6653  0.7767  1.4645
22539SOL    HW271116   2.654   0.330   1.108  1.8582  1.8073 -1.3763
22540SOL     OW71117   5.972   9.423   3.347 -0.5239  0.3150 -0.0850
22540SOL    HW171118   6.037   9.410   3.416 -0.0893  0.6499 -0.4258
22540SOL    HW271119   5.892   9.447   3.393  0.1411  2.0212  0.2351
22541SOL     OW71120   2.644   6.189   6.281  0.2341  0.6031 -0.1965
22541SOL    HW171121   2.736   6.170   6.300 -0.4954 -0.4690  2.7760
22541SOL    HW271122   2.647   6.242   6.201  3.4516  1.1072  0.1176
22542SOL     OW71123   0.290   2.213   6.733 -0.2537  0.5377  0.6041
22542SOL    HW171124   0.318   2.290   6.781 -1.9466  0.9162  1.0487
22542SOL    HW271125   0.272   2.244   6.644  2.0552  0.0015 -0.1235
22543SOL     OW71126   2.349   7.396   4.258  0.4696  0.0957 -0.2736
22543SOL    HW171127   2.441   7.408   4.281  0.6775  1.0178 -1.5030
22543SOL    HW271128   2.343   7.306   4.227  1.2746  0.4431 -1.5113
22544SOL     OW71129   7.231   0.194   2.326  0.1535  0.0299  0.1092
22544SOL    HW171130   7.216   0.131   2.396 -0.2558 -0.4519 -0.3966
22544SOL    HW271131   7.177   0.162   2.253  0.0377  0.8971 -0.1968
22545SOL     OW71132  10.275   1.245   7.621  0.2868 -0.0465 -0.0189
22545SOL    HW171133  10.284   1.269   7.529  0.1085 -0.4819 -0.1525
22545SOL    HW271134  10.314   1.318   7.669  1.5200 -0.3694 -0.4798
22546SOL     OW71135   9.805   2.456   0.930 -0.7596 -0.1381 -0.3839
22546SOL    HW171136   9.779   2.377   0.978 -0.6080 -1.3436 -2.1821
22546SOL    HW271137   9.819   2.426   0.840  0.6159  1.6927 -0.8514
22547SOL     OW71138   4.726   6.473   8.356  0.0139 -0.1539  0.6498
22547SOL    HW171139   4.715   6.466   8.451 -2.6168 -0.1517  0.4177
22547SOL    HW271140   4.693   6.560   8.334  0.9808  0.0034 -0.2398
22548SOL     OW71141   3.086   7.552   0.098 -0.6513  0.0513 -0.5294
22548SOL    HW171142   3.160   7.508   0.057 -0.2830  0.9619 -0.8825
22548SOL    HW271143   3.069   7.627   0.041 -1.4412  0.1970 -0.1065
22549SOL     OW71144   3.793   1.299   2.857  0.4988 -0.0767 -0.3880
22549SOL    HW171145   3.741   1.376   2.835  0.0505 -0.3963 -0.4663
22549SOL    HW271146   3.867   1.301   2.797  0.4619  0.2616 -0.4237
22550SOL     OW71147   5.140   6.318  10.681  0.2774  0.8893  0.2603
22550SOL    HW171148   5.213   6.283  10.631  0.2255  0.7827  0.2577
22550SOL    HW271149   5.062   6.290  10.632  0.0322 -1.9378  1.9894
22551SOL     OW71150   9.448   8.213   4.691  0.0338  0.3789 -0.4033
22551SOL    HW171151   9.492   8.130   4.671  0.9070  1.0603 -1.4054
22551SOL    HW271152   9.479   8.274   4.624 -1.0396  1.3771 -0.0309
22552SOL     OW71153   7.065  10.183   9.953  0.4471  0.3079  0.1625
22552SOL    HW171154   7.076  10.263  10.005 -3.0772  1.3528 -0.4109
22552SOL    HW271155   7.045  10.115  10.018 -1.1636  0.9904  0.4362
22553SOL     OW71156   4.196   9.867  10.655 -0.1876  0.2083 -0.1077
22553SOL    HW171157   4.109   9.850  10.617 -0.8032  1.8406  0.4980
22553SOL    HW271158   4.186   9.845  10.748 -0.1079  0.8905  0.0655
22554SOL     OW71159   7.166   7.440  10.869 -0.1011  0.6485  0.3543
22554SOL    HW171160   7.184   7.359  10.917  1.6616  1.2795  0.8599
22554SOL    HW271161   7.117   7.412  10.792  0.3598 -0.8881  0.5766
22555SOL     OW71162   4.547   6.791   2.909  0.1271  0.1392  0.9362
22555SOL    HW171163   4.610   6.720   2.912  0.5039  0.4105 -0.1806
22555SOL    HW271164   4.476   6.763   2.968  0.8199 -0.6022  1.4310
22556SOL     OW71165   3.947   9.295   3.363  0.0224  0.5645  0.4354
22556SOL    HW171166   3.882   9.363   3.343 -1.0141 -1.0787 -2.3475
22556SOL    HW271167   4.025   9.322   3.313 -0.0590  0.2232  0.1237
22557SOL     OW71168   4.827   4.142   7.182  0.7007  0.0175  0.3604
22557SOL    HW171169   4.768   4.066   7.182  1.1926 -0.3714  0.6641
22557SOL    HW271170   4.769   4.218   7.176  0.2237 -0.3974 -0.4751
22558SOL     OW71171   0.157   6.832   0.890 -0.2750  0.0264  0.0967
22558SOL    HW171172   0.070   6.795   0.907 -1.0291  0.5389 -2.2637
22558SOL    HW271173   0.201   6.764   0.839 -0.3131  0.8382 -1.0509
22559SOL     OW71174   5.219   4.896   8.540  0.0586  0.2941 -0.5607
22559SOL    HW171175   5.152   4.859   8.484  0.0828  1.1554 -1.1856
22559SOL    HW271176   5.203   4.859   8.626  0.1767 -1.2543 -1.1863
22560SOL     OW71177   9.873   7.210   7.243  0.0667 -0.1009  0.0121
22560SOL    HW171178   9.833   7.293   7.217  0.6877  0.5587  1.0609
22560SOL    HW271179   9.947   7.199   7.184  0.3499  0.4242  0.2585
22561SOL     OW71180   7.795   3.448   6.383 -0.3873 -0.0894  0.2252
22561SOL    HW171181   7.701   3.435   6.378 -0.5658  1.2948 -0.5843
22561SOL    HW271182   7.830   3.402   6.307 -0.6041  0.7671 -0.4122
22562SOL     OW71183   8.978   2.910   9.266 -0.3976 -0.5648 -1.0920
22562SOL    HW171184   8.956   2.946   9.180 -0.3528 -0.8256 -1.2157
22562SOL    HW271185   8.894   2.895   9.308 -0.4771 -1.6425 -1.5985
22563SOL     OW71186   8.809   8.016   5.966 -0.1740 -0.3517 -0.0037
22563SOL    HW171187   8.738   8.055   6.016 -0.9662 -0.5459 -0.9502
22563SOL    HW271188   8.779   7.927   5.947  0.4324 -0.5215 -0.1976
22564SOL     OW71189   2.498  10.059   4.458 -0.5347  0.3250  0.2008
22564SOL    HW171190   2.521  10.143   4.498  1.3778  0.6676 -1.4645
22564SOL    HW271191   2.421  10.079   4.404 -0.2653  0.9569  0.0412
22565SOL     OW71192   9.948   3.132   7.217  0.1835 -0.5172  0.1623
22565SOL    HW171193   9.995   3.153   7.137 -0.2530 -1.8010 -0.4448
22565SOL    HW271194   9.938   3.217   7.262 -1.4910  0.6129 -2.1656
22566SOL     OW71195   7.052   9.553   0.703  0.4435  0.2085 -0.5448
22566SOL    HW171196   7.012   9.507   0.630 -0.1386 -0.6472  0.3001
22566SOL    HW271197   6.996   9.630   0.716 -0.3131 -0.4133 -0.0628
22567SOL     OW71198   5.093   5.095   5.216  0.1167  0.2537  0.0864
22567SOL    HW171199   5.183   5.121   5.197  0.3182 -0.9412 -0.7354
22567SOL    HW271200   5.039   5.163   5.176  0.6199 -0.5614 -2.1219
22568SOL     OW71201   0.915   3.285  10.230 -0.1329 -0.5487  0.4713
22568SOL    HW171202   1.008   3.267  10.240  0.1703  1.3696  1.7154
22568SOL    HW271203   0.910   3.341  10.152  0.0727  1.0415  1.5463
22569SOL     OW71204   2.046   8.790   5.373  0.0200  0.3344  0.0467
22569SOL    HW171205   2.020   8.768   5.284 -0.5108  1.0701  0.0149
22569SOL    HW271206   2.122   8.847   5.363  0.3011 -0.0228  0.0894
22570SOL     OW71207   7.341   3.290   9.588 -0.1066 -0.7650  0.7698
22570SOL    HW171208   7.254   3.272   9.551 -1.1684  1.4858  1.9645
22570SOL    HW271209   7.371   3.368   9.542  1.0255 -1.1369  0.8392
22571SOL     OW71210   0.866   0.317   0.361  0.2495 -0.7989  0.2311
22571SOL    HW171211   0.810   0.389   0.334 -0.0366 -0.6788  1.1161
22571SOL    HW271212   0.807   0.254   0.402  0.6928 -0.8721  0.7725
22572SOL     OW71213   3.838   4.248   6.527  0.2619 -0.2000 -0.3912
22572SOL    HW171214   3.746   4.264   6.548  0.2441  1.8528 -1.6826
22572SOL    HW271215   3.843   4.259   6.432  1.9089  0.2596 -0.2850
22573SOL     OW71216   2.378   8.161   3.189 -0.2092  0.3762  0.0261
22573SOL    HW171217   2.401   8.218   3.115 -0.6639 -0.9197 -1.1589
22573SOL    HW271218   2.431   8.194   3.262  2.0311  0.2900 -1.4507
22574SOL     OW71219   2.510   7.944   2.228  0.0816 -0.1803 -0.5696
22574SOL    HW171220   2.555   7.981   2.151 -0.6925  0.1475 -0.8747
22574SOL    HW271221   2.580   7.927   2.291  0.9546 -2.0205 -1.9532
22575SOL     OW71222   1.106   5.598   5.858  0.0085 -0.0888 -0.0394
22575SOL    HW171223   1.181   5.570   5.807  0.7551 -0.0552  1.0093
22575SOL    HW271224   1.104   5.693   5.849  1.0042  0.0587  1.1314
22576SOL     OW71225   6.956   1.059   9.151 -0.3067  0.1271 -0.0345
22576SOL    HW171226   6.968   1.154   9.153 -0.7868  0.3008 -2.5788
22576SOL    HW271227   7.027   1.027   9.095 -1.8581 -0.6342 -1.6726
22577SOL     OW71228   9.662  10.410   1.464  0.0263  0.3685 -0.2852
22577SOL    HW171229   9.566  10.415   1.458  0.1660  1.5936 -2.7521
22577SOL    HW271230   9.687  10.351   1.392  1.0713 -1.8641  1.7575
22578SOL     OW71231   9.214   9.987   5.627  0.2310 -0.2845  0.2586
22578SOL    HW171232   9.252  10.066   5.589 -0.8707 -0.4192 -1.1880
22578SOL    HW271233   9.264   9.915   5.589  0.3185 -0.3545  0.5005
22579SOL     OW71234   8.846   3.843   6.260 -0.5581  0.5728 -0.0971
22579SOL    HW171235   8.774   3.827   6.199 -1.5054  0.0578  1.1200
22579SOL    HW271236   8.925   3.821   6.211 -1.1803  1.5381 -1.5901
22580SOL     OW71237   7.539   8.148   6.292  0.2553  0.6976 -0.1372
22580SOL    HW171238   7.532   8.139   6.197 -1.2600 -1.0828  0.0854
22580SOL    HW271239   7.462   8.199   6.317 -0.2693 -0.2622  0.2655
22581SOL     OW71240   1.484   1.868   9.256 -0.2296  0.0804 -0.1972
22581SOL    HW171241   1.449   1.924   9.325  0.1338 -0.0993  0.1364
22581SOL    HW271242   1.540   1.805   9.302 -1.8939 -1.6007 -0.3669
22582SOL     OW71243   7.060   1.294   7.113 -0.1558  0.4582  0.5208
22582SOL    HW171244   7.079   1.202   7.131  0.5741  0.4281 -0.3107
22582SOL    HW271245   6.967   1.296   7.092  0.0585 -0.2903 -0.5876
22583SOL     OW71246   8.955   3.920   1.084  0.4031  0.4882 -0.1445
22583SOL    HW171247   8.908   3.886   1.160  1.3088  1.1828  0.7627
22583SOL    HW271248   9.016   3.851   1.060  1.0286  0.7688  0.5990
22584SOL     OW71249   8.551  10.548   0.889 -0.3758  0.6692 -0.0473
22584SOL    HW171250   8.593  10.518   0.809  0.0479 -0.9263  0.7181
22584SOL    HW271251   8.596  10.630   0.911 -0.3742  1.0187 -1.3094
22585SOL     OW71252   2.597   5.937  10.754  0.1359 -0.3572  0.1554
22585SOL    HW171253   2.542   5.938  10.676  1.0301 -2.5688 -0.5846
22585SOL    HW271254   2.586   6.024  10.793 -0.6816  0.6466 -2.1702
22586SOL     OW71255   1.734   1.558   3.029  0.0057 -0.5624  0.1773
22586SOL    HW171256   1.778   1.513   3.101 -0.1394  1.5908  1.6871
22586SOL    HW271257   1.801   1.562   2.960  0.6746 -1.2427  0.7667
22587SOL     OW71258   9.334   2.682  10.095  0.6040 -0.8003 -0.0820
22587SOL    HW171259   9.345   2.609  10.156 -1.1580 -0.9486  0.1115
22587SOL    HW271260   9.239   2.694  10.089  0.7960  0.2577 -1.5650
22588SOL     OW71261   3.233   6.627   5.564 -0.3794 -0.2773  0.2634
22588SOL    HW171262   3.296   6.694   5.538 -1.0460  0.4667  0.4962
22588SOL    HW271263   3.219   6.643   5.658  0.5793 -1.7125  0.6878
22589SOL     OW71264   7.078   4.361   2.741 -0.0293 -0.7216 -0.1323
22589SOL    HW171265   7.034   4.435   2.699  1.8172  0.5355 -0.0110
22589SOL    HW271266   7.131   4.401   2.810  0.2649 -2.2828  0.5820
22590SOL     OW71267   5.444   7.625   7.004 -0.0590  0.0421  0.3611
22590SOL    HW171268   5.382   7.555   6.981  0.3424 -1.0274  2.3010
22590SOL    HW271269   5.528   7.579   7.016  0.2998  0.9094  1.2947
22591SOL     OW71270   1.638   4.499   4.811 -0.2443  0.2911 -0.9315
22591SOL    HW171271   1.582   4.452   4.749 -0.5503  0.9829 -1.1900
22591SOL    HW271272   1.639   4.589   4.778  0.4271  0.4399 -0.5083
22592SOL     OW71273   0.802  10.954   4.806  0.1836  0.5231 -0.3905
22592SOL    HW171274   0.779  10.915   4.891 -0.5982  1.7102 -0.0330
22592SOL    HW271275   0.763  10.896   4.741 -2.9334  1.7894  0.1730
22593SOL     OW71276   5.197   8.320   3.478  0.3414 -0.6044  0.7888
22593SOL    HW171277   5.268   8.324   3.542  0.4834  1.3078  0.5798
22593SOL    HW271278   5.136   8.256   3.514  0.0961  0.8734  3.2387
22594SOL     OW71279   5.835   0.766   0.234  0.0934 -0.4884 -0.5124
22594SOL    HW171280   5.891   0.700   0.276 -0.3071 -1.0321 -0.8178
22594SOL    HW271281   5.830   0.738   0.143  1.1783  0.8311 -1.0015
22595SOL     OW71282   1.910   3.035   3.789  0.6002 -0.5386  0.0170
22595SOL    HW171283   1.945   3.084   3.715  1.2515 -1.5310 -0.3488
22595SOL    HW271284   1.982   2.980   3.817  0.5905  0.2935  1.8340
22596SOL     OW71285   2.799   4.357   5.887 -0.3888 -0.0496 -0.7941
22596SOL    HW171286   2.805   4.445   5.848 -1.1329  1.5829  2.4447
22596SOL    HW271287   2.734   4.367   5.957 -0.3753 -3.1927 -0.2168
22597SOL     OW71288   6.276   7.654   6.728  0.8081  0.2532 -0.6390
22597SOL    HW171289   6.368   7.642   6.704  0.5473 -2.3858 -0.5844
22597SOL    HW271290   6.229   7.651   6.644  0.6313  0.0188 -0.5303
22598SOL     OW71291   4.746   7.358   8.503 -0.5736  0.2392  0.3804
22598SOL    HW171292   4.812   7.315   8.448 -1.2269  1.6307 -1.6131
22598SOL    HW271293   4.665   7.310   8.484 -0.6914  0.3698  0.5547
22599SOL     OW71294  10.186   0.224  10.940 -0.0161 -0.2521  0.3608
22599SOL    HW171295  10.131   0.290  10.898 -0.9107 -1.2704 -0.1282
22599SOL    HW271296  10.207   0.261  11.026  1.5120  1.6919 -0.7636
22600SOL     OW71297   2.190  10.723   5.869  0.0094  0.4424 -0.6707
22600SOL    HW171298   2.112  10.776   5.858 -0.0310  0.7186  0.7452
22600SOL    HW271299   2.254  10.762   5.809 -1.1478 -0.3220 -2.5071
22601SOL     OW71300   7.906   3.443   6.664 -0.2491 -0.0238 -0.0291
22601SOL    HW171301   7.888   3.503   6.736 -0.1686 -0.0171 -0.0143
22601SOL    HW271302   7.825   3.440   6.614 -0.4756 -0.4384  0.3610
22602SOL     OW71303   5.116   2.715   9.218 -0.4693 -0.1402  0.1851
22602SOL    HW171304   5.065   2.781   9.172  0.8363  0.6967 -0.1038
22602SOL    HW271305   5.073   2.707   9.303 -1.4176  0.1097 -0.2614
22603SOL     OW71306   9.904   5.936   1.702 -0.8114  0.1659 -0.0425
22603SOL    HW171307   9.889   5.890   1.784 -1.4633 -1.2547 -0.9368
22603SOL    HW271308   9.999   5.935   1.691 -0.8208 -0.9909 -0.0566
22604SOL     OW71309   7.110   2.159   5.795 -0.2511  0.1564  0.2331
22604SOL    HW171310   7.052   2.228   5.828 -0.6363  0.1330 -0.3705
22604SOL    HW271311   7.057   2.113   5.730 -0.4430 -1.5292  1.5215
22605SOL     OW71312   9.577   2.792   6.341  0.3306  0.1000  0.0570
22605SOL    HW171313   9.569   2.876   6.387 -1.1653 -0.0429  0.1108
22605SOL    HW271314   9.497   2.745   6.365  1.2549 -1.4440  0.2163
22606SOL     OW71315   2.743   4.639   4.149 -0.0731 -0.2159  0.9547
22606SOL    HW171316   2.802   4.620   4.076  1.1657 -0.1745  1.9102
22606SOL    HW271317   2.781   4.592   4.223 -1.0124  0.1695  1.6925
22607SOL     OW71318   4.962   9.948   3.446  0.0612  0.0195 -0.0346
22607SOL    HW171319   4.938  10.027   3.398 -0.2963 -0.0187  0.0779
22607SOL    HW271320   4.930   9.876   3.392 -0.2016 -0.0277  0.1795
22608SOL     OW71321   2.783   1.374   3.676 -0.1281  0.2594  0.1241
22608SOL    HW171322   2.710   1.317   3.652  0.3085  0.1376 -1.0034
22608SOL    HW271323   2.799   1.426   3.597  0.8290  0.4772  0.4487
22609SOL     OW71324   5.048  10.112   4.661  0.1503  0.0113  0.3055
22609SOL    HW171325   5.142  10.105   4.646  0.3074 -1.4263  1.6892
22609SOL    HW271326   5.034  10.204   4.682  1.1150  0.3978 -0.6321
22610SOL     OW71327   1.561   5.796   5.695 -0.0747 -0.6812  0.0612
22610SOL    HW171328   1.622   5.741   5.745  0.1967 -1.0337 -0.6498
22610SOL    HW271329   1.617   5.847   5.637 -0.3721 -0.0869  0.2816
22611SOL     OW71330   3.995   8.119   6.425 -0.2795  0.5312 -0.0740
22611SOL    HW171331   4.007   8.213   6.437 -0.2292  0.6002 -0.6587
22611SOL    HW271332   3.910   8.111   6.382  0.2524  0.3820 -1.1087
22612SOL     OW71333   3.357   4.054  10.617  0.4793 -0.2840  0.0328
22612SOL    HW171334   3.427   4.101  10.570  1.1610 -0.6579  0.6626
22612SOL    HW271335   3.401   4.016  10.693 -0.3408 -0.8430  0.2322
22613SOL     OW71336   1.092   8.572   8.485  0.6087 -0.0093  0.8231
22613SOL    HW171337   1.176   8.577   8.531  0.7253 -1.1841  0.7513
22613SOL    HW271338   1.031   8.534   8.548  0.6460 -1.1447  0.1870
22614SOL     OW71339  10.540   9.071   0.705  0.1784 -0.1109  0.1005
22614SOL    HW171340  10.459   9.027   0.733 -0.3673 -0.0993 -1.3596
22614SOL    HW271341  10.607   9.003   0.712 -0.3586 -0.7436 -0.5926
22615SOL     OW71342   2.260   6.637   2.497  0.2833 -0.3203 -0.0010
22615SOL    HW171343   2.234   6.547   2.477  1.2238 -0.8990  1.3014
22615SOL    HW271344   2.302   6.668   2.417 -0.1050 -0.9973 -0.4821
22616SOL     OW71345   3.075   1.606   8.072  0.2446  0.3453  0.2362
22616SOL    HW171346   3.129   1.642   8.143  0.3381 -2.0312  1.4562
22616SOL    HW271347   3.076   1.512   8.087 -2.7475  0.0664 -0.8229
22617SOL     OW71348   0.899   3.594   9.797  0.0419 -0.3879  0.3316
22617SOL    HW171349   0.835   3.663   9.781  1.3948  0.9281  0.3745
22617SOL    HW271350   0.984   3.634   9.776  0.9063 -1.9235  0.7140
22618SOL     OW71351   5.593  10.777   9.223 -0.0002  0.0438  0.8277
22618SOL    HW171352   5.668  10.756   9.168  0.2661  1.2131  0.7192
22618SOL    HW271353   5.626  10.772   9.313 -0.1108 -0.6367  0.8310
22619SOL     OW71354   1.206   0.749   6.014  0.2916  0.5705  0.2696
22619SOL    HW171355   1.198   0.655   5.994 -0.8107  0.4106  1.3203
22619SOL    HW271356   1.150   0.792   5.950  1.0290  0.5611 -0.4056
22620SOL     OW71357   4.239   7.802   2.707 -0.2822  0.0797 -0.9267
22620SOL    HW171358   4.230   7.719   2.755  0.6283  0.3343 -0.2988
22620SOL    HW271359   4.320   7.793   2.658 -0.0485  0.6954 -0.6608
22621SOL     OW71360   4.154   7.605   0.080  0.3836  0.2826  0.2060
22621SOL    HW171361   4.230   7.663   0.089 -0.7180  1.6333  1.3084
22621SOL    HW271362   4.116   7.601   0.167 -0.8917 -0.2600 -0.3495
22622SOL     OW71363   0.976   3.704   0.432 -0.1547  0.3233 -0.4953
22622SOL    HW171364   0.979   3.782   0.489 -1.2986  0.2882 -0.3713
22622SOL    HW271365   1.014   3.734   0.349  0.1740  0.7844 -0.1876
22623SOL     OW71366  10.615   3.834   5.845 -0.3140  0.5412  0.2046
22623SOL    HW171367  10.540   3.865   5.793 -0.3200 -0.4134 -0.3724
22623SOL    HW271368  10.622   3.741   5.824 -0.5051  0.0370  2.1413
22624SOL     OW71369  10.200  10.497   7.652 -0.0540 -0.2499 -0.0197
22624SOL    HW171370  10.115  10.542   7.662  0.1220  0.7437 -2.3072
22624SOL    HW271371  10.257  10.563   7.612  1.4431 -1.3007  0.3123
22625SOL     OW71372   7.445   6.782   6.417 -0.7044 -0.3909  0.0371
22625SOL    HW171373   7.417   6.767   6.507  2.0759  0.5237  1.1750
22625SOL    HW271374   7.477   6.696   6.387  1.4408 -0.0539  1.1877
22626SOL     OW71375   8.082   7.530   1.646  0.0086 -0.0198  0.5369
22626SOL    HW171376   8.106   7.520   1.738  0.1306  0.2017  0.5311
22626SOL    HW271377   8.036   7.614   1.642  0.6628  0.3391  0.2712
22627SOL     OW71378  10.807   9.189   3.276 -0.0437 -0.0567 -0.0184
22627SOL    HW171379  10.723   9.217   3.313 -0.3777 -2.4385  1.2965
22627SOL    HW271380  10.783   9.141   3.197  0.3905  1.8816 -1.3890
22628SOL     OW71381   4.660   7.463   4.822 -0.3895  0.0617 -0.0627
22628SOL    HW171382   4.752   7.457   4.797  0.4984 -0.7099  2.9528
22628SOL    HW271383   4.622   7.379   4.795  0.3557 -0.5056  0.6311
22629SOL     OW71384   7.661   2.639   5.615 -0.2212  0.3342 -0.5178
22629SOL    HW171385   7.722   2.568   5.597 -0.7164 -0.3467  0.3584
22629SOL    HW271386   7.715   2.713   5.642  0.1793 -0.7846  1.9577
22630SOL     OW71387   7.624   7.351   0.571  0.2246 -0.2679 -0.0870
22630SOL    HW171388   7.552   7.347   0.507  0.6121 -0.5645 -0.5130
22630SOL    HW271389   7.638   7.260   0.597 -0.1734 -0.1074  0.7031
22631SOL     OW71390   7.989   5.650  10.504  0.0791 -0.5955  0.3564
22631SOL    HW171391   7.980   5.578  10.442  0.5605 -0.0614 -0.3474
22631SOL    HW271392   7.904   5.654  10.549 -0.2511 -1.0296 -0.2265
22632SOL     OW71393   8.792   4.422   0.626 -0.7462 -0.6896  0.2044
22632SOL    HW171394   8.811   4.438   0.719 -1.0368  0.0100  0.1461
22632SOL    HW271395   8.698   4.434   0.618 -0.5954  0.2167 -0.3651
22633SOL     OW71396  10.197   3.637  10.395  0.0768  0.3494  0.2293
22633SOL    HW171397  10.123   3.669  10.447  0.0939  1.3469 -0.3352
22633SOL    HW271398  10.157   3.607  10.313  0.4377  2.5204 -0.7996
22634SOL     OW71399   3.476   9.026   5.432  0.0729 -0.0184 -0.4000
22634SOL    HW171400   3.397   8.972   5.425  0.2375 -0.1672 -1.2586
22634SOL    HW271401   3.486   9.042   5.526 -3.1817  3.3204 -0.4118
22635SOL     OW71402   3.911   1.555   2.296  0.3460 -0.2801 -0.1425
22635SOL    HW171403   3.905   1.549   2.392  0.1756 -0.2657 -0.1517
22635SOL    HW271404   3.822   1.537   2.266  0.6167 -1.3061 -0.3486
22636SOL     OW71405   1.613   1.156   0.897  0.2257 -0.2935  0.1605
22636SOL    HW171406   1.518   1.147   0.898  0.2796 -0.8621  1.7155
22636SOL    HW271407   1.628   1.244   0.863 -0.8917  0.2347  0.9908
22637SOL     OW71408   7.252  10.627   0.714  0.4031  0.3791  0.7904
22637SOL    HW171409   7.160  10.652   0.715  0.6384  1.5767 -1.5885
22637SOL    HW271410   7.275  10.624   0.621  2.5819 -0.6518  1.3062
22638SOL     OW71411   5.467   4.585   1.507  0.2173 -0.1829  0.3250
22638SOL    HW171412   5.493   4.535   1.430  1.3281 -2.2623  1.9526
22638SOL    HW271413   5.395   4.535   1.545 -0.4016  0.8878  0.6055
22639SOL     OW71414   2.486   9.417   3.427  0.0185  0.1178 -0.0942
22639SOL    HW171415   2.557   9.364   3.465  1.5252  1.2448 -1.2135
22639SOL    HW271416   2.525   9.457   3.350 -2.0635  0.2809 -1.1353
22640SOL     OW71417  10.504   9.824   5.837 -0.5513 -0.6419 -0.2446
22640SOL    HW171418  10.512   9.887   5.765 -0.9746 -0.8972 -0.5194
22640SOL    HW271419  10.581   9.767   5.828 -0.6798 -0.7649 -0.5897
22641SOL     OW71420   2.600   9.393   5.110 -0.3164  0.1299  0.2813
22641SOL    HW171421   2.651   9.404   5.190 -0.4592  0.4567  0.3309
22641SOL    HW271422   2.564   9.480   5.093 -1.3033 -0.2206  0.5496
22642SOL     OW71423   1.306   3.304   2.598 -0.1002 -0.5250  0.3663
22642SOL    HW171424   1.242   3.362   2.639  2.1385  1.2429  1.6432
22642SOL    HW271425   1.284   3.306   2.505 -1.2535  0.8852  0.6279
22643SOL     OW71426  10.076   7.058   4.728 -0.0527  0.1536 -0.1187
22643SOL    HW171427  10.087   7.149   4.755 -2.2249  0.3863  0.2146
22643SOL    HW271428  10.113   7.054   4.640 -1.1187  1.7183 -0.6872
22644SOL     OW71429   3.356   0.964   5.534 -0.2412 -0.0305 -0.0019
22644SOL    HW171430   3.299   0.938   5.461  0.4770 -0.4674 -0.4188
22644SOL    HW271431   3.301   1.021   5.588 -0.5782  0.9064 -1.2745
22645SOL     OW71432   4.043   4.634   0.396 -0.3668 -0.2317  0.6491
22645SOL    HW171433   4.003   4.600   0.316 -0.5936 -0.5877  0.9127
22645SOL    HW271434   3.980   4.698   0.429 -0.3837 -0.2580  0.6678
22646SOL     OW71435   1.071   2.644   0.271 -0.2704  0.4362 -0.1575
22646SOL    HW171436   1.160   2.610   0.265 -0.0302  0.5226  2.1361
22646SOL    HW271437   1.080   2.739   0.262 -0.0520  0.4876  0.5499
22647SOL     OW71438   1.410   2.514   1.057  0.2323  0.8483  0.4616
22647SOL    HW171439   1.476   2.518   0.988 -0.4124 -0.4360 -0.2779
22647SOL    HW271440   1.346   2.581   1.035 -0.7354 -0.5042 -1.0672
22648SOL     OW71441   2.302   0.845   1.741 -0.2012 -0.1596  0.0487
22648SOL    HW171442   2.310   0.750   1.745 -0.3219 -0.2688 -1.6390
22648SOL    HW271443   2.228   0.866   1.797  0.2651 -0.9847  0.9869
22649SOL     OW71444   0.475   0.401   0.701  0.3870 -0.0353 -1.1694
22649SOL    HW171445   0.480   0.391   0.606  1.0424 -1.0829 -1.0474
22649SOL    HW271446   0.404   0.464   0.715 -1.0299 -1.2847 -2.2970
22650SOL     OW71447   9.630   9.573   0.869  0.1291  0.3412  0.0255
22650SOL    HW171448   9.549   9.577   0.919  0.5330  2.3109  0.6292
22650SOL    HW271449   9.602   9.554   0.779 -0.6578 -2.4255  0.7569
22651SOL     OW71450  10.696   1.939   0.619  0.3996 -0.1704  0.4931
22651SOL    HW171451  10.641   1.863   0.604  0.2520  0.2167 -1.1401
22651SOL    HW271452  10.778   1.919   0.575  1.1256 -0.2229  1.8298
22652SOL     OW71453   8.393   0.646   8.835  0.4921 -0.0353  0.9801
22652SOL    HW171454   8.338   0.600   8.771  0.7586  2.7494 -1.4740
22652SOL    HW271455   8.331   0.687   8.895  0.1153 -0.6433  1.0150
22653SOL     OW71456   2.985   5.115  10.754 -0.2491  0.0109  0.2280
22653SOL    HW171457   2.897   5.103  10.717 -1.3263  0.7637  2.3857
22653SOL    HW271458   3.021   5.026  10.756 -0.8171 -0.2776 -0.9248
22654SOL     OW71459   7.569   6.036   2.385  0.2004  0.5861 -0.0869
22654SOL    HW171460   7.508   6.076   2.323 -1.0110  0.3836  0.9374
22654SOL    HW271461   7.648   6.089   2.378  0.0574  0.6492 -1.6952
22655SOL     OW71462   4.974   0.611   0.751 -0.2178 -0.1826 -0.3782
22655SOL    HW171463   4.915   0.679   0.783 -1.3277 -0.7767 -1.1213
22655SOL    HW271464   5.026   0.588   0.828 -1.0886  0.2197  0.3575
22656SOL     OW71465   4.203   5.452   0.051  0.1345 -0.1666  0.1349
22656SOL    HW171466   4.174   5.491  -0.032  0.6646 -1.1962 -0.5534
22656SOL    HW271467   4.195   5.358   0.037 -2.3062 -0.3775  2.1818
22657SOL     OW71468   8.648   7.690   7.168  0.4543  0.2095 -0.3719
22657SOL    HW171469   8.563   7.710   7.206 -0.1014 -0.5334 -1.1925
22657SOL    HW271470   8.639   7.601   7.133  1.8342 -0.2357  0.3100
22658SOL     OW71471   9.154   4.127   7.121  0.1872 -0.4333  0.6609
22658SOL    HW171472   9.140   4.129   7.026 -2.4736  2.3599  0.9768
22658SOL    HW271473   9.085   4.070   7.154  0.8925 -1.1171  0.9747
22659SOL     OW71474   1.931   7.747   3.553 -0.0079 -0.2504 -0.1636
22659SOL    HW171475   1.953   7.807   3.481 -2.1508 -0.5528 -1.1590
22659SOL    HW271476   1.990   7.771   3.623 -0.2639  2.5595 -0.7858
22660SOL     OW71477  10.529  10.005   5.635  0.1279 -0.0555  0.0130
22660SOL    HW171478  10.477   9.998   5.555 -0.1574 -0.2756  0.2137
22660SOL    HW271479  10.601  10.063   5.612 -0.7062  0.9921 -0.0196
22661SOL     OW71480   5.673   0.478   8.562  0.1067  1.1152  0.0518
22661SOL    HW171481   5.602   0.517   8.613 -0.5823  2.0436 -1.5297
22661SOL    HW271482   5.707   0.551   8.510  0.8955  0.2496 -0.6813
22662SOL     OW71483   6.910   7.261   3.472 -0.3450 -0.2140  0.3045
22662SOL    HW171484   6.926   7.285   3.380 -2.1311  0.4715  0.1246
22662SOL    HW271485   6.997   7.251   3.509  0.6218  3.8710 -0.3715
22663SOL     OW71486   4.937   7.946   2.432 -0.2734 -0.6882  0.2270
22663SOL    HW171487   4.960   7.893   2.509 -0.2143  0.4498  1.0164
22663SOL    HW271488   4.846   7.974   2.448 -0.6130 -1.2794 -0.6147
22664SOL     OW71489   8.903   9.542   9.825 -0.5282  0.5483  0.1637
22664SOL    HW171490   8.888   9.555   9.732 -3.2298 -0.1201  0.4266
22664SOL    HW271491   8.907   9.447   9.836  2.3892  0.6049  0.4636
22665SOL     OW71492   5.090  10.531   6.911  0.5794 -0.3828  0.4960
22665SOL    HW171493   5.162  10.511   6.851  0.0023 -0.4797 -0.1781
22665SOL    HW271494   5.013  10.536   6.855  0.3514  1.6415  0.9352
22666SOL     OW71495   3.723   4.187  10.892 -0.6634 -0.8558  0.1969
22666SOL    HW171496   3.687   4.273  10.917 -0.5461 -0.4142 -1.0718
22666SOL    HW271497   3.793   4.171  10.955 -0.7254 -0.0444  0.4866
22667SOL     OW71498   8.325   3.959   4.636 -0.4851  0.0622  0.0310
22667SOL    HW171499   8.273   3.988   4.561 -2.6934 -0.5687  1.2202
22667SOL    HW271500   8.339   4.038   4.688 -0.9851  0.1023  0.1098
22668SOL     OW71501  10.844   9.235  10.271  0.0866  0.2593 -0.0014
22668SOL    HW171502  10.919   9.177  10.285 -0.6322 -0.2568  2.1017
22668SOL    HW271503  10.856   9.304  10.336 -2.5035 -1.1748  2.1848
22669SOL     OW71504   2.606   0.134   7.113 -0.2405 -0.2196 -0.0816
22669SOL    HW171505   2.651   0.060   7.153 -1.9756 -1.7324 -0.7863
22669SOL    HW271506   2.514   0.108   7.112 -0.8125  1.6688 -1.0098
22670SOL     OW71507   2.694   5.608   2.403 -0.4198 -0.1095 -0.0794
22670SOL    HW171508   2.646   5.567   2.475 -0.9204  0.6806  0.0448
22670SOL    HW271509   2.726   5.690   2.440  0.9259 -0.5526 -0.2016
22671SOL     OW71510   6.348   5.585   5.639 -0.5336  0.4853 -0.3158
22671SOL    HW171511   6.404   5.622   5.572  1.1872 -2.3599 -0.5931
22671SOL    HW271512   6.324   5.498   5.606 -1.3641 -0.1750  1.8082
22672SOL     OW71513   2.043   6.851   3.902  0.2854  0.1759  0.2369
22672SOL    HW171514   2.044   6.904   3.981 -1.3033  2.7484 -1.3203
22672SOL    HW271515   2.091   6.771   3.925  0.4087  1.0835  3.5405
22673SOL     OW71516   0.555   1.000   7.836 -0.7014  0.2254  0.2447
22673SOL    HW171517   0.602   1.011   7.918  0.3717  1.4888 -0.5050
22673SOL    HW271518   0.475   1.051   7.846 -0.9574 -0.2687  0.7763
22674SOL     OW71519   2.869   7.327   4.759  0.6502 -0.1990  0.0987
22674SOL    HW171520   2.893   7.419   4.772  0.5128 -0.1230 -0.1692
22674SOL    HW271521   2.941   7.278   4.799  1.3047  0.0315 -0.7604
22675SOL     OW71522   1.334   5.510   5.419 -0.4021 -0.3043 -1.1672
22675SOL    HW171523   1.417   5.538   5.459 -0.7980 -0.8600  0.0999
22675SOL    HW271524   1.331   5.556   5.336  0.2957  1.2359 -0.3885
22676SOL     OW71525   5.449   1.810   7.780 -0.5772 -0.0669 -0.3206
22676SOL    HW171526   5.387   1.872   7.742  0.4153  1.4861  0.4834
22676SOL    HW271527   5.521   1.807   7.716  0.8428  2.1328  1.0325
22677SOL     OW71528   0.878   1.374  10.505 -0.0683 -0.0494  0.3319
22677SOL    HW171529   0.971   1.356  10.495  0.1657  0.8336  0.7663
22677SOL    HW271530   0.874   1.469  10.516 -0.9430 -0.1812  1.2292
22678SOL     OW71531   2.023   7.536   9.561  0.1216  1.0152  0.3935
22678SOL    HW171532   2.018   7.596   9.636 -1.8033  0.7237  0.5536
22678SOL    HW271533   1.984   7.586   9.488  0.2952  0.6556  0.0518
22679SOL     OW71534   9.095   0.464  10.711 -0.1769 -0.3249  0.5229
22679SOL    HW171535   9.147   0.437  10.636  0.4964  0.3740  0.7166
22679SOL    HW271536   9.085   0.385  10.764 -0.1262 -0.6763  0.0104
22680SOL     OW71537   1.295   2.234   9.798 -0.4863  0.3217  0.1280
22680SOL    HW171538   1.213   2.264   9.837  0.8417  2.4086  1.5253
22680SOL    HW271539   1.354   2.223   9.872  0.1158 -2.7495 -0.6681
22681SOL     OW71540   6.427  10.827   8.690 -0.4690 -0.8348 -0.4228
22681SOL    HW171541   6.504  10.882   8.677 -2.0356  1.9069  0.9165
22681SOL    HW271542   6.453  10.741   8.658  3.8997 -0.7274  2.0887
22682SOL     OW71543   7.232   5.246   6.696 -0.2449 -0.5169 -0.5454
22682SOL    HW171544   7.222   5.189   6.620  1.3857 -2.6486  0.7334
22682SOL    HW271545   7.226   5.335   6.660  1.3855 -1.4070 -3.3093
22683SOL     OW71546   5.437   5.818  10.782  1.0037  0.2977 -0.2555
22683SOL    HW171547   5.423   5.723  10.781  1.2661  0.2382 -2.3873
22683SOL    HW271548   5.414   5.845  10.871 -0.1756 -1.5989  0.0626
22684SOL     OW71549   6.449   8.025   6.484 -0.2977  0.1703  0.2080
22684SOL    HW171550   6.540   8.011   6.458 -0.6782 -2.4373  0.0176
22684SOL    HW271551   6.399   8.022   6.402 -0.8163 -1.5412  0.5336
22685SOL     OW71552   7.065   5.741   8.799  0.2205 -0.4036 -0.3956
22685SOL    HW171553   7.006   5.807   8.835 -0.5314 -0.7568 -0.9584
22685SOL    HW271554   7.093   5.777   8.715 -0.7375 -1.0714 -1.0329
22686SOL     OW71555   6.512   1.762   9.284  0.2115 -0.0010  0.2441
22686SOL    HW171556   6.536   1.673   9.310  1.4813  0.1834 -0.2125
22686SOL    HW271557   6.460   1.795   9.358 -2.3977 -1.9034 -0.5915
22687SOL     OW71558   5.272   4.326   4.284 -0.0089  0.0274 -0.8050
22687SOL    HW171559   5.241   4.396   4.341 -0.9123  0.1916 -1.4771
22687SOL    HW271560   5.367   4.323   4.299 -0.2014  0.2227  0.5047
22688SOL     OW71561  10.333   1.788   8.497  0.3463  0.7265 -0.3691
22688SOL    HW171562  10.259   1.847   8.487 -0.2752 -0.3699 -3.2912
22688SOL    HW271563  10.326   1.728   8.423  1.3994 -2.5304  1.9384
22689SOL     OW71564  10.535   0.077   7.151 -0.2154 -1.1337  0.7763
22689SOL    HW171565  10.483  -0.002   7.138 -0.9010 -0.5497 -0.2056
22689SOL    HW271566  10.474   0.149   7.137  0.6178 -0.4234  0.6493
22690SOL     OW71567   7.574   9.209   3.128  0.2002 -0.5290  0.0377
22690SOL    HW171568   7.642   9.276   3.125 -0.2645  0.0240  1.2302
22690SOL    HW271569   7.595   9.150   3.056  1.3149  0.2298 -0.2785
22691SOL     OW71570   7.279   5.541   1.308 -0.0833 -0.0313 -0.2518
22691SOL    HW171571   7.338   5.524   1.235  0.1252  0.7144 -0.2693
22691SOL    HW271572   7.275   5.637   1.314  0.4610 -0.0778  1.1652
22692SOL     OW71573   0.918   1.021   3.927  0.1444  0.1013 -0.3792
22692SOL    HW171574   0.921   0.937   3.881  0.6957 -0.1916  0.1678
22692SOL    HW271575   0.858   1.075   3.876 -1.6314 -1.2000  0.2314
22693SOL     OW71576   8.033   8.717   3.006  0.1487  0.1172  0.7056
22693SOL    HW171577   8.070   8.692   3.091  0.4762 -2.4567 -0.0883
22693SOL    HW271578   8.107   8.709   2.945 -0.5614 -0.2592 -0.1311
22694SOL     OW71579  10.562   0.886  10.904  0.5249 -0.5515 -0.3443
22694SOL    HW171580  10.545   0.975  10.934  0.3281  0.4164 -3.0702
22694SOL    HW271581  10.476   0.847  10.892  0.6103 -1.1557  0.8421
22695SOL     OW71582   5.095   4.559   1.838 -0.2794  0.2826 -0.3009
22695SOL    HW171583   5.180   4.603   1.828 -1.3692  2.3630 -1.0969
22695SOL    HW271584   5.048   4.612   1.902 -1.2016 -0.4809 -0.3329
22696SOL     OW71585   7.372   3.047   8.765  0.0941 -0.4080 -0.0473
22696SOL    HW171586   7.351   2.973   8.709 -1.8213 -0.2797  0.4180
22696SOL    HW271587   7.309   3.114   8.741  0.7610  0.4962  0.6477
22697SOL     OW71588   2.576   6.739   8.373  0.2640  0.2988  0.0439
22697SOL    HW171589   2.571   6.818   8.319 -2.2799 -0.7476 -1.4112
22697SOL    HW271590   2.637   6.682   8.327  0.4197  0.5611 -0.0797
22698SOL     OW71591   3.578   2.959   6.050 -0.8172  0.1582  0.5807
22698SOL    HW171592   3.491   2.921   6.040  0.9888 -4.0368 -1.6275
22698SOL    HW271593   3.603   2.985   5.961  0.6963 -0.1607  0.8861
22699SOL     OW71594   3.716   3.550   9.305  0.2503  0.4391  0.6803
22699SOL    HW171595   3.626   3.583   9.304 -0.0738 -0.2974  2.5581
22699SOL    HW271596   3.727   3.511   9.218 -0.6147  2.0598 -0.2232
22700SOL     OW71597   0.890   7.328  10.220  0.1574  0.1552 -0.1578
22700SOL    HW171598   0.879   7.330  10.315 -1.5683 -0.1744 -0.3182
22700SOL    HW271599   0.985   7.325  10.207  0.4305  0.3169  1.5395
22701SOL     OW71600  10.126   8.238   9.480 -0.2430  0.3595 -0.1975
22701SOL    HW171601  10.065   8.188   9.426 -0.6382  3.0004 -2.3921
22701SOL    HW271602  10.203   8.249   9.425 -0.7798  3.4147 -0.5102
22702SOL     OW71603   4.438   5.909  10.061  0.0353 -0.3542 -0.2691
22702SOL    HW171604   4.352   5.871  10.079  0.0160 -0.4890 -0.6331
22702SOL    HW271605   4.496   5.834  10.049  0.0006 -0.2728 -0.9801
22703SOL     OW71606   3.571   7.654   1.975  0.7390  0.6119 -0.0105
22703SOL    HW171607   3.648   7.598   1.985  0.2842  0.1090  0.7714
22703SOL    HW271608   3.554   7.688   2.063  1.5597  2.7551 -0.6373
22704SOL     OW71609   1.568   6.991   3.920  0.2619 -0.0767 -0.4219
22704SOL    HW171610   1.600   6.924   3.860  0.4293 -1.5911  1.2620
22704SOL    HW271611   1.647   7.025   3.963  0.1675  1.1611 -1.1651
22705SOL     OW71612  10.653   7.272   5.999 -0.0941 -0.0224  0.6833
22705SOL    HW171613  10.738   7.292   6.039  0.2347 -1.1530  0.5782
22705SOL    HW271614  10.608   7.357   5.996  1.6015  0.8916 -0.6501
22706SOL     OW71615   3.381   7.298   5.363 -0.7869  0.0752 -0.1243
22706SOL    HW171616   3.334   7.370   5.321 -0.1324 -0.3971 -1.7409
22706SOL    HW271617   3.453   7.278   5.303 -1.1278 -2.1137  0.1114
22707SOL     OW71618   7.368   2.145   8.861 -0.2459  0.0687  0.5496
22707SOL    HW171619   7.335   2.078   8.800 -2.9856  1.8472 -0.0926
22707SOL    HW271620   7.291   2.174   8.909  0.9669  2.3481  1.2457
22708SOL     OW71621   0.399   7.466   9.934 -0.7715 -0.4288 -0.5285
22708SOL    HW171622   0.412   7.462  10.029  1.1780  0.1299 -0.7252
22708SOL    HW271623   0.342   7.542   9.922  0.8205  0.9382  0.0983
22709SOL     OW71624   5.184   7.291   1.701 -0.4405 -0.5121 -0.2990
22709SOL    HW171625   5.270   7.325   1.676  0.5062 -0.2948  2.8585
22709SOL    HW271626   5.132   7.369   1.722 -0.3533 -0.7235  0.7754
22710SOL     OW71627   0.208   7.736   8.284  0.3079 -0.1780 -0.1951
22710SOL    HW171628   0.206   7.786   8.203  0.7892  0.2602  0.0516
22710SOL    HW271629   0.171   7.651   8.262 -0.0214  0.1085 -0.7504
22711SOL     OW71630   0.225   3.219  10.436  0.4678 -0.0719 -0.5145
22711SOL    HW171631   0.290   3.160  10.397  0.3665 -0.9850  0.6248
22711SOL    HW271632   0.244   3.216  10.530 -3.4606 -3.4121  0.4688
22712SOL     OW71633   5.997   5.107   7.350 -0.6345 -0.2412 -0.3654
22712SOL    HW171634   5.972   5.117   7.259 -0.2274  1.3125 -0.3266
22712SOL    HW271635   5.966   5.019   7.374 -1.2481 -0.4402 -1.8157
22713SOL     OW71636   8.925   5.267   3.667  0.1554 -0.4696  0.6621
22713SOL    HW171637   8.868   5.340   3.690  0.2632  0.3323 -1.3462
22713SOL    HW271638   9.012   5.294   3.693  0.0735 -0.2311  0.6865
22714SOL     OW71639  10.074   6.056   8.313 -0.1859  0.2698  0.7995
22714SOL    HW171640  10.130   6.094   8.245 -0.0413 -0.6404  0.3919
22714SOL    HW271641  10.061   5.965   8.284 -3.5190  0.9381 -0.2438
22715SOL     OW71642   1.623   1.734   4.801 -0.4268 -0.3165 -0.3071
22715SOL    HW171643   1.569   1.814   4.798 -0.3393 -0.2443  0.0190
22715SOL    HW271644   1.643   1.716   4.710 -1.5090 -0.6818 -0.4959
22716SOL     OW71645   7.305   0.322  10.198 -0.8671 -0.6350  0.5896
22716SOL    HW171646   7.340   0.262  10.132  0.4320 -2.6064  2.9215
22716SOL    HW271647   7.269   0.394  10.147  2.3747 -0.7302 -2.2070
22717SOL     OW71648   6.795   8.425   2.998 -0.5158  0.1628 -0.3116
22717SOL    HW171649   6.829   8.348   3.044  0.8086 -0.2160 -1.8153
22717SOL    HW271650   6.870   8.459   2.949 -1.3583  1.7583 -0.5609
22718SOL     OW71651   5.493   8.044  10.975 -0.1393  0.5926  0.6142
22718SOL    HW171652   5.534   8.122  10.937 -0.0806  0.0445 -0.4924
22718SOL    HW271653   5.557   8.012  11.039  1.2759 -0.3088 -1.1648
22719SOL     OW71654  10.445   5.571   7.170 -0.1325  0.0321  0.1008
22719SOL    HW171655  10.395   5.637   7.218 -0.1161 -0.1662  0.3891
22719SOL    HW271656  10.451   5.497   7.229  0.8419  0.1964  0.2222
22720SOL     OW71657   1.147   3.948   6.026 -0.6214  0.4468  0.3153
22720SOL    HW171658   1.241   3.970   6.022 -0.0811 -1.5313  0.8872
22720SOL    HW271659   1.144   3.856   6.001 -2.4983  0.5910 -0.1040
22721SOL     OW71660   0.095   8.529   4.689 -0.0954 -0.0544  0.1076
22721SOL    HW171661   0.163   8.481   4.736 -1.4557 -1.5999  0.5775
22721SOL    HW271662   0.041   8.462   4.649 -1.2461  1.1320 -0.4183
22722SOL     OW71663   7.682   3.931  10.535 -0.2009  0.5451 -0.3308
22722SOL    HW171664   7.750   3.871  10.505  0.8309  1.6699 -0.3425
22722SOL    HW271665   7.615   3.927  10.467 -0.6561 -1.3607  0.1974
22723SOL     OW71666   6.722   2.267   6.137 -0.1582 -0.1926 -1.1819
22723SOL    HW171667   6.666   2.236   6.066 -1.6118  0.3729 -0.3339
22723SOL    HW271668   6.668   2.258   6.216 -0.1652  3.0207 -0.6731
22724SOL     OW71669   0.755   9.442   5.129  0.0764  0.6739 -0.2986
22724SOL    HW171670   0.695   9.496   5.180  0.0663 -0.7096  1.2749
22724SOL    HW271671   0.838   9.490   5.131 -0.8250  2.4430 -2.2267
22725SOL     OW71672   4.706   0.756   6.657  0.2948 -0.8628 -0.1128
22725SOL    HW171673   4.692   0.715   6.571  1.0514  2.6689 -2.1129
22725SOL    HW271674   4.799   0.774   6.660 -0.1217  1.4988  0.1838
22726SOL     OW71675   7.204   4.268   3.337  0.4095  1.0188  0.5275
22726SOL    HW171676   7.202   4.244   3.244 -0.8970  1.1038  0.5116
22726SOL    HW271677   7.133   4.332   3.347  1.8353  2.5864  1.1914
22727SOL     OW71678   2.905   7.823   5.150  0.6019  0.3797  0.2591
22727SOL    HW171679   2.890   7.741   5.197  1.5724 -0.0897 -0.2268
22727SOL    HW271680   2.994   7.848   5.173  0.2658  1.3793  0.5054
22728SOL     OW71681   8.574   0.498   8.192  0.4856 -0.1765  0.5446
22728SOL    HW171682   8.569   0.428   8.257 -1.3405 -0.4837  0.1054
22728SOL    HW271683   8.484   0.525   8.178  0.9736  0.8681 -0.8203
22729SOL     OW71684   9.085   4.018   3.747 -0.1343 -0.0075  0.6234
22729SOL    HW171685   9.010   3.979   3.702 -0.1569  0.0514  0.6094
22729SOL    HW271686   9.067   4.112   3.746  0.6245  0.1420 -0.6043
22730SOL     OW71687  10.457   5.082   5.605  0.4073 -0.3799 -0.0996
22730SOL    HW171688  10.395   5.031   5.553 -0.2853 -1.7638  1.9413
22730SOL    HW271689  10.421   5.170   5.606 -1.0169 -0.9346  0.2002
22731SOL     OW71690   3.796   5.678   5.148  0.1833  0.3969  0.1932
22731SOL    HW171691   3.876   5.728   5.167 -0.2558  0.9731  0.5810
22731SOL    HW271692   3.826   5.602   5.099  1.1360 -0.1416  1.5774
22732SOL     OW71693   7.946   2.193   5.770  0.4127  0.1393 -0.0460
22732SOL    HW171694   8.002   2.214   5.845  0.3527  0.0065  0.0363
22732SOL    HW271695   7.863   2.237   5.789  0.4543  0.2500 -0.1182
22733SOL     OW71696   3.150   8.851   4.994  0.3336 -0.0381  0.0911
22733SOL    HW171697   3.200   8.770   4.984  0.3763 -0.1727  1.2764
22733SOL    HW271698   3.061   8.822   5.014 -0.0351  0.2116 -1.0803
22734SOL     OW71699   8.953   5.758   6.197 -0.7549 -0.0916 -0.0823
22734SOL    HW171700   9.000   5.761   6.280 -0.9919  0.2666  0.0415
22734SOL    HW271701   8.902   5.839   6.195  0.3035  0.5813 -1.2063
22735SOL     OW71702   9.083   4.714   1.327  0.5283 -0.3434  0.1067
22735SOL    HW171703   9.068   4.762   1.245  3.2378 -0.3598 -0.5013
22735SOL    HW271704   9.003   4.664   1.340 -0.1623 -0.0440 -2.3537
22736SOL     OW71705   9.185   4.693   0.826 -0.2952 -0.2257  0.1462
22736SOL    HW171706   9.154   4.647   0.749 -1.5799 -0.2797  0.6737
22736SOL    HW271707   9.169   4.633   0.899 -1.3777  0.7504  0.7535
22737SOL     OW71708   6.885   7.023   1.606  0.3362  0.0312  0.0352
22737SOL    HW171709   6.960   6.965   1.591  1.2285  0.7632  1.3878
22737SOL    HW271710   6.910   7.105   1.563  1.0727  0.7941  1.8182
22738SOL     OW71711   5.739   0.726   8.416 -0.1134  0.2955 -0.3489
22738SOL    HW171712   5.782   0.784   8.479 -0.7489 -0.2716  0.6377
22738SOL    HW271713   5.802   0.717   8.345  1.8084 -1.2036  1.4337
22739SOL     OW71714   5.804   7.267   1.284 -0.0746 -0.7567 -0.2825
22739SOL    HW171715   5.855   7.212   1.225  1.5837  2.2731 -1.8551
22739SOL    HW271716   5.734   7.302   1.230  2.0009  2.8008 -0.9924
22740SOL     OW71717   5.645   8.997   3.732 -0.1087 -0.1462  0.0858
22740SOL    HW171718   5.582   9.007   3.804 -0.7885  0.4709 -0.5756
22740SOL    HW271719   5.676   8.906   3.740  0.3921  0.1234  1.5929
22741SOL     OW71720   6.875   9.377   5.822  0.2317  0.2933  0.0975
22741SOL    HW171721   6.963   9.339   5.821 -0.2955 -1.0940  1.3443
22741SOL    HW271722   6.884   9.456   5.876  0.0840 -1.8161  3.4908
22742SOL     OW71723   4.634   0.305   4.298  0.0518  0.4348 -0.0225
22742SOL    HW171724   4.673   0.389   4.323  1.1995  0.0328 -0.3772
22742SOL    HW271725   4.541   0.315   4.316  0.3319  1.3990  0.9878
22743SOL     OW71726   3.808   8.949   3.776 -0.3115 -0.0526  0.4054
22743SOL    HW171727   3.781   8.873   3.725 -0.3123  0.0309  0.2777
22743SOL    HW271728   3.786   9.024   3.719  0.9218 -0.0162 -0.0430
22744SOL     OW71729   9.363   1.586   8.643 -0.0980 -0.1868  0.6450
22744SOL    HW171730   9.302   1.561   8.713 -0.7684 -0.4154 -0.0152
22744SOL    HW271731   9.307   1.600   8.567  0.3675  2.0884  0.6504
22745SOL     OW71732  10.116   0.953   5.005  0.1227  0.4415  0.1713
22745SOL    HW171733  10.119   1.047   4.987  2.2336 -0.0106 -2.2863
22745SOL    HW271734  10.159   0.944   5.090 -1.4745  1.7745  1.1874
22746SOL     OW71735   4.759   9.104   7.496  0.2717 -0.0236  0.3527
22746SOL    HW171736   4.705   9.182   7.509  0.2220 -0.0712  0.4331
22746SOL    HW271737   4.755   9.058   7.580  1.1396  0.4082  0.6407
22747SOL     OW71738   7.914   5.897   4.656  0.2641 -0.0606  0.4853
22747SOL    HW171739   7.844   5.944   4.702  0.2995 -0.5735  1.0598
22747SOL    HW271740   7.993   5.948   4.674  0.2888 -0.2910  1.0461
22748SOL     OW71741   0.408   2.542   2.608 -0.2143 -0.0059 -0.2262
22748SOL    HW171742   0.437   2.465   2.558  0.3701 -0.9065  1.4268
22748SOL    HW271743   0.478   2.556   2.672  1.0442  3.5554 -2.0951
22749SOL     OW71744  10.967   2.877   3.844  0.0342 -0.2618 -0.1955
22749SOL    HW171745  11.052   2.914   3.820 -0.6924  1.4461 -0.2666
22749SOL    HW271746  10.981   2.782   3.845  2.1446  0.0271  0.6649
22750SOL     OW71747   6.838   9.108  10.546  0.3369 -0.2053 -0.3812
22750SOL    HW171748   6.850   9.201  10.564  0.4156 -0.3689  0.4164
22750SOL    HW271749   6.764   9.082  10.600  0.8621 -0.7981  0.0689
22751SOL     OW71750   6.389   0.808   2.992  0.2313  0.2541  0.0234
22751SOL    HW171751   6.369   0.752   2.918 -1.3937  0.5480  0.2136
22751SOL    HW271752   6.344   0.768   3.066 -2.5532  2.7218 -0.1812
22752SOL     OW71753   6.945   5.244   2.879  0.3857 -0.2692 -0.0689
22752SOL    HW171754   6.916   5.168   2.929 -0.4940  0.1953  0.1463
22752SOL    HW271755   6.865   5.288   2.853  0.8725  0.2364 -0.7470
22753SOL     OW71756  10.999   2.735   2.027  0.0347 -0.1489  0.0148
22753SOL    HW171757  11.042   2.649   2.022 -1.4289 -0.8802 -0.6709
22753SOL    HW271758  10.924   2.721   2.086 -0.1961  0.6645 -0.0671
22754SOL     OW71759   9.701   2.464   7.902 -0.0282  0.3079  0.4341
22754SOL    HW171760   9.648   2.394   7.864  1.5667 -0.8559  0.2622
22754SOL    HW271761   9.649   2.543   7.890 -2.1868 -0.9144  1.2086
22755SOL     OW71762   0.890   5.098   4.570 -0.2084  0.1669  0.0852
22755SOL    HW171763   0.920   5.086   4.660  0.6166 -0.6877 -0.2847
22755SOL    HW271764   0.836   5.177   4.572  1.3496  1.2460  0.9674
22756SOL     OW71765   4.246   3.138   7.556  0.0940 -0.1244  0.4321
22756SOL    HW171766   4.336   3.169   7.560  0.6311 -1.4614 -0.6415
22756SOL    HW271767   4.214   3.170   7.471 -0.2158 -0.2325  0.5071
22757SOL     OW71768   8.092  10.520   9.586 -0.0378  0.3318 -0.2185
22757SOL    HW171769   8.068  10.432   9.558 -0.5268  0.0164  1.1548
22757SOL    HW271770   8.059  10.576   9.515 -2.8324 -0.2888  0.4532
22758SOL     OW71771  10.827  10.119   0.983  0.1113 -0.1994 -0.3185
22758SOL    HW171772  10.876  10.133   0.903 -0.4128 -0.3317 -0.6710
22758SOL    HW271773  10.878  10.163   1.051 -0.0347  0.9248 -0.9097
22759SOL     OW71774  10.825   0.855   3.130  0.4401  0.2010  0.1538
22759SOL    HW171775  10.856   0.808   3.052  1.6333  1.2759 -0.0638
22759SOL    HW271776  10.869   0.811   3.203  0.8666  0.4180  0.0313
22760SOL     OW71777   6.476   2.848   0.310  0.1514  0.1900 -0.3125
22760SOL    HW171778   6.568   2.875   0.319  0.5828 -0.7509 -1.4634
22760SOL    HW271779   6.477   2.790   0.233 -1.4557  0.3570 -0.4788
22761SOL     OW71780   1.465   2.055  10.002 -0.2357  0.0227 -0.1811
22761SOL    HW171781   1.560   2.066  10.002 -0.4340  2.2953  1.1686
22761SOL    HW271782   1.452   1.961   9.988  2.2520 -0.5359  0.7655
22762SOL     OW71783   7.606   8.481   7.296 -0.1813 -0.6140 -0.0347
22762SOL    HW171784   7.541   8.431   7.345  1.1587 -1.8457  0.5450
22762SOL    HW271785   7.585   8.465   7.204 -1.7129  0.3984  0.0990
22763SOL     OW71786  10.256   4.663  10.979  0.0485  0.4627 -0.0601
22763SOL    HW171787  10.346   4.697  10.982  0.2993 -0.2393  1.3661
22763SOL    HW271788  10.259   4.582  11.031 -1.3805  0.3409 -0.1208
22764SOL     OW71789  10.882   2.661   2.672 -0.1480 -0.2875  0.0824
22764SOL    HW171790  10.883   2.756   2.685  2.3785 -0.5054  2.4492
22764SOL    HW271791  10.850   2.626   2.756 -1.1377 -1.5598 -0.7931
22765SOL     OW71792   5.707   3.045   1.763 -0.1734 -0.0034 -0.0648
22765SOL    HW171793   5.658   2.984   1.818 -0.9378  0.0620 -0.6538
22765SOL    HW271794   5.641   3.106   1.731  0.1583 -0.3369 -1.4458
22766SOL     OW71795   6.314   9.230   8.275 -0.6358  0.0558  0.6761
22766SOL    HW171796   6.364   9.158   8.237 -0.6265 -0.2645  1.2818
22766SOL    HW271797   6.303   9.292   8.203 -0.1165 -0.2694  0.3068
22767SOL     OW71798   6.075  10.380   6.841 -0.1709  0.0497  0.5201
22767SOL    HW171799   6.014  10.451   6.823 -1.9092 -1.3092  0.8182
22767SOL    HW271800   6.092  10.386   6.935  1.0279  1.0386  0.2804
22768SOL     OW71801   0.029   1.504   6.281 -0.0398  0.1013  0.4827
22768SOL    HW171802   0.002   1.590   6.250 -0.3871 -0.3529 -0.5103
22768SOL    HW271803  -0.032   1.484   6.353  1.6089  1.7337  2.4476
22769SOL     OW71804   4.517   3.677   0.615 -0.3813 -0.0462  0.4409
22769SOL    HW171805   4.449   3.669   0.548  0.8231 -0.5834 -0.7514
22769SOL    HW271806   4.559   3.761   0.598 -0.5898  0.1889  1.0431
22770SOL     OW71807  10.184   2.018   3.248  0.6708 -0.2711 -0.3608
22770SOL    HW171808  10.142   2.020   3.334 -0.6647 -1.1462 -0.9562
22770SOL    HW271809  10.218   2.107   3.236 -1.9742  0.8482 -0.2564
22771SOL     OW71810   6.493   4.160   7.799 -0.4259  0.2534 -0.0282
22771SOL    HW171811   6.554   4.133   7.730 -1.8754 -2.0613 -0.5156
22771SOL    HW271812   6.438   4.226   7.757 -0.5698 -0.3056 -0.7471
22772SOL     OW71813   9.810   9.744   1.330 -0.4952 -0.1765 -0.4525
22772SOL    HW171814   9.818   9.835   1.299 -1.0154 -0.2321 -0.7605
22772SOL    HW271815   9.800   9.692   1.250 -4.3289 -0.0777 -0.2403
22773SOL     OW71816   4.193   2.210   2.600 -0.1323  0.0589  0.2584
22773SOL    HW171817   4.104   2.224   2.633 -0.0964  1.8674 -0.2718
22773SOL    HW271818   4.247   2.210   2.679 -0.7469 -3.2608  0.8049
22774SOL     OW71819   8.207   8.289   2.174  0.1247  0.5862  0.4296
22774SOL    HW171820   8.285   8.288   2.119  0.5840  0.9965  1.0624
22774SOL    HW271821   8.138   8.321   2.117  0.4704  0.4530 -0.0712
22775SOL     OW71822   4.472   1.184   9.855  0.2149 -0.0960 -0.2982
22775SOL    HW171823   4.549   1.238   9.838  0.4399 -0.5517 -0.7485
22775SOL    HW271824   4.446   1.208   9.944  0.7984  0.1567 -0.1879
22776SOL     OW71825   8.801   6.589   8.115  0.0036 -0.3145  1.0458
22776SOL    HW171826   8.834   6.532   8.184  0.8014 -0.2790  0.7039
22776SOL    HW271827   8.820   6.542   8.034  0.6635  0.4237  0.7599
22777SOL     OW71828   0.178   9.891   4.047  0.5896 -0.0006 -0.0430
22777SOL    HW171829   0.218   9.895   3.960 -2.6375  0.0049 -1.6911
22777SOL    HW271830   0.186   9.799   4.073 -1.0054 -0.7436 -1.8379
22778SOL     OW71831   9.726   9.649  10.060  0.5909 -0.0586 -0.2190
22778SOL    HW171832   9.729   9.697  10.142 -0.1597 -0.9817  0.3547
22778SOL    HW271833   9.639   9.666  10.024  0.3560 -0.8885 -0.0638
22779SOL     OW71834   0.845   4.740  10.528  0.3918 -0.2650 -0.0875
22779SOL    HW171835   0.891   4.685  10.465  1.4706 -0.2844  0.6781
22779SOL    HW271836   0.814   4.815  10.477 -0.3575 -1.1547 -0.9793
22780SOL     OW71837   2.968   3.395   8.237  1.2674  0.0983 -0.0971
22780SOL    HW171838   2.995   3.477   8.195  2.0897 -1.3369 -2.5557
22780SOL    HW271839   2.888   3.369   8.191  0.2461  0.1186  1.5571
22781SOL     OW71840   4.743   3.201   2.353  0.0539 -0.6894  0.1376
22781SOL    HW171841   4.835   3.175   2.346  0.4256  0.8759 -2.1294
22781SOL    HW271842   4.733   3.228   2.444  2.2425  0.3130  0.1600
22782SOL     OW71843   4.610   3.349   6.422 -0.0153  0.1753  0.4388
22782SOL    HW171844   4.517   3.347   6.396  0.1746  0.1338 -0.2742
22782SOL    HW271845   4.618   3.430   6.472 -0.1281  0.9848 -0.7898
22783SOL     OW71846   7.846   8.100   0.921 -0.0692 -0.1224 -0.3548
22783SOL    HW171847   7.801   8.178   0.888 -1.2009 -0.9940 -0.9381
22783SOL    HW271848   7.779   8.032   0.922  0.3099 -0.5758  2.2143
22784SOL     OW71849   8.268   6.125   7.540  0.4617 -0.1375 -0.4824
22784SOL    HW171850   8.192   6.095   7.490 -0.6085  0.4249  0.7401
22784SOL    HW271851   8.250   6.098   7.630  1.5487  0.3169 -0.1033
22785SOL     OW71852   4.677   5.917   8.956  0.6238 -0.0101 -0.4433
22785SOL    HW171853   4.762   5.949   8.925  1.1107 -0.2928  0.5527
22785SOL    HW271854   4.664   5.962   9.039  0.8063 -1.5543  0.4598
22786SOL     OW71855   8.874   8.256   2.166  0.1386 -0.1748 -0.1989
22786SOL    HW171856   8.786   8.225   2.145 -0.1895  0.3480  0.3572
22786SOL    HW271857   8.924   8.176   2.185  0.2681 -0.6196 -2.1710
22787SOL     OW71858   7.940   2.020   0.170  0.1184  0.7825 -0.1427
22787SOL    HW171859   7.876   2.080   0.131 -0.1819  1.5448  1.4451
22787SOL    HW271860   7.901   1.996   0.255  0.9002 -0.5455 -0.1351
22788SOL     OW71861   5.380   8.577   2.936  0.3685  0.0975  0.2727
22788SOL    HW171862   5.409   8.488   2.954  0.0481  0.1914  1.3275
22788SOL    HW271863   5.369   8.617   3.023 -2.6572  0.1209 -0.0161
22789SOL     OW71864   0.161   4.828   8.668  0.2150  0.4243  0.2797
22789SOL    HW171865   0.150   4.752   8.724  0.5888  0.8410  0.9233
22789SOL    HW271866   0.094   4.817   8.600 -0.3066 -0.0341  0.8575
22790SOL     OW71867   6.349   2.168   7.957 -0.4477  0.3057 -0.4166
22790SOL    HW171868   6.353   2.093   7.898  0.0292  0.8420 -1.0832
22790SOL    HW271869   6.432   2.165   8.005 -0.7404 -0.0042  0.0724
22791SOL     OW71870   5.534   3.755  10.635 -0.2050 -0.3752 -0.1296
22791SOL    HW171871   5.579   3.837  10.614  0.6210 -1.1048 -1.3884
22791SOL    HW271872   5.540   3.748  10.730  0.3012  0.6883 -0.0656
22792SOL     OW71873   6.260   4.473   0.899 -0.0550 -0.5576 -0.1429
22792SOL    HW171874   6.291   4.409   0.836 -0.6398 -0.2594 -0.7500
22792SOL    HW271875   6.206   4.533   0.848 -0.5521 -0.3137  0.6404
22793SOL     OW71876   9.151   1.154   4.258  0.2324 -0.5489 -0.6280
22793SOL    HW171877   9.165   1.229   4.200  1.9225 -0.1783  0.2072
22793SOL    HW271878   9.064   1.122   4.234  0.8387 -0.4094 -3.3169
22794SOL     OW71879   5.580   5.100   6.347  0.0267  0.0690  0.1204
22794SOL    HW171880   5.512   5.036   6.367 -1.1174  1.2480  0.1565
22794SOL    HW271881   5.534   5.170   6.301  0.9202  1.6398  1.5268
22795SOL     OW71882   8.178   3.027   9.710 -0.8148 -0.2667  0.2505
22795SOL    HW171883   8.176   2.988   9.623  2.0586  1.3826 -0.6897
22795SOL    HW271884   8.131   3.110   9.700  1.9202  1.2979 -0.6353
22796SOL     OW71885   0.003   4.391  10.394 -0.6514  0.0436  0.4163
22796SOL    HW171886   0.041   4.431  10.472  1.3055 -1.9622  0.6037
22796SOL    HW271887   0.002   4.297  10.414  0.5674 -0.6217 -2.1905
22797SOL     OW71888   5.762  10.591   4.379 -0.2498 -0.0466  0.2000
22797SOL    HW171889   5.840  10.550   4.342  0.3574  0.5684  0.7687
22797SOL    HW271890   5.753  10.553   4.466  0.6187  1.3423  0.9389
22798SOL     OW71891   1.811  10.657   0.891  0.0977 -0.6711 -0.5299
22798SOL    HW171892   1.876  10.610   0.839 -0.5382 -1.6158 -0.4950
22798SOL    HW271893   1.842  10.748   0.891  1.1222 -0.9982 -0.9594
22799SOL     OW71894   2.005   4.726   8.920 -0.0079 -0.6616  0.1089
22799SOL    HW171895   1.940   4.775   8.871  0.6332  0.0972 -0.0042
22799SOL    HW271896   2.089   4.751   8.881  0.4667 -0.5326  1.1532
22800SOL     OW71897  10.884  10.045   5.332  0.2442 -0.0581 -0.7223
22800SOL    HW171898  10.818  10.039   5.264  0.6043 -0.3436 -1.0531
22800SOL    HW271899  10.882   9.960   5.376  0.8103 -0.2919 -1.1349
22801SOL     OW71900   5.974   3.903   6.676  0.4462  0.2767 -0.3332
22801SOL    HW171901   5.976   3.998   6.663  0.9442  0.3963  0.5112
22801SOL    HW271902   5.970   3.892   6.771  2.4125 -0.5376 -0.2843
22802SOL     OW71903   8.981   9.158   7.991 -0.3116 -0.5604  0.7909
22802SOL    HW171904   8.947   9.069   7.995  0.9932 -1.1441 -0.4361
22802SOL    HW271905   9.069   9.149   7.954  0.2440  1.1421  1.5833
22803SOL     OW71906  10.701   6.593   3.500  0.2443 -0.1341 -0.2734
22803SOL    HW171907  10.694   6.535   3.424 -2.2402 -0.0287 -0.2048
22803SOL    HW271908  10.623   6.574   3.552  0.8923  1.1913  1.2747
22804SOL     OW71909   4.009   8.646   9.647 -0.1583  0.3069  0.5328
22804SOL    HW171910   3.973   8.708   9.584 -0.0572  1.2567  1.3808
22804SOL    HW271911   4.046   8.576   9.593 -0.7307  0.7244 -0.4301
22805SOL     OW71912   6.596   0.617   9.664  0.6989  0.3224 -0.0008
22805SOL    HW171913   6.566   0.642   9.752  1.9032 -1.1449  0.8948
22805SOL    HW271914   6.570   0.525   9.656  4.5953 -1.0890  0.8471
22806SOL     OW71915   8.796   0.792   3.772  0.1406 -0.1026  0.1682
22806SOL    HW171916   8.891   0.805   3.769  0.1054  0.0537 -0.5139
22806SOL    HW271917   8.785   0.698   3.785  0.3876  0.0413  1.4769
22807SOL     OW71918   5.381   2.948  10.087  0.1050  0.2382 -0.3759
22807SOL    HW171919   5.316   3.006  10.126  0.8470  1.3189 -0.6654
22807SOL    HW271920   5.416   2.897  10.160  0.9080  1.6658  0.2871
22808SOL     OW71921   9.690   5.097   2.838  0.2994 -0.0921  0.5637
22808SOL    HW171922   9.770   5.047   2.826 -0.9274 -1.9150 -0.4498
22808SOL    HW271923   9.651   5.104   2.751 -0.9339  0.2495  1.1076
22809SOL     OW71924   3.582   9.072   4.726 -0.2289 -0.2151  0.2722
22809SOL    HW171925   3.502   9.021   4.736 -0.3104 -0.3071 -0.7848
22809SOL    HW271926   3.650   9.008   4.709 -0.3081  0.0005 -0.9257
22810SOL     OW71927   0.280   1.926   5.012 -0.3492 -0.3286 -0.5329
22810SOL    HW171928   0.307   2.016   5.030 -0.6515 -0.3451  0.0277
22810SOL    HW271929   0.287   1.881   5.097  1.4258 -1.2781 -1.1159
22811SOL     OW71930   3.712   8.237   5.163 -0.1446  0.5193  0.0292
22811SOL    HW171931   3.679   8.206   5.079  1.0253  0.9184 -0.5940
22811SOL    HW271932   3.650   8.202   5.227 -1.9157  1.4895 -1.0998
22812SOL     OW71933   0.307   0.860   5.368 -0.1656 -0.3386  0.0445
22812SOL    HW171934   0.285   0.802   5.295 -0.6586 -0.5618  0.3726
22812SOL    HW271935   0.386   0.822   5.407 -0.1638 -0.4685 -0.0867
22813SOL     OW71936   0.504   7.879   3.219 -0.1262  0.1166 -0.1876
22813SOL    HW171937   0.420   7.915   3.246 -0.1939 -0.0614 -0.1547
22813SOL    HW271938   0.538   7.837   3.298  1.2308  2.4483  0.5688
22814SOL     OW71939   6.102   7.254   2.316 -0.0692  0.1484  0.0215
22814SOL    HW171940   6.018   7.224   2.352 -0.2530  0.6621  0.0275
22814SOL    HW271941   6.143   7.174   2.283 -1.2079  0.0681 -1.3047
22815SOL     OW71942   2.528   6.445   2.892  0.3834  0.1868 -0.2883
22815SOL    HW171943   2.586   6.520   2.900  1.1176 -0.4681  0.7711
22815SOL    HW271944   2.498   6.428   2.982 -1.2436  0.3345 -0.7576
22816SOL     OW71945   1.121   0.761   4.299 -0.3541 -0.1349 -0.2492
22816SOL    HW171946   1.055   0.733   4.361  0.2959 -0.9251  0.0952
22816SOL    HW271947   1.078   0.829   4.247 -0.8675  0.6200  1.1237
22817SOL     OW71948   5.277   6.971   2.410  0.1571 -0.0938 -0.1923
22817SOL    HW171949   5.359   6.925   2.422 -0.5433 -1.6948 -1.2357
22817SOL    HW271950   5.218   6.933   2.475  0.6327  2.3116  1.8383
22818SOL     OW71951   8.425   5.368   6.641  0.5570 -0.4910  0.2496
22818SOL    HW171952   8.440   5.294   6.700  0.3083 -0.9765 -0.2851
22818SOL    HW271953   8.333   5.391   6.655  0.7409 -0.0083  0.7144
22819SOL     OW71954   7.527   9.878   5.369 -0.2056  0.2319  0.1850
22819SOL    HW171955   7.559   9.844   5.285 -0.4915 -1.8964  0.8915
22819SOL    HW271956   7.597   9.935   5.400  0.7044 -0.3953 -0.6514
22820SOL     OW71957   7.873   6.219   2.445 -0.6852  0.0248 -0.6115
22820SOL    HW171958   7.900   6.175   2.525  0.9304  1.0894 -0.5098
22820SOL    HW271959   7.784   6.249   2.462 -0.3918  0.1562  0.7748
22821SOL     OW71960   6.980   1.065   9.587 -0.0267 -0.2800  0.1540
22821SOL    HW171961   6.887   1.082   9.573 -0.3990 -2.1587  0.0388
22821SOL    HW271962   6.993   0.977   9.552  1.5637 -0.4675  1.1289
22822SOL     OW71963   0.300   1.578   6.442  0.4648 -0.1330  0.9256
22822SOL    HW171964   0.222   1.542   6.399  0.7085 -1.9164  1.9022
22822SOL    HW271965   0.270   1.605   6.528  1.1393 -2.0271  1.8010
22823SOL     OW71966   2.232  10.219   7.840 -0.1344 -0.0797 -0.5392
22823SOL    HW171967   2.196  10.307   7.852 -1.3038 -0.1924 -2.6592
22823SOL    HW271968   2.192  10.188   7.758 -0.0925 -2.7619  0.3626
22824SOL     OW71969   9.635   6.415   8.300 -0.3556 -0.5424 -0.2381
22824SOL    HW171970   9.581   6.489   8.272  1.5748  1.0412  0.0136
22824SOL    HW271971   9.695   6.401   8.227  1.3086  0.2240  0.9261
22825SOL     OW71972   2.588  10.390   0.798 -0.5330  0.0071 -0.4207
22825SOL    HW171973   2.623  10.437   0.722  1.6521 -0.3643  0.2957
22825SOL    HW271974   2.627  10.434   0.873 -2.8898  0.5544  0.5814
22826SOL     OW71975   1.596   5.681   0.107  0.0212 -0.5911 -0.4288
22826SOL    HW171976   1.637   5.735   0.039 -0.9942  1.5778  0.5556
22826SOL    HW271977   1.669   5.656   0.165  0.3139  1.5516  0.2248
22827SOL     OW71978   5.001   7.629   4.244  0.4956 -0.3149  0.0811
22827SOL    HW171979   5.032   7.718   4.226 -0.8597  0.2880  0.5925
22827SOL    HW271980   4.906   7.634   4.231  0.4204 -1.7349 -0.0359
22828SOL     OW71981   2.223   6.036   4.510  0.2458  0.3027 -0.1530
22828SOL    HW171982   2.129   6.051   4.511  0.1750  0.0420 -1.4580
22828SOL    HW271983   2.261   6.115   4.547 -0.3539  1.7864 -2.4934
22829SOL     OW71984   3.851  10.769   9.461 -0.0105  0.2496 -0.3899
22829SOL    HW171985   3.933  10.736   9.425  1.0585  2.1021  0.1745
22829SOL    HW271986   3.824  10.838   9.400  1.3103  2.7646  1.6735
22830SOL     OW71987   8.032  10.936   4.177 -0.2668 -0.0747 -0.0772
22830SOL    HW171988   8.034  10.848   4.139  0.2894 -0.1611  0.1453
22830SOL    HW271989   8.049  10.994   4.103 -0.3393 -0.1716 -0.1702
22831SOL     OW71990   2.799   6.219   9.982  0.5277 -0.1424 -0.1984
22831SOL    HW171991   2.886   6.194   9.949 -0.1538  0.3687 -2.5527
22831SOL    HW271992   2.759   6.267   9.909 -2.4620 -1.9544  0.1215
22832SOL     OW71993  10.798   4.631   4.667  0.4343 -0.7111  0.3668
22832SOL    HW171994  10.729   4.577   4.705 -1.2009  1.4825  0.6547
22832SOL    HW271995  10.848   4.662   4.743 -1.5844  1.9932  0.7370
22833SOL     OW71996   6.925   1.408   0.227  0.0223  0.4077 -0.1613
22833SOL    HW171997   6.998   1.377   0.173  0.8003  0.5269  0.8012
22833SOL    HW271998   6.875   1.328   0.246 -0.0129  0.2995 -0.6724
22834SOL     OW71999   2.944   5.729   9.474 -0.3743 -0.4191 -0.1987
22834SOL    HW172000   2.851   5.741   9.491  0.0858  2.1356  0.9328
22834SOL    HW272001   2.984   5.814   9.493  2.2099 -1.4293 -0.6068
22835SOL     OW72002   6.271   2.606  10.166 -0.1161 -0.3648 -0.2860
22835SOL    HW172003   6.198   2.664  10.146  0.5427  0.6057  0.0259
22835SOL    HW272004   6.267   2.538  10.098 -1.3822 -0.4174 -0.1738
22836SOL     OW72005  10.141   6.779   5.963 -0.4646  0.2304 -0.3717
22836SOL    HW172006  10.128   6.687   5.984 -0.1245  0.6176  1.7321
22836SOL    HW272007  10.232   6.784   5.934  0.2534  0.2201  1.7389
22837SOL     OW72008   1.347   1.792  10.230  0.4387 -0.1417 -0.5698
22837SOL    HW172009   1.259   1.825  10.248  0.7706 -0.7678  2.8334
22837SOL    HW272010   1.405   1.855  10.272  1.7565  0.5299 -3.1867
22838SOL     OW72011   4.294   9.007   2.784  0.1082  0.0822 -0.2022
22838SOL    HW172012   4.338   8.942   2.839 -1.9870 -1.8639 -0.6838
22838SOL    HW272013   4.354   9.020   2.710 -0.4968 -3.4346 -1.4767
22839SOL     OW72014   3.479  10.384   3.895 -0.6355 -0.3672  0.3956
22839SOL    HW172015   3.511  10.474   3.894 -1.6442 -0.0098 -0.2883
22839SOL    HW272016   3.518  10.343   3.818 -0.7328 -0.3256  0.3252
22840SOL     OW72017   3.574   0.047   4.068  0.5032 -0.3017  0.1735
22840SOL    HW172018   3.499  -0.008   4.044  0.3907 -0.9482  1.9128
22840SOL    HW272019   3.609   0.007   4.147  1.8134  0.8478  0.2118
22841SOL     OW72020   5.824   2.423   2.556 -0.1662 -0.1401  0.6491
22841SOL    HW172021   5.784   2.421   2.469 -0.0225  0.3167  0.5690
22841SOL    HW272022   5.855   2.513   2.566  0.5199 -0.3953  0.8583
22842SOL     OW72023   1.881   0.384   5.746  0.3670 -0.4797 -0.2664
22842SOL    HW172024   1.882   0.475   5.719  2.4874 -0.7227 -1.1619
22842SOL    HW272025   1.903   0.334   5.667 -0.2744 -1.7508  0.3138
22843SOL     OW72026  10.779   6.466   5.260 -0.1366 -0.4309 -0.3620
22843SOL    HW172027  10.765   6.557   5.285  0.2598  0.0133 -1.6829
22843SOL    HW272028  10.762   6.416   5.340 -1.2939  0.7123  0.1367
22844SOL     OW72029   0.232   6.803   6.826 -0.1110  0.4586 -0.2600
22844SOL    HW172030   0.317   6.829   6.789 -0.7485  2.7452 -0.2992
22844SOL    HW272031   0.253   6.742   6.896  1.4238 -0.4246 -1.4289
22845SOL     OW72032   3.315   3.919  10.146  0.3624 -0.2263 -0.2469
22845SOL    HW172033   3.274   3.874  10.072 -0.3253  0.3342 -0.2227
22845SOL    HW272034   3.251   3.910  10.217  0.3889  0.4457 -0.1339
22846SOL     OW72035   1.026   4.823   8.102  0.0910  0.6390 -0.0419
22846SOL    HW172036   1.098   4.874   8.140 -0.2030  1.3440 -0.4168
22846SOL    HW272037   1.009   4.755   8.167 -0.3620  1.7810  1.0740
22847SOL     OW72038   5.945   2.768   0.836 -0.2418  0.2035  0.0892
22847SOL    HW172039   5.974   2.818   0.912 -0.5097 -2.2892  1.9460
22847SOL    HW272040   6.023   2.762   0.781  0.6070  0.1686  1.2591
22848SOL     OW72041   0.733  10.322   1.741 -0.0641  0.1982 -0.0671
22848SOL    HW172042   0.762  10.410   1.717 -2.1845  0.7420 -0.8539
22848SOL    HW272043   0.660  10.304   1.682 -1.3110 -1.0816  1.7725
22849SOL     OW72044   6.239   8.118   0.499 -0.7815 -0.1898  0.3397
22849SOL    HW172045   6.266   8.066   0.574 -3.9156 -0.4089  1.4779
22849SOL    HW272046   6.269   8.069   0.423  1.2156 -0.7006  1.4072
22850SOL     OW72047   6.477   4.402   6.023 -0.1718 -0.0639  0.7433
22850SOL    HW172048   6.525   4.450   6.091  0.6479  0.0925  0.0633
22850SOL    HW272049   6.544   4.353   5.976 -0.5676  0.6706 -0.6418
22851SOL     OW72050   0.303   2.149   0.188 -0.9532  0.0625  0.4105
22851SOL    HW172051   0.327   2.242   0.185 -1.2245  0.1292 -1.7186
22851SOL    HW272052   0.294   2.124   0.096 -1.1074 -2.0368  0.9411
22852SOL     OW72053   0.238   2.832   1.990 -0.3290 -0.3237 -0.1622
22852SOL    HW172054   0.252   2.739   1.974 -2.3999 -0.1358 -4.5536
22852SOL    HW272055   0.143   2.840   2.003 -0.0342  1.1272  1.6382
22853SOL     OW72056   3.814  10.202   8.353 -0.1265 -0.3993 -0.0182
22853SOL    HW172057   3.768  10.202   8.437  1.1749  0.2101  0.7259
22853SOL    HW272058   3.894  10.253   8.370  0.3376 -0.5949 -1.5240
22854SOL     OW72059   2.692   8.950   0.253  0.2200  0.0182 -0.1026
22854SOL    HW172060   2.637   8.874   0.272 -0.0080 -0.0587 -1.0168
22854SOL    HW272061   2.660   9.019   0.311  0.9670 -0.7960  1.3450
22855SOL     OW72062   3.683   2.368   6.386  0.3959  0.6022  0.1514
22855SOL    HW172063   3.750   2.427   6.352 -0.1408  1.1504  0.0348
22855SOL    HW272064   3.626   2.424   6.439 -0.5301  0.3352 -0.5385
22856SOL     OW72065   3.847   2.461  10.096 -0.6532  0.0294 -0.5558
22856SOL    HW172066   3.772   2.518  10.115 -0.9240  0.4871 -2.6983
22856SOL    HW272067   3.923   2.518  10.111 -0.9049  0.8493 -2.1651
22857SOL     OW72068  10.212   5.191   1.846  0.5349 -0.0957  0.3322
22857SOL    HW172069  10.269   5.134   1.794  0.5339 -0.0100  0.2357
22857SOL    HW272070  10.134   5.203   1.791  1.2143  1.3333 -0.3887
22858SOL     OW72071   1.315   3.882   8.065 -0.5044  0.1850  0.0432
22858SOL    HW172072   1.223   3.885   8.039 -0.6258  1.3632  0.5560
22858SOL    HW272073   1.349   3.801   8.025 -1.6031  0.0477 -0.6414
22859SOL     OW72074   2.068   9.165   2.793 -0.0077  0.0265 -0.3458
22859SOL    HW172075   2.092   9.158   2.701  1.2000  1.2469 -0.1577
22859SOL    HW272076   2.055   9.075   2.822  3.7901 -0.7999 -0.6913
22860SOL     OW72077   0.507   0.232   1.974 -0.2225 -0.6943  0.0499
22860SOL    HW172078   0.567   0.230   1.899 -0.5226 -0.3727 -0.1968
22860SOL    HW272079   0.428   0.188   1.943 -0.1259 -1.1062  0.3738
22861SOL     OW72080   5.086   0.808   2.084 -0.2196  0.1057  0.2493
22861SOL    HW172081   5.067   0.779   1.995  0.8990  0.8461 -0.2533
22861SOL    HW272082   5.117   0.729   2.129  3.1764  0.4523 -1.2041
22862SOL     OW72083   7.250   7.665   2.402  0.1636 -0.2636  0.3289
22862SOL    HW172084   7.262   7.589   2.458  1.2160  0.5040  1.2049
22862SOL    HW272085   7.314   7.729   2.435  0.9668  0.1476 -1.8783
22863SOL     OW72086   3.816   1.338   1.339 -0.8720 -0.2182  0.2826
22863SOL    HW172087   3.784   1.425   1.363 -1.1600  0.0725 -1.0782
22863SOL    HW272088   3.867   1.353   1.259 -3.0291 -1.6121 -1.4653
22864SOL     OW72089   6.309   7.873   3.799 -0.3227  0.2282  0.1585
22864SOL    HW172090   6.353   7.820   3.732 -1.4777 -0.6004  0.0350
22864SOL    HW272091   6.230   7.824   3.821 -0.7205  1.2302  1.0530
22865SOL     OW72092   4.135   5.031   0.380  0.0475  0.1802 -0.6101
22865SOL    HW172093   4.056   5.017   0.433  0.0101  1.3944 -0.3052
22865SOL    HW272094   4.105   5.023   0.290 -0.4907  0.8068 -0.5014
22866SOL     OW72095   5.365  10.451   9.905  0.5562 -0.1259  0.1445
22866SOL    HW172096   5.445  10.484   9.946  1.1983 -2.8559  1.3737
22866SOL    HW272097   5.393  10.422   9.818 -0.1281  2.8303 -1.1571
22867SOL     OW72098   1.014   6.913   3.254 -0.1509 -0.2983  0.5021
22867SOL    HW172099   1.075   6.861   3.306 -1.0677 -1.2251  0.6964
22867SOL    HW272100   1.018   6.876   3.167  1.3998  1.2695 -0.1547
22868SOL     OW72101   1.365   3.872   6.993 -0.0121 -0.0711 -0.2694
22868SOL    HW172102   1.339   3.933   7.063 -1.6466  0.3850 -1.2182
22868SOL    HW272103   1.309   3.795   7.006 -0.1640 -0.0765 -0.9143
22869SOL     OW72104  10.367   6.861  10.618  0.0401  0.0235  0.2803
22869SOL    HW172105  10.461   6.877  10.612 -0.1934  1.0389 -0.9272
22869SOL    HW272106  10.341   6.840  10.528 -0.6755 -1.5515  0.8234
22870SOL     OW72107   2.264   6.915   3.727  0.0830 -0.2471  0.6408
22870SOL    HW172108   2.269   6.871   3.642  0.7015  0.7707  0.1352
22870SOL    HW272109   2.185   6.880   3.767  0.3947 -1.6036  0.1404
22871SOL     OW72110   8.314   8.267   6.366 -0.2524 -0.0580 -0.0120
22871SOL    HW172111   8.347   8.287   6.279 -0.1689  1.0420  0.2630
22871SOL    HW272112   8.220   8.286   6.362 -0.4936 -1.2154 -0.2072
22872SOL     OW72113   6.806   0.396   0.188 -0.2524 -0.0644  0.3885
22872SOL    HW172114   6.798   0.474   0.134  0.7732  0.7280  1.3419
22872SOL    HW272115   6.818   0.430   0.277  1.5534 -1.2670  0.6511
22873SOL     OW72116  10.653   1.698   4.102 -0.2333 -1.1339 -0.4124
22873SOL    HW172117  10.581   1.677   4.043  0.4765 -1.6821 -1.1108
22873SOL    HW272118  10.630   1.784   4.138 -1.0976 -1.1792 -0.8218
22874SOL     OW72119   0.376   2.626   8.244  0.3239 -1.0388 -0.0730
22874SOL    HW172120   0.402   2.614   8.335  1.4875 -1.1807 -0.4112
22874SOL    HW272121   0.445   2.681   8.206  0.2319 -1.5681 -1.0505
22875SOL     OW72122   9.454   7.375   2.719 -0.2674  0.0372  0.0340
22875SOL    HW172123   9.494   7.299   2.760 -1.2795 -0.8996 -0.6522
22875SOL    HW272124   9.404   7.417   2.789 -0.1350 -0.2364  0.2940
22876SOL     OW72125   5.123   0.378   4.903  0.1629  0.0888 -0.2120
22876SOL    HW172126   5.191   0.313   4.885 -0.6676 -1.5369  2.0238
22876SOL    HW272127   5.171   0.455   4.932  1.1335 -0.5593 -0.0276
22877SOL     OW72128   4.892   0.050   2.983  0.5246 -0.4091 -0.6085
22877SOL    HW172129   4.889   0.074   2.891  1.1983 -2.5383 -1.2439
22877SOL    HW272130   4.983   0.024   2.999  0.0066 -1.9037  0.1174
22878SOL     OW72131   5.680   6.626   0.206 -0.1896  0.5637 -0.0176
22878SOL    HW172132   5.604   6.683   0.200 -0.0689  0.6134 -1.1857
22878SOL    HW272133   5.648   6.547   0.250 -0.5480  1.1816  0.8579
22879SOL     OW72134   7.114   1.061   9.860 -0.3171  0.9767  0.3282
22879SOL    HW172135   7.088   1.093   9.774  0.2956  2.1780  0.5734
22879SOL    HW272136   7.032   1.037   9.903 -0.7045  1.2853 -0.2265
22880SOL     OW72137   4.264   6.575   4.934  0.0374  0.3433  0.0318
22880SOL    HW172138   4.322   6.640   4.974 -1.2941  0.3941  1.9806
22880SOL    HW272139   4.177   6.614   4.939 -0.3733 -0.2676 -1.7072
22881SOL     OW72140   4.139   3.313   5.546  0.6962 -0.1060  0.2303
22881SOL    HW172141   4.100   3.315   5.458 -1.8918  1.3182  1.2952
22881SOL    HW272142   4.150   3.219   5.564  1.4343 -0.4327 -1.6430
22882SOL     OW72143   8.378   4.368   3.209  0.1277 -0.4026  0.4757
22882SOL    HW172144   8.348   4.402   3.124 -2.1010 -2.1477  0.4576
22882SOL    HW272145   8.373   4.443   3.268  0.0805  0.4423 -0.5653
22883SOL     OW72146   1.142   9.460   7.536 -0.0506 -0.1374  0.7082
22883SOL    HW172147   1.170   9.410   7.460  0.0408 -0.3619  0.8868
22883SOL    HW272148   1.217   9.515   7.558 -0.0089 -0.2127  0.7521
22884SOL     OW72149   5.079   7.541   0.104 -0.5039  0.9010 -0.1269
22884SOL    HW172150   5.098   7.485   0.179  0.9955  0.8650 -0.5027
22884SOL    HW272151   5.051   7.624   0.142 -0.6399  0.5959  0.4485
22885SOL     OW72152   3.355   9.516   5.830  0.1800 -0.4085  0.1729
22885SOL    HW172153   3.314   9.538   5.747  2.3041 -2.1303 -1.4429
22885SOL    HW272154   3.428   9.577   5.839  1.3086 -1.6005 -0.4257
22886SOL     OW72155   8.169   3.977   3.095  0.1358 -0.8766 -0.2817
22886SOL    HW172156   8.075   3.988   3.103  0.0913 -1.2498 -0.2459
22886SOL    HW272157   8.180   3.920   3.019  0.5673  3.2128 -3.6641
22887SOL     OW72158   3.733   4.374   3.993  0.0550 -0.2010 -0.3247
22887SOL    HW172159   3.639   4.382   3.978 -0.0354  0.1565  0.4066
22887SOL    HW272160   3.773   4.427   3.924 -0.3253  0.6397  0.0841
22888SOL     OW72161   4.219   3.838   1.554  0.3128  0.2730 -0.8105
22888SOL    HW172162   4.181   3.756   1.524  0.3439 -0.0366 -0.0309
22888SOL    HW272163   4.152   3.904   1.535 -0.5138 -0.2203  0.2858
22889SOL     OW72164   5.345   0.650  10.846 -0.4818  0.2601 -0.1590
22889SOL    HW172165   5.324   0.739  10.815  1.7136  0.7584 -0.3637
22889SOL    HW272166   5.270   0.625  10.899 -1.3793  2.0483 -0.5110
22890SOL     OW72167   5.940   0.999   3.793  0.0627 -0.4242  0.0582
22890SOL    HW172168   5.879   1.070   3.770  1.9026  2.2467  2.6807
22890SOL    HW272169   5.886   0.921   3.796 -2.5602  1.2149 -0.8627
22891SOL     OW72170   1.853   9.277   7.897 -0.1320  0.1575  0.6726
22891SOL    HW172171   1.880   9.185   7.891 -0.3022  0.0279  1.6288
22891SOL    HW272172   1.762   9.273   7.928 -0.5244  0.6331 -0.3924
22892SOL     OW72173   5.405   6.498  10.991  0.4533 -0.5111 -0.7278
22892SOL    HW172174   5.410   6.454  11.076  0.1520  0.0993 -0.3896
22892SOL    HW272175   5.444   6.435  10.929 -2.7023 -2.6404 -0.8287
22893SOL     OW72176   9.098   4.288   6.269 -0.6225  0.1516 -0.0556
22893SOL    HW172177   9.105   4.345   6.193  1.7653  1.3460  0.9340
22893SOL    HW272178   9.024   4.231   6.251  0.3739 -0.2192 -3.6591
22894SOL     OW72179  10.096   8.240   1.849  0.0086 -0.3012 -0.1777
22894SOL    HW172180  10.182   8.202   1.866 -0.9499 -1.8260  1.6974
22894SOL    HW272181  10.047   8.227   1.931 -2.5032 -0.9144 -1.6495
22895SOL     OW72182   3.352   3.374   0.710 -0.4033 -0.2092 -0.7041
22895SOL    HW172183   3.422   3.417   0.758 -1.4959 -1.0019  1.7250
22895SOL    HW272184   3.364   3.280   0.727 -1.9565 -0.3700 -0.3335
22896SOL     OW72185  10.692   2.235   1.085 -0.5697  0.4875  0.4591
22896SOL    HW172186  10.661   2.150   1.117 -0.3732 -0.4378 -1.6212
22896SOL    HW272187  10.755   2.213   1.016  0.2387  2.3480  0.5365
22897SOL     OW72188   5.071   8.389   0.139  0.4239  0.4930  0.5490
22897SOL    HW172189   5.017   8.328   0.191  1.3215  0.1339  1.0939
22897SOL    HW272190   5.008   8.449   0.099 -0.4388 -0.4101  0.5124
22898SOL     OW72191   3.851   4.603   0.167 -0.0626 -0.0917 -0.2516
22898SOL    HW172192   3.777   4.544   0.184 -0.7099  0.4586 -1.0467
22898SOL    HW272193   3.815   4.671   0.110  1.5192 -0.8969 -2.3484
22899SOL     OW72194   0.696   2.228   3.948  0.1963  0.3319  0.0061
22899SOL    HW172195   0.661   2.142   3.923 -0.2935  0.5579 -0.0935
22899SOL    HW272196   0.732   2.265   3.867 -0.1850  0.4983 -0.0877
22900SOL     OW72197   2.039   4.249   3.175  0.0054 -0.2923  0.1868
22900SOL    HW172198   2.117   4.258   3.120 -0.4890  0.8042 -0.3806
22900SOL    HW272199   2.014   4.157   3.166  0.5203 -0.3684 -0.6244
22901SOL     OW72200   1.612   9.948   5.287 -0.2789 -0.0823 -0.2559
22901SOL    HW172201   1.598   9.976   5.377  2.2023  1.2999 -0.2160
22901SOL    HW272202   1.623  10.030   5.238 -0.6742 -0.8341 -1.6740
22902SOL     OW72203   7.614   4.889   9.344  0.0367 -0.1710 -0.1906
22902SOL    HW172204   7.700   4.878   9.303  1.2634  1.9321  1.6105
22902SOL    HW272205   7.566   4.948   9.285  0.6031  0.2914 -0.1938
22903SOL     OW72206   0.594   8.439   8.247  0.6135 -0.1928 -0.6091
22903SOL    HW172207   0.548   8.477   8.171  1.3013 -2.6208 -2.3549
22903SOL    HW272208   0.558   8.351   8.256 -0.7945  0.5662  3.1829
22904SOL     OW72209   2.085   6.630   2.975 -0.6320 -0.0076 -0.0329
22904SOL    HW172210   2.137   6.571   2.921 -1.8222 -0.1895 -1.0194
22904SOL    HW272211   2.007   6.650   2.922 -2.4839 -1.1911  2.0470
22905SOL     OW72212   4.926   3.862   6.061 -0.7900 -0.3547 -0.8448
22905SOL    HW172213   4.895   3.915   5.987 -0.6543 -0.8901 -1.2991
22905SOL    HW272214   4.898   3.773   6.039 -2.9223 -0.2017  0.9439
22906SOL     OW72215   1.789   9.625  11.002  0.1977 -0.1939 -0.0219
22906SOL    HW172216   1.729   9.660  10.936  0.6717 -1.2729 -1.0596
22906SOL    HW272217   1.776   9.530  10.998 -0.6723 -0.2344  2.3377
22907SOL     OW72218   8.961   7.096   1.714  0.9290  0.2579  0.0249
22907SOL    HW172219   8.955   7.055   1.800  0.0154 -0.4563 -0.3687
22907SOL    HW272220   9.010   7.177   1.729  1.0382 -0.0111  1.1553
22908SOL     OW72221   2.527   5.012   7.732  0.1603 -0.0776 -0.1556
22908SOL    HW172222   2.483   5.097   7.740  0.7206  0.3416 -1.3304
22908SOL    HW272223   2.457   4.948   7.744  0.0205  0.4708  2.6375
22909SOL     OW72224   3.389   0.093   3.375 -0.3108  0.4886 -0.5813
22909SOL    HW172225   3.457   0.149   3.337 -0.4471  1.1307  0.0794
22909SOL    HW272226   3.308   0.123   3.334 -0.2608  0.0608 -0.9995
22910SOL     OW72227   9.555   4.845   8.546 -0.5869  0.2364 -0.1065
22910SOL    HW172228   9.607   4.821   8.470  0.9701 -0.6340  1.1720
22910SOL    HW272229   9.492   4.774   8.555 -1.7554  1.0599 -1.3819
22911SOL     OW72230   5.430   7.021   5.232 -0.3694 -0.5944 -0.6608
22911SOL    HW172231   5.423   6.973   5.314  0.8358 -1.0264 -0.7906
22911SOL    HW272232   5.392   6.963   5.167 -1.9447  0.0248 -0.3290
22912SOL     OW72233   6.141   7.414   0.292  0.8637 -0.0362 -0.2402
22912SOL    HW172234   6.134   7.494   0.346  3.2444 -0.3520  0.6813
22912SOL    HW272235   6.093   7.348   0.341  1.5091  0.1208  0.6392
22913SOL     OW72236   8.923  10.646   8.051 -0.3668  0.4197  0.3901
22913SOL    HW172237   8.891  10.717   8.107 -1.7470 -0.1807  0.4138
22913SOL    HW272238   8.868  10.571   8.074 -0.8289  0.0846 -1.5913
22914SOL     OW72239   3.208   8.991  10.180 -0.7998 -0.3841  0.2490
22914SOL    HW172240   3.123   9.034  10.173  0.6332  2.5815 -0.2839
22914SOL    HW272241   3.262   9.033  10.112  1.4224 -1.3386  1.3325
22915SOL     OW72242  10.010   8.197   0.311 -0.1318  0.2912 -0.3391
22915SOL    HW172243  10.026   8.129   0.377  0.0593  0.8852  0.2388
22915SOL    HW272244  10.002   8.148   0.229 -0.6810 -0.4920  0.1550
22916SOL     OW72245  10.135   1.849   5.060  0.1804 -0.5173 -0.5667
22916SOL    HW172246  10.215   1.813   5.099  0.4071  1.1934  0.6770
22916SOL    HW272247  10.064   1.814   5.114  0.2639 -0.3891 -0.3741
22917SOL     OW72248   8.610   6.238   5.468  0.4304 -0.3958  0.9231
22917SOL    HW172249   8.691   6.272   5.431  1.0462 -0.4237  2.2070
22917SOL    HW272250   8.583   6.169   5.408 -0.2961  1.5728 -1.1785
22918SOL     OW72251  10.349   6.296   2.553 -0.8838  0.6875 -0.0388
22918SOL    HW172252  10.327   6.305   2.460 -1.8867  2.0126  0.2870
22918SOL    HW272253  10.441   6.319   2.558 -1.0036  1.3460 -0.6226
22919SOL     OW72254   7.121   1.477   0.963  0.1887 -0.0601 -0.1086
22919SOL    HW172255   7.215   1.489   0.980  0.2401  0.1355 -0.4936
22919SOL    HW272256   7.078   1.508   1.042  0.3890  1.4712 -0.5638
22920SOL     OW72257   0.883   7.832   9.432 -0.3568 -0.1490 -0.8072
22920SOL    HW172258   0.839   7.810   9.514  0.3451  2.3933  0.3373
22920SOL    HW272259   0.839   7.777   9.366 -0.5597 -2.6721  1.2800
22921SOL     OW72260   2.724   8.029   1.168  0.1031 -0.3480 -0.0920
22921SOL    HW172261   2.677   7.954   1.130 -0.2152 -0.9595  1.4286
22921SOL    HW272262   2.731   8.008   1.261  0.5220  1.2608  0.2715
22922SOL     OW72263   8.017   1.650   3.199 -0.2221 -0.1131 -0.1256
22922SOL    HW172264   7.982   1.569   3.161  0.1528 -0.9780  1.3032
22922SOL    HW272265   8.006   1.715   3.130  2.4400 -2.0392 -2.5682
22923SOL     OW72266   5.990   4.430   0.224 -0.7816  0.2077  0.0166
22923SOL    HW172267   6.061   4.494   0.221 -1.0594  0.4766 -0.8335
22923SOL    HW272268   6.008   4.379   0.304  0.3288  0.3101 -0.1486
22924SOL     OW72269   5.258   2.159   3.569 -0.4580  0.5144  0.4115
22924SOL    HW172270   5.172   2.155   3.526 -0.2312  0.8726 -0.0843
22924SOL    HW272271   5.239   2.140   3.661 -1.2200  1.6082  0.5104
22925SOL     OW72272   5.135  10.045   4.359  0.3319 -0.2282 -0.8291
22925SOL    HW172273   5.054  10.025   4.406  0.4441  2.3123  0.6508
22925SOL    HW272274   5.205  10.015   4.418  0.4613  2.5501  0.6329
22926SOL     OW72275   5.191   9.223  10.701  0.3723  0.7467 -0.4137
22926SOL    HW172276   5.140   9.242  10.623 -1.1793 -1.3900 -0.0307
22926SOL    HW272277   5.258   9.161  10.671 -0.1086  0.0703 -0.1220
22927SOL     OW72278   8.365   8.398   1.344 -0.3128  0.0869 -0.0261
22927SOL    HW172279   8.302   8.327   1.359  0.9069 -0.7802  1.2361
22927SOL    HW272280   8.378   8.437   1.430 -0.3464  1.3272 -0.5716
22928SOL     OW72281   4.285   8.220   9.689  0.4602 -0.1905  0.4114
22928SOL    HW172282   4.314   8.150   9.748 -1.4335 -0.2577  1.3116
22928SOL    HW272283   4.242   8.284   9.746  0.1245  0.5955 -0.6954
22929SOL     OW72284  10.328   0.833   3.476  0.1253  0.0074  0.1256
22929SOL    HW172285  10.241   0.841   3.436  0.4431  1.4799 -0.3118
22929SOL    HW272286  10.389   0.859   3.406  0.9447 -1.0828  0.3958
22930SOL     OW72287   6.042   4.865   3.068  0.7770 -0.0264  0.3425
22930SOL    HW172288   6.115   4.927   3.058 -0.1481  0.8227 -1.6567
22930SOL    HW272289   5.976   4.914   3.119  1.3508 -0.6257  1.7271
22931SOL     OW72290   1.264   1.905   8.923 -0.4194 -0.3353 -0.0635
22931SOL    HW172291   1.237   1.997   8.925  0.7899  0.0282  0.3883
22931SOL    HW272292   1.234   1.870   9.006  0.6892  0.1426  0.5642
22932SOL     OW72293   5.767   8.352   3.746  0.5908  0.4492 -0.2449
22932SOL    HW172294   5.727   8.437   3.725  0.9216  0.8489  0.6817
22932SOL    HW272295   5.853   8.374   3.782  2.4008 -0.4327 -3.5580
22933SOL     OW72296  10.017   6.306  10.330  0.5209  0.1361  0.4856
22933SOL    HW172297   9.976   6.222  10.308 -1.8733  0.4720  3.0724
22933SOL    HW272298  10.037   6.299  10.424  1.9957  1.8282  0.3482
22934SOL     OW72299   8.827   1.485   6.603  0.1437 -0.4474 -0.0784
22934SOL    HW172300   8.807   1.452   6.690  0.9911 -1.1816 -0.1537
22934SOL    HW272301   8.810   1.579   6.609  1.0576 -0.3339  1.1393
22935SOL     OW72302   6.889   4.391   4.016  0.1782 -0.0151  0.2111
22935SOL    HW172303   6.981   4.397   3.991  0.1502 -0.5165 -0.0278
22935SOL    HW272304   6.849   4.337   3.948  0.3635 -2.5680  1.9949
22936SOL     OW72305   5.584   1.419   3.941  0.0485 -0.1104  0.1535
22936SOL    HW172306   5.506   1.363   3.943 -0.1961  0.1676 -0.9006
22936SOL    HW272307   5.552   1.506   3.967  0.5203 -0.5259  2.2771
22937SOL     OW72308   0.709   2.416   9.504 -0.0042 -0.2830 -0.3211
22937SOL    HW172309   0.798   2.444   9.482 -0.2341 -0.5681 -1.7422
22937SOL    HW272310   0.670   2.491   9.549  0.5887  0.2919 -0.7391
22938SOL     OW72311   1.145   0.064   6.453  0.1075 -0.2560  0.7792
22938SOL    HW172312   1.139   0.027   6.365  2.0091 -0.8844  0.8724
22938SOL    HW272313   1.181   0.152   6.440 -1.0131  0.2377  0.8493
22939SOL     OW72314   4.393   6.130   8.110  0.7052 -0.6736 -0.0397
22939SOL    HW172315   4.456   6.198   8.088 -0.3701  0.7559  1.1023
22939SOL    HW272316   4.423   6.053   8.061  3.0254  0.0667  0.0923
22940SOL     OW72317   5.089   8.512   1.597 -0.0155 -0.1654  0.0908
22940SOL    HW172318   5.131   8.592   1.566  0.5868 -0.5639 -0.1465
22940SOL    HW272319   4.996   8.525   1.582  0.1131  0.3545 -0.2546
22941SOL     OW72320   4.087   8.692   3.423 -0.0965  0.2432 -0.0700
22941SOL    HW172321   4.020   8.627   3.443 -0.4444  0.4401 -0.5906
22941SOL    HW272322   4.068   8.765   3.482  1.0023 -0.5675  1.3682
22942SOL     OW72323   5.281  10.149   3.329  0.0683 -0.0637 -0.0467
22942SOL    HW172324   5.237  10.093   3.265 -0.1361  0.7043 -0.5769
22942SOL    HW272325   5.215  10.212   3.356  0.7490  0.9071 -0.6121
22943SOL     OW72326   4.450   8.502   7.553 -0.6255  0.4026  0.3951
22943SOL    HW172327   4.501   8.466   7.625  1.4695  1.4925 -0.4591
22943SOL    HW272328   4.479   8.593   7.546 -0.2167  0.1730 -2.2322
22944SOL     OW72329   0.554   6.263   3.507  0.0520  0.5240  0.2484
22944SOL    HW172330   0.638   6.228   3.536 -0.2872 -1.7714 -1.2709
22944SOL    HW272331   0.576   6.329   3.441  0.6804 -0.5717 -0.6617
22945SOL     OW72332   6.860   7.141   8.898 -0.2175  0.3146  0.1395
22945SOL    HW172333   6.895   7.168   8.813 -0.3354 -0.3526 -0.1333
22945SOL    HW272334   6.783   7.089   8.876 -0.0708 -0.1252  0.6360
22946SOL     OW72335   2.387   2.950   9.645 -0.4264  0.1890  0.3703
22946SOL    HW172336   2.324   3.004   9.597 -0.9848  0.2557  1.1588
22946SOL    HW272337   2.422   3.009   9.711  1.7830  0.6749 -1.1243
22947SOL     OW72338   3.646   2.669   0.630 -0.0335  0.2916  0.0636
22947SOL    HW172339   3.619   2.578   0.637  0.8109 -0.1097 -1.3830
22947SOL    HW272340   3.740   2.665   0.610  0.1154  1.4845  0.4337
22948SOL     OW72341  10.685   6.478   6.697  0.1278 -0.0424 -0.1931
22948SOL    HW172342  10.656   6.438   6.780 -1.6236 -0.8851 -1.1544
22948SOL    HW272343  10.623   6.445   6.632 -0.3401  2.8602 -1.3714
22949SOL     OW72344   4.497   6.841   0.178 -0.2059  0.0181 -0.2625
22949SOL    HW172345   4.541   6.918   0.141  1.3825 -0.7299 -0.0103
22949SOL    HW272346   4.560   6.769   0.166 -1.2657 -1.0521  0.3629
22950SOL     OW72347   1.854   0.130   4.847  0.2833  0.2439  0.5661
22950SOL    HW172348   1.859   0.201   4.910 -0.0614 -0.3850  1.3215
22950SOL    HW272349   1.773   0.084   4.868  0.7616 -0.6902  0.4534
22951SOL     OW72350   7.752   9.003   8.015 -0.6530  0.6009 -0.2370
22951SOL    HW172351   7.816   9.074   8.004 -0.9076  0.8634 -0.0444
22951SOL    HW272352   7.765   8.946   7.939  1.4235 -0.6242  0.9207
22952SOL     OW72353   9.057   4.018   9.231  0.0972 -0.0034 -0.2359
22952SOL    HW172354   9.009   3.964   9.294  0.3887  0.5471  0.4692
22952SOL    HW272355   9.106   3.955   9.178 -2.0026 -0.6636 -1.5486
22953SOL     OW72356   8.580   6.481   6.105  0.6769 -0.4548  0.1747
22953SOL    HW172357   8.573   6.560   6.158 -0.0683 -1.1680  1.1814
22953SOL    HW272358   8.504   6.428   6.130  0.5488 -1.0079 -1.2928
22954SOL     OW72359   6.759   6.688   7.510  0.2657  0.7586 -0.1473
22954SOL    HW172360   6.785   6.663   7.599 -0.0565 -1.1602 -0.5442
22954SOL    HW272361   6.840   6.684   7.459 -0.0664 -1.5113 -0.6004
22955SOL     OW72362   9.393   0.603   5.595  0.2346 -0.0042  0.4339
22955SOL    HW172363   9.457   0.585   5.663  2.6320  2.0120 -1.0776
22955SOL    HW272364   9.330   0.663   5.636  0.4714 -0.4199  1.4165
22956SOL     OW72365  10.976   7.261   2.312 -0.1688  0.0202  0.2890
22956SOL    HW172366  10.915   7.315   2.262  0.1682 -0.5028 -0.7265
22956SOL    HW272367  10.921   7.199   2.359 -0.4353 -0.9350 -1.1997
22957SOL     OW72368   5.256   7.945   2.724  0.1437 -0.1558 -0.1482
22957SOL    HW172369   5.243   8.040   2.726 -0.2302 -0.1783 -0.9994
22957SOL    HW272370   5.321   7.931   2.655 -1.9059 -0.7082 -2.1003
22958SOL     OW72371   4.881   8.676   0.063  0.4476 -0.0435 -0.4345
22958SOL    HW172372   4.877   8.771   0.058  1.6547 -0.0386 -2.7557
22958SOL    HW272373   4.886   8.647  -0.028 -1.4413 -2.4605  0.0952
22959SOL     OW72374   9.138   9.027   6.395  0.0656 -0.4350  0.0538
22959SOL    HW172375   9.071   8.980   6.345  0.0674 -0.8571  0.4458
22959SOL    HW272376   9.109   9.020   6.486 -1.3993  2.6062 -0.0449
22960SOL     OW72377   3.355   9.555   1.313  0.4563  0.1410  0.4808
22960SOL    HW172378   3.307   9.473   1.312  0.1011  0.3275  1.2572
22960SOL    HW272379   3.445   9.530   1.333  0.6887 -0.2005 -0.9116
22961SOL     OW72380   1.232   0.024   5.117 -0.0767 -0.1387  0.6359
22961SOL    HW172381   1.327   0.018   5.116 -0.0758 -0.2632 -0.8154
22961SOL    HW272382   1.203  -0.063   5.142  0.1928 -0.6463 -0.7251
22962SOL     OW72383  10.128   9.873   7.909 -0.2721  0.0375  0.3533
22962SOL    HW172384  10.057   9.837   7.855  0.6508 -3.3287  1.1416
22962SOL    HW272385  10.095   9.869   7.998 -0.2731  1.6933  0.4586
22963SOL     OW72386   2.426   0.696   5.185  0.1622 -0.2757  0.1512
22963SOL    HW172387   2.504   0.698   5.129  0.1687 -0.3371  0.1573
22963SOL    HW272388   2.358   0.658   5.130 -0.0716  0.5064 -0.1068
22964SOL     OW72389   2.559   6.442  10.685 -0.1131  0.2755  0.3672
22964SOL    HW172390   2.538   6.534  10.701  1.2041  0.5914  0.3679
22964SOL    HW272391   2.654   6.440  10.676 -0.3006 -0.6557 -2.3733
22965SOL     OW72392  10.014   6.019   3.627 -0.6092  0.0992  0.4948
22965SOL    HW172393  10.068   6.097   3.620  0.4118 -0.6643 -0.6450
22965SOL    HW272394  10.058   5.965   3.694 -0.6615  0.0203  0.4659
22966SOL     OW72395   0.217   0.745   1.672 -0.2978 -0.0984 -0.0977
22966SOL    HW172396   0.263   0.663   1.691  0.0323 -0.0117 -0.5003
22966SOL    HW272397   0.287   0.810   1.662 -0.3695 -0.2706 -2.2607
22967SOL     OW72398   2.849   4.709   6.160  0.4175  0.0138  0.1316
22967SOL    HW172399   2.878   4.620   6.181  0.6979 -0.1182 -0.7711
22967SOL    HW272400   2.930   4.759   6.153  0.3254  0.0958 -0.4155
22968SOL     OW72401   8.601  10.169   1.055 -0.2547 -0.4786 -0.0669
22968SOL    HW172402   8.575  10.077   1.061 -0.7324 -0.3098  0.5523
22968SOL    HW272403   8.526  10.212   1.012  0.0092 -0.3989 -0.4473
22969SOL     OW72404   5.286   7.528   2.472  0.1194 -0.0709  0.1455
22969SOL    HW172405   5.214   7.553   2.414  0.3525  2.5372  0.8697
22969SOL    HW272406   5.243   7.499   2.552 -0.1617  0.7734  0.3088
22970SOL     OW72407   1.196   3.084   4.559  0.0176 -0.1645  0.2472
22970SOL    HW172408   1.173   3.175   4.546 -0.0716  0.0793  1.8486
22970SOL    HW272409   1.129   3.034   4.513  0.1244  0.5703 -0.7189
22971SOL     OW72410   6.457   2.513   5.815  0.6425  0.5219 -0.1565
22971SOL    HW172411   6.543   2.471   5.810  0.5847 -0.1031  2.4908
22971SOL    HW272412   6.454   2.551   5.903 -1.5590  1.0728 -0.4075
22972SOL     OW72413   9.024   9.785  10.806 -0.3390  0.0928 -0.2686
22972SOL    HW172414   9.001   9.848  10.738 -1.0734  0.8708  0.6659
22972SOL    HW272415   9.007   9.700  10.766 -1.6773  0.5604 -0.7534
22973SOL     OW72416   7.468   6.140   5.814  0.3929 -0.4640 -0.2694
22973SOL    HW172417   7.508   6.057   5.837  3.4020  0.0338 -2.9448
22973SOL    HW272418   7.532   6.182   5.756 -2.3388  2.3271 -1.5555
22974SOL     OW72419   8.315   1.661   2.478  0.5446 -0.0698 -0.5203
22974SOL    HW172420   8.398   1.707   2.465  0.8354  0.1475  1.7822
22974SOL    HW272421   8.338   1.581   2.524 -0.3364 -1.0485 -1.6865
22975SOL     OW72422   1.301   2.024   9.594 -0.1622  0.0978 -0.1660
22975SOL    HW172423   1.299   2.081   9.671  1.2782 -0.8501  0.6300
22975SOL    HW272424   1.223   1.969   9.604  0.4453 -0.5809  1.1035
22976SOL     OW72425   7.353  10.785   9.242 -0.6262 -0.3536  0.4961
22976SOL    HW172426   7.323  10.695   9.251 -0.8908 -0.4183 -0.8479
22976SOL    HW272427   7.282  10.838   9.278 -0.1890 -0.6911  1.8993
22977SOL     OW72428   7.753   6.650   8.047 -0.7129  0.1407  0.1728
22977SOL    HW172429   7.723   6.733   8.085 -1.1771  0.0088  0.0923
22977SOL    HW272430   7.776   6.672   7.957  1.2883  0.6630  0.7553
22978SOL     OW72431   9.670   4.132   4.587 -0.0979 -0.2654  0.1442
22978SOL    HW172432   9.642   4.051   4.630 -1.1683 -0.2027 -0.4153
22978SOL    HW272433   9.652   4.118   4.494  1.8059 -0.2335 -0.2726
22979SOL     OW72434   1.497   4.206   7.039 -0.0057 -0.1733  0.3175
22979SOL    HW172435   1.477   4.280   6.983  1.3099 -0.4765 -0.5908
22979SOL    HW272436   1.580   4.228   7.081 -0.3341 -0.5038  1.1758
22980SOL     OW72437   3.297  10.018   4.454  0.0529 -0.3157 -0.0208
22980SOL    HW172438   3.316   9.926   4.476 -1.0627 -0.4161  0.5862
22980SOL    HW272439   3.214  10.036   4.497 -1.0246  0.2298 -2.2086
22981SOL     OW72440   8.568   8.825  10.458 -0.5560 -0.2760  0.0389
22981SOL    HW172441   8.648   8.776  10.475 -0.9903 -1.1555 -0.3861
22981SOL    HW272442   8.552   8.875  10.538 -0.4223 -1.2855  0.7080
22982SOL     OW72443   5.558  10.558  10.087  0.3382 -0.4126  0.4293
22982SOL    HW172444   5.548  10.624  10.155  1.4532 -1.2553  1.4579
22982SOL    HW272445   5.651  10.561  10.064  0.2226 -1.0078 -0.1406
22983SOL     OW72446   4.066   6.768   5.029 -0.1176  0.0676  0.7224
22983SOL    HW172447   3.976   6.744   5.052 -0.7557  0.7576 -0.9101
22983SOL    HW272448   4.109   6.784   5.113 -1.5772 -0.0528  1.5185
22984SOL     OW72449   1.212   8.595   2.645 -0.8390 -0.1382  0.1401
22984SOL    HW172450   1.282   8.603   2.581 -0.4845  0.7327  0.6148
22984SOL    HW272451   1.195   8.685   2.674 -3.2918 -0.0915 -1.1284
22985SOL     OW72452   8.339   8.947   2.550 -0.1291  0.1067 -0.6488
22985SOL    HW172453   8.347   8.853   2.562 -0.8328  0.0881 -0.3180
22985SOL    HW272454   8.250   8.968   2.577  0.0085  0.8626 -0.7510
22986SOL     OW72455   1.200  10.762   1.705  0.1954 -0.3571  0.6885
22986SOL    HW172456   1.160  10.691   1.655  1.0015 -1.2220  1.2427
22986SOL    HW272457   1.220  10.722   1.790  0.7029  0.5234  0.9881
22987SOL     OW72458  10.937   5.012   4.627 -0.1817 -0.5201 -0.5441
22987SOL    HW172459  11.014   4.982   4.579 -0.3868  0.4475 -1.5077
22987SOL    HW272460  10.863   4.967   4.586 -0.3002 -0.1054 -0.7970
22988SOL     OW72461   2.367   3.680   2.446  0.1209  0.1518 -0.1611
22988SOL    HW172462   2.419   3.638   2.378  0.2208  0.5290 -0.3192
22988SOL    HW272463   2.283   3.634   2.444  0.3288 -0.2321 -0.1362
22989SOL     OW72464   1.134   5.946   2.427 -0.4349 -0.4343  0.4789
22989SOL    HW172465   1.040   5.944   2.410 -0.6374 -3.3345  1.5039
22989SOL    HW272466   1.147   5.886   2.500  2.2902 -0.4646  0.0721
22990SOL     OW72467   6.040   4.467   4.072 -0.4001 -0.0337 -0.6637
22990SOL    HW172468   6.116   4.443   4.018  0.3005 -1.9870  1.0368
22990SOL    HW272469   6.009   4.549   4.035  1.7915  0.1861 -2.1985
22991SOL     OW72470   9.805   4.128   3.436  0.0737  0.0073  0.0739
22991SOL    HW172471   9.711   4.123   3.416  0.1287  2.9410 -1.4637
22991SOL    HW272472   9.808   4.143   3.530 -1.2289  2.1826 -0.1485
22992SOL     OW72473   3.675   9.365   0.069 -0.0565  0.4520 -0.6452
22992SOL    HW172474   3.714   9.328  -0.010 -1.0415 -1.6663 -0.2104
22992SOL    HW272475   3.714   9.313   0.140  0.8046  2.3080  0.3000
22993SOL     OW72476   3.170   2.046  10.689  0.6762 -0.3430 -0.2331
22993SOL    HW172477   3.076   2.052  10.705  0.6411  0.7065 -0.7777
22993SOL    HW272478   3.190   1.953  10.703 -0.4364 -0.5859 -0.1166
22994SOL     OW72479   6.860   3.378   1.759 -0.1445 -0.5763  0.4848
22994SOL    HW172480   6.941   3.430   1.757 -0.0897 -0.5918  1.5490
22994SOL    HW272481   6.828   3.381   1.669 -0.2458  1.4632  0.5275
22995SOL     OW72482   9.691   7.466   3.119 -0.8454 -0.0569  0.3749
22995SOL    HW172483   9.707   7.494   3.209  0.4194 -0.5603  0.3139
22995SOL    HW272484   9.695   7.547   3.068 -2.0065  0.2928  0.8068
22996SOL     OW72485   1.531   9.815   9.945 -0.1585 -0.0974 -0.2306
22996SOL    HW172486   1.444   9.786   9.917 -0.4379  0.5089 -0.0227
22996SOL    HW272487   1.585   9.810   9.866 -0.2240 -1.0586 -0.2213
22997SOL     OW72488   9.992   9.343   9.344  0.1439  0.2049  0.0601
22997SOL    HW172489   9.944   9.423   9.366  0.0565  0.7012 -1.7668
22997SOL    HW272490   9.992   9.292   9.425 -1.8612  1.0112  0.6233
22998SOL     OW72491   2.754  10.147   3.937 -0.2611 -0.1947 -0.7621
22998SOL    HW172492   2.803  10.074   3.974 -2.2282 -1.0481  0.3110
22998SOL    HW272493   2.782  10.223   3.988  2.1737 -0.0019 -2.2164
22999SOL     OW72494  10.001   7.004   8.985 -0.1322  0.6342 -0.4249
22999SOL    HW172495   9.999   7.084   9.038  1.7535  1.0077 -0.8417
22999SOL    HW272496  10.089   7.002   8.949 -0.7475 -0.6372 -1.9791
23000SOL     OW72497   0.220   3.184   8.331 -0.7253  0.0373  0.4589
23000SOL    HW172498   0.142   3.223   8.293 -2.1270 -3.5978 -0.8920
23000SOL    HW272499   0.208   3.192   8.426 -3.3231 -1.2608  0.3270
23001SOL     OW72500   6.452   9.340   4.386 -0.9762  0.3832 -0.1928
23001SOL    HW172501   6.527   9.280   4.387 -0.7974  0.6066  0.6628
23001SOL    HW272502   6.412   9.327   4.300 -0.6171 -0.5624 -0.2297
23002SOL     OW72503   5.138   8.943   7.940  0.6742 -0.4629  0.0621
23002SOL    HW172504   5.165   8.977   7.855 -0.2839 -1.0735 -0.5064
23002SOL    HW272505   5.093   9.016   7.982 -1.8629 -1.0682 -1.3718
23003SOL     OW72506   6.258   1.782   4.275  0.0938 -0.6370  0.2798
23003SOL    HW172507   6.224   1.856   4.225  0.4134 -0.8105 -0.2040
23003SOL    HW272508   6.272   1.714   4.209 -0.7115 -1.3126  0.7953
23004SOL     OW72509  10.626   5.664   5.799  0.3437  0.1174 -0.1620
23004SOL    HW172510  10.602   5.596   5.736  1.3991 -0.2915 -0.1617
23004SOL    HW272511  10.568   5.650   5.873 -1.4460  1.0982 -1.3243
23005SOL     OW72512   9.755   2.324   0.647  0.2849 -0.3014 -0.0121
23005SOL    HW172513   9.674   2.375   0.638  0.5877  0.3039  0.6162
23005SOL    HW272514   9.808   2.349   0.571  0.4300  0.3303  0.2924
23006SOL     OW72515   3.253   4.121   1.787 -0.5194  0.1944  0.2677
23006SOL    HW172516   3.278   4.189   1.850 -0.7203  0.6460 -0.1315
23006SOL    HW272517   3.233   4.045   1.841 -1.0333  0.6794  0.7830
23007SOL     OW72518   7.751   5.663   8.413  0.6320 -0.0517 -0.1036
23007SOL    HW172519   7.738   5.745   8.461  0.3307  0.5616 -1.2044
23007SOL    HW272520   7.666   5.619   8.419  0.7978 -0.3060  0.5003
23008SOL     OW72521   5.807   0.272   6.060 -0.3180 -0.2925  0.0477
23008SOL    HW172522   5.783   0.364   6.046 -1.5380 -0.8379 -1.7449
23008SOL    HW272523   5.745   0.241   6.127 -0.6308 -0.1037 -0.1522
23009SOL     OW72524   6.535   2.434   5.449 -1.0409 -0.0735 -0.2562
23009SOL    HW172525   6.619   2.445   5.493 -1.2712 -0.6544  0.3512
23009SOL    HW272526   6.517   2.519   5.410 -1.1476  0.6709  1.3433
23010SOL     OW72527   7.651   3.957   8.129 -0.6664  0.2728 -0.3992
23010SOL    HW172528   7.721   4.021   8.139 -0.1483 -0.0231 -1.8208
23010SOL    HW272529   7.609   3.953   8.214  0.6634  0.9156  0.3138
23011SOL     OW72530   7.581   4.345   6.269 -0.3871  0.4960 -0.0287
23011SOL    HW172531   7.513   4.407   6.242 -1.2085  0.8628  2.5438
23011SOL    HW272532   7.627   4.322   6.188 -1.5838  2.6246 -1.4170
23012SOL     OW72533   4.710   9.605   7.233 -0.0446 -0.0019  0.3158
23012SOL    HW172534   4.692   9.515   7.206  0.1489  0.3576 -1.0692
23012SOL    HW272535   4.717   9.654   7.151 -0.6074  1.3752  1.0568
23013SOL     OW72536  10.042   6.487   1.656  0.2728 -0.0261  0.2640
23013SOL    HW172537  10.092   6.555   1.701  0.5718  0.1068 -0.2537
23013SOL    HW272538   9.990   6.535   1.591 -0.1251 -0.2163  0.4412
23014SOL     OW72539   5.647   4.226   4.029 -0.0546 -0.4599 -0.6679
23014SOL    HW172540   5.668   4.319   4.040 -1.2338 -0.2949  0.3490
23014SOL    HW272541   5.732   4.184   4.018  0.6623  0.4911  0.9130
23015SOL     OW72542   6.412   2.231   8.854 -0.0089 -0.5127  0.7542
23015SOL    HW172543   6.432   2.209   8.763 -2.5643 -0.2291  0.0490
23015SOL    HW272544   6.444   2.156   8.904 -0.1547 -1.4993 -0.5765
23016SOL     OW72545   2.195   6.710   8.701 -0.0531  0.4114  0.3288
23016SOL    HW172546   2.154   6.638   8.654  1.4158 -0.0326 -0.3280
23016SOL    HW272547   2.126   6.744   8.758  0.0444 -3.7730  3.3950
23017SOL     OW72548  10.567  10.538   2.661  0.0928 -0.0110  0.2037
23017SOL    HW172549  10.590  10.454   2.702 -0.8918 -0.1482  0.5110
23017SOL    HW272550  10.559  10.518   2.568  1.4283  0.1021  0.0389
23018SOL     OW72551   3.886   2.823   6.502  0.5254 -0.0779 -1.1091
23018SOL    HW172552   3.944   2.836   6.426 -1.5523 -0.2114 -2.8018
23018SOL    HW272553   3.837   2.905   6.509  0.0985 -0.3868 -0.4278
23019SOL     OW72554   9.448   1.949   7.471 -0.2238 -0.1168  0.0785
23019SOL    HW172555   9.488   1.948   7.384  0.3633 -1.8586  0.3131
23019SOL    HW272556   9.523   1.950   7.531 -0.6239  1.0503  0.5825
23020SOL     OW72557   3.003  10.915   5.161 -0.2933  0.6601  0.1764
23020SOL    HW172558   2.967  10.826   5.154 -1.0766  0.8668  1.3254
23020SOL    HW272559   2.995  10.950   5.072  0.9976 -0.7536 -0.5567
23021SOL     OW72560   3.643   2.138   3.518 -0.1582 -0.6168  0.0545
23021SOL    HW172561   3.660   2.168   3.608  0.2236 -0.6417 -0.0061
23021SOL    HW272562   3.668   2.046   3.519  1.2981 -0.2578 -0.4537
23022SOL     OW72563   1.671   6.469   0.661 -0.2941  0.0047  0.4368
23022SOL    HW172564   1.695   6.518   0.583 -0.1233 -1.4019 -0.4193
23022SOL    HW272565   1.576   6.478   0.668 -0.5467 -1.3065 -0.9610
23023SOL     OW72566   3.230   9.789   2.118  0.0061 -0.4487  0.2100
23023SOL    HW172567   3.193   9.747   2.195  0.0734 -1.4405 -0.2836
23023SOL    HW272568   3.324   9.772   2.124 -0.0956 -1.3673 -0.5707
23024SOL     OW72569   8.876   8.291   6.459 -0.1705 -0.0373  0.2123
23024SOL    HW172570   8.891   8.217   6.518  0.8235  0.4571  0.6125
23024SOL    HW272571   8.866   8.251   6.372 -1.1705 -0.7384  0.6226
23025SOL     OW72572   5.500   1.874   6.064 -0.2754 -0.3511  0.2404
23025SOL    HW172573   5.589   1.878   6.098 -0.4416 -1.9490  0.9465
23025SOL    HW272574   5.455   1.947   6.107  0.4814  0.0003  0.4638
23026SOL     OW72575   4.421   4.799   2.972  0.5785  0.2884  0.4294
23026SOL    HW172576   4.513   4.781   2.950  1.0835  0.9538  1.8750
23026SOL    HW272577   4.392   4.721   3.019 -0.6270 -1.3133 -2.6919
23027SOL     OW72578   6.154   2.132   1.039  0.5368  0.2705 -0.1892
23027SOL    HW172579   6.227   2.071   1.027 -0.5915 -1.0230 -0.8508
23027SOL    HW272580   6.076   2.078   1.027 -0.5414  1.5996  0.5306
23028SOL     OW72581   0.453   0.893   8.959 -0.4193 -0.1859  0.0071
23028SOL    HW172582   0.416   0.851   9.036 -0.7593  0.5255  0.2347
23028SOL    HW272583   0.452   0.987   8.979 -0.5368  0.0094 -0.8699
23029SOL     OW72584   5.083   0.502   0.222  0.2235  0.5132  0.0900
23029SOL    HW172585   5.142   0.529   0.293  1.2572  1.6994 -1.1862
23029SOL    HW272586   4.995   0.520   0.256  0.7352  1.7982  0.7854
23030SOL     OW72587   4.738   5.990   0.567  0.4443 -0.3279 -0.0960
23030SOL    HW172588   4.806   5.962   0.629  0.2767  1.5879  1.0160
23030SOL    HW272589   4.776   5.972   0.481  1.6830 -0.8359  0.5292
23031SOL     OW72590   4.551   4.976   4.721 -0.2895  0.1370 -0.3831
23031SOL    HW172591   4.586   5.013   4.640 -2.0869  2.0369 -0.3912
23031SOL    HW272592   4.494   4.905   4.691  1.8680 -1.6688 -0.4751
23032SOL     OW72593   4.942   7.120   8.587 -0.1322 -0.2481  0.4374
23032SOL    HW172594   4.911   7.092   8.501 -1.1040  0.2676  0.6031
23032SOL    HW272595   5.007   7.054   8.613 -0.2173 -0.6892 -0.4550
23033SOL     OW72596   8.147   3.549   6.174 -0.1729 -0.0946  0.1677
23033SOL    HW172597   8.153   3.455   6.157 -0.0366 -0.4908  2.1574
23033SOL    HW272598   8.238   3.577   6.187 -0.3010  0.0510  0.7768
23034SOL     OW72599   1.706   7.362   5.663 -0.5820  0.1020  0.8469
23034SOL    HW172600   1.791   7.330   5.693 -0.4465  1.7980  2.4370
23034SOL    HW272601   1.654   7.283   5.651  1.4206 -1.0541 -1.0344
23035SOL     OW72602   0.670   2.166   9.581 -0.0641 -0.5904 -0.0524
23035SOL    HW172603   0.597   2.180   9.642 -1.1934 -1.4857 -1.1609
23035SOL    HW272604   0.687   2.253   9.545 -0.5569 -0.3652  0.2340
23036SOL     OW72605   2.403   8.470   8.509  0.8040  0.0539 -0.0273
23036SOL    HW172606   2.453   8.457   8.429 -1.8543  0.8208 -1.9808
23036SOL    HW272607   2.430   8.556   8.541  0.9442  0.3378 -0.8943
23037SOL     OW72608   7.834   1.152   8.884 -0.5099 -0.0389  0.0616
23037SOL    HW172609   7.763   1.171   8.945  0.2825 -0.7866  1.2503
23037SOL    HW272610   7.824   1.060   8.862  1.0033 -0.6127  1.5359
23038SOL     OW72611   2.431   2.005   5.126  0.1465 -0.5095  0.2224
23038SOL    HW172612   2.506   2.045   5.082  0.4958 -0.0891  1.1802
23038SOL    HW272613   2.470   1.933   5.176  0.1290  0.5570  1.8198
23039SOL     OW72614   7.134   6.394   4.080 -0.6357 -0.2224 -0.7965
23039SOL    HW172615   7.073   6.325   4.105 -1.0532  0.8865  1.4861
23039SOL    HW272616   7.083   6.452   4.024 -0.8117 -0.8031 -1.2466
23040SOL     OW72617   5.278   5.125   7.596  0.3464 -0.3954  0.7894
23040SOL    HW172618   5.316   5.046   7.635  0.2895 -0.1257  1.3926
23040SOL    HW272619   5.339   5.195   7.621  0.2802 -0.2112  0.4394
23041SOL     OW72620   0.940   9.508   0.858 -0.0948  0.5879  0.4697
23041SOL    HW172621   0.906   9.550   0.937  0.8825 -1.7523  2.2513
23041SOL    HW272622   1.001   9.442   0.890 -0.2199 -0.9841 -2.2339
23042SOL     OW72623   0.394   1.879   2.048 -0.2175  0.4400  0.2254
23042SOL    HW172624   0.423   1.791   2.026 -1.7054 -0.0093 -0.0995
23042SOL    HW272625   0.301   1.869   2.069 -0.9347  2.1977 -1.7458
23043SOL     OW72626   7.247   1.996  10.264  0.1848  0.2139  0.7075
23043SOL    HW172627   7.264   1.913  10.219  1.1117  0.9649 -0.3726
23043SOL    HW272628   7.219   2.056  10.194 -2.4880  0.3157  1.7368
23044SOL     OW72629  10.468   3.083   7.820 -0.4888 -0.4279  1.3748
23044SOL    HW172630  10.399   3.042   7.872 -2.2932  1.3512  0.5173
23044SOL    HW272631  10.441   3.175   7.812  1.0026 -0.0964 -0.6110
23045SOL     OW72632   1.394   2.850   2.378  0.2355 -0.2321 -0.3709
23045SOL    HW172633   1.446   2.840   2.298 -0.5097  0.2180 -0.9247
23045SOL    HW272634   1.391   2.944   2.393 -0.6726 -0.2299 -0.5276
23046SOL     OW72635   3.596   5.906   9.044 -0.0564  0.6986  0.1489
23046SOL    HW172636   3.678   5.878   9.085  0.5408  1.8586 -0.1873
23046SOL    HW272637   3.607   5.885   8.951 -0.3449  0.4096  0.1787
23047SOL     OW72638   4.369   6.767  10.396  0.5035  0.1139 -0.1103
23047SOL    HW172639   4.430   6.770  10.470 -0.3367  0.5205  0.5837
23047SOL    HW272640   4.283   6.783  10.435 -0.1298 -0.9958 -0.9905
23048SOL     OW72641   4.626   3.762   7.738  0.8565  0.0294  0.4055
23048SOL    HW172642   4.538   3.734   7.712  1.0202  0.8472 -1.1960
23048SOL    HW272643   4.611   3.828   7.805  0.2334  0.1610  0.1475
23049SOL     OW72644   1.184   8.056   0.976  0.4595 -0.0034 -0.0149
23049SOL    HW172645   1.095   8.022   0.966 -0.2607  0.0149  4.3563
23049SOL    HW272646   1.237   7.978   0.993  0.5333  0.2501  0.9894
23050SOL     OW72647   4.833   2.842   4.713 -0.5472  0.0156  0.2490
23050SOL    HW172648   4.842   2.786   4.636 -2.7460 -0.0972  0.0385
23050SOL    HW272649   4.841   2.932   4.679  2.1901 -0.0447  0.4814
23051SOL     OW72650   0.656   8.537   2.092 -0.0243  0.1590  0.7974
23051SOL    HW172651   0.643   8.442   2.092 -1.9772  0.3792  1.7454
23051SOL    HW272652   0.592   8.570   2.156  0.9980  2.0702  0.9066
23052SOL     OW72653   0.546   8.426   5.003 -0.4088  0.0593 -0.1436
23052SOL    HW172654   0.533   8.352   5.062  0.5543 -1.2664 -1.5480
23052SOL    HW272655   0.613   8.480   5.046 -0.9210  0.0020  0.7524
23053SOL     OW72656   3.086   5.447   8.832 -0.2046 -0.1543  0.5413
23053SOL    HW172657   3.104   5.536   8.862 -0.6618 -0.1836  0.9250
23053SOL    HW272658   3.172   5.408   8.817 -0.0069  0.4510  0.0726
23054SOL     OW72659  10.049   6.365   2.212  0.1224 -0.5384 -0.0493
23054SOL    HW172660   9.991   6.292   2.191  1.8812 -1.4395 -2.1482
23054SOL    HW272661  10.135   6.324   2.222  0.7663  1.0028  0.9946
23055SOL     OW72662   0.726   2.442   4.488 -0.2903 -0.6792 -0.0085
23055SOL    HW172663   0.644   2.416   4.446  0.1566  0.7785 -1.8684
23055SOL    HW272664   0.784   2.466   4.416  0.8634  0.9226  1.3770
23056SOL     OW72665   4.102   8.049   0.552  0.1574  0.2001 -0.4009
23056SOL    HW172666   4.108   8.107   0.628 -0.9525 -0.1682 -0.0129
23056SOL    HW272667   4.060   7.970   0.586  0.5181 -0.3468 -1.1986
23057SOL     OW72668   6.159   9.659   8.541 -0.0296 -0.2478  0.4166
23057SOL    HW172669   6.135   9.637   8.631 -0.7151 -0.0486  0.2879
23057SOL    HW272670   6.091   9.618   8.487 -0.1456  0.4146  0.0489
23058SOL     OW72671  10.992   6.458  10.962  0.0061 -0.0220  0.1324
23058SOL    HW172672  11.020   6.492  10.876 -0.4079  0.4642  0.1902
23058SOL    HW272673  10.992   6.535  11.019 -0.4224 -0.2187  0.3937
23059SOL     OW72674   7.530   7.497   1.519 -0.2850 -0.4253  0.2026
23059SOL    HW172675   7.564   7.511   1.608 -0.2818 -0.4781  0.2101
23059SOL    HW272676   7.604   7.516   1.462 -0.1951 -0.6947  0.2267
23060SOL     OW72677   3.215   6.841   5.278 -1.0524  0.3220 -0.0058
23060SOL    HW172678   3.129   6.799   5.267 -0.5466 -0.4559 -1.1673
23060SOL    HW272679   3.233   6.881   5.194 -0.1238  0.1853  0.1153
23061SOL     OW72680   0.329   8.071   1.280 -0.3122  0.2444  0.0302
23061SOL    HW172681   0.251   8.043   1.328 -1.0271  1.2565 -0.4930
23061SOL    HW272682   0.296   8.133   1.215  1.1434  2.3262  1.1338
23062SOL     OW72683   9.644   4.902   8.274 -0.2002 -0.0201 -0.2067
23062SOL    HW172684   9.658   4.980   8.220 -0.5587  0.9779  1.0960
23062SOL    HW272685   9.585   4.847   8.222 -0.7354  1.0224 -0.7233
23063SOL     OW72686   2.208   3.677   4.317  0.0849  0.0501 -0.8578
23063SOL    HW172687   2.192   3.708   4.227  1.1604 -0.2540 -1.1673
23063SOL    HW272688   2.265   3.743   4.355  0.2565 -0.2205 -0.6455
23064SOL     OW72689   9.502   5.989   0.754 -1.1926  0.5075 -0.2499
23064SOL    HW172690   9.562   6.050   0.798 -3.4854  1.6483  1.4736
23064SOL    HW272691   9.472   5.930   0.823 -1.3006 -0.7088 -1.2996
23065SOL     OW72692   5.530   6.692  10.798  0.1420 -0.3796 -0.2323
23065SOL    HW172693   5.500   6.626  10.860  0.0868 -2.6482 -2.5582
23065SOL    HW272694   5.614   6.659  10.766  0.3765  0.9686 -1.1050
23066SOL     OW72695   3.716   9.897   4.168 -0.2079  0.2017  0.1236
23066SOL    HW172696   3.808   9.901   4.194 -0.1551  0.6815 -0.1107
23066SOL    HW272697   3.693   9.805   4.176 -0.7349  0.5159  3.6107
23067SOL     OW72698   8.218   8.410   8.844 -0.0528  0.0328 -0.2461
23067SOL    HW172699   8.223   8.360   8.925 -0.0182  2.0157  1.0587
23067SOL    HW272700   8.310   8.422   8.817 -0.1161 -2.5432 -1.9191
23068SOL     OW72701   8.300  10.387   3.281 -0.5391 -0.5209 -0.0560
23068SOL    HW172702   8.319  10.313   3.338 -0.7969 -1.3435 -0.9981
23068SOL    HW272703   8.217  10.423   3.312 -0.3231 -0.5127  0.5119
23069SOL     OW72704   2.804   5.868   4.473  0.4733 -0.7500 -0.2738
23069SOL    HW172705   2.731   5.827   4.426 -1.1843  0.0696  1.4637
23069SOL    HW272706   2.853   5.794   4.510 -0.1976 -1.2787 -0.4250
23070SOL     OW72707   3.866  10.037   0.791  0.0490  0.2051 -0.1893
23070SOL    HW172708   3.786  10.089   0.790  0.6267  1.1435  0.3111
23070SOL    HW272709   3.923  10.083   0.852  0.5478 -1.0984  0.3546
23071SOL     OW72710   4.489   7.015  10.619 -0.2997 -0.7385 -0.1128
23071SOL    HW172711   4.455   7.010  10.708 -0.1976 -1.6026 -0.1221
23071SOL    HW272712   4.411   7.005  10.563 -0.2983 -0.6800 -0.1261
23072SOL     OW72713  10.514   4.748   7.617  0.4947  0.3865 -0.2419
23072SOL    HW172714  10.463   4.828   7.600 -1.1098 -0.5745 -0.1041
23072SOL    HW272715  10.460   4.698   7.678 -0.1756 -2.2965 -2.7887
23073SOL     OW72716   0.798  10.832   2.519 -0.6225 -0.4188 -0.2315
23073SOL    HW172717   0.870  10.860   2.576 -1.3592  2.0303 -0.3934
23073SOL    HW272718   0.830  10.849   2.430 -0.9804 -0.3650 -0.3520
23074SOL     OW72719   4.852   7.964   8.462 -0.6508 -0.1544  0.0733
23074SOL    HW172720   4.840   7.869   8.469 -1.8135  0.1128  3.6843
23074SOL    HW272721   4.765   7.998   8.444 -0.4942  0.3090  0.1889
23075SOL     OW72722   5.261   9.948   3.524  0.4355 -0.0594 -0.1938
23075SOL    HW172723   5.182   9.930   3.473  2.6356 -2.6406 -3.0781
23075SOL    HW272724   5.309  10.013   3.473  1.1764 -0.1584  0.3466
23076SOL     OW72725   5.675   8.158   5.193  0.1872  0.4726  0.3800
23076SOL    HW172726   5.666   8.238   5.142 -0.8065 -0.3937 -0.8619
23076SOL    HW272727   5.589   8.116   5.187  1.0102 -1.2622 -0.0060
23077SOL     OW72728   6.365  10.625   6.044 -0.0494  0.1640 -0.6371
23077SOL    HW172729   6.459  10.635   6.029  0.0445 -1.1232 -1.0496
23077SOL    HW272730   6.359  10.580   6.128 -0.2151 -1.2508 -1.3805
23078SOL     OW72731   9.305   1.351   2.393  0.2675  0.0528  0.4070
23078SOL    HW172732   9.351   1.435   2.386 -1.1020  0.9163  1.2271
23078SOL    HW272733   9.213   1.373   2.380 -0.2556 -1.1259  1.7859
23079SOL     OW72734   0.610   0.430   1.692  0.0205 -0.0572  0.2092
23079SOL    HW172735   0.702   0.440   1.666 -0.1847 -0.8947 -0.8926
23079SOL    HW272736   0.601   0.337   1.712 -0.7866 -0.1571 -0.5615
23080SOL     OW72737   4.320   3.157   0.098 -0.5174 -0.5324 -0.3825
23080SOL    HW172738   4.309   3.143   0.192  0.0824  0.6054 -0.1232
23080SOL    HW272739   4.247   3.110   0.058 -0.6658 -1.1935  0.6390
23081SOL     OW72740  10.731   8.162   5.591  0.7834  0.2545  0.3715
23081SOL    HW172741  10.678   8.095   5.547  0.1993  0.4788  0.7273
23081SOL    HW272742  10.804   8.113   5.629  0.5265 -0.1393  0.3640
23082SOL     OW72743  10.967   6.678   3.479  0.1305 -0.0210 -0.1350
23082SOL    HW172744  10.994   6.691   3.570  0.3711 -0.4681 -0.1427
23082SOL    HW272745  10.872   6.668   3.484 -0.2334  2.6169 -0.2192
23083SOL     OW72746   0.616   4.503   4.751  0.1623 -0.0333  0.2063
23083SOL    HW172747   0.666   4.568   4.702  0.9264 -1.1248 -0.4903
23083SOL    HW272748   0.530   4.544   4.765 -1.0580 -0.5670 -4.2490
23084SOL     OW72749   6.824   4.648   2.765 -0.1649 -0.1917 -0.6912
23084SOL    HW172750   6.855   4.621   2.678  0.1004  0.7434 -0.8953
23084SOL    HW272751   6.896   4.628   2.824 -0.0107 -0.0313 -0.8243
23085SOL     OW72752   3.911   7.863   6.123 -0.5727 -0.3417  0.2194
23085SOL    HW172753   3.851   7.818   6.064 -0.0792  0.1198 -0.6624
23085SOL    HW272754   3.942   7.938   6.072 -1.3778  1.0108  1.6409
23086SOL     OW72755   7.834   1.206   7.141  0.3884  0.4992  0.0850
23086SOL    HW172756   7.874   1.213   7.054 -1.9305 -0.4500 -1.1403
23086SOL    HW272757   7.794   1.292   7.156  2.2792  1.2701  1.0790
23087SOL     OW72758   0.913   8.031   4.085 -0.3201  0.0629 -0.1817
23087SOL    HW172759   0.953   8.030   4.172  0.2474 -0.2223 -0.4401
23087SOL    HW272760   0.939   8.116   4.048 -1.0978  0.4634  0.1641
23088SOL     OW72761   9.190   1.761   5.369  0.4221 -0.0990  0.5065
23088SOL    HW172762   9.235   1.781   5.287  0.9091 -2.8305  0.0236
23088SOL    HW272763   9.256   1.778   5.437  0.3502  1.1878  0.2690
23089SOL     OW72764   5.030   8.127   3.567 -0.0781  0.3655 -0.5342
23089SOL    HW172765   5.047   8.059   3.501 -1.6521 -0.6172  0.0247
23089SOL    HW272766   5.056   8.087   3.650 -2.7464 -0.3550  0.0499
23090SOL     OW72767   7.114   4.117   2.943 -0.5281  0.7708  0.3061
23090SOL    HW172768   7.133   4.203   2.907  1.1982 -0.1775 -1.1974
23090SOL    HW272769   7.189   4.097   2.999  0.2279 -0.6425 -1.1356
23091SOL     OW72770   8.318   6.032   2.632 -0.1979 -0.2991  0.3226
23091SOL    HW172771   8.349   5.968   2.569  0.6965  0.6502 -0.2338
23091SOL    HW272772   8.318   6.115   2.584 -0.3692  0.2862  1.3105
23092SOL     OW72773   8.522   9.051   0.492  0.3226 -0.2536  0.3362
23092SOL    HW172774   8.599   9.056   0.548 -0.0105 -2.1788  1.0623
23092SOL    HW272775   8.469   8.982   0.531  0.0642 -1.7109 -2.3373
23093SOL     OW72776   6.193   1.786   7.663 -0.7007 -0.2445  0.2332
23093SOL    HW172777   6.163   1.839   7.589 -1.8320  0.0757  0.9115
23093SOL    HW272778   6.118   1.779   7.721 -0.0840 -1.2199  0.9587
23094SOL     OW72779   0.321   6.817   7.216 -0.3405 -0.2232  0.0445
23094SOL    HW172780   0.369   6.754   7.163 -1.4782 -2.1428  1.1671
23094SOL    HW272781   0.243   6.770   7.245 -1.6792  1.9822  0.2902
23095SOL     OW72782   8.809  10.862  10.885  0.4720 -0.1412  0.9144
23095SOL    HW172783   8.721  10.899  10.894 -0.1421 -1.5665  1.0041
23095SOL    HW272784   8.802  10.804  10.810  1.6275  0.4745  0.3063
23096SOL     OW72785  10.190  10.189   8.670  0.0223  0.5303  0.3363
23096SOL    HW172786  10.277  10.211   8.637  0.0230  2.1370  1.3289
23096SOL    HW272787  10.175  10.099   8.639  1.7922  0.4148 -0.3024
23097SOL     OW72788   1.416   3.134  10.431 -0.7800 -0.0703  0.4093
23097SOL    HW172789   1.510   3.150  10.441 -0.6671  0.9099 -1.6138
23097SOL    HW272790   1.383   3.130  10.520  0.7264  2.5170  1.2188
23098SOL     OW72791   4.737   6.798   2.487 -0.3047  0.0063 -0.0148
23098SOL    HW172792   4.763   6.765   2.401  0.0045  0.3939 -0.0727
23098SOL    HW272793   4.666   6.860   2.468  0.1805  0.5675 -0.0603
23099SOL     OW72794   8.354   3.196   5.714  0.0437 -0.0664 -0.1500
23099SOL    HW172795   8.375   3.104   5.697  0.6711  0.2153 -0.9286
23099SOL    HW272796   8.435   3.232   5.750 -0.0019  0.3460 -0.4646
23100SOL     OW72797   5.035   2.357   0.137  0.1854  0.3971  0.8966
23100SOL    HW172798   4.973   2.384   0.069 -0.8847 -0.1423  1.6261
23100SOL    HW272799   4.995   2.280   0.177  1.8633 -0.6624  0.6683
23101SOL     OW72800   8.881   7.058   5.671  0.2177  0.5735 -0.5952
23101SOL    HW172801   8.913   6.969   5.656 -0.1620  0.5277 -1.1542
23101SOL    HW272802   8.793   7.058   5.634 -0.2781  0.8227  0.5236
23102SOL     OW72803   1.385   5.853   3.096 -0.2703  0.4213  0.1953
23102SOL    HW172804   1.344   5.834   3.180 -0.3723 -1.4672 -0.2575
23102SOL    HW272805   1.395   5.768   3.053  0.7251  1.2308 -1.2779
23103SOL     OW72806   9.435   6.961   5.994  0.9377 -0.3382 -0.3193
23103SOL    HW172807   9.370   6.908   6.040  0.6311  0.3269  0.0435
23103SOL    HW272808   9.518   6.918   6.012  0.5347 -1.6497 -1.4378
23104SOL     OW72809   0.189   6.028   2.189  0.7045  0.1117  0.2116
23104SOL    HW172810   0.155   6.028   2.099 -1.5645  1.6283  0.9894
23104SOL    HW272811   0.224   5.940   2.201  0.5723 -0.2978 -1.9640
23105SOL     OW72812   1.300   3.125   1.367  0.0589  0.3576 -0.0749
23105SOL    HW172813   1.390   3.158   1.365  0.1136  0.3483  1.0979
23105SOL    HW272814   1.262   3.165   1.445 -0.7029 -0.2661 -0.1087
23106SOL     OW72815   2.282   7.127   8.114  0.4390  0.0876 -0.1775
23106SOL    HW172816   2.199   7.130   8.068  0.1719 -0.3744  0.2599
23106SOL    HW272817   2.299   7.217   8.139 -1.2693 -0.1120  2.0417
23107SOL     OW72818   2.170   2.927   3.847  0.2488  0.0910  0.0364
23107SOL    HW172819   2.247   2.942   3.792 -0.2080  0.3700 -0.5433
23107SOL    HW272820   2.177   2.835   3.873  1.0632  0.2629  0.4529
23108SOL     OW72821   5.116   5.100  10.043  0.6629 -0.5951  0.2121
23108SOL    HW172822   5.074   5.185  10.030 -0.0596 -1.0479 -0.5780
23108SOL    HW272823   5.192   5.102   9.986  0.1574 -0.7937 -0.4816
23109SOL     OW72824   3.023   8.970   0.428 -0.1078  0.4321  0.1629
23109SOL    HW172825   3.116   8.970   0.454 -0.2276 -0.1554  0.6317
23109SOL    HW272826   2.977   8.935   0.505 -0.6764  0.3669 -0.2020
23110SOL     OW72827   3.577   1.635   6.130  0.1307  0.3691  0.4899
23110SOL    HW172828   3.648   1.667   6.074  1.1715  0.1462  1.6388
23110SOL    HW272829   3.509   1.701   6.122  0.1487  0.2295 -1.2024
23111SOL     OW72830   0.493   2.219  10.176  0.1153 -0.4600 -0.0202
23111SOL    HW172831   0.437   2.221  10.099  1.4720  1.3610 -1.0364
23111SOL    HW272832   0.446   2.165  10.239 -1.6002 -0.9882 -1.6878
23112SOL     OW72833   0.248   9.296   5.434  0.5455 -0.3227 -0.1143
23112SOL    HW172834   0.284   9.224   5.486 -0.9204  0.8302  2.7455
23112SOL    HW272835   0.168   9.259   5.395 -0.6162 -0.1482  1.9547
23113SOL     OW72836   3.004   3.937   7.162  0.7964  0.0380 -0.5048
23113SOL    HW172837   3.058   3.895   7.230  1.1274  0.4557 -0.5047
23113SOL    HW272838   3.004   4.030   7.186  0.2829  0.0813 -0.6518
23114SOL     OW72839   3.271   8.700   2.063 -0.4934 -0.2695 -0.5242
23114SOL    HW172840   3.245   8.651   1.985  2.3853  1.2518 -2.6194
23114SOL    HW272841   3.191   8.746   2.090 -1.9393 -2.0132 -1.6007
23115SOL     OW72842   9.407   2.890   5.077  0.1344 -0.4049  0.5370
23115SOL    HW172843   9.428   2.825   5.144  1.5081 -0.7171 -0.1563
23115SOL    HW272844   9.490   2.905   5.031 -1.2027 -2.2059 -2.8438
23116SOL     OW72845   3.639   4.053   6.001 -0.4175 -0.0326 -0.2619
23116SOL    HW172846   3.682   4.108   5.936 -0.1445 -0.0482 -0.0955
23116SOL    HW272847   3.710   4.021   6.057 -0.6217 -0.2145 -0.1023
23117SOL     OW72848   9.289   3.090   4.746 -0.4693  0.0492  0.0134
23117SOL    HW172849   9.330   3.142   4.676 -2.9882 -0.6777 -2.1832
23117SOL    HW272850   9.318   3.000   4.729 -0.5717 -0.0476  0.3408
23118SOL     OW72851   4.682   0.304   4.017  0.0168  0.5401 -0.5273
23118SOL    HW172852   4.601   0.262   3.989  1.3222 -1.5718 -1.4265
23118SOL    HW272853   4.697   0.270   4.105  0.9756 -0.8807 -1.1846
23119SOL     OW72854   6.305   4.366  10.755  0.2008  0.9169 -0.5348
23119SOL    HW172855   6.384   4.343  10.804 -0.7378 -1.5073 -0.0533
23119SOL    HW272856   6.323   4.335  10.666 -0.8144 -1.2834 -0.0311
23120SOL     OW72857   9.614   9.136   4.087  0.1877 -0.0985  0.3949
23120SOL    HW172858   9.553   9.064   4.107  0.2208 -0.3664 -0.4502
23120SOL    HW272859   9.561   9.215   4.098 -0.0327 -0.2802  0.6653
23121SOL     OW72860   8.671   3.337   7.895 -0.1007 -0.1463 -0.4793
23121SOL    HW172861   8.767   3.340   7.900 -0.1726  0.2630  1.4111
23121SOL    HW272862   8.649   3.247   7.920 -0.2514  0.2016  0.6930
23122SOL     OW72863   9.100   5.611   6.658  0.2398  0.0953 -0.1355
23122SOL    HW172864   9.064   5.525   6.635 -0.0726 -0.4710  2.1785
23122SOL    HW272865   9.064   5.629   6.745  0.7024  2.3615 -0.3588
23123SOL     OW72866   8.791   0.632  10.820  0.0971 -0.4565  0.9009
23123SOL    HW172867   8.873   0.674  10.792  1.2852  0.1140  4.6529
23123SOL    HW272868   8.749   0.605  10.739  3.2833  0.5650 -1.2855
23124SOL     OW72869   1.411   8.086   3.633 -0.3399 -0.8579  0.0124
23124SOL    HW172870   1.417   7.997   3.599  1.3649 -0.7379 -0.0902
23124SOL    HW272871   1.319   8.097   3.656 -0.5973 -2.6075 -0.0641
23125SOL     OW72872   7.079   2.882   5.307  0.3639  0.4122  0.0528
23125SOL    HW172873   7.056   2.808   5.364  1.7247  1.7033  2.4357
23125SOL    HW272874   7.141   2.845   5.244 -0.2731 -0.8175  0.1194
23126SOL     OW72875   6.981   7.453   1.707 -0.0863 -0.6108 -0.2152
23126SOL    HW172876   6.984   7.376   1.650 -1.6026 -1.1348  0.3740
23126SOL    HW272877   6.889   7.480   1.707  0.2582  0.6369  0.3333
23127SOL     OW72878   8.904   6.930   9.357  0.1621  0.0440 -0.2452
23127SOL    HW172879   8.826   6.906   9.306  0.8734  0.5300 -1.5875
23127SOL    HW272880   8.871   6.993   9.421 -0.4532  0.7161 -1.1971
23128SOL     OW72881   8.193   9.832   8.859 -0.1370  0.4480 -0.1333
23128SOL    HW172882   8.181   9.756   8.916  0.6915  0.2278 -0.2315
23128SOL    HW272883   8.288   9.837   8.847 -0.2570  0.9038 -0.9332
23129SOL     OW72884   4.943   6.830   6.864 -0.0446  0.1980  0.1595
23129SOL    HW172885   4.969   6.762   6.927 -0.9434  0.2557  0.6115
23129SOL    HW272886   4.986   6.805   6.783 -2.5971 -2.6382 -0.5223
23130SOL     OW72887   4.221   4.991   1.511 -0.3671 -0.2626 -0.8793
23130SOL    HW172888   4.166   5.051   1.561 -0.2537  0.2090 -1.3182
23130SOL    HW272889   4.222   5.027   1.422  1.7445  0.5317 -0.5984
23131SOL     OW72890   0.458   4.123   9.392 -0.4561 -0.1057 -0.0630
23131SOL    HW172891   0.363   4.120   9.407 -0.2401 -0.2187  1.3315
23131SOL    HW272892   0.488   4.197   9.444  0.2585 -0.1893 -0.3537
23132SOL     OW72893   6.711   0.928  10.451 -0.4374  0.2939  0.1410
23132SOL    HW172894   6.775   0.941  10.521  1.2652  1.0166 -1.4510
23132SOL    HW272895   6.723   1.004  10.394 -0.6181 -1.0390 -1.7738
23133SOL     OW72896   2.117   4.533   4.652  0.6037  0.2275  0.0552
23133SOL    HW172897   2.167   4.584   4.716 -0.0630  1.1620 -0.1488
23133SOL    HW272898   2.041   4.588   4.632  1.5870  0.7182 -2.7508
23134SOL     OW72899   3.329   0.082   6.574 -0.0058 -0.3359  0.1224
23134SOL    HW172900   3.235   0.071   6.589 -0.4496 -0.0019 -2.1143
23134SOL    HW272901   3.365  -0.007   6.581 -0.6239 -0.5884  0.1347
23135SOL     OW72902   6.878   9.620   4.035  0.1778  0.7143 -0.2313
23135SOL    HW172903   6.848   9.533   4.058  1.0610  0.1730 -1.0369
23135SOL    HW272904   6.896   9.615   3.941 -0.7466  2.0627 -0.5073
23136SOL     OW72905   5.697   2.383   9.283 -0.1326 -0.4653  0.2126
23136SOL    HW172906   5.641   2.423   9.217 -1.2480 -1.3011  0.6143
23136SOL    HW272907   5.637   2.356   9.352  0.6354 -2.1208  0.2933
23137SOL     OW72908   1.715   2.583   1.225  0.2101  0.3646  0.3603
23137SOL    HW172909   1.771   2.560   1.151  0.2097  0.1472  0.4290
23137SOL    HW272910   1.673   2.501   1.250 -0.7858  0.6655 -0.2282
23138SOL     OW72911   1.944   5.730  10.227  0.0381  0.0409 -0.3133
23138SOL    HW172912   2.039   5.739  10.235  0.2474 -2.2756  0.6849
23138SOL    HW272913   1.921   5.664  10.292 -2.6149  2.1316  1.0670
23139SOL     OW72914   6.596   0.267   9.222  0.5213 -0.7883 -0.3496
23139SOL    HW172915   6.622   0.179   9.194 -1.3616 -1.3804 -0.3613
23139SOL    HW272916   6.563   0.308   9.143 -0.1153 -0.6625 -0.0240
23140SOL     OW72917  10.353   3.314   5.583 -0.3687 -0.2866 -0.2000
23140SOL    HW172918  10.366   3.219   5.591 -0.0055 -0.3334 -1.1504
23140SOL    HW272919  10.409   3.339   5.509 -0.2939  0.7081  0.1824
23141SOL     OW72920   5.717   1.098   3.984 -0.1793 -0.3982 -0.4106
23141SOL    HW172921   5.724   1.149   3.903 -2.3145  0.7028  0.0392
23141SOL    HW272922   5.793   1.124   4.036 -0.2723  0.9947 -0.9393
23142SOL     OW72923   3.303   3.784   2.074 -0.0927 -0.3347  0.3419
23142SOL    HW172924   3.344   3.869   2.090  0.2081 -0.6808  1.4794
23142SOL    HW272925   3.365   3.738   2.017  0.2260 -0.1548  0.5415
23143SOL     OW72926   2.937   3.042   1.443  0.0718 -0.2708  0.2875
23143SOL    HW172927   2.966   3.123   1.486  0.9945 -0.2118 -0.4250
23143SOL    HW272928   2.925   2.980   1.515 -0.7967  0.5341  0.8553
23144SOL     OW72929   0.865   8.881   7.467  0.1496 -0.1224  0.1428
23144SOL    HW172930   0.899   8.810   7.521 -1.6793  0.4764  2.2520
23144SOL    HW272931   0.789   8.843   7.423  1.3073 -0.4476 -1.6618
23145SOL     OW72932   2.906   9.400   3.482 -0.0574  0.4454  0.4641
23145SOL    HW172933   2.987   9.364   3.447  0.6904  1.7281  0.8280
23145SOL    HW272934   2.874   9.460   3.415  0.1940  1.2199  1.0334
23146SOL     OW72935   0.875   6.409   1.288 -0.2578  0.2570  0.3294
23146SOL    HW172936   0.793   6.422   1.335 -1.1720 -0.4292 -1.0053
23146SOL    HW272937   0.911   6.328   1.324 -1.5818 -0.9570 -0.9526
23147SOL     OW72938   9.593   3.251   1.461  0.4027 -0.0749 -0.3076
23147SOL    HW172939   9.588   3.299   1.543 -0.6053 -1.1980  0.3097
23147SOL    HW272940   9.652   3.178   1.479 -1.1903 -1.3439 -0.0094
23148SOL     OW72941   5.579   8.186   7.797  0.7803  0.2437  0.4540
23148SOL    HW172942   5.581   8.261   7.737 -1.9398  0.0426 -0.0418
23148SOL    HW272943   5.585   8.110   7.740  1.4876  0.0588  0.7685
23149SOL     OW72944   6.330   3.775   0.397  0.1265  0.1980  0.0620
23149SOL    HW172945   6.261   3.770   0.464  0.9542  0.0992  0.9270
23149SOL    HW272946   6.325   3.691   0.352 -0.3807  0.2294  0.0459
23150SOL     OW72947   5.476   3.291   4.822  0.3705 -0.4625 -0.3747
23150SOL    HW172948   5.427   3.210   4.809 -0.1467  0.0745 -2.0432
23150SOL    HW272949   5.559   3.277   4.776  0.0783  0.1094 -1.1003
23151SOL     OW72950   9.919  10.222   3.310  0.2693 -0.2461  0.5179
23151SOL    HW172951   9.950  10.311   3.322  0.1893 -0.2796  0.9967
23151SOL    HW272952   9.824  10.230   3.301  0.3336 -0.2130 -0.2071
23152SOL     OW72953   1.386   4.009   9.197  0.2270  0.4931  0.0642
23152SOL    HW172954   1.411   4.102   9.191 -3.5928  1.7654  1.0096
23152SOL    HW272955   1.333   4.005   9.277 -2.3705 -1.7825 -1.6373
23153SOL     OW72956   3.018   7.214   7.808 -0.3978 -0.1616  0.8241
23153SOL    HW172957   3.036   7.246   7.896 -2.0683  0.6320  0.9033
23153SOL    HW272958   2.958   7.141   7.821 -0.1247 -0.4719  0.3714
23154SOL     OW72959  10.208   0.361   5.397 -0.2043  0.1299  0.2031
23154SOL    HW172960  10.265   0.332   5.326  1.6680  3.5346  0.1189
23154SOL    HW272961  10.250   0.328   5.477 -0.6185 -1.0727 -0.0486
23155SOL     OW72962   8.146   9.063   0.456 -0.3170 -0.3028 -0.2295
23155SOL    HW172963   8.192   9.041   0.538 -0.1713 -0.2957 -0.3090
23155SOL    HW272964   8.056   9.083   0.484 -0.7455 -2.0183 -0.2517
23156SOL     OW72965   3.563   6.857   0.917  0.0908  0.4116  0.2401
23156SOL    HW172966   3.641   6.823   0.961 -0.1882  0.9525  1.1743
23156SOL    HW272967   3.502   6.783   0.915  0.8202 -0.1868 -1.0150
23157SOL     OW72968  10.755   4.384   1.597 -0.2433  0.0185  0.2225
23157SOL    HW172969  10.798   4.454   1.646 -1.4429  0.3799  0.7910
23157SOL    HW272970  10.827   4.331   1.563  0.6290  0.4150  1.4048
23158SOL     OW72971   0.013   7.562   6.106 -0.3382  0.1736 -0.4710
23158SOL    HW172972  -0.002   7.468   6.096  1.6893 -0.1937 -0.3281
23158SOL    HW272973   0.101   7.576   6.073  0.1464  1.7031  1.2952
23159SOL     OW72974   6.300   9.060   2.760  0.2463  0.0349  0.1060
23159SOL    HW172975   6.377   9.106   2.727 -1.2049  0.6457 -2.7783
23159SOL    HW272976   6.255   9.124   2.815  0.0927  0.8758 -0.9629
23160SOL     OW72977   8.390   3.102   0.381 -0.0096  0.0123  0.2366
23160SOL    HW172978   8.428   3.147   0.457 -0.3638 -0.6480  0.8150
23160SOL    HW272979   8.464   3.088   0.322  0.4366 -0.2005  0.8317
23161SOL     OW72980  10.914   6.184  10.288  0.0352  0.3793 -0.2959
23161SOL    HW172981  10.871   6.241  10.352  0.9399  0.6690  0.0730
23161SOL    HW272982  10.850   6.176  10.217 -1.7504 -1.4084  1.3970
23162SOL     OW72983   0.663   1.206   6.999 -0.0545 -0.2397  0.1975
23162SOL    HW172984   0.633   1.126   6.956  1.2326 -1.2956  1.1781
23162SOL    HW272985   0.586   1.237   7.047 -0.5418 -0.9868 -0.0761
23163SOL     OW72986   9.325   4.913   0.765 -0.1881 -0.2701  0.0589
23163SOL    HW172987   9.411   4.870   0.758 -0.8245 -1.4115 -1.3862
23163SOL    HW272988   9.266   4.843   0.792 -1.0459 -0.0830 -1.2157
23164SOL     OW72989   8.876   1.424   2.143  0.3531  0.1771  0.0176
23164SOL    HW172990   8.859   1.372   2.064 -1.2852  2.3625 -1.1662
23164SOL    HW272991   8.866   1.515   2.115  1.4312  1.1097  2.3909
23165SOL     OW72992   0.707   3.107   5.087 -0.1756 -0.8220 -0.3157
23165SOL    HW172993   0.617   3.121   5.117  0.0211 -0.3992  0.0867
23165SOL    HW272994   0.699   3.097   4.992 -0.4734  0.8225 -0.5004
23166SOL     OW72995   9.002   9.770   7.581  0.5551 -0.1087  0.2612
23166SOL    HW172996   9.008   9.826   7.503  1.2084  3.2804  2.5471
23166SOL    HW272997   8.908   9.763   7.597  0.4552  0.3110 -0.0930
23167SOL     OW72998   3.658   3.608   5.560  0.4094 -0.6015 -0.0898
23167SOL    HW172999   3.666   3.530   5.506  3.2104 -0.4724 -0.0094
23167SOL    HW273000   3.738   3.658   5.543 -0.2619  1.1756  1.5193
23168SOL     OW73001   4.798   2.161   9.543  0.3238 -0.0090  0.8395
23168SOL    HW173002   4.856   2.099   9.587  0.9582 -0.0062  0.0168
23168SOL    HW273003   4.710   2.127   9.560  0.6995 -2.5739 -1.6068
23169SOL     OW73004   7.492   2.052   2.761  0.7725 -0.4796  0.1329
23169SOL    HW173005   7.530   2.105   2.831 -0.1261  1.3678 -0.7013
23169SOL    HW273006   7.561   1.990   2.738  1.9149  0.3817  1.1048
23170SOL     OW73007   7.026   1.541   2.472 -0.5401  0.3631 -0.2174
23170SOL    HW173008   6.962   1.481   2.511 -0.2689  0.4187  0.3245
23170SOL    HW273009   7.096   1.546   2.537 -0.2676  0.7782 -0.5407
23171SOL     OW73010   5.819   3.472   4.502 -0.2493  0.6057 -1.0042
23171SOL    HW173011   5.804   3.566   4.511 -1.1944  0.4206 -0.4519
23171SOL    HW273012   5.913   3.463   4.487 -0.3592  1.7281 -2.4792
23172SOL     OW73013  10.405   0.104   6.296  0.3316 -0.0237 -0.2490
23172SOL    HW173014  10.399   0.087   6.202 -2.6899  0.3931 -0.2332
23172SOL    HW273015  10.357   0.032   6.336  2.5847 -0.8496  1.1581
23173SOL     OW73016   9.601   6.747   6.796 -0.0989 -0.0563 -0.9307
23173SOL    HW173017   9.684   6.791   6.779 -1.1802  2.2251 -0.6705
23173SOL    HW273018   9.625   6.656   6.814  2.0406 -0.2739 -4.0668
23174SOL     OW73019   1.091  10.396   8.265 -0.0268  0.4568 -0.2754
23174SOL    HW173020   1.127  10.485   8.268 -1.7172  1.1787 -0.2325
23174SOL    HW273021   1.077  10.372   8.357  0.7625 -0.0323 -0.2664
23175SOL     OW73022   0.394   2.638   5.924  0.1556  0.9612  0.0596
23175SOL    HW173023   0.397   2.628   5.829 -0.4223 -2.6742  0.2989
23175SOL    HW273024   0.314   2.690   5.940 -1.3301 -0.7566 -1.3961
23176SOL     OW73025   3.836   2.686   8.143  0.3999 -0.0526  0.2784
23176SOL    HW173026   3.900   2.687   8.072  0.5964  0.3941  0.4583
23176SOL    HW273027   3.857   2.763   8.196 -1.1831  0.9531 -0.4625
23177SOL     OW73028   0.332   8.945   9.593 -0.2685 -0.0138 -0.0835
23177SOL    HW173029   0.357   8.874   9.533  0.0680  0.2032 -0.2067
23177SOL    HW273030   0.299   8.901   9.671  0.7442 -0.3237  0.1858
23178SOL     OW73031   0.037  10.025   5.781 -0.6094 -0.4345  0.6362
23178SOL    HW173032   0.021  10.102   5.835  1.4936 -0.5256  1.4828
23178SOL    HW273033   0.105   9.977   5.827 -0.6041 -1.8890 -0.7887
23179SOL     OW73034   1.325  10.901   2.731  0.1093 -0.1479  0.5281
23179SOL    HW173035   1.292  10.842   2.664  1.5421 -1.7084  1.1204
23179SOL    HW273036   1.256  10.904   2.797  0.0392 -1.2225  0.5134
23180SOL     OW73037  10.190   6.527  10.533  0.1621  0.1017 -0.0326
23180SOL    HW173038  10.164   6.603  10.481  1.1153 -0.5943 -1.6158
23180SOL    HW273039  10.285   6.530  10.534  0.1801 -0.2910  1.1383
23181SOL     OW73040   4.073   6.734   5.309 -0.1544  0.3110  0.0960
23181SOL    HW173041   3.992   6.712   5.354  0.1916 -1.7608 -0.1970
23181SOL    HW273042   4.121   6.651   5.303  1.3749  1.2107 -0.9607
23182SOL     OW73043   8.716   3.122   2.151  0.2857 -0.4803  0.2306
23182SOL    HW173044   8.727   3.071   2.232 -2.1250 -2.1356 -0.3859
23182SOL    HW273045   8.622   3.138   2.146  0.5704  0.8842 -1.5285
23183SOL     OW73046   2.216   0.197   1.604 -0.4716 -0.6384 -0.0491
23183SOL    HW173047   2.266   0.194   1.522  0.4797 -1.7623  0.5375
23183SOL    HW273048   2.283   0.203   1.673 -0.9365 -3.9504  0.8619
23184SOL     OW73049   9.454   0.697   6.827  0.2245 -0.4148  0.7161
23184SOL    HW173050   9.470   0.641   6.751 -3.0247 -0.3667 -0.1401
23184SOL    HW273051   9.500   0.779   6.806  2.2329 -1.5357  0.4582
23185SOL     OW73052   0.733   9.740   6.956 -0.2127  0.2218 -0.1687
23185SOL    HW173053   0.822   9.711   6.934 -0.8349 -1.0248 -1.2051
23185SOL    HW273054   0.677   9.669   6.926 -1.5704  0.9908  0.4659
23186SOL     OW73055   2.624   3.222   1.753 -0.3998  0.3235  0.4151
23186SOL    HW173056   2.664   3.194   1.671  1.9814  0.2850  1.5072
23186SOL    HW273057   2.572   3.146   1.781  1.0922 -0.7736  0.3366
23187SOL     OW73058   9.277   3.269   9.589 -0.0884  0.0060  0.4128
23187SOL    HW173059   9.257   3.272   9.495  0.6340  0.8342  0.2719
23187SOL    HW273060   9.302   3.359   9.611  1.7158 -0.5749  0.9537
23188SOL     OW73061   4.527   6.833   5.576  0.5855 -0.3357  0.3815
23188SOL    HW173062   4.519   6.916   5.622  0.4966 -0.6172  0.8930
23188SOL    HW273063   4.453   6.832   5.515  1.7694  0.8673 -1.1534
23189SOL     OW73064  10.214   7.453  10.502 -0.0654  0.2327  0.4603
23189SOL    HW173065  10.212   7.378  10.443 -0.2828  0.4745  0.1626
23189SOL    HW273066  10.184   7.418  10.586  0.9593 -0.2870  0.6296
23190SOL     OW73067   8.210  10.160   8.802 -0.1989  0.5457 -0.2335
23190SOL    HW173068   8.291  10.203   8.832 -0.4235  0.5626  0.3606
23190SOL    HW273069   8.209  10.175   8.708  1.0157 -0.3190 -0.4242
23191SOL     OW73070   4.018   5.166   1.588  0.1235  0.4268 -1.2412
23191SOL    HW173071   4.061   5.247   1.559  0.2608  1.1765  0.9125
23191SOL    HW273072   3.934   5.195   1.623 -0.1407 -0.4671 -1.1217
23192SOL     OW73073   7.347   8.059   8.154  0.0829 -0.1996 -0.2715
23192SOL    HW173074   7.395   8.111   8.089  2.1042 -0.8168  0.6268
23192SOL    HW273075   7.406   7.985   8.172 -0.0110  0.3788  2.8556
23193SOL     OW73076   4.641   3.329   7.018  0.3790  0.3385 -0.2014
23193SOL    HW173077   4.561   3.275   7.016  0.4852  0.1248  0.8123
23193SOL    HW273078   4.695   3.293   6.948 -0.5536  0.7119 -1.1316
23194SOL     OW73079   5.769   3.846   7.758 -0.7174 -0.1525  0.5811
23194SOL    HW173080   5.822   3.835   7.679 -1.2712  0.1726  0.1637
23194SOL    HW273081   5.828   3.819   7.829 -0.0077  0.1330  0.1191
23195SOL     OW73082  10.702   6.362   7.501 -0.3091  0.6804 -0.0374
23195SOL    HW173083  10.668   6.343   7.589 -0.4692  1.2976  0.0416
23195SOL    HW273084  10.764   6.434   7.514  1.4524 -0.7562 -0.1124
23196SOL     OW73085   2.477   9.117   3.309 -0.6998 -0.2075 -0.0931
23196SOL    HW173086   2.425   9.155   3.239 -1.6285 -0.2820  0.5348
23196SOL    HW273087   2.531   9.051   3.265 -2.4599 -1.4264 -0.5406
23197SOL     OW73088   8.610   9.388   5.718 -0.1873 -0.5550 -0.3651
23197SOL    HW173089   8.600   9.338   5.799  0.1887 -2.3244 -1.3769
23197SOL    HW273090   8.522   9.388   5.679 -0.0804 -0.8282 -0.6029
23198SOL     OW73091   3.182  10.301   7.192 -0.2832  0.2304 -0.0221
23198SOL    HW173092   3.194  10.268   7.103  1.7680 -0.1807  0.3705
23198SOL    HW273093   3.229  10.239   7.247 -1.7434  0.3218  1.4150
23199SOL     OW73094   7.406   9.122   6.702 -0.1254 -0.2837 -0.2980
23199SOL    HW173095   7.352   9.048   6.728 -0.2211 -0.2571 -0.4197
23199SOL    HW273096   7.406   9.120   6.606  0.9043 -0.8813 -0.2951
23200SOL     OW73097   9.662   7.498   5.672 -0.1236  0.1688 -0.3516
23200SOL    HW173098   9.685   7.577   5.719 -2.4123  0.4836  0.3541
23200SOL    HW273099   9.623   7.529   5.590 -2.1444 -0.1063  0.4446
23201SOL     OW73100   0.558   6.245   0.503  0.6145 -0.2146 -0.5972
23201SOL    HW173101   0.570   6.243   0.408  0.1952 -2.1831 -0.6417
23201SOL    HW273102   0.646   6.246   0.538  0.8053 -1.4632 -1.0068
23202SOL     OW73103   3.309   9.652   0.882 -0.1543  0.4796 -0.1797
23202SOL    HW173104   3.380   9.653   0.947 -1.1071  0.5031  0.8978
23202SOL    HW273105   3.354   9.645   0.798  1.0986 -0.8483  0.5378
23203SOL     OW73106   9.124   6.867   5.533  0.6162 -0.3509 -0.4319
23203SOL    HW173107   9.073   6.814   5.471 -0.3406 -0.9758  0.8372
23203SOL    HW273108   9.101   6.832   5.619  2.3755  0.0925  0.2639
23204SOL     OW73109   5.146   8.324   4.661 -0.1987  0.2791  0.3859
23204SOL    HW173110   5.092   8.334   4.739 -0.0038 -0.8505  0.6895
23204SOL    HW273111   5.095   8.364   4.591 -1.9624 -1.6953  0.4426
23205SOL     OW73112   7.953   5.218   4.963 -0.2004 -0.0842 -0.1971
23205SOL    HW173113   7.975   5.310   4.950  0.8262 -0.0581  1.4575
23205SOL    HW273114   7.884   5.201   4.899  0.6119  1.4183 -1.5586
23206SOL     OW73115   8.381   2.572   7.060 -0.4081 -0.0266  0.0881
23206SOL    HW173116   8.419   2.528   6.984 -0.2052  1.8261 -0.9315
23206SOL    HW273117   8.301   2.613   7.026  0.5266  2.2031  0.4202
23207SOL     OW73118   7.019  10.834   8.821  0.1886  0.6121 -0.4385
23207SOL    HW173119   7.055  10.862   8.905  2.0011 -0.5418 -0.7785
23207SOL    HW273120   6.962  10.760   8.843 -0.0214  0.8604 -0.1404
23208SOL     OW73121  10.608   4.332   6.571 -0.4337 -0.2762 -0.2272
23208SOL    HW173122  10.564   4.299   6.493 -1.7957 -0.5780  0.6382
23208SOL    HW273123  10.579   4.274   6.642  1.2741 -0.4104  0.4091
23209SOL     OW73124   1.235   7.072   8.005  0.2808 -0.4141 -0.2081
23209SOL    HW173125   1.251   6.978   8.009 -4.2542 -1.4284 -0.5638
23209SOL    HW273126   1.198   7.086   7.918  2.7864  2.2407 -1.0175
23210SOL     OW73127   2.865   5.288   9.547 -0.1591 -0.6889  0.1164
23210SOL    HW173128   2.799   5.357   9.540  0.8933  0.3107 -0.2621
23210SOL    HW273129   2.891   5.271   9.456 -0.2419 -1.4139  0.2286
23211SOL     OW73130   2.718   6.705   7.802 -0.3702 -0.2630  0.0688
23211SOL    HW173131   2.685   6.665   7.722 -1.6838 -1.4470  1.1665
23211SOL    HW273132   2.643   6.707   7.861  0.6032  0.4866  1.3247
23212SOL     OW73133   0.120  10.356  10.654 -0.3785 -0.7384 -0.4987
23212SOL    HW173134   0.033  10.316  10.652 -0.1148 -1.3479 -2.7967
23212SOL    HW273135   0.152  10.348  10.564  1.2879  1.1764 -0.1556
23213SOL     OW73136   7.478   8.412   3.084 -0.5774 -0.2577 -0.0880
23213SOL    HW173137   7.516   8.458   3.009 -0.1554 -0.0555  0.2487
23213SOL    HW273138   7.494   8.320   3.066 -1.5986 -0.3015 -0.8631
23214SOL     OW73139   3.976   0.439   6.886  0.3858 -0.3427 -0.4538
23214SOL    HW173140   3.956   0.414   6.795 -1.1827 -2.3773  0.3775
23214SOL    HW273141   3.895   0.479   6.918  1.3081  1.4576 -0.2408
23215SOL     OW73142   4.598   8.266   2.834 -0.0468  0.0276  0.4689
23215SOL    HW173143   4.650   8.188   2.850 -0.7662 -0.6838 -0.5401
23215SOL    HW273144   4.639   8.307   2.757  0.7270  1.0217  1.3774
23216SOL     OW73145   3.204   5.726   1.822 -0.1211 -0.1673 -0.1671
23216SOL    HW173146   3.157   5.808   1.838 -1.5826 -1.4549  3.2423
23216SOL    HW273147   3.167   5.692   1.741 -1.2522  1.3750 -0.3397
23217SOL     OW73148   5.450   5.182   0.750 -0.4453  0.6378  0.2425
23217SOL    HW173149   5.433   5.097   0.790  0.7897  0.7859  1.1505
23217SOL    HW273150   5.538   5.174   0.713  0.0319  1.7469  1.0538
23218SOL     OW73151   1.738   4.121   7.347 -0.3417  0.1667 -0.2806
23218SOL    HW173152   1.811   4.134   7.407 -0.9329 -1.0596  0.7414
23218SOL    HW273153   1.665   4.096   7.403 -0.5156 -2.5629 -1.5875
23219SOL     OW73154   9.579   5.747   8.719  0.0043 -0.0089  0.0081
23219SOL    HW173155   9.488   5.736   8.690  0.3453 -0.4207 -0.9544
23219SOL    HW273156   9.617   5.808   8.656  0.6312 -0.5541 -0.1567
23220SOL     OW73157   5.197   7.730   9.602 -0.0689 -0.0639 -0.4387
23220SOL    HW173158   5.229   7.713   9.691 -1.3007 -2.1569 -0.3186
23220SOL    HW273159   5.257   7.796   9.567 -0.2622  1.7542  2.3192
23221SOL     OW73160   8.728   8.000   1.910 -0.2044 -0.3726 -0.1917
23221SOL    HW173161   8.694   7.911   1.925 -2.2434  0.3507 -0.2320
23221SOL    HW273162   8.738   8.006   1.815 -0.6784 -0.3654 -0.2446
23222SOL     OW73163   0.496   5.556  10.316  0.4270 -0.4268 -0.5414
23222SOL    HW173164   0.423   5.617  10.328  0.5072 -0.0257 -1.8684
23222SOL    HW273165   0.500   5.506  10.397  1.7723  2.7962  1.5685
23223SOL     OW73166   1.302   8.073   5.824 -0.1914  0.1176  0.2090
23223SOL    HW173167   1.306   8.147   5.885  2.6968  1.0536 -0.9446
23223SOL    HW273168   1.252   8.107   5.749 -1.4524 -0.1517  0.9032
23224SOL     OW73169   8.200   4.020   8.733 -0.5971  0.0223  0.3081
23224SOL    HW173170   8.185   3.973   8.650 -0.1479  0.5430 -0.0709
23224SOL    HW273171   8.200   3.950   8.799 -1.1149 -0.3838 -0.1034
23225SOL     OW73172   4.830   1.982   2.553 -0.5210 -0.6729 -0.0026
23225SOL    HW173173   4.826   1.905   2.496 -2.0948 -1.2732  0.8690
23225SOL    HW273174   4.858   1.948   2.637 -0.3161 -0.1385  0.1500
23226SOL     OW73175   5.338   1.230  10.527  0.2180  0.0633 -0.2836
23226SOL    HW173176   5.386   1.292  10.473  1.0579 -1.0431 -0.8685
23226SOL    HW273177   5.374   1.242  10.615 -0.9034  1.6221  0.0033
23227SOL     OW73178   6.124   6.663   1.947 -0.2438  0.4678 -0.2494
23227SOL    HW173179   6.202   6.637   1.996 -0.1102 -0.2265 -0.8047
23227SOL    HW273180   6.059   6.595   1.967 -0.6109  0.8768 -0.0307
23228SOL     OW73181   6.532   4.298   0.768  0.4505 -0.1893 -0.2066
23228SOL    HW173182   6.524   4.251   0.851  0.4423  1.2602  0.6521
23228SOL    HW273183   6.444   4.296   0.731  0.5238 -1.1267 -0.3520
23229SOL     OW73184   3.934   9.152   9.295 -0.0206  0.0365 -0.1777
23229SOL    HW173185   3.958   9.142   9.387  0.5433 -0.4536 -0.3678
23229SOL    HW273186   3.977   9.233   9.267  0.6419 -0.3310 -0.2598
23230SOL     OW73187   3.154   4.899  10.705  0.1458  0.2901 -0.2728
23230SOL    HW173188   3.118   4.820  10.663  0.7110  0.1625 -0.5321
23230SOL    HW273189   3.159   4.877  10.798  1.2497 -0.3675 -0.4670
23231SOL     OW73190   0.989   3.941   1.633 -0.3796  0.3607 -0.6231
23231SOL    HW173191   0.980   4.029   1.669 -1.1264  0.3027 -0.6682
23231SOL    HW273192   0.940   3.885   1.692  1.4125 -0.2967  0.3351
23232SOL     OW73193   1.466   1.053   5.757  0.0676 -0.1280  0.6760
23232SOL    HW173194   1.405   0.993   5.715 -0.2250  0.0168  0.8991
23232SOL    HW273195   1.524   1.081   5.686  0.0673 -0.4989  0.5277
23233SOL     OW73196   9.563   7.763   4.654 -0.2932 -0.2915 -0.4353
23233SOL    HW173197   9.567   7.722   4.741 -1.9686  0.9142  0.2771
23233SOL    HW273198   9.602   7.850   4.667 -0.7347 -0.0313 -0.8235
23234SOL     OW73199   5.203   8.263   1.461  0.4178 -0.0167  0.1149
23234SOL    HW173200   5.157   8.345   1.478 -1.4328 -1.4638  2.7728
23234SOL    HW273201   5.248   8.244   1.543 -0.8377 -2.5884  0.2877
23235SOL     OW73202   5.809   7.336   7.888  0.2551  0.5247 -0.3146
23235SOL    HW173203   5.859   7.415   7.907  2.6792 -0.2443 -2.8926
23235SOL    HW273204   5.727   7.367   7.850  0.5647  1.8013  0.0234
23236SOL     OW73205   7.860   8.128   1.238  0.0629  0.1410  0.7357
23236SOL    HW173206   7.811   8.204   1.209  0.3307  0.6264  1.5197
23236SOL    HW273207   7.903   8.095   1.159  1.6730  2.0728  0.7117
23237SOL     OW73208  10.119   5.551   3.775  0.7264 -0.0609  0.4447
23237SOL    HW173209  10.191   5.544   3.838 -1.2950 -1.3908  2.7358
23237SOL    HW273210  10.103   5.461   3.748 -0.6188  0.1237  0.5943
23238SOL     OW73211   8.745   9.581   1.327 -0.7338  0.1756 -0.7234
23238SOL    HW173212   8.684   9.509   1.337  1.2822 -1.6458 -0.7259
23238SOL    HW273213   8.800   9.577   1.406  1.3503 -0.2870 -2.1376
23239SOL     OW73214   6.039   4.566   1.229 -0.1475 -0.4026 -0.7704
23239SOL    HW173215   6.116   4.509   1.236 -1.0574 -1.6019 -0.2403
23239SOL    HW273216   6.074   4.649   1.196  1.7220 -0.2155  1.3974
23240SOL     OW73217   0.306   3.325  10.917  1.0659  0.6255  0.0387
23240SOL    HW173218   0.344   3.306  11.002  1.0994  0.8602  0.0774
23240SOL    HW273219   0.227   3.270  10.913  0.5277  1.3356  0.6327
23241SOL     OW73220   9.947   3.168   1.065  0.2310  0.2432  0.1677
23241SOL    HW173221   9.974   3.132   0.980 -0.0892 -1.1027  0.6003
23241SOL    HW273222   9.963   3.262   1.058  1.2626  0.0045 -0.9803
23242SOL     OW73223   4.774   8.817   4.230  0.2890 -0.1561 -0.1373
23242SOL    HW173224   4.715   8.866   4.287  1.0016 -0.5079  0.9325
23242SOL    HW273225   4.767   8.860   4.145 -1.3180 -0.0460  0.0277
23243SOL     OW73226   6.948   0.601   4.123  0.3755  0.0776  0.1778
23243SOL    HW173227   6.892   0.540   4.075 -1.2532  2.3580 -0.9971
23243SOL    HW273228   6.906   0.609   4.209  1.5823 -1.6806  0.9995
23244SOL     OW73229   5.099  10.006   4.920 -0.0771 -0.1687 -0.0564
23244SOL    HW173230   5.103   9.910   4.923  1.5547 -0.1760 -1.5056
23244SOL    HW273231   5.040  10.025   4.847  0.7759 -0.0846 -0.7324
23245SOL     OW73232   1.055   9.664   4.355  0.2664 -0.5642  0.0505
23245SOL    HW173233   1.004   9.649   4.434  0.5548 -0.5901  0.2330
23245SOL    HW273234   1.007   9.619   4.286 -1.1376  1.2073 -0.1956
23246SOL     OW73235   0.684   0.680   2.816 -0.3329  0.5984  0.3228
23246SOL    HW173236   0.730   0.711   2.894  2.8492 -1.7502 -0.4292
23246SOL    HW273237   0.628   0.610   2.848  0.4178  0.1235  0.6328
23247SOL     OW73238   7.858   6.985   7.843 -0.3595  0.4486  0.0689
23247SOL    HW173239   7.926   7.052   7.840  1.1394 -0.9769  0.6194
23247SOL    HW273240   7.776   7.034   7.838  0.6799  2.2405 -0.4964
23248SOL     OW73241   1.450   7.540   4.801  0.3344  0.5257 -0.1655
23248SOL    HW173242   1.402   7.461   4.778 -0.3623  0.7341  0.5427
23248SOL    HW273243   1.391   7.589   4.859  1.3156  0.8695  0.5794
23249SOL     OW73244   4.074   9.351   8.305 -0.4109 -0.5625 -0.0887
23249SOL    HW173245   4.164   9.372   8.281 -0.4235  0.3003  0.5697
23249SOL    HW273246   4.069   9.370   8.399 -0.9354 -1.8098  0.1564
23250SOL     OW73247   8.870   0.044   4.817  0.1533  0.4923  0.0158
23250SOL    HW173248   8.824   0.121   4.784 -1.5691 -0.3580  0.3209
23250SOL    HW273249   8.854  -0.024   4.752  1.6441  0.3409 -0.2410
23251SOL     OW73250   1.125  10.703   4.947  0.5952 -0.4589 -0.2972
23251SOL    HW173251   1.143  10.725   5.038 -1.5552 -2.6437  0.7791
23251SOL    HW273252   1.180  10.627   4.929 -1.5605 -2.3543  0.5167
23252SOL     OW73253   0.870   1.468   3.985 -0.4674 -0.2386 -0.2770
23252SOL    HW173254   0.810   1.451   3.912 -0.1403  1.1114 -0.8809
23252SOL    HW273255   0.833   1.417   4.058 -1.9600 -0.0031 -0.8218
23253SOL     OW73256   2.768   8.623   5.727 -0.3066 -0.7281 -0.6460
23253SOL    HW173257   2.739   8.710   5.699  0.2244 -0.7685 -1.3568
23253SOL    HW273258   2.860   8.635   5.750 -0.6454 -0.7719  0.7953
23254SOL     OW73259   1.523   4.696   9.641 -0.1037  0.1584  0.5489
23254SOL    HW173260   1.449   4.753   9.662 -0.5664 -0.6039  1.0251
23254SOL    HW273261   1.491   4.640   9.570  0.5695  0.9129 -0.3870
23255SOL     OW73262   1.060   9.662   3.830  0.2101  0.6422  0.1644
23255SOL    HW173263   1.081   9.647   3.922  1.1278  2.4574  0.3069
23255SOL    HW273264   1.128   9.722   3.800 -0.1054  0.1155 -1.6975
23256SOL     OW73265   5.366   8.919  10.177  0.3259 -0.0097  0.4404
23256SOL    HW173266   5.325   9.005  10.177  1.1095  0.3757  0.9318
23256SOL    HW273267   5.344   8.881  10.092  1.9409  1.6404 -0.7788
23257SOL     OW73268   2.457   4.364   5.909  0.2954 -0.6094 -0.3468
23257SOL    HW173269   2.486   4.418   5.836 -1.5127  0.1840 -0.5407
23257SOL    HW273270   2.430   4.282   5.869 -0.9271 -0.0858 -0.6490
23258SOL     OW73271   9.514   0.343  10.556 -0.2269  0.5787  0.3205
23258SOL    HW173272   9.529   0.362  10.463 -0.0927  2.7878  0.7335
23258SOL    HW273273   9.455   0.268  10.556 -0.3554  0.6281 -1.5512
23259SOL     OW73274   5.424  10.801   8.876 -0.2802  0.1251 -0.4240
23259SOL    HW173275   5.457  10.720   8.914  0.7452  0.4156 -0.6739
23259SOL    HW273276   5.475  10.814   8.796 -0.9062  0.6627 -0.7565
23260SOL     OW73277   9.543   7.704   6.780 -0.2235  0.0904  0.7406
23260SOL    HW173278   9.479   7.747   6.724 -0.8066  0.5620  1.7368
23260SOL    HW273279   9.622   7.758   6.770 -0.7429  1.0206  1.4420
23261SOL     OW73280   2.603   7.036   0.658 -0.2601 -0.1705  0.0507
23261SOL    HW173281   2.543   7.100   0.621  0.8185  1.6742  1.3285
23261SOL    HW273282   2.558   7.002   0.735  1.0574  2.9688  2.4411
23262SOL     OW73283  10.856   8.695   9.362 -0.3211 -0.0849 -0.0885
23262SOL    HW173284  10.782   8.754   9.374  0.0317  0.2165  0.6799
23262SOL    HW273285  10.932   8.746   9.388  0.5484  0.5357 -3.3348
23263SOL     OW73286   3.809   5.210   3.324  0.4731  0.0040  0.3139
23263SOL    HW173287   3.880   5.161   3.366 -1.4792  0.0240  4.1628
23263SOL    HW273288   3.759   5.144   3.276  0.3439 -1.0614  1.8104
23264SOL     OW73289   8.751   6.834   4.364 -0.3055  0.6603 -0.2887
23264SOL    HW173290   8.805   6.913   4.367 -0.5434  0.8103  0.0363
23264SOL    HW273291   8.661   6.865   4.374 -0.5641  0.5179 -1.9246
23265SOL     OW73292   8.997   0.498   7.123 -0.0106  0.1363 -0.0535
23265SOL    HW173293   8.992   0.431   7.056  0.9879 -0.0572  0.0502
23265SOL    HW273294   8.954   0.574   7.084 -0.0046 -0.1705 -0.6687
23266SOL     OW73295   2.386   0.109   2.589  0.1960  0.2788 -0.3412
23266SOL    HW173296   2.406   0.042   2.523 -2.0647  0.5812 -1.4393
23266SOL    HW273297   2.364   0.059   2.667 -1.2508 -0.3230 -1.0871
23267SOL     OW73298   0.424   7.015   0.590 -0.5095  0.2409  0.3121
23267SOL    HW173299   0.406   7.020   0.684 -1.0435  0.1471  0.2209
23267SOL    HW273300   0.402   7.102   0.557 -0.6960  0.1602  0.2177
23268SOL     OW73301   1.159   6.045   5.965 -0.3081 -0.6181  0.1270
23268SOL    HW173302   1.223   5.974   5.969  0.8644  0.2085 -2.0932
23268SOL    HW273303   1.077   6.002   5.942 -0.0668 -1.4515  0.7689
23269SOL     OW73304   1.458  10.805   0.077 -0.0536 -0.3407  0.0722
23269SOL    HW173305   1.394  10.862   0.118 -0.0876 -0.3790  0.0723
23269SOL    HW273306   1.514  10.864   0.026 -0.2591 -0.3366 -0.1503
23270SOL     OW73307   4.529   7.801   7.193  0.6369  0.5272  0.2069
23270SOL    HW173308   4.614   7.792   7.151 -0.0586 -0.1085 -1.1265
23270SOL    HW273309   4.495   7.712   7.198  0.6720  0.5698  2.1460
23271SOL     OW73310  10.544   6.745   2.132 -0.2248  0.6236  0.2201
23271SOL    HW173311  10.483   6.760   2.204 -1.9342 -1.2234 -0.7195
23271SOL    HW273312  10.611   6.688   2.169 -0.2765  0.8994  0.7375
23272SOL     OW73313   1.906   3.456   1.434  0.0067  0.3900 -0.5330
23272SOL    HW173314   1.995   3.487   1.419 -0.1552  0.6777 -0.8935
23272SOL    HW273315   1.880   3.414   1.353 -0.0838  0.0521 -0.3315
23273SOL     OW73316   3.812  10.882   0.633 -0.3441  0.4495 -0.4350
23273SOL    HW173317   3.811  10.856   0.725  0.4799  1.0922 -0.2359
23273SOL    HW273318   3.887  10.835   0.596  0.0239  1.0788 -0.5022
23274SOL     OW73319   9.536   0.503   8.499 -0.5884  0.0973 -0.3179
23274SOL    HW173320   9.464   0.563   8.519 -1.0820 -0.4321 -0.4746
23274SOL    HW273321   9.563   0.527   8.410 -0.2295  0.6293 -0.0701
23275SOL     OW73322   2.470  10.824   1.189  0.7130  0.0864  0.6949
23275SOL    HW173323   2.395  10.878   1.214  0.9228  1.5424 -1.4734
23275SOL    HW273324   2.504  10.790   1.272 -2.0350 -0.2902  1.7771
23276SOL     OW73325   7.536   9.744   3.072 -0.4601 -0.9598 -0.0134
23276SOL    HW173326   7.481   9.819   3.094  0.2464 -0.7889  1.2180
23276SOL    HW273327   7.526   9.684   3.146 -0.8225 -2.0017 -0.8591
23277SOL     OW73328   4.811   0.096   5.943  0.1965 -0.3449 -0.0797
23277SOL    HW173329   4.740   0.161   5.947  0.1733 -0.2899 -1.2864
23277SOL    HW273330   4.853   0.111   5.858 -0.2297 -2.3646 -0.6854
23278SOL     OW73331   6.797   8.149   5.971  0.4603  0.1161 -0.0655
23278SOL    HW173332   6.819   8.141   6.064  0.2291 -0.9738 -0.0921
23278SOL    HW273333   6.701   8.154   5.970  0.4218 -0.5325 -0.2742
23279SOL     OW73334   8.508   6.242   8.954  0.2119 -0.7338 -0.2189
23279SOL    HW173335   8.579   6.197   9.000 -0.5318 -0.9748  0.7100
23279SOL    HW273336   8.553   6.308   8.901  1.0262  0.8283  2.2410
23280SOL     OW73337   2.626   6.351   6.010 -0.2830 -0.1753  0.3302
23280SOL    HW173338   2.630   6.430   6.063 -0.5137 -0.2314  0.4313
23280SOL    HW273339   2.687   6.367   5.938 -0.8710  0.3953 -0.0507
23281SOL     OW73340   0.169   2.525   7.815 -0.4596  0.2899  0.7105
23281SOL    HW173341   0.244   2.492   7.864 -0.8786  1.3903  2.1852
23281SOL    HW273342   0.160   2.466   7.740  1.1725 -0.5194  1.1194
23282SOL     OW73343   7.264   0.044   4.940  0.3876 -0.5132 -0.6447
23282SOL    HW173344   7.263   0.139   4.928  0.8645 -0.3849  0.2329
23282SOL    HW273345   7.175   0.016   4.917 -0.7804  0.5618  2.0404
23283SOL     OW73346   4.686   6.056  10.368  0.0112 -0.3205  0.4932
23283SOL    HW173347   4.615   6.117  10.351 -1.1669 -1.5804  0.6595
23283SOL    HW273348   4.664   6.017  10.453  1.0780 -0.4905  0.7046
23284SOL     OW73349   6.441   2.684   4.958 -0.2802 -0.1514  0.5221
23284SOL    HW173350   6.450   2.678   4.863  1.0459  0.8729  0.5541
23284SOL    HW273351   6.516   2.637   4.992 -0.2437  0.2693  1.0372
23285SOL     OW73352   5.363   3.128   9.736  0.0623  0.2979 -0.1003
23285SOL    HW173353   5.396   3.151   9.823 -1.6096 -0.4160  0.7764
23285SOL    HW273354   5.406   3.046   9.715  1.3277  1.0292 -0.4810
23286SOL     OW73355   7.832   2.274   8.877 -0.2412 -0.0401  0.2801
23286SOL    HW173356   7.899   2.281   8.809  1.4455 -0.9318  1.7663
23286SOL    HW273357   7.764   2.218   8.839  0.7596 -0.6833 -0.5984
23287SOL     OW73358   6.714   7.605   4.041  0.0909 -0.0516 -0.4564
23287SOL    HW173359   6.735   7.564   4.125  0.4331  0.6487 -0.1908
23287SOL    HW273360   6.649   7.672   4.063 -0.0719 -0.0887 -0.8096
23288SOL     OW73361   8.733  10.772   0.623 -0.0030 -0.5468  0.4406
23288SOL    HW173362   8.720  10.752   0.716  1.8621 -1.3016  0.5788
23288SOL    HW273363   8.656  10.824   0.599 -1.0485 -1.2288  2.1213
23289SOL     OW73364   0.808   6.491   8.912  0.4833  0.6343  0.1302
23289SOL    HW173365   0.732   6.525   8.959  1.2585 -0.4255  2.3159
23289SOL    HW273366   0.816   6.546   8.834 -1.3131  2.0334  0.8759
23290SOL     OW73367   0.968   4.343  10.162  0.0305  0.8257  0.1540
23290SOL    HW173368   0.906   4.310  10.097  1.8359  0.3429 -1.4322
23290SOL    HW273369   0.990   4.266  10.216 -0.5173  0.9289  0.5263
23291SOL     OW73370   7.250   1.579   8.460  0.7578 -0.4105 -0.6332
23291SOL    HW173371   7.338   1.608   8.435  0.2291 -0.9814 -3.5890
23291SOL    HW273372   7.244   1.490   8.425 -0.4478 -1.0346  1.0469
23292SOL     OW73373   3.491   2.450   8.164  0.0129  0.7239 -0.3843
23292SOL    HW173374   3.516   2.373   8.112 -1.4996  1.5329 -2.4318
23292SOL    HW273375   3.545   2.444   8.242  0.8927 -1.7089 -1.0790
23293SOL     OW73376   7.086   5.477   3.017  0.1720  0.1025 -0.3701
23293SOL    HW173377   7.038   5.473   3.099  1.5173 -1.1962  0.4210
23293SOL    HW273378   7.045   5.410   2.962 -1.5508  1.8250 -1.2999
23294SOL     OW73379   8.380   4.064   2.736  0.3126 -0.6327 -0.1866
23294SOL    HW173380   8.295   4.086   2.775 -0.2519 -0.3939 -1.5060
23294SOL    HW273381   8.360   4.043   2.645  1.4373 -2.3444 -0.0878
23295SOL     OW73382   7.202   3.821   9.213 -0.2816  0.6092  0.0368
23295SOL    HW173383   7.196   3.873   9.132 -4.6731 -0.5664 -0.6568
23295SOL    HW273384   7.111   3.810   9.241  0.9665  0.3056  4.8306
23296SOL     OW73385   5.834   4.703  10.611  0.0976 -0.0956 -0.6272
23296SOL    HW173386   5.928   4.723  10.608 -0.1212  1.1345 -0.1056
23296SOL    HW273387   5.823   4.648  10.689  0.5759 -1.4908 -1.5116
23297SOL     OW73388   9.453   6.606   5.412 -0.3620  0.4805  0.0834
23297SOL    HW173389   9.453   6.678   5.475 -0.1258 -0.6540  1.4248
23297SOL    HW273390   9.536   6.560   5.428  0.2082  0.7500 -1.7818
23298SOL     OW73391   8.326   8.612   9.098 -0.3264 -0.5995  0.6797
23298SOL    HW173392   8.327   8.658   9.181  0.2883  0.1953  0.2470
23298SOL    HW273393   8.418   8.596   9.077 -0.4098  0.1161 -0.3256
23299SOL     OW73394   1.336   8.763   4.594  0.3973  1.0109  0.7020
23299SOL    HW173395   1.383   8.832   4.641  0.5885  0.7300  0.9170
23299SOL    HW273396   1.301   8.808   4.516  0.2530  1.4259  0.9996
23300SOL     OW73397   8.482   6.981   3.335 -0.1168 -0.2187 -0.3121
23300SOL    HW173398   8.497   7.067   3.375  0.6243  0.2614 -1.5667
23300SOL    HW273399   8.414   6.997   3.269  0.0174 -0.5979 -0.5453
23301SOL     OW73400   0.384  10.244   6.185  0.3005  0.4673  0.0026
23301SOL    HW173401   0.345  10.160   6.207 -1.7928  0.9701 -1.4989
23301SOL    HW273402   0.373  10.251   6.091  0.3458  2.4466  0.1099
23302SOL     OW73403   2.270   0.528   3.122 -0.9217 -0.2738  0.0795
23302SOL    HW173404   2.228   0.509   3.206  0.5142 -0.1387  0.8553
23302SOL    HW273405   2.304   0.617   3.132 -0.7676 -0.2483 -0.6515
23303SOL     OW73406   3.179   8.241   9.925  0.6478  0.3498 -0.3420
23303SOL    HW173407   3.178   8.164   9.869  0.0493 -0.4768  0.7868
23303SOL    HW273408   3.174   8.315   9.864  0.7817 -0.4991 -1.4070
23304SOL     OW73409   4.489   8.411   8.208 -0.0535  0.6923  0.0749
23304SOL    HW173410   4.502   8.405   8.113 -0.7453  2.1771 -0.1412
23304SOL    HW273411   4.475   8.504   8.224  1.1724  0.6108  1.8019
23305SOL     OW73412   7.214  10.123   8.251  0.1669  0.2694  0.6430
23305SOL    HW173413   7.208  10.100   8.158  0.3411  1.2762  0.3745
23305SOL    HW273414   7.258  10.048   8.291 -0.1622 -0.2998 -0.0301
23306SOL     OW73415  10.200   8.137   3.900  0.1938  0.1510 -0.2094
23306SOL    HW173416  10.190   8.059   3.955  0.0739  0.3772  0.0940
23306SOL    HW273417  10.198   8.210   3.962 -1.1782  0.4890 -0.6170
23307SOL     OW73418  10.288  10.166   9.717  0.2865  0.5474  0.2843
23307SOL    HW173419  10.224  10.160   9.788 -0.6775  1.6568 -0.4546
23307SOL    HW273420  10.357  10.222   9.751 -0.3508  1.3750  0.2436
23308SOL     OW73421   7.991   7.591   5.514 -0.5762  0.5785 -0.1390
23308SOL    HW173422   7.941   7.525   5.466  1.4485 -0.6604 -0.6825
23308SOL    HW273423   8.072   7.546   5.538  2.4278  3.6012 -3.3184
23309SOL     OW73424   4.334  10.018   4.409 -0.0313 -0.0396 -0.1432
23309SOL    HW173425   4.323   9.923   4.412  1.1093 -0.1603  0.9287
23309SOL    HW273426   4.330  10.045   4.501  0.0990  0.8915 -0.4063
23310SOL     OW73427   1.645   3.557   6.980  0.8565  0.2638 -0.3190
23310SOL    HW173428   1.560   3.520   6.956 -0.3740  2.0361  1.0899
23310SOL    HW273429   1.709   3.502   6.934 -0.8010 -3.4179  1.4053
23311SOL     OW73430   7.670   2.280   5.749 -0.5377 -0.6171 -0.6221
23311SOL    HW173431   7.619   2.258   5.671 -0.9131  0.8079 -0.7962
23311SOL    HW273432   7.640   2.218   5.815 -3.1102  0.6723 -0.4664
23312SOL     OW73433   7.456   4.927   6.648 -0.2733 -0.2356 -0.2741
23312SOL    HW173434   7.440   4.962   6.560 -3.1702  1.1161  0.6694
23312SOL    HW273435   7.522   4.986   6.685  0.6741 -0.5758 -1.3458
23313SOL     OW73436   8.264   2.697  10.304 -0.1065 -0.3032  0.4226
23313SOL    HW173437   8.319   2.657  10.236 -1.2759 -0.4935 -0.4459
23313SOL    HW273438   8.300   2.664  10.386 -0.0571 -1.9465 -0.2052
23314SOL     OW73439   5.648   5.559   0.842  0.1530  0.3664  0.1879
23314SOL    HW173440   5.633   5.555   0.936 -0.5186  0.2250  0.0811
23314SOL    HW273441   5.566   5.593   0.806  0.4557  0.5575 -0.3326
23315SOL     OW73442   7.203   0.916   9.310  0.2887  0.1764 -0.1488
23315SOL    HW173443   7.250   0.877   9.383 -0.2869 -2.6967 -1.1907
23315SOL    HW273444   7.110   0.908   9.333  0.1383  0.4754 -0.6184
23316SOL     OW73445   3.853   0.827   3.011  0.0345 -0.0404  0.3068
23316SOL    HW173446   3.784   0.827   3.076 -2.5527  0.2037 -2.2375
23316SOL    HW273447   3.870   0.920   2.993  1.2770 -0.0899  1.0854
23317SOL     OW73448   5.173   2.758   0.779 -0.9679 -0.5714 -0.0968
23317SOL    HW173449   5.228   2.682   0.758  1.0106  0.9602 -0.7177
23317SOL    HW273450   5.114   2.766   0.705  0.0248 -0.4789 -0.9031
23318SOL     OW73451   2.143   6.198   3.453 -0.2173  0.2760 -0.2005
23318SOL    HW173452   2.118   6.289   3.435 -0.2191  1.0411  3.0311
23318SOL    HW273453   2.235   6.192   3.426  0.5459  2.0490  1.7640
23319SOL     OW73454   3.537   5.579   4.063 -0.3546  0.1034  0.0371
23319SOL    HW173455   3.500   5.565   3.976 -2.6849 -1.0452  1.1041
23319SOL    HW273456   3.498   5.661   4.093  2.1877  1.7157 -0.7581
23320SOL     OW73457   0.048   5.323   2.684 -0.5121  0.2130 -0.4816
23320SOL    HW173458  -0.035   5.370   2.679 -1.1910 -0.7221  1.0884
23320SOL    HW273459   0.038   5.248   2.626 -1.0507 -0.2843  0.2442
23321SOL     OW73460   1.546  10.843   0.674 -0.6715 -0.5248 -0.0873
23321SOL    HW173461   1.555  10.803   0.760 -1.2368 -0.5871 -0.0512
23321SOL    HW273462   1.568  10.935   0.687  0.3209 -0.7506 -0.1056
23322SOL     OW73463   8.598   9.575   6.491 -0.4768  0.1333 -0.1008
23322SOL    HW173464   8.673   9.599   6.546 -0.7719  1.4027 -0.2236
23322SOL    HW273465   8.525   9.566   6.553 -0.3662 -0.5565 -0.0523
23323SOL     OW73466   0.923   4.844   9.844 -0.5708  0.5768 -0.2314
23323SOL    HW173467   1.015   4.819   9.857 -0.8014 -0.7697 -0.9726
23323SOL    HW273468   0.876   4.761   9.840 -1.6357  1.1909 -1.1917
23324SOL     OW73469   8.342   6.318   2.413 -0.8658  0.2529 -0.1465
23324SOL    HW173470   8.429   6.284   2.391 -0.8905  1.3102 -2.0176
23324SOL    HW273471   8.283   6.275   2.351 -1.9951 -1.5980  2.0284
23325SOL     OW73472  10.636   2.696   0.821 -0.0519  0.2458 -0.2110
23325SOL    HW173473  10.586   2.776   0.808 -0.5346 -0.0284 -0.0390
23325SOL    HW273474  10.719   2.712   0.775  0.0614  1.0378  0.2497
23326SOL     OW73475   9.399   5.831  10.481  0.1959  0.3722 -0.2271
23326SOL    HW173476   9.418   5.822  10.574  0.0326 -0.1091 -0.2361
23326SOL    HW273477   9.433   5.917  10.457  2.6497 -0.5345 -0.2973
23327SOL     OW73478   7.805   2.898   7.602 -0.6257  0.5725 -0.1577
23327SOL    HW173479   7.744   2.959   7.644  0.0080  1.2625 -0.2008
23327SOL    HW273480   7.750   2.829   7.567 -1.2653  0.4990  0.9340
23328SOL     OW73481   6.996   2.383   5.481 -0.3921 -0.4964  0.3022
23328SOL    HW173482   6.989   2.313   5.416  0.9206  0.5780 -1.0733
23328SOL    HW273483   7.087   2.379   5.510  0.4734  2.1299 -1.6651
23329SOL     OW73484   9.268   6.092   7.277 -0.8064  0.2858 -0.0235
23329SOL    HW173485   9.282   6.187   7.282  1.1856  0.0536 -0.2332
23329SOL    HW273486   9.204   6.074   7.346  0.8264  1.4584  1.9225
23330SOL     OW73487   8.301   4.833   3.995  0.0183 -0.0779 -0.4757
23330SOL    HW173488   8.370   4.875   4.046  0.2842 -1.7489  0.6303
23330SOL    HW273489   8.227   4.826   4.055 -1.0767  1.4514 -1.5649
23331SOL     OW73490   4.514   7.557   6.168  0.1483  0.0749  0.5357
23331SOL    HW173491   4.428   7.591   6.144 -0.0531  0.8351  2.1932
23331SOL    HW273492   4.502   7.462   6.170 -0.4864  0.1389  0.1863
23332SOL     OW73493   2.907   2.959   4.294  0.1402 -0.1652  0.0853
23332SOL    HW173494   2.885   3.013   4.370 -0.7544  0.1845 -0.4064
23332SOL    HW273495   2.963   2.889   4.330 -2.7090 -1.8174  1.6898
23333SOL     OW73496   1.947   1.998   0.501  0.5221  0.2364 -0.2532
23333SOL    HW173497   1.860   1.999   0.539  0.8067  1.1402  0.4155
23333SOL    HW273498   2.004   1.965   0.571  1.1568  2.5635  0.4245
23334SOL     OW73499   0.814   8.742  10.059  0.3217  0.3673  0.0716
23334SOL    HW173500   0.772   8.802   9.998  0.5966  2.0464  1.4593
23334SOL    HW273501   0.896   8.717  10.016  0.4592  1.4283 -0.2984
23335SOL     OW73502   6.026   9.621   7.356 -0.4315  0.3306  0.4573
23335SOL    HW173503   6.089   9.549   7.346  1.0326  1.6887 -0.4961
23335SOL    HW273504   5.977   9.620   7.274 -0.9153 -0.0366  0.7492
23336SOL     OW73505   4.829   9.420   4.903 -0.1745  0.0311  0.1168
23336SOL    HW173506   4.813   9.474   4.826  2.1534 -1.2050 -1.3660
23336SOL    HW273507   4.812   9.330   4.873  0.0810 -0.4178  1.2618
23337SOL     OW73508   0.676   0.828  10.724 -0.0707 -0.1090  0.2300
23337SOL    HW173509   0.641   0.789  10.804 -0.0529 -0.2254  0.1804
23337SOL    HW273510   0.710   0.913  10.752 -2.4549  1.0385 -0.1150
23338SOL     OW73511   1.664   4.562  10.882  0.3841  0.0666  0.4040
23338SOL    HW173512   1.691   4.475  10.911 -2.8810 -1.3444 -0.3377
23338SOL    HW273513   1.603   4.546  10.810 -0.4432  2.9702  0.3156
23339SOL     OW73514   6.137  10.230   4.356 -0.3524 -0.4372  0.2691
23339SOL    HW173515   6.127  10.284   4.434 -3.2341 -2.1772  1.2701
23339SOL    HW273516   6.068  10.260   4.297 -0.5243 -1.4674 -0.0789
23340SOL     OW73517  10.149  10.852   5.934 -0.3473  0.8379 -0.0430
23340SOL    HW173518  10.062  10.850   5.893  0.2884  0.3709 -1.4277
23340SOL    HW273519  10.131  10.844   6.028 -1.7463 -0.4924 -0.3781
23341SOL     OW73520   8.566   9.098   4.746 -0.4374  0.6261  0.3485
23341SOL    HW173521   8.477   9.108   4.711 -0.1957  1.6294 -0.0093
23341SOL    HW273522   8.578   9.003   4.753 -0.2660  0.3031 -2.9243
23342SOL     OW73523   3.589   2.631  10.504 -0.1309 -0.4550 -0.3910
23342SOL    HW173524   3.677   2.596  10.488 -0.4361 -0.7424 -1.4885
23342SOL    HW273525   3.574   2.693  10.433 -1.9486 -2.5722 -2.0142
23343SOL     OW73526   7.228  10.708   7.059  0.6096  0.2536  0.4087
23343SOL    HW173527   7.132  10.702   7.055  0.5774  1.0351 -0.1722
23343SOL    HW273528   7.254  10.732   6.970  1.3027  0.6422  0.7122
23344SOL     OW73529   8.151   1.792   2.020  0.1311 -1.0017 -0.3233
23344SOL    HW173530   8.209   1.736   2.071 -1.1150 -0.5020  1.7659
23344SOL    HW273531   8.185   1.787   1.931  4.3087  0.4063  0.9353
23345SOL     OW73532   8.290   9.410   6.032  0.1832  0.0876 -0.1698
23345SOL    HW173533   8.363   9.409   6.094  1.2548  0.7383 -1.3864
23345SOL    HW273534   8.228   9.472   6.069 -0.2937 -1.2514  1.4258
23346SOL     OW73535   6.586   7.027   4.003 -0.1706  0.1299 -0.5236
23346SOL    HW173536   6.613   7.084   4.075  2.2114  1.6470 -2.4615
23346SOL    HW273537   6.544   7.087   3.940  1.4487 -0.3519 -2.1511
23347SOL     OW73538   7.553   2.760   6.729  0.1008  0.2694 -0.2479
23347SOL    HW173539   7.534   2.767   6.823 -0.3687  1.0288 -0.3931
23347SOL    HW273540   7.573   2.668   6.715 -1.1400 -0.1017  0.3506
23348SOL     OW73541   2.096   6.093  10.551  0.3063  0.2467  0.1152
23348SOL    HW173542   2.046   6.012  10.565  1.0059 -0.1681  0.2734
23348SOL    HW273543   2.030   6.162  10.546 -0.2730 -0.2797  0.4128
23349SOL     OW73544   5.847   9.937   2.746  0.7633  0.0081 -0.2746
23349SOL    HW173545   5.797   9.922   2.826 -0.2148 -1.4098 -1.0947
23349SOL    HW273546   5.822  10.025   2.718  0.0214 -0.0355  0.2224
23350SOL     OW73547  10.129   3.023  10.786 -0.2717  0.0510  0.5417
23350SOL    HW173548  10.074   3.070  10.848  0.8079 -0.7801  2.2129
23350SOL    HW273549  10.161   2.947  10.836 -2.0499 -2.6217 -2.0256
23351SOL     OW73550   8.592  10.256   2.544  0.3342  0.1857 -0.3046
23351SOL    HW173551   8.560  10.318   2.610  1.9807 -0.1116  0.8485
23351SOL    HW273552   8.581  10.170   2.584  0.9810 -0.0275 -0.5623
23352SOL     OW73553   4.216   4.725   5.667  0.0060  0.1218  0.1975
23352SOL    HW173554   4.303   4.734   5.706  0.0863 -0.2925  0.1154
23352SOL    HW273555   4.233   4.719   5.573  0.0521 -1.9326  0.2959
23353SOL     OW73556   0.030   6.958   6.415  0.1509 -0.0214 -0.1645
23353SOL    HW173557   0.065   6.869   6.402  0.5540 -0.1452  1.6052
23353SOL    HW273558  -0.031   6.969   6.342  0.8786 -1.3442 -1.0271
23354SOL     OW73559  10.864   6.111   4.297 -0.1903  0.2336 -0.1455
23354SOL    HW173560  10.822   6.099   4.382 -0.0500 -0.1757 -0.1328
23354SOL    HW273561  10.954   6.136   4.317 -0.3976  1.0482 -0.1736
23355SOL     OW73562   1.601   6.263   2.970  0.3992 -0.1265  0.5646
23355SOL    HW173563   1.553   6.236   3.048 -0.2996 -2.2087 -0.4816
23355SOL    HW273564   1.684   6.217   2.975  1.9121  2.5288  1.7639
23356SOL     OW73565   7.716   7.203   8.115  0.7771 -1.3128 -0.1878
23356SOL    HW173566   7.685   7.184   8.027  1.0264 -2.0386 -0.1321
23356SOL    HW273567   7.663   7.146   8.171  1.6246 -1.9534 -0.0173
23357SOL     OW73568   2.657   1.027   5.225 -0.2350 -0.5886 -0.4708
23357SOL    HW173569   2.621   0.960   5.284  0.1973 -0.1563  0.3021
23357SOL    HW273570   2.748   1.001   5.211  0.0860  0.1014  0.2526
23358SOL     OW73571   8.836   2.971   3.738 -0.2294 -0.0391  0.1039
23358SOL    HW173572   8.825   2.882   3.705 -1.6163 -0.3336  1.2242
23358SOL    HW273573   8.816   2.964   3.832  0.2696  1.3384  0.3329
23359SOL     OW73574   5.023   8.023   3.083 -0.1981  0.2072 -0.4830
23359SOL    HW173575   5.035   8.093   3.147 -0.1228  1.0427 -1.3875
23359SOL    HW273576   4.972   8.063   3.013 -2.3859 -1.3668  0.1269
23360SOL     OW73577   5.729   7.997   2.241 -0.3191  0.4804  0.1231
23360SOL    HW173578   5.675   7.926   2.276  0.9862 -0.1098  1.0414
23360SOL    HW273579   5.799   7.952   2.194  1.3914  1.0496  1.9851
23361SOL     OW73580   8.659   5.287   2.954 -0.0925 -0.1263 -0.0048
23361SOL    HW173581   8.587   5.289   3.017  0.2505  1.6794  0.3799
23361SOL    HW273582   8.707   5.368   2.970  2.1137 -1.3463 -0.1644
23362SOL     OW73583   8.305   2.763   9.331  0.4513  0.1147 -0.3076
23362SOL    HW173584   8.259   2.712   9.398 -0.0858  1.6661  0.5482
23362SOL    HW273585   8.346   2.835   9.379 -1.5842  2.4123 -1.7848
23363SOL     OW73586  10.631   4.802   8.347 -0.0708 -0.5706  0.4169
23363SOL    HW173587  10.620   4.861   8.272 -0.4904  0.0147  0.9331
23363SOL    HW273588  10.615   4.715   8.311 -1.5204 -0.1908  0.0739
23364SOL     OW73589   5.141   9.743   7.316 -0.0554 -0.2254  0.2475
23364SOL    HW173590   5.050   9.746   7.346 -0.7932  1.8513 -1.8667
23364SOL    HW273591   5.142   9.676   7.249 -0.1895  0.1695 -0.1532
23365SOL     OW73592   3.503   4.810  10.767 -0.1192  0.7403 -1.0147
23365SOL    HW173593   3.491   4.867  10.692 -0.1392 -0.3189 -1.8412
23365SOL    HW273594   3.463   4.727  10.741  0.5987  0.1025 -0.1619
23366SOL     OW73595   3.414   4.426   2.583  0.4802 -0.4526 -0.6680
23366SOL    HW173596   3.457   4.385   2.508  1.2566 -0.5835 -0.1694
23366SOL    HW273597   3.396   4.516   2.554 -0.1746 -0.8031 -1.3607
23367SOL     OW73598   5.817   5.717   5.619 -0.8883 -0.4742  0.6343
23367SOL    HW173599   5.769   5.653   5.671  0.0381 -1.0706  0.7760
23367SOL    HW273600   5.881   5.665   5.571  0.3264  0.3956  1.2574
23368SOL     OW73601   4.209   5.467   4.231  0.0517  0.0710 -0.1201
23368SOL    HW173602   4.273   5.527   4.271  0.3154 -1.0330  1.1806
23368SOL    HW273603   4.230   5.381   4.269 -1.4256 -0.5289 -0.6090
23369SOL     OW73604   0.862   3.228   2.563  0.0079 -0.2168  0.7710
23369SOL    HW173605   0.898   3.314   2.542  1.3239 -1.0820 -0.7059
23369SOL    HW273606   0.782   3.247   2.612  0.1161  1.8471  0.2325
23370SOL     OW73607   4.585   8.947   1.725 -0.2444 -0.4055 -0.1947
23370SOL    HW173608   4.508   8.896   1.751 -0.1511 -0.9765 -1.0245
23370SOL    HW273609   4.656   8.912   1.779 -0.9124  1.4843  2.0811
23371SOL     OW73610   7.257   1.954  10.705 -0.1063  0.0821  0.4701
23371SOL    HW173611   7.286   2.012  10.634 -0.6457  0.8071  0.8294
23371SOL    HW273612   7.167   1.933  10.684 -0.4293  0.7023  1.1834
23372SOL     OW73613   5.633   3.383   7.998  0.3241 -0.0619 -0.8991
23372SOL    HW173614   5.593   3.450   7.943  1.2560  1.8601  0.6766
23372SOL    HW273615   5.680   3.431   8.066 -1.8647 -2.2471  2.4956
23373SOL     OW73616   1.879   0.330   4.176  0.1084  0.6871  0.6820
23373SOL    HW173617   1.855   0.255   4.122  0.9007  0.6284  0.3943
23373SOL    HW273618   1.817   0.398   4.150  0.4451  0.6468 -0.2900
23374SOL     OW73619  10.777   1.035   2.177  0.1349 -0.1347 -0.2582
23374SOL    HW173620  10.699   1.029   2.233  0.1264  0.9176 -0.1356
23374SOL    HW273621  10.753   1.097   2.109  0.5087 -0.6233 -0.8440
23375SOL     OW73622   3.389   6.054  10.018  0.2113  0.7570 -0.4899
23375SOL    HW173623   3.444   6.062   9.940  0.5741  0.3573 -0.2766
23375SOL    HW273624   3.372   6.144  10.045  0.6776  0.8838 -0.6132
23376SOL     OW73625  10.727   1.513  10.518 -0.3241 -0.0930 -0.8179
23376SOL    HW173626  10.734   1.419  10.530 -1.1559  0.0023  0.5733
23376SOL    HW273627  10.689   1.546  10.599  3.2991  1.9223  0.2974
23377SOL     OW73628   5.239  10.699   1.495  0.1609 -0.2278  0.2071
23377SOL    HW173629   5.180  10.770   1.470 -0.5094 -0.6307  0.6304
23377SOL    HW273630   5.301  10.740   1.556 -1.2618 -0.3739  1.7988
23378SOL     OW73631   6.225   2.605   7.633 -0.2822 -0.1982 -0.6242
23378SOL    HW173632   6.302   2.564   7.592 -0.3725 -1.4834  0.4225
23378SOL    HW273633   6.250   2.617   7.724  0.0822  3.0658 -1.0503
23379SOL     OW73634   6.907   0.773   0.486 -0.7871 -0.2699 -0.1300
23379SOL    HW173635   6.951   0.833   0.546  2.1226 -2.3361  0.0308
23379SOL    HW273636   6.889   0.826   0.408  0.4636  1.1295  0.4789
23380SOL     OW73637   4.614  10.017   3.298 -0.3467  1.2875  0.3982
23380SOL    HW173638   4.604  10.024   3.393 -1.3414  1.9405  0.2632
23380SOL    HW273639   4.683  10.080   3.277  1.6147 -0.5660  0.9258
23381SOL     OW73640   4.942   0.159   4.294  0.0497 -0.2723 -0.0649
23381SOL    HW173641   5.013   0.145   4.357  0.0002  1.0608  0.3117
23381SOL    HW273642   4.962   0.244   4.255  0.2172 -1.1692 -2.0519
23382SOL     OW73643   1.689   3.151  10.424 -0.3619 -0.0858  0.4343
23382SOL    HW173644   1.776   3.114  10.444 -0.3847  1.0057  2.9403
23382SOL    HW273645   1.685   3.151  10.329  2.3593 -0.2948  0.2202
23383SOL     OW73646   8.840   4.882  10.057 -0.3247 -0.0232  0.0237
23383SOL    HW173647   8.922   4.832  10.055 -0.9239 -1.2032  1.9702
23383SOL    HW273648   8.783   4.836   9.996 -0.8933 -1.8709  1.8462
23384SOL     OW73649   7.390   8.744   4.724 -0.0360 -0.0194  0.2848
23384SOL    HW173650   7.429   8.685   4.789 -1.7021 -1.8126 -0.2563
23384SOL    HW273651   7.385   8.692   4.644 -2.3197  0.5289  0.0055
23385SOL     OW73652  10.071   2.885   0.605 -0.2052  0.0983  0.2587
23385SOL    HW173653  10.042   2.969   0.569  0.2625 -0.2069 -0.8896
23385SOL    HW273654   9.994   2.828   0.598  0.1853 -0.2886 -1.4061
23386SOL     OW73655   6.252   0.355   7.620 -0.0206 -0.0476  0.7450
23386SOL    HW173656   6.176   0.297   7.621  0.6653 -0.9993 -0.3366
23386SOL    HW273657   6.327   0.296   7.624  0.6832  0.8723  1.6794
23387SOL     OW73658   1.439   5.573  10.074 -0.2808 -0.1014  0.5714
23387SOL    HW173659   1.367   5.636  10.069 -1.0112 -1.0206 -1.8574
23387SOL    HW273660   1.518   5.627  10.086 -0.9009  1.3020 -1.2735
23388SOL     OW73661   3.620   5.603   7.291  0.2821  0.0781 -0.2329
23388SOL    HW173662   3.558   5.675   7.290  0.1223 -0.0568 -0.1117
23388SOL    HW273663   3.616   5.566   7.203 -0.4847 -0.5024  0.0308
23389SOL     OW73664   0.428   8.298   6.314 -0.5340 -0.2339  0.2086
23389SOL    HW173665   0.352   8.345   6.280  0.0251  1.4394  1.1464
23389SOL    HW273666   0.487   8.291   6.239 -0.1773  1.5775  0.2820
23390SOL     OW73667   5.247   1.130   0.740 -0.2948  0.5378 -0.1745
23390SOL    HW173668   5.186   1.090   0.802  0.0680  0.2150 -0.0203
23390SOL    HW273669   5.205   1.212   0.714 -1.4775 -0.3488 -1.1796
23391SOL     OW73670   2.067   1.939   2.072  0.5299  0.0875 -0.4404
23391SOL    HW173671   2.097   1.999   2.140  0.3321  0.4180 -0.6444
23391SOL    HW273672   2.099   1.977   1.990  0.6244 -0.2197 -0.5475
23392SOL     OW73673   2.805   6.027   7.220 -0.2344  0.1311 -0.2625
23392SOL    HW173674   2.802   6.121   7.234 -0.3686 -0.1742  2.3170
23392SOL    HW273675   2.743   5.991   7.284 -1.6114 -1.6418 -2.4514
23393SOL     OW73676   9.812   1.714   4.617 -0.1528  0.2299 -0.9638
23393SOL    HW173677   9.752   1.645   4.587  0.5884 -0.1286 -1.6570
23393SOL    HW273678   9.873   1.725   4.544  0.1470  1.1442 -0.5778
23394SOL     OW73679   4.763   8.033   7.678 -0.3494 -0.0863 -0.4068
23394SOL    HW173680   4.748   8.101   7.743 -0.5982 -1.2168  0.7461
23394SOL    HW273681   4.787   7.956   7.728 -0.4071 -0.9538 -1.6647
23395SOL     OW73682   7.549   4.385   2.869  0.1402 -0.1699  0.1661
23395SOL    HW173683   7.557   4.463   2.925 -0.1468 -0.1974  0.2496
23395SOL    HW273684   7.637   4.347   2.869  0.8129  1.2492 -1.4991
23396SOL     OW73685   1.500   0.238   3.345  0.1693  0.1719  0.2395
23396SOL    HW173686   1.539   0.245   3.258 -0.1052  1.5140  0.2109
23396SOL    HW273687   1.409   0.211   3.329 -0.1450  1.3011  0.0342
23397SOL     OW73688   2.059   0.169   3.260 -0.4113  0.5194  0.3414
23397SOL    HW173689   2.128   0.205   3.205 -1.5832 -0.3992 -1.8619
23397SOL    HW273690   2.090   0.082   3.286 -0.1566  0.6731  0.5565
23398SOL     OW73691   0.627   2.904  10.002 -0.4761 -0.2375  0.0606
23398SOL    HW173692   0.535   2.928   9.988 -0.5989 -0.9533 -0.4132
23398SOL    HW273693   0.638   2.909  10.097 -0.9714 -0.0334  0.1147
23399SOL     OW73694   8.932   5.806   2.749  0.4273  0.1265 -0.3181
23399SOL    HW173695   8.842   5.780   2.766 -1.1357  3.5965 -2.2407
23399SOL    HW273696   8.968   5.736   2.694 -1.6804 -0.5264 -0.9447
23400SOL     OW73697   7.680   1.377   9.531 -0.4642  0.0994  0.1577
23400SOL    HW173698   7.761   1.372   9.582  0.2738  2.7225 -0.6174
23400SOL    HW273699   7.637   1.457   9.562 -2.2023 -0.6113 -0.2944
23401SOL     OW73700   8.187  10.240   5.052 -0.0476  0.1357 -0.2877
23401SOL    HW173701   8.199  10.155   5.008 -0.3708 -0.6910  1.1533
23401SOL    HW273702   8.092  10.249   5.061  0.0006  0.4774 -0.1090
23402SOL     OW73703   7.237   1.097   5.651 -0.1112 -0.2132  0.1221
23402SOL    HW173704   7.257   1.120   5.560  0.5501 -0.9009  0.0899
23402SOL    HW273705   7.182   1.169   5.681 -0.1668  0.1307 -0.7574
23403SOL     OW73706   0.626   8.027   4.149  0.1738 -0.2672  0.0622
23403SOL    HW173707   0.621   8.065   4.237  0.5913  0.5911 -0.2810
23403SOL    HW273708   0.714   8.047   4.119 -0.5129  0.9863 -1.2326
23404SOL     OW73709   9.532   6.160   9.751 -0.1613 -0.0688  0.5031
23404SOL    HW173710   9.519   6.081   9.804  0.1605 -0.2333  0.3433
23404SOL    HW273711   9.518   6.131   9.661  0.6690 -0.1171  0.3786
23405SOL     OW73712   6.812   7.048   9.213 -0.1194  0.0327  0.0150
23405SOL    HW173713   6.834   6.973   9.157 -0.2994  0.1053 -0.1526
23405SOL    HW273714   6.728   7.079   9.180 -1.6248 -1.6149  2.0477
23406SOL     OW73715   4.989   7.652   5.745  0.2700 -0.5600  0.1360
23406SOL    HW173716   4.944   7.666   5.662 -0.3967 -0.5472  0.4906
23406SOL    HW273717   4.955   7.568   5.777  1.6932 -1.3528 -0.3462
23407SOL     OW73718   1.954   1.851   0.746 -0.6167  0.5677  0.4943
23407SOL    HW173719   1.863   1.871   0.723 -0.4523  0.3582 -0.3553
23407SOL    HW273720   1.953   1.758   0.769 -0.6646  0.6293  0.7447
23408SOL     OW73721   8.469   5.205   5.647  0.0749  0.4068  0.0682
23408SOL    HW173722   8.484   5.111   5.635  0.6093  0.3510  1.0629
23408SOL    HW273723   8.393   5.210   5.704 -0.5922  0.6063 -0.8236
23409SOL     OW73724   8.376   4.392   6.517 -0.3827  0.3988  0.0185
23409SOL    HW173725   8.326   4.351   6.446  0.4632  0.2878 -0.5257
23409SOL    HW273726   8.415   4.470   6.478  0.7314 -0.0789  0.1201
23410SOL     OW73727   1.320   8.381   5.616  0.1540 -0.0040 -0.3963
23410SOL    HW173728   1.237   8.339   5.636  0.4056 -0.7200 -0.8264
23410SOL    HW273729   1.298   8.474   5.604 -0.5368 -0.1502 -0.2717
23411SOL     OW73730   6.822  10.017   2.764 -0.1297 -0.4740 -0.1440
23411SOL    HW173731   6.859  10.104   2.778  1.7662 -1.4004  0.8878
23411SOL    HW273732   6.796  10.017   2.671  0.7754  0.8452 -0.4248
23412SOL     OW73733   4.848   5.656   4.935  0.3453  0.1870 -0.3469
23412SOL    HW173734   4.757   5.625   4.933  0.7088 -0.9345 -1.1593
23412SOL    HW273735   4.847   5.735   4.881 -0.5336  1.4516  1.4264
23413SOL     OW73736   7.145  10.486   0.005  0.2039 -0.4258 -0.1573
23413SOL    HW173737   7.058  10.453  -0.016 -0.5390  1.0963  0.3711
23413SOL    HW273738   7.129  10.556   0.068  1.9409 -1.2381  1.2651
23414SOL     OW73739  10.627   6.918   8.101 -0.2467  0.0462 -0.1632
23414SOL    HW173740  10.595   6.950   8.016  2.9462  0.6204 -1.2979
23414SOL    HW273741  10.583   6.834   8.112 -1.4990  0.3939 -1.8901
23415SOL     OW73742   4.194   1.346   7.352  0.0505  0.0662  0.5711
23415SOL    HW173743   4.123   1.370   7.411 -0.5568 -1.7810  0.6739
23415SOL    HW273744   4.161   1.367   7.264 -0.5669 -0.6117  0.6331
23416SOL     OW73745   4.869   9.325   9.000 -0.7985  0.5991 -0.4433
23416SOL    HW173746   4.904   9.347   9.086 -1.8773 -1.0803  0.4799
23416SOL    HW273747   4.946   9.296   8.950 -0.1649  1.5703 -0.0695
23417SOL     OW73748   5.907  10.351   8.259  0.0403 -0.0873  0.1310
23417SOL    HW173749   6.000  10.340   8.239  0.4261  1.8160  0.7319
23417SOL    HW273750   5.863  10.288   8.201  1.5668  0.2094 -1.4513
23418SOL     OW73751   8.172   6.147   3.632  0.3362 -0.3065  0.1007
23418SOL    HW173752   8.234   6.138   3.560 -2.3737 -0.4121 -2.4141
23418SOL    HW273753   8.183   6.067   3.684  2.7372  0.0268  0.2072
23419SOL     OW73754  10.265  10.700  10.041  0.3118 -0.2325  0.1536
23419SOL    HW173755  10.360  10.712  10.050  0.2937  1.1798 -1.0675
23419SOL    HW273756  10.228  10.735  10.122  0.7959 -0.0390  0.2916
23420SOL     OW73757   0.584   0.877   2.627  0.3041 -0.4905 -0.4180
23420SOL    HW173758   0.560   0.803   2.571  1.4474  0.1656 -1.8413
23420SOL    HW273759   0.633   0.839   2.699  0.7569 -1.1366 -1.0615
23421SOL     OW73760   0.234  10.465   4.573 -0.0625  0.7831  0.1098
23421SOL    HW173761   0.223  10.483   4.479 -1.1791  0.3356  0.1419
23421SOL    HW273762   0.178  10.389   4.590  0.7238  0.3799  0.9938
23422SOL     OW73763   3.668   1.206   5.607  0.3981  0.4505 -0.3281
23422SOL    HW173764   3.744   1.150   5.597  0.2139 -0.0092  0.8021
23422SOL    HW273765   3.619   1.195   5.525  2.0417  1.5637 -1.5300
23423SOL     OW73766  10.806   5.285   1.935 -0.1646 -0.1501 -0.5336
23423SOL    HW173767  10.718   5.249   1.947 -0.2960  0.5580  0.8385
23423SOL    HW273768  10.797   5.350   1.866 -0.4940 -0.7757 -1.0942
23424SOL     OW73769   7.979   7.877   8.669 -0.7206 -0.3429  0.0039
23424SOL    HW173770   7.956   7.874   8.762 -0.5582 -2.5637  0.0347
23424SOL    HW273771   8.030   7.957   8.659 -1.2915  0.2794  1.6742
23425SOL     OW73772   8.372   3.959   5.772 -0.1022  0.0335 -0.1541
23425SOL    HW173773   8.348   4.028   5.711  1.3407  0.6874 -0.0302
23425SOL    HW273774   8.357   3.997   5.859  2.1374  0.8315 -0.0454
23426SOL     OW73775   3.537   8.937  10.839  0.0705  0.0671  0.1954
23426SOL    HW173776   3.501   8.962  10.924  0.6211 -0.3074  0.5414
23426SOL    HW273777   3.466   8.956  10.777 -0.8875 -1.0332  0.8989
23427SOL     OW73778   2.426  10.646   8.309  0.2362 -0.4509 -0.0372
23427SOL    HW173779   2.510  10.658   8.354  0.9470  0.4693 -1.5495
23427SOL    HW273780   2.445  10.663   8.217 -1.7175  0.3198 -0.3518
23428SOL     OW73781   2.213   1.325   9.104  0.6535 -0.1932  0.1337
23428SOL    HW173782   2.282   1.258   9.101  0.6254 -0.2042 -0.2303
23428SOL    HW273783   2.252   1.401   9.061  0.0124 -0.5840 -1.1652
23429SOL     OW73784   5.601   5.981   9.136 -0.0203  0.5567  0.3445
23429SOL    HW173785   5.596   5.932   9.219  1.2693 -1.4787 -0.6917
23429SOL    HW273786   5.540   5.935   9.078  0.7446  0.5470 -0.4709
23430SOL     OW73787   3.909   8.235  10.918 -0.1548 -0.4328 -0.8673
23430SOL    HW173788   3.945   8.156  10.958  0.7572  0.0656 -0.6663
23430SOL    HW273789   3.887   8.209  10.829 -3.3532 -1.9054  0.1919
23431SOL     OW73790   6.595   9.584   0.532  0.1936 -0.0219  0.0675
23431SOL    HW173791   6.515   9.598   0.483 -0.1357 -0.0180  0.6022
23431SOL    HW273792   6.642   9.516   0.483 -0.8319 -1.1123  0.5615
23432SOL     OW73793   7.749   9.780   9.939 -0.4275 -0.3659  0.1485
23432SOL    HW173794   7.815   9.822   9.994 -1.5784 -1.1889  2.2647
23432SOL    HW273795   7.792   9.701   9.907 -0.7709 -1.6852  2.7322
23433SOL     OW73796   0.117   2.506   9.896  0.0551  0.1153  0.2633
23433SOL    HW173797   0.132   2.552   9.813  0.0127 -0.8612 -0.2992
23433SOL    HW273798   0.101   2.576   9.960  1.4843  0.9383 -0.2474
23434SOL     OW73799   5.279   1.939   4.943 -0.0248  0.0519  0.2361
23434SOL    HW173800   5.255   2.029   4.967  0.8333  0.5585 -0.7565
23434SOL    HW273801   5.370   1.944   4.916  0.0668 -1.1485  0.2437
23435SOL     OW73802   5.826   1.245   5.922 -0.2314 -0.3176  0.2663
23435SOL    HW173803   5.868   1.329   5.942  0.0921 -0.4581  0.1896
23435SOL    HW273804   5.753   1.239   5.983 -0.1483 -0.0597  0.3910
23436SOL     OW73805   6.694   2.704   1.721 -0.4838 -0.4043  0.3420
23436SOL    HW173806   6.671   2.640   1.788 -0.2626 -0.5093  0.3203
23436SOL    HW273807   6.778   2.740   1.750 -1.4375  1.1645  1.2730
23437SOL     OW73808   9.107  10.444   2.237 -0.1663  0.0888 -0.2038
23437SOL    HW173809   9.107  10.388   2.315  2.6994  0.7622  0.4053
23437SOL    HW273810   9.136  10.387   2.166  0.6752  0.2693 -0.0175
23438SOL     OW73811   4.620   2.380   3.745 -0.3734 -0.2792 -0.2194
23438SOL    HW173812   4.558   2.449   3.719  1.2161  1.1255 -0.5003
23438SOL    HW273813   4.569   2.321   3.801 -1.5835  1.6218  0.7961
23439SOL     OW73814   5.846   4.100   8.882  0.1414  0.6149  0.1603
23439SOL    HW173815   5.838   4.007   8.859 -1.0881  1.4223 -3.2327
23439SOL    HW273816   5.826   4.103   8.976  1.6141 -2.6536  0.7260
23440SOL     OW73817   0.235   8.555   0.105 -1.0508 -0.1436 -0.1918
23440SOL    HW173818   0.249   8.465   0.074 -0.1640 -0.6818  1.6475
23440SOL    HW273819   0.147   8.555   0.142 -1.0871 -0.2196 -0.2784
23441SOL     OW73820   4.585   1.429   6.713 -0.3471 -0.0373 -0.3549
23441SOL    HW173821   4.637   1.505   6.740 -0.1054  0.3082 -1.7096
23441SOL    HW273822   4.575   1.377   6.793  0.0902  1.0621  0.4357
23442SOL     OW73823   0.876   8.364   7.741 -1.0983 -0.1606  0.2025
23442SOL    HW173824   0.954   8.398   7.784 -0.4043 -2.3307  0.7907
23442SOL    HW273825   0.804   8.386   7.802 -0.7217  0.3906  0.4595
23443SOL     OW73826   3.084   8.278   3.094  0.1743  0.0036  0.5694
23443SOL    HW173827   3.146   8.245   3.029 -0.5961  0.7576 -0.5869
23443SOL    HW273828   3.136   8.333   3.152  0.8224 -0.4480  0.4234
23444SOL     OW73829   0.518   0.676   1.569 -0.4587  0.4157 -0.0861
23444SOL    HW173830   0.517   0.580   1.568  2.6656  0.2696 -0.9452
23444SOL    HW273831   0.552   0.699   1.655  1.2919  0.5558 -0.7642
23445SOL     OW73832   0.978   6.303  10.802  0.0669 -0.4987 -0.2258
23445SOL    HW173833   0.970   6.391  10.836  1.1825 -1.4548  2.8450
23445SOL    HW273834   0.913   6.298  10.732 -2.2131  1.7827  1.5420
23446SOL     OW73835   0.906   1.603   5.022 -0.4287  0.1993 -0.1271
23446SOL    HW173836   0.831   1.639   4.975 -0.6529  1.3703  1.0597
23446SOL    HW273837   0.949   1.545   4.959 -1.6244  0.4547 -1.2186
23447SOL     OW73838   2.761   6.352   8.773 -0.0719  0.1428 -0.1859
23447SOL    HW173839   2.696   6.411   8.736  1.4985  1.9441 -0.1977
23447SOL    HW273840   2.796   6.398   8.849  1.3294 -0.6938 -0.2835
23448SOL     OW73841   3.903   5.818   0.501 -0.8162  0.0837  0.0336
23448SOL    HW173842   3.903   5.833   0.407  0.7167  1.7679  0.2238
23448SOL    HW273843   3.859   5.895   0.537 -1.3977 -0.5520  0.7138
23449SOL     OW73844   3.600   6.499   1.630 -0.2863  0.7910  0.3348
23449SOL    HW173845   3.638   6.485   1.543  1.1461 -0.8947  1.1640
23449SOL    HW273846   3.506   6.497   1.616 -0.1036  1.6558 -1.3161
23450SOL     OW73847   6.385   0.671   0.794 -0.1257 -0.5356  0.0242
23450SOL    HW173848   6.369   0.659   0.888  0.4047  1.6593  0.4440
23450SOL    HW273849   6.300   0.652   0.754 -0.5844 -0.7048  1.0230
23451SOL     OW73850   2.907   2.255   1.467  0.2351 -0.3243 -0.0332
23451SOL    HW173851   2.986   2.308   1.482  1.7906 -2.6420  0.5974
23451SOL    HW273852   2.844   2.288   1.530  1.3304  0.3919  0.7335
23452SOL     OW73853   2.044  10.543   1.610  0.0054  0.0261  0.0472
23452SOL    HW173854   2.096  10.530   1.531  0.4783  1.5541  0.0596
23452SOL    HW273855   1.963  10.584   1.579  0.5363  1.4092  0.3863
23453SOL     OW73856   3.224   2.935   4.204 -0.1383  0.0702 -0.2125
23453SOL    HW173857   3.134   2.950   4.235 -0.2200 -0.2629 -0.2790
23453SOL    HW273858   3.220   2.957   4.110 -0.1194  0.1751 -0.1887
23454SOL     OW73859   1.029   5.776   1.559 -0.5902  0.2536  0.3537
23454SOL    HW173860   1.015   5.708   1.493 -0.0208 -0.1513  0.6400
23454SOL    HW273861   1.106   5.746   1.608  0.5608  1.8162 -0.4360
23455SOL     OW73862   9.983  10.856   5.605  0.1526 -0.1893  0.2823
23455SOL    HW173863  10.071  10.822   5.587  0.4201  0.6205 -0.0155
23455SOL    HW273864   9.948  10.876   5.518  0.2101  0.7672  0.4705
23456SOL     OW73865   3.551   8.094   4.012 -0.1535  0.3666  0.4600
23456SOL    HW173866   3.536   8.162   3.946 -1.7755 -0.6552 -0.2684
23456SOL    HW273867   3.638   8.061   3.991 -0.6945 -0.0577 -1.3246
23457SOL     OW73868   8.131   7.543   4.954 -0.8600  0.1770 -0.3413
23457SOL    HW173869   8.210   7.597   4.953  0.3507 -1.5273 -1.9267
23457SOL    HW273870   8.113   7.529   5.047  0.9591  0.2580  0.0513
23458SOL     OW73871   4.100   6.154   6.914  0.1476  0.5072  0.3013
23458SOL    HW173872   4.020   6.139   6.964 -0.0949 -0.9010 -0.4674
23458SOL    HW273873   4.100   6.086   6.847  3.3022 -1.2626  1.8845
23459SOL     OW73874   0.941   1.054   6.566 -0.0277  0.2346 -0.0247
23459SOL    HW173875   0.951   1.061   6.661  0.7866  0.1378 -0.0930
23459SOL    HW273876   0.847   1.047   6.552 -0.0817 -1.7858  0.9209
23460SOL     OW73877   8.796   5.401   1.380 -0.4224  0.2047 -0.3627
23460SOL    HW173878   8.770   5.479   1.332 -1.6146 -0.3879 -0.7270
23460SOL    HW273879   8.737   5.398   1.456  0.7407  0.5553  0.6012
23461SOL     OW73880   5.997   2.467   6.664 -0.0076 -0.1799 -0.3625
23461SOL    HW173881   5.970   2.444   6.575 -2.1570  1.4638 -0.2070
23461SOL    HW273882   6.063   2.401   6.686  0.5404 -0.7061 -3.1114
23462SOL     OW73883   5.683  10.522   6.015 -0.1274 -0.0529 -0.4435
23462SOL    HW173884   5.767  10.481   5.994 -0.4466 -0.6587 -0.5573
23462SOL    HW273885   5.628  10.504   5.939 -0.5744 -0.2728 -0.0705
23463SOL     OW73886   0.884   2.647  10.317 -0.3934  0.1119 -0.8099
23463SOL    HW173887   0.789   2.634  10.310 -1.2106  3.4678  1.2981
23463SOL    HW273888   0.906   2.703  10.242 -0.8511  2.0401  0.4143
23464SOL     OW73889   1.962   3.907   4.813  0.1333 -0.1644  0.2503
23464SOL    HW173890   1.874   3.889   4.778  0.8426 -2.4397 -0.5731
23464SOL    HW273891   1.991   3.823   4.849  1.5753  0.8067  1.5163
23465SOL     OW73892   9.881   1.463   5.054 -0.0132 -0.0881 -0.4670
23465SOL    HW173893   9.912   1.461   4.964 -2.3065 -0.5873 -1.3229
23465SOL    HW273894   9.852   1.553   5.068 -0.7905 -0.3014 -0.6655
23466SOL     OW73895   4.307   4.128   4.368  0.2503 -0.5782  0.3178
23466SOL    HW173896   4.391   4.174   4.375  0.1207 -0.3350  0.2719
23466SOL    HW273897   4.300   4.107   4.274 -0.7464  1.3017 -0.0635
23467SOL     OW73898   4.536   5.268  10.393 -0.0360 -0.0720  0.0747
23467SOL    HW173899   4.568   5.256  10.304 -0.2498 -0.3308  0.0304
23467SOL    HW273900   4.612   5.250  10.449  0.8378  2.6237 -0.1057
23468SOL     OW73901   8.399   3.662   6.706  0.0067 -0.1491  0.1130
23468SOL    HW173902   8.411   3.604   6.781 -0.4731 -1.8842 -1.0691
23468SOL    HW273903   8.315   3.704   6.721  1.7985  3.0016  2.6453
23469SOL     OW73904  10.225   7.440   8.213  0.5375 -0.1382 -0.2005
23469SOL    HW173905  10.139   7.416   8.178  1.0729 -0.0655 -1.6214
23469SOL    HW273906  10.216   7.429   8.308 -1.4260  1.0775 -0.1804
23470SOL     OW73907   1.935   8.712   2.602 -0.3887 -1.0502  0.4639
23470SOL    HW173908   1.975   8.781   2.549 -2.5841  0.5443  0.7233
23470SOL    HW273909   1.957   8.631   2.558  0.8045 -0.0468 -0.8682
23471SOL     OW73910   5.263   0.911   2.296  0.1784 -0.2049  0.1068
23471SOL    HW173911   5.348   0.871   2.314  0.2790  0.3657  1.0040
23471SOL    HW273912   5.199   0.845   2.324  0.2861 -1.0530 -1.5270
23472SOL     OW73913   3.824   4.297   1.748  0.4193  0.0596 -0.1036
23472SOL    HW173914   3.807   4.349   1.827 -1.0371 -0.4612 -0.0495
23472SOL    HW273915   3.799   4.208   1.772 -0.0390 -0.1047 -1.1583
23473SOL     OW73916  10.345   9.703   0.220 -0.1009 -0.2575  0.5138
23473SOL    HW173917  10.351   9.667   0.309 -1.2121 -1.9203 -0.0456
23473SOL    HW273918  10.416   9.660   0.173 -0.0097  0.0227  0.3965
23474SOL     OW73919   1.471   3.464   3.423 -0.1731 -0.4374  0.3865
23474SOL    HW173920   1.449   3.400   3.356  0.3045 -0.7765  0.5503
23474SOL    HW273921   1.392   3.470   3.477 -0.8394  0.3866 -0.6150
23475SOL     OW73922   7.077   8.448   4.539  0.4192  0.7420  0.2581
23475SOL    HW173923   7.076   8.466   4.445 -1.2959  2.4283  0.5312
23475SOL    HW273924   7.123   8.365   4.547 -0.5497 -0.1216 -2.2014
23476SOL     OW73925   7.312   3.753   8.847  0.0664 -0.4425  0.1596
23476SOL    HW173926   7.252   3.711   8.786 -0.0802  0.9212 -0.6733
23476SOL    HW273927   7.398   3.716   8.825  0.1788  0.7314 -1.5895
23477SOL     OW73928   8.220   2.456   1.361 -0.1201 -0.1356 -0.6499
23477SOL    HW173929   8.156   2.458   1.432 -0.2815 -0.0378 -0.7982
23477SOL    HW273930   8.261   2.370   1.368 -1.4857 -0.9023 -1.6229
23478SOL     OW73931   1.974   7.853   4.928 -0.0255  0.4862 -0.2766
23478SOL    HW173932   1.929   7.780   4.971  0.6931  0.1285 -0.1079
23478SOL    HW273933   1.918   7.929   4.942 -0.5857  0.0420 -0.1050
23479SOL     OW73934   6.938   4.961   5.651 -0.4020 -0.3210 -0.0615
23479SOL    HW173935   7.033   4.966   5.657 -0.3064 -2.2109  0.3336
23479SOL    HW273936   6.918   4.868   5.649 -2.2580  0.0347 -0.1438
23480SOL     OW73937   5.732   4.494   4.714  0.3181  0.2575  0.2123
23480SOL    HW173938   5.789   4.571   4.705 -2.0617  2.0156 -1.4146
23480SOL    HW273939   5.753   4.440   4.637  0.5772  0.3377  0.2268
23481SOL     OW73940   5.115   8.283   8.645  0.3372 -0.0760  0.4278
23481SOL    HW173941   5.106   8.246   8.558 -0.6904 -1.1284  0.9660
23481SOL    HW273942   5.209   8.280   8.663  0.6932  1.1799 -1.0593
23482SOL     OW73943   0.912   9.662   4.572 -0.1532  0.0473 -0.3978
23482SOL    HW173944   0.821   9.685   4.591 -0.1950  0.0443 -0.5966
23482SOL    HW273945   0.956   9.668   4.657 -0.4628 -0.5478 -0.1908
23483SOL     OW73946  10.424   3.901   9.277  0.0880  0.1818 -1.1145
23483SOL    HW173947  10.469   3.941   9.351 -0.8453 -1.6168  0.5222
23483SOL    HW273948  10.377   3.973   9.236 -0.1761  1.0929  0.6700
23484SOL     OW73949   7.276   1.456   7.080 -0.7927 -0.1042  0.3616
23484SOL    HW173950   7.192   1.423   7.110 -1.7150  1.4690 -0.3266
23484SOL    HW273951   7.294   1.531   7.137  1.5524 -1.9718  2.3191
23485SOL     OW73952   5.208   1.822   8.005  0.5046 -0.3112 -0.0119
23485SOL    HW173953   5.114   1.821   8.024  0.4695  0.1928 -0.1443
23485SOL    HW273954   5.213   1.847   7.913  0.7934  0.5389  0.2206
23486SOL     OW73955   8.256   0.008  10.938 -0.4248  0.0073  0.0648
23486SOL    HW173956   8.167  -0.014  10.962  0.1440 -1.1426  1.2251
23486SOL    HW273957   8.290   0.058  11.012 -0.1676  0.6308 -0.4608
23487SOL     OW73958   9.535   7.187   0.955  0.2771  0.2854  0.0991
23487SOL    HW173959   9.551   7.111   1.010  1.4104  0.2793 -0.2157
23487SOL    HW273960   9.614   7.240   0.964  1.3868 -0.6523 -3.0312
23488SOL     OW73961   9.502   6.434   3.812 -0.3317 -0.3044  0.3388
23488SOL    HW173962   9.526   6.480   3.893 -1.6360  0.7686  0.1684
23488SOL    HW273963   9.414   6.468   3.791 -0.5557 -1.5263 -0.8278
23489SOL     OW73964   5.307   0.974   8.139 -0.3367  0.5433  0.0834
23489SOL    HW173965   5.333   1.054   8.185 -0.5286  0.0722  1.0464
23489SOL    HW273966   5.367   0.907   8.172 -0.1875  0.2851 -0.7057
23490SOL     OW73967   8.738   9.415   3.018  0.6080  0.2828  0.0331
23490SOL    HW173968   8.813   9.473   3.027  1.4601 -0.7313 -0.3288
23490SOL    HW273969   8.684   9.456   2.951  0.6626  1.1894  0.5212
23491SOL     OW73970   1.281   9.930   5.048 -0.4018  0.1753  0.2036
23491SOL    HW173971   1.189   9.928   5.020 -0.5867  1.9335  0.6022
23491SOL    HW273972   1.330   9.910   4.968 -1.1106 -0.8935  0.0090
23492SOL     OW73973   0.992   9.819   5.176 -0.0201  0.4443 -0.2439
23492SOL    HW173974   0.912   9.856   5.214  0.8928  1.9074  0.3245
23492SOL    HW273975   1.014   9.878   5.105  1.0339  0.5692  0.1694
23493SOL     OW73976  10.492   8.057   4.294  0.3940 -0.5614 -0.5353
23493SOL    HW173977  10.417   8.108   4.323  0.3967  0.2302 -1.8459
23493SOL    HW273978  10.497   7.985   4.357  0.2008  0.8438  1.1850
23494SOL     OW73979   0.632   4.162   1.811 -0.3396 -0.0483 -0.1093
23494SOL    HW173980   0.551   4.176   1.860 -0.1522  0.7436 -0.0111
23494SOL    HW273981   0.625   4.072   1.779  0.1318 -1.0945  2.4947
23495SOL     OW73982   0.717   2.971   7.437 -0.5443 -0.3056  0.6308
23495SOL    HW173983   0.760   3.031   7.498 -0.3057  1.0922 -0.8346
23495SOL    HW273984   0.644   3.021   7.401  0.7817 -0.1121 -2.0532
23496SOL     OW73985   5.039  10.358   7.786  0.3032 -0.5630  0.0150
23496SOL    HW173986   5.041  10.451   7.767  0.0578 -0.3807  0.8894
23496SOL    HW273987   4.949  10.331   7.768  0.8191 -1.0500 -2.1392
23497SOL     OW73988   5.292   7.291   4.452  0.3446  0.0218 -0.1475
23497SOL    HW173989   5.308   7.361   4.388  0.9320  0.6978  0.7176
23497SOL    HW273990   5.207   7.254   4.427  0.2947  0.6681 -0.9588
23498SOL     OW73991   6.657   7.187   2.865  0.7629 -0.0354 -0.4792
23498SOL    HW173992   6.566   7.202   2.839 -0.1483 -4.1523 -0.3573
23498SOL    HW273993   6.669   7.241   2.943 -1.3011  1.1853 -0.9348
23499SOL     OW73994   8.637   4.997   5.070 -0.0987  0.3559  0.4138
23499SOL    HW173995   8.725   5.031   5.057  0.0966  0.3207  1.5382
23499SOL    HW273996   8.583   5.075   5.085 -0.1967  0.3530  0.0878
23500SOL     OW73997   4.137   8.177   2.385  0.1697 -0.2070  0.1459
23500SOL    HW173998   4.080   8.162   2.460 -1.5611 -0.8052 -1.2068
23500SOL    HW273999   4.076   8.195   2.313  1.7031 -0.8455 -1.3626
23501SOL     OW74000   5.493   9.240   8.239  0.4589 -0.1192 -0.2510
23501SOL    HW174001   5.484   9.299   8.164  2.8287 -1.7683 -2.0406
23501SOL    HW274002   5.494   9.152   8.199  0.3451 -1.1583  1.9056
23502SOL     OW74003   3.786   6.148   3.860 -0.0131 -0.0291  0.0676
23502SOL    HW174004   3.829   6.191   3.786 -1.0178 -0.7915 -1.0052
23502SOL    HW274005   3.706   6.112   3.823  0.1794 -1.7311  1.1958
23503SOL     OW74006   3.282   9.794   0.435  0.0774  0.3693 -0.6371
23503SOL    HW174007   3.280   9.761   0.345  1.1360  1.7239 -1.1895
23503SOL    HW274008   3.281   9.889   0.426  0.7665  0.5373  0.7708
23504SOL     OW74009   4.153   4.740  10.591 -0.1967 -0.9602 -0.0618
23504SOL    HW174010   4.074   4.685  10.586 -0.6928 -0.5400  2.0688
23504SOL    HW274011   4.224   4.678  10.606 -0.6792 -1.1287  1.7901
23505SOL     OW74012   4.001   1.421   8.656 -0.9225  0.5772  0.6378
23505SOL    HW174013   4.073   1.485   8.659  0.2395 -0.7059  0.9198
23505SOL    HW274014   3.983   1.410   8.563 -0.5420  0.6635  0.5528
23506SOL     OW74015   5.672   2.062   2.561 -0.0943 -0.5013  0.2033
23506SOL    HW174016   5.651   2.155   2.549 -1.9871 -0.8887  0.1802
23506SOL    HW274017   5.661   2.047   2.655  2.4070 -0.2418  0.5832
23507SOL     OW74018   6.688   5.216   3.009 -0.8057  0.2399  0.2726
23507SOL    HW174019   6.646   5.171   2.936 -2.1881  0.2927  1.0024
23507SOL    HW274020   6.677   5.157   3.084  0.9019  0.0238  0.3957
23508SOL     OW74021   2.103   5.400   9.678  0.0503  0.1378 -0.0962
23508SOL    HW174022   2.096   5.319   9.728  3.3045 -0.5088 -0.4367
23508SOL    HW274023   2.104   5.469   9.745 -0.0962 -0.3317  0.4000
23509SOL     OW74024   8.763   7.509   3.805 -0.6869 -0.0690 -0.8403
23509SOL    HW174025   8.831   7.558   3.852 -0.8057  0.0812 -0.8231
23509SOL    HW274026   8.717   7.461   3.874 -0.1503 -0.7278 -0.9303
23510SOL     OW74027   1.150   2.841   9.188 -0.2894  0.1788  0.1938
23510SOL    HW174028   1.175   2.806   9.274 -0.1172 -1.4850 -0.5049
23510SOL    HW274029   1.056   2.821   9.181  0.0888 -1.4184 -0.7594
23511SOL     OW74030   5.802   7.096   0.216  0.2308  0.1535 -0.3237
23511SOL    HW174031   5.720   7.048   0.218 -0.0000  0.3383 -2.5198
23511SOL    HW274032   5.859   7.045   0.157  0.7072  1.4117 -1.0074
23512SOL     OW74033   9.837   5.907   5.943  0.1656 -0.3365 -0.9445
23512SOL    HW174034   9.758   5.854   5.940  0.5990 -1.0092 -0.8146
23512SOL    HW274035   9.908   5.844   5.931  0.8187 -0.1256  1.2801
23513SOL     OW74036   8.050   7.537   7.462  0.9111  0.0443 -0.1826
23513SOL    HW174037   7.993   7.466   7.435 -0.8969  0.1648  2.8227
23513SOL    HW274038   8.008   7.616   7.429 -0.1175  0.0435  1.0440
23514SOL     OW74039   7.548   9.430   8.717  0.1352 -0.4162 -0.0715
23514SOL    HW174040   7.538   9.336   8.705  2.9055 -0.8688  0.5897
23514SOL    HW274041   7.503   9.469   8.641 -1.3519 -2.1939 -0.1768
23515SOL     OW74042   4.069   0.517   5.229  0.4433  0.4906  0.0148
23515SOL    HW174043   4.007   0.558   5.289  0.9763 -1.4632  2.0802
23515SOL    HW274044   4.014   0.467   5.169 -0.1110 -1.2251  1.8210
23516SOL     OW74045   0.949  10.434   2.603 -0.5192  0.3336 -0.3038
23516SOL    HW174046   0.897  10.491   2.547 -0.5073  0.6665  0.0193
23516SOL    HW274047   0.942  10.347   2.563 -1.6749  0.2762 -0.0299
23517SOL     OW74048   4.943   4.872   9.140  0.1291  0.1878  0.3762
23517SOL    HW174049   4.993   4.793   9.123 -0.6656 -0.0496 -0.9962
23517SOL    HW274050   4.978   4.937   9.079  1.4715  1.2476  2.1809
23518SOL     OW74051   0.131   1.309   5.029  0.0070 -0.2334  0.2847
23518SOL    HW174052   0.121   1.253   4.952 -1.4940 -0.2103  0.4408
23518SOL    HW274053   0.093   1.393   5.002  0.2382  0.0355  0.7783
23519SOL     OW74054   9.119   8.833   0.314 -0.6752  0.5395 -0.4248
23519SOL    HW174055   9.168   8.815   0.234  0.8722  1.5936  0.2491
23519SOL    HW274056   9.070   8.913   0.294 -0.3279  0.7756 -0.3271
23520SOL     OW74057   1.314   1.206   8.474 -0.1070  0.1074 -0.3795
23520SOL    HW174058   1.339   1.259   8.398 -3.5038  1.5757 -0.6841
23520SOL    HW274059   1.220   1.222   8.483 -0.1593 -1.4095  3.1010
23521SOL     OW74060   1.914   7.237   3.839 -0.3022 -0.2184 -0.1718
23521SOL    HW174061   1.893   7.282   3.757 -0.5496 -0.6165 -0.3328
23521SOL    HW274062   1.920   7.306   3.904  1.4236  0.2780 -0.8029
23522SOL     OW74063   2.439   0.541   6.941 -0.2695  0.4914 -0.1851
23522SOL    HW174064   2.509   0.519   7.002  0.4262  2.5945 -0.1301
23522SOL    HW274065   2.458   0.490   6.863 -0.7668 -1.6941  1.0271
23523SOL     OW74066   8.003  10.282   9.434 -0.4117 -0.1162 -0.3174
23523SOL    HW174067   7.946  10.269   9.510 -1.0801  0.8759 -0.6158
23523SOL    HW274068   7.943  10.276   9.359  0.0810 -0.2174 -0.7010
23524SOL     OW74069   2.516   8.950   1.647 -0.3214  0.0552  0.7076
23524SOL    HW174070   2.431   8.981   1.678 -0.8560 -0.9824  0.3215
23524SOL    HW274071   2.497   8.867   1.604  1.1757 -1.2036  2.3578
23525SOL     OW74072   5.570   1.138   7.206 -0.6954  0.0349  0.3439
23525SOL    HW174073   5.482   1.102   7.215 -0.3611 -0.7777  0.4431
23525SOL    HW274074   5.557   1.232   7.196 -1.6105 -0.1461 -0.2598
23526SOL     OW74075   8.005   4.708   8.662 -0.3697 -0.3588 -0.7672
23526SOL    HW174076   8.007   4.722   8.757 -1.6054  1.8777 -1.0004
23526SOL    HW274077   7.918   4.670   8.645  0.2334 -1.7139 -0.9293
23527SOL     OW74078   5.902   5.277   4.615 -0.3423 -0.0093  0.9400
23527SOL    HW174079   5.852   5.278   4.533  0.6589  0.4227  0.3132
23527SOL    HW274080   5.935   5.366   4.624  0.9844 -0.4891  0.9155
23528SOL     OW74081   1.174   7.315   9.067  0.2665  0.3469 -0.0429
23528SOL    HW174082   1.236   7.354   9.130 -0.4180  0.4639  0.5758
23528SOL    HW274083   1.230   7.277   8.999  1.0276  0.2486  0.6176
23529SOL     OW74084   7.105  10.867   3.881 -0.0747  0.1806  0.0043
23529SOL    HW174085   7.113  10.793   3.942  1.1676 -2.0248 -2.6307
23529SOL    HW274086   7.195  10.895   3.865 -0.2729 -0.0239 -1.6061
23530SOL     OW74087   5.762   5.386   6.293  0.1739  0.5850  0.6787
23530SOL    HW174088   5.853   5.410   6.277  0.4813 -1.7833 -1.9842
23530SOL    HW274089   5.757   5.293   6.270 -2.9682  0.6462  0.5825
23531SOL     OW74090   4.438   6.578   2.133 -0.1766 -0.4837  0.1805
23531SOL    HW174091   4.372   6.508   2.135 -1.1237  0.3476 -0.5454
23531SOL    HW274092   4.435   6.616   2.220 -0.9398 -0.2194  0.0467
23532SOL     OW74093  10.376   6.080   5.995  0.5060  0.4242 -0.1301
23532SOL    HW174094  10.446   6.020   6.020  0.0995 -0.3051 -0.7156
23532SOL    HW274095  10.301   6.054   6.049  0.1223 -0.0682 -0.8859
23533SOL     OW74096   0.370   1.043   4.413 -0.4125  0.5669  0.3452
23533SOL    HW174097   0.328   1.101   4.350  1.2069  2.6542  1.1109
23533SOL    HW274098   0.408   0.973   4.360 -0.7787  1.1921 -0.7677
23534SOL     OW74099   0.110   2.166   4.518 -0.4530  0.2763 -0.3792
23534SOL    HW174100   0.072   2.252   4.502 -0.0575  0.7691  1.1039
23534SOL    HW274101   0.161   2.178   4.599  0.9437 -0.9319 -1.0346
23535SOL     OW74102   8.772   9.622   2.510  0.5689  0.0216  0.4038
23535SOL    HW174103   8.825   9.598   2.586 -0.8922 -0.8355  1.1964
23535SOL    HW274104   8.692   9.660   2.547 -0.2967 -0.6805 -0.6805
23536SOL     OW74105   4.160  10.510   0.487  0.1230 -0.0118  0.0755
23536SOL    HW174106   4.246  10.496   0.448  0.4270  1.1905  0.2779
23536SOL    HW274107   4.174  10.503   0.581 -0.1162 -0.3894  0.0850
23537SOL     OW74108   0.563   1.338   1.988 -0.1738 -0.2572  0.0619
23537SOL    HW174109   0.602   1.298   2.066 -0.0528 -0.4379 -0.0930
23537SOL    HW274110   0.607   1.296   1.914 -1.7671 -1.6360 -0.1681
23538SOL     OW74111   2.556   4.229  10.102  0.0025  0.1682  0.1686
23538SOL    HW174112   2.647   4.241  10.072 -0.1909  3.6982  0.5200
23538SOL    HW274113   2.555   4.269  10.190 -2.0470  1.0902 -0.2225
23539SOL     OW74114   6.872   3.920   0.594 -0.3468 -0.3573  0.2539
23539SOL    HW174115   6.804   3.987   0.585 -0.5498 -0.5017  0.6743
23539SOL    HW274116   6.854   3.880   0.679 -0.0681 -0.7693  0.1181
23540SOL     OW74117  10.445   8.550   9.523 -0.1920 -0.1943 -0.0141
23540SOL    HW174118  10.493   8.613   9.577  2.2558 -3.2077  1.6529
23540SOL    HW274119  10.355   8.553   9.557 -0.3628  2.7521 -0.4722
23541SOL     OW74120   6.950   0.073   3.923  0.0628  0.0085 -0.6602
23541SOL    HW174121   6.998  -0.004   3.892 -1.4025 -0.5686 -1.6445
23541SOL    HW274122   6.953   0.067   4.018  2.0863  0.1207 -0.6887
23542SOL     OW74123   6.215   8.292   1.621  0.2240  0.2298  0.1148
23542SOL    HW174124   6.157   8.246   1.561  0.9426  1.2337 -1.4217
23542SOL    HW274125   6.158   8.356   1.665  0.2536  1.9356 -2.1451
23543SOL     OW74126   7.347  10.390   6.857 -0.5765  0.1272  0.4185
23543SOL    HW174127   7.369  10.471   6.810  0.6529  0.8016  2.0460
23543SOL    HW274128   7.413  10.327   6.830  0.5387  0.7137  1.6683
23544SOL     OW74129   2.636   2.850   0.450  0.3286 -0.1367 -0.6912
23544SOL    HW174130   2.552   2.889   0.426 -0.0883 -1.2924 -1.1750
23544SOL    HW274131   2.634   2.847   0.546  0.3033  0.8410 -0.6482
23545SOL     OW74132  10.502  10.292  10.678 -0.1799 -0.2342 -0.1166
23545SOL    HW174133  10.429  10.282  10.739 -0.0042  0.9426  0.3074
23545SOL    HW274134  10.551  10.211  10.685 -1.8384 -1.3776 -0.9482
23546SOL     OW74135  10.818  10.358   2.104  0.0278 -0.1120  0.4309
23546SOL    HW174136  10.782  10.346   2.192  0.6307 -0.2868  0.6547
23546SOL    HW274137  10.845  10.270   2.077 -0.6840 -0.1602 -0.1684
23547SOL     OW74138   7.701   5.004   4.467 -0.2478  0.2931 -0.2601
23547SOL    HW174139   7.732   5.078   4.415  0.0555  0.3080 -0.0609
23547SOL    HW274140   7.614   4.986   4.433  0.2316 -0.1785 -1.2772
23548SOL     OW74141   8.418   2.234   0.318 -0.6743  0.1481 -0.6793
23548SOL    HW174142   8.325   2.244   0.336 -0.3447 -0.0138  1.4034
23548SOL    HW274143   8.460   2.243   0.404  1.3298  1.3405 -1.7136
23549SOL     OW74144   4.538   8.019   6.760  0.4152 -0.1775 -0.1616
23549SOL    HW174145   4.470   7.979   6.706 -0.6354  0.7673  0.4057
23549SOL    HW274146   4.497   8.098   6.796  0.9329 -0.9201  2.2808
23550SOL     OW74147   8.210   2.003   5.971 -0.0206 -0.0878  0.4935
23550SOL    HW174148   8.164   1.921   5.953 -0.1431  0.2439 -0.7813
23550SOL    HW274149   8.167   2.038   6.048 -1.9719  0.2341 -0.6677
23551SOL     OW74150   7.950   3.667   7.808  0.0009  0.2933  0.4395
23551SOL    HW174151   7.993   3.750   7.792  2.5202 -1.0612 -0.3252
23551SOL    HW274152   7.953   3.621   7.724 -1.2443 -0.6417  0.8675
23552SOL     OW74153  10.719   4.265   6.003 -0.1509  0.3413 -0.2311
23552SOL    HW174154  10.785   4.195   6.006  0.6583  1.1189  1.4542
23552SOL    HW274155  10.648   4.228   5.950 -0.0611 -2.0694  1.1448
23553SOL     OW74156   4.582   5.844   4.778  0.0463 -0.2516 -0.9677
23553SOL    HW174157   4.572   5.934   4.807  1.1292  0.6357 -3.1158
23553SOL    HW274158   4.497   5.803   4.796 -0.2491  0.9790  0.6312
23554SOL     OW74159   1.871   6.948   2.305 -0.2842  0.1482 -0.0114
23554SOL    HW174160   1.776   6.948   2.317 -0.4135 -1.1178 -0.8393
23554SOL    HW274161   1.902   6.879   2.364 -0.2350 -1.5267 -1.8858
23555SOL     OW74162   9.081   3.739   9.673 -0.6189 -0.0419  0.2236
23555SOL    HW174163   9.124   3.656   9.655 -0.1274  0.3028 -0.2097
23555SOL    HW274164   9.001   3.715   9.721 -1.4178 -0.9098 -1.4550
23556SOL     OW74165   2.407   4.677   9.519  0.2737 -0.2667 -0.0818
23556SOL    HW174166   2.451   4.729   9.586 -0.6691 -0.7351  0.9308
23556SOL    HW274167   2.478   4.631   9.474  0.9406  0.1814  0.4854
23557SOL     OW74168   7.504   1.445   5.052 -0.4677 -0.0905 -0.7043
23557SOL    HW174169   7.473   1.469   5.139 -0.0079  1.1062 -0.8492
23557SOL    HW274170   7.439   1.383   5.019  0.5157 -2.4394  1.3793
23558SOL     OW74171   0.614  10.185   0.240 -0.5371  0.1858 -0.1267
23558SOL    HW174172   0.680  10.212   0.303  0.3262  0.3102 -1.0585
23558SOL    HW274173   0.532  10.222   0.273 -0.2012 -0.2107  1.1890
23559SOL     OW74174   1.119  10.319   2.785 -0.1325  0.0830 -0.1705
23559SOL    HW174175   1.070  10.245   2.822 -2.5840  2.6146  2.0665
23559SOL    HW274176   1.058  10.361   2.724  1.9479 -0.7643 -3.0511
23560SOL     OW74177   1.292   7.108  10.654  0.2051 -0.1767  0.0613
23560SOL    HW174178   1.247   7.139  10.733  0.2540 -0.0693  0.0478
23560SOL    HW274179   1.327   7.023  10.678 -1.1871 -0.8923 -0.3474
23561SOL     OW74180  10.328   0.198   9.005  0.6658 -0.8757  0.2404
23561SOL    HW174181  10.317   0.246   9.087  0.4532 -1.0801  0.3329
23561SOL    HW274182  10.422   0.201   8.988  0.6360 -0.2797  0.1562
23562SOL     OW74183   9.537   4.373   8.776 -0.5230 -0.5656 -0.4643
23562SOL    HW174184   9.566   4.330   8.696 -1.4047 -1.7824 -0.1626
23562SOL    HW274185   9.443   4.358   8.779 -0.3245 -1.8676  1.5256
23563SOL     OW74186   9.298   1.798   0.404 -0.0873  0.3425  0.9269
23563SOL    HW174187   9.373   1.800   0.344 -0.3876 -1.1974  0.4640
23563SOL    HW274188   9.332   1.837   0.484  0.0803  3.2971 -0.4359
23564SOL     OW74189   0.697   2.692  10.838  0.6571 -0.2288 -0.0963
23564SOL    HW174190   0.753   2.704  10.914  2.0230 -0.6335 -1.0062
23564SOL    HW274191   0.746   2.634  10.781  0.2686  1.0989 -1.8741
23565SOL     OW74192  10.600   0.263   3.090 -0.1674 -0.2601  0.4281
23565SOL    HW174193  10.664   0.311   3.142 -0.2811 -0.1498  0.4665
23565SOL    HW274194  10.628   0.172   3.096  0.9337 -0.0362 -0.9008
23566SOL     OW74195   3.250   0.603   8.028 -0.0201  0.4700 -0.4704
23566SOL    HW174196   3.199   0.552   7.965  2.5979 -2.7021 -0.3168
23566SOL    HW274197   3.340   0.596   7.997  0.9886  1.3696  2.0063
23567SOL     OW74198   9.546   1.073   2.990  0.3538  0.3375  0.0054
23567SOL    HW174199   9.602   1.123   2.930 -0.6763  1.8186  0.2195
23567SOL    HW274200   9.606   1.013   3.034  1.2213 -0.4718 -2.1399
23568SOL     OW74201   3.353   9.727   6.233  0.5192 -0.1186 -0.0199
23568SOL    HW174202   3.318   9.795   6.175 -1.5031 -1.3564 -0.3340
23568SOL    HW274203   3.334   9.759   6.322 -0.3166 -0.2019 -0.1634
23569SOL     OW74204   6.015   7.873   1.123  0.4891 -0.1736  0.1026
23569SOL    HW174205   6.062   7.947   1.084  3.3817 -3.0195 -2.4409
23569SOL    HW274206   5.938   7.862   1.067 -0.6335  1.4525  1.2108
23570SOL     OW74207   2.882   9.870   6.608 -0.2479 -0.0194 -0.4201
23570SOL    HW174208   2.851   9.794   6.558  0.0397  0.0263 -0.6668
23570SOL    HW274209   2.854   9.946   6.557 -0.4673  0.0394 -0.2127
23571SOL     OW74210   5.373  10.599   1.287  0.2803 -0.7697  0.4335
23571SOL    HW174211   5.315  10.641   1.351  0.2078 -0.6097  0.2641
23571SOL    HW274212   5.426  10.671   1.252  0.8004 -0.9607  0.8125
23572SOL     OW74213   3.946   4.156   4.436 -0.4017 -0.1379  0.2840
23572SOL    HW174214   3.908   4.124   4.354 -1.0471 -0.1756  0.5923
23572SOL    HW274215   4.036   4.180   4.413 -1.7986  4.3019 -1.6067
23573SOL     OW74216   1.664   2.814   9.992 -0.0705  0.3293  0.0549
23573SOL    HW174217   1.629   2.902   9.974 -1.0667 -0.5933 -3.2049
23573SOL    HW274218   1.590   2.766  10.027  0.4994  0.7451  1.9263
23574SOL     OW74219   1.698   9.367   6.650 -0.5424  0.8480  0.6555
23574SOL    HW174220   1.749   9.292   6.618 -0.8004  0.8228  0.2960
23574SOL    HW274221   1.616   9.329   6.682 -0.6108  0.9609  0.6160
23575SOL     OW74222   4.809   5.059  10.083  0.2625  0.9906  0.5354
23575SOL    HW174223   4.887   5.013  10.112  0.0581  0.8252  0.8360
23575SOL    HW274224   4.830   5.090   9.995  0.6735  0.9699  0.6226
23576SOL     OW74225   1.264   6.423   8.206 -0.7165  0.0787  0.3740
23576SOL    HW174226   1.349   6.439   8.247 -1.1131  1.0827  0.8364
23576SOL    HW274227   1.285   6.407   8.114  0.0648 -0.8928  0.6981
23577SOL     OW74228   0.804   8.042   5.164 -0.6797 -0.0161 -0.0016
23577SOL    HW174229   0.842   8.118   5.208 -1.3077  0.0672  0.4055
23577SOL    HW274230   0.713   8.066   5.148 -0.6767 -0.3754 -0.6023
23578SOL     OW74231   7.967  10.582   3.058 -0.1354  0.6933  0.1196
23578SOL    HW174232   8.035  10.566   3.124  2.1893  0.0833 -2.2298
23578SOL    HW274233   7.929  10.667   3.083  0.2740  0.2549  2.4682
23579SOL     OW74234   4.210   0.194   7.782  0.1572 -0.0658 -0.7376
23579SOL    HW174235   4.178   0.283   7.800  0.1544  0.3388 -2.5059
23579SOL    HW274236   4.189   0.144   7.860  1.4172  1.8078  0.8939
23580SOL     OW74237   5.474   3.443   8.414  0.0500 -0.0767  0.6424
23580SOL    HW174238   5.533   3.380   8.373  1.1021  0.8690  0.6764
23580SOL    HW274239   5.481   3.424   8.508 -0.0059 -0.2158  0.6193
23581SOL     OW74240   3.876  10.399   3.955 -0.1305 -0.3000 -0.5553
23581SOL    HW174241   3.873  10.351   3.872  0.3097 -1.6284  0.1771
23581SOL    HW274242   3.874  10.491   3.929 -3.8016 -0.6087 -1.9227
23582SOL     OW74243   7.048   2.180   7.302 -0.3529  0.3290  0.4698
23582SOL    HW174244   6.980   2.243   7.278 -0.8726  0.3036  1.8233
23582SOL    HW274245   7.116   2.233   7.343  0.0291  0.2243 -0.0110
23583SOL     OW74246   7.216   2.838   6.911 -0.0243  0.3052 -0.1772
23583SOL    HW174247   7.245   2.764   6.857  1.7713  0.5850  0.3342
23583SOL    HW274248   7.138   2.806   6.955  0.0592 -0.8916 -0.8485
23584SOL     OW74249  10.514   1.188   6.733 -0.1770 -0.1305  0.1821
23584SOL    HW174250  10.608   1.189   6.749  0.1643  2.2679 -1.4214
23584SOL    HW274251  10.480   1.261   6.784 -0.8101  0.3799 -0.9302
23585SOL     OW74252   2.224   4.107   0.325 -0.2129 -0.2534  0.5706
23585SOL    HW174253   2.183   4.111   0.411 -0.3694  0.7195  0.4649
23585SOL    HW274254   2.253   4.197   0.308  1.1448 -0.7293  0.2485
23586SOL     OW74255   8.912   2.661   8.044  0.8050 -0.2104 -0.0339
23586SOL    HW174256   8.904   2.569   8.070 -0.4505 -0.0529  0.2372
23586SOL    HW274257   8.822   2.694   8.049  1.4789  1.5579  1.8702
23587SOL     OW74258   4.800  10.820   8.299  0.1081  0.1365  0.0266
23587SOL    HW174259   4.712  10.795   8.274  0.7020 -0.7263 -1.3080
23587SOL    HW274260   4.794  10.913   8.319 -1.3304 -0.1612  1.1781
23588SOL     OW74261   9.124  10.479   5.185  0.0925 -0.0413  0.2234
23588SOL    HW174262   9.043  10.464   5.136 -0.0623 -0.1917  0.5225
23588SOL    HW274263   9.186  10.416   5.149  1.1784  2.3675 -2.4720
23589SOL     OW74264   2.860   2.148   6.060 -0.8665  0.3356 -0.6445
23589SOL    HW174265   2.794   2.210   6.030  0.3323  1.0406 -1.9629
23589SOL    HW274266   2.942   2.198   6.057 -0.3871 -0.1325  2.1107
23590SOL     OW74267   8.616   3.597   2.835 -0.1829  0.4692  0.2552
23590SOL    HW174268   8.591   3.689   2.849 -0.1571  0.6387 -0.7787
23590SOL    HW274269   8.704   3.591   2.871 -0.6924  0.4960  1.5850
23591SOL     OW74270   5.510   6.484   1.538  0.6338  0.1243  0.2515
23591SOL    HW174271   5.573   6.461   1.607 -0.3519 -0.3598  1.0117
23591SOL    HW274272   5.543   6.566   1.502  0.5985  0.9853  2.0560
23592SOL     OW74273   3.062   0.877   8.650 -0.0504 -0.0643 -0.0653
23592SOL    HW174274   2.976   0.884   8.609  0.3213  0.3920 -0.7923
23592SOL    HW274275   3.123   0.910   8.584  0.6785 -0.3306  0.4587
23593SOL     OW74276  10.681  10.824  10.306 -0.1453  0.0848 -0.6519
23593SOL    HW174277  10.773  10.832  10.279  0.0033 -2.2702 -1.0286
23593SOL    HW274278  10.670  10.892  10.373  2.5547 -1.0382  1.1324
23594SOL     OW74279   3.547   5.109  10.621  0.2934  0.7476  0.2675
23594SOL    HW174280   3.460   5.079  10.593  0.7658 -0.5800  0.1595
23594SOL    HW274281   3.556   5.196  10.582 -0.5807  0.4866 -0.5526
23595SOL     OW74282   5.062  10.373   8.641  0.8472  0.0988  0.5973
23595SOL    HW174283   4.986  10.392   8.696  1.9913  0.4459  2.1023
23595SOL    HW274284   5.131  10.429   8.675  1.9283 -0.5575 -0.4439
23596SOL     OW74285   3.572   8.216   9.786 -0.0472 -0.0957 -0.8009
23596SOL    HW174286   3.615   8.153   9.728  0.9691  0.2814 -0.4800
23596SOL    HW274287   3.643   8.270   9.820 -0.6035 -0.4178  0.9429
23597SOL     OW74288   2.177   7.672   2.570 -0.5376  0.0133  0.4027
23597SOL    HW174289   2.216   7.585   2.574 -0.8986 -0.1574  0.2233
23597SOL    HW274290   2.105   7.664   2.508  0.3159  0.7854 -0.7283
23598SOL     OW74291   3.793   5.862   7.838  0.0083  0.4500 -0.2708
23598SOL    HW174292   3.796   5.790   7.902 -0.9557  0.1651 -0.5405
23598SOL    HW274293   3.859   5.924   7.869 -0.1828  0.1397  0.7935
23599SOL     OW74294   4.092   4.681   7.653 -0.3946 -0.0894 -0.0961
23599SOL    HW174295   4.019   4.675   7.591 -0.1275 -0.7944 -0.3513
23599SOL    HW274296   4.108   4.591   7.681 -0.0465  0.1364  0.4624
23600SOL     OW74297   3.292   7.016   5.071 -0.1416  0.4821  0.5148
23600SOL    HW174298   3.236   7.071   5.125  0.9293  1.7961  0.3491
23600SOL    HW274299   3.371   7.069   5.058  1.1361 -1.2933  0.7342
23601SOL     OW74300  10.295   8.848   1.277  0.2999 -0.0656 -0.3505
23601SOL    HW174301  10.377   8.801   1.293  0.8858  1.4271  1.3956
23601SOL    HW274302  10.284   8.903   1.354 -1.4281  1.1148 -1.3762
23602SOL     OW74303   6.312   3.264   7.585 -0.2160 -0.0011 -0.2651
23602SOL    HW174304   6.337   3.270   7.492 -0.1925  1.4303 -0.1950
23602SOL    HW274305   6.308   3.355   7.614  0.9506 -0.4469  1.4599
23603SOL     OW74306   5.467   9.105   5.154  0.4463 -0.3482  0.2123
23603SOL    HW174307   5.560   9.128   5.155  0.7561 -1.5232  1.0399
23603SOL    HW274308   5.423   9.184   5.184  1.2800 -0.1346  0.9307
23604SOL     OW74309   0.847   9.867  10.089 -0.1641 -0.0854 -0.4351
23604SOL    HW174310   0.828   9.825  10.172 -1.0773 -1.2918 -1.2328
23604SOL    HW274311   0.900   9.804  10.041 -0.7930  0.0265 -1.3012
23605SOL     OW74312   0.512   9.940   0.291 -0.4027  0.0447 -0.5113
23605SOL    HW174313   0.483   9.987   0.212 -0.0089  0.0562 -0.6520
23605SOL    HW274314   0.563  10.005   0.339  0.0302 -0.1968 -0.6400
23606SOL     OW74315   4.116   8.699   3.907 -0.0717  0.4279 -0.1476
23606SOL    HW174316   4.211   8.696   3.891 -0.1216  0.8451 -0.5397
23606SOL    HW274317   4.080   8.635   3.846  0.2032 -2.0309  2.1020
23607SOL     OW74318   8.005   9.052   9.187  0.2670 -0.1321  0.3779
23607SOL    HW174319   7.950   8.978   9.159  0.8334 -0.6460  0.6025
23607SOL    HW274320   7.961   9.086   9.265 -0.5254  0.3910 -0.2822
23608SOL     OW74321   0.812   0.827   5.289 -0.1386  0.3680 -0.2413
23608SOL    HW174322   0.758   0.748   5.295  0.4604 -0.1607 -1.4674
23608SOL    HW274323   0.750   0.897   5.270 -0.6579  0.1829  0.7128
23609SOL     OW74324   5.547   7.596   2.103 -0.3210 -0.3564  0.3282
23609SOL    HW174325   5.504   7.511   2.092  0.3772 -0.6516 -0.1559
23609SOL    HW274326   5.637   7.582   2.075 -0.4521  0.7990 -0.8029
23610SOL     OW74327   9.318   2.204   1.353  0.1211  0.0187  0.3052
23610SOL    HW174328   9.400   2.231   1.394  0.3010 -0.5430  0.3211
23610SOL    HW274329   9.265   2.284   1.352  1.3264  0.8807 -1.3393
23611SOL     OW74330  10.937   3.639   5.600  0.0220 -0.0561 -0.1122
23611SOL    HW174331  10.990   3.705   5.555  0.8998 -0.4253  0.3428
23611SOL    HW274332  11.000   3.570   5.623 -0.3875  0.1176  1.6629
23612SOL     OW74333   5.788   8.736   4.710 -0.2067 -0.4423  0.2566
23612SOL    HW174334   5.826   8.705   4.627 -0.8759 -1.1300  0.1977
23612SOL    HW274335   5.772   8.830   4.695  0.4879 -0.3736 -0.0833
23613SOL     OW74336   1.899   0.695   3.544 -0.2205  0.4043 -0.3192
23613SOL    HW174337   1.934   0.644   3.471 -0.7958  0.7459 -0.8366
23613SOL    HW274338   1.940   0.781   3.535  1.9136 -0.3406  1.4060
23614SOL     OW74339   2.420   0.880   9.054  0.4343 -0.0201  0.2286
23614SOL    HW174340   2.480   0.815   9.018 -0.0950  0.5731 -1.8288
23614SOL    HW274341   2.470   0.921   9.125  1.6873 -0.9314 -0.0919
23615SOL     OW74342   0.417   5.045   1.413 -0.0480 -0.5609  0.0089
23615SOL    HW174343   0.451   5.129   1.383  3.8530 -1.6316  0.8985
23615SOL    HW274344   0.378   5.064   1.498  2.3988  0.1993  1.0452
23616SOL     OW74345   0.108   6.197   4.316 -0.2346  0.4799  0.0327
23616SOL    HW174346   0.087   6.290   4.328  0.2981  0.6524 -0.3433
23616SOL    HW274347   0.126   6.188   4.222  1.9072  0.4619  0.3998
23617SOL     OW74348   5.775   7.590   5.109  0.3362  0.2409 -0.0780
23617SOL    HW174349   5.680   7.579   5.105 -0.0128  1.6282  2.3264
23617SOL    HW274350   5.787   7.685   5.121  2.1326  0.2826 -1.7114
23618SOL     OW74351   4.455   3.925  10.658 -0.3874  0.2965  0.1789
23618SOL    HW174352   4.373   3.927  10.708 -1.1756 -1.0941 -0.9610
23618SOL    HW274353   4.428   3.899  10.570  1.2681 -0.0669 -0.2541
23619SOL     OW74354   0.896   7.957   7.436 -0.3194  0.1144  0.3040
23619SOL    HW174355   0.990   7.974   7.425  0.1218 -1.0542  1.8119
23619SOL    HW274356   0.875   7.997   7.520 -1.1687  0.3406 -0.0167
23620SOL     OW74357   2.809   0.087   0.450  0.2191  0.2788  0.3188
23620SOL    HW174358   2.768   0.037   0.521  1.1758 -1.6639 -0.3969
23620SOL    HW274359   2.880   0.030   0.419  1.0452  1.8954 -0.9357
23621SOL     OW74360   8.438   9.928   8.776  0.5306 -0.4672  0.3043
23621SOL    HW174361   8.427   9.910   8.683 -0.9696 -0.1184  0.3851
23621SOL    HW274362   8.416  10.021   8.785  0.7174 -0.4846  0.9957
23622SOL     OW74363   5.123   4.191   1.576 -0.0783  0.7008  0.2928
23622SOL    HW174364   5.086   4.243   1.505  3.0782  1.1928 -1.1827
23622SOL    HW274365   5.171   4.121   1.533 -0.3813 -0.6812  2.0839
23623SOL     OW74366   3.068   5.510   9.387  0.2453  0.6250  0.5268
23623SOL    HW174367   3.036   5.591   9.426 -0.3724  0.2245  0.8724
23623SOL    HW274368   3.101   5.459   9.461  0.0934  0.3214  0.3839
23624SOL     OW74369   1.366   9.905   7.591  0.0740  0.0095 -0.7709
23624SOL    HW174370   1.337   9.935   7.678  0.5431  1.8917 -1.2068
23624SOL    HW274371   1.431   9.970   7.565  0.3868 -0.8753 -2.2913
23625SOL     OW74372   9.429   8.586   1.361 -0.1909 -0.1964 -0.1964
23625SOL    HW174373   9.394   8.673   1.340 -1.0973 -0.5835 -0.3478
23625SOL    HW274374   9.432   8.540   1.278  1.7839  0.1834 -0.3741
23626SOL     OW74375   5.380   1.213   0.525  0.3572 -0.7292  0.1820
23626SOL    HW174376   5.321   1.161   0.472  0.7248 -1.6469  0.6564
23626SOL    HW274377   5.386   1.166   0.609 -0.1876  0.6628  1.0346
23627SOL     OW74378  10.506  10.228   4.201  0.1172  0.3860 -0.0716
23627SOL    HW174379  10.570  10.293   4.172 -1.2053  1.5718 -0.4800
23627SOL    HW274380  10.479  10.184   4.120 -0.5019  0.7732 -0.0797
23628SOL     OW74381   0.112   2.723   1.325 -0.3929  0.0906  0.1258
23628SOL    HW174382   0.063   2.804   1.310  1.1581  1.0818  0.1896
23628SOL    HW274383   0.059   2.655   1.284 -0.0852  1.6118 -3.0384
23629SOL     OW74384   0.661   7.909   6.968 -0.2724  0.1694  0.4143
23629SOL    HW174385   0.635   7.915   6.876  0.8858 -0.2729  0.0388
23629SOL    HW274386   0.720   7.983   6.982  0.4909 -0.4351  0.4633
23630SOL     OW74387   8.148   2.372  10.481  0.1423  0.3224  0.3379
23630SOL    HW174388   8.181   2.375  10.392  0.5642  0.4261  0.4981
23630SOL    HW274389   8.105   2.286  10.487 -0.0980  0.4131 -0.0328
23631SOL     OW74390   9.349   6.437   1.576 -0.5657  0.2864  0.4342
23631SOL    HW174391   9.317   6.431   1.665  0.7201  2.1302  1.0884
23631SOL    HW274392   9.444   6.429   1.584 -0.3071  1.7886 -0.5503
23632SOL     OW74393   4.450   1.709   8.838 -0.0369 -0.4099 -0.1219
23632SOL    HW174394   4.387   1.683   8.905  1.1965  0.2333  1.3486
23632SOL    HW274395   4.431   1.801   8.821 -1.1195 -0.8554 -1.6067
23633SOL     OW74396   6.799   7.445   2.950 -0.0119 -0.6445 -0.5751
23633SOL    HW174397   6.864   7.407   2.890 -1.1593 -2.8786 -0.5176
23633SOL    HW274398   6.746   7.502   2.894  0.7168 -0.4107 -1.0464
23634SOL     OW74399   4.262   7.808   9.595 -0.2286 -0.3442  0.1687
23634SOL    HW174400   4.294   7.813   9.505 -1.2579 -0.4046 -0.2161
23634SOL    HW274401   4.258   7.714   9.613  0.7386 -0.3126  0.5637
23635SOL     OW74402   3.413   8.582   3.893 -0.4246  0.2230 -0.1493
23635SOL    HW174403   3.487   8.636   3.920 -0.6088  0.2744  0.2641
23635SOL    HW274404   3.358   8.640   3.840 -0.9751  0.6567  0.8681
23636SOL     OW74405   7.895   5.896   2.164 -0.1517  0.3858 -0.4077
23636SOL    HW174406   7.863   5.817   2.122  0.1176  0.4276 -0.6891
23636SOL    HW274407   7.902   5.873   2.257 -0.5326  0.2301 -0.4152
23637SOL     OW74408   8.921   0.247   7.816  0.1324  0.0188  0.6924
23637SOL    HW174409   9.012   0.276   7.817  0.3085 -0.3847 -0.6018
23637SOL    HW274410   8.882   0.284   7.894  1.2022  0.8942  0.8268
23638SOL     OW74411   5.001   4.978   1.762 -0.2945 -0.0444  0.7161
23638SOL    HW174412   4.930   4.928   1.801 -0.5432 -1.1975 -1.1244
23638SOL    HW274413   5.081   4.932   1.790 -0.3131  0.5215  1.7535
23639SOL     OW74414   9.296   0.505   4.622  0.7125  0.1546  0.3893
23639SOL    HW174415   9.297   0.599   4.609 -2.3050  0.2987  0.5028
23639SOL    HW274416   9.275   0.469   4.535  1.5759 -0.4336  0.4042
23640SOL     OW74417   4.506   9.404   5.356 -0.3069  0.0650  0.1572
23640SOL    HW174418   4.418   9.385   5.324 -0.0249  0.1863 -0.7180
23640SOL    HW274419   4.543   9.318   5.376 -0.0197 -0.1421 -1.1436
23641SOL     OW74420   0.709   7.038   4.696  0.3797 -0.2148  0.0202
23641SOL    HW174421   0.618   7.029   4.667 -0.1990  0.0367  1.6942
23641SOL    HW274422   0.732   7.128   4.672  0.1236 -0.2053 -0.1997
23642SOL     OW74423   2.176   7.783   0.200  0.2270  0.7101  0.4367
23642SOL    HW174424   2.234   7.783   0.124 -0.0609 -0.9574  0.1901
23642SOL    HW274425   2.229   7.823   0.270  1.1727  0.5093 -0.1437
23643SOL     OW74426   4.103   9.529   6.723 -0.0401 -0.0181 -0.0979
23643SOL    HW174427   4.054   9.539   6.804  1.6951  0.8132  0.9214
23643SOL    HW274428   4.156   9.450   6.737 -1.6452 -1.4221 -1.5288
23644SOL     OW74429   9.490   2.920   8.382 -0.0383  0.1229 -0.0163
23644SOL    HW174430   9.444   2.889   8.304 -0.0839  0.1841 -0.0137
23644SOL    HW274431   9.520   3.008   8.359  1.8405 -0.6492 -0.7658
23645SOL     OW74432   8.642   3.726   0.966  0.4921 -0.2213 -0.1494
23645SOL    HW174433   8.565   3.669   0.965  0.8494 -0.7102 -0.6484
23645SOL    HW274434   8.641   3.766   1.053 -0.7614  0.3970 -0.4241
23646SOL     OW74435   0.414   2.644   6.521 -1.1314 -0.3823 -0.1104
23646SOL    HW174436   0.379   2.601   6.443 -2.7397 -2.3341  1.5695
23646SOL    HW274437   0.391   2.737   6.511 -0.4037 -0.3997 -2.3573
23647SOL     OW74438   5.480   3.186   9.968  0.6697 -0.0569  0.1150
23647SOL    HW174439   5.570   3.213   9.984  1.9100 -3.1887 -0.8316
23647SOL    HW274440   5.475   3.098  10.005 -0.9790 -1.2674 -2.6724
23648SOL     OW74441   5.338   9.896   9.754  0.6561  0.0382  0.6921
23648SOL    HW174442   5.390   9.820   9.729 -0.4233 -0.7263  0.7103
23648SOL    HW274443   5.257   9.859   9.790 -1.2810  1.1662 -2.1951
23649SOL     OW74444   0.627   7.328  10.386  0.2163 -0.0419  0.0956
23649SOL    HW174445   0.655   7.237  10.401 -2.6182 -1.3176 -1.4365
23649SOL    HW274446   0.664   7.377  10.459  0.9853 -2.6388  1.5888
23650SOL     OW74447   3.723   5.892   5.514 -0.4571 -0.1928 -0.2147
23650SOL    HW174448   3.744   5.930   5.429  1.7292  1.1750  0.8378
23650SOL    HW274449   3.655   5.949   5.550  0.7645  1.0732  0.1626
23651SOL     OW74450   1.916  10.381   0.058  0.6479 -0.2863  0.4860
23651SOL    HW174451   1.827  10.363   0.088  0.5769  0.0740  0.4967
23651SOL    HW274452   1.905  10.410  -0.033  1.0119 -3.2439 -0.6130
23652SOL     OW74453   6.984   0.586   4.995  0.0342 -0.2533 -0.1518
23652SOL    HW174454   7.061   0.563   4.944  0.3497 -0.6957  0.5095
23652SOL    HW274455   6.922   0.514   4.981  1.5149 -2.3095  2.9477
23653SOL     OW74456   8.386   5.654   1.319  0.4953  0.0342 -0.1980
23653SOL    HW174457   8.416   5.650   1.229 -0.3913 -0.2226 -0.4871
23653SOL    HW274458   8.412   5.741   1.350 -0.8850  0.8646 -1.3025
23654SOL     OW74459   4.219   4.965   5.950 -0.0244 -0.0785  0.0429
23654SOL    HW174460   4.298   4.922   5.984  0.1819  0.2300 -0.0464
23654SOL    HW274461   4.148   4.906   5.975  0.2346 -0.3679  0.1085
23655SOL     OW74462   9.878  10.786   9.622 -0.2343  0.2933 -0.0174
23655SOL    HW174463   9.866  10.703   9.669  0.7903 -1.2300 -2.2549
23655SOL    HW274464   9.879  10.761   9.529 -0.8423  2.9665 -0.8238
23656SOL     OW74465   8.363  10.116   3.752 -0.4011  0.4456 -0.4685
23656SOL    HW174466   8.287  10.151   3.799  1.1231  2.2648  0.7763
23656SOL    HW274467   8.415  10.073   3.819  0.2382  0.2135 -1.0990
23657SOL     OW74468   5.304   7.195   7.943 -1.0401  0.0971  0.7533
23657SOL    HW174469   5.264   7.146   8.015 -1.4193  0.7124  0.9734
23657SOL    HW274470   5.327   7.129   7.878 -0.0758 -0.5515  1.7127
23658SOL     OW74471   1.232   6.277   9.734 -0.3347 -0.0288 -0.2610
23658SOL    HW174472   1.324   6.300   9.723 -0.0397 -0.6684  0.7217
23658SOL    HW274473   1.184   6.342   9.683  0.6413  0.6054 -0.3851
23659SOL     OW74474   3.651   0.353   7.067  0.2848  0.4563 -0.4228
23659SOL    HW174475   3.708   0.428   7.051  1.8144 -0.8603 -1.5587
23659SOL    HW274476   3.670   0.327   7.157 -0.6270  1.6895  0.1515
23660SOL     OW74477   8.521   3.788   3.115 -0.2227  0.5744 -0.5571
23660SOL    HW174478   8.444   3.733   3.102  0.0687 -0.0513  0.2369
23660SOL    HW274479   8.495   3.875   3.083 -1.0773  0.2528 -0.7641
23661SOL     OW74480   3.010   5.033   7.009  0.3610 -0.0510 -0.2661
23661SOL    HW174481   2.983   5.035   6.917  0.1020  0.2567 -0.1852
23661SOL    HW274482   3.034   5.123   7.029 -0.6681  0.1078  0.2833
23662SOL     OW74483   9.605   8.999   9.234 -0.1920 -0.1445 -0.0575
23662SOL    HW174484   9.622   8.908   9.256  0.1065  0.1943  1.2174
23662SOL    HW274485   9.509   9.005   9.230 -0.2191 -0.4531  0.1143
23663SOL     OW74486   0.282   7.962   0.764 -0.3472 -0.2564 -0.5438
23663SOL    HW174487   0.258   8.034   0.706 -1.6284  0.3659  0.7107
23663SOL    HW274488   0.351   7.999   0.819 -0.5244 -0.2150 -0.3517
23664SOL     OW74489   2.017   9.110   4.756  0.2886 -0.3748  0.2159
23664SOL    HW174490   1.963   9.031   4.758 -1.0390  0.5146  1.3462
23664SOL    HW274491   1.969   9.174   4.808  1.7036  0.9587 -0.0196
23665SOL     OW74492   2.433   3.154   8.424 -0.1501  0.3049 -0.3339
23665SOL    HW174493   2.346   3.128   8.392  0.2060 -0.3225 -0.8011
23665SOL    HW274494   2.493   3.126   8.355  0.4061  0.9617 -0.1249
23666SOL     OW74495   8.007   1.179   7.811 -0.6103  0.1784 -0.0904
23666SOL    HW174496   7.924   1.138   7.832 -1.3167  1.7077  0.2079
23666SOL    HW274497   7.984   1.254   7.757  0.6090  0.4150 -0.3197
23667SOL     OW74498   6.642   4.380   3.552 -0.1885 -0.0682  0.2074
23667SOL    HW174499   6.620   4.326   3.628 -0.6402 -0.7163 -0.3631
23667SOL    HW274500   6.702   4.326   3.501 -0.5732 -0.0038 -0.3259
23668SOL     OW74501   7.535  10.656   1.528 -0.1697  0.1558  0.5327
23668SOL    HW174502   7.510  10.711   1.454  1.6333  0.3923  0.0708
23668SOL    HW274503   7.628  10.640   1.517 -0.3230 -1.7357  1.5030
23669SOL     OW74504   6.317   1.780   0.840  0.0571  0.2322 -0.1185
23669SOL    HW174505   6.383   1.717   0.866 -0.4327 -0.6366 -0.9313
23669SOL    HW274506   6.333   1.795   0.746 -0.6514  0.2939 -0.2359
23670SOL     OW74507   2.094   5.416   8.605 -0.5849  0.2515  0.1251
23670SOL    HW174508   2.084   5.511   8.593  0.7863  0.5220  0.8895
23670SOL    HW274509   2.135   5.407   8.691  3.4798 -0.7357 -1.6682
23671SOL     OW74510   3.765   0.357   3.568 -0.0225  0.4556 -0.1333
23671SOL    HW174511   3.761   0.290   3.636 -1.6399  0.0220 -0.6089
23671SOL    HW274512   3.811   0.315   3.496  1.4647  0.8290  0.5539
23672SOL     OW74513   9.313   2.703   3.425 -0.3876 -0.3479  0.1325
23672SOL    HW174514   9.396   2.680   3.469  0.4323  0.4855 -0.9152
23672SOL    HW274515   9.319   2.661   3.340 -1.1673 -0.4764  0.1397
23673SOL     OW74516   9.110   0.079   8.412 -0.1328  0.2119 -0.2593
23673SOL    HW174517   9.036   0.107   8.359 -0.7860 -2.0896 -0.6643
23673SOL    HW274518   9.123   0.151   8.474 -2.9868  0.5146  0.1285
23674SOL     OW74519   6.411   5.362   7.250 -0.2158 -0.2679 -0.5254
23674SOL    HW174520   6.390   5.311   7.172 -2.4912  0.2081 -0.3049
23674SOL    HW274521   6.329   5.408   7.271  1.2021  2.0412  0.3474
23675SOL     OW74522   1.548   4.047   7.718  0.1758 -0.3846 -0.1066
23675SOL    HW174523   1.643   4.044   7.727  0.3072 -0.8966 -1.3157
23675SOL    HW274524   1.530   4.134   7.681  0.0614  0.1054  1.0816
23676SOL     OW74525   9.570   8.293   6.245 -0.0266 -0.4749 -0.0209
23676SOL    HW174526   9.572   8.216   6.302  0.0203 -0.4293  0.0379
23676SOL    HW274527   9.485   8.334   6.263 -0.9203 -1.5923 -1.4614
23677SOL     OW74528   1.957   3.277  10.185 -0.2617  0.5545  0.5154
23677SOL    HW174529   1.996   3.339  10.247 -0.8305  0.6059  0.8276
23677SOL    HW274530   1.941   3.328  10.106 -0.0639  0.6279  0.5219
23678SOL     OW74531   3.124   6.125   6.509 -0.1755 -0.8382 -0.7169
23678SOL    HW174532   3.100   6.161   6.594 -2.3280  0.2128 -1.6825
23678SOL    HW274533   3.076   6.042   6.504 -0.4556 -0.6609 -1.0691
23679SOL     OW74534   5.846   1.001   8.515 -0.1539 -0.1026  0.2862
23679SOL    HW174535   5.794   1.052   8.452  0.9171 -0.0115 -0.5399
23679SOL    HW274536   5.808   1.024   8.600 -0.8864  0.6527 -0.2253
23680SOL     OW74537   0.270   0.893  10.784 -0.5633  0.0055  0.4858
23680SOL    HW174538   0.288   0.987  10.778 -1.0964  0.0447 -0.7732
23680SOL    HW274539   0.205   0.877  10.716 -2.1783 -0.8925  2.1672
23681SOL     OW74540   1.496   7.558   3.178  0.3365  0.4056  0.2891
23681SOL    HW174541   1.538   7.591   3.099 -1.4324  1.1191 -0.3969
23681SOL    HW274542   1.432   7.494   3.147  0.1979  0.0773  1.2121
23682SOL     OW74543   8.838   5.199   2.040  0.4926  0.1334  0.0474
23682SOL    HW174544   8.914   5.159   1.998  1.5660  1.3300  0.7767
23682SOL    HW274545   8.800   5.256   1.974  0.3627 -0.2817 -0.2400
23683SOL     OW74546  10.102   3.903   6.932 -0.8502  0.0401 -0.3843
23683SOL    HW174547  10.188   3.887   6.892 -0.2263 -0.2761  1.0018
23683SOL    HW274548  10.041   3.855   6.877 -0.0433 -0.2426 -1.0580
23684SOL     OW74549   7.959   2.165   6.460  0.4033  0.4045 -0.6759
23684SOL    HW174550   7.913   2.226   6.518  1.4360  0.8716 -0.3246
23684SOL    HW274551   7.891   2.104   6.430 -0.3965  0.9570 -0.0236
23685SOL     OW74552   7.045   6.896   7.281 -0.5467  0.7236 -0.0474
23685SOL    HW174553   7.112   6.965   7.277 -0.0329  0.3529  1.5551
23685SOL    HW274554   6.973   6.935   7.331 -0.7234  0.4763 -0.1069
23686SOL     OW74555   6.294   1.641   5.527  0.6606  0.1512 -0.5413
23686SOL    HW174556   6.258   1.567   5.478 -2.4494 -0.5393  2.4043
23686SOL    HW274557   6.385   1.618   5.542 -0.0744 -2.9077 -0.2029
23687SOL     OW74558   0.547   5.129  10.477  0.3104  0.3364  0.0409
23687SOL    HW174559   0.465   5.142  10.429 -0.1038 -0.1219  0.5994
23687SOL    HW274560   0.520   5.086  10.559  1.2591 -1.3650 -0.4809
23688SOL     OW74561   6.894   5.740   6.939  0.6389 -0.5690 -0.2867
23688SOL    HW174562   6.851   5.755   7.023 -0.7046  0.2544 -1.0917
23688SOL    HW274563   6.972   5.796   6.942  0.1534  0.1070  0.0974
23689SOL     OW74564   3.523  10.139   5.365 -0.5959 -0.2013 -0.1268
23689SOL    HW174565   3.508  10.121   5.458 -0.6222  0.4925  0.0128
23689SOL    HW274566   3.556  10.229   5.363 -3.3764  0.9107 -1.0018
23690SOL     OW74567   3.338   1.008   7.617  0.0206  0.1186  0.0338
23690SOL    HW174568   3.246   1.006   7.644 -0.2351  0.5746 -0.7607
23690SOL    HW274569   3.372   0.921   7.639 -0.5224  0.0408  0.5828
23691SOL     OW74570   5.631   1.664   4.188  0.0128 -0.0268 -0.5470
23691SOL    HW174571   5.559   1.704   4.237 -1.4334 -1.7553 -1.1716
23691SOL    HW274572   5.710   1.697   4.231 -1.1685 -0.0236  1.7787
23692SOL     OW74573   4.643   1.190   3.343  0.3364 -0.5386  0.1046
23692SOL    HW174574   4.669   1.278   3.372 -0.7482 -0.6805  1.6637
23692SOL    HW274575   4.588   1.205   3.266  0.6164  0.1013  0.0218
23693SOL     OW74576   7.012   7.049   8.043  0.2436 -0.0698 -0.2583
23693SOL    HW174577   6.991   6.999   8.122  0.5166  0.9670  0.4920
23693SOL    HW274578   7.007   6.985   7.972 -0.3016 -0.9572  0.5562
23694SOL     OW74579   3.231  10.304   2.624 -0.0685 -0.0095 -0.8093
23694SOL    HW174580   3.304  10.256   2.663 -0.5392 -0.0330  0.0616
23694SOL    HW274581   3.159  10.291   2.685 -0.8449 -0.1020 -1.7237
23695SOL     OW74582   0.770   0.160   6.480  0.0648 -0.4537  0.2491
23695SOL    HW174583   0.820   0.081   6.502  0.1097 -0.0634  1.6204
23695SOL    HW274584   0.692   0.156   6.535  1.0073  1.4088  1.8668
23696SOL     OW74585   6.604   0.239   0.645  0.5864 -0.5459 -0.4444
23696SOL    HW174586   6.650   0.238   0.729  0.6667  2.2267 -0.3553
23696SOL    HW274587   6.540   0.310   0.653 -1.8156 -2.4466 -1.5824
23697SOL     OW74588   4.156   5.831   5.476 -0.0351  0.7541  0.3341
23697SOL    HW174589   4.114   5.751   5.507  2.7952 -1.1428 -0.4324
23697SOL    HW274590   4.126   5.841   5.386  0.3645 -0.0320  0.1064
23698SOL     OW74591  10.083   9.786   5.263  0.2259  0.2298  0.6545
23698SOL    HW174592  10.140   9.722   5.220  1.7731  0.6389  2.0001
23698SOL    HW274593  10.082   9.861   5.204  0.3497 -0.1232  0.1962
23699SOL     OW74594   4.341   0.258  10.560 -0.6228 -0.4935 -0.2602
23699SOL    HW174595   4.356   0.164  10.549  1.3723 -0.5791  2.1994
23699SOL    HW274596   4.426   0.298  10.540 -1.3372  0.7786 -0.8605
23700SOL     OW74597   9.831   3.469   8.564 -0.2222  0.0665  0.3795
23700SOL    HW174598   9.835   3.542   8.502 -0.0988 -0.9054 -0.7611
23700SOL    HW274599   9.744   3.478   8.604 -0.6899  0.1432 -0.6202
23701SOL     OW74600   9.513   1.001   7.007  0.7928  0.2330  0.1591
23701SOL    HW174601   9.481   1.049   6.930 -0.4979 -0.4995  0.2136
23701SOL    HW274602   9.607   1.019   7.008  1.1129 -0.8221 -2.3956
23702SOL     OW74603   5.630   1.926   4.448 -0.3563 -0.0268 -0.2542
23702SOL    HW174604   5.653   1.990   4.380  1.0378 -0.0367  0.1822
23702SOL    HW274605   5.561   1.969   4.499  0.7773  1.2756  0.2232
23703SOL     OW74606   4.052  10.368   1.393  0.4048 -0.4315 -0.6202
23703SOL    HW174607   3.995  10.417   1.452 -0.5764 -0.2435 -1.7078
23703SOL    HW274608   4.042  10.277   1.420  1.0805 -0.2205  0.4225
23704SOL     OW74609   9.003   8.400   7.926 -0.0308 -0.1515 -0.3670
23704SOL    HW174610   8.968   8.313   7.944  0.7144 -0.3472  0.1720
23704SOL    HW274611   9.065   8.416   7.996  0.9023  0.2148 -1.2534
23705SOL     OW74612   4.791   8.186   5.537 -0.2109  0.4306 -0.0004
23705SOL    HW174613   4.735   8.120   5.579  0.1006  1.2023  1.6961
23705SOL    HW274614   4.733   8.259   5.519 -0.4442 -0.0656 -1.4177
23706SOL     OW74615   2.996   2.182   0.653  0.2795 -0.1951  0.6418
23706SOL    HW174616   3.022   2.104   0.702 -1.3920  0.7459  3.2310
23706SOL    HW274617   3.040   2.254   0.698 -0.8126  0.6683  0.3603
23707SOL     OW74618   4.393   0.274   9.293 -0.3281 -0.0623 -0.4393
23707SOL    HW174619   4.467   0.324   9.260 -0.3652  0.1212 -0.2487
23707SOL    HW274620   4.378   0.309   9.381 -1.1016  0.3999 -0.7526
23708SOL     OW74621   9.475   6.020   6.440 -0.0682 -0.5861  0.3769
23708SOL    HW174622   9.566   6.037   6.466 -0.2550  1.3142 -0.0999
23708SOL    HW274623   9.425   6.092   6.479 -1.1763 -0.8763 -0.4654
23709SOL     OW74624   1.029   2.685  10.553 -0.1614 -0.2975  0.1911
23709SOL    HW174625   1.106   2.637  10.524 -0.2091  0.2320 -0.8899
23709SOL    HW274626   0.974   2.692  10.475 -0.1969  1.3944  0.3133
23710SOL     OW74627   4.299   0.818   0.081  0.3564 -0.3163 -0.0419
23710SOL    HW174628   4.347   0.878   0.138 -1.2194  0.0679  0.9431
23710SOL    HW274629   4.322   0.731   0.112  1.9076 -0.2324 -0.8551
23711SOL     OW74630   8.940   6.531   4.760  0.3049 -0.0863  0.0493
23711SOL    HW174631   8.922   6.474   4.835 -0.0490 -0.8316 -0.5998
23711SOL    HW274632   9.002   6.596   4.794 -0.4633  0.0646  1.2086
23712SOL     OW74633   2.416   5.618  10.905 -0.0567 -0.0083  0.2356
23712SOL    HW174634   2.392   5.631  10.814 -2.2133 -2.3643  0.3498
23712SOL    HW274635   2.471   5.540  10.905  1.8805  1.2708  0.7923
23713SOL     OW74636   7.991   3.206   1.612 -0.1134  0.3070 -0.0655
23713SOL    HW174637   8.083   3.230   1.603 -0.3898  1.1702 -0.7214
23713SOL    HW274638   7.962   3.253   1.691 -1.0652  3.6735 -2.1962
23714SOL     OW74639   7.523   5.054   0.233 -0.1570 -0.1383 -0.0377
23714SOL    HW174640   7.431   5.031   0.226 -0.3736  0.8257 -0.4688
23714SOL    HW274641   7.538   5.065   0.327 -0.4440 -0.3962  0.0407
23715SOL     OW74642   4.800   7.067   9.584  0.2661 -0.2241 -0.1412
23715SOL    HW174643   4.725   7.121   9.608  1.4387  2.0507 -1.3344
23715SOL    HW274644   4.761   6.982   9.560 -1.6878  0.2312  1.1667
23716SOL     OW74645   7.709   6.384   8.044  0.1580  0.3144  0.0124
23716SOL    HW174646   7.743   6.469   8.017  1.0281 -0.3401 -1.0505
23716SOL    HW274647   7.755   6.365   8.126  0.8046  0.3751 -0.3302
23717SOL     OW74648   3.076   0.740   4.130 -0.0568  0.0258 -0.4162
23717SOL    HW174649   3.068   0.811   4.193  2.0947 -1.8011  2.1192
23717SOL    HW274650   2.987   0.728   4.096 -1.5680  0.6004  2.9420
23718SOL     OW74651   4.918   7.129   0.798  0.9374  0.2946  0.6024
23718SOL    HW174652   4.986   7.131   0.866 -0.2605  3.5028  1.9257
23718SOL    HW274653   4.943   7.198   0.736 -1.0396  1.6882  1.2143
23719SOL     OW74654   8.568   6.230   2.713  0.6868 -0.1793 -0.1532
23719SOL    HW174655   8.655   6.197   2.739  0.3315 -0.9386  0.0864
23719SOL    HW274656   8.510   6.200   2.783  0.0149 -0.7707 -0.9507
23720SOL     OW74657   8.184   8.646   2.788  0.8323  0.3299  0.1038
23720SOL    HW174658   8.194   8.676   2.698  0.7176  1.7052  0.5240
23720SOL    HW274659   8.261   8.681   2.833  0.6730  0.0168  0.6185
23721SOL     OW74660   9.215   0.785   1.620 -0.1284 -0.1758 -0.1402
23721SOL    HW174661   9.296   0.835   1.613  0.0085 -0.1447  1.3910
23721SOL    HW274662   9.146   0.848   1.599  0.2633 -0.7085 -3.6484
23722SOL     OW74663   2.604   8.499   5.477 -0.6687 -0.2191  0.1374
23722SOL    HW174664   2.660   8.529   5.549 -1.0050  0.3648  0.1640
23722SOL    HW274665   2.581   8.409   5.500 -1.1163  0.1027  0.9735
23723SOL     OW74666   2.389   3.888   9.012 -0.3549 -0.2312 -0.0994
23723SOL    HW174667   2.432   3.970   9.037  0.0048 -0.4913  0.1490
23723SOL    HW274668   2.325   3.914   8.945  0.7687  0.0631 -1.1099
23724SOL     OW74669   0.493   7.330   2.218  0.0644 -0.2881  0.0575
23724SOL    HW174670   0.504   7.295   2.130 -0.2794  0.9542 -0.5063
23724SOL    HW274671   0.407   7.298   2.246  0.6338 -1.5795  0.3979
23725SOL     OW74672   6.565  10.953   5.321  0.4340  0.1168 -0.2801
23725SOL    HW174673   6.531  10.934   5.408  0.6353 -0.6299 -0.3557
23725SOL    HW274674   6.493  10.997   5.276 -0.3580 -1.1882 -0.3438
23726SOL     OW74675   4.899   6.600  10.913  0.3273  0.6310  0.3784
23726SOL    HW174676   4.887   6.651  10.833  1.5970  0.3215 -0.0378
23726SOL    HW274677   4.988   6.564  10.905 -0.8113 -2.4239  0.2123
23727SOL     OW74678   2.197   8.634  10.568 -0.3080  0.1697  0.5987
23727SOL    HW174679   2.273   8.688  10.546  2.3257 -3.0649  0.9929
23727SOL    HW274680   2.174   8.592  10.485 -1.1358  0.4366  0.6837
23728SOL     OW74681  10.686   6.008   5.467 -0.7942  0.1093 -0.2285
23728SOL    HW174682  10.750   5.938   5.459 -1.5421 -0.5611 -0.5252
23728SOL    HW274683  10.620   5.989   5.400 -2.0771 -0.0806  1.0250
23729SOL     OW74684   7.005   5.266  10.471 -0.1112 -0.2233  0.5355
23729SOL    HW174685   7.047   5.303  10.549 -0.8725  1.5415  0.1686
23729SOL    HW274686   6.991   5.174  10.492  1.1254 -0.1446  1.8536
23730SOL     OW74687   5.877   9.751   7.716  0.1376  0.1528 -0.2143
23730SOL    HW174688   5.958   9.737   7.667 -0.1702  0.0502 -0.6939
23730SOL    HW274689   5.816   9.787   7.652  0.2503  1.6648  0.4851
23731SOL     OW74690   0.761   4.594   1.669 -0.4470  0.3553  0.3716
23731SOL    HW174691   0.732   4.510   1.632 -0.7817  0.2669  0.8227
23731SOL    HW274692   0.687   4.624   1.721 -0.2258  0.8042  0.4337
23732SOL     OW74693   4.100   6.150   1.019  0.0865  0.2283  0.1935
23732SOL    HW174694   4.114   6.232   0.972  2.7401 -0.8618 -1.1502
23732SOL    HW274695   4.123   6.169   1.109  0.7518  0.9430 -0.1225
23733SOL     OW74696   3.632   9.964  10.024  0.2458  0.0973  0.0639
23733SOL    HW174697   3.707   9.927  10.071  0.5187 -0.1693 -0.5726
23733SOL    HW274698   3.556   9.928  10.068  0.4981 -1.7566 -0.9149
23734SOL     OW74699   1.960   1.376   9.224 -0.4218 -0.1064 -0.3613
23734SOL    HW174700   2.029   1.345   9.164 -0.8949 -1.6481 -0.1250
23734SOL    HW274701   1.940   1.301   9.279 -1.2884  0.7647  0.5372
23735SOL     OW74702   0.192   3.677   0.949 -0.2036 -0.4438 -0.0044
23735SOL    HW174703   0.139   3.689   1.028 -1.0741 -2.2191 -0.2625
23735SOL    HW274704   0.128   3.666   0.878  0.5430 -0.6412 -0.6697
23736SOL     OW74705  10.412   8.490   7.347  0.7907  0.0539 -0.0989
23736SOL    HW174706  10.441   8.400   7.364  2.1452  0.1296 -1.7749
23736SOL    HW274707  10.340   8.481   7.285 -0.1461  0.0816  0.9474
23737SOL     OW74708   6.637   4.333   2.178  0.3385  0.4290  0.0594
23737SOL    HW174709   6.714   4.280   2.160  1.0445  1.6794 -0.7379
23737SOL    HW274710   6.598   4.294   2.256  1.0570 -0.9870 -0.2632
23738SOL     OW74711   4.091   5.932   6.749 -0.6580  0.1246 -0.6338
23738SOL    HW174712   4.071   5.849   6.793  3.6644 -2.2332 -2.5317
23738SOL    HW274713   4.061   5.919   6.659 -1.8969  1.6076 -0.4820
23739SOL     OW74714   6.309   5.525   4.076  0.1535 -0.3545  0.2094
23739SOL    HW174715   6.233   5.527   4.134  0.3863  1.9019  0.5356
23739SOL    HW274716   6.368   5.462   4.117 -0.9619 -1.1016  0.7194
23740SOL     OW74717   7.514   4.215   8.571  0.1394  0.5106 -0.2818
23740SOL    HW174718   7.451   4.228   8.500 -0.5581 -1.0573  0.0075
23740SOL    HW274719   7.590   4.176   8.529 -0.2096 -0.2629 -0.2101
23741SOL     OW74720   6.028   3.324   8.444  0.0601 -0.5298 -0.2566
23741SOL    HW174721   5.968   3.285   8.380 -0.3388 -0.5228  0.1085
23741SOL    HW274722   6.111   3.333   8.397 -0.1270 -0.8728 -0.6575
23742SOL     OW74723   4.570  10.130   7.445 -0.0133  0.7094 -0.3208
23742SOL    HW174724   4.546  10.038   7.442  1.2126  0.3928 -2.7615
23742SOL    HW274725   4.506  10.174   7.389 -1.2975  1.6058  1.7271
23743SOL     OW74726   0.143   5.356   7.292  0.5156 -0.1476 -0.2230
23743SOL    HW174727   0.155   5.398   7.207  0.2500  0.3252 -0.0289
23743SOL    HW274728   0.206   5.283   7.292  1.2910  0.5055 -0.3995
23744SOL     OW74729   6.238   3.180   1.559  0.0017  0.1881 -0.1251
23744SOL    HW174730   6.287   3.117   1.506 -0.0567  0.3175 -0.3374
23744SOL    HW274731   6.305   3.240   1.591 -0.0203  0.3915 -0.4521
23745SOL     OW74732   8.764   5.174   0.196  0.0417  0.3407  0.2879
23745SOL    HW174733   8.847   5.216   0.216  0.0724 -0.2318  1.4242
23745SOL    HW274734   8.705   5.246   0.174  0.6473  0.8048  0.1633
23746SOL     OW74735   5.167   5.380   1.191  0.6311  0.0148  0.7857
23746SOL    HW174736   5.085   5.330   1.193  0.7724 -0.2192  0.8562
23746SOL    HW274737   5.233   5.315   1.169  0.7880  0.2199  0.6492
23747SOL     OW74738   9.606   6.483   6.798  0.3785  0.2243  0.7838
23747SOL    HW174739   9.535   6.426   6.827 -0.4181  0.6391 -0.2842
23747SOL    HW274740   9.686   6.441   6.831  0.1541 -3.1485 -2.3340
23748SOL     OW74741  10.524   8.775   9.782 -0.3576 -0.4957  0.3017
23748SOL    HW174742  10.500   8.835   9.711  3.2202  0.9780  0.0965
23748SOL    HW274743  10.502   8.822   9.862  1.3110  0.7082  0.1231
23749SOL     OW74744   0.457   6.582   1.090 -0.8344  0.0371 -0.4300
23749SOL    HW174745   0.445   6.540   1.175  0.8425  0.1121 -0.1149
23749SOL    HW274746   0.445   6.512   1.026  1.6553 -0.9645  0.0750
23750SOL     OW74747   4.631   1.456   3.139 -0.1785 -0.2015 -0.2618
23750SOL    HW174748   4.561   1.391   3.145 -0.7554  0.2830 -1.4534
23750SOL    HW274749   4.648   1.482   3.230 -0.6449 -1.2616  0.1372
23751SOL     OW74750   4.623   9.686   5.380 -0.2583 -0.6779  0.1148
23751SOL    HW174751   4.591   9.618   5.321 -0.8078  0.5731 -1.0867
23751SOL    HW274752   4.718   9.675   5.382 -0.3500 -1.5120  0.0028
23752SOL     OW74753   6.878   5.096  10.120  0.5804  0.0988  0.3355
23752SOL    HW174754   6.817   5.038  10.167  1.8889 -0.9059  0.8599
23752SOL    HW274755   6.875   5.178  10.168  0.4475 -0.2961  1.0167
23753SOL     OW74756   8.120   0.585   9.652 -0.5771 -0.2024  0.3615
23753SOL    HW174757   8.168   0.622   9.578  0.6777  0.6261  1.5383
23753SOL    HW274758   8.188   0.553   9.711 -1.5106 -0.0225  1.5740
23754SOL     OW74759   1.529   7.536   4.512  0.2239  0.1813  0.5933
23754SOL    HW174760   1.601   7.598   4.507  0.0307  0.4065  0.5975
23754SOL    HW274761   1.528   7.507   4.603  0.5676 -0.1324  0.4995
23755SOL     OW74762  10.112   9.094   5.128  0.2393 -0.3533  0.2976
23755SOL    HW174763  10.082   9.067   5.215 -2.7373  2.3594  0.2972
23755SOL    HW274764  10.051   9.053   5.068  0.8900 -0.3858 -0.3569
23756SOL     OW74765   5.511   7.831  10.019 -0.0418  0.2763 -0.4225
23756SOL    HW174766   5.469   7.806  10.102  0.7645 -0.3097 -0.1769
23756SOL    HW274767   5.586   7.884  10.046  0.7805 -0.7065 -0.7057
23757SOL     OW74768   6.083   4.142   6.894  0.8807  0.0584 -0.2559
23757SOL    HW174769   6.152   4.115   6.954  0.0853 -1.1732  0.1587
23757SOL    HW274770   6.125   4.202   6.833  1.9556  0.5095  0.8883
23758SOL     OW74771   2.221  10.321   0.596 -0.2677  0.2112 -0.4499
23758SOL    HW174772   2.169  10.256   0.642  0.8053 -0.6010 -0.3367
23758SOL    HW274773   2.301  10.274   0.571  0.0313  1.1750 -1.3823
23759SOL     OW74774   1.713   3.587   6.152 -0.6180 -0.7422 -0.0888
23759SOL    HW174775   1.718   3.575   6.247 -1.1544  0.4978  0.1194
23759SOL    HW274776   1.745   3.505   6.115  0.6008 -0.8556  1.1621
23760SOL     OW74777   9.253   7.429   4.455 -0.0639 -0.2067 -0.3009
23760SOL    HW174778   9.291   7.346   4.483 -1.4243 -1.2676 -1.4368
23760SOL    HW274779   9.283   7.493   4.520  1.7691 -1.3816  0.0656
23761SOL     OW74780   6.202   2.610   4.089 -0.2778 -0.3185  0.2678
23761SOL    HW174781   6.224   2.533   4.142 -1.9305  0.1063  1.6445
23761SOL    HW274782   6.253   2.681   4.129  0.0736 -0.3942 -0.0406
23762SOL     OW74783  10.853   7.104   3.672 -0.0211  0.2816 -0.2043
23762SOL    HW174784  10.794   7.031   3.655  0.8975 -0.6850  0.6660
23762SOL    HW274785  10.795   7.180   3.682 -1.1994 -0.7628  1.3549
23763SOL     OW74786  10.891   0.870   3.559 -0.4159  0.4644  0.1867
23763SOL    HW174787  10.815   0.906   3.514  0.4616  0.5859 -1.2720
23763SOL    HW274788  10.959   0.937   3.547 -0.1417  0.5029  1.7386
23764SOL     OW74789   5.855   1.716   4.362  0.0381 -0.0639  0.1682
23764SOL    HW174790   5.838   1.643   4.423  2.4609 -0.4768  0.4609
23764SOL    HW274791   5.843   1.795   4.415 -0.2322 -0.3354  0.5182
23765SOL     OW74792   0.303   7.778  10.451  0.3653 -0.0773  0.3158
23765SOL    HW174793   0.337   7.725  10.379  1.7714  0.5063  0.5205
23765SOL    HW274794   0.247   7.843  10.409 -1.7344 -1.8768  0.0861
23766SOL     OW74795   0.155   6.858   8.810 -0.0831 -0.2286  0.3518
23766SOL    HW174796   0.206   6.939   8.808  3.5436 -2.2825 -0.6391
23766SOL    HW274797   0.095   6.866   8.735  0.5567  1.3159 -0.0422
23767SOL     OW74798  10.900   7.560   5.428  0.0051 -0.4020  0.0591
23767SOL    HW174799  10.838   7.615   5.477 -0.0093  1.0850 -1.5118
23767SOL    HW274800  10.845   7.506   5.372  0.0457 -1.5205  1.0776
23768SOL     OW74801   4.212   0.048   8.088 -0.1774  0.2091 -0.3032
23768SOL    HW174802   4.205  -0.047   8.078  1.7807  0.0529 -0.5645
23768SOL    HW274803   4.290   0.060   8.143  0.6700  1.6804 -1.7457
23769SOL     OW74804   8.134   7.258   6.083 -0.1331 -0.2790 -0.8587
23769SOL    HW174805   8.155   7.188   6.020 -0.9656 -1.1587 -0.1941
23769SOL    HW274806   8.044   7.281   6.064 -0.7353 -1.2580  0.6127
23770SOL     OW74807   3.088   9.365   9.460 -0.0643 -0.0678  0.0613
23770SOL    HW174808   3.129   9.440   9.416 -1.4161  0.3333 -0.5756
23770SOL    HW274809   3.016   9.340   9.402  0.3270 -1.8683  0.2698
23771SOL     OW74810  10.409   3.666   5.639 -0.0915  0.4185  0.9557
23771SOL    HW174811  10.488   3.702   5.598  0.1917  0.0172  1.1316
23771SOL    HW274812  10.439   3.584   5.679 -0.0353  1.4300  3.1465
23772SOL     OW74813   4.448   8.044   0.108  0.4186  0.0496 -0.3013
23772SOL    HW174814   4.445   8.118   0.048 -1.1340  0.6262  0.4212
23772SOL    HW274815   4.414   8.079   0.190  1.4784 -0.9939  0.6275
23773SOL     OW74816   1.614   7.751   6.837 -0.5078 -0.5664  0.3676
23773SOL    HW174817   1.565   7.808   6.897 -0.6944 -1.0023  0.6428
23773SOL    HW274818   1.566   7.668   6.840 -0.0050 -0.8615  0.2910
23774SOL     OW74819  10.060   6.193   3.322 -0.1404  0.2085  0.1668
23774SOL    HW174820   9.966   6.194   3.301 -0.5015  1.8396  1.6905
23774SOL    HW274821  10.064   6.196   3.417  1.4683  1.1084  0.1067
23775SOL     OW74822   3.532   5.976   4.580 -0.1125  0.3659  0.0852
23775SOL    HW174823   3.444   6.000   4.608 -0.5063  0.9878 -1.5789
23775SOL    HW274824   3.585   5.981   4.660 -0.6500  4.4752  0.3900
23776SOL     OW74825   7.203   8.041   2.653 -0.1039 -0.0505  0.0408
23776SOL    HW174826   7.162   8.125   2.636  1.1901  0.1054 -2.9975
23776SOL    HW274827   7.172   7.984   2.582  0.7137 -1.4797  0.7709
23777SOL     OW74828   3.180   0.005   0.542 -0.3462  1.0116 -0.6258
23777SOL    HW174829   3.097  -0.041   0.550 -1.1748  2.2886 -1.4953
23777SOL    HW274830   3.220  -0.001   0.629 -1.1226 -0.0027 -0.3244
23778SOL     OW74831   2.435   7.729   8.652  0.1479  0.2539  0.2647
23778SOL    HW174832   2.488   7.671   8.707 -0.4110  0.8107  1.4344
23778SOL    HW274833   2.491   7.806   8.638 -0.4285  0.9992  1.7993
23779SOL     OW74834   9.871   5.335  10.061 -0.6699 -0.2880 -0.5514
23779SOL    HW174835   9.934   5.263  10.063  0.8702  0.9813 -1.4741
23779SOL    HW274836   9.885   5.381  10.144  0.3077  0.5227 -1.1428
23780SOL     OW74837   4.339   3.624   6.374  0.1766  0.2864 -0.0877
23780SOL    HW174838   4.263   3.649   6.427  0.0842 -0.1317 -0.0152
23780SOL    HW274839   4.386   3.705   6.359  0.2856  0.3820  0.7639
23781SOL     OW74840   4.091   5.787   9.964 -0.2947 -0.0205  0.6339
23781SOL    HW174841   4.131   5.864  10.003 -0.5116 -0.2533  1.3385
23781SOL    HW274842   4.007   5.817   9.930 -0.3645  0.0609  0.8789
23782SOL     OW74843   1.289   7.285   8.175  0.0711 -0.3559 -0.2528
23782SOL    HW174844   1.296   7.203   8.126 -0.0490 -0.7739  0.4270
23782SOL    HW274845   1.327   7.266   8.260 -1.6313 -0.2556  0.5719
23783SOL     OW74846   0.182   4.007  10.808 -0.0287  0.1060 -0.2647
23783SOL    HW174847   0.216   4.018  10.719 -1.3546 -0.1947 -0.8192
23783SOL    HW274848   0.117   4.077  10.818 -0.1754 -0.1066  0.3286
23784SOL     OW74849  10.509   5.832   4.829 -0.4491  0.3425  0.4085
23784SOL    HW174850  10.435   5.862   4.777  0.3861 -0.5203 -1.3430
23784SOL    HW274851  10.537   5.751   4.788  0.8784  0.1421  1.6153
23785SOL     OW74852   9.278   9.318   8.958  0.3864  0.2797 -0.2356
23785SOL    HW174853   9.277   9.369   9.039 -0.3755  1.9320 -1.2347
23785SOL    HW274854   9.268   9.227   8.987 -0.9979  0.9142  1.4657
23786SOL     OW74855   9.542   2.498   0.474  0.3030 -0.6606 -0.7277
23786SOL    HW174856   9.454   2.499   0.436  0.1506 -0.1241 -0.3699
23786SOL    HW274857   9.592   2.442   0.415  0.0117 -0.0273 -1.6027
23787SOL     OW74858   6.089   5.128   3.723 -0.1970  1.1146 -0.1995
23787SOL    HW174859   6.115   5.087   3.805  0.7478  0.5022 -0.7859
23787SOL    HW274860   6.099   5.222   3.739  0.8618  0.9649  0.1174
23788SOL     OW74861  10.969   4.301   3.904 -0.4697  0.3032 -0.0242
23788SOL    HW174862  10.889   4.353   3.899 -1.0581 -0.6267 -0.6453
23788SOL    HW274863  10.980   4.283   3.997 -1.3464 -0.0822  0.0202
23789SOL     OW74864  10.456  10.893   1.791  0.2118 -0.2856 -0.1461
23789SOL    HW174865  10.463  10.950   1.867  0.9248 -0.0838 -0.3634
23789SOL    HW274866  10.513  10.932   1.725 -0.5843 -0.3242 -0.8782
23790SOL     OW74867   6.096   8.798   4.694  0.0267  0.2435 -0.0916
23790SOL    HW174868   6.081   8.881   4.739 -1.3252  0.6496 -1.2096
23790SOL    HW274869   6.168   8.757   4.741  0.8492  2.1360  0.3651
23791SOL     OW74870   3.408   7.308   3.853 -0.3625  0.3124  0.0453
23791SOL    HW174871   3.454   7.243   3.905  0.7198  1.0950  0.0871
23791SOL    HW274872   3.330   7.329   3.905  0.6184  0.9715  1.3065
23792SOL     OW74873   8.375  10.549   3.683 -0.1030  0.5412  0.2443
23792SOL    HW174874   8.320  10.494   3.628  1.6298 -0.6586 -0.3371
23792SOL    HW274875   8.464  10.535   3.652  0.7750  1.0360  2.3329
23793SOL     OW74876   3.921   3.328   2.444  0.1195  0.1583  0.2230
23793SOL    HW174877   3.840   3.370   2.472 -0.0048  0.3757 -0.4572
23793SOL    HW274878   3.977   3.399   2.413  0.9000  0.1086  1.4501
23794SOL     OW74879   1.610   7.905   6.585 -0.3047  0.2313  0.1412
23794SOL    HW174880   1.593   7.834   6.647 -0.0628 -0.0524 -0.1157
23794SOL    HW274881   1.699   7.934   6.605 -0.2107  0.1098 -0.1045
23795SOL     OW74882  10.413   1.104   5.250 -0.1716 -0.0635  0.6497
23795SOL    HW174883  10.322   1.077   5.236 -0.2555  0.9058 -0.9806
23795SOL    HW274884  10.465   1.030   5.219 -0.3968 -0.2980  0.8256
23796SOL     OW74885   2.302   7.811  10.679  0.2657 -0.3078  0.3277
23796SOL    HW174886   2.365   7.743  10.658  2.0885  1.5207 -0.4306
23796SOL    HW274887   2.354   7.891  10.685 -1.7069  0.9659  1.6991
23797SOL     OW74888   3.633   4.184   3.421  0.5138  0.3479  0.5015
23797SOL    HW174889   3.587   4.132   3.356  2.1477  0.0100 -0.4296
23797SOL    HW274890   3.564   4.213   3.482 -1.2829  1.6327 -1.9614
23798SOL     OW74891   5.476   6.932   7.815 -0.2793 -0.0997  0.2591
23798SOL    HW174892   5.385   6.905   7.823 -0.0932 -1.0791 -0.7546
23798SOL    HW274893   5.523   6.853   7.790  1.1235 -0.0078  2.2700
23799SOL     OW74894  10.019   1.767   6.951 -0.3578  0.1989  0.0974
23799SOL    HW174895  10.016   1.677   6.920  1.1458 -0.3565  1.4086
23799SOL    HW274896  10.087   1.809   6.899  2.8223 -0.9807  2.9522
23800SOL     OW74897   6.600   7.003   6.596  0.4263 -0.1590  0.0023
23800SOL    HW174898   6.682   7.046   6.571  0.1565  0.6017  0.3791
23800SOL    HW274899   6.570   7.052   6.672  0.7047 -1.7791  1.1961
23801SOL     OW74900   7.531   7.214   8.738 -0.7545  0.1471 -0.2478
23801SOL    HW174901   7.514   7.152   8.667 -4.1559 -1.6700  1.8869
23801SOL    HW274902   7.449   7.217   8.788  0.9760  2.3669  2.8372
23802SOL     OW74903   6.616   4.796   4.661  0.1991 -0.4660  0.0407
23802SOL    HW174904   6.705   4.829   4.677 -0.4996  1.6007 -0.0625
23802SOL    HW274905   6.560   4.855   4.711 -1.2175 -0.7415 -1.1739
23803SOL     OW74906   5.878   2.276   9.579 -0.0397  0.1102 -0.5144
23803SOL    HW174907   5.852   2.365   9.556 -2.4363 -0.7889 -1.6288
23803SOL    HW274908   5.798   2.224   9.570  1.5510 -2.4151 -1.2903
23804SOL     OW74909   0.606   2.904   2.605  0.1330 -0.1851 -0.2871
23804SOL    HW174910   0.621   2.916   2.698 -0.2921 -0.9911 -0.1006
23804SOL    HW274911   0.518   2.940   2.590 -1.1944 -2.9194  0.2967
23805SOL     OW74912   6.344   2.264   5.343  0.2124 -0.1942 -0.0343
23805SOL    HW174913   6.413   2.320   5.378 -0.5229  0.2370  0.7799
23805SOL    HW274914   6.374   2.175   5.360  1.2456 -0.0705 -1.0551
23806SOL     OW74915   3.360   5.873   5.730  0.6754 -0.1142 -0.0839
23806SOL    HW174916   3.361   5.781   5.702 -0.9100 -0.3901  0.6751
23806SOL    HW274917   3.299   5.916   5.670  1.2045  0.4076 -0.2633
23807SOL     OW74918   8.028   0.166   0.871 -0.0310  0.2052 -0.1870
23807SOL    HW174919   8.049   0.212   0.789 -0.8650  0.8266 -0.0652
23807SOL    HW274920   7.975   0.229   0.921 -2.2284 -1.2929 -0.4952
23808SOL     OW74921   0.912   8.568   2.231 -0.1737  0.2548 -0.0464
23808SOL    HW174922   0.828   8.534   2.199  1.6292 -2.6134 -2.2947
23808SOL    HW274923   0.905   8.563   2.327 -2.1043 -1.1855 -0.2023
23809SOL     OW74924   4.373   3.129   4.203 -0.5246  0.2680 -0.5945
23809SOL    HW174925   4.323   3.147   4.124 -2.6152  0.8766  0.7759
23809SOL    HW274926   4.391   3.216   4.240 -1.5396 -0.0431  0.7094
23810SOL     OW74927   2.633   2.232   6.329  0.3697  0.5599 -0.0034
23810SOL    HW174928   2.719   2.272   6.319 -0.5050  2.4956 -0.4445
23810SOL    HW274929   2.592   2.241   6.243  0.0476 -1.1792 -0.0537
23811SOL     OW74930   6.814   1.358   6.513 -0.0677 -0.0147  0.1259
23811SOL    HW174931   6.754   1.306   6.460  0.1433 -0.9309  0.7481
23811SOL    HW274932   6.885   1.297   6.535  0.0076  0.4362  1.1733
23812SOL     OW74933   7.589  10.028   1.893  0.1678  0.5714  0.2973
23812SOL    HW174934   7.670  10.038   1.844  0.1293 -2.6613 -0.6374
23812SOL    HW274935   7.617  10.011   1.983  0.4808  0.2910  0.1468
23813SOL     OW74936   2.892   2.472   5.816 -0.3897 -0.1197  0.3520
23813SOL    HW174937   2.948   2.544   5.787  1.3389 -1.4784  0.1359
23813SOL    HW274938   2.836   2.510   5.883  1.6404  1.0765  1.4650
23814SOL     OW74939   5.074   9.937  10.543 -0.0603 -0.0346  0.4328
23814SOL    HW174940   5.012   9.949  10.471  1.0476  0.6584 -0.4357
23814SOL    HW274941   5.136  10.009  10.534 -0.1622  0.3339  2.3797
23815SOL     OW74942  10.245   4.779   3.011  0.0966  0.7049  0.0425
23815SOL    HW174943  10.150   4.783   3.019 -0.0302  2.8048 -1.6793
23815SOL    HW274944  10.260   4.726   2.932  0.2726  1.5145 -0.4788
23816SOL     OW74945   6.683   7.413   8.742 -0.4428 -0.1939  0.1943
23816SOL    HW174946   6.607   7.466   8.716 -0.1496  0.3312  0.3881
23816SOL    HW274947   6.647   7.326   8.755 -0.9183 -0.0724 -0.2391
23817SOL     OW74948   0.175  10.740   0.009 -0.1935 -0.1841  0.3722
23817SOL    HW174949   0.082  10.758  -0.004  0.0097  0.5643 -0.1140
23817SOL    HW274950   0.186  10.648  -0.016 -0.6214 -0.0010 -0.4931
23818SOL     OW74951   5.364   3.627   9.353 -0.2858  0.0672  0.2434
23818SOL    HW174952   5.447   3.598   9.390 -0.4858  1.8834  2.2997
23818SOL    HW274953   5.379   3.719   9.330 -1.3872  0.0942 -0.4367
23819SOL     OW74954   5.215   2.224   5.577  0.5204 -0.1883  0.0122
23819SOL    HW174955   5.254   2.154   5.525 -0.2347  0.2003 -1.1310
23819SOL    HW274956   5.121   2.206   5.575  0.5540 -1.1610  2.7759
23820SOL     OW74957   9.052   9.777   1.711 -0.3386 -0.9596  0.1558
23820SOL    HW174958   9.027   9.844   1.648  0.4853 -3.5069 -3.2063
23820SOL    HW274959   9.110   9.822   1.773 -0.1293  1.4804 -1.6644
23821SOL     OW74960   5.120   4.153  10.356  0.5851  0.0685  0.0839
23821SOL    HW174961   5.053   4.220  10.368  0.1250 -0.2932 -0.4414
23821SOL    HW274962   5.168   4.179  10.278  0.7812  0.0956  0.2120
23822SOL     OW74963   9.230   5.456   8.585 -0.4564  0.5826 -0.4328
23822SOL    HW174964   9.261   5.441   8.496 -2.5511  0.6457 -1.2239
23822SOL    HW274965   9.275   5.389   8.637  1.2671  0.9313 -1.3795
23823SOL     OW74966   6.593   7.924  11.007 -0.5370 -0.3615 -0.3111
23823SOL    HW174967   6.544   7.882  11.078  0.0756 -0.1602  0.2445
23823SOL    HW274968   6.541   8.001  10.984 -1.3692 -1.0869 -0.9382
23824SOL     OW74969   5.341   3.542   3.093 -0.0779  0.3872 -0.3009
23824SOL    HW174970   5.326   3.502   3.179 -1.1731  0.4609 -0.4423
23824SOL    HW274971   5.394   3.478   3.045  0.0281  0.0791  0.2217
23825SOL     OW74972   0.094   8.275   5.024 -0.0413  0.1247 -0.2875
23825SOL    HW174973   0.027   8.206   5.024  1.8179 -1.7717 -0.1615
23825SOL    HW274974   0.114   8.290   4.932 -1.4030  1.5629 -0.3986
23826SOL     OW74975   8.595   5.848  10.258 -0.3742  0.1624  0.3393
23826SOL    HW174976   8.566   5.921  10.202 -0.6630  1.2733  1.8678
23826SOL    HW274977   8.691   5.848  10.249 -0.5020 -0.7385 -1.3901
23827SOL     OW74978  10.780   5.986   7.171 -0.2713  0.0262  0.5002
23827SOL    HW174979  10.813   6.048   7.236  1.1682 -0.7884  0.5689
23827SOL    HW274980  10.686   5.981   7.190 -0.0225  0.4137  1.9929
23828SOL     OW74981   1.003   7.073   9.107  0.0971  0.0329 -0.0818
23828SOL    HW174982   0.946   7.098   9.180 -1.1136  0.6599 -1.2099
23828SOL    HW274983   0.997   7.146   9.045 -0.0503 -1.1093 -1.4683
23829SOL     OW74984   0.036   8.458   6.451  0.0526  0.2697 -0.1856
23829SOL    HW174985  -0.050   8.451   6.409  0.1310 -2.2710 -0.0382
23829SOL    HW274986   0.028   8.534   6.510 -1.3121  1.4739 -1.8368
23830SOL     OW74987   3.511   8.108   5.294  0.0666 -0.6328  0.4277
23830SOL    HW174988   3.508   8.081   5.386  2.6659 -2.0516  0.2100
23830SOL    HW274989   3.497   8.027   5.245  2.2066 -0.6167 -0.3220
23831SOL     OW74990   5.158   5.734   4.272 -0.1341  0.1060 -0.3751
23831SOL    HW174991   5.189   5.788   4.199 -2.0686  0.3045 -1.1145
23831SOL    HW274992   5.065   5.720   4.253 -0.1938 -1.6275  0.9690
23832SOL     OW74993   2.551   9.720   1.511 -0.1131  0.2254  0.4335
23832SOL    HW174994   2.598   9.784   1.564  0.4687  1.6925 -1.7125
23832SOL    HW274995   2.614   9.696   1.442 -1.0445 -1.0754  0.0029
23833SOL     OW74996   1.609   4.038   0.829 -0.0658 -0.5162  0.3710
23833SOL    HW174997   1.537   4.066   0.774 -0.1318 -1.9150 -0.3177
23833SOL    HW274998   1.568   4.007   0.909 -0.1463 -0.3350  0.3985
23834SOL     OW74999   9.134   8.049   5.562 -0.4867  0.1472  0.3320
23834SOL    HW175000   9.209   8.103   5.585 -0.0190 -0.7926  1.0469
23834SOL    HW275001   9.068   8.071   5.628 -0.1631 -0.4254  0.8521
23835SOL     OW75002   8.725   4.257   0.909 -0.0149 -0.2457  0.1240
23835SOL    HW175003   8.791   4.188   0.898 -1.0051 -1.3012  0.5834
23835SOL    HW275004   8.725   4.275   1.003 -1.3139 -1.2313  0.3348
23836SOL     OW75005   2.208   1.897   0.832  0.3430 -0.1056 -0.6339
23836SOL    HW175006   2.121   1.885   0.794 -0.1115 -0.0209  0.3496
23836SOL    HW275007   2.204   1.853   0.917  1.3868 -0.4353 -0.7337
23837SOL     OW75008   9.159   1.094   6.389  0.6164  0.2400  0.2450
23837SOL    HW175009   9.073   1.125   6.420  0.1922 -0.2585 -0.4073
23837SOL    HW275010   9.152   1.096   6.294  1.3446  0.2086  0.1887
23838SOL     OW75011   9.603   2.960   7.071 -0.5401  0.0699 -0.3352
23838SOL    HW175012   9.626   3.010   6.993 -0.1340 -2.1917 -1.7682
23838SOL    HW275013   9.515   2.926   7.054  0.0494 -1.5135 -0.4573
23839SOL     OW75014   4.939   7.368   5.776  0.0956 -0.4158  0.1342
23839SOL    HW175015   4.901   7.285   5.748 -0.0112  0.0908 -1.3038
23839SOL    HW275016   5.028   7.367   5.742  0.6328 -0.5984  1.4858
23840SOL     OW75017   0.166   9.402   3.127 -1.3884 -0.6614 -0.1731
23840SOL    HW175018   0.086   9.349   3.137 -0.3521 -2.1404  0.6388
23840SOL    HW275019   0.232   9.341   3.094 -0.2801  0.2473  0.2867
23841SOL     OW75020   8.780   3.642   7.981  0.1437 -0.4481  0.7727
23841SOL    HW175021   8.744   3.704   7.917 -2.4376 -2.2142  0.3564
23841SOL    HW275022   8.794   3.561   7.931  1.0055 -0.9828  1.8351
23842SOL     OW75023  10.764   0.065   9.518  0.2429  0.2784 -0.0613
23842SOL    HW175024  10.782  -0.028   9.530 -0.7900  0.3597  2.7617
23842SOL    HW275025  10.732   0.072   9.427 -2.0731 -2.5582  0.3964
23843SOL     OW75026   2.052   4.500   6.449  0.4900  0.3534  0.0467
23843SOL    HW175027   2.125   4.470   6.503  1.4460  1.3932 -0.6148
23843SOL    HW275028   2.093   4.535   6.370 -0.7883  0.1691 -0.7274
23844SOL     OW75029   3.701   7.316   8.548  0.2273 -0.0912  0.5708
23844SOL    HW175030   3.619   7.269   8.561  0.3212 -0.1964  0.7815
23844SOL    HW275031   3.680   7.382   8.482  0.0737 -0.3791  0.3234
23845SOL     OW75032   3.793   9.094   9.041 -0.0460  0.4125  0.3335
23845SOL    HW175033   3.860   9.128   9.100 -0.5427  1.1957  0.4661
23845SOL    HW275034   3.794   8.999   9.056 -0.1759  0.5878  1.6312
23846SOL     OW75035   3.152   7.539   8.068  0.0517  0.2159  0.1476
23846SOL    HW175036   3.163   7.590   8.149 -0.6924 -1.0492  1.0869
23846SOL    HW275037   3.203   7.460   8.083  1.2100  0.6463 -1.2987
23847SOL     OW75038  10.796   0.949   8.484  0.0451  0.0407 -0.1008
23847SOL    HW175039  10.835   0.942   8.571 -0.6329  1.4330  0.3326
23847SOL    HW275040  10.870   0.938   8.424  0.6955  0.1655  0.6602
23848SOL     OW75041   5.189   6.115   6.350 -0.0431 -0.2348 -0.4299
23848SOL    HW175042   5.151   6.119   6.437 -0.4562  0.5609 -0.6404
23848SOL    HW275043   5.121   6.151   6.292  0.1901 -0.8289 -1.0919
23849SOL     OW75044   9.347   3.916   7.966  0.0918  0.6392 -0.3365
23849SOL    HW175045   9.278   3.887   7.905  1.6401 -0.8843 -1.4457
23849SOL    HW275046   9.317   3.887   8.052 -0.8499  0.4000 -0.7312
23850SOL     OW75047   6.665   6.924   8.675 -0.4080 -0.2072  0.2269
23850SOL    HW175048   6.623   6.954   8.594 -0.1768  0.7616  0.4433
23850SOL    HW275049   6.706   6.841   8.651 -0.4683 -0.0096 -0.6159
23851SOL     OW75050  10.495   6.294   6.156  0.1226  0.2132  0.0967
23851SOL    HW175051  10.472   6.386   6.143 -0.3790 -0.0528 -1.0084
23851SOL    HW275052  10.419   6.256   6.201  0.5678  0.4554  1.0715
23852SOL     OW75053   7.170   3.854   7.514  0.1260 -0.4342 -0.3748
23852SOL    HW175054   7.234   3.924   7.524 -1.5044  1.0390  0.1857
23852SOL    HW275055   7.182   3.800   7.592  0.9413 -0.4128 -0.4779
23853SOL     OW75056   9.121   3.720   3.409  0.0582 -0.1208 -0.4305
23853SOL    HW175057   9.052   3.738   3.345 -2.5683 -0.5424  2.0682
23853SOL    HW275058   9.171   3.647   3.371 -2.0686 -1.0851 -1.5255
23854SOL     OW75059   9.224   3.668  10.361 -0.0137 -0.3612 -0.3006
23854SOL    HW175060   9.259   3.619  10.436  0.2807 -0.1245 -0.2835
23854SOL    HW275061   9.136   3.694  10.389  0.8098  1.4570  0.7716
23855SOL     OW75062   8.124   6.925   0.103 -0.1004 -0.2592 -0.1134
23855SOL    HW175063   8.053   6.975   0.062 -0.3030  0.7393  1.3805
23855SOL    HW275064   8.196   6.932   0.041  0.0770  2.4512  0.2506
23856SOL     OW75065   5.374   5.537   8.452 -0.6259 -0.1995  0.6632
23856SOL    HW175066   5.403   5.620   8.414 -0.8436 -0.3821  0.0815
23856SOL    HW275067   5.327   5.562   8.531  0.7149  0.1291  1.3906
23857SOL     OW75068   9.306   6.554  10.315 -0.2149  0.7791 -0.1400
23857SOL    HW175069   9.281   6.643  10.337  1.3589  0.9455  1.1320
23857SOL    HW275070   9.384   6.563  10.260 -1.3824  0.2048 -2.0098
23858SOL     OW75071   1.096   9.327   8.660 -0.3727 -0.2119  0.1092
23858SOL    HW175072   1.171   9.385   8.648 -0.0772 -0.4313  0.8366
23858SOL    HW275073   1.123   9.268   8.730 -1.1532 -0.4261  0.2359
23859SOL     OW75074   0.589   9.868   2.207 -0.4285 -0.4831  0.3117
23859SOL    HW175075   0.537   9.826   2.275  0.4786  0.0728  1.3882
23859SOL    HW275076   0.661   9.910   2.254 -0.9494  1.7793 -0.7374
23860SOL     OW75077   2.922   3.621   7.333 -0.3461 -0.3017  0.1118
23860SOL    HW175078   2.969   3.549   7.291  0.8449 -0.3360  1.4244
23860SOL    HW275079   2.851   3.579   7.381 -0.3789 -0.4792 -0.0906
23861SOL     OW75080   7.439   8.966  10.829 -0.3523 -0.0614  0.2532
23861SOL    HW175081   7.532   8.945  10.815  0.1041  0.4891  2.1584
23861SOL    HW275082   7.400   8.883  10.857  0.2323  0.2951  2.2735
23862SOL     OW75083   2.490   8.706   1.515 -0.2750 -0.6681 -0.2429
23862SOL    HW175084   2.521   8.640   1.576  2.0489 -0.2882 -0.9310
23862SOL    HW275085   2.440   8.656   1.449  2.1639 -1.9436 -1.2450
23863SOL     OW75086  10.564   6.683   9.891  0.6660  0.3097  0.9433
23863SOL    HW175087  10.657   6.666   9.872  0.3265 -2.7702  1.5500
23863SOL    HW275088  10.519   6.664   9.809  0.4346 -0.0667  1.1509
23864SOL     OW75089  10.576   1.930   4.213  0.1152 -0.3147  0.3268
23864SOL    HW175090  10.528   1.946   4.295  0.8864  2.3109  0.3512
23864SOL    HW275091  10.536   1.989   4.150  1.0719 -0.6069 -0.5775
23865SOL     OW75092   9.570   2.634   0.023 -0.3017  0.2599  0.0835
23865SOL    HW175093   9.578   2.678  -0.062  1.0029 -0.6699 -0.3230
23865SOL    HW275094   9.550   2.543   0.000 -2.2392  0.4518  0.8750
23866SOL     OW75095   0.170   9.897   5.159 -0.2147 -0.2027  0.4171
23866SOL    HW175096   0.107   9.849   5.213 -0.3661 -0.7601 -0.2444
23866SOL    HW275097   0.130   9.901   5.072 -0.7212  2.1163  0.6912
23867SOL     OW75098   2.889   8.569   6.225 -0.3387  0.0610 -0.1768
23867SOL    HW175099   2.933   8.484   6.231 -0.5290 -0.0715 -0.6210
23867SOL    HW275100   2.955   8.626   6.186 -0.1914  0.1334  0.1730
23868SOL     OW75101   9.351   2.796   8.996 -0.1332 -0.1464  0.0664
23868SOL    HW175102   9.339   2.752   9.080 -0.9602  1.6158  0.9212
23868SOL    HW275103   9.365   2.724   8.933 -1.1480 -1.5895  1.4139
23869SOL     OW75104   7.304   0.831   5.257 -0.0414  0.3618 -0.2043
23869SOL    HW175105   7.210   0.828   5.277 -0.4202  0.5473 -1.7778
23869SOL    HW275106   7.328   0.923   5.270 -0.0127  0.2673  0.4362
23870SOL     OW75107   8.424   9.521   4.546 -0.7329  1.1638 -0.3134
23870SOL    HW175108   8.481   9.481   4.480 -2.1841  0.1256 -0.9938
23870SOL    HW275109   8.382   9.446   4.589 -1.9418  1.9196 -0.1554
23871SOL     OW75110   0.964  10.598  10.146  0.3873  0.1210  0.0688
23871SOL    HW175111   1.009  10.681  10.164  2.9572 -0.6698 -2.0757
23871SOL    HW275112   0.986  10.544  10.222  0.0694  0.8543  0.7077
23872SOL     OW75113   8.888   9.315   0.505 -0.3326 -0.2600  0.2379
23872SOL    HW175114   8.959   9.377   0.523 -0.2403 -0.5874  1.0341
23872SOL    HW275115   8.930   9.229   0.512 -0.8210 -0.4589  0.7505
23873SOL     OW75116   2.240   9.599   6.483 -0.0450  0.7872 -0.5265
23873SOL    HW175117   2.199   9.684   6.465 -1.7727  0.1823  0.3095
23873SOL    HW275118   2.287   9.612   6.565 -2.8021  0.2550  1.2886
23874SOL     OW75119   7.713   6.818   7.229  0.3979 -0.5698  0.1427
23874SOL    HW175120   7.654   6.757   7.274  0.5721 -0.0953  1.0594
23874SOL    HW275121   7.669   6.839   7.147 -0.2269 -1.0065  0.3594
23875SOL     OW75122  10.021   7.875   8.834 -0.1133  0.2432 -0.1787
23875SOL    HW175123   9.997   7.783   8.837  1.7999 -0.2577  1.2176
23875SOL    HW275124   9.967   7.916   8.902  0.4385 -0.2187  0.5452
23876SOL     OW75125   7.809   0.963   8.575  0.5815 -0.3953  0.3026
23876SOL    HW175126   7.832   0.907   8.501  1.2700  0.5732 -0.2398
23876SOL    HW275127   7.866   0.933   8.646  2.4485  0.8857 -0.5603
23877SOL     OW75128   2.783   8.554   7.963 -0.7067 -0.1043 -0.0506
23877SOL    HW175129   2.724   8.574   7.891 -0.4238  0.7862 -0.0469
23877SOL    HW275130   2.759   8.615   8.032 -0.8682 -0.8406  0.5610
23878SOL     OW75131   1.868   2.332   4.679 -0.0902  0.9628 -0.0849
23878SOL    HW175132   1.815   2.390   4.624  1.1217  2.4212  0.2272
23878SOL    HW275133   1.878   2.381   4.761  2.1944  0.9940 -0.3394
23879SOL     OW75134   1.194   4.561   7.932  0.2033  0.0920  0.2571
23879SOL    HW175135   1.254   4.630   7.903 -0.0240  0.7925  1.3989
23879SOL    HW275136   1.116   4.607   7.962  0.5321 -0.5369  2.2508
23880SOL     OW75137  10.648   7.733   2.365 -0.1187 -0.6890  0.4330
23880SOL    HW175138  10.604   7.676   2.428 -0.8669 -0.5808  0.0199
23880SOL    HW275139  10.730   7.689   2.345 -0.0262 -0.8862  1.2362
23881SOL     OW75140   4.898   5.747   9.356  0.1807 -0.1134 -0.2110
23881SOL    HW175141   4.841   5.728   9.281 -0.9788  1.7219  0.1350
23881SOL    HW275142   4.986   5.752   9.319 -0.0135 -1.7965 -0.9783
23882SOL     OW75143   9.891   0.503   4.323  0.0035  0.5212  0.0736
23882SOL    HW175144   9.881   0.410   4.340 -0.0500  0.4948 -0.1040
23882SOL    HW275145   9.916   0.540   4.408  0.9341  0.2126 -0.0509
23883SOL     OW75146   6.006   2.616   1.173 -0.2134 -0.6168 -0.1861
23883SOL    HW175147   6.033   2.536   1.129  1.2363 -1.3085  1.8080
23883SOL    HW275148   6.088   2.661   1.195 -0.8195 -0.3712  1.8165
23884SOL     OW75149   9.873   3.476   4.043  0.2978  0.5261 -0.2349
23884SOL    HW175150   9.811   3.537   4.084  0.4475  1.1493 -0.9059
23884SOL    HW275151   9.864   3.395   4.093 -1.6518  0.3298 -0.8200
23885SOL     OW75152   9.039   3.239   0.653 -0.1371  0.1186  0.0856
23885SOL    HW175153   8.997   3.160   0.687 -0.9186  0.5745  0.1981
23885SOL    HW275154   8.981   3.310   0.678  0.4022  0.7020 -0.2855
23886SOL     OW75155   4.070   2.939   3.831 -0.3421 -0.3396 -0.4268
23886SOL    HW175156   4.016   2.865   3.803 -0.6769  0.7425 -2.8383
23886SOL    HW275157   4.148   2.933   3.777 -0.9909  1.8074 -1.7127
23887SOL     OW75158   2.876   5.408   2.349 -0.6719 -0.3318 -0.0298
23887SOL    HW175159   2.921   5.421   2.432  0.7428  1.9225 -1.0436
23887SOL    HW275160   2.799   5.464   2.354  0.6530  1.6956 -1.0297
23888SOL     OW75161   7.294   2.277   9.758 -0.3705  0.0149  0.1682
23888SOL    HW175162   7.343   2.234   9.688 -1.3542 -0.5378 -0.1976
23888SOL    HW275163   7.297   2.370   9.736  0.9006  0.0564  0.4149
23889SOL     OW75164   8.190   0.607   6.313  0.0013 -0.3093  0.0210
23889SOL    HW175165   8.278   0.575   6.332  0.6060  0.2177 -1.7002
23889SOL    HW275166   8.175   0.582   6.222 -1.1186  0.7463 -0.1089
23890SOL     OW75167   5.873   7.170   1.555  0.2998 -1.0193 -0.0660
23890SOL    HW175168   5.793   7.132   1.519  1.2963 -2.6179 -0.7017
23890SOL    HW275169   5.880   7.256   1.513 -0.3473 -1.4510 -1.0888
23891SOL     OW75170   7.652   4.470   7.216  0.1319  0.7488 -1.0930
23891SOL    HW175171   7.666   4.559   7.246  0.8659  0.2653  0.0532
23891SOL    HW275172   7.559   4.467   7.192 -0.0850  1.5976 -0.3937
23892SOL     OW75173   1.692   4.332   5.016 -0.1746 -0.4816  0.1544
23892SOL    HW175174   1.668   4.389   4.943  0.9430 -0.5035 -0.2595
23892SOL    HW275175   1.744   4.262   4.975 -1.3251 -1.6922  0.6762
23893SOL     OW75176   2.934   3.115   6.940 -0.1841 -0.4863  0.3441
23893SOL    HW175177   2.977   3.199   6.956 -0.3111 -0.0418 -1.4028
23893SOL    HW275178   2.840   3.136   6.939 -0.2566 -0.7923  0.6420
23894SOL     OW75179   6.647   0.540   9.074  0.7539  0.0913  0.3409
23894SOL    HW175180   6.717   0.492   9.116  0.3433 -1.1783 -0.3765
23894SOL    HW275181   6.608   0.478   9.012 -0.4430  1.0295  0.1014
23895SOL     OW75182   9.210   6.889   8.416  0.4102 -0.2251 -0.4689
23895SOL    HW175183   9.173   6.880   8.329 -0.2198 -2.8308 -0.0332
23895SOL    HW275184   9.303   6.872   8.404  1.1070  3.2902 -1.1072
23896SOL     OW75185   5.372   5.702   6.238 -0.1937  0.4427  0.0694
23896SOL    HW175186   5.295   5.683   6.293 -1.5502 -1.5026 -2.3022
23896SOL    HW275187   5.441   5.647   6.275 -0.0548  1.7624  1.8728
23897SOL     OW75188   7.295   2.069   3.233  0.1684 -0.3930  0.4935
23897SOL    HW175189   7.201   2.086   3.235  0.4112  1.0847  0.7676
23897SOL    HW275190   7.303   1.975   3.247 -1.2931 -0.6435 -0.1971
23898SOL     OW75191   9.597   3.729   3.572  0.8140 -0.0147 -0.2300
23898SOL    HW175192   9.509   3.766   3.573 -0.3326 -2.4420 -1.1318
23898SOL    HW275193   9.586   3.640   3.606  3.1345 -0.0728  0.5839
23899SOL     OW75194   2.139   5.013   9.082 -0.1883 -0.1279 -0.4312
23899SOL    HW175195   2.195   5.061   9.143  1.8340 -0.0031 -2.2673
23899SOL    HW275196   2.199   4.956   9.034 -1.8324 -0.9207 -1.6516
23900SOL     OW75197   2.321   3.625   9.084 -0.1436  0.1437 -0.0260
23900SOL    HW175198   2.354   3.588   9.003 -0.1070  1.4732 -0.6422
23900SOL    HW275199   2.367   3.708   9.093 -1.4422  0.8456  0.4194
23901SOL     OW75200   4.763   1.732   1.928 -0.1291 -0.0852 -0.4856
23901SOL    HW175201   4.722   1.711   2.012  0.3809 -3.3042 -0.9015
23901SOL    HW275202   4.839   1.784   1.950 -0.0585 -0.8071  1.0665
23902SOL     OW75203   2.372   2.689   9.443  0.7446 -0.1097 -0.4781
23902SOL    HW175204   2.298   2.646   9.485 -0.2907  0.4733 -1.6382
23902SOL    HW275205   2.403   2.752   9.509 -0.0413 -0.0938 -0.1043
23903SOL     OW75206   8.269  10.567   7.170  0.4466 -0.4433  0.1152
23903SOL    HW175207   8.234  10.503   7.108  0.0732  0.8622 -1.0745
23903SOL    HW275208   8.206  10.639   7.168  1.6319  0.6367  0.2465
23904SOL     OW75209   7.699   4.894   7.780 -0.1502  0.1245  0.0294
23904SOL    HW175210   7.711   4.800   7.774 -2.8536 -0.2062 -2.8340
23904SOL    HW275211   7.766   4.931   7.722  1.0205  0.0164  1.2879
23905SOL     OW75212   5.316   4.633   3.023  0.4736  0.8013 -0.1563
23905SOL    HW175213   5.336   4.676   3.106  0.3345  1.4493 -0.4556
23905SOL    HW275214   5.221   4.639   3.015  0.2165 -1.2668  0.7163
23906SOL     OW75215   8.864   5.165   3.913  0.3118  0.2107 -0.1977
23906SOL    HW175216   8.885   5.223   3.841  0.2089  1.8307  1.0052
23906SOL    HW275217   8.877   5.218   3.992 -1.2108 -0.9371  0.9092
23907SOL     OW75218   0.610   4.545   0.327 -0.2801  0.3340  0.4016
23907SOL    HW175219   0.668   4.621   0.325  1.8131 -1.1612  0.5161
23907SOL    HW275220   0.667   4.471   0.303 -1.9890 -1.3395  1.2406
23908SOL     OW75221   9.903   2.626   4.569 -0.2588  0.0347 -0.0592
23908SOL    HW175222   9.877   2.679   4.493 -0.3680  0.0011 -0.0463
23908SOL    HW275223   9.904   2.687   4.642  1.3972  0.4134 -0.3577
23909SOL     OW75224   7.450  10.456   9.837 -0.0904  0.0780 -0.2051
23909SOL    HW175225   7.354  10.454   9.836 -0.1090  0.2524  0.5983
23909SOL    HW275226   7.471  10.548   9.851  0.2120  0.1462 -1.0621
23910SOL     OW75227   3.273   7.726   6.853 -0.8551  0.1606 -0.2014
23910SOL    HW175228   3.199   7.746   6.796  0.1195 -0.1035 -1.6009
23910SOL    HW275229   3.331   7.672   6.800 -1.5288 -3.2055  2.1739
23911SOL     OW75230   9.629   6.795   5.606  0.0029  0.4318 -0.0189
23911SOL    HW175231   9.607   6.874   5.557  0.8022  0.4841 -0.3018
23911SOL    HW275232   9.678   6.741   5.545 -0.3098 -0.1747  0.2564
23912SOL     OW75233   6.701   0.255   2.541 -0.3689 -0.0842  0.2609
23912SOL    HW175234   6.753   0.210   2.608  1.6072 -0.1344 -1.1989
23912SOL    HW275235   6.719   0.207   2.460 -0.9297  1.2603 -0.6981
23913SOL     OW75236   7.295   2.282   7.162 -0.2901 -0.3912 -0.3066
23913SOL    HW175237   7.360   2.219   7.191 -0.8028 -0.5257  0.5911
23913SOL    HW275238   7.332   2.367   7.186 -0.7692 -0.5061  0.9377
23914SOL     OW75239   9.350   8.026  10.184 -0.7465  0.4261 -0.5014
23914SOL    HW175240   9.344   8.102  10.243 -0.0312  1.5745 -1.8367
23914SOL    HW275241   9.439   8.031  10.148 -0.3748 -1.5732  0.0075
23915SOL     OW75242   0.449   9.672   5.202 -0.3390  0.1373 -0.1375
23915SOL    HW175243   0.378   9.735   5.190 -1.1636 -0.7097  0.1661
23915SOL    HW275244   0.405   9.588   5.212  0.6800 -0.3155  0.7429
23916SOL     OW75245   8.415   1.426   9.554 -0.0895  0.6944 -0.2747
23916SOL    HW175246   8.320   1.436   9.556 -0.1063  0.8992 -1.4307
23916SOL    HW275247   8.446   1.502   9.505  0.7060  0.7831  0.3332
23917SOL     OW75248   7.361   9.880   8.275 -0.1821  0.0292 -0.3884
23917SOL    HW175249   7.308   9.811   8.235  0.0447  0.0167 -0.6686
23917SOL    HW275250   7.451   9.851   8.265  0.0448  1.1577 -2.0705
23918SOL     OW75251   2.055   8.626   5.771 -0.3660  0.2148  0.0816
23918SOL    HW175252   2.105   8.704   5.746  1.7001 -0.5534  1.5558
23918SOL    HW275253   2.042   8.636   5.865 -0.6411 -0.9079  0.1664
23919SOL     OW75254   8.586   1.735   2.439  0.3711 -0.7836 -0.1037
23919SOL    HW175255   8.633   1.719   2.357 -0.0143 -1.6274 -0.1738
23919SOL    HW275256   8.638   1.691   2.505  0.7028 -0.0686  0.1183
23920SOL     OW75257   4.630   5.002   7.600 -0.1971 -0.0317 -0.2273
23920SOL    HW175258   4.648   4.980   7.508  0.0613  0.9619 -0.4268
23920SOL    HW275259   4.564   5.071   7.595  1.3931  1.5715  0.2463
23921SOL     OW75260   0.369   1.163   5.360  0.3893  0.2982 -0.2615
23921SOL    HW175261   0.392   1.209   5.279 -1.4983 -0.1039 -1.0720
23921SOL    HW275262   0.351   1.073   5.333 -0.3063  0.1674  0.5989
23922SOL     OW75263  10.788   9.182   2.789  0.2153 -0.1287  0.0741
23922SOL    HW175264  10.834   9.179   2.873 -0.1842  1.6447  0.4044
23922SOL    HW275265  10.735   9.261   2.794  1.1700  0.7762 -2.3628
23923SOL     OW75266   6.664   9.663   1.632 -0.0917  0.8957  0.3364
23923SOL    HW175267   6.690   9.576   1.661 -0.9978  0.3641 -0.3916
23923SOL    HW275268   6.728   9.722   1.672  1.6085 -0.2436 -0.6048
23924SOL     OW75269   3.906   3.498  10.483 -0.1006  0.6137  0.5447
23924SOL    HW175270   3.854   3.453  10.549  0.0356 -1.4778 -0.6633
23924SOL    HW275271   3.990   3.453  10.484  0.8191  2.2701  0.7110
23925SOL     OW75272   9.893  10.537   4.296  0.2536 -0.4931  0.8040
23925SOL    HW175273   9.813  10.486   4.283 -0.2505  0.6510 -0.9583
23925SOL    HW275274   9.866  10.610   4.352  0.1054 -0.1933  0.3403
23926SOL     OW75275   5.083   9.248   5.924 -0.5373  0.7278  0.0375
23926SOL    HW175276   5.140   9.318   5.892  0.3994 -1.1979 -2.9005
23926SOL    HW275277   5.120   9.168   5.887 -2.7401 -1.1217  1.5501
23927SOL     OW75278   2.362   5.062   1.878 -0.3697  0.0815 -0.2736
23927SOL    HW175279   2.273   5.028   1.886 -0.4197  0.1489 -0.5196
23927SOL    HW275280   2.394   5.023   1.797  0.7074 -1.9359  1.0347
23928SOL     OW75281  10.151   7.673   5.044 -0.3269 -0.0132 -0.9006
23928SOL    HW175282  10.108   7.591   5.065 -1.0094  0.7123  0.7282
23928SOL    HW275283  10.234   7.670   5.091 -0.4468  0.2887 -0.6571
23929SOL     OW75284   9.145  10.811   8.899 -0.5630  0.0303 -0.5191
23929SOL    HW175285   9.078  10.846   8.840 -1.8551  0.0322  0.8817
23929SOL    HW275286   9.197  10.753   8.844 -0.3188  1.6962 -2.1752
23930SOL     OW75287   3.957   8.932  10.525 -0.7867 -0.1595 -0.6245
23930SOL    HW175288   3.941   8.838  10.525  0.8336 -0.4753 -0.7044
23930SOL    HW275289   3.950   8.957  10.433 -0.9696 -0.2480 -0.6346
23931SOL     OW75290   1.228   9.953   9.403 -0.5095 -0.4506 -0.0444
23931SOL    HW175291   1.148   9.934   9.452 -0.3094 -0.7997  0.1528
23931SOL    HW275292   1.202  10.019   9.339 -1.1841 -1.2795 -0.6377
23932SOL     OW75293   1.146   3.145   8.149  0.5745  0.3367 -0.0711
23932SOL    HW175294   1.175   3.073   8.092  0.0559  0.3452 -0.3491
23932SOL    HW275295   1.222   3.202   8.155  1.2608 -0.6254  0.7902
23933SOL     OW75296   8.436  10.415   3.050  0.2889 -0.1774 -0.2521
23933SOL    HW175297   8.375  10.391   2.980  0.0988  1.2646 -0.6136
23933SOL    HW275298   8.388  10.398   3.131 -0.1431 -0.1821 -0.5075
23934SOL     OW75299  10.086   5.677   8.144  0.5989  0.0192 -0.5442
23934SOL    HW175300  10.125   5.704   8.227  1.0395  0.8668 -1.0115
23934SOL    HW275301  10.031   5.602   8.166  1.1793 -0.1399  0.4093
23935SOL     OW75302  10.786   3.948   7.842  0.3148 -0.4631 -0.0394
23935SOL    HW175303  10.754   3.980   7.927  1.3221 -1.9806  0.9534
23935SOL    HW275304  10.878   3.973   7.841 -0.3189  2.1811 -2.0456
23936SOL     OW75305  10.608   2.210   2.526  0.1881  0.4422  0.3862
23936SOL    HW175306  10.652   2.126   2.519  1.8064  1.3970 -2.2911
23936SOL    HW275307  10.678   2.273   2.545 -0.3406  1.6750 -1.4973
23937SOL     OW75308   1.072   2.329  10.842 -0.1821 -0.6344  0.0186
23937SOL    HW175309   1.150   2.340  10.897 -0.3829  2.1634 -0.1178
23937SOL    HW275310   1.105   2.330  10.753 -0.2917  0.2499 -0.0287
23938SOL     OW75311   4.157   6.120   8.540  0.1480 -0.3824  0.1043
23938SOL    HW175312   4.187   6.147   8.453 -4.6872  1.7501 -1.2163
23938SOL    HW275313   4.174   6.196   8.596 -0.5661 -0.0596 -0.0986
23939SOL     OW75314   5.650   0.242   2.931  0.3107  0.2971 -0.1797
23939SOL    HW175315   5.669   0.335   2.915 -1.0794  0.5154 -0.6744
23939SOL    HW275316   5.567   0.243   2.979  0.7589 -0.6668  0.6477
23940SOL     OW75317   8.605   6.899   3.978  0.1270  0.4567 -0.2905
23940SOL    HW175318   8.682   6.953   3.997  0.5457  0.0396 -0.7670
23940SOL    HW275319   8.628   6.812   4.010 -1.0902  0.8199  1.7851
23941SOL     OW75320   4.823   9.949   7.751 -0.0685  0.1067  0.0016
23941SOL    HW175321   4.806  10.006   7.676 -1.5587 -1.3430 -0.8263
23941SOL    HW275322   4.743   9.896   7.760  0.4975 -0.5146  1.9416
23942SOL     OW75323   3.939   1.415   1.109  0.0197  0.2880  0.4350
23942SOL    HW175324   3.942   1.498   1.063  0.9323 -0.9859 -1.9809
23942SOL    HW275325   3.897   1.355   1.048  0.1211 -1.2303  1.7724
23943SOL     OW75326   7.513   5.330   8.686  0.4574  0.4490 -0.0394
23943SOL    HW175327   7.469   5.407   8.722 -1.0034 -0.1750 -0.4242
23943SOL    HW275328   7.490   5.331   8.593  0.8557 -0.1693 -0.1497
23944SOL     OW75329   4.030   1.983   1.579  0.1633  0.2933 -0.7825
23944SOL    HW175330   4.035   1.928   1.501 -0.5155 -0.0436 -0.5900
23944SOL    HW275331   4.106   1.957   1.631  0.5140  0.3874 -1.2410
23945SOL     OW75332   5.407   5.779   8.366  0.0561 -0.1146 -0.1190
23945SOL    HW175333   5.341   5.826   8.417  0.1387 -1.5429  1.3801
23945SOL    HW275334   5.486   5.832   8.372  0.0752 -0.2718  1.3130
23946SOL     OW75335   9.185   1.655   8.102  0.1366 -0.7078  0.2296
23946SOL    HW175336   9.241   1.733   8.104  0.4663 -0.9558  1.0467
23946SOL    HW275337   9.096   1.690   8.090  0.3197 -0.2348  0.2054
23947SOL     OW75338  10.572   6.055   5.715  0.2607  0.2377  0.3334
23947SOL    HW175339  10.499   5.996   5.735 -1.0476  1.5652 -0.3655
23947SOL    HW275340  10.609   6.021   5.634  1.5599 -1.4364  1.5481
23948SOL     OW75341   3.485   3.882   4.156  0.0325 -0.0346 -0.6858
23948SOL    HW175342   3.564   3.832   4.177  0.0812  0.0787 -0.6009
23948SOL    HW275343   3.419   3.816   4.135 -0.1888 -0.1643  0.3872
23949SOL     OW75344   4.680   5.665   7.807  0.3460  0.4275  0.6094
23949SOL    HW175345   4.644   5.707   7.729  0.5341 -1.5768 -0.5949
23949SOL    HW275346   4.611   5.605   7.836  1.3956 -0.9810  0.2455
23950SOL     OW75347   4.255   4.711   3.207  0.4486  0.4017  0.6802
23950SOL    HW175348   4.304   4.788   3.234 -1.1331  1.2471  1.2635
23950SOL    HW275349   4.167   4.723   3.244 -1.0034  0.1907 -2.3396
23951SOL     OW75350   7.100   9.848   5.968  0.5973 -0.1445 -0.7837
23951SOL    HW175351   7.047   9.926   5.986  0.4869 -0.7932  2.2118
23951SOL    HW275352   7.182   9.883   5.931 -0.3132  1.1578 -1.6876
23952SOL     OW75353   0.060   4.070   9.241 -0.1519 -0.0863  0.4156
23952SOL    HW175354  -0.019   4.061   9.294 -1.3760 -0.4142 -1.3731
23952SOL    HW275355   0.058   4.160   9.209  0.7801  0.2285  1.2008
23953SOL     OW75356   4.614   6.372   3.212  0.1695 -0.4015  0.3247
23953SOL    HW175357   4.704   6.397   3.192 -0.4260  1.2327 -0.4381
23953SOL    HW275358   4.574   6.451   3.248 -1.0879 -0.9739  0.2367
23954SOL     OW75359   3.886   9.358   6.533  0.4769 -0.0338 -0.2196
23954SOL    HW175360   3.881   9.297   6.606 -0.1148 -0.4036 -0.5574
23954SOL    HW275361   3.945   9.427   6.563  1.8491 -1.1804 -0.1303
23955SOL     OW75362   3.526   4.009   0.441  0.9426 -0.0063 -0.0477
23955SOL    HW175363   3.490   3.921   0.434 -0.2113  0.4333 -0.0316
23955SOL    HW275364   3.606   3.999   0.493 -0.6792 -0.6905  2.5158
23956SOL     OW75365   0.236   9.420   1.172  0.4071  0.4266  0.2435
23956SOL    HW175366   0.264   9.348   1.114  1.5530  0.6715  0.4578
23956SOL    HW275367   0.278   9.498   1.135  0.3551  0.7463  0.8485
23957SOL     OW75368   7.237   3.272   3.221  0.2651  0.5010 -0.0126
23957SOL    HW175369   7.270   3.232   3.140  0.5985 -0.0444  0.3834
23957SOL    HW275370   7.192   3.351   3.192  0.3386  0.2861 -0.7376
23958SOL     OW75371   7.648   5.433   6.926  0.4744  0.2857 -0.4951
23958SOL    HW175372   7.657   5.446   6.832  2.0480 -0.5944 -0.4863
23958SOL    HW275373   7.698   5.505   6.965  1.1360 -0.2432 -0.3585
23959SOL     OW75374   0.089  10.390   6.844 -0.0548 -0.1090  0.1569
23959SOL    HW175375   0.051  10.305   6.865  1.3707 -0.7982  0.0377
23959SOL    HW275376   0.018  10.438   6.801 -1.5533 -0.4248  2.1316
23960SOL     OW75377   7.742   5.144   3.228 -0.7214 -0.5165 -0.2435
23960SOL    HW175378   7.742   5.048   3.231  0.0346 -0.5745 -1.4145
23960SOL    HW275379   7.739   5.165   3.135 -0.8599  0.6095 -0.0005
23961SOL     OW75380   3.487   0.974   8.455  0.2600  0.1278 -0.2658
23961SOL    HW175381   3.393   0.977   8.438  0.4878  1.7560 -1.6034
23961SOL    HW275382   3.502   0.888   8.493 -1.6332 -0.5437 -0.9004
23962SOL     OW75383   6.983   9.772   8.536 -0.3559  0.4821 -0.1985
23962SOL    HW175384   6.941   9.806   8.615 -1.8183 -3.0620  0.7620
23962SOL    HW275385   7.071   9.808   8.537 -0.7590  1.5564  2.3573
23963SOL     OW75386   2.132   9.534   9.360  0.4187 -0.7839  0.0917
23963SOL    HW175387   2.123   9.501   9.270 -1.5473 -1.0903  0.3496
23963SOL    HW275388   2.082   9.472   9.413  0.6082  0.0296  1.2547
23964SOL     OW75389   1.673   8.655  10.260  0.3257 -0.2273  0.2166
23964SOL    HW175390   1.766   8.655  10.237  0.3694  0.7493  0.3216
23964SOL    HW275391   1.628   8.635  10.178  0.5927  0.4553 -0.1062
23965SOL     OW75392   1.326  10.449   7.027 -0.0296 -0.6759 -0.2127
23965SOL    HW175393   1.238  10.447   7.065  0.0899 -1.2057  0.0442
23965SOL    HW275394   1.384  10.427   7.099  0.2766 -0.7879 -0.4882
23966SOL     OW75395   5.081   4.959   4.813  0.3048  0.4189  0.5349
23966SOL    HW175396   5.093   4.934   4.904 -0.3787 -1.2190  0.2093
23966SOL    HW275397   5.045   4.881   4.771 -0.4343  1.4842 -0.9070
23967SOL     OW75398   2.006   4.750   3.098 -0.1940 -0.0594  0.2811
23967SOL    HW175399   2.070   4.808   3.139  0.9279 -0.6964 -0.5488
23967SOL    HW275400   1.929   4.806   3.085  0.9180  1.3048 -0.6714
23968SOL     OW75401   5.290   8.780   7.324  0.0027  0.2803 -0.1685
23968SOL    HW175402   5.313   8.800   7.234 -0.4845  1.8477  0.0183
23968SOL    HW275403   5.353   8.829   7.377 -0.2013  0.0062  0.3431
23969SOL     OW75404   4.894   0.603   4.141 -0.4342  0.2184  0.0534
23969SOL    HW175405   4.864   0.691   4.119 -0.5445  0.2942  0.4871
23969SOL    HW275406   4.863   0.549   4.069 -1.0941  0.3993  0.1913
23970SOL     OW75407   9.866   5.719   4.226 -0.0592  0.1190 -0.5316
23970SOL    HW175408   9.805   5.657   4.266  0.4825  0.3398  0.6808
23970SOL    HW275409   9.908   5.670   4.156 -0.4149 -0.5492 -0.2849
23971SOL     OW75410   5.110   8.117   6.478 -0.1586  0.0941 -0.0260
23971SOL    HW175411   5.074   8.202   6.502 -0.6729 -0.5028  1.4178
23971SOL    HW275412   5.168   8.135   6.405 -0.8021  1.5782 -0.1924
23972SOL     OW75413   1.391   6.039  10.266  0.0781 -0.6441 -0.0722
23972SOL    HW175414   1.327   6.107  10.286 -0.4698 -1.0176 -0.5553
23972SOL    HW275415   1.473   6.087  10.251 -1.1421  0.4657 -4.9626
23973SOL     OW75416   0.357  10.395   9.419 -0.1920 -0.5006  0.0849
23973SOL    HW175417   0.296  10.409   9.346  0.4728  0.3962 -0.3244
23973SOL    HW275418   0.414  10.472   9.417  0.7927 -1.1981  0.6137
23974SOL     OW75419   4.788   5.714   7.460  0.3717 -0.3413  0.7466
23974SOL    HW175420   4.801   5.719   7.365  1.2323  0.5213  0.9002
23974SOL    HW275421   4.698   5.743   7.473  1.1402  2.3979  0.4222
23975SOL     OW75422   7.429   2.891   6.471  0.0775  0.1438  0.4438
23975SOL    HW175423   7.506   2.873   6.417  0.3854 -0.3489  1.0398
23975SOL    HW275424   7.439   2.834   6.547 -1.4920 -0.8199 -0.0368
23976SOL     OW75425   8.621   9.585   8.105 -0.1222  0.0620 -0.0694
23976SOL    HW175426   8.695   9.529   8.082 -1.0496 -1.7263  1.1210
23976SOL    HW275427   8.557   9.571   8.035  0.1385  0.6422 -0.4352
23977SOL     OW75428   0.639   6.570   0.811 -0.0028 -0.2663  0.2904
23977SOL    HW175429   0.588   6.652   0.813  1.4130  0.7779 -2.0817
23977SOL    HW275430   0.691   6.572   0.891 -0.0831  1.1259  0.3337
23978SOL     OW75431   6.192   3.750   6.970 -0.1606  0.6123 -0.3318
23978SOL    HW175432   6.195   3.846   6.977 -1.3359  0.5715  1.0720
23978SOL    HW275433   6.284   3.723   6.970  0.2144  1.5741  2.3455
23979SOL     OW75434  10.726   7.596   4.838 -0.0942  0.1319  0.4922
23979SOL    HW175435  10.762   7.611   4.926  1.6396 -0.8189 -0.0043
23979SOL    HW275436  10.784   7.646   4.781  1.0776 -2.1520 -0.4373
23980SOL     OW75437  10.458  10.903   8.936  0.3650  0.1992 -0.0231
23980SOL    HW175438  10.417  10.819   8.912  2.2577 -0.4486 -1.2058
23980SOL    HW275439  10.425  10.965   8.871 -0.7366  0.3074  0.6172
23981SOL     OW75440   7.364  10.631   1.978 -0.3135  0.2817 -0.1844
23981SOL    HW175441   7.285  10.682   1.963 -0.9268 -1.0989 -2.0105
23981SOL    HW275442   7.422  10.654   1.905  0.6643  0.6747  0.6916
23982SOL     OW75443   0.436   5.879   9.136 -0.0572 -0.5986 -0.5474
23982SOL    HW175444   0.434   5.848   9.046  0.9098 -0.9989 -0.4486
23982SOL    HW275445   0.466   5.802   9.186  0.5190 -0.0573 -0.0451
23983SOL     OW75446   4.874   4.570   7.704  0.7991 -0.7450  0.7317
23983SOL    HW175447   4.889   4.641   7.766  0.0583  0.2321 -0.1709
23983SOL    HW275448   4.788   4.588   7.666  1.6063 -0.7619 -1.2641
23984SOL     OW75449   0.957  10.582   9.024  0.2366 -0.0754  0.2398
23984SOL    HW175450   0.951  10.651   9.089 -1.9724 -0.3729  0.4449
23984SOL    HW275451   0.867  10.569   8.994  1.0389 -0.5722 -2.2415
23985SOL     OW75452   2.083   9.817   9.354 -0.2943 -0.1283 -0.0245
23985SOL    HW175453   2.036   9.790   9.433 -0.5394 -0.5808 -0.3206
23985SOL    HW275454   2.127   9.737   9.324  0.2291  0.1653 -0.0515
23986SOL     OW75455   9.673   9.175   2.400 -0.0443 -0.8992 -0.3829
23986SOL    HW175456   9.593   9.125   2.417  0.5344 -1.5058  0.6794
23986SOL    HW275457   9.667   9.199   2.308 -1.1596 -1.4617 -0.4758
23987SOL     OW75458   8.187  10.960   2.436 -0.0677 -0.1688 -0.5213
23987SOL    HW175459   8.190  10.951   2.531  0.9146  0.0764 -0.5158
23987SOL    HW275460   8.177  10.871   2.404  0.2960 -0.3232 -0.2085
23988SOL     OW75461   8.928   5.332   8.609  0.3557  0.5836 -0.8193
23988SOL    HW175462   8.891   5.297   8.528 -0.3351  1.1374 -0.7614
23988SOL    HW275463   9.021   5.342   8.591  0.3068  0.1447 -1.3425
23989SOL     OW75464   3.433   7.052   9.060  0.3318 -0.1241 -0.3641
23989SOL    HW175465   3.498   7.005   9.007  1.6639  0.8397  0.3725
23989SOL    HW275466   3.350   7.035   9.015  1.0593 -1.4318 -1.3052
23990SOL     OW75467   9.817   0.050   5.057 -0.0790 -0.1664  0.3136
23990SOL    HW175468   9.913   0.055   5.061 -0.1140  1.2258 -0.0926
23990SOL    HW275469   9.788   0.141   5.063 -1.4110 -0.6098  0.9307
23991SOL     OW75470   2.899   5.258   1.940  0.2952 -0.1024 -0.8712
23991SOL    HW175471   2.934   5.304   1.864  2.1992  0.9940  0.5690
23991SOL    HW275472   2.939   5.302   2.015 -1.2853 -1.3107  0.7781
23992SOL     OW75473   7.219   9.337   8.327 -0.5854  0.0602 -0.4611
23992SOL    HW175474   7.135   9.326   8.371 -0.5168  1.4684  0.0708
23992SOL    HW275475   7.209   9.291   8.244 -1.3823 -0.9975  0.2036
23993SOL     OW75476   9.255   6.055   2.094  0.3503  0.5636  0.1098
23993SOL    HW175477   9.286   6.017   2.012  0.6331  0.9872  0.0141
23993SOL    HW275478   9.204   6.131   2.067  0.9282  1.0421  0.3382
23994SOL     OW75479   7.815   4.684   6.496 -0.0339 -0.1618 -0.2684
23994SOL    HW175480   7.886   4.634   6.458 -1.1542 -1.1448 -1.1251
23994SOL    HW275481   7.838   4.692   6.589  1.8802  0.7955 -0.7825
23995SOL     OW75482   9.784   2.939   5.318  0.0104 -0.8667  0.2200
23995SOL    HW175483   9.825   3.022   5.293 -0.8153  0.3133  2.4078
23995SOL    HW275484   9.692   2.951   5.294 -0.1851 -0.9746  0.9033
23996SOL     OW75485   1.044   6.422   2.510 -0.0253 -0.4876  0.2850
23996SOL    HW175486   1.007   6.374   2.584 -0.0755 -0.6031  0.1856
23996SOL    HW275487   0.981   6.492   2.493 -0.1437 -0.6156  0.1889
23997SOL     OW75488   3.621  10.498   8.675 -0.1760  0.1009 -0.2343
23997SOL    HW175489   3.608  10.446   8.595 -2.3061 -2.5296  1.6496
23997SOL    HW275490   3.686  10.448   8.724 -0.0587  0.8483  0.3807
23998SOL     OW75491   0.221   1.559  10.725  0.2414 -0.2846 -0.2206
23998SOL    HW175492   0.234   1.482  10.670 -0.2720  0.6480 -1.7088
23998SOL    HW275493   0.238   1.633  10.666 -0.0700  0.7524  0.9576
23999SOL     OW75494   0.158  10.717   3.334  0.1622  0.4833 -0.6602
23999SOL    HW175495   0.110  10.716   3.252 -1.9400  2.0785  0.4467
23999SOL    HW275496   0.215  10.794   3.327  0.8079 -0.0295 -1.0529
24000SOL     OW75497   9.094   5.637   0.286  1.0064  0.2500  0.1133
24000SOL    HW175498   9.167   5.631   0.348  1.8914  0.3603 -0.9016
24000SOL    HW275499   9.124   5.697   0.218 -0.6132  1.5170  0.4457
24001SOL     OW75500   0.978   1.194   4.312  0.1704 -0.2507  0.4220
24001SOL    HW175501   1.056   1.199   4.257 -1.3009  2.1140 -1.6244
24001SOL    HW275502   0.986   1.268   4.372 -0.5289  0.0869  0.1136
24002SOL     OW75503   6.597   0.870   1.932 -0.6564 -0.2024 -0.0074
24002SOL    HW175504   6.558   0.810   1.995 -0.3393 -0.0784  0.3089
24002SOL    HW275505   6.692   0.857   1.940 -0.6309 -1.4117 -1.6571
24003SOL     OW75506   6.150   0.127   3.459 -0.4372 -0.5007  0.3960
24003SOL    HW175507   6.191   0.177   3.388  0.7317 -1.5569  0.2836
24003SOL    HW275508   6.088   0.188   3.499 -1.4189  0.0109 -1.7533
24004SOL     OW75509   6.772   0.167   8.292 -0.6224  0.0568  0.3331
24004SOL    HW175510   6.861   0.200   8.308 -0.6327  1.3684 -1.8440
24004SOL    HW275511   6.731   0.235   8.238 -1.7026 -2.1685 -1.8313
24005SOL     OW75512   7.414  10.773   7.785  0.6489  0.3223 -0.2793
24005SOL    HW175513   7.328  10.798   7.820  0.7358  0.7927 -0.4001
24005SOL    HW275514   7.395  10.738   7.698  0.6439  1.0642 -0.5875
24006SOL     OW75515   2.711  10.808   3.039 -0.0865 -0.2525 -0.0210
24006SOL    HW175516   2.773  10.879   3.052  0.7469 -1.0051  0.2150
24006SOL    HW275517   2.627  10.843   3.068  0.8466 -0.3606  3.2407
24007SOL     OW75518   6.984   5.193   9.882 -0.7219 -0.6890  0.6883
24007SOL    HW175519   6.940   5.163   9.962 -0.4919 -1.3313  0.5790
24007SOL    HW275520   7.062   5.138   9.876 -0.6109 -0.4763  0.1538
24008SOL     OW75521   7.262   8.392   2.198 -0.4883 -0.2776 -0.0178
24008SOL    HW175522   7.274   8.466   2.258 -1.6413  0.7345 -0.9929
24008SOL    HW275523   7.350   8.355   2.188 -0.0782  0.2270  1.3796
24009SOL     OW75524   6.612   6.181   7.317  0.5556  0.3742  0.2173
24009SOL    HW175525   6.603   6.164   7.411  0.3815 -0.2784  0.0813
24009SOL    HW275526   6.694   6.229   7.310  1.3400 -0.8766  0.5497
24010SOL     OW75527   1.921   0.400   3.756 -0.3309  0.0425  0.7003
24010SOL    HW175528   2.011   0.369   3.747 -0.1875  0.8363 -0.9657
24010SOL    HW275529   1.870   0.321   3.773  0.5508 -0.5403  0.7108
24011SOL     OW75530   0.589   6.020   9.748  0.5998  0.1703 -0.4968
24011SOL    HW175531   0.651   6.007   9.676 -0.2482 -1.2759 -1.0335
24011SOL    HW275532   0.547   6.103   9.728  1.4569  0.5341 -0.8305
24012SOL     OW75533   9.251   7.732   7.427  0.4989  0.0991  0.4879
24012SOL    HW175534   9.156   7.727   7.435  0.6112 -0.2683  1.8309
24012SOL    HW275535   9.280   7.641   7.423  0.8175  0.2041  0.3430
24013SOL     OW75536   0.413   8.264   2.140 -0.1313  0.1332  0.0803
24013SOL    HW175537   0.321   8.289   2.147 -0.0363  0.8087 -0.9076
24013SOL    HW275538   0.443   8.258   2.231 -0.3679  2.9208  0.4436
24014SOL     OW75539   2.099   9.113  10.720 -0.4989  0.7892 -0.1042
24014SOL    HW175540   2.116   9.024  10.689  1.4762  0.6958  1.1115
24014SOL    HW275541   2.035   9.102  10.790 -2.3210  0.6562 -1.7145
24015SOL     OW75542   6.284   5.718   3.840 -0.0464  0.4361  0.2328
24015SOL    HW175543   6.336   5.665   3.901  0.0499  0.6899  0.3707
24015SOL    HW275544   6.244   5.785   3.895  0.3234  0.8798 -0.0390
24016SOL     OW75545   9.601   3.559   8.949  0.5085  0.5575  0.1839
24016SOL    HW175546   9.572   3.519   9.031  1.7922 -0.6580  0.0682
24016SOL    HW275547   9.618   3.651   8.972 -0.0367  0.4569  1.0396
24017SOL     OW75548   2.474   0.172   4.397 -0.8320 -0.2329  0.5036
24017SOL    HW175549   2.474   0.206   4.487  0.2257  0.9527  0.0948
24017SOL    HW275550   2.561   0.135   4.385 -1.7549 -2.6342  0.7169
24018SOL     OW75551   9.305   7.830   8.909  0.4702 -0.8994 -0.8632
24018SOL    HW175552   9.215   7.797   8.915  0.2991 -0.6182 -1.7899
24018SOL    HW275553   9.360   7.752   8.919  0.1426 -1.0306  0.0363
24019SOL     OW75554   6.351   5.948   2.017  0.0455 -0.2225  0.2427
24019SOL    HW175555   6.411   5.954   2.092 -0.3278  2.5632  0.4370
24019SOL    HW275556   6.265   5.963   2.055 -0.1559  1.1636 -0.6650
24020SOL     OW75557   3.566   4.898   1.000 -0.0912 -0.0031  0.1799
24020SOL    HW175558   3.631   4.956   1.041 -0.1085 -0.1337  0.3920
24020SOL    HW275559   3.595   4.890   0.909 -0.3842  0.7651  0.0145
24021SOL     OW75560   7.436   1.290   6.352  0.2842 -0.2841 -0.7560
24021SOL    HW175561   7.360   1.326   6.307  0.9979  2.6382  0.1787
24021SOL    HW275562   7.430   1.324   6.441  2.9838  0.5871 -0.8215
24022SOL     OW75563   1.999   8.533   2.820 -0.6525 -0.3876  0.3348
24022SOL    HW175564   2.011   8.578   2.903 -0.8531 -0.5544  0.4575
24022SOL    HW275565   1.963   8.600   2.761  1.3667  0.2824 -0.2199
24023SOL     OW75566   4.047   6.216   8.117  0.2787  0.7698 -0.4799
24023SOL    HW175567   4.060   6.219   8.212 -0.6508 -0.4099 -0.2847
24023SOL    HW275568   3.966   6.265   8.103 -0.4495 -0.3818 -0.4478
24024SOL     OW75569   4.094   2.282   6.716 -0.1429  0.2220 -0.2606
24024SOL    HW175570   3.999   2.299   6.717 -0.2597 -0.3273 -1.0937
24024SOL    HW275571   4.105   2.213   6.651  0.8238  0.1994 -0.0811
24025SOL     OW75572   9.456   5.291   6.657  0.5552 -0.5047  0.0215
24025SOL    HW175573   9.421   5.340   6.731 -1.2198 -2.0814  0.3045
24025SOL    HW275574   9.551   5.300   6.664  0.3846 -0.0433  2.0922
24026SOL     OW75575   3.294  10.525   2.426 -0.0390  0.4181  0.2455
24026SOL    HW175576   3.299  10.574   2.508  0.0915 -0.5057  0.8138
24026SOL    HW275577   3.307  10.433   2.453 -1.6354 -0.0867 -0.5869
24027SOL     OW75578   0.868   1.994   7.027  0.3587  0.1497  0.0837
24027SOL    HW175579   0.925   1.991   7.104 -0.9257  1.7984  1.1730
24027SOL    HW275580   0.881   2.082   6.991 -1.1025  0.3794  0.0563
24028SOL     OW75581   6.686   8.024   0.318  0.1883 -0.3441 -0.2029
24028SOL    HW175582   6.720   7.975   0.242 -0.8291 -0.6786 -0.4584
24028SOL    HW275583   6.736   7.989   0.392  0.9850 -0.2299 -0.6671
24029SOL     OW75584  10.280   2.990   1.045 -0.6209 -0.4642 -0.2623
24029SOL    HW175585  10.291   3.067   1.101 -0.7756 -0.3254 -0.4199
24029SOL    HW275586  10.194   3.002   1.005  0.3149  0.5484 -2.1712
24030SOL     OW75587   6.515   5.726   5.999 -0.8055  0.1292  0.2156
24030SOL    HW175588   6.580   5.765   6.058 -0.0617  0.3252 -0.7151
24030SOL    HW275589   6.436   5.778   6.013  0.0077  1.6460 -0.5936
24031SOL     OW75590   7.122   4.438   4.350  0.5304 -0.2729  0.0261
24031SOL    HW175591   7.079   4.359   4.316 -0.2190 -0.0717  0.4906
24031SOL    HW275592   7.114   4.501   4.279  1.6827 -0.7896 -0.5913
24032SOL     OW75593   3.981   7.724   5.682  0.0967 -0.1911  0.6180
24032SOL    HW175594   3.885   7.719   5.684  0.1279 -1.6550  3.4754
24032SOL    HW275595   4.010   7.635   5.701  2.0658  0.2609 -0.0122
24033SOL     OW75596   8.198   7.511   9.311  0.3098 -0.1048  0.0447
24033SOL    HW175597   8.161   7.597   9.329  0.2287  0.0642 -0.8905
24033SOL    HW275598   8.136   7.470   9.251  1.4362  0.0486 -1.2714
24034SOL     OW75599   9.195  10.027   0.305 -0.3525 -0.0774 -0.3435
24034SOL    HW175600   9.237   9.954   0.260 -1.2146 -1.1589  0.5432
24034SOL    HW275601   9.136   9.986   0.368 -1.7530  1.3709 -0.6203
24035SOL     OW75602   9.049   3.571   9.297 -0.7210  0.1273 -0.9283
24035SOL    HW175603   9.068   3.626   9.221 -0.5228 -0.1679 -1.0972
24035SOL    HW275604   9.116   3.594   9.361 -1.8038  1.4938 -0.2384
24036SOL     OW75605   7.051  10.898   4.488 -0.5680  0.4866 -0.0203
24036SOL    HW175606   7.006  10.954   4.551  0.2659  1.4133 -0.2088
24036SOL    HW275607   7.041  10.942   4.404  0.9000  0.8934 -0.0215
24037SOL     OW75608   1.967  10.613   2.497  0.2544 -0.0176 -0.5075
24037SOL    HW175609   2.056  10.582   2.513  0.0417 -0.4495 -0.1370
24037SOL    HW275610   1.912  10.537   2.513 -0.2773  0.5376  0.3831
24038SOL     OW75611   1.346   9.089   0.150 -0.4458 -0.0790  0.2960
24038SOL    HW175612   1.300   9.095   0.066  0.2144  1.5600 -0.0010
24038SOL    HW275613   1.312   9.163   0.200  1.2096  0.6543  0.3878
24039SOL     OW75614  10.539   0.879   5.135  0.0314  0.0118 -0.4367
24039SOL    HW175615  10.577   0.807   5.186 -1.5070 -0.8783 -0.4714
24039SOL    HW275616  10.603   0.895   5.066  1.8500  0.7800  1.3179
24040SOL     OW75617   0.301   4.340   5.504  0.2028  0.0737 -0.0292
24040SOL    HW175618   0.377   4.399   5.507  0.9691 -0.6588 -2.5499
24040SOL    HW275619   0.226   4.399   5.496  0.4869  0.7987  2.0951
24041SOL     OW75620   4.738   3.158   1.923  0.4585 -0.2121  0.1073
24041SOL    HW175621   4.727   3.140   1.830 -0.0488  1.2387 -0.1344
24041SOL    HW275622   4.833   3.159   1.936  0.5257 -1.0172 -0.2571
24042SOL     OW75623   2.529   2.867   0.938  0.6762 -0.2945  0.1050
24042SOL    HW175624   2.437   2.892   0.946  0.6425 -0.0689 -0.8784
24042SOL    HW275625   2.539   2.793   0.997 -0.6558 -1.6294 -1.2385
24043SOL     OW75626   5.142   8.032   0.546 -0.1394  0.4528  0.7885
24043SOL    HW175627   5.096   8.107   0.508  0.6541  0.2828 -0.5942
24043SOL    HW275628   5.201   8.069   0.611 -0.7229  0.8776  1.0789
24044SOL     OW75629   6.952   6.718   3.866 -0.6217 -0.3287  0.7746
24044SOL    HW175630   6.866   6.746   3.898 -0.4765 -1.3582  2.1553
24044SOL    HW275631   6.946   6.728   3.771 -1.8836  0.6435  0.9231
24045SOL     OW75632   9.815   0.614   1.200 -0.0451  0.2143  0.4872
24045SOL    HW175633   9.756   0.654   1.264  0.4744  0.6046  0.7241
24045SOL    HW275634   9.772   0.629   1.116 -0.7926 -0.4107  0.7430
24046SOL     OW75635   6.945   1.925   3.136  0.1597  0.0448 -0.3980
24046SOL    HW175636   6.875   1.921   3.070 -0.4539 -1.3110  0.3028
24046SOL    HW275637   7.021   1.886   3.094 -0.6068 -2.1033  0.1008
24047SOL     OW75638   8.773   5.569   2.956  0.1941  0.0789 -0.6201
24047SOL    HW175639   8.748   5.624   2.882  1.8697  0.2249 -1.1086
24047SOL    HW275640   8.703   5.583   3.020 -0.6784  0.8514 -1.6952
24048SOL     OW75641   4.772   1.170  10.088  0.4724 -0.3219  0.2726
24048SOL    HW175642   4.794   1.084  10.124  0.9568 -1.2628 -2.1066
24048SOL    HW275643   4.854   1.202  10.049  0.5951  1.7782  2.0321
24049SOL     OW75644  10.136   2.957   2.087  0.7652  0.4731  0.5534
24049SOL    HW175645  10.211   2.931   2.140  0.6822  0.4686  0.6679
24049SOL    HW275646  10.126   2.886   2.023  1.0973  0.6600  0.2876
24050SOL     OW75647   7.371   7.404   5.495 -0.2202 -0.0393 -0.0783
24050SOL    HW175648   7.391   7.464   5.424 -1.5016  0.3951 -0.1079
24050SOL    HW275649   7.291   7.360   5.467  0.7447 -1.8624 -0.1053
24051SOL     OW75650   6.845  10.295   2.981  0.0162 -0.0834 -0.1426
24051SOL    HW175651   6.940  10.285   2.985  0.0477  0.4803  0.7366
24051SOL    HW275652   6.812  10.249   3.058 -0.4597 -0.5256 -0.5973
24052SOL     OW75653   3.709   8.701   4.298 -0.6622 -0.0316 -0.5118
24052SOL    HW175654   3.764   8.775   4.273  1.0243 -1.1807 -0.3657
24052SOL    HW275655   3.646   8.737   4.360 -0.1818  1.3681 -0.8076
24053SOL     OW75656   3.090   1.801   8.559 -0.0688  0.1583  0.3947
24053SOL    HW175657   3.164   1.750   8.527  1.0118  2.5764 -1.3082
24053SOL    HW275658   3.115   1.828   8.647  0.8332  0.4380  0.0671
24054SOL     OW75659   5.344   4.248  10.811 -0.3721  0.1770 -0.2543
24054SOL    HW175660   5.429   4.264  10.853  0.8376 -1.3066 -1.9613
24054SOL    HW275661   5.334   4.320  10.749 -1.0415  1.0811  0.8624
24055SOL     OW75662   9.389   9.824   4.922 -0.1830 -0.1642 -0.0533
24055SOL    HW175663   9.454   9.757   4.901 -0.7712 -0.5305 -0.7157
24055SOL    HW275664   9.441   9.901   4.944  0.5190 -0.9390  1.1362
24056SOL     OW75665   5.144   5.313   7.398  0.3004  0.9325  0.6051
24056SOL    HW175666   5.200   5.249   7.442 -0.7468  0.2772  1.0223
24056SOL    HW275667   5.141   5.388   7.457 -1.1449  0.0357  1.7350
24057SOL     OW75668   5.805  10.358  10.379 -0.5126 -0.4373 -0.4995
24057SOL    HW175669   5.881  10.344  10.436 -0.3466 -2.7910 -1.1798
24057SOL    HW275670   5.759  10.274  10.380 -3.4061  1.0239  0.2457
24058SOL     OW75671   2.267   8.811   4.938 -0.1803  0.1389  0.0883
24058SOL    HW175672   2.250   8.900   4.909 -0.5477  1.2379  3.2347
24058SOL    HW275673   2.359   8.811   4.964  0.6223 -1.2932 -2.4535
24059SOL     OW75674   1.526   4.783  10.106 -0.2295  0.1370  0.3846
24059SOL    HW175675   1.619   4.759  10.110  0.0176  0.1473 -2.6853
24059SOL    HW275676   1.481   4.701  10.087 -0.3063  0.6745 -2.1093
24060SOL     OW75677   9.068   0.188   2.215 -0.2136 -0.1150  0.3817
24060SOL    HW175678   9.029   0.204   2.301 -1.1495 -2.0600  0.3561
24060SOL    HW275679   9.141   0.129   2.232 -0.4815 -0.6107 -0.1662
24061SOL     OW75680   9.026   9.996   6.120  0.8454 -0.2372  0.0231
24061SOL    HW175681   9.034  10.000   6.025 -0.7160 -0.1985 -0.1297
24061SOL    HW275682   9.092   9.932   6.147  0.0261 -1.6908 -1.2831
24062SOL     OW75683   3.448   0.769   7.673  0.1890 -0.1501 -0.1380
24062SOL    HW175684   3.523   0.786   7.617 -0.0896 -0.6173 -0.6672
24062SOL    HW275685   3.405   0.692   7.634  0.4929 -1.0530  1.2283
24063SOL     OW75686   4.312   6.048   5.898  0.1854 -0.8515  0.3004
24063SOL    HW175687   4.258   5.969   5.895 -2.1985  0.6535 -3.0610
24063SOL    HW275688   4.399   6.019   5.872  0.1478 -2.7841  2.1416
24064SOL     OW75689   1.825   6.013   2.026  0.1514  0.1607 -0.5045
24064SOL    HW175690   1.852   6.065   2.102  0.9387 -1.5513  0.4607
24064SOL    HW275691   1.762   6.068   1.980 -1.7151  0.6552  2.3605
24065SOL     OW75692   7.319   6.684   2.706 -0.2095 -0.2220 -0.3284
24065SOL    HW175693   7.330   6.764   2.656 -0.3370  0.7327  1.1054
24065SOL    HW275694   7.255   6.706   2.774  0.7293 -1.1298  0.9106
24066SOL     OW75695   1.128   8.446   7.834  0.3278  0.0202  0.0480
24066SOL    HW175696   1.179   8.423   7.911 -0.2832  1.0905  0.8055
24066SOL    HW275697   1.154   8.536   7.813  0.0718 -0.0561 -0.6491
24067SOL     OW75698   1.008   7.746   8.906  0.1765  0.4285 -0.4139
24067SOL    HW175699   1.091   7.704   8.882  0.4889 -0.3804  1.8157
24067SOL    HW275700   1.032   7.806   8.977 -1.0159  0.8391 -0.3390
24068SOL     OW75701   3.061   5.614   0.603  0.7678 -0.3082 -0.3308
24068SOL    HW175702   3.077   5.601   0.697 -0.3588 -0.7125 -0.1795
24068SOL    HW275703   2.985   5.672   0.600  0.3869 -0.8297 -0.9824
24069SOL     OW75704   0.389   5.382   0.556 -0.4920 -0.0330 -0.8202
24069SOL    HW175705   0.481   5.407   0.553 -0.0761 -1.3549  0.2862
24069SOL    HW275706   0.389   5.292   0.588 -2.1112 -0.4579 -1.8961
24070SOL     OW75707   6.794  10.186   6.130  0.4165  0.3610 -0.1251
24070SOL    HW175708   6.700  10.172   6.136  0.3495 -0.2219 -1.9502
24070SOL    HW275709   6.820  10.143   6.049  1.8760  2.4856 -0.8805
24071SOL     OW75710   4.887   9.696   3.322  0.1806 -0.4387  0.0311
24071SOL    HW175711   4.954   9.632   3.347 -0.5704 -1.4419 -0.4660
24071SOL    HW275712   4.819   9.687   3.389 -0.0062 -0.2602 -0.1329
24072SOL     OW75713   5.465   6.986   3.678  0.3101  0.0554 -0.0552
24072SOL    HW175714   5.470   7.042   3.755 -1.3811 -1.1540  0.9973
24072SOL    HW275715   5.508   6.905   3.704  1.2277  0.2135 -0.9933
24073SOL     OW75716   6.137   2.040   3.559 -0.9011  0.2372  0.5238
24073SOL    HW175717   6.084   2.100   3.612 -0.9416  0.4667  0.2252
24073SOL    HW275718   6.155   1.966   3.618  1.5069  1.7667  1.8781
24074SOL     OW75719  10.851   1.381   1.846  0.0879  0.1146  0.5074
24074SOL    HW175720  10.885   1.445   1.783  0.1560  0.0977  0.5273
24074SOL    HW275721  10.928   1.352   1.895  0.3207 -1.1708 -0.5752
24075SOL     OW75722   4.527   5.910   4.050 -0.1531 -0.8308 -0.5690
24075SOL    HW175723   4.458   5.849   4.074 -1.7933  1.1133  0.0187
24075SOL    HW275724   4.492   5.956   3.973  0.2134  0.5528  0.0556
24076SOL     OW75725   9.907   4.972   2.692  0.4276  0.2778 -0.0693
24076SOL    HW175726   9.860   5.002   2.614  1.2615  0.8754 -0.3496
24076SOL    HW275727   9.995   4.953   2.662  0.6836  0.2608  0.6749
24077SOL     OW75728   5.570   0.608   3.704  0.4706 -0.1073 -0.2426
24077SOL    HW175729   5.518   0.542   3.658  0.2550  0.9177 -1.5026
24077SOL    HW275730   5.506   0.674   3.731  0.8414  0.1424  0.0382
24078SOL     OW75731   5.189   7.446   1.426  0.4105  0.3915  0.7827
24078SOL    HW175732   5.248   7.482   1.492 -0.9559  4.1377  0.1804
24078SOL    HW275733   5.106   7.433   1.472 -0.3310  2.2989  0.0803
24079SOL     OW75734   7.257   7.190   4.126 -0.4353 -0.2844  0.1739
24079SOL    HW175735   7.296   7.232   4.203  0.8674  0.2045 -0.7066
24079SOL    HW275736   7.295   7.237   4.051 -1.6795 -0.7304 -0.7769
24080SOL     OW75737   0.435   1.135   9.105  0.2830  0.1860  0.5555
24080SOL    HW175738   0.418   1.086   9.185 -1.3382  0.6051  0.5041
24080SOL    HW275739   0.354   1.183   9.088  0.9465  0.9117 -0.7803
24081SOL     OW75740   4.740   5.035   6.603  0.1971 -0.5633 -0.3851
24081SOL    HW175741   4.751   4.966   6.669  0.2856  0.5223  0.7725
24081SOL    HW275742   4.649   5.027   6.575  0.1878 -1.1087 -0.2160
24082SOL     OW75743   3.991  10.753   7.095 -0.2225 -0.0274 -0.0570
24082SOL    HW175744   3.985  10.848   7.099  1.9196  0.1894 -0.6420
24082SOL    HW275745   4.050  10.730   7.168  0.0604 -0.8069 -0.5178
24083SOL     OW75746  10.192   6.469   5.134  0.0604  0.5994  0.0528
24083SOL    HW175747  10.135   6.401   5.170  0.5841  1.3761  2.5385
24083SOL    HW275748  10.173   6.469   5.040 -2.6951 -0.4009  0.5138
24084SOL     OW75749   7.939   4.361   7.777 -1.1161  0.3768  0.3138
24084SOL    HW175750   7.969   4.452   7.772 -2.0644  0.7317  0.7876
24084SOL    HW275751   7.889   4.357   7.859  0.6509 -1.1248  1.3846
24085SOL     OW75752   6.013   0.802   5.266 -0.3964  0.8378 -0.1088
24085SOL    HW175753   6.022   0.715   5.226 -0.0082  1.4063 -1.3053
24085SOL    HW275754   6.097   0.845   5.249 -0.7878  1.6455 -0.0291
24086SOL     OW75755   4.256   1.136   6.090  0.4112  0.7041 -0.1486
24086SOL    HW175756   4.324   1.166   6.152  0.1353  1.5392 -0.2418
24086SOL    HW275757   4.305   1.092   6.021  0.7067 -0.5785  0.8293
24087SOL     OW75758   2.550   0.915   6.127 -0.6026 -0.1416 -0.2214
24087SOL    HW175759   2.612   0.920   6.055 -0.9338  0.0012 -0.4974
24087SOL    HW275760   2.529   1.006   6.147 -0.4026 -0.1737  0.1537
24088SOL     OW75761   4.248   8.915   6.361 -0.1837  0.3217  0.6755
24088SOL    HW175762   4.288   8.941   6.444 -1.3942 -0.0345  1.3802
24088SOL    HW275763   4.261   8.992   6.304  2.5581 -0.1987  0.4458
24089SOL     OW75764   7.040   6.865   3.450  0.1932 -0.5496 -0.1307
24089SOL    HW175765   7.131   6.873   3.421  0.0207 -2.0684 -1.2252
24089SOL    HW275766   7.014   6.777   3.423 -1.9362  0.2188 -0.8348
24090SOL     OW75767   6.094   4.731   7.244  0.7023 -0.3372  0.6592
24090SOL    HW175768   6.004   4.756   7.224  0.6569 -0.6468  0.4810
24090SOL    HW275769   6.106   4.758   7.335  0.0541 -1.3457  1.0644
24091SOL     OW75770   5.048   2.189   3.415  0.1913  0.2855  0.1907
24091SOL    HW175771   5.015   2.205   3.326 -1.3633 -1.6571  0.3629
24091SOL    HW275772   4.976   2.216   3.472 -0.4532 -2.1815  0.6523
24092SOL     OW75773   2.386   6.366   8.867  0.0367  0.1792 -0.7832
24092SOL    HW175774   2.413   6.353   8.776  0.6336  0.0052 -0.5862
24092SOL    HW275775   2.296   6.399   8.861 -1.0940 -2.7360 -1.3350
24093SOL     OW75776   1.005   9.351   1.310  0.8233 -0.0518  0.1196
24093SOL    HW175777   1.016   9.266   1.268  0.1646  0.3023 -0.8015
24093SOL    HW275778   0.911   9.358   1.325  0.5861  1.3940 -1.7480
24094SOL     OW75779   8.088   2.096   8.959 -0.5214  0.1221 -0.1778
24094SOL    HW175780   8.128   2.080   9.045  0.1162 -0.5195 -0.5903
24094SOL    HW275781   7.994   2.096   8.977 -0.3876  0.2435  0.5635
24095SOL     OW75782   7.748   9.716   9.437 -0.5051 -0.2599 -0.0065
24095SOL    HW175783   7.676   9.659   9.465 -1.6406  0.8500 -0.6037
24095SOL    HW275784   7.799   9.730   9.517 -1.1072 -0.8278  0.4913
24096SOL     OW75785   8.447   1.794   8.930 -0.0655  0.7393  0.0436
24096SOL    HW175786   8.509   1.867   8.931 -0.5605  1.1943 -0.8811
24096SOL    HW275787   8.500   1.717   8.912  0.5928  0.7036  1.8863
24097SOL     OW75788   3.823   6.132   9.805 -0.7651 -0.1347  0.2333
24097SOL    HW175789   3.906   6.113   9.761 -0.3552  0.5964  0.6758
24097SOL    HW275790   3.845   6.201   9.868 -1.5469 -0.4890  0.9010
24098SOL     OW75791   7.755   6.020   8.824 -0.0027  0.4464 -0.2780
24098SOL    HW175792   7.799   6.013   8.739 -0.6183 -0.1867 -0.5566
24098SOL    HW275793   7.824   6.045   8.885  0.2057  2.2802 -1.1864
24099SOL     OW75794   0.588   5.766  10.727 -0.8509 -0.1278  0.1667
24099SOL    HW175795   0.642   5.840  10.754  1.1859 -0.7099 -1.9339
24099SOL    HW275796   0.517   5.805  10.675  1.2424  0.3873 -2.5278
24100SOL     OW75797   5.852   7.381   6.881  0.0491 -0.0749  0.6183
24100SOL    HW175798   5.862   7.464   6.927 -0.7452  0.2449  0.2244
24100SOL    HW275799   5.759   7.360   6.889  0.3394 -1.2082  1.1938
24101SOL     OW75800   1.314   9.986   4.387  0.4659  0.4445 -0.3149
24101SOL    HW175801   1.302  10.045   4.461  0.0452 -0.1659  0.1154
24101SOL    HW275802   1.275  10.032   4.313  0.4285  0.8397 -0.0516
24102SOL     OW75803   9.523   0.704   9.861 -0.1257 -0.1078  0.6361
24102SOL    HW175804   9.554   0.741   9.778 -0.8634  1.7274  1.1305
24102SOL    HW275805   9.592   0.725   9.924  0.0905 -0.8292  0.6414
24103SOL     OW75806   5.848   3.284   4.994 -0.2431 -0.3841 -0.1049
24103SOL    HW175807   5.812   3.205   4.955  1.1416 -1.1254  0.0555
24103SOL    HW275808   5.866   3.341   4.920 -0.6884 -0.4578 -0.2714
24104SOL     OW75809   2.042   2.560   6.410 -0.5978  0.2010 -0.3286
24104SOL    HW175810   2.033   2.573   6.315 -2.2530  1.6768 -0.0222
24104SOL    HW275811   1.959   2.590   6.446  0.0180 -0.3064  1.6208
24105SOL     OW75812   6.665   8.924   3.957  0.0728 -0.1632  0.1796
24105SOL    HW175813   6.685   8.849   4.014 -0.5016  0.1984  0.8765
24105SOL    HW275814   6.745   8.939   3.908  1.5037  1.0678  2.6762
24106SOL     OW75815   4.852  10.087  11.002  0.1850  0.0865 -0.1253
24106SOL    HW175816   4.927  10.117  11.052  0.6038 -1.7847  0.4547
24106SOL    HW275817   4.863   9.992  10.997 -1.9804 -0.2093 -0.2910
24107SOL     OW75818   7.088   3.086   1.735 -0.5913 -0.8736 -0.6955
24107SOL    HW175819   7.083   3.010   1.677 -0.3954 -1.4743  0.0614
24107SOL    HW275820   7.101   3.160   1.676  2.3630 -1.7574 -1.3187
24108SOL     OW75821   0.784   7.282   2.726 -0.1709 -0.5539  0.5817
24108SOL    HW175822   0.799   7.211   2.663  0.6130 -0.2203  0.3697
24108SOL    HW275823   0.833   7.255   2.804  1.7591  0.5932 -0.1478
24109SOL     OW75824   3.982   3.239   0.246 -0.3126  0.5195  0.3975
24109SOL    HW175825   3.997   3.234   0.340  2.3619 -1.9050  0.0145
24109SOL    HW275826   4.021   3.323   0.220  0.0840  0.6317  1.3038
24110SOL     OW75827   1.373   8.204   7.832  0.4696  0.3152  0.0499
24110SOL    HW175828   1.351   8.275   7.892 -0.1830 -0.7401  1.1185
24110SOL    HW275829   1.352   8.124   7.881  1.0214 -0.6140 -1.1672
24111SOL     OW75830   5.021   7.857   6.408  0.2097  0.0600 -0.5120
24111SOL    HW175831   5.112   7.829   6.397 -0.0034  0.0160 -2.5701
24111SOL    HW275832   5.028   7.949   6.433  0.8400  0.3174 -1.5642
24112SOL     OW75833   2.763   5.512   0.159 -0.1974  0.2183 -0.4589
24112SOL    HW175834   2.687   5.560   0.126 -0.6688  1.1437  1.7801
24112SOL    HW275835   2.733   5.421   0.167 -0.5602  0.2822 -1.0182
24113SOL     OW75836   9.081   4.820   4.295 -0.1216  0.1010  0.2771
24113SOL    HW175837   9.162   4.852   4.335 -1.6278  0.1382  3.6734
24113SOL    HW275838   9.091   4.725   4.292  0.5003  0.1834 -0.4672
24114SOL     OW75839   6.886  10.728   5.885 -0.2217 -0.2871  0.5333
24114SOL    HW175840   6.881  10.735   5.789 -1.3498  0.4044  0.6244
24114SOL    HW275841   6.795  10.737   5.914 -0.0815 -1.9887  1.5858
24115SOL     OW75842   2.210   9.683   2.173 -0.3519  0.2616  0.3186
24115SOL    HW175843   2.166   9.721   2.097 -1.1461  0.8105  1.0377
24115SOL    HW275844   2.140   9.664   2.235  0.3760  0.6975  1.2971
24116SOL     OW75845  10.739   9.571   7.263  0.6603  0.7916 -0.0017
24116SOL    HW175846  10.763   9.482   7.291 -1.9292 -0.2020 -0.5989
24116SOL    HW275847  10.696   9.609   7.340  1.5667  1.4893  0.1805
24117SOL     OW75848   5.200   7.875   2.267 -0.5675  0.0742 -0.0172
24117SOL    HW175849   5.127   7.927   2.301 -0.4049  0.0548  0.3702
24117SOL    HW275850   5.166   7.786   2.262 -0.8759  0.2254 -0.7693
24118SOL     OW75851   6.019   8.862   0.895 -0.0353 -0.4842 -0.8641
24118SOL    HW175852   6.039   8.787   0.839  0.4068 -0.9405 -0.1078
24118SOL    HW275853   5.998   8.823   0.980  0.6746  0.2791 -0.3301
24119SOL     OW75854   6.468   5.882   9.453 -0.3948 -0.1493 -0.0843
24119SOL    HW175855   6.523   5.881   9.531 -1.3657  0.6148  0.6427
24119SOL    HW275856   6.527   5.862   9.381  0.8017  0.4991  0.6885
24120SOL     OW75857   0.891   2.252   2.235 -0.0705 -0.0181 -0.3043
24120SOL    HW175858   0.908   2.344   2.258  0.9825 -0.0997 -0.6555
24120SOL    HW275859   0.945   2.202   2.296  0.1879 -0.3538 -0.8008
24121SOL     OW75860   4.349   5.693   2.073  0.2001 -0.6532  0.4404
24121SOL    HW175861   4.304   5.610   2.087 -1.2593  0.2066  1.1219
24121SOL    HW275862   4.278   5.757   2.060  1.2301  0.6508  0.9830
24122SOL     OW75863   8.914  10.215   0.195  0.4009 -0.0182  0.0146
24122SOL    HW175864   9.000  10.208   0.236  0.6937 -0.3549 -0.6439
24122SOL    HW275865   8.932  10.216   0.101 -0.4331 -2.3974 -0.2344
24123SOL     OW75866   0.079   1.542   5.407 -0.1897  0.2379  0.1651
24123SOL    HW175867   0.170   1.551   5.380 -0.4133  1.1957 -0.3125
24123SOL    HW275868   0.073   1.592   5.489  0.0463 -1.0733  1.0076
24124SOL     OW75869   3.149   8.840   6.667  0.4661  0.0932 -0.1651
24124SOL    HW175870   3.244   8.850   6.658  0.5096  2.6845  1.8292
24124SOL    HW275871   3.113   8.899   6.601  0.3490  1.2392  0.8892
24125SOL     OW75872   2.437   7.951   9.521 -0.0301  0.5826 -0.4428
24125SOL    HW175873   2.508   7.976   9.463 -0.1463  0.8887 -0.4514
24125SOL    HW275874   2.427   8.025   9.581 -0.2678  0.4978 -0.3743
24126SOL     OW75875   1.253   2.897   4.320 -0.1591  0.0516  0.1920
24126SOL    HW175876   1.295   2.811   4.328  0.7190  0.3914 -0.5158
24126SOL    HW275877   1.325   2.959   4.330  0.0295  0.6246 -3.3643
24127SOL     OW75878   7.605   5.358   0.336 -0.0421 -0.2969 -0.0435
24127SOL    HW175879   7.624   5.266   0.357 -0.9738  0.1765  3.4630
24127SOL    HW275880   7.690   5.400   0.331  0.3634 -1.1714 -0.8876
24128SOL     OW75881   7.888   2.213  10.621 -0.0111 -0.0387  0.0817
24128SOL    HW175882   7.799   2.186  10.642  0.0199 -1.2742 -1.2036
24128SOL    HW275883   7.903   2.180  10.532  2.0187 -0.5824  0.5648
24129SOL     OW75884  10.369   1.082   5.580 -0.3617  0.0273  0.1508
24129SOL    HW175885  10.292   1.031   5.554 -0.7413  0.7757 -0.2143
24129SOL    HW275886  10.361   1.091   5.675 -0.4449 -0.3428  0.1797
24130SOL     OW75887   1.062   8.030   8.036 -0.0402  0.3754 -0.4706
24130SOL    HW175888   1.047   7.936   8.023 -1.3384  0.7038 -1.7147
24130SOL    HW275889   1.068   8.065   7.947  1.7818  1.3027 -0.0149
24131SOL     OW75890   5.345   0.297   6.305  0.2691  0.4175 -0.0909
24131SOL    HW175891   5.379   0.385   6.292 -1.3518  1.3019  1.2691
24131SOL    HW275892   5.267   0.293   6.250  0.9009 -0.5853 -0.9649
24132SOL     OW75893   3.143   1.437   2.514 -0.2531  0.4121  0.4773
24132SOL    HW175894   3.148   1.531   2.498  1.0776  0.5597  1.5677
24132SOL    HW275895   3.103   1.429   2.601 -0.9728 -0.0681  0.1154
24133SOL     OW75896   3.867   9.807   7.972  0.0783 -0.1579  0.3500
24133SOL    HW175897   3.883   9.852   8.055  0.6409 -0.5877  0.4760
24133SOL    HW275898   3.915   9.725   7.979  2.2892  0.8719 -1.3839
24134SOL     OW75899   5.363   6.264   8.531  0.2492 -0.0655  0.3546
24134SOL    HW175900   5.419   6.236   8.603 -1.2516  0.2775  1.7042
24134SOL    HW275901   5.275   6.233   8.555 -0.3318  0.2687 -1.2037
24135SOL     OW75902   6.810   0.585   5.728  0.4272  0.5636  0.1940
24135SOL    HW175903   6.841   0.672   5.705 -2.5451  1.3710 -1.1968
24135SOL    HW275904   6.716   0.589   5.716 -0.1296 -2.1250  2.6340
24136SOL     OW75905  10.358   5.733   1.248 -0.3602  0.2073 -0.3306
24136SOL    HW175906  10.401   5.697   1.171 -1.5763 -3.5758  0.5447
24136SOL    HW275907  10.425   5.730   1.317 -0.5712 -0.9243 -0.1594
24137SOL     OW75908   1.316   2.108   3.984  0.3496  0.5828 -0.2536
24137SOL    HW175909   1.404   2.132   3.954  0.5029  1.4987  0.8348
24137SOL    HW275910   1.258   2.171   3.941  0.0939 -0.5759 -1.6706
24138SOL     OW75911   2.532   2.404  10.470 -0.1584 -0.0717  0.3284
24138SOL    HW175912   2.616   2.375  10.437  0.1292  0.1995  0.8059
24138SOL    HW275913   2.496   2.459  10.401  0.0940 -0.1206  0.1580
24139SOL     OW75914   9.625   3.113   2.969  0.0679 -0.2835  0.2675
24139SOL    HW175915   9.582   3.153   3.045 -1.0716 -1.0043  0.0173
24139SOL    HW275916   9.717   3.140   2.977 -0.1400  0.0943  1.6053
24140SOL     OW75917  10.284   7.576   3.784 -0.3545 -0.1371  0.0356
24140SOL    HW175918  10.366   7.527   3.790 -0.7349 -1.2081 -2.3536
24140SOL    HW275919  10.236   7.550   3.863  0.0388 -2.6127 -0.4520
24141SOL     OW75920   3.151   3.083   8.066  0.0528  0.0433  0.1018
24141SOL    HW175921   3.245   3.101   8.080 -0.6293  4.1122  0.8346
24141SOL    HW275922   3.114   3.083   8.154 -0.7335 -1.0527 -0.2164
24142SOL     OW75923   5.325   4.379   1.643  0.0071 -0.0890  0.1185
24142SOL    HW175924   5.248   4.326   1.664  0.1145 -0.5879 -0.7228
24142SOL    HW275925   5.399   4.318   1.648  0.1234 -0.0460 -0.9460
24143SOL     OW75926   0.873  10.637   8.732  0.1484 -0.3617 -0.0029
24143SOL    HW175927   0.892  10.547   8.759  0.5982 -0.3636 -0.3122
24143SOL    HW275928   0.851  10.630   8.639  0.3464 -0.1352 -0.0676
24144SOL     OW75929   9.061   8.464  10.784  0.1112  0.3865 -0.2660
24144SOL    HW175930   9.099   8.384  10.747  0.0186  0.3531 -0.2920
24144SOL    HW275931   8.967   8.453  10.773  0.0322  0.0427  0.6660
24145SOL     OW75932   7.344   6.320   4.965 -0.4756  0.1361  0.7522
24145SOL    HW175933   7.392   6.238   4.979 -1.9336 -1.1327 -1.1151
24145SOL    HW275934   7.286   6.326   5.040 -0.0587 -0.3305  1.1221
24146SOL     OW75935   2.723   5.463   6.231 -0.0694  0.3990 -0.2292
24146SOL    HW175936   2.661   5.404   6.189  0.3829 -0.0457 -0.2799
24146SOL    HW275937   2.785   5.486   6.162  1.5200 -1.4656  0.4899
24147SOL     OW75938   2.741   1.753   0.173  0.0261 -0.6834  0.2496
24147SOL    HW175939   2.832   1.782   0.181 -0.2139  0.5333 -1.0671
24147SOL    HW275940   2.689   1.834   0.175 -0.8816 -1.2071 -0.7349
24148SOL     OW75941   0.538   3.436   0.996  0.1975 -0.0916  0.1658
24148SOL    HW175942   0.605   3.496   1.030 -0.9255  1.7606 -0.7024
24148SOL    HW275943   0.587   3.369   0.950  1.5640 -0.4788  2.0678
24149SOL     OW75944   2.086   4.664   2.024 -0.5255 -0.3328 -0.6545
24149SOL    HW175945   2.146   4.665   1.949 -0.4997  0.0621 -0.6332
24149SOL    HW275946   2.069   4.571   2.040 -0.7133 -0.4140 -1.2929
24150SOL     OW75947   3.544   0.975   7.309 -0.0597  0.4126 -0.0736
24150SOL    HW175948   3.571   0.906   7.370 -2.0619 -1.0892 -0.7604
24150SOL    HW275949   3.449   0.982   7.323 -0.2681  1.3193 -1.7592
24151SOL     OW75950   5.338   2.456   2.267 -0.0143  0.9972 -0.6327
24151SOL    HW175951   5.411   2.401   2.236  0.7940  1.6084  0.1311
24151SOL    HW275952   5.260   2.404   2.250  0.4657  0.8854 -2.7626
24152SOL     OW75953   2.376   8.234   0.694 -0.0630 -0.1570  0.6068
24152SOL    HW175954   2.342   8.311   0.741  0.4813 -0.7268  1.9849
24152SOL    HW275955   2.339   8.159   0.741 -1.9103 -0.8104 -1.6918
24153SOL     OW75956   0.149  11.003   5.171 -0.3165  0.3773  0.4385
24153SOL    HW175957   0.174  10.921   5.215 -1.7596 -0.4076 -0.1292
24153SOL    HW275958   0.199  11.003   5.090  1.2495  1.1092  1.3574
24154SOL     OW75959   7.130   5.351   5.325  0.1428 -0.3372  0.1200
24154SOL    HW175960   7.119   5.398   5.408 -0.8825 -0.3674  0.0077
24154SOL    HW275961   7.195   5.402   5.277 -1.1692  1.1612 -0.1304
24155SOL     OW75962   7.162   9.248   7.031 -0.4175  0.1210 -0.6754
24155SOL    HW175963   7.126   9.228   7.117  0.1915  2.7274  0.2880
24155SOL    HW275964   7.105   9.317   6.996  1.2265  1.4574 -0.8583
24156SOL     OW75965   7.445   9.603   3.284 -0.4825 -0.5777  0.1458
24156SOL    HW175966   7.413   9.544   3.216  0.8846 -0.1861 -0.8788
24156SOL    HW275967   7.475   9.545   3.354  1.8158 -1.2249 -1.2674
24157SOL     OW75968   9.355   9.782   1.607 -0.3272  0.4573 -0.0801
24157SOL    HW175969   9.325   9.841   1.537 -1.1941  0.8819  0.6350
24157SOL    HW275970   9.423   9.729   1.565 -1.2698  0.2533 -1.4433
24158SOL     OW75971   4.979  10.809   4.149 -0.3481  0.6971  0.6050
24158SOL    HW175972   5.055  10.822   4.205  0.2836  0.4416 -0.1732
24158SOL    HW275973   4.927  10.742   4.193  0.9763 -0.7246  0.0738
24159SOL     OW75974   9.063   4.110   1.243 -0.1330  0.3319 -0.3771
24159SOL    HW175975   9.024   4.083   1.159 -0.7532  1.2724 -0.3991
24159SOL    HW275976   9.089   4.201   1.229  0.8547  0.1270  0.0785
24160SOL     OW75977  10.694   7.248   8.569 -0.6551  0.2824  0.1328
24160SOL    HW175978  10.661   7.329   8.608  1.1203  0.1961  1.9657
24160SOL    HW275979  10.643   7.178   8.611 -0.1822  0.3012  0.7407
24161SOL     OW75980   6.912   3.593   9.180  0.9365 -0.3858  0.4598
24161SOL    HW175981   6.893   3.499   9.168  1.4990 -0.6227  1.3365
24161SOL    HW275982   6.893   3.609   9.272  1.5591  0.1936  0.4914
24162SOL     OW75983   5.633   7.322   7.484 -0.0874 -0.1274 -0.0507
24162SOL    HW175984   5.612   7.246   7.538  2.3543  0.5578  2.0349
24162SOL    HW275985   5.686   7.287   7.412  0.3557 -0.5040  0.4549
24163SOL     OW75986   8.700   5.328   7.270 -0.2790 -0.0288 -0.2490
24163SOL    HW175987   8.725   5.253   7.324 -1.8545 -1.1429 -0.9916
24163SOL    HW275988   8.693   5.292   7.182 -0.2060  1.2055 -0.7747
24164SOL     OW75989   1.778   6.377   3.333  0.0669 -0.0589  0.2033
24164SOL    HW175990   1.782   6.434   3.410  1.6840  1.0538 -0.6399
24164SOL    HW275991   1.853   6.403   3.280 -0.6285 -1.2411 -1.4609
24165SOL     OW75992   8.698   2.061  10.680 -0.4391  0.5108 -0.6038
24165SOL    HW175993   8.722   2.049  10.772 -3.1660 -0.2156  0.1195
24165SOL    HW275994   8.660   2.149  10.677 -1.2179  0.1757 -0.7925
24166SOL     OW75995   3.509   8.976   5.171 -0.7740 -0.7837  0.0258
24166SOL    HW175996   3.523   9.015   5.258  0.7096 -0.6903 -0.2256
24166SOL    HW275997   3.535   8.885   5.182 -2.2031 -1.2127  0.0733
24167SOL     OW75998   2.681   9.135   5.824 -0.2604 -0.5122 -0.0326
24167SOL    HW175999   2.768   9.174   5.814 -1.1533  1.2701 -1.4619
24167SOL    HW276000   2.658   9.151   5.915  1.4921 -2.4321  0.8392
24168SOL     OW76001   6.673   5.574   9.301 -0.0472 -0.0152  0.7347
24168SOL    HW176002   6.768   5.563   9.308  0.1294  0.5030 -0.5682
24168SOL    HW276003   6.641   5.563   9.390  1.4932  2.1540  1.6371
24169SOL     OW76004  10.507   4.691   4.377  0.1372  0.2161  0.1724
24169SOL    HW176005  10.584   4.724   4.330  1.9125 -2.4823  0.9206
24169SOL    HW276006  10.478   4.615   4.327  2.2831 -2.9498  3.2441
24170SOL     OW76007  10.416   0.684   6.022 -0.3585 -0.2261 -0.2375
24170SOL    HW176008  10.407   0.775   6.049 -0.8332  0.0629 -1.2843
24170SOL    HW276009  10.418   0.634   6.103  1.3331  0.8284  0.4091
24171SOL     OW76010   7.153   3.876   5.538  0.4496  0.1690 -0.0204
24171SOL    HW176011   7.110   3.937   5.479  0.7823  1.5215  1.0881
24171SOL    HW276012   7.244   3.907   5.543  0.4934 -0.0831  0.9879
24172SOL     OW76013   0.103   6.958   2.227  0.7679 -0.2597  0.2614
24172SOL    HW176014   0.085   7.044   2.189 -0.1315  0.1851  1.6073
24172SOL    HW276015   0.066   6.896   2.165  0.9841  0.3399 -0.4892
24173SOL     OW76016   9.303   9.332   5.871 -0.6993  0.5248 -0.2548
24173SOL    HW176017   9.295   9.414   5.821 -2.3897 -0.6830 -2.1405
24173SOL    HW276018   9.273   9.354   5.959 -4.1715  1.3571 -1.4890
24174SOL     OW76019   2.446   3.102   8.715  0.0282  0.1950  0.2977
24174SOL    HW176020   2.458   3.121   8.622 -0.1742 -0.7411  0.0705
24174SOL    HW276021   2.489   3.175   8.760 -1.8742  1.8944 -0.5121
24175SOL     OW76022   4.970   3.422   5.141 -0.2087  0.2554  0.4050
24175SOL    HW176023   4.916   3.369   5.082  0.1178 -0.3031  0.6007
24175SOL    HW276024   4.975   3.507   5.098 -1.0137  0.2286  0.2495
24176SOL     OW76025   3.014   7.451   9.173 -0.5740 -0.4403  0.0860
24176SOL    HW176026   3.070   7.376   9.159 -1.5976 -1.1030 -0.6512
24176SOL    HW276027   3.050   7.519   9.115  0.7405 -0.1139  1.2381
24177SOL     OW76028   7.073  10.523   8.622  0.1814 -0.0980  0.5145
24177SOL    HW176029   7.038  10.516   8.711  1.3172  0.7441  1.0531
24177SOL    HW276030   6.995  10.532   8.567 -0.5489 -0.8239  1.3952
24178SOL     OW76031   3.043  10.040  10.568 -0.5502 -0.4784  0.2698
24178SOL    HW176032   3.065  10.132  10.554 -3.1313  0.0745 -0.7221
24178SOL    HW276033   3.111   9.992  10.520  0.9245  0.8492  0.9216
24179SOL     OW76034   5.191   7.843   5.140 -0.2228  0.2310  0.3244
24179SOL    HW176035   5.189   7.851   5.235 -2.0726 -0.2350  0.3792
24179SOL    HW276036   5.155   7.756   5.123  1.1004 -0.1338 -0.7868
24180SOL     OW76037   6.552   4.134   6.858  0.0468 -0.2620  0.0741
24180SOL    HW176038   6.484   4.129   6.791 -0.7911 -0.4921  0.9163
24180SOL    HW276039   6.562   4.228   6.876 -1.0555 -0.2753  0.9090
24181SOL     OW76040   3.109   8.091   6.816  0.3167  0.3879  0.3625
24181SOL    HW176041   3.199   8.068   6.839  0.0839  0.3213  1.2578
24181SOL    HW276042   3.095   8.177   6.854 -0.4066 -0.1587  1.4071
24182SOL     OW76043   9.332   1.344   6.324 -0.3467 -0.6481  0.4763
24182SOL    HW176044   9.337   1.257   6.365  0.5467 -0.8905 -0.1215
24182SOL    HW276045   9.251   1.382   6.358  0.5160 -0.6865  2.7644
24183SOL     OW76046   8.237   1.009   4.945  0.1874  0.1713  0.0452
24183SOL    HW176047   8.143   0.990   4.942  0.0866  0.7077 -0.4176
24183SOL    HW276048   8.279   0.924   4.932 -0.2385  0.0186 -0.3641
24184SOL     OW76049   4.082  10.526   0.008 -0.1685  0.8656  0.0415
24184SOL    HW176050   4.046  10.614  -0.001 -1.0197  0.3164 -2.6365
24184SOL    HW276051   4.057  10.500   0.097 -1.6642  2.5770  0.1948
24185SOL     OW76052   4.961   6.012   8.659  0.6949 -0.1692 -0.3853
24185SOL    HW176053   4.884   5.988   8.607 -0.5578 -1.2228  1.7967
24185SOL    HW276054   4.926   6.061   8.733  2.3873  1.1412 -0.4037
24186SOL     OW76055   4.501   9.200   6.041  0.0508 -0.4617 -0.1569
24186SOL    HW176056   4.533   9.281   6.002 -0.7444  0.2042  0.5236
24186SOL    HW276057   4.462   9.227   6.125 -0.8529 -1.4418 -0.2318
24187SOL     OW76058   7.862   3.463   2.666 -0.0921  0.9007  0.7358
24187SOL    HW176059   7.844   3.381   2.713  0.5124 -0.0764 -0.6733
24187SOL    HW276060   7.776   3.505   2.659 -0.6342 -0.1950  0.4673
24188SOL     OW76061   4.180   3.501   6.784  0.5602 -0.0240 -0.8472
24188SOL    HW176062   4.230   3.421   6.799 -0.2203 -0.0534  2.4253
24188SOL    HW276063   4.238   3.572   6.810  0.0903  0.2100 -0.4197
24189SOL     OW76064  10.174   7.419   7.376 -0.1271 -0.5092  0.2045
24189SOL    HW176065  10.171   7.323   7.381  2.4566 -0.6333  0.6518
24189SOL    HW276066  10.118   7.448   7.448 -0.8717 -1.6564  0.1231
24190SOL     OW76067   8.678   3.065  10.861  0.2205  0.3643 -0.1898
24190SOL    HW176068   8.678   2.982  10.909 -1.3552  0.6045  0.2943
24190SOL    HW276069   8.590   3.100  10.873  0.2091  1.1363 -2.0904
24191SOL     OW76070   5.676   2.688   7.906  0.1766 -0.4690 -0.4452
24191SOL    HW176071   5.702   2.777   7.882 -0.2551 -0.0710  0.5109
24191SOL    HW276072   5.593   2.674   7.860  0.0083 -0.1956 -0.2307
24192SOL     OW76073   3.213   4.491  10.285 -0.5944 -0.1825  0.2220
24192SOL    HW176074   3.201   4.483  10.191 -0.4576  1.5115  0.0130
24192SOL    HW276075   3.293   4.441  10.304 -1.1049 -1.2504 -0.3992
24193SOL     OW76076   5.002   3.996   4.168 -0.5940 -0.2232  0.0940
24193SOL    HW176077   4.984   3.911   4.209 -0.6022  0.0857  0.7425
24193SOL    HW276078   4.943   4.057   4.213 -0.1458  0.2323  0.0646
24194SOL     OW76079   1.692   5.116   9.945  0.8642  0.9006  1.0281
24194SOL    HW176080   1.727   5.028   9.934  0.6339  0.8414  0.7656
24194SOL    HW276081   1.602   5.102   9.975  0.6655  1.0441  0.4943
24195SOL     OW76082   5.923   1.465   9.479  0.7982  0.5740 -0.0730
24195SOL    HW176083   5.962   1.378   9.482  1.7614  0.9664 -0.7077
24195SOL    HW276084   5.860   1.461   9.407  0.9826  0.4563 -0.2278
24196SOL     OW76085   9.267   5.006   9.082 -0.4787 -0.1411  0.4280
24196SOL    HW176086   9.355   5.035   9.105 -0.9058  1.6389 -0.0876
24196SOL    HW276087   9.210   5.080   9.102 -1.8417 -1.1523  0.4797
24197SOL     OW76088   2.554   7.587   7.973  0.3250 -0.1108  0.1339
24197SOL    HW176089   2.503   7.516   8.012  1.3514 -0.3720  1.0487
24197SOL    HW276090   2.530   7.664   8.023 -0.5469  0.1431 -0.6494
24198SOL     OW76091   7.356   6.154   8.006  0.1563 -0.1076 -0.1039
24198SOL    HW176092   7.321   6.214   8.072  0.5833  0.7655 -0.6636
24198SOL    HW276093   7.317   6.183   7.924 -1.9810 -2.4315 -0.0287
24199SOL     OW76094   2.514   9.201   5.597 -0.1419  0.3355  0.6274
24199SOL    HW176095   2.493   9.290   5.625 -1.1674 -0.1868  1.6207
24199SOL    HW276096   2.569   9.166   5.668  2.4423  0.9705 -0.9420
24200SOL     OW76097   4.081   0.992   6.245  0.2226  0.3087 -0.3148
24200SOL    HW176098   4.146   1.025   6.182  1.7909 -1.3140  0.3666
24200SOL    HW276099   4.034   0.924   6.196  0.0723  0.4331 -0.3430
24201SOL     OW76100   3.699   7.350   1.522 -0.4637  0.1614 -0.8379
24201SOL    HW176101   3.620   7.323   1.569  0.1181 -0.9080 -0.4572
24201SOL    HW276102   3.674   7.345   1.429 -1.4610  1.8061 -0.6949
24202SOL     OW76103   9.956  10.103   6.409 -0.0015  0.0167  0.1821
24202SOL    HW176104   9.931  10.178   6.356  0.7728  1.5996  1.9310
24202SOL    HW276105   9.881  10.043   6.403 -1.0134  1.3062 -0.5922
24203SOL     OW76106   2.292   3.111   5.510  0.0725 -0.3725  0.5816
24203SOL    HW176107   2.221   3.175   5.522  0.9491  1.1434 -1.7158
24203SOL    HW276108   2.267   3.062   5.432  0.8886 -0.7761  0.5697
24204SOL     OW76109   2.105   9.538   4.922  0.0807 -0.2311  0.5558
24204SOL    HW176110   2.052   9.516   4.845  1.0753  0.1423 -0.2719
24204SOL    HW276111   2.080   9.474   4.988 -0.7483 -0.6114 -0.1062
24205SOL     OW76112   2.797   9.438   6.890  0.0112  0.1584  0.4221
24205SOL    HW176113   2.780   9.345   6.876 -0.1025  0.2633 -0.1929
24205SOL    HW276114   2.738   9.482   6.828 -1.8343  0.7463  2.4487
24206SOL     OW76115   1.457   8.154   3.008 -0.6552  0.5778 -0.0709
24206SOL    HW176116   1.504   8.070   3.001 -2.8251 -0.9884  2.4421
24206SOL    HW276117   1.511   8.206   3.067  0.1752  0.5758 -0.8041
24207SOL     OW76118   8.385   5.270   1.857  0.3328 -0.1154 -0.0344
24207SOL    HW176119   8.315   5.333   1.845 -0.4383 -1.2195 -1.6182
24207SOL    HW276120   8.411   5.245   1.769  1.4429 -1.1271  0.5429
24208SOL     OW76121   4.151  10.820   5.272  0.4316  0.3077  0.9618
24208SOL    HW176122   4.086  10.764   5.313 -0.1909 -0.2205 -0.6962
24208SOL    HW276123   4.101  10.893   5.235  0.5302 -0.7528 -1.4593
24209SOL     OW76124  10.903   4.289   3.237 -0.4234 -0.9355  0.1991
24209SOL    HW176125  10.889   4.352   3.167 -1.5265 -0.4379  0.8403
24209SOL    HW276126  10.884   4.337   3.318  1.4409 -1.3140  0.9071
24210SOL     OW76127   4.963  10.135   0.780 -0.4764  0.2452 -0.3288
24210SOL    HW176128   5.053  10.159   0.801 -0.3734 -1.0238  0.7880
24210SOL    HW276129   4.954  10.154   0.686  0.9289  0.4348 -0.4443
24211SOL     OW76130   2.418   7.972   0.994 -0.3783 -0.3944 -0.1805
24211SOL    HW176131   2.331   7.936   0.976 -0.5504 -0.7038  1.1925
24211SOL    HW276132   2.460   7.906   1.049  0.9030 -0.4472 -1.1803
24212SOL     OW76133  10.984   4.095   7.319 -0.1517 -0.0520  0.3683
24212SOL    HW176134  11.062   4.042   7.303 -0.9256 -0.8313 -0.9862
24212SOL    HW276135  11.017   4.174   7.363  1.1779 -1.0748  1.2798
24213SOL     OW76136   4.256   7.574   4.581  0.6681  0.3015  0.0609
24213SOL    HW176137   4.221   7.553   4.668  0.9494  0.1916  0.1520
24213SOL    HW276138   4.200   7.526   4.520  1.1746 -0.5670  0.2569
24214SOL     OW76139   3.077   7.027   0.874 -0.2409 -0.1003 -0.7018
24214SOL    HW176140   3.173   7.030   0.881 -0.2083 -0.2629 -1.0995
24214SOL    HW276141   3.047   7.077   0.950  0.1483 -0.6334 -0.1824
24215SOL     OW76142   9.544   5.936   9.904  0.0021 -0.3137  0.0714
24215SOL    HW176143   9.603   5.877   9.857 -0.4564 -0.8507  0.1544
24215SOL    HW276144   9.456   5.902   9.885 -0.1629 -1.2874  2.2594
24216SOL     OW76145   0.689   1.313   8.657  0.2520 -0.2673 -0.6801
24216SOL    HW176146   0.643   1.361   8.726 -1.5796  0.1571 -2.1052
24216SOL    HW276147   0.736   1.381   8.608 -0.2298 -0.2705 -1.1493
24217SOL     OW76148  10.188   3.692   8.396 -1.0126 -0.1171  0.2383
24217SOL    HW176149  10.139   3.696   8.478  0.7764  0.6709  1.3308
24217SOL    HW276150  10.242   3.614   8.404  0.2998  0.7847  0.5231
24218SOL     OW76151   7.229   3.753   3.523 -0.2290 -0.2163 -0.2687
24218SOL    HW176152   7.319   3.785   3.517  0.0141 -0.9778 -0.9380
24218SOL    HW276153   7.215   3.736   3.616  0.7177 -1.1814 -0.2818
24219SOL     OW76154   6.246   1.332   7.813 -0.0450  0.6194 -0.4548
24219SOL    HW176155   6.291   1.414   7.835 -1.1176  1.1540 -0.1618
24219SOL    HW276156   6.225   1.293   7.898 -0.0172  0.3092 -0.5892
24220SOL     OW76157   7.575   6.450   7.692  0.0978 -0.0380 -0.5115
24220SOL    HW176158   7.594   6.385   7.759  0.1725  0.7177  0.2107
24220SOL    HW276159   7.584   6.403   7.609 -0.4854 -1.1080  0.0145
24221SOL     OW76160   3.426   4.329   8.460  0.0720 -0.0588  0.1965
24221SOL    HW176161   3.393   4.306   8.373  0.1523 -1.1247  0.4402
24221SOL    HW276162   3.348   4.328   8.516  0.3492 -1.7340  0.5998
24222SOL     OW76163   3.727   5.944   0.258  0.2365 -0.0903  0.1944
24222SOL    HW176164   3.768   5.862   0.231 -0.0797 -0.1624 -0.0703
24222SOL    HW276165   3.676   5.972   0.182  0.8132  0.6593  0.0721
24223SOL     OW76166   6.812   9.001   1.508 -0.1807 -0.1411  0.8664
24223SOL    HW176167   6.760   8.970   1.434  1.4880 -2.1363  0.4078
24223SOL    HW276168   6.877   9.059   1.469  1.2054 -1.8162  0.5531
24224SOL     OW76169   8.635   5.806   3.117  0.3643  0.0804  0.1000
24224SOL    HW176170   8.579   5.864   3.065  1.6080  0.7809 -0.5142
24224SOL    HW276171   8.582   5.729   3.133 -0.4681  0.3470 -1.2314
24225SOL     OW76172   4.437   4.609   1.771  0.1948  0.2285  0.2756
24225SOL    HW176173   4.380   4.534   1.785 -0.3545  0.3965 -0.9331
24225SOL    HW276174   4.493   4.612   1.849 -1.2581 -0.1023  1.3578
24226SOL     OW76175   1.768   3.105   2.680  0.5007 -0.3280 -0.0120
24226SOL    HW176176   1.707   3.033   2.662  1.0859 -0.5269 -1.3089
24226SOL    HW276177   1.712   3.182   2.691 -0.0534 -0.7364  0.0530
24227SOL     OW76178   1.216   5.347   1.401 -0.6296 -0.3794  0.0497
24227SOL    HW176179   1.287   5.345   1.336  0.2618  2.1483  0.8138
24227SOL    HW276180   1.219   5.261   1.442  1.2496 -0.7537 -0.7368
24228SOL     OW76181   1.409   2.682   2.111 -0.1422  0.1052 -0.2308
24228SOL    HW176182   1.458   2.764   2.103 -1.1291  0.7393  0.1095
24228SOL    HW276183   1.320   2.704   2.083 -0.5473 -0.7229  0.3684
24229SOL     OW76184   1.761   9.763   9.348  0.3526  0.2073 -0.5674
24229SOL    HW176185   1.847   9.746   9.310  0.0751 -1.6320 -0.4356
24229SOL    HW276186   1.699   9.721   9.289 -0.2492 -0.7216  0.6865
24230SOL     OW76187   0.697   9.972   6.294  0.4078  0.2547 -0.5101
24230SOL    HW176188   0.653   9.957   6.211  0.8244 -0.6707 -0.5738
24230SOL    HW276189   0.649   9.918   6.357  1.2549 -0.5340 -0.5262
24231SOL     OW76190  10.169   1.665   1.639  0.0392  0.3060  0.0262
24231SOL    HW176191  10.261   1.649   1.661  0.3773  1.4885 -0.4855
24231SOL    HW276192  10.149   1.598   1.573  0.2118 -0.6215  0.8892
24232SOL     OW76193   6.481  10.533  10.744  0.1057 -0.1326  0.0048
24232SOL    HW176194   6.575  10.537  10.728 -0.1064 -1.8101 -1.9493
24232SOL    HW276195   6.474  10.533  10.840  2.1760 -1.3344  0.2250
24233SOL     OW76196   0.494   3.811   7.579  0.0121 -0.4067  0.2119
24233SOL    HW176197   0.559   3.798   7.648 -1.4400 -1.7701  1.3949
24233SOL    HW276198   0.542   3.854   7.508  2.1038 -1.0336  1.1762
24234SOL     OW76199   8.829   9.492   0.880  0.0320  0.4008  0.4097
24234SOL    HW176200   8.792   9.498   0.792 -0.7663  1.5147  0.7866
24234SOL    HW276201   8.790   9.566   0.927 -0.6844 -0.9858  2.1215
24235SOL     OW76202   4.436   6.036  10.998  0.3241  0.4963 -0.6780
24235SOL    HW176203   4.408   6.106  11.057 -0.1361 -0.0572 -0.2292
24235SOL    HW276204   4.520   6.006  11.035 -0.2029 -0.1832 -0.0025
24236SOL     OW76205   9.137   7.132  10.985  0.1626  0.0958  0.2634
24236SOL    HW176206   9.165   7.216  10.947  1.3967 -0.3657  0.1155
24236SOL    HW276207   9.217   7.080  10.990 -0.7577 -1.4708 -0.5908
24237SOL     OW76208   2.594   4.447   1.272  0.5210 -0.1253 -0.6166
24237SOL    HW176209   2.560   4.368   1.314  0.9532 -1.0692 -1.9815
24237SOL    HW276210   2.583   4.431   1.179  2.0304  0.7747 -0.9714
24238SOL     OW76211   8.228   8.539   3.385 -0.4838  0.5009  0.3476
24238SOL    HW176212   8.227   8.532   3.481 -2.2757 -1.6641  0.2535
24238SOL    HW276213   8.168   8.612   3.366 -0.3915  0.7168  0.8588
24239SOL     OW76214   4.413   2.656   6.927  0.4041 -0.4802  0.0289
24239SOL    HW176215   4.358   2.578   6.919  0.7501 -0.6550 -0.8702
24239SOL    HW276216   4.415   2.693   6.838 -0.4199  1.0303  0.6016
24240SOL     OW76217   8.109   5.777   1.982  0.1006  0.1677 -0.0270
24240SOL    HW176218   8.099   5.729   2.065  0.9395 -2.9248 -1.5394
24240SOL    HW276219   8.185   5.834   1.996  1.0217 -1.2369  0.9993
24241SOL     OW76220  10.366   7.907   1.948 -0.1691  0.2896 -0.4540
24241SOL    HW176221  10.364   7.814   1.927 -2.0403 -0.0484  0.9500
24241SOL    HW276222  10.413   7.913   2.030 -1.2379  0.3798  0.1724
24242SOL     OW76223   2.696   5.081   2.835 -0.3011 -0.2274 -0.3070
24242SOL    HW176224   2.606   5.104   2.859  0.3759  2.7531 -0.2687
24242SOL    HW276225   2.686   5.002   2.782 -2.6540 -1.5835  1.8792
24243SOL     OW76226   6.475   4.886   1.413 -0.1888  0.2315  0.3528
24243SOL    HW176227   6.440   4.928   1.335  0.4970  1.2774  0.5861
24243SOL    HW276228   6.542   4.827   1.380 -0.4045  0.1279  0.0975
24244SOL     OW76229   6.234   6.602  10.073  0.3120  0.3293 -0.1977
24244SOL    HW176230   6.188   6.681  10.045 -0.4360 -0.0455 -0.0515
24244SOL    HW276231   6.217   6.538  10.004 -2.0845 -0.7994  1.2934
24245SOL     OW76232   0.264   7.384   6.040  0.3751  0.5491 -0.1242
24245SOL    HW176233   0.289   7.425   6.122  1.2144  2.0168 -1.0693
24245SOL    HW276234   0.261   7.456   5.977  0.3273 -0.6136 -1.5049
24246SOL     OW76235   1.210   0.483   0.095 -0.0668  0.2659 -0.1536
24246SOL    HW176236   1.284   0.502   0.153 -0.8540  1.8200  0.4291
24246SOL    HW276237   1.133   0.513   0.144 -1.0422 -0.8154 -0.9526
24247SOL     OW76238   8.542   0.874   3.032  0.4945 -0.0999 -0.0796
24247SOL    HW176239   8.620   0.928   3.049  1.4987 -1.8381  1.1782
24247SOL    HW276240   8.499   0.866   3.117  1.4970 -2.8435  0.2850
24248SOL     OW76241   4.007  10.013  10.101 -0.8563 -0.1374  0.6978
24248SOL    HW176242   4.071  10.014  10.030  0.0393  0.5253  1.4894
24248SOL    HW276243   4.052   9.969  10.174 -0.8164  1.4742  1.6807
24249SOL     OW76244   7.922   9.752   6.905  0.1065  0.5003 -0.2493
24249SOL    HW176245   7.932   9.695   6.829  0.7866  1.5030 -0.9471
24249SOL    HW276246   7.926   9.841   6.869 -0.2442  0.9971  0.8824
24250SOL     OW76247   3.668   0.112   5.230 -0.3993 -0.2010 -0.0932
24250SOL    HW176248   3.584   0.066   5.226 -1.7667  2.2128 -1.9859
24250SOL    HW276249   3.686   0.121   5.324 -2.5622 -0.2767  0.3843
24251SOL     OW76250   3.445   2.643   2.620  0.3376  0.1086  0.0038
24251SOL    HW176251   3.375   2.688   2.668  1.2288 -0.5635  2.0304
24251SOL    HW276252   3.398   2.590   2.555 -0.8717  1.5466 -0.3726
24252SOL     OW76253   0.290   5.922   6.583 -0.5320 -0.1305 -0.2679
24252SOL    HW176254   0.317   5.836   6.617 -0.0175 -0.0313 -0.4081
24252SOL    HW276255   0.362   5.948   6.525 -0.1550  0.8843  0.6148
24253SOL     OW76256   1.981   3.602   0.637  0.4145 -1.0004  0.2239
24253SOL    HW176257   1.931   3.625   0.715  0.2626 -1.1697  0.1789
24253SOL    HW276258   2.071   3.592   0.667  0.3440 -1.1316  0.3909
24254SOL     OW76259   0.774   5.025   1.031  0.1856 -0.2605 -0.0429
24254SOL    HW176260   0.830   5.082   1.084  1.2196 -1.5203  0.2693
24254SOL    HW276261   0.690   5.024   1.078  0.4286  0.3278  0.4105
24255SOL     OW76262   4.444   3.204   2.270  0.8242 -0.0330 -0.3139
24255SOL    HW176263   4.527   3.168   2.300  0.1995 -1.0714  0.2492
24255SOL    HW276264   4.466   3.254   2.191  1.9226 -0.6196 -0.3939
24256SOL     OW76265   9.304   0.250   3.671  0.6163  0.0938  0.8534
24256SOL    HW176266   9.316   0.254   3.577  0.9434  1.4480  0.9378
24256SOL    HW276267   9.211   0.265   3.685  0.5788 -0.0448  0.7433
24257SOL     OW76268  10.865   9.709   4.675 -0.0127 -0.0931 -0.7418
24257SOL    HW176269  10.849   9.701   4.769  1.6363 -2.0218 -0.5501
24257SOL    HW276270  10.859   9.620   4.642 -1.3030  0.6453 -2.6521
24258SOL     OW76271   2.246   8.093   4.467 -0.3952 -0.2055 -0.3019
24258SOL    HW176272   2.217   8.161   4.526 -1.2678 -0.7680 -0.0613
24258SOL    HW276273   2.223   8.125   4.380  1.2799  0.8174 -0.4245
24259SOL     OW76274  10.449   1.719   9.256 -0.2113 -0.5989 -0.8038
24259SOL    HW176275  10.401   1.691   9.179  0.1782 -0.6956 -1.0108
24259SOL    HW276276  10.511   1.649   9.274  1.5113  0.5380 -1.9596
24260SOL     OW76277   5.035   0.267   5.294  0.1104  0.0594 -0.1107
24260SOL    HW176278   5.104   0.217   5.251  0.4232  0.4809 -0.0985
24260SOL    HW276279   4.954   0.234   5.255  0.1332 -1.9948  1.4054
24261SOL     OW76280   9.916   4.366   3.316  0.1967 -0.1476  0.1811
24261SOL    HW176281   9.999   4.369   3.364 -0.6538  1.0325  1.6508
24261SOL    HW276282   9.878   4.281   3.340  1.4403 -1.2073 -1.3949
24262SOL     OW76283   9.726   4.433   3.502  0.4956 -0.5657  0.1489
24262SOL    HW176284   9.790   4.457   3.435 -0.6398  1.4091 -0.2944
24262SOL    HW276285   9.779   4.411   3.579  1.7307  0.8562 -0.2441
24263SOL     OW76286   7.847   2.481   6.255 -0.5153 -1.0606 -1.1460
24263SOL    HW176287   7.887   2.434   6.182 -0.3989 -0.8812 -1.1980
24263SOL    HW276288   7.791   2.546   6.214  0.1208 -0.4600 -1.0891
24264SOL     OW76289   1.946   6.721   5.725  0.1464  0.3510 -0.1353
24264SOL    HW176290   1.923   6.708   5.633  0.4489  1.5831 -0.4032
24264SOL    HW276291   2.041   6.710   5.728 -0.0009 -1.0086  0.2928
24265SOL     OW76292   5.915   0.272   4.443  0.0359  0.2485 -0.7664
24265SOL    HW176293   5.933   0.210   4.514  0.2701  1.0226 -0.1392
24265SOL    HW276294   5.936   0.223   4.363 -0.5915 -0.7643 -0.3436
24266SOL     OW76295   6.173   3.250   2.248  0.1809 -0.0080 -0.0068
24266SOL    HW176296   6.127   3.305   2.312  0.7803  0.3487  0.1278
24266SOL    HW276297   6.198   3.311   2.178  0.2213 -0.2475 -0.2013
24267SOL     OW76298   9.135   5.940   5.328  0.3756 -0.1659 -0.5454
24267SOL    HW176299   9.075   5.967   5.259 -0.5895 -0.6216  0.0971
24267SOL    HW276300   9.222   5.966   5.296 -0.1924  0.8442 -1.3137
24268SOL     OW76301   0.337   7.685   1.193  0.2828 -0.0906 -0.3241
24268SOL    HW176302   0.270   7.753   1.181  0.3514  0.2536  0.9961
24268SOL    HW276303   0.378   7.677   1.108 -2.2131 -1.1737 -1.5299
24269SOL     OW76304   3.139   3.955   0.684 -0.0759 -0.1955  0.0709
24269SOL    HW176305   3.162   3.862   0.678  0.9574 -0.0405  1.3676
24269SOL    HW276306   3.116   3.969   0.776 -1.4640  0.5765 -0.3604
24270SOL     OW76307   0.426   8.749  10.584 -0.0980  0.1224 -0.3725
24270SOL    HW176308   0.369   8.802  10.528 -0.8235 -0.3946 -0.1460
24270SOL    HW276309   0.455   8.678  10.528 -1.5248 -0.8856  0.1021
24271SOL     OW76310   6.457   3.529  10.308 -0.5266 -0.0211  0.1191
24271SOL    HW176311   6.523   3.459  10.309  0.4565  0.8664  1.1548
24271SOL    HW276312   6.452   3.556  10.217 -0.7078 -1.2377 -0.2453
24272SOL     OW76313   7.946   6.729   3.640  0.0215 -0.2538  0.2253
24272SOL    HW176314   7.987   6.708   3.556 -1.7190 -1.2849 -0.4284
24272SOL    HW276315   7.974   6.819   3.658 -0.5996  0.5095 -2.1589
24273SOL     OW76316   6.513   4.382  10.252  0.3015 -0.3284  0.2937
24273SOL    HW176317   6.573   4.401  10.180  0.9518 -1.2898  0.5691
24273SOL    HW276318   6.533   4.292  10.278 -0.6562 -0.3691  0.9755
24274SOL     OW76319   3.020   5.831   3.530  0.2782 -0.3434 -0.0021
24274SOL    HW176320   3.084   5.808   3.597 -1.0810 -2.5387  0.6616
24274SOL    HW276321   2.935   5.821   3.574 -0.5762  0.5772 -1.3814
24275SOL     OW76322   0.144   2.226   1.842  0.1848 -0.7278 -0.3392
24275SOL    HW176323   0.216   2.190   1.893  0.1185  0.6780  0.8174
24275SOL    HW276324   0.184   2.256   1.761  0.2944 -2.9858 -1.2049
24276SOL     OW76325   4.989   1.350   1.231  0.0180 -0.1017 -0.0099
24276SOL    HW176326   5.010   1.321   1.320 -1.9951  1.5916  1.1028
24276SOL    HW276327   4.897   1.374   1.235  0.2198  1.2791 -2.2223
24277SOL     OW76328   8.771   9.909   6.098  0.3674 -0.2993 -0.2396
24277SOL    HW176329   8.861   9.940   6.107  0.0070  0.9890 -0.8899
24277SOL    HW276330   8.778   9.833   6.040  0.9793  0.0447 -0.6219
24278SOL     OW76331   5.575   0.991   4.476 -0.2385 -0.1965  0.3946
24278SOL    HW176332   5.500   1.048   4.457  0.2493  1.5811  3.2339
24278SOL    HW276333   5.650   1.037   4.438 -0.0641  0.1960  1.2033
24279SOL     OW76334   3.424   0.154   7.803 -0.2586 -0.1041 -0.3594
24279SOL    HW176335   3.493   0.098   7.767  0.1984 -0.2643  0.7292
24279SOL    HW276336   3.459   0.243   7.795 -0.0762 -0.1548 -0.1508
24280SOL     OW76337   5.521   7.839   4.429  0.2321  0.1262  0.0395
24280SOL    HW176338   5.455   7.789   4.479  0.8109 -1.0961 -0.3809
24280SOL    HW276339   5.604   7.799   4.453  0.8568  1.6626  0.5621
24281SOL     OW76340   6.051   1.380   3.845 -0.2732 -0.0422  0.4820
24281SOL    HW176341   6.023   1.440   3.914 -0.9605  0.5271 -0.2652
24281SOL    HW276342   6.000   1.407   3.768  0.3997 -0.7223 -0.2199
24282SOL     OW76343  10.871   9.849   3.008 -0.2960  0.4074  0.2406
24282SOL    HW176344  10.920   9.770   3.033 -0.8046  0.5048  1.6597
24282SOL    HW276345  10.786   9.839   3.053 -1.8777 -0.0570 -2.6081
24283SOL     OW76346   6.450   1.801  10.393 -0.3619  0.1370  0.0080
24283SOL    HW176347   6.482   1.726  10.443 -1.4520  0.0820  0.6498
24283SOL    HW276348   6.356   1.786  10.384 -0.5670  1.3371 -0.0171
24284SOL     OW76349   0.303   8.154   6.030  0.0802  0.3584 -0.3534
24284SOL    HW176350   0.327   8.068   5.996  0.2317 -1.2486  3.3586
24284SOL    HW276351   0.386   8.200   6.038  0.0658  0.6835 -1.7492
24285SOL     OW76352   7.870   4.632   3.252 -0.1047 -0.0245  0.1183
24285SOL    HW176353   7.821   4.550   3.262 -0.1125 -0.5322 -3.0916
24285SOL    HW276354   7.957   4.613   3.289 -1.3461  0.0421  3.4058
24286SOL     OW76355   4.212   6.282   3.243 -0.1283 -0.0921 -0.2402
24286SOL    HW176356   4.241   6.330   3.166 -1.7700 -2.2343 -2.3589
24286SOL    HW276357   4.234   6.191   3.224  2.6617 -0.4067  3.4856
24287SOL     OW76358   4.185   4.350   5.583  0.0991  0.4488  0.0042
24287SOL    HW176359   4.128   4.300   5.641  0.8888  0.6807  1.0296
24287SOL    HW276360   4.133   4.365   5.504 -0.2331 -1.8055 -0.2798
24288SOL     OW76361   9.389   2.753   1.684 -0.0823  0.0389 -0.0659
24288SOL    HW176362   9.380   2.847   1.668 -0.8400 -0.2271 -1.3364
24288SOL    HW276363   9.461   2.726   1.628 -0.0667 -0.1897  0.0629
24289SOL     OW76364   6.138   0.999   7.861  0.3834  0.0675 -0.1297
24289SOL    HW176365   6.228   0.968   7.875  0.8944  0.4668 -2.2749
24289SOL    HW276366   6.135   1.083   7.905  1.8232  1.1341 -1.9250
24290SOL     OW76367   5.324   2.758   2.967 -0.1185 -0.4162 -0.5473
24290SOL    HW176368   5.395   2.801   2.919  0.3440 -0.1948  0.3112
24290SOL    HW276369   5.368   2.719   3.043 -0.9756  0.0220  0.1820
24291SOL     OW76370   5.983   3.253   9.947 -1.2562 -0.2019  0.0375
24291SOL    HW176371   6.025   3.328   9.990  0.3706 -0.7828 -0.4817
24291SOL    HW276372   6.034   3.239   9.867 -0.3684 -2.9528  0.9742
24292SOL     OW76373  10.225   8.174  10.938 -0.0333  0.2070 -0.3890
24292SOL    HW176374  10.130   8.177  10.924 -0.2319 -1.7756  0.1962
24292SOL    HW276375  10.261   8.234  10.873 -1.7379  2.0219  0.2334
24293SOL     OW76376   3.713   8.911   1.642 -0.1113 -0.7704  0.2779
24293SOL    HW176377   3.648   8.981   1.634 -1.5353 -2.0341  0.1908
24293SOL    HW276378   3.764   8.916   1.561 -1.0553 -0.6529 -0.3200
24294SOL     OW76379   9.581  10.234   3.214 -0.3490  0.8539  0.3523
24294SOL    HW176380   9.491  10.247   3.185 -0.6704  0.4841  1.1429
24294SOL    HW276381   9.586  10.279   3.298  0.2412  0.9862  0.2488
24295SOL     OW76382   2.152   3.813   2.780  0.0414 -0.0908 -0.0674
24295SOL    HW176383   2.137   3.719   2.766  1.2750 -0.5681  1.4704
24295SOL    HW276384   2.070   3.845   2.818 -0.0341 -0.8022  0.3935
24296SOL     OW76385   7.109   2.758   0.479  0.2649  0.0512 -0.1423
24296SOL    HW176386   7.198   2.794   0.486  0.1065  0.5258 -0.4776
24296SOL    HW276387   7.073   2.765   0.568  0.0790  1.1777 -0.2857
24297SOL     OW76388   9.785   7.767   5.213  0.3629 -0.5224  0.8011
24297SOL    HW176389   9.850   7.835   5.232  1.9597 -1.5684 -0.5859
24297SOL    HW276390   9.719   7.811   5.160  1.3038  0.0163  0.0450
24298SOL     OW76391   3.245   4.483   3.454  0.0333 -0.1348 -0.1886
24298SOL    HW176392   3.235   4.548   3.523  0.1921 -0.5203  0.1979
24298SOL    HW276393   3.157   4.474   3.417 -0.2654 -0.6431  0.6173
24299SOL     OW76394   5.601   2.590   7.576  0.0596  0.4019  0.0007
24299SOL    HW176395   5.584   2.586   7.482 -1.2015  1.1846  0.1676
24299SOL    HW276396   5.694   2.611   7.583  0.7056 -1.7723 -1.0247
24300SOL     OW76397   6.472   6.123   7.549  0.0972 -0.6875  0.3665
24300SOL    HW176398   6.402   6.127   7.484  1.5609  0.4848 -1.2141
24300SOL    HW276399   6.515   6.039   7.532  2.6435  1.0010 -2.7113
24301SOL     OW76400   2.489   1.442   4.985 -0.5091  0.1034 -0.5110
24301SOL    HW176401   2.542   1.487   5.051 -0.3835  0.5291 -0.8995
24301SOL    HW276402   2.399   1.470   5.004 -0.8666 -2.0018  1.2774
24302SOL     OW76403  10.177   7.158   7.292  0.1497  0.5451  0.6561
24302SOL    HW176404  10.241   7.088   7.307 -0.8910 -0.0354  2.6208
24302SOL    HW276405  10.133   7.133   7.211 -0.8441 -1.6177  1.7919
24303SOL     OW76406   1.989   0.904   2.166  0.0492  0.1048  0.4046
24303SOL    HW176407   1.905   0.860   2.151  1.3787 -2.7808  0.7792
24303SOL    HW276408   1.992   0.917   2.261 -0.3929  1.2177  0.2835
24304SOL     OW76409   8.439   4.011   2.133 -0.5622  0.1537  0.0877
24304SOL    HW176410   8.451   3.989   2.041 -1.0256  0.3058 -0.0105
24304SOL    HW276411   8.449   3.928   2.180 -1.6970 -0.1676 -0.2245
24305SOL     OW76412   7.095   6.987   3.038  0.3472 -0.6699 -0.0445
24305SOL    HW176413   7.121   7.070   2.999 -0.5350  0.1668  1.0732
24305SOL    HW276414   7.169   6.928   3.022  1.9955  0.9688  1.1250
24306SOL     OW76415   7.761   8.142   9.046  0.6135  0.2613  0.2343
24306SOL    HW176416   7.834   8.081   9.059  1.0921  0.6896 -0.4029
24306SOL    HW276417   7.741   8.137   8.952 -1.6498 -1.5016  0.7150
24307SOL     OW76418   0.456   4.411   5.193  0.0963 -0.8036  1.0319
24307SOL    HW176419   0.482   4.423   5.284  0.2565  1.0297  0.7756
24307SOL    HW276420   0.366   4.444   5.189  0.0905 -0.8712  0.5322
24308SOL     OW76421   0.588   9.147   8.925  0.6874  0.3434 -0.2759
24308SOL    HW176422   0.545   9.115   8.847  1.5925 -1.9961  0.1069
24308SOL    HW276423   0.679   9.162   8.899  0.9639 -0.3157  0.2602
24309SOL     OW76424   2.100   5.450  10.217 -0.1840 -0.1264 -0.3327
24309SOL    HW176425   2.192   5.467  10.197 -0.1034 -0.3445 -0.1573
24309SOL    HW276426   2.091   5.355  10.206 -0.0901 -0.2893  0.8552
24310SOL     OW76427   5.173   8.717   9.451 -0.4929 -0.0907 -0.1614
24310SOL    HW176428   5.104   8.741   9.390 -0.4209 -2.2797 -1.2088
24310SOL    HW276429   5.132   8.654   9.511 -0.0183  0.4385  0.7483
24311SOL     OW76430   8.976  10.620   2.909 -0.4555  0.2143  0.2628
24311SOL    HW176431   8.987  10.587   2.820  3.1250 -2.8249  1.5413
24311SOL    HW276432   8.915  10.558   2.950 -3.1314  2.3467 -0.2429
24312SOL     OW76433   0.747   8.794   2.281  0.2349 -0.3015 -0.6851
24312SOL    HW176434   0.805   8.725   2.249 -1.1135  0.3066 -5.1423
24312SOL    HW276435   0.802   8.872   2.285  0.9752 -0.8691  1.0076
24313SOL     OW76436   6.627   7.657   8.195 -0.0310  0.6341 -0.3009
24313SOL    HW176437   6.676   7.645   8.276  1.2128  0.5060 -1.0437
24313SOL    HW276438   6.694   7.664   8.127 -1.0279  1.2268 -1.2651
24314SOL     OW76439   0.282   7.769   1.765 -0.2884  0.0542  0.2445
24314SOL    HW176440   0.270   7.864   1.762 -0.4257  0.0468  0.5114
24314SOL    HW276441   0.373   7.757   1.793 -0.5455  0.1089  1.1292
24315SOL     OW76442   3.315   1.342   7.187 -0.2417  0.5971 -0.1953
24315SOL    HW176443   3.370   1.377   7.258 -1.9281  0.5339  1.2203
24315SOL    HW276444   3.377   1.319   7.118  1.5681  0.1286  1.4675
24316SOL     OW76445   7.540   0.653   2.653  0.0078 -0.0382  0.5715
24316SOL    HW176446   7.560   0.741   2.685  0.6534 -0.3684  1.1060
24316SOL    HW276447   7.447   0.655   2.633  0.4802  1.5476 -1.9149
24317SOL     OW76448   8.873   5.722   3.903 -0.1764  0.5639  0.5675
24317SOL    HW176449   8.872   5.652   3.968  0.3493  1.1478  1.2206
24317SOL    HW276450   8.958   5.765   3.915 -0.4437  1.2431  0.1023
24318SOL     OW76451   4.888   5.677   3.491  0.2010 -0.3812 -0.2081
24318SOL    HW176452   4.896   5.654   3.399  1.9200 -0.5874 -0.0539
24318SOL    HW276453   4.796   5.663   3.512 -0.0289 -1.2324 -1.6422
24319SOL     OW76454   3.457   9.175   1.147  0.5335  0.5467  0.7334
24319SOL    HW176455   3.471   9.091   1.105 -1.6964  0.3288  0.3522
24319SOL    HW276456   3.546   9.210   1.159  1.3784 -0.5943 -1.5936
24320SOL     OW76457  10.053   4.418   3.961  0.0492  0.2406 -0.5422
24320SOL    HW176458  10.065   4.452   4.050 -0.6062  2.3833 -1.2183
24320SOL    HW276459  10.141   4.395   3.932  0.1535 -1.5995  1.0258
24321SOL     OW76460   8.721   2.938   1.065  0.0717 -0.1471 -0.0102
24321SOL    HW176461   8.666   2.888   1.005 -0.8868 -1.2621  1.7056
24321SOL    HW276462   8.667   2.949   1.143  1.4447  0.8292  0.8410
24322SOL     OW76463   7.903   3.644   5.098  0.1032 -0.2493  0.5335
24322SOL    HW176464   7.942   3.695   5.168  0.1517  2.6111 -1.4395
24322SOL    HW276465   7.808   3.652   5.113  0.1192 -0.4422  0.7611
24323SOL     OW76466   4.871   6.057   1.002 -0.2623  0.1420 -0.0900
24323SOL    HW176467   4.778   6.071   1.021  0.1509 -0.0551  2.3461
24323SOL    HW276468   4.902   6.142   0.971 -1.4237 -0.0537 -1.9749
24324SOL     OW76469   7.309   8.570   3.200 -0.6447 -0.6962 -0.1860
24324SOL    HW176470   7.343   8.563   3.289 -1.0033  0.7522  0.0807
24324SOL    HW276471   7.362   8.509   3.149  0.4960 -0.5121  0.7535
24325SOL     OW76472   4.645   4.396   1.151 -0.0982  0.2028 -1.0179
24325SOL    HW176473   4.670   4.433   1.236  0.4967  0.8139 -1.4475
24325SOL    HW276474   4.568   4.447   1.125 -1.2663 -1.0399 -0.1365
24326SOL     OW76475   8.804   0.616   8.129  0.1187 -0.0348  0.2811
24326SOL    HW176476   8.727   0.559   8.132  0.0996 -0.1444 -1.3936
24326SOL    HW276477   8.822   0.627   8.036  1.5109  0.8435  0.6257
24327SOL     OW76478   8.498   4.483   1.379 -0.3498  0.5492 -0.1639
24327SOL    HW176479   8.542   4.529   1.450  0.3911 -0.4721  0.0469
24327SOL    HW276480   8.408   4.469   1.411  0.4724 -1.6397  1.4394
24328SOL     OW76481   0.007   1.400   9.415  0.3810  0.7406  0.5363
24328SOL    HW176482   0.064   1.444   9.352 -0.2122  1.0159  0.1806
24328SOL    HW276483  -0.070   1.457   9.422 -0.0719  0.1314  0.6322
24329SOL     OW76484   2.099   6.807   7.325 -0.2210 -0.2797  0.0783
24329SOL    HW176485   2.182   6.854   7.337 -0.3296 -0.0457 -0.0920
24329SOL    HW276486   2.099   6.742   7.395  0.1936 -0.4041 -0.0319
24330SOL     OW76487   9.354   6.364   2.308  0.2914 -0.4504 -0.9520
24330SOL    HW176488   9.259   6.360   2.297  0.1668  1.2014 -0.6312
24330SOL    HW276489   9.374   6.289   2.365 -0.7015 -1.2457 -1.5974
24331SOL     OW76490   4.646   8.380   8.494 -0.0585 -0.0286 -0.4298
24331SOL    HW176491   4.737   8.387   8.464 -0.0340 -0.9283 -0.6052
24331SOL    HW276492   4.597   8.361   8.414 -0.3628  0.1894 -0.2928
24332SOL     OW76493   2.089   6.956   4.180 -0.0944  0.8492 -0.4121
24332SOL    HW176494   2.107   7.000   4.263  2.0322 -1.6605  0.5957
24332SOL    HW276495   2.156   6.989   4.120  1.3010 -0.6414  0.2548
24333SOL     OW76496   7.480   1.864  10.800 -0.0246  0.0836 -0.4214
24333SOL    HW176497   7.401   1.899  10.759  0.3946  1.5290 -0.0507
24333SOL    HW276498   7.450   1.788  10.850 -1.3838  1.1923  0.5227
24334SOL     OW76499   2.956   7.131   1.143  0.9484  0.1321  0.1861
24334SOL    HW176500   2.905   7.210   1.122  0.7217 -0.1145 -0.2118
24334SOL    HW276501   2.891   7.068   1.174  1.0757 -0.0300  0.1222
24335SOL     OW76502   0.886   8.900   7.143 -0.1710 -0.2070  0.0807
24335SOL    HW176503   0.892   8.848   7.063  0.7354 -0.3494  0.2414
24335SOL    HW276504   0.949   8.860   7.203  0.2914  0.8648  0.3204
24336SOL     OW76505  10.360   7.568  10.740 -0.0726  0.1533  0.3275
24336SOL    HW176506  10.331   7.532  10.657  0.6831  1.9477 -0.7545
24336SOL    HW276507  10.281   7.602  10.781 -0.1644  1.1066 -0.6104
24337SOL     OW76508   2.101   9.703   4.599 -0.0879 -0.3102  0.3603
24337SOL    HW176509   2.132   9.613   4.599  1.5288  0.1599 -1.9486
24337SOL    HW276510   2.021   9.701   4.547  1.1592 -0.1402 -1.6757
24338SOL     OW76511   2.621   1.521   1.036 -0.6240 -0.4585 -0.4949
24338SOL    HW176512   2.565   1.458   1.080 -2.5593  0.8633 -0.9313
24338SOL    HW276513   2.582   1.606   1.055  0.9652  0.4930 -1.2442
24339SOL     OW76514   9.444   0.581  10.626  0.8386  0.4961 -0.0625
24339SOL    HW176515   9.441   0.486  10.617  0.2133  0.4607  0.4437
24339SOL    HW276516   9.483   0.596  10.713  0.7656  0.7014 -0.0646
24340SOL     OW76517   4.359  10.895   7.775  0.6914  0.1736 -0.1522
24340SOL    HW176518   4.290  10.837   7.807  1.5591 -0.9575 -0.2369
24340SOL    HW276519   4.314  10.959   7.721 -0.2137 -1.0250 -0.8718
24341SOL     OW76520  10.006   9.754   3.149  0.1592  0.0435 -0.4734
24341SOL    HW176521   9.974   9.685   3.090  2.0844  0.7799 -2.5487
24341SOL    HW276522  10.094   9.725   3.174  0.5565  1.1966 -0.4789
24342SOL     OW76523   0.850   6.478   7.096  0.8552  0.0920 -0.2134
24342SOL    HW176524   0.852   6.408   7.161 -0.6977 -0.4185 -0.6647
24342SOL    HW276525   0.774   6.458   7.042  1.9371  0.6620 -2.0189
24343SOL     OW76526   5.119   3.693   7.152  0.6809  0.4733  0.2454
24343SOL    HW176527   5.143   3.739   7.233 -0.9173  1.0548  0.4326
24343SOL    HW276528   5.116   3.761   7.085 -0.3537  0.4294  0.2268
24344SOL     OW76529   7.324   1.818   0.091  0.4337  0.4206 -0.3091
24344SOL    HW176530   7.276   1.800   0.172  0.8556 -2.3516 -0.5869
24344SOL    HW276531   7.259   1.804   0.021  0.5481  0.9819 -0.5360
24345SOL     OW76532   4.394   4.759   0.305 -0.0893  0.1814  0.3685
24345SOL    HW176533   4.325   4.785   0.244 -0.6537 -0.8329  0.5495
24345SOL    HW276534   4.361   4.679   0.346  2.0124 -1.4706 -0.9388
24346SOL     OW76535   9.264   7.297   2.035 -0.0497 -0.1494  0.2994
24346SOL    HW176536   9.356   7.290   2.009  0.3678  0.4368  1.5537
24346SOL    HW276537   9.264   7.279   2.129 -1.0285  1.1049  0.5678
24347SOL     OW76538   1.833   1.378   9.576 -0.6750 -0.5556 -0.0344
24347SOL    HW176539   1.794   1.310   9.631 -0.4175 -1.7692 -1.2973
24347SOL    HW276540   1.769   1.391   9.506 -0.3771 -0.0435 -0.2135
24348SOL     OW76541   6.255  10.716   0.611 -0.0708 -0.1167 -0.1329
24348SOL    HW176542   6.346  10.731   0.585 -0.6634 -2.3079 -4.3730
24348SOL    HW276543   6.205  10.782   0.563 -0.9168 -0.6258  0.0276
24349SOL     OW76544   5.520   7.937   6.066 -0.1531 -0.1808  0.4549
24349SOL    HW176545   5.472   7.859   6.093  0.0175 -0.1493  0.8566
24349SOL    HW276546   5.563   7.912   5.984 -0.4951 -0.3486  0.3261
24350SOL     OW76547   6.322   5.238  10.661 -0.2783 -0.0996 -0.0562
24350SOL    HW176548   6.310   5.331  10.677 -0.0235 -0.2170  0.8600
24350SOL    HW276549   6.416   5.227  10.646 -0.2638 -0.2559  0.1434
24351SOL     OW76550  10.199   5.454   2.666 -0.2835 -0.3685  0.4108
24351SOL    HW176551  10.139   5.513   2.712 -0.2201  0.3264 -0.3736
24351SOL    HW276552  10.242   5.510   2.602  0.5218 -1.0678  0.3365
24352SOL     OW76553   3.995   9.000   6.282 -0.4610 -0.1732  0.4665
24352SOL    HW176554   3.949   8.963   6.357  0.6731  1.4635  2.0638
24352SOL    HW276555   3.960   9.089   6.275  1.6356  0.7577  1.0756
24353SOL     OW76556   7.882   0.691   6.400 -0.6179 -0.0161 -0.2355
24353SOL    HW176557   7.835   0.760   6.353  0.0005 -0.2158 -1.1721
24353SOL    HW276558   7.823   0.616   6.398 -0.7970  0.1235 -0.2472
24354SOL     OW76559   3.021   5.342  10.554  0.6564 -0.2319 -0.1779
24354SOL    HW176560   2.980   5.267  10.598 -0.8904  0.6317 -0.0684
24354SOL    HW276561   3.062   5.391  10.625 -1.7993  1.1360  0.4237
24355SOL     OW76562   4.212   4.041   4.130 -0.1784 -0.1415  0.1468
24355SOL    HW176563   4.119   4.063   4.132  0.2465  1.9882 -0.1325
24355SOL    HW276564   4.227   4.011   4.040 -0.7960 -1.7572  0.5436
24356SOL     OW76565   7.726   7.857   3.336  0.7042 -0.4756 -0.2601
24356SOL    HW176566   7.766   7.927   3.285 -0.4034 -0.3431 -0.9664
24356SOL    HW276567   7.672   7.902   3.401 -1.4427 -0.6060 -1.8410
24357SOL     OW76568   3.438   9.023   9.480 -0.0173 -0.3431  0.5223
24357SOL    HW176569   3.472   9.112   9.481  3.5188 -1.4597  3.5611
24357SOL    HW276570   3.509   8.971   9.442 -0.4036 -2.2764  2.3101
24358SOL     OW76571   1.442   7.814  10.460 -0.1914  0.4212  0.0344
24358SOL    HW176572   1.485   7.897  10.479  0.4441  0.3331 -0.9481
24358SOL    HW276573   1.505   7.747  10.487 -0.4098  0.2679  0.1671
24359SOL     OW76574  10.993   0.630   4.032  0.5121 -0.7611 -0.7519
24359SOL    HW176575  11.051   0.690   4.080 -1.6145  0.8116  0.0454
24359SOL    HW276576  10.972   0.677   3.951 -1.5212 -0.0811  0.0731
24360SOL     OW76577   8.204   7.523   1.906  0.2472 -0.2032 -0.4633
24360SOL    HW176578   8.292   7.560   1.893  0.2120 -0.2168 -0.7430
24360SOL    HW276579   8.156   7.591   1.952 -0.4439  0.9699 -2.7684
24361SOL     OW76580   0.527   5.989  10.246  0.0074 -0.1885 -0.5059
24361SOL    HW176581   0.600   5.968  10.188  0.9531  1.2611  0.1025
24361SOL    HW276582   0.545   5.939  10.326  1.0868  1.1735  0.1380
24362SOL     OW76583   3.043   3.062   1.979  0.1300 -0.1820 -0.5760
24362SOL    HW176584   3.068   3.126   2.046  1.8086 -1.1366 -0.2099
24362SOL    HW276585   3.063   3.105   1.896 -0.0690  0.2704 -0.3950
24363SOL     OW76586   5.015   4.523   1.159 -0.2448  0.1940  0.3493
24363SOL    HW176587   4.981   4.609   1.184  1.7584  0.8540  0.9952
24363SOL    HW276588   5.009   4.521   1.064  1.2945  1.8161  0.1735
24364SOL     OW76589   9.234  10.357   9.088  0.0989 -0.1590  0.2925
24364SOL    HW176590   9.220  10.383   9.179  0.4155 -0.7729  0.5246
24364SOL    HW276591   9.173  10.284   9.074 -1.1070  0.9715 -0.4874
24365SOL     OW76592   3.187   7.678   1.980  0.3624 -0.5176 -0.0091
24365SOL    HW176593   3.112   7.683   1.921  0.8343  1.5273 -0.5246
24365SOL    HW276594   3.163   7.734   2.054  0.2263 -2.1929  1.2849
24366SOL     OW76595   3.858  10.808   0.905  0.5173 -0.6675 -0.4977
24366SOL    HW176596   3.942  10.810   0.950  0.8586 -0.5632 -1.1247
24366SOL    HW276597   3.809  10.737   0.946  1.5827 -1.9052 -1.3148
24367SOL     OW76598   1.477   6.453   3.290  0.3562 -0.0070  0.0584
24367SOL    HW176599   1.566   6.421   3.273  0.3807 -0.1101  0.3679
24367SOL    HW276600   1.473   6.536   3.244  0.5922 -0.0345 -0.0165
24368SOL     OW76601   2.059   4.201   6.995 -0.6875 -0.1659 -0.0319
24368SOL    HW176602   2.050   4.235   7.085 -2.9898 -1.1134  0.1694
24368SOL    HW276603   2.045   4.278   6.939 -1.6959  0.0048  0.4313
24369SOL     OW76604   0.260   2.446  10.841 -0.9932  0.6806  0.2804
24369SOL    HW176605   0.284   2.537  10.826 -1.4645  0.7464 -0.0971
24369SOL    HW276606   0.227   2.416  10.756 -0.3087 -0.0071  0.2453
24370SOL     OW76607   8.076   9.930   7.995  0.1355  0.0837 -0.2446
24370SOL    HW176608   8.005   9.904   7.936  0.7456 -0.0788 -0.9351
24370SOL    HW276609   8.138   9.975   7.938  0.0532  1.2452  0.5663
24371SOL     OW76610   2.902   3.477   9.404 -0.1010 -0.5955 -0.0920
24371SOL    HW176611   2.809   3.497   9.417 -0.0043 -0.6554  0.7706
24371SOL    HW276612   2.912   3.471   9.309 -0.5128  1.6593 -0.3356
24372SOL     OW76613   7.893   9.851   5.557  0.2234  0.0242 -0.3120
24372SOL    HW176614   7.806   9.823   5.585  0.6646  0.0617  1.1790
24372SOL    HW276615   7.923   9.910   5.625  1.6746 -0.4855 -0.4589
24373SOL     OW76616   2.625   2.138   8.871 -0.0028  0.5459 -0.1773
24373SOL    HW176617   2.714   2.142   8.906  0.2812 -1.0416 -0.6104
24373SOL    HW276618   2.595   2.050   8.893 -1.5096  1.0836  0.0350
24374SOL     OW76619   6.951   5.447   8.806  0.0640  0.4198  0.2884
24374SOL    HW176620   6.880   5.429   8.743 -1.3294 -0.4508  2.0309
24374SOL    HW276621   6.970   5.540   8.794 -1.5417  0.7371 -0.0830
24375SOL     OW76622   4.173   5.171   4.321 -0.2829  0.0486 -0.2239
24375SOL    HW176623   4.124   5.153   4.240  0.8747 -2.2008 -0.5063
24375SOL    HW276624   4.115   5.145   4.391 -0.6761  0.4400 -0.4002
24376SOL     OW76625   7.993   7.957   9.085  0.3178  0.2827  0.0725
24376SOL    HW176626   7.987   7.864   9.065  0.8568  0.0398  0.9755
24376SOL    HW276627   8.077   7.985   9.046  0.4665  0.2397  0.3605
24377SOL     OW76628   6.367   7.909   8.847  0.1274 -0.3642  0.6261
24377SOL    HW176629   6.313   7.831   8.834 -0.0754 -0.0789 -0.3138
24377SOL    HW276630   6.304   7.981   8.852  0.2932 -0.2760  1.8067
24378SOL     OW76631   7.055   6.110   1.756  0.4498 -0.2913 -0.3333
24378SOL    HW176632   7.114   6.150   1.692  1.3640  0.1470  0.7456
24378SOL    HW276633   7.027   6.182   1.812 -0.4324 -0.6464 -0.2918
24379SOL     OW76634   7.938   3.839   1.587  0.4642  0.1155  0.0118
24379SOL    HW176635   7.973   3.753   1.610 -0.1623 -0.3985 -0.8963
24379SOL    HW276636   7.964   3.896   1.660  3.6965 -0.0661 -0.8218
24380SOL     OW76637   8.023   8.340   0.681  0.2578 -0.4143  1.0813
24380SOL    HW176638   7.972   8.403   0.630 -0.1630 -0.4883  1.4011
24380SOL    HW276639   7.996   8.254   0.647 -1.5645 -0.5886  2.7465
24381SOL     OW76640   0.998   3.853   7.729 -0.0285 -0.5271 -0.1670
24381SOL    HW176641   1.091   3.873   7.739 -0.5119  0.8366  2.2283
24381SOL    HW276642   0.993   3.758   7.735  1.2470 -0.6547 -0.8559
24382SOL     OW76643   3.238   9.340   0.811 -0.1216  0.5816 -0.0108
24382SOL    HW176644   3.185   9.260   0.813 -1.0680  1.1149 -1.6293
24382SOL    HW276645   3.259   9.357   0.903  0.1632 -1.5417  0.3808
24383SOL     OW76646   9.022   1.578   0.119 -0.5141 -0.0401 -0.0328
24383SOL    HW176647   9.046   1.522   0.045 -1.2125  0.3402 -0.5475
24383SOL    HW276648   8.927   1.586   0.114 -0.6698 -0.6904  1.4001
24384SOL     OW76649   1.575   3.101   7.326  0.0726  0.3433 -0.1586
24384SOL    HW176650   1.621   3.072   7.248  0.9087  1.7654 -0.2378
24384SOL    HW276651   1.610   3.189   7.343  0.6001 -0.2404  2.3205
24385SOL     OW76652   9.292   2.511   0.349 -0.0042 -0.6519  0.0936
24385SOL    HW176653   9.249   2.435   0.311 -0.1100 -0.1576 -0.8110
24385SOL    HW276654   9.316   2.565   0.273  0.5603 -0.0509  0.6891
24386SOL     OW76655   5.828   2.913   6.343  0.0346 -0.0296  0.4778
24386SOL    HW176656   5.770   2.864   6.400 -0.5312 -0.9952 -0.8966
24386SOL    HW276657   5.770   2.966   6.289  0.3610 -1.3468 -1.2234
24387SOL     OW76658   1.952   6.448   6.448 -0.1474 -0.5502 -0.1358
24387SOL    HW176659   1.929   6.436   6.356  0.9865  1.9132 -0.8208
24387SOL    HW276660   1.870   6.471   6.491 -0.6478 -1.5239 -0.5472
24388SOL     OW76661   9.309   3.326  10.048  0.5349  0.1557  0.2428
24388SOL    HW176662   9.382   3.387  10.048  1.6405 -1.1154  0.6262
24388SOL    HW276663   9.338   3.255   9.991  0.6641 -1.5367  2.2800
24389SOL     OW76664   1.442   8.711   0.559 -0.0733 -0.0410 -0.2418
24389SOL    HW176665   1.427   8.733   0.467 -0.1821  0.4277 -0.1145
24389SOL    HW276666   1.356   8.716   0.600  0.0214  0.0486 -0.0514
24390SOL     OW76667  10.777   3.405   2.438  0.1884  0.3724 -0.3166
24390SOL    HW176668  10.723   3.327   2.432 -0.5629  0.8244  0.2188
24390SOL    HW276669  10.720   3.476   2.409  1.2812  0.5771 -2.0959
24391SOL     OW76670   3.147   2.032   3.056  0.0950 -0.5306 -0.1082
24391SOL    HW176671   3.083   2.078   3.110 -0.3503 -1.8495  0.5339
24391SOL    HW276672   3.178   2.097   2.994  0.5449  1.0164  1.6612
24392SOL     OW76673   7.506   2.293   9.536 -0.5793  0.2045  0.3705
24392SOL    HW176674   7.501   2.255   9.449 -0.1826  2.8780 -0.9344
24392SOL    HW276675   7.590   2.339   9.537 -0.4147 -0.0498  2.3090
24393SOL     OW76676   4.189   5.360   5.167  0.7894 -0.2610 -0.2084
24393SOL    HW176677   4.160   5.294   5.104 -0.0451 -0.3156  0.2223
24393SOL    HW276678   4.278   5.335   5.189  1.3017  0.0551 -1.7560
24394SOL     OW76679  10.617  10.543   1.228  0.4062 -0.4952  0.3994
24394SOL    HW176680  10.599  10.495   1.147  0.5063  0.1982 -0.0404
24394SOL    HW276681  10.690  10.601   1.206 -0.8805  1.1835  0.3809
24395SOL     OW76682   4.885   2.644   3.648 -0.1557 -0.2493  0.3215
24395SOL    HW176683   4.975   2.643   3.616  0.5194 -1.2134  2.1047
24395SOL    HW276684   4.832   2.624   3.571  1.0788  0.9094 -0.8809
24396SOL     OW76685   3.311   0.859   5.019 -0.0198  0.2381 -0.1546
24396SOL    HW176686   3.296   0.837   5.111  1.2491  1.5491  0.4155
24396SOL    HW276687   3.226   0.845   4.977 -0.5882 -0.5389  1.1771
24397SOL     OW76688  10.405   1.394   5.678 -0.0245  0.0152 -0.0527
24397SOL    HW176689  10.368   1.452   5.745 -1.1673  0.6235 -1.1658
24397SOL    HW276690  10.353   1.413   5.599  1.6328 -0.2801 -1.2564
24398SOL     OW76691   6.396   4.665   5.081 -0.1035 -0.3136 -0.0341
24398SOL    HW176692   6.434   4.752   5.063 -1.5398  0.4580  0.5098
24398SOL    HW276693   6.429   4.610   5.011 -0.3316  1.0431 -1.2675
24399SOL     OW76694   0.253   9.622   4.038 -0.1484  0.4713 -0.2398
24399SOL    HW176695   0.255   9.598   3.945 -1.1404  1.7939 -0.6356
24399SOL    HW276696   0.300   9.552   4.082 -0.0048 -0.3858 -1.7011
24400SOL     OW76697   1.740  10.992   1.304 -0.1965  0.3564 -0.2639
24400SOL    HW176698   1.702  10.961   1.386  2.1343 -0.6753  0.5216
24400SOL    HW276699   1.753  11.086   1.318  1.0307  0.0444  0.9877
24401SOL     OW76700   8.942   0.792   9.695 -0.4515  0.0863 -0.1440
24401SOL    HW176701   9.020   0.736   9.699  1.0604  2.1315  2.2666
24401SOL    HW276702   8.897   0.774   9.778 -0.1081  2.0766  0.5267
24402SOL     OW76703   2.141   8.383   3.349  0.1400  0.1076  0.1682
24402SOL    HW176704   2.161   8.439   3.274 -2.9678 -1.5154 -2.1421
24402SOL    HW276705   2.226   8.359   3.385  1.7759  1.4678 -2.4783
24403SOL     OW76706   1.919   9.332   1.813  0.4319 -0.2615  0.1661
24403SOL    HW176707   1.916   9.270   1.886 -0.4321 -0.4160  0.0056
24403SOL    HW276708   1.845   9.391   1.829  0.6235  0.0907 -0.2451
24404SOL     OW76709  10.933   1.977   9.588 -0.5085 -0.1019  0.3788
24404SOL    HW176710  10.873   1.980   9.663  0.6276 -0.1384  1.3200
24404SOL    HW276711  10.943   1.884   9.569 -0.0555 -0.1480  0.8148
24405SOL     OW76712   6.291   7.943   7.615  0.2234  0.2105 -0.6203
24405SOL    HW176713   6.333   7.912   7.695  0.9287 -0.0422 -1.0814
24405SOL    HW276714   6.354   8.006   7.578  0.5926 -0.7964 -1.7559
24406SOL     OW76715   4.890   4.252   9.576 -0.1271  0.1080 -0.5207
24406SOL    HW176716   4.934   4.287   9.653 -0.3316 -0.5998 -0.0763
24406SOL    HW276717   4.844   4.175   9.607 -0.1960 -0.2023 -1.3560
24407SOL     OW76718   1.669   5.115   6.600 -0.1744 -0.8319  0.4485
24407SOL    HW176719   1.638   5.121   6.510  1.0291  0.6351  0.0765
24407SOL    HW276720   1.655   5.203   6.636  0.6433 -1.0093  1.2379
24408SOL     OW76721   6.982   4.572   2.969 -0.0762 -1.0824  0.3103
24408SOL    HW176722   7.067   4.613   2.953 -0.5311  1.2465  2.9626
24408SOL    HW276723   6.999   4.508   3.038 -0.3711 -0.9192  0.5399
24409SOL     OW76724  10.060  10.649   1.650 -0.7206 -0.2388  0.2357
24409SOL    HW176725   9.991  10.711   1.624 -0.1240  0.1495 -0.4816
24409SOL    HW276726  10.131  10.705   1.683 -0.5831 -0.6061  0.5640
24410SOL     OW76727   4.407  10.649   0.585  0.2044 -0.4623 -0.2426
24410SOL    HW176728   4.407  10.593   0.508 -0.9618 -0.9407  0.0866
24410SOL    HW276729   4.381  10.591   0.657 -1.5434  0.5761  0.0326
24411SOL     OW76730   8.223   2.889   1.158  0.1101 -0.0592  0.2341
24411SOL    HW176731   8.197   2.981   1.160 -0.9425 -0.2867 -1.0346
24411SOL    HW276732   8.286   2.884   1.087  1.0344 -0.1332  1.0451
24412SOL     OW76733   6.463  10.286   9.610  0.2125 -0.1472  0.0087
24412SOL    HW176734   6.506  10.339   9.542 -0.7557 -0.8561 -1.2089
24412SOL    HW276735   6.509  10.202   9.608 -0.1820 -0.3669 -0.2053
24413SOL     OW76736   1.261   9.539   5.571 -0.0694 -0.5535  0.5307
24413SOL    HW176737   1.348   9.567   5.542 -0.4995 -0.0241 -0.2776
24413SOL    HW276738   1.276   9.498   5.656  1.2248 -2.1199 -0.4085
24414SOL     OW76739   4.558   6.767   1.961 -0.1594 -0.7059  0.0455
24414SOL    HW176740   4.484   6.803   1.913  1.3767  3.3559  0.3662
24414SOL    HW276741   4.519   6.708   2.025 -3.1731  1.3942  0.3353
24415SOL     OW76742   7.082   3.476   3.196  0.2833 -0.1566 -0.3328
24415SOL    HW176743   7.036   3.528   3.262 -0.2636 -0.3132 -0.5803
24415SOL    HW276744   7.016   3.462   3.127  0.8073 -0.0967 -0.8519
24416SOL     OW76745   9.778   1.830   7.041 -0.2231  0.8837 -0.3338
24416SOL    HW176746   9.766   1.917   7.002  2.5997  2.5160  2.0398
24416SOL    HW276747   9.857   1.796   7.000 -0.4744  0.1106 -0.1792
24417SOL     OW76748   1.147   8.926   2.134  0.3663 -0.1324  0.0282
24417SOL    HW176749   1.169   9.002   2.079  0.5650  0.2161  0.5785
24417SOL    HW276750   1.121   8.858   2.072 -0.4661  0.5978 -0.4557
24418SOL     OW76751   4.250   3.210   8.531 -0.4648  0.1431 -0.1250
24418SOL    HW176752   4.181   3.268   8.496  0.6605 -0.4500 -3.7418
24418SOL    HW276753   4.237   3.127   8.485 -0.5708 -1.8481  3.1877
24419SOL     OW76754   4.917  10.291   3.973 -0.2302 -0.0129 -0.0190
24419SOL    HW176755   4.894  10.275   4.064  0.2673 -1.6398 -0.1551
24419SOL    HW276756   5.006  10.256   3.964  0.1189  1.0285 -0.8981
24420SOL     OW76757   7.148   0.236   0.402  0.0903  0.3387  0.3414
24420SOL    HW176758   7.204   0.163   0.427  0.5420  0.1707 -1.0481
24420SOL    HW276759   7.066   0.221   0.448 -0.2219 -1.6617 -0.7808
24421SOL     OW76760   4.013   8.570   8.589  0.3369  0.2405  0.2388
24421SOL    HW176761   4.084   8.629   8.564  1.0793 -0.1083  1.4597
24421SOL    HW276762   4.043   8.483   8.563 -0.0399  0.1880 -0.0436
24422SOL     OW76763   0.068   1.639   2.998  0.3110  0.2953  0.0143
24422SOL    HW176764   0.073   1.710   2.934 -1.0497  0.5992  0.2126
24422SOL    HW276765   0.102   1.562   2.951  0.2491  0.7225 -0.7518
24423SOL     OW76766   4.174  10.425   8.175  0.5443 -0.1452 -0.1209
24423SOL    HW176767   4.169  10.352   8.112  0.7973  0.5102 -0.9130
24423SOL    HW276768   4.179  10.503   8.120  1.1198  0.4181  0.7276
24424SOL     OW76769   3.473   5.839   4.245 -0.2235 -0.4651 -0.0950
24424SOL    HW176770   3.533   5.806   4.312 -0.0957  0.6228  0.3433
24424SOL    HW276771   3.388   5.843   4.288 -0.3208 -0.6123 -0.2711
24425SOL     OW76772  10.656   7.492   0.148 -0.0527 -0.3937  0.1672
24425SOL    HW176773  10.734   7.457   0.104  1.4886  0.5007  2.0203
24425SOL    HW276774  10.583   7.443   0.110  1.2737 -0.5528 -2.3906
24426SOL     OW76775   3.971   1.358   6.971  0.8210 -0.3122 -0.1086
24426SOL    HW176776   3.992   1.265   6.982  0.1499 -0.2807  1.7940
24426SOL    HW276777   3.923   1.381   7.051  2.2466  2.0406  0.1524
24427SOL     OW76778   8.340   8.299   3.224  0.5830 -0.3479  0.5096
24427SOL    HW176779   8.296   8.373   3.267 -0.8713 -1.0108  0.2191
24427SOL    HW276780   8.302   8.222   3.266  2.2486 -0.9625  0.9671
24428SOL     OW76781  10.013  10.138   7.786  0.1113 -0.4109  0.1164
24428SOL    HW176782  10.083  10.175   7.732 -0.2611 -0.7414 -0.6121
24428SOL    HW276783  10.044  10.051   7.810  0.0424 -0.4776 -0.0341
24429SOL     OW76784   0.860   4.224   5.924  0.2302 -0.0231  0.2596
24429SOL    HW176785   0.915   4.212   6.001 -0.6283  0.5563  0.9757
24429SOL    HW276786   0.772   4.202   5.954 -0.2254  0.9159 -0.3625
24430SOL     OW76787   0.194   8.045   2.190 -0.2958  0.4376 -0.1838
24430SOL    HW176788   0.123   7.996   2.149  1.1590 -1.0786 -1.0006
24430SOL    HW276789   0.173   8.137   2.174 -1.0621 -0.0408 -2.1556
24431SOL     OW76790  10.415   0.341   7.086  0.2757  0.0799 -0.2559
24431SOL    HW176791  10.449   0.420   7.045  1.1801 -0.7220 -1.0991
24431SOL    HW276792  10.362   0.299   7.018  0.4079 -0.3970 -0.0739
24432SOL     OW76793  10.351   6.263   1.420 -0.5523 -0.1834 -0.7778
24432SOL    HW176794  10.329   6.285   1.511  0.5170 -1.5228 -0.1647
24432SOL    HW276795  10.327   6.341   1.370  1.8875  1.9475  1.0910
24433SOL     OW76796   1.541  10.535   2.262  0.3160  0.1657  0.5351
24433SOL    HW176797   1.577  10.472   2.200  0.4226  1.2317 -0.5085
24433SOL    HW276798   1.490  10.481   2.323  0.4311 -0.9320 -0.2970
24434SOL     OW76799   5.640   1.172   6.651  0.1662 -0.1955 -0.0927
24434SOL    HW176800   5.698   1.245   6.627  0.2758 -0.5012 -0.7823
24434SOL    HW276801   5.644   1.169   6.747  0.9136  0.0929 -0.1091
24435SOL     OW76802  10.305   1.188   4.199  0.1200  0.4252  0.1630
24435SOL    HW176803  10.397   1.175   4.174 -0.3072  0.2140 -1.4450
24435SOL    HW276804  10.261   1.109   4.167 -0.9605  1.5000 -1.1415
24436SOL     OW76805   0.226  10.080   0.391  0.9169 -0.4443  0.1164
24436SOL    HW176806   0.271  10.073   0.475  1.0917  1.1322  0.1790
24436SOL    HW276807   0.246  10.168   0.360 -0.6622 -0.3291 -0.6905
24437SOL     OW76808   6.554   1.653   9.721 -0.3722 -0.1208  0.0413
24437SOL    HW176809   6.510   1.651   9.806  0.2794 -0.6479  0.3797
24437SOL    HW276810   6.484   1.648   9.657 -0.7891 -1.4461  0.5724
24438SOL     OW76811   5.199   2.144   9.146 -0.0918 -0.5587 -0.0746
24438SOL    HW176812   5.275   2.182   9.104 -0.0492 -0.9852 -0.3973
24438SOL    HW276813   5.124   2.182   9.100 -0.0957  0.3759  0.6929
24439SOL     OW76814   0.174   2.485   5.333 -0.2324 -0.4728 -0.0653
24439SOL    HW176815   0.162   2.471   5.427  0.6178 -0.2618  0.0856
24439SOL    HW276816   0.117   2.558   5.312 -0.5703 -0.6424  0.2527
24440SOL     OW76817   9.221   9.057   7.227 -0.4553 -0.1149 -0.1307
24440SOL    HW176818   9.286   9.128   7.238  0.0987 -0.7611  0.9939
24440SOL    HW276819   9.145   9.087   7.277  0.0358 -0.5989  0.9388
24441SOL     OW76820   8.013   7.857   5.301 -0.0906 -0.3678 -0.2442
24441SOL    HW176821   8.053   7.927   5.249 -4.1639  1.5553 -1.1770
24441SOL    HW276822   8.012   7.890   5.390 -0.5178  0.0924 -0.4116
24442SOL     OW76823   5.437   6.908   2.880 -0.3612  0.2661 -0.5804
24442SOL    HW176824   5.451   6.872   2.792  0.3126  0.2977 -0.4903
24442SOL    HW276825   5.519   6.953   2.901  0.0036 -0.9219  0.6331
24443SOL     OW76826   8.695   0.612   7.654  0.0623  0.1056  0.0840
24443SOL    HW176827   8.687   0.525   7.615  0.5359  0.2713 -0.3997
24443SOL    HW276828   8.627   0.615   7.721  0.5699 -0.9405  0.6650
24444SOL     OW76829   8.931   3.152   1.491 -0.5562  0.3234  0.0498
24444SOL    HW176830   8.962   3.076   1.541  1.3753  0.7527 -0.4089
24444SOL    HW276831   8.860   3.118   1.436 -0.1840 -0.9898  0.3598
24445SOL     OW76832   8.792   5.481   3.795  0.0990  0.0346 -0.0800
24445SOL    HW176833   8.748   5.553   3.750 -1.3431 -1.0133 -0.4386
24445SOL    HW276834   8.865   5.522   3.841 -2.0002  2.1136  1.6105
24446SOL     OW76835   6.229  10.503   7.596 -0.2024 -0.0721  0.3650
24446SOL    HW176836   6.240  10.597   7.583 -0.8259 -0.0280  0.0783
24446SOL    HW276837   6.246  10.489   7.689  0.1791  0.2784  0.3491
24447SOL     OW76838   9.949   4.691   3.606 -0.1594  0.4452 -0.3423
24447SOL    HW176839   9.925   4.609   3.650  0.4208  0.8468  0.7749
24447SOL    HW276840  10.017   4.728   3.662  1.6935  0.2943 -2.3562
24448SOL     OW76841   2.182   1.706   2.060 -0.0401  0.0832 -0.1537
24448SOL    HW176842   2.147   1.640   2.119  2.6245 -0.9056  0.4794
24448SOL    HW276843   2.130   1.784   2.077 -1.2975 -1.0050  1.2943
24449SOL     OW76844  10.720  10.779   2.640  0.3617  0.1248 -0.1479
24449SOL    HW176845  10.655  10.709   2.648 -0.8674  1.3423  1.2533
24449SOL    HW276846  10.698  10.822   2.557 -0.4115  0.3071  0.1424
24450SOL     OW76847   0.663   1.701   5.367 -0.1396  0.5335  0.0477
24450SOL    HW176848   0.719   1.757   5.313 -1.2013  0.8518 -0.7566
24450SOL    HW276849   0.649   1.622   5.315  1.0332 -0.3523  1.0171
24451SOL     OW76850   4.465   9.289   1.522 -0.3036 -0.3833  0.1522
24451SOL    HW176851   4.385   9.270   1.571 -1.1762 -0.7270 -1.3399
24451SOL    HW276852   4.465   9.227   1.449  0.7941  0.2938 -0.4643
24452SOL     OW76853   9.068   5.138  10.283  0.1188  0.2494  0.1347
24452SOL    HW176854   8.994   5.195  10.305 -0.3137 -0.3158  0.1550
24452SOL    HW276855   9.031   5.050  10.280  0.6404  0.0473 -0.5899
24453SOL     OW76856   5.236   0.230   0.206 -0.0882  0.3890  0.2445
24453SOL    HW176857   5.163   0.271   0.161 -0.7572  0.0259  0.9760
24453SOL    HW276858   5.233   0.265   0.294 -0.3996 -0.8577  0.7545
24454SOL     OW76859   4.150   0.347   3.026 -0.8481 -1.1559 -0.2831
24454SOL    HW176860   4.097   0.408   2.975  0.3529  0.4092  0.2756
24454SOL    HW276861   4.217   0.317   2.965 -0.9254 -1.2772 -0.3106
24455SOL     OW76862   7.772   1.209   8.105  0.0439  0.4620  0.0992
24455SOL    HW176863   7.826   1.288   8.103  0.1714  0.4849  2.1327
24455SOL    HW276864   7.805   1.159   8.180  0.1994 -1.7271 -1.3373
24456SOL     OW76865   5.496   7.621  10.214 -0.3565 -0.0546  0.0728
24456SOL    HW176866   5.555   7.574  10.155 -0.8921 -0.3184 -0.2643
24456SOL    HW276867   5.510   7.580  10.299  1.1755  1.0127  0.3744
24457SOL     OW76868   6.107   9.077   0.230  0.2737  0.3476  0.1597
24457SOL    HW176869   6.071   9.048   0.314 -0.4246 -0.6273 -0.4462
24457SOL    HW276870   6.147   9.162   0.248 -0.4280  0.4415  1.3308
24458SOL     OW76871   5.087   1.826   1.531  0.3175 -0.2339  0.0809
24458SOL    HW176872   5.010   1.846   1.584  0.6546 -0.2470  0.5864
24458SOL    HW276873   5.159   1.872   1.574  0.5333  0.0847 -0.6010
24459SOL     OW76874   8.858   4.526   8.553  0.4980 -0.5465 -0.2853
24459SOL    HW176875   8.856   4.612   8.510  3.5470 -0.4239 -0.4205
24459SOL    HW276876   8.786   4.528   8.615  0.2685  1.9906 -0.5412
24460SOL     OW76877   0.101   7.063   0.747 -0.3283 -0.2881  0.2059
24460SOL    HW176878   0.032   7.079   0.812 -2.2237  0.7849 -1.9103
24460SOL    HW276879   0.136   6.977   0.770 -3.5035 -1.6573  0.5215
24461SOL     OW76880   4.680   0.004   9.479  0.3082  0.4579  0.1990
24461SOL    HW176881   4.728   0.075   9.435  0.3107  0.5875  0.4081
24461SOL    HW276882   4.624   0.049   9.543  1.5988  0.1813  1.5750
24462SOL     OW76883   2.719   9.831   0.791 -0.6287 -0.4190 -0.1268
24462SOL    HW176884   2.635   9.803   0.756 -0.4575 -1.8999  0.5644
24462SOL    HW276885   2.780   9.762   0.764 -0.0544 -0.4134  1.1036
24463SOL     OW76886   0.067   9.440   4.322  0.1043  0.1144 -0.7843
24463SOL    HW176887   0.055   9.499   4.397 -2.2623 -0.2679 -0.7765
24463SOL    HW276888   0.162   9.435   4.310  0.4475  4.0831 -0.9454
24464SOL     OW76889   7.606   1.495   8.063 -0.7108 -0.0158  0.4370
24464SOL    HW176890   7.548   1.429   8.101 -1.5089  0.6824  0.4427
24464SOL    HW276891   7.690   1.480   8.106 -1.4253  0.3436  2.0170
24465SOL     OW76892   5.333   4.940   6.384  0.2986 -0.4161 -0.9166
24465SOL    HW176893   5.256   4.968   6.335 -0.9937  0.2724  1.3643
24465SOL    HW276894   5.354   4.854   6.348 -0.2289  0.2773 -3.0005
24466SOL     OW76895   5.037   2.636   9.492  0.0808 -0.5600  0.0873
24466SOL    HW176896   4.994   2.551   9.494  0.0334 -0.5266  0.4987
24466SOL    HW276897   5.062   2.653   9.583  0.1792 -0.1807 -0.0085
24467SOL     OW76898  10.505   1.209  10.021  0.0030  0.1345  0.0089
24467SOL    HW176899  10.596   1.220  10.046  0.5596 -0.9037 -1.3917
24467SOL    HW276900  10.456   1.214  10.103  0.9859  3.3583  0.5305
24468SOL     OW76901   9.596   5.987   8.142 -0.0889 -0.5553 -0.3891
24468SOL    HW176902   9.592   5.894   8.166  0.8768 -0.3677  0.5727
24468SOL    HW276903   9.689   6.005   8.128 -0.4340 -0.2027 -2.6264
24469SOL     OW76904   3.773  10.766   0.051 -0.4986  0.5949 -0.0178
24469SOL    HW176905   3.756  10.859   0.041 -0.6397  0.4294 -1.5049
24469SOL    HW276906   3.718  10.723  -0.015  2.4121 -0.2329 -2.1272
24470SOL     OW76907   2.182   2.139   3.257  0.1558 -0.3197 -0.9089
24470SOL    HW176908   2.116   2.192   3.212 -1.3093 -1.5793 -0.3212
24470SOL    HW276909   2.228   2.094   3.187 -1.5671 -1.6407 -1.2556
24471SOL     OW76910   8.612   4.621   3.701 -0.0886 -0.0444  0.1416
24471SOL    HW176911   8.636   4.596   3.790  1.9066 -0.3014 -0.4328
24471SOL    HW276912   8.693   4.651   3.661 -0.8893 -0.1641 -1.6845
24472SOL     OW76913  10.432   2.326   2.923  0.1032 -0.1486  0.2289
24472SOL    HW176914  10.375   2.294   2.854  1.3100 -2.5415  0.2190
24472SOL    HW276915  10.417   2.420   2.925 -0.4617 -0.0584 -2.8468
24473SOL     OW76916  10.066  10.248  10.421  0.1498 -0.2883  0.3374
24473SOL    HW176917  10.000  10.314  10.443  0.8314 -0.0293  1.6930
24473SOL    HW276918  10.149  10.296  10.423  0.5168 -0.9010 -0.0028
24474SOL     OW76919   9.610   4.149   3.858  0.7831  0.3116 -0.5916
24474SOL    HW176920   9.521   4.120   3.879  0.8226  0.2374 -0.5296
24474SOL    HW276921   9.646   4.079   3.805  0.9452  0.1616 -0.2834
24475SOL     OW76922   7.635   1.829   7.534 -0.4601  0.6396 -0.1889
24475SOL    HW176923   7.542   1.816   7.518 -0.4779  1.5246 -0.8511
24475SOL    HW276924   7.658   1.907   7.483  0.2597  1.4939  1.3852
24476SOL     OW76925   4.194   1.627   8.628 -0.4502 -0.8006  0.1504
24476SOL    HW176926   4.261   1.643   8.695  2.8478 -0.7533 -2.8404
24476SOL    HW276927   4.152   1.712   8.617  0.7002 -0.1608  0.4653
24477SOL     OW76928   7.241   0.182   3.003  0.1651  0.3343 -0.3220
24477SOL    HW176929   7.173   0.242   3.033  0.0500 -0.5328  1.3180
24477SOL    HW276930   7.207   0.145   2.922 -1.0258  0.4233  0.1107
24478SOL     OW76931  10.412   5.680   6.063  0.5907  0.4305 -0.1361
24478SOL    HW176932  10.349   5.613   6.090 -1.6932  1.8084 -1.6386
24478SOL    HW276933  10.422   5.735   6.140  1.1458 -0.6507  0.5831
24479SOL     OW76934   0.302   3.739   7.397 -0.0631 -0.2944 -0.3936
24479SOL    HW176935   0.337   3.726   7.309  0.2422  0.5973 -0.4204
24479SOL    HW276936   0.377   3.769   7.448 -0.2846 -0.6084  0.1262
24480SOL     OW76937  10.257   1.534   9.561  0.3726  0.4984  0.0058
24480SOL    HW176938  10.207   1.550   9.641  1.0487  1.1344  0.3127
24480SOL    HW276939  10.314   1.611   9.552 -0.5336  1.0197 -1.7399
24481SOL     OW76940   9.285   7.165   6.644 -0.1454  0.3234  0.4890
24481SOL    HW176941   9.259   7.076   6.622  0.1983  0.0890  1.0030
24481SOL    HW276942   9.371   7.155   6.685 -0.4152  0.8199  1.1947
24482SOL     OW76943   1.882   4.389   9.275 -0.0899  0.1294  0.7829
24482SOL    HW176944   1.895   4.427   9.188 -0.2765 -0.1169  0.6477
24482SOL    HW276945   1.876   4.295   9.260  2.4720 -0.1960  1.3375
24483SOL     OW76946   2.797   5.542   4.989  0.4924  0.1105 -0.5463
24483SOL    HW176947   2.759   5.600   5.054 -0.2213 -1.0528  0.1078
24483SOL    HW276948   2.840   5.473   5.039 -1.0311 -1.4322 -1.2344
24484SOL     OW76949   4.884   0.953   1.766 -0.1992 -0.0244  0.5611
24484SOL    HW176950   4.930   0.872   1.744  0.9148  0.5754  0.6219
24484SOL    HW276951   4.945   1.003   1.820 -0.8869  0.8360  0.5811
24485SOL     OW76952   2.814   6.458  10.619  0.0126 -0.3526 -0.3396
24485SOL    HW176953   2.838   6.461  10.527  0.6206  0.5547 -0.1699
24485SOL    HW276954   2.892   6.425  10.664  0.2590  0.6297 -0.0063
24486SOL     OW76955   5.785   6.221   3.882 -0.1237  0.1624 -0.1892
24486SOL    HW176956   5.704   6.230   3.831  1.0289 -0.5000 -2.2440
24486SOL    HW276957   5.852   6.204   3.817  1.3266 -1.5373  1.6505
24487SOL     OW76958   1.734   6.843   1.310 -0.6211 -0.2281 -0.0267
24487SOL    HW176959   1.644   6.813   1.322 -0.9430 -0.2515 -2.0744
24487SOL    HW276960   1.751   6.829   1.216  0.5181  2.4483 -0.2940
24488SOL     OW76961  10.718  10.602   9.575 -0.1856  0.0975 -0.4662
24488SOL    HW176962  10.661  10.675   9.598  0.5460  1.3163 -2.2671
24488SOL    HW276963  10.658  10.534   9.544 -0.8231  0.1912  0.4955
24489SOL     OW76964   1.867  10.333   2.465 -0.4181  0.2150  0.2112
24489SOL    HW176965   1.809  10.282   2.407 -1.5162  0.7014  0.8583
24489SOL    HW276966   1.955  10.313   2.433 -0.6908 -2.9179  1.0437
24490SOL     OW76967   7.197   1.067   3.965 -0.2689  0.3221  0.2466
24490SOL    HW176968   7.159   0.983   3.991  0.6680  0.3598  1.8535
24490SOL    HW276969   7.286   1.065   3.998  0.0778  1.5928 -0.5177
24491SOL     OW76970   7.461   2.119   7.787 -0.3728 -0.2846  1.1009
24491SOL    HW176971   7.439   2.210   7.806 -1.2326 -0.1917 -0.1743
24491SOL    HW276972   7.538   2.123   7.731 -0.2312 -0.3479  1.2932
24492SOL     OW76973   6.596  10.043   7.842  0.7309  0.2112  0.5298
24492SOL    HW176974   6.572   9.951   7.854  1.0466 -0.0262 -0.5306
24492SOL    HW276975   6.663  10.041   7.774  0.2092  1.2891 -0.0323
24493SOL     OW76976   1.302   3.245   5.141  0.0557  0.0453  0.0254
24493SOL    HW176977   1.299   3.247   5.045 -0.6630 -0.0882  0.0345
24493SOL    HW276978   1.293   3.152   5.163  3.0629 -0.2894  0.1812
24494SOL     OW76979   3.712  10.560   8.070 -0.3237  0.1069 -0.7415
24494SOL    HW176980   3.697  10.478   8.117 -0.0908 -0.1215 -1.0571
24494SOL    HW276981   3.770  10.536   7.998  0.5824  0.7367 -0.2469
24495SOL     OW76982   5.914   1.238   6.278  0.0862  0.2596  0.2113
24495SOL    HW176983   5.909   1.143   6.285  0.0461  0.3469  1.5906
24495SOL    HW276984   5.988   1.263   6.334 -0.5994  1.1254  0.7508
24496SOL     OW76985   3.893  10.100   0.283  0.1416 -0.3418 -0.0569
24496SOL    HW176986   3.977  10.085   0.240 -1.0888 -1.3953 -2.2546
24496SOL    HW276987   3.914  10.099   0.377  2.5389 -0.6774 -0.5171
24497SOL     OW76988   3.990   2.273   1.126 -0.2475  0.2945  0.2834
24497SOL    HW176989   4.051   2.281   1.199 -0.1087 -1.9844  0.4892
24497SOL    HW276990   3.938   2.353   1.128  1.2443  1.2788  1.4751
24498SOL     OW76991   8.970   8.052   3.830 -0.7328  0.4899  0.0205
24498SOL    HW176992   8.984   8.138   3.870  0.3332  0.8026 -0.9548
24498SOL    HW276993   8.947   8.072   3.739  3.5018 -0.2116 -1.4151
24499SOL     OW76994   6.097   3.059   6.853  0.3235  0.0485 -0.4253
24499SOL    HW176995   6.048   3.127   6.900 -2.7183 -0.4607 -2.5317
24499SOL    HW276996   6.115   2.993   6.919 -1.0776  0.7013  0.6913
24500SOL     OW76997  10.082  10.414   3.452 -0.1504  0.2265  0.0133
24500SOL    HW176998  10.096  10.496   3.500  1.1953  1.6004 -2.5092
24500SOL    HW276999  10.132  10.349   3.500  0.8868  1.4487  0.6596
24501SOL     OW77000   7.244   1.880   9.110 -0.5717 -0.2204 -0.3737
24501SOL    HW177001   7.298   1.859   9.033  1.5942  0.1570  0.9740
24501SOL    HW277002   7.218   1.971   9.097 -0.7487 -0.3505 -0.9586
24502SOL     OW77003   6.317   5.156  10.942 -0.5113 -0.0951  0.2156
24502SOL    HW177004   6.303   5.174  10.849  0.5633  2.3380  0.4409
24502SOL    HW277005   6.403   5.114  10.945 -0.6963 -0.4944  0.1174
24503SOL     OW77006   9.241   2.192   7.752  0.5926  0.2539 -0.8120
24503SOL    HW177007   9.297   2.169   7.826 -1.6994 -0.6182  0.7947
24503SOL    HW277008   9.227   2.286   7.761  1.1575  0.3369 -0.7679
24504SOL     OW77009   1.606   5.984   6.012  0.4254  0.4859 -0.2304
24504SOL    HW177010   1.519   5.952   5.990  0.1926  0.3650  0.8408
24504SOL    HW277011   1.614   6.066   5.962  0.6303 -0.6484 -2.1692
24505SOL     OW77012   4.290   1.175   8.472 -0.3915 -0.1704  0.3055
24505SOL    HW177013   4.313   1.267   8.480 -0.1116 -0.3844  2.4681
24505SOL    HW277014   4.228   1.172   8.399  1.6606  1.2840 -1.6579
24506SOL     OW77015   1.523  10.372  10.149  0.3877 -0.2072 -0.2123
24506SOL    HW177016   1.601  10.326  10.180  0.0629 -0.2694  0.5323
24506SOL    HW277017   1.476  10.307  10.097  1.8684  0.4317 -2.5032
24507SOL     OW77018  10.278   9.614   9.031 -0.0950 -0.0242 -0.2130
24507SOL    HW177019  10.289   9.556   9.106  0.8876  2.9208  2.1259
24507SOL    HW277020  10.219   9.683   9.062  0.1470  1.1865 -2.2209
24508SOL     OW77021   1.523   7.955   5.268  0.4728 -0.2743 -0.0329
24508SOL    HW177022   1.481   8.029   5.311  0.5692 -0.5381  0.5282
24508SOL    HW277023   1.512   7.882   5.330  1.0818 -0.5275 -0.2181
24509SOL     OW77024   6.423   3.163   0.609  0.1607  0.3171  0.2538
24509SOL    HW177025   6.361   3.212   0.554  2.1024  0.9728 -1.5049
24509SOL    HW277026   6.412   3.201   0.696 -1.0696  1.2177 -0.2463
24510SOL     OW77027   2.332   3.944   3.494  0.1403 -0.2839  0.2888
24510SOL    HW177028   2.308   4.000   3.420  0.3812  0.5183  0.8098
24510SOL    HW277029   2.394   3.996   3.545 -1.9650  0.2413  2.4808
24511SOL     OW77030   1.255   6.535   7.493 -0.1385 -0.1641 -0.0917
24511SOL    HW177031   1.262   6.463   7.556  1.5076  0.7762  0.8527
24511SOL    HW277032   1.162   6.560   7.496 -0.3783 -1.1056  0.8642
24512SOL     OW77033   4.084   3.211   5.203 -0.3382  0.4866  0.1087
24512SOL    HW177034   4.056   3.119   5.197  1.4440 -0.2890  2.2937
24512SOL    HW277035   4.141   3.223   5.127  1.5630 -1.1122  1.1875
24513SOL     OW77036   8.216   6.699   7.227  0.0944  0.4768  0.7390
24513SOL    HW177037   8.145   6.759   7.207 -0.3268 -0.7247 -1.7260
24513SOL    HW277038   8.191   6.659   7.310 -3.0227 -1.0696 -0.7801
24514SOL     OW77039  10.647   6.464   3.957  0.1227 -0.1979 -0.3096
24514SOL    HW177040  10.583   6.405   3.917 -1.6177  1.0623  0.5146
24514SOL    HW277041  10.648   6.439   4.049 -0.8184  1.1583  0.0996
24515SOL     OW77042   7.671   9.181   9.102 -0.3639  0.0724  0.1981
24515SOL    HW177043   7.757   9.173   9.061  0.1464  2.6994  0.6023
24515SOL    HW277044   7.664   9.104   9.159  0.9699 -1.0645 -1.1078
24516SOL     OW77045   2.647   9.133   4.947 -0.2180  0.4636  0.2434
24516SOL    HW177046   2.587   9.167   4.881  1.3998  1.2761 -0.8955
24516SOL    HW277047   2.635   9.190   5.022 -1.2708  0.2448  0.2591
24517SOL     OW77048   8.006   0.888   2.632 -0.0668  0.1833 -0.0229
24517SOL    HW177049   8.045   0.951   2.692  0.4290  1.9682 -2.0758
24517SOL    HW277050   7.913   0.889   2.654  0.3233 -0.6272  1.8748
24518SOL     OW77051   8.966   0.369   5.480 -0.1030  0.4211  0.2107
24518SOL    HW177052   9.027   0.360   5.553  1.8946  0.4115 -1.3737
24518SOL    HW277053   9.015   0.417   5.414 -0.5827 -2.5583 -2.4971
24519SOL     OW77054   2.433   7.010   4.411 -0.1977 -0.1668  0.0198
24519SOL    HW177055   2.527   6.993   4.412 -0.0142  0.7802  0.3267
24519SOL    HW277056   2.400   6.967   4.490  0.0667 -0.0912  0.1735
24520SOL     OW77057   7.806   2.922  10.256 -0.2710  0.0125  0.4766
24520SOL    HW177058   7.816   2.832  10.288  3.2120 -0.0563 -0.3571
24520SOL    HW277059   7.730   2.918  10.198 -0.1514 -2.4385  0.3565
24521SOL     OW77060   3.811   1.404   3.205  0.8245  0.0472  0.0590
24521SOL    HW177061   3.778   1.333   3.262 -0.0426  0.0319 -0.4485
24521SOL    HW277062   3.874   1.361   3.148  0.8755 -0.1579  0.2661
24522SOL     OW77063   9.551   9.626   1.450 -0.1262  0.1444  0.1026
24522SOL    HW177064   9.536   9.533   1.467  0.3453 -0.1388 -1.0111
24522SOL    HW277065   9.645   9.634   1.434 -0.2904  0.6858 -0.6245
24523SOL     OW77066  10.311  10.154   5.042  1.2979  0.0107 -0.1964
24523SOL    HW177067  10.373  10.131   4.973  0.2392 -0.6914 -0.9530
24523SOL    HW277068  10.263  10.073   5.059  0.2917  0.6331  0.0459
24524SOL     OW77069   4.542   4.850   7.367 -0.0769  0.1130  0.7164
24524SOL    HW177070   4.458   4.876   7.403  0.4083  1.1419  1.1696
24524SOL    HW277071   4.547   4.894   7.282  0.9690  2.0347  1.7123
24525SOL     OW77072   1.867  10.555   4.232  0.1009  0.2024 -0.1140
24525SOL    HW177073   1.860  10.645   4.201  2.4702  0.8053  0.8375
24525SOL    HW277074   1.921  10.561   4.311  2.3713 -2.2359 -1.3007
24526SOL     OW77075   1.024   5.733   8.991  0.1447 -0.4239  0.2593
24526SOL    HW177076   0.967   5.684   9.051 -1.0314 -0.3901 -0.7823
24526SOL    HW277077   0.986   5.821   8.988  0.1025 -0.4611 -0.6193
24527SOL     OW77078   6.491  10.911   1.438  0.3548 -0.7731 -0.1084
24527SOL    HW177079   6.423  10.900   1.504 -1.5566 -0.3325 -1.8881
24527SOL    HW277080   6.461  10.857   1.364  0.6390  1.3156 -1.8317
24528SOL     OW77081   6.344   0.586   9.401  0.1474  0.0162  0.3468
24528SOL    HW177082   6.276   0.562   9.463 -0.6025  0.0431 -0.4517
24528SOL    HW277083   6.424   0.591   9.454 -0.3801 -0.4549  1.2080
24529SOL     OW77084   4.336   8.933  10.454 -0.1212 -0.1358  0.2232
24529SOL    HW177085   4.261   8.907  10.399  0.2199  1.9896 -1.3573
24529SOL    HW277086   4.369   9.013  10.413  1.3547  0.4851  2.4843
24530SOL     OW77087   9.144   2.392   9.292 -0.0421 -0.0038 -0.4250
24530SOL    HW177088   9.067   2.449   9.295 -0.5840 -0.7379  2.1280
24530SOL    HW277089   9.194   2.423   9.216 -0.3346  3.7937  0.7255
24531SOL     OW77090   8.535   0.101   8.230  0.1810  0.5187 -0.0186
24531SOL    HW177091   8.449   0.115   8.190  0.2896 -0.9224 -0.8410
24531SOL    HW277092   8.547   0.176   8.288 -1.7947  0.5710  0.4162
24532SOL     OW77093   5.383   9.084  10.605  0.2251 -0.0509 -0.3334
24532SOL    HW177094   5.432   9.032  10.669  0.1252  1.0154  0.6382
24532SOL    HW277095   5.432   9.073  10.524  0.3601 -1.4227 -0.0876
24533SOL     OW77096  10.037   2.128   7.358 -0.5720 -0.0695 -0.2274
24533SOL    HW177097  10.011   2.036   7.357  2.5121 -1.1852  2.6259
24533SOL    HW277098  10.002   2.163   7.440 -1.0506  1.0887 -0.9043
24534SOL     OW77099   7.846   8.676   8.860 -0.0290 -0.6684  0.5100
24534SOL    HW177100   7.770   8.636   8.817 -0.2412 -0.7020  0.9132
24534SOL    HW277101   7.855   8.627   8.942 -2.0406  1.9100  2.4299
24535SOL     OW77102   1.659   5.968   1.724 -0.1933 -0.4476 -0.4606
24535SOL    HW177103   1.699   5.883   1.744  1.6769  0.7209  1.3139
24535SOL    HW277104   1.696   5.992   1.639  0.7886 -0.6158 -0.1031
24536SOL     OW77105   0.798   6.458   0.033  0.1139 -0.3368  0.2179
24536SOL    HW177106   0.814   6.521  -0.038 -2.2740  0.1412  0.0390
24536SOL    HW277107   0.779   6.513   0.110  1.5013 -0.8647  0.9736
24537SOL     OW77108   8.667   8.126   6.195 -0.4910  0.3943 -0.0415
24537SOL    HW177109   8.624   8.042   6.212 -0.2525  0.5089  1.1602
24537SOL    HW277110   8.606   8.191   6.229 -0.5155  0.7023 -0.6581
24538SOL     OW77111   2.223   3.533   4.721 -0.5554 -0.2830  0.1844
24538SOL    HW177112   2.284   3.604   4.704 -0.7322 -0.0231  0.6064
24538SOL    HW277113   2.187   3.552   4.808 -0.5164 -0.9505  0.3578
24539SOL     OW77114   6.914   7.388   5.072  0.2458 -0.1721 -0.5718
24539SOL    HW177115   6.936   7.480   5.056  0.0389  0.0850  0.5241
24539SOL    HW277116   6.869   7.360   4.993 -0.8080  1.0452 -0.4369
24540SOL     OW77117   3.109   4.885   0.621  0.0561 -0.5215 -0.2488
24540SOL    HW177118   3.161   4.870   0.542  1.1422 -2.0120  0.6707
24540SOL    HW277119   3.063   4.967   0.606  0.3938 -0.6756 -2.3262
24541SOL     OW77120   5.938   8.581  10.183  0.2262 -0.6306 -0.7435
24541SOL    HW177121   5.925   8.558  10.091 -0.7747  0.7965 -0.9926
24541SOL    HW277122   5.849   8.599  10.215  0.7695  1.1740 -0.1619
24542SOL     OW77123   6.177  10.501   5.046  0.2703  0.3811  0.2754
24542SOL    HW177124   6.199  10.413   5.015 -1.3175  0.7582 -2.2203
24542SOL    HW277125   6.213  10.559   4.979  0.6265  1.6138  1.4882
24543SOL     OW77126   2.625  10.067   0.952  0.0671  0.0150  0.1311
24543SOL    HW177127   2.645   9.975   0.934  0.8308  0.1138  0.4316
24543SOL    HW277128   2.647  10.078   1.045  0.9624  0.7469 -0.1549
24544SOL     OW77129   5.791   8.594   3.414 -0.0883  0.0361  0.2479
24544SOL    HW177130   5.709   8.552   3.388 -0.0732  0.0741  0.1351
24544SOL    HW277131   5.859   8.532   3.389 -0.1617 -0.6597  1.7242
24545SOL     OW77132   3.185   9.290   3.885 -0.1849  0.3270 -0.1021
24545SOL    HW177133   3.269   9.254   3.914 -0.1993 -0.9195 -1.4869
24545SOL    HW277134   3.127   9.279   3.960  0.0927 -1.6623 -0.1362
24546SOL     OW77135   3.491   1.549   8.189  0.8301 -0.6844  0.0835
24546SOL    HW177136   3.563   1.542   8.251  2.0116  0.3741 -1.1088
24546SOL    HW277137   3.433   1.615   8.228  0.5530 -1.4158  0.9591
24547SOL     OW77138   0.555   0.759   3.883 -0.4462  0.3901  0.0004
24547SOL    HW177139   0.471   0.718   3.906 -0.4912  0.1418 -0.5833
24547SOL    HW277140   0.612   0.740   3.957 -1.7330  3.1087  1.8238
24548SOL     OW77141   8.383   8.155   1.552  0.2544 -0.0021  0.0986
24548SOL    HW177142   8.418   8.099   1.483 -0.3527 -0.4405  0.1419
24548SOL    HW277143   8.303   8.192   1.514 -0.3286 -0.6006  0.7180
24549SOL     OW77144   5.685   8.444   1.339  0.1114 -0.4788 -0.7510
24549SOL    HW177145   5.668   8.387   1.414  0.7763  2.5611  1.9103
24549SOL    HW277146   5.599   8.459   1.301 -1.2595  2.0793  2.8101
24550SOL     OW77147   1.050   8.125  10.660  0.1329  0.0568 -0.2520
24550SOL    HW177148   1.126   8.157  10.612 -0.6874  0.0039 -1.6341
24550SOL    HW277149   0.989   8.198  10.660 -0.0080 -0.0453  0.4872
24551SOL     OW77150   5.599  10.403   3.695 -0.2443  0.1148 -0.2266
24551SOL    HW177151   5.549  10.364   3.623 -1.4071  1.1410 -0.0071
24551SOL    HW277152   5.533  10.440   3.753  0.7402  0.6930  0.5566
24552SOL     OW77153   1.171   5.799   2.635  0.2929  0.1177 -0.1698
24552SOL    HW177154   1.232   5.733   2.667  0.7717  1.2353  1.3399
24552SOL    HW277155   1.112   5.814   2.708 -1.1984 -0.1932 -1.2563
24553SOL     OW77156   5.803   5.953   6.755 -0.7460 -0.7009 -0.1827
24553SOL    HW177157   5.823   6.045   6.768 -1.1216  0.0045 -3.7007
24553SOL    HW277158   5.835   5.910   6.835 -1.0336  2.4565  1.7966
24554SOL     OW77159  10.762   5.523   3.392 -0.1546  0.4338 -0.6004
24554SOL    HW177160  10.696   5.516   3.460 -0.2113 -0.5226 -0.7408
24554SOL    HW277161  10.718   5.570   3.321 -0.5322  0.2352 -0.5017
24555SOL     OW77162   5.694   4.942   9.887  1.0129 -0.3901  0.4929
24555SOL    HW177163   5.662   5.010   9.828 -0.4981 -0.9773  0.5869
24555SOL    HW277164   5.660   4.967   9.973  0.0455 -1.4842  0.4529
24556SOL     OW77165  10.100   6.815   3.316  0.4731 -0.2711  0.6198
24556SOL    HW177166  10.077   6.726   3.290 -1.6404  0.3452  0.1889
24556SOL    HW277167  10.160   6.846   3.247  0.8310 -1.1718  0.5151
24557SOL     OW77168  10.221   7.922  10.226 -0.0175 -0.1741 -0.0583
24557SOL    HW177169  10.300   7.882  10.189 -1.1382  0.0116 -2.9418
24557SOL    HW277170  10.241   8.016  10.228 -0.0420 -0.1530 -0.5418
24558SOL     OW77171   3.734   3.587   7.844  0.0160  0.0740 -0.1620
24558SOL    HW177172   3.704   3.634   7.922 -1.2780 -0.8791 -0.0510
24558SOL    HW277173   3.687   3.628   7.771  1.2948  1.0266 -0.4880
24559SOL     OW77174   5.958   8.404   0.814  0.2222 -0.1357 -0.4128
24559SOL    HW177175   5.924   8.476   0.762 -2.4192 -0.8535  0.1598
24559SOL    HW277176   5.989   8.340   0.750  0.1666  0.4315 -1.0102
24560SOL     OW77177  10.599   5.173   2.493 -0.0407 -0.0412 -0.5191
24560SOL    HW177178  10.504   5.176   2.503 -0.5692 -1.4444 -3.8449
24560SOL    HW277179  10.628   5.111   2.560 -1.2500  1.1366  1.2032
24561SOL     OW77180   6.566   9.788   3.899 -0.5077  0.1036  0.7499
24561SOL    HW177181   6.575   9.714   3.959 -0.3877  0.5668  1.3046
24561SOL    HW277182   6.514   9.753   3.826 -1.5217 -0.1834  1.5877
24562SOL     OW77183   6.474   0.324   8.977 -0.3368 -0.2578  0.6838
24562SOL    HW177184   6.516   0.260   8.920 -1.8668 -0.0793 -0.7445
24562SOL    HW277185   6.381   0.317   8.956 -0.7976  0.8185  2.1782
24563SOL     OW77186   3.904   3.417   3.396  1.0411  0.4718 -0.1390
24563SOL    HW177187   3.967   3.349   3.421  0.6203  1.0798  3.0863
24563SOL    HW277188   3.935   3.450   3.312  0.9624 -3.9744 -2.1985
24564SOL     OW77189   9.956   1.009   0.661  0.0225 -0.5821  0.2586
24564SOL    HW177190   9.930   0.946   0.594 -0.7520  1.8607 -1.9246
24564SOL    HW277191   9.952   1.094   0.617  0.8244  1.0522  3.0613
24565SOL     OW77192   4.065  10.160   8.823 -0.0562 -0.1700  0.1522
24565SOL    HW177193   4.004  10.233   8.830 -0.1580 -0.2975  0.6621
24565SOL    HW277194   4.092  10.159   8.731 -0.3465  0.2692  0.0613
24566SOL     OW77195   6.932   9.747   5.212 -0.0341 -0.3959 -0.0532
24566SOL    HW177196   7.025   9.738   5.194  0.0869 -0.1404  0.4504
24566SOL    HW277197   6.891   9.678   5.159  0.3551  0.0738 -0.9866
24567SOL     OW77198  10.259   0.472   6.858 -0.6542 -0.0438  0.7245
24567SOL    HW177199  10.245   0.517   6.775  0.3719 -0.9717  0.0113
24567SOL    HW277200  10.205   0.393   6.852 -0.2817 -0.3056  0.7611
24568SOL     OW77201   3.854   4.363  10.083 -0.6235 -0.0027  0.2629
24568SOL    HW177202   3.792   4.290  10.090 -1.0967  0.5322  2.1639
24568SOL    HW277203   3.816   4.432  10.138 -0.6933  2.0873 -2.2082
24569SOL     OW77204   8.618   4.407   0.178 -0.1704  0.5269 -0.3000
24569SOL    HW177205   8.587   4.486   0.221 -0.0808 -0.3802  1.5126
24569SOL    HW277206   8.650   4.437   0.093 -0.3924  2.3756  0.2287
24570SOL     OW77207   4.872   9.474   8.474  0.0835  0.1058  0.3203
24570SOL    HW177208   4.891   9.517   8.391  1.4159  2.2722  1.6546
24570SOL    HW277209   4.841   9.545   8.531 -1.5696 -1.4582  1.4771
24571SOL     OW77210   8.045   2.595  10.813  0.1287  0.0707 -0.0096
24571SOL    HW177211   8.015   2.685  10.820  1.3692  0.4908  0.1579
24571SOL    HW277212   7.996   2.548  10.880 -0.3539  0.6744  0.0627
24572SOL     OW77213   2.226  10.432   5.729 -0.5586 -0.6891  0.3215
24572SOL    HW177214   2.296  10.468   5.783 -0.8156 -1.7073  1.3839
24572SOL    HW277215   2.256  10.444   5.639  0.5055 -0.1863  0.7231
24573SOL     OW77216   8.513   6.182   1.740  0.9505  0.1496  1.2900
24573SOL    HW177217   8.576   6.111   1.731  0.4452 -0.0883 -1.0971
24573SOL    HW277218   8.436   6.153   1.691  1.0387  2.5981 -0.5681
24574SOL     OW77219  10.820   2.247   4.964  0.2394  0.4547  0.5854
24574SOL    HW177220  10.863   2.330   4.943 -0.5822  0.8466  0.4310
24574SOL    HW277221  10.865   2.182   4.910 -0.9066  1.2208 -1.3652
24575SOL     OW77222   5.627   0.932   1.501 -0.6822  0.2263 -0.4672
24575SOL    HW177223   5.618   0.861   1.565 -0.1019  0.1139 -0.5005
24575SOL    HW277224   5.674   1.000   1.548  1.4653 -0.5914 -1.2934
24576SOL     OW77225   0.933   1.739   4.745 -0.8546 -0.2781 -0.3148
24576SOL    HW177226   0.861   1.683   4.772 -0.8754  0.1278  0.5187
24576SOL    HW277227   0.904   1.828   4.766 -1.0472  0.1218 -2.1164
24577SOL     OW77228   4.175   5.768   0.138 -0.4808  0.1285 -0.7338
24577SOL    HW177229   4.224   5.699   0.094  0.8614  1.3517 -1.2305
24577SOL    HW277230   4.214   5.774   0.225 -0.5639  0.3087 -0.7079
24578SOL     OW77231   5.381  10.000   4.919  0.4030  0.6396 -0.4967
24578SOL    HW177232   5.285  10.002   4.916  0.3629  0.0410  0.0498
24578SOL    HW277233   5.409  10.066   4.855 -0.4001  2.5403  0.9991
24579SOL     OW77234   7.845   1.031   6.133 -0.3412 -1.3777  0.0587
24579SOL    HW177235   7.797   1.093   6.188  3.1807  1.3024  0.4479
24579SOL    HW277236   7.796   1.029   6.051 -1.4431  0.7580  0.5827
24580SOL     OW77237   3.377   4.778  11.003  0.1694  0.1128 -0.5134
24580SOL    HW177238   3.291   4.820  11.013  1.0744  1.9916 -0.3920
24580SOL    HW277239   3.415   4.820  10.926  0.6940 -1.2608 -1.0363
24581SOL     OW77240   4.576   7.116   4.225  0.6776 -0.2668 -0.0361
24581SOL    HW177241   4.575   7.084   4.135  1.6907 -0.3519 -0.0324
24581SOL    HW277242   4.565   7.038   4.278 -1.5794 -0.0301 -0.0914
24582SOL     OW77243   3.347   4.998   2.266 -0.0682 -0.1413  0.3454
24582SOL    HW177244   3.421   5.054   2.238 -1.2978  1.7351  0.6481
24582SOL    HW277245   3.317   4.956   2.186 -0.2006  1.0190 -0.2313
24583SOL     OW77246   9.843   7.792   6.514 -0.0282  0.5629  0.2266
24583SOL    HW177247   9.932   7.790   6.550 -0.4285 -1.3387  1.2648
24583SOL    HW277248   9.794   7.847   6.576 -0.4365 -1.7086  2.0749
24584SOL     OW77249   4.573   1.705   0.599 -0.0032  0.0038 -0.4750
24584SOL    HW177250   4.486   1.664   0.597 -0.0995  0.1092  0.6016
24584SOL    HW277251   4.566   1.770   0.669  1.4050 -1.0624  0.7090
24585SOL     OW77252   6.499  10.398   1.090 -0.1751 -0.4376 -0.6580
24585SOL    HW177253   6.531  10.483   1.120 -0.8495 -0.3375 -0.2130
24585SOL    HW277254   6.447  10.419   1.012 -1.6377 -0.2557  0.3466
24586SOL     OW77255   1.689   4.904   1.768  0.3059 -0.1737 -0.0321
24586SOL    HW177256   1.698   4.998   1.780 -0.2214 -0.0065 -0.8495
24586SOL    HW277257   1.596   4.887   1.780  0.7011 -0.9815  2.4847
24587SOL     OW77258   9.364   5.607   7.040 -0.3256  0.2809 -0.0358
24587SOL    HW177259   9.361   5.550   7.116 -1.7955 -1.7027 -1.4710
24587SOL    HW277260   9.323   5.689   7.069 -0.3724 -0.2331  1.4200
24588SOL     OW77261   8.430   1.285   8.762 -0.2331 -0.0075  0.0429
24588SOL    HW177262   8.478   1.204   8.740 -2.1697 -0.9979 -0.7762
24588SOL    HW277263   8.430   1.335   8.680 -1.2462 -0.3832 -0.2002
24589SOL     OW77264   3.907   9.586   3.725  0.2310  0.1509  0.2006
24589SOL    HW177265   3.842   9.596   3.655  0.4608  3.6979  0.2814
24589SOL    HW277266   3.855   9.574   3.804 -0.0390 -3.4911 -0.3675
24590SOL     OW77267   3.265   1.643   7.866  0.3660  0.3193  0.0600
24590SOL    HW177268   3.211   1.627   7.789  0.3913 -2.6227  0.5174
24590SOL    HW277269   3.206   1.626   7.940  0.9142  0.9645  0.6610
24591SOL     OW77270   9.374   9.076   7.599  0.5337 -0.3793  0.2159
24591SOL    HW177271   9.461   9.042   7.576  0.6426 -0.3018  0.5101
24591SOL    HW277272   9.372   9.073   7.694  0.8271  1.1175  0.2944
24592SOL     OW77273   3.220   0.454   7.803  0.0694  0.0819 -0.0020
24592SOL    HW177274   3.306   0.428   7.770 -0.1770  0.4148 -0.9596
24592SOL    HW277275   3.191   0.521   7.741 -0.9302 -0.1178  0.2366
24593SOL     OW77276   5.001   1.816   1.150 -0.2601  0.7924  0.2207
24593SOL    HW177277   5.051   1.856   1.222 -0.6062 -0.2970  1.1019
24593SOL    HW277278   5.067   1.785   1.088  0.1320  0.2841  0.8764
24594SOL     OW77279   2.480   1.891   3.320 -0.3700 -0.4925  0.2572
24594SOL    HW177280   2.569   1.901   3.354  0.0963 -2.8916 -0.0953
24594SOL    HW277281   2.492   1.852   3.234 -1.7771 -0.2783 -0.0488
24595SOL     OW77282   0.971   2.761  10.058 -0.2267 -0.3665 -0.2401
24595SOL    HW177283   1.065   2.748  10.070 -0.5229 -2.9819 -0.0248
24595SOL    HW277284   0.961   2.780   9.965  0.5128 -0.2014 -0.2891
24596SOL     OW77285   8.304   4.630   0.116  0.2752 -0.0961  0.4162
24596SOL    HW177286   8.274   4.702   0.061  0.0265 -0.1676  0.4597
24596SOL    HW277287   8.262   4.646   0.201  1.2551  0.4419  0.8141
24597SOL     OW77288   2.686  10.500   2.426 -0.7570  0.2270 -0.4205
24597SOL    HW177289   2.730  10.465   2.349  0.4659  0.4742  0.1409
24597SOL    HW277290   2.755  10.546   2.474 -1.6547  0.6925  0.4526
24598SOL     OW77291   5.510   2.127   8.287 -0.2365 -0.0648 -0.5112
24598SOL    HW177292   5.466   2.043   8.271  0.4467 -0.4824 -0.2155
24598SOL    HW277293   5.533   2.125   8.380 -0.1077  0.4047 -0.5305
24599SOL     OW77294   1.880   7.042   1.610 -0.1503  0.4104  0.3376
24599SOL    HW177295   1.891   6.948   1.598  0.3078  0.5941 -0.7930
24599SOL    HW277296   1.786   7.054   1.622 -0.6384  0.0827 -2.4593
24600SOL     OW77297   0.301   3.313   5.359  0.3088 -0.2881  0.0630
24600SOL    HW177298   0.285   3.404   5.333 -0.0313 -0.6310 -0.9636
24600SOL    HW277299   0.369   3.283   5.298 -0.6203 -1.1588 -0.5765
24601SOL     OW77300  10.577   2.584   3.491  0.0111 -0.0895 -0.3832
24601SOL    HW177301  10.635   2.603   3.418 -0.1700  1.4588 -0.1457
24601SOL    HW277302  10.575   2.665   3.542  0.7366 -1.3392  1.7690
24602SOL     OW77303   8.184   6.358   6.348 -0.0736 -0.0834 -1.0593
24602SOL    HW177304   8.267   6.388   6.384 -1.3146  1.9327  0.3455
24602SOL    HW277305   8.129   6.341   6.424 -1.6969  0.9426 -1.9491
24603SOL     OW77306   0.109   9.538   3.347 -1.0501 -0.1894 -0.3082
24603SOL    HW177307   0.137   9.489   3.269 -2.2964 -3.9095  1.3515
24603SOL    HW277308   0.015   9.521   3.353 -0.7914 -1.0298  2.5886
24604SOL     OW77309   5.850   5.239   5.233  0.1808  0.2760  0.7033
24604SOL    HW177310   5.775   5.179   5.239  0.0989  0.2238 -0.5865
24604SOL    HW277311   5.817   5.321   5.269 -0.6805  0.4003 -0.3154
24605SOL     OW77312   3.506   7.690   7.013 -0.0890 -0.7273  0.3807
24605SOL    HW177313   3.427   7.684   6.959  1.2621 -2.4100 -1.5509
24605SOL    HW277314   3.473   7.704   7.102 -2.4128  4.0566 -0.9034
24606SOL     OW77315  10.752   1.700   7.554  0.0289 -0.1387  0.0922
24606SOL    HW177316  10.835   1.722   7.512  0.3476 -0.0021  0.7842
24606SOL    HW277317  10.694   1.774   7.534 -0.2224 -0.6588 -1.1697
24607SOL     OW77318  10.378   9.023   6.323  0.2001  0.3535  0.3427
24607SOL    HW177319  10.377   9.065   6.409 -0.8658  1.4422 -0.1657
24607SOL    HW277320  10.429   9.082   6.268 -0.2724  0.3674 -0.0899
24608SOL     OW77321   0.836   8.101   6.852  0.0832 -0.5853  0.3561
24608SOL    HW177322   0.812   8.193   6.843 -0.5018 -0.4339  2.8827
24608SOL    HW277323   0.926   8.102   6.884  0.1170 -0.9122  0.2816
24609SOL     OW77324   6.895  10.041   4.973  0.3536 -0.3437  0.0855
24609SOL    HW177325   6.889   9.949   4.949 -0.3153 -0.2838  0.0049
24609SOL    HW277326   6.880  10.042   5.067 -1.0879 -0.1908 -0.1214
24610SOL     OW77327   7.302   2.831   1.615  0.4962 -0.0102  0.2697
24610SOL    HW177328   7.356   2.788   1.549 -1.2025  0.1022 -1.2506
24610SOL    HW277329   7.236   2.879   1.565 -1.5134 -0.7768  2.0614
24611SOL     OW77330   8.917   7.461   7.038  0.1546  0.6823 -0.2641
24611SOL    HW177331   8.921   7.422   7.125  1.4227  0.6135 -0.3301
24611SOL    HW277332   9.004   7.500   7.025  0.7227 -1.0547 -2.2814
24612SOL     OW77333   0.929   6.880   1.500  0.0005 -0.0614  0.0138
24612SOL    HW177334   0.940   6.785   1.499 -0.3515 -0.1013 -0.5342
24612SOL    HW277335   1.018   6.915   1.495  0.2061 -0.3525  1.3136
24613SOL     OW77336   7.353   4.536   6.210 -0.1053 -0.1287  0.1699
24613SOL    HW177337   7.333   4.628   6.195  0.5918  0.1314  0.7554
24613SOL    HW277338   7.342   4.524   6.305  0.3267 -0.5152  0.1766
24614SOL     OW77339   1.503   3.014   7.862  0.4924  0.1805 -0.1731
24614SOL    HW177340   1.490   2.928   7.822  2.1942 -0.8720  1.3829
24614SOL    HW277341   1.495   2.999   7.956  0.1496  1.8786  0.1054
24615SOL     OW77342   8.222  10.199   4.401  0.0099  0.6595  0.1816
24615SOL    HW177343   8.176  10.152   4.471 -0.6776  2.0993  0.7529
24615SOL    HW277344   8.289  10.138   4.370 -0.7660 -0.6272  0.9516
24616SOL     OW77345   2.038   5.984   1.419  0.0440  0.3311 -0.4710
24616SOL    HW177346   2.092   5.951   1.490  0.5438  1.6367 -0.2187
24616SOL    HW277347   1.970   5.917   1.407  0.7386 -0.5381  0.3172
24617SOL     OW77348   1.262   5.821   1.812  0.1782 -0.0482 -0.1280
24617SOL    HW177349   1.186   5.828   1.870  0.8332  0.2969  0.6957
24617SOL    HW277350   1.336   5.847   1.866  0.6849  1.2910 -1.4081
24618SOL     OW77351  10.106  10.050   6.651 -0.4114  0.0739 -0.3328
24618SOL    HW177352  10.050  10.067   6.575  0.0377 -0.6783 -0.8531
24618SOL    HW277353  10.119   9.955   6.650  0.1589  0.1387  0.2830
24619SOL     OW77354   8.009   3.661   1.329  0.4556 -0.2516 -0.1587
24619SOL    HW177355   7.924   3.683   1.366  1.0322  1.3690  0.2861
24619SOL    HW277356   7.994   3.660   1.234 -0.3449 -1.4159 -0.0494
24620SOL     OW77357   3.740   9.001   3.092  0.2349 -0.3314  0.2512
24620SOL    HW177358   3.824   9.047   3.094 -0.0494  0.5626 -3.1011
24620SOL    HW277359   3.734   8.967   3.003 -2.4148 -1.4534  0.7921
24621SOL     OW77360   3.537   5.194  10.241 -0.5844  0.3040  0.8306
24621SOL    HW177361   3.491   5.111  10.248  1.1847 -0.8357 -0.3065
24621SOL    HW277362   3.475   5.253  10.199 -1.2805 -0.9395  0.0864
24622SOL     OW77363   6.549   3.461   3.295  0.2679  0.3743 -0.2729
24622SOL    HW177364   6.483   3.392   3.298  1.9845 -1.3132  1.2318
24622SOL    HW277365   6.521   3.525   3.361 -0.4537  0.2689 -0.4716
24623SOL     OW77366   0.582   7.286  10.873  0.5240 -0.5346 -0.2800
24623SOL    HW177367   0.488   7.302  10.877  0.2592 -1.6250 -1.4518
24623SOL    HW277368   0.591   7.191  10.873  1.5759 -0.4589 -0.9242
24624SOL     OW77369   1.411   6.977  10.054  0.3105 -0.4671 -0.0074
24624SOL    HW177370   1.443   6.936   9.974 -1.9255 -1.5592 -0.4305
24624SOL    HW277371   1.334   7.027  10.026 -1.1361 -1.7075  1.5630
24625SOL     OW77372  10.485   2.934   5.442 -0.0760  0.3122 -0.0350
24625SOL    HW177373  10.472   2.846   5.477  0.3170  0.4530  0.4744
24625SOL    HW277374  10.437   2.934   5.359 -2.6520  0.5451  1.3453
24626SOL     OW77375   2.418  10.034   3.862 -0.0868 -0.7617  0.1580
24626SOL    HW177376   2.387   9.955   3.905  0.2622 -1.3404 -0.6212
24626SOL    HW277377   2.508  10.044   3.891  0.5079 -1.7605 -1.2127
24627SOL     OW77378   3.345   6.886  10.208  0.6578 -0.1334 -0.5066
24627SOL    HW177379   3.311   6.811  10.256 -0.1110  0.7351  0.3567
24627SOL    HW277380   3.268   6.939  10.187  0.9150 -0.6460 -3.0877
24628SOL     OW77381   3.622   2.946   0.475  1.0096  0.3771  1.0301
24628SOL    HW177382   3.663   2.863   0.451  1.2215  0.4313  1.2033
24628SOL    HW277383   3.598   2.986   0.391  0.6730  0.0254  0.9570
24629SOL     OW77384   8.570   8.740   8.712  0.6260  0.4612 -0.5428
24629SOL    HW177385   8.528   8.824   8.690  0.8885  0.6118 -0.4654
24629SOL    HW277386   8.580   8.696   8.628  0.5216  0.5233 -0.5888
24630SOL     OW77387   1.925   6.612   3.660 -0.3299 -0.1022 -0.2429
24630SOL    HW177388   1.880   6.696   3.672  0.2780  0.0801  0.8624
24630SOL    HW277389   1.912   6.566   3.742  1.2798 -0.1569  0.0054
24631SOL     OW77390   7.524   1.264   3.203  0.0806  0.0198  0.1507
24631SOL    HW177391   7.498   1.325   3.134 -1.7680 -0.7994  0.0873
24631SOL    HW277392   7.617   1.283   3.216  0.3539  0.6149 -2.1382
24632SOL     OW77393   0.424  10.478   5.894 -0.1569  0.2104  0.4044
24632SOL    HW177394   0.398  10.549   5.952 -2.3670 -0.7892  0.7285
24632SOL    HW277395   0.414  10.514   5.806 -1.1512  0.3572  0.5702
24633SOL     OW77396   6.507   4.100   8.469  0.5698 -0.5952 -0.3155
24633SOL    HW177397   6.570   4.166   8.496  2.4195 -1.6653 -1.7301
24633SOL    HW277398   6.445   4.148   8.413  0.3846  0.3825  0.6930
24634SOL     OW77399   1.961   3.784   8.432  0.0640  0.0172 -0.1572
24634SOL    HW177400   2.056   3.781   8.425 -0.0699 -1.0527 -1.9562
24634SOL    HW277401   1.935   3.852   8.371 -0.3348  0.6201  0.6543
24635SOL     OW77402   2.756   4.165   2.874  0.3622  0.0336  0.6161
24635SOL    HW177403   2.675   4.211   2.851 -0.2844 -0.2280  2.2782
24635SOL    HW277404   2.727   4.078   2.901  1.5493 -1.4590 -2.3766
24636SOL     OW77405   5.556   4.778   4.604  0.6775 -0.1989  0.1251
24636SOL    HW177406   5.651   4.774   4.596  0.6521  1.3658 -1.7666
24636SOL    HW277407   5.536   4.723   4.680  3.1847  0.5013  1.4106
24637SOL     OW77408   4.156  10.553  10.506 -0.7792  0.1779 -0.3076
24637SOL    HW177409   4.129  10.523  10.419  0.4225  1.0130 -1.0186
24637SOL    HW277410   4.081  10.537  10.562 -0.8505 -2.3476 -1.0213
24638SOL     OW77411   1.741   8.265   1.782  0.1700  0.0290  0.7245
24638SOL    HW177412   1.822   8.316   1.793 -0.0901  0.2832  1.4859
24638SOL    HW277413   1.758   8.211   1.704  1.2042 -0.1800  1.0737
24639SOL     OW77414   3.825   3.543  10.207  0.4343  0.1286 -0.0288
24639SOL    HW177415   3.849   3.483  10.137  0.9577  0.7004 -0.3488
24639SOL    HW277416   3.907   3.583  10.234  0.2909 -0.3674  1.1851
24640SOL     OW77417   4.813   8.943   2.298 -0.6453 -0.5344 -0.1400
24640SOL    HW177418   4.901   8.933   2.335  1.5259 -0.9956 -4.6675
24640SOL    HW277419   4.784   8.853   2.281 -1.0634 -0.3338 -0.5174
24641SOL     OW77420   0.460   0.001   0.778 -0.0315 -0.3462 -0.0026
24641SOL    HW177421   0.551   0.027   0.762  0.0115 -0.8090 -0.5821
24641SOL    HW277422   0.466  -0.089   0.810 -0.2365 -0.0505  0.8920
24642SOL     OW77423   5.522   8.969   6.413  0.2016 -0.4636  0.6661
24642SOL    HW177424   5.460   8.898   6.430 -0.8312  0.4803  0.9026
24642SOL    HW277425   5.597   8.925   6.372 -1.8605 -1.2503 -2.6326
24643SOL     OW77426   0.250   4.411   0.735  0.2280  0.4132 -0.3605
24643SOL    HW177427   0.264   4.387   0.643  2.4590  0.8365 -0.1958
24643SOL    HW277428   0.217   4.331   0.776  2.1300 -0.7544 -0.9486
24644SOL     OW77429  10.081   6.359   4.328  0.3096 -0.5173 -0.0116
24644SOL    HW177430  10.170   6.360   4.361  0.5917  1.6643 -0.6633
24644SOL    HW277431  10.085   6.306   4.249  0.8975 -0.9409  0.3014
24645SOL     OW77432   1.354   4.876   3.407  0.0430 -0.3249 -0.3035
24645SOL    HW177433   1.345   4.858   3.501 -1.5724 -0.7856 -0.5167
24645SOL    HW277434   1.400   4.800   3.372 -0.5859 -0.7992 -0.1024
24646SOL     OW77435   8.533   6.909  10.226 -0.3868  0.8940  0.0114
24646SOL    HW177436   8.481   6.875  10.153 -1.9335  2.4792  0.2839
24646SOL    HW277437   8.613   6.857  10.226 -1.8148 -1.4611 -0.6525
24647SOL     OW77438   3.867   9.773   0.864  0.3152 -0.6174 -0.2058
24647SOL    HW177439   3.871   9.854   0.812  0.9454 -0.4254  0.1281
24647SOL    HW277440   3.903   9.798   0.950  0.8698 -1.3420 -0.2170
24648SOL     OW77441   6.316  10.663   4.843  0.1135  0.0030  0.1047
24648SOL    HW177442   6.306  10.759   4.841 -0.4768 -0.0529  0.1660
24648SOL    HW277443   6.406  10.649   4.872 -0.1476  0.5229  1.2250
24649SOL     OW77444   8.920   1.436   7.074 -0.0255 -0.0372  0.1554
24649SOL    HW177445   8.885   1.399   7.155 -1.1089  1.4307  0.3803
24649SOL    HW277446   8.861   1.404   7.006  2.0218 -2.9802 -0.4669
24650SOL     OW77447   3.135   1.423   2.156  0.0713 -0.1281 -0.8818
24650SOL    HW177448   3.098   1.394   2.073  1.7357 -2.4845 -0.8946
24650SOL    HW277449   3.229   1.405   2.149  0.2301 -0.6733  1.5786
24651SOL     OW77450   0.563  10.859   0.450  0.7273  0.2251 -0.6938
24651SOL    HW177451   0.473  10.870   0.419  0.6467  2.4130  0.1710
24651SOL    HW277452   0.581  10.766   0.437 -2.2234 -0.6505  0.6037
24652SOL     OW77453   3.549   1.839  10.486  0.0557 -0.6160  0.0257
24652SOL    HW177454   3.587   1.878  10.407 -2.0788 -1.5101 -1.5275
24652SOL    HW277455   3.496   1.909  10.524 -0.4674 -0.7544 -0.4405
24653SOL     OW77456   0.829   7.474   8.059 -0.8105 -0.6809 -0.1756
24653SOL    HW177457   0.849   7.533   7.987 -0.6969  0.1786  0.5392
24653SOL    HW277458   0.914   7.447   8.093 -0.8423  0.3335  0.7541
24654SOL     OW77459   5.697  10.234   2.626 -0.1833 -0.3374 -0.0604
24654SOL    HW177460   5.643  10.155   2.627  0.6355 -0.9060 -0.0870
24654SOL    HW277461   5.635  10.305   2.607 -1.0315 -0.8838  0.5566
24655SOL     OW77462   0.448   1.516   5.001  0.7223  0.2722 -0.2272
24655SOL    HW177463   0.506   1.490   5.073  0.1254 -0.2214  0.0838
24655SOL    HW277464   0.391   1.583   5.039  1.6132  1.3757 -0.7610
24656SOL     OW77465   8.849   8.727   0.205  0.5148  0.1800 -0.5963
24656SOL    HW177466   8.875   8.660   0.141 -2.1269  0.6660 -2.3201
24656SOL    HW277467   8.929   8.777   0.221  2.2230 -2.4401 -0.3565
24657SOL     OW77468   1.366   5.866   5.913 -0.0847 -0.0757 -0.3202
24657SOL    HW177469   1.327   5.869   5.826  1.6239  1.6445 -1.1009
24657SOL    HW277470   1.396   5.776   5.924 -0.4685 -0.3451 -1.4375
24658SOL     OW77471   2.350   5.944   7.859  0.0214  0.4529 -0.3583
24658SOL    HW177472   2.292   5.887   7.908  0.0581 -0.0802 -0.9321
24658SOL    HW277473   2.373   6.014   7.921 -1.1204  0.6058 -0.0864
24659SOL     OW77474  10.616   3.667  10.548  0.3822  0.5947 -0.5190
24659SOL    HW177475  10.685   3.627  10.496  1.6632  0.1729  1.3949
24659SOL    HW277476  10.653   3.751  10.577  0.4514  0.0428  1.1296
24660SOL     OW77477   5.164   8.183   4.955  0.6742  0.2403 -0.3068
24660SOL    HW177478   5.188   8.109   4.899  0.9606  0.5510 -0.6016
24660SOL    HW277479   5.080   8.158   4.993  1.3733 -0.7972  0.6055
24661SOL     OW77480   1.816   6.465   0.894 -0.4054  0.0767  0.9083
24661SOL    HW177481   1.889   6.408   0.868  0.1750  1.3509 -0.4482
24661SOL    HW277482   1.765   6.476   0.814 -1.4427  0.1547  1.5626
24662SOL     OW77483   3.135   4.239   2.255  0.2424 -0.2835 -0.1222
24662SOL    HW177484   3.088   4.258   2.336 -0.5572 -1.2399 -0.3392
24662SOL    HW277485   3.067   4.230   2.189  0.8955  0.5985 -0.9358
24663SOL     OW77486   0.576   5.755   2.468 -0.3350  0.3074  0.0488
24663SOL    HW177487   0.642   5.736   2.401  0.5580 -0.4649  1.1098
24663SOL    HW277488   0.590   5.847   2.490  0.1475  0.2527 -0.0057
24664SOL     OW77489   7.118   5.190   0.671  0.1790 -0.1677  0.0211
24664SOL    HW177490   7.144   5.186   0.763  0.6644 -0.4819 -0.1266
24664SOL    HW277491   7.201   5.187   0.623  0.0289  1.5367 -0.3921
24665SOL     OW77492   5.784   8.152   1.795  0.5837 -0.0578  0.1230
24665SOL    HW177493   5.695   8.181   1.817  1.2539 -0.4882  4.0427
24665SOL    HW277494   5.836   8.233   1.795  0.6061 -0.0711  0.3379
24666SOL     OW77495   3.861   7.562   8.304  0.3648  0.6395 -0.0225
24666SOL    HW177496   3.781   7.553   8.355 -0.2729 -0.6298 -1.1831
24666SOL    HW277497   3.927   7.592   8.367 -0.8546  1.0804  1.0817
24667SOL     OW77498  10.563   8.948  10.369  0.6155  0.0697  0.3562
24667SOL    HW177499  10.510   8.920  10.444 -0.2931  2.4600  0.6969
24667SOL    HW277500  10.652   8.920  10.391  0.3307  0.5067  2.2520
24668SOL     OW77501   7.514  10.535  10.985 -0.4037 -0.2693  0.0146
24668SOL    HW177502   7.589  10.575  10.941 -1.4854  3.2160  1.0065
24668SOL    HW277503   7.455  10.510  10.915  0.7134 -0.9861 -0.6957
24669SOL     OW77504   3.270   9.641   0.070 -0.1105 -0.1508 -0.1692
24669SOL    HW177505   3.225   9.670  -0.010 -0.1574  2.3989  0.6817
24669SOL    HW277506   3.200   9.607   0.126 -0.5986  1.0534 -0.0056
24670SOL     OW77507  10.161  10.400   1.278 -0.3352  0.2025  0.6501
24670SOL    HW177508  10.242  10.428   1.319 -1.1189  2.0923  1.0089
24670SOL    HW277509  10.188  10.365   1.193  1.1026 -1.9056  1.8829
24671SOL     OW77510  10.020   5.184   8.840  0.0021 -0.0767 -0.2050
24671SOL    HW177511  10.066   5.187   8.756  1.4908 -0.0580  0.5765
24671SOL    HW277512   9.965   5.106   8.834  0.5641 -0.4271 -0.9681
24672SOL     OW77513   3.177   3.931   5.641  0.1272 -0.1301  0.1897
24672SOL    HW177514   3.223   3.910   5.560 -1.1654 -0.3467 -0.5091
24672SOL    HW277515   3.238   3.907   5.710  0.6708 -1.3688 -0.6948
24673SOL     OW77516  10.250   4.308   8.248 -0.1256  0.3355 -0.4194
24673SOL    HW177517  10.221   4.285   8.160 -1.4292 -0.0045  0.0764
24673SOL    HW277518  10.323   4.249   8.265  1.2106  1.4780 -1.8514
24674SOL     OW77519   4.013   5.265  10.251  0.7033 -0.3459 -0.1697
24674SOL    HW177520   4.028   5.270  10.345 -0.3615 -2.8124  0.2262
24674SOL    HW277521   3.921   5.239  10.243  0.0061  2.2257 -2.0249
24675SOL     OW77522   1.279   4.524   3.970  0.0522  0.1414  0.2510
24675SOL    HW177523   1.362   4.478   3.958 -0.2704 -0.4002  0.0436
24675SOL    HW277524   1.234   4.475   4.038 -0.2432  0.2278  0.1182
24676SOL     OW77525   5.897   1.416   3.573  0.2508  0.1345  0.1670
24676SOL    HW177526   5.861   1.498   3.606 -1.4152  0.0899 -1.3932
24676SOL    HW277527   5.952   1.441   3.499  0.4240 -0.1167  0.2049
24677SOL     OW77528   7.027   6.973   5.755  0.6463 -1.0411 -0.0881
24677SOL    HW177529   6.964   6.975   5.682  0.7149 -2.9773 -0.2429
24677SOL    HW277530   6.977   6.938   5.829  0.8425  0.0026  0.5671
24678SOL     OW77531   4.078   2.177   6.217  0.1662  0.0603 -0.0122
24678SOL    HW177532   4.095   2.093   6.173 -0.4394  0.2331 -0.5834
24678SOL    HW277533   4.141   2.237   6.178 -0.9089  0.4124 -1.2667
24679SOL     OW77534   5.632   9.315   8.448 -0.2555 -0.1029  0.1950
24679SOL    HW177535   5.715   9.271   8.430 -1.1805 -1.1709 -1.7568
24679SOL    HW277536   5.567   9.266   8.397 -1.9310  1.3202  0.8578
24680SOL     OW77537   5.160   9.153   5.342  0.3029 -0.2115  0.2868
24680SOL    HW177538   5.188   9.186   5.256  0.0029 -0.7593 -0.0243
24680SOL    HW277539   5.067   9.175   5.346 -0.1342 -1.8541 -0.3315
24681SOL     OW77540   9.455   5.791   6.834  0.0071 -0.3773 -0.0468
24681SOL    HW177541   9.414   5.749   6.758 -0.6671  0.7535 -0.3205
24681SOL    HW277542   9.438   5.731   6.906  0.6188 -1.4451 -0.7595
24682SOL     OW77543   9.309   4.555   4.138  0.0607  0.4124 -0.7471
24682SOL    HW177544   9.335   4.646   4.127  0.5350  0.3567 -0.1217
24682SOL    HW277545   9.226   4.559   4.186  0.4383  0.5006 -0.0894
24683SOL     OW77546   8.885   9.061   9.063  0.4072 -0.3105  0.1862
24683SOL    HW177547   8.846   9.038   8.978  0.6642 -1.8847  0.4536
24683SOL    HW277548   8.933   8.982   9.089  2.8252  1.1089  0.4137
24684SOL     OW77549   2.849   3.073   0.767 -0.8711 -0.2299 -0.1769
24684SOL    HW177550   2.776   3.106   0.714 -0.1247  0.8848 -0.5435
24684SOL    HW277551   2.908   3.148   0.774  2.0867 -2.0557 -3.0542
24685SOL     OW77552   3.160   5.760   3.730 -0.0964  0.2737  0.1532
24685SOL    HW177553   3.218   5.710   3.788 -1.4843 -0.1491  1.2411
24685SOL    HW277554   3.102   5.807   3.790 -0.0134  1.7585 -0.8861
24686SOL     OW77555   9.948   0.438   9.707  0.8067  0.4844  0.1817
24686SOL    HW177556  10.022   0.376   9.706  0.4625 -0.0174 -2.2529
24686SOL    HW277557   9.984   0.517   9.745  1.6035 -0.8037  2.2713
24687SOL     OW77558  10.843   3.914   3.633 -0.3078 -0.1165 -0.8333
24687SOL    HW177559  10.879   3.829   3.606  0.0978 -0.5809  1.0680
24687SOL    HW277560  10.919   3.963   3.663 -0.8030  0.1752 -0.0424
24688SOL     OW77561   4.150   1.534   7.126  0.2152  0.1840 -0.5802
24688SOL    HW177562   4.173   1.622   7.097 -1.2462  0.7024 -0.2696
24688SOL    HW277563   4.123   1.489   7.047  0.5789  0.1510 -0.6839
24689SOL     OW77564   9.669  10.677  10.550  0.0757  0.6064 -0.6341
24689SOL    HW177565   9.682  10.664  10.644  0.0210  0.8912 -0.5862
24689SOL    HW277566   9.592  10.734  10.545 -1.1565 -0.9890 -0.8960
24690SOL     OW77567  10.685   1.463   4.918  0.0530  0.6549 -0.1408
24690SOL    HW177568  10.612   1.419   4.962 -0.7564  2.0057 -0.0907
24690SOL    HW277569  10.705   1.407   4.843 -0.8715  0.1347 -0.0148
24691SOL     OW77570   9.040   7.012   2.956  0.6071 -0.0509  0.0910
24691SOL    HW177571   9.100   7.086   2.945  0.0558  0.3657 -0.1608
24691SOL    HW277572   8.983   7.038   3.029  2.0024 -1.3015  1.6955
24692SOL     OW77573   2.094   4.377   0.917  0.2187  0.1653 -0.2340
24692SOL    HW177574   2.007   4.348   0.945  0.3347  0.4248  0.4085
24692SOL    HW277575   2.143   4.389   0.998  2.0447 -3.5215 -0.6029
24693SOL     OW77576   7.924   5.148   0.608  0.4309  0.0962 -0.0393
24693SOL    HW177577   8.005   5.114   0.570 -0.0592  1.2118 -2.2618
24693SOL    HW277578   7.925   5.117   0.698  3.1724 -0.1732 -0.0748
24694SOL     OW77579  10.351   4.116   2.860 -0.0719 -0.0749  0.3918
24694SOL    HW177580  10.255   4.125   2.865 -0.1099 -0.0943 -0.2367
24694SOL    HW277581  10.383   4.159   2.939 -0.5147  1.6038 -0.2907
24695SOL     OW77582   1.600   9.732   2.019 -0.4089  0.2027  0.0885
24695SOL    HW177583   1.652   9.811   2.036  1.4856 -0.6581 -1.3336
24695SOL    HW277584   1.618   9.675   2.094 -0.2697  0.3894  0.1979
24696SOL     OW77585   6.360   2.314   4.185 -0.0836  0.0991 -0.4154
24696SOL    HW177586   6.348   2.305   4.090  0.9479 -1.5321 -0.4327
24696SOL    HW277587   6.452   2.338   4.196  0.1605 -1.0305  0.1945
24697SOL     OW77588  10.324   2.193   7.659  0.2329  0.0492  0.3465
24697SOL    HW177589  10.268   2.266   7.685 -0.6298 -1.0199  1.6379
24697SOL    HW277590  10.413   2.228   7.663 -0.0043  0.5772  2.7696
24698SOL     OW77591   4.768   1.600   6.841 -0.0973 -0.2966  0.1039
24698SOL    HW177592   4.783   1.604   6.935  0.3594  0.8605 -0.0039
24698SOL    HW277593   4.745   1.689   6.816 -3.3851 -1.1643 -0.4016
24699SOL     OW77594   3.997   4.123   1.232 -0.2916  0.4877 -0.1443
24699SOL    HW177595   3.923   4.064   1.244  0.3836 -0.3966 -0.1679
24699SOL    HW277596   4.058   4.073   1.177  0.5998  0.9368  0.4078
24700SOL     OW77597   8.042   4.284   1.511  0.1586 -0.0914  0.0446
24700SOL    HW177598   8.057   4.220   1.441 -0.2048 -0.4214  0.2669
24700SOL    HW277599   8.070   4.238   1.591 -0.7325 -0.2147  0.2894
24701SOL     OW77600   5.541   6.498   0.426 -0.2253 -0.3695 -0.1101
24701SOL    HW177601   5.486   6.524   0.501 -0.9663 -0.6819 -0.5290
24701SOL    HW277602   5.629   6.492   0.462 -0.3191  0.9381  0.4048
24702SOL     OW77603   0.741   1.599   4.193 -0.1401 -0.1733 -0.3215
24702SOL    HW177604   0.695   1.680   4.174 -0.9714 -0.6524 -0.3989
24702SOL    HW277605   0.827   1.610   4.152 -0.2788  0.6152 -0.4184
24703SOL     OW77606   7.394   5.175   4.686  0.3632  0.0239  0.3094
24703SOL    HW177607   7.396   5.240   4.616  1.8230  0.3183  0.5985
24703SOL    HW277608   7.367   5.094   4.642 -0.5046  0.5979 -0.2379
24704SOL     OW77609   2.087   5.480   0.408 -0.2182  0.0996  0.5109
24704SOL    HW177610   2.020   5.486   0.476 -2.5491  0.4631 -1.6516
24704SOL    HW277611   2.122   5.569   0.401 -1.8096  0.6861 -0.4340
24705SOL     OW77612   7.099   5.890   5.173 -0.0737  0.1169  0.3519
24705SOL    HW177613   7.104   5.874   5.267 -0.3571  0.5713  0.4469
24705SOL    HW277614   7.051   5.973   5.165 -2.2968 -1.1474 -0.2841
24706SOL     OW77615   0.563   2.087   0.342 -0.4616  0.0343 -0.0084
24706SOL    HW177616   0.583   2.149   0.412  0.1048 -1.9104  1.6461
24706SOL    HW277617   0.468   2.077   0.345 -0.4864  0.3132  0.1451
24707SOL     OW77618   9.552   6.648   2.891  0.2760  0.4409 -0.2677
24707SOL    HW177619   9.592   6.702   2.822  0.8843  0.6161  0.2093
24707SOL    HW277620   9.575   6.558   2.867  2.3670  0.6208  0.8315
24708SOL     OW77621   7.770  10.583   1.452  0.0902  0.0712  0.7668
24708SOL    HW177622   7.783  10.620   1.364 -0.5150  1.6244  1.2927
24708SOL    HW277623   7.730  10.498   1.436 -0.7417  0.6508 -0.4692
24709SOL     OW77624   7.845   7.126   0.631 -0.1616  0.3672 -0.0155
24709SOL    HW177625   7.910   7.067   0.669  0.1743 -0.2592 -1.5188
24709SOL    HW277626   7.760   7.088   0.654 -0.1827  2.1537  3.5561
24710SOL     OW77627   5.102   2.589   3.454  0.2998  0.0153 -0.0013
24710SOL    HW177628   5.157   2.526   3.407  0.1151  0.3283 -0.6568
24710SOL    HW277629   5.019   2.589   3.406 -0.2943 -0.4743  0.9986
24711SOL     OW77630   3.002   5.933  10.924 -0.2721  0.1212 -0.2368
24711SOL    HW177631   3.007   5.874  10.849 -0.2251 -1.6994  1.1186
24711SOL    HW277632   3.037   5.882  10.997 -3.1036  0.6595  1.6721
24712SOL     OW77633   9.537   2.177   0.433  0.3690  0.0039 -0.5287
24712SOL    HW177634   9.626   2.206   0.417  0.4400 -0.9920 -2.1290
24712SOL    HW277635   9.516   2.120   0.359 -1.2818 -0.4966  0.2668
24713SOL     OW77636   4.075   9.064   4.166 -0.7907 -0.2565  0.9252
24713SOL    HW177637   3.996   9.082   4.116  0.8680 -1.2172 -2.2872
24713SOL    HW277638   4.048   8.997   4.230 -2.6308 -0.3180  0.1466
24714SOL     OW77639   7.834   4.174   5.832 -0.0286  0.1564  0.9044
24714SOL    HW177640   7.851   4.115   5.759  0.4546  0.9583  0.3555
24714SOL    HW277641   7.893   4.144   5.901  0.0556 -0.1383  0.7072
24715SOL     OW77642   7.584   3.126   0.530 -0.4328 -0.0532  0.6488
24715SOL    HW177643   7.675   3.099   0.541 -0.3877  0.8221  2.9048
24715SOL    HW277644   7.557   3.086   0.447  1.6428 -1.2694  0.4910
24716SOL     OW77645   8.778   9.234   9.508  0.2546 -0.2065  0.3310
24716SOL    HW177646   8.721   9.159   9.493 -1.3597  1.1325 -0.6718
24716SOL    HW277647   8.718   9.308   9.515  1.7628  0.9576  1.6670
24717SOL     OW77648   6.180   0.511   1.621 -0.7291  0.2913 -0.1867
24717SOL    HW177649   6.160   0.417   1.621 -1.0042  0.3245 -1.8824
24717SOL    HW277650   6.105   0.552   1.580 -0.6724  1.2895  0.6741
24718SOL     OW77651   0.682   8.747   5.635 -0.9332  0.5060  0.8952
24718SOL    HW177652   0.757   8.698   5.667 -0.6889 -1.5892 -2.4629
24718SOL    HW277653   0.698   8.837   5.665  2.8863  0.1585  0.3697
24719SOL     OW77654   8.776   2.534   5.986  0.3871 -0.5352  0.5919
24719SOL    HW177655   8.695   2.505   5.944  2.0923  0.2764 -3.7227
24719SOL    HW277656   8.765   2.628   5.999  0.2315 -0.6241  1.1489
24720SOL     OW77657   3.797   9.018  10.001  0.1253 -0.3634 -0.9565
24720SOL    HW177658   3.860   9.031   9.931  0.1854  1.1464 -0.6687
24720SOL    HW277659   3.790   9.104  10.043 -0.1755 -1.1282  0.6599
24721SOL     OW77660   2.932   0.261   8.852  0.1590  0.2220  0.2836
24721SOL    HW177661   2.964   0.171   8.861  0.8955  0.5359  0.9638
24721SOL    HW277662   2.903   0.267   8.761  2.1566 -0.0854 -0.4391
24722SOL     OW77663   8.727   5.739   4.215  0.3350  0.7292 -0.1956
24722SOL    HW177664   8.691   5.818   4.176 -1.3097 -0.4097 -1.1290
24722SOL    HW277665   8.787   5.770   4.283  1.2353  2.7712 -1.8153
24723SOL     OW77666   0.651   2.592   2.232  0.2745  0.5567 -0.0393
24723SOL    HW177667   0.647   2.588   2.137  0.1943  1.9310 -0.1116
24723SOL    HW277668   0.664   2.685   2.252  0.0546  0.3234  1.2979
24724SOL     OW77669   1.318   9.292  10.367  0.2945 -0.0626 -0.0268
24724SOL    HW177670   1.376   9.334  10.431 -2.8300 -0.3998  3.3555
24724SOL    HW277671   1.363   9.212  10.341  1.7499  0.1661  1.6821
24725SOL     OW77672   7.558   8.610   4.146 -0.3767  0.1696 -0.2479
24725SOL    HW177673   7.545   8.608   4.051 -2.5553  1.3326 -0.0284
24725SOL    HW277674   7.477   8.575   4.183  0.6572 -0.8156  1.2167
24726SOL     OW77675   7.306   7.108   5.227 -0.4561 -0.7994  0.3751
24726SOL    HW177676   7.249   7.098   5.151 -0.7421 -1.0888  0.6235
24726SOL    HW277677   7.357   7.188   5.209 -2.3000  0.5791  1.0234
24727SOL     OW77678   4.449   0.026   9.758 -0.2511  0.4779 -0.6528
24727SOL    HW177679   4.432  -0.024   9.837  1.5073 -0.4264 -0.8120
24727SOL    HW277680   4.458   0.116   9.788 -1.8010  0.5031 -0.1535
24728SOL     OW77681   5.141   8.498   7.880 -0.0777  0.5288 -0.1145
24728SOL    HW177682   5.065   8.551   7.903 -1.0315 -0.9618  0.3303
24728SOL    HW277683   5.120   8.461   7.794  0.5919  0.8837 -0.4400
24729SOL     OW77684   7.204   7.980   1.868  0.4007 -0.3075 -0.6198
24729SOL    HW177685   7.245   7.976   1.782 -0.6049  2.0470 -1.2863
24729SOL    HW277686   7.121   7.934   1.858  0.7060 -0.8651 -0.6240
24730SOL     OW77687   2.753   0.345   6.847 -0.1481  0.0923  0.1030
24730SOL    HW177688   2.745   0.293   6.768  1.3666 -2.1343  1.2998
24730SOL    HW277689   2.670   0.332   6.894 -0.2714 -0.2106 -0.2004
24731SOL     OW77690  10.044   7.431   3.201  0.0596  0.2697 -1.1644
24731SOL    HW177691  10.020   7.410   3.291 -0.3845  2.4490 -0.7170
24731SOL    HW277692  10.136   7.405   3.194  1.0431  2.6943  0.9254
24732SOL     OW77693  10.596   8.706   5.659  0.3053  0.1184 -0.2906
24732SOL    HW177694  10.594   8.707   5.563 -0.5050  0.9484 -0.2762
24732SOL    HW277695  10.507   8.681   5.684 -0.0746  1.8816  0.2492
24733SOL     OW77696   1.815   7.952   5.160 -0.3393 -0.1890  0.5281
24733SOL    HW177697   1.788   7.909   5.241 -2.0761  0.0295  0.1011
24733SOL    HW277698   1.748   7.927   5.097  0.9395 -0.2974 -0.8478
24734SOL     OW77699   4.139   1.283   1.768 -0.2732  0.4002 -0.3825
24734SOL    HW177700   4.218   1.230   1.757 -2.0542 -2.2580 -1.2857
24734SOL    HW277701   4.116   1.272   1.860 -0.9363 -0.9885 -0.6787
24735SOL     OW77702   9.135  10.591   4.316 -0.3109  0.7093  0.3114
24735SOL    HW177703   9.200  10.522   4.318 -1.1490 -0.1018  0.0677
24735SOL    HW277704   9.051  10.546   4.330 -1.2015  1.2715 -2.6521
24736SOL     OW77705   6.358   4.009   5.375  0.1836 -0.0494 -0.4839
24736SOL    HW177706   6.280   4.011   5.319  0.9388  1.1481 -1.5597
24736SOL    HW277707   6.324   3.998   5.464 -1.0863 -1.3847 -1.0956
24737SOL     OW77708   5.632   5.587   5.804 -0.1521 -0.2853 -0.0549
24737SOL    HW177709   5.687   5.510   5.789  0.5961  0.1686  0.2957
24737SOL    HW277710   5.560   5.555   5.858 -0.4620 -0.9766 -0.8596
24738SOL     OW77711   6.325   2.368   6.414  0.1861  0.2106 -0.0770
24738SOL    HW177712   6.241   2.351   6.457  0.3562  0.1784  0.2416
24738SOL    HW277713   6.339   2.292   6.357 -0.9749  1.1325 -1.6815
24739SOL     OW77714   4.649   5.236   2.583 -0.6181 -0.0684 -0.0405
24739SOL    HW177715   4.723   5.277   2.538 -0.7910  0.5456  0.2195
24739SOL    HW277716   4.606   5.184   2.515 -1.1460  1.2182 -0.7276
24740SOL     OW77717   8.825   0.901   4.743 -0.0478  0.4340 -0.7655
24740SOL    HW177718   8.766   0.970   4.775 -0.0888  0.4119 -0.7953
24740SOL    HW277719   8.893   0.896   4.810  0.2871  0.9254 -1.0582
24741SOL     OW77720   5.881   5.531   9.157  0.4904 -0.0263 -0.7407
24741SOL    HW177721   5.838   5.486   9.085 -0.4153 -0.5451  0.0938
24741SOL    HW277722   5.940   5.465   9.195  1.2050  0.3413 -1.1905
24742SOL     OW77723  10.225   4.343   6.501 -0.3247 -0.0268 -0.2282
24742SOL    HW177724  10.204   4.306   6.587 -1.4279 -0.1158 -0.5247
24742SOL    HW277725  10.144   4.384   6.472  0.5782  1.7078 -0.3848
24743SOL     OW77726   0.070   6.586   5.976 -0.5025 -0.0320  0.4158
24743SOL    HW177727   0.151   6.592   6.028  0.9842 -0.9266 -1.6251
24743SOL    HW277728   0.079   6.503   5.928 -0.7492  1.6225 -2.7669
24744SOL     OW77729   0.978   3.220  10.585 -0.4445 -0.2421 -0.3243
24744SOL    HW177730   1.064   3.244  10.549 -0.2477 -0.2993  0.0928
24744SOL    HW277731   0.970   3.126  10.567  0.9671 -0.9754  2.3186
24745SOL     OW77732   1.976   2.928   7.050  0.5108  0.0979 -0.5665
24745SOL    HW177733   2.008   3.000   6.996  0.4588  0.5799  0.0297
24745SOL    HW277734   2.054   2.893   7.093  0.4809  0.0690 -0.5349
24746SOL     OW77735   1.572   3.269   8.380  0.9265  0.0574  0.3308
24746SOL    HW177736   1.657   3.246   8.417  1.3443 -1.4366 -1.4196
24746SOL    HW277737   1.524   3.308   8.453  2.5827 -0.3977  1.7362
24747SOL     OW77738   0.466   1.933   9.540  0.2380 -0.2621  0.5268
24747SOL    HW177739   0.512   1.955   9.621 -0.4691 -0.6428  1.0457
24747SOL    HW277740   0.374   1.949   9.560  0.0317 -0.5951 -0.1234
24748SOL     OW77741   9.655   6.184   0.910 -0.1514 -0.1128  0.0568
24748SOL    HW177742   9.625   6.184   1.001 -0.7730 -0.1670 -0.1428
24748SOL    HW277743   9.741   6.142   0.913 -0.9762 -1.8708  0.3840
24749SOL     OW77744   7.771  10.836  10.104  0.3083  0.1182  0.3233
24749SOL    HW177745   7.717  10.831  10.025  0.6776  1.1574 -0.0195
24749SOL    HW277746   7.832  10.763  10.096 -0.6533 -0.6996  0.4161
24750SOL     OW77747   7.064   1.418   9.853 -0.5593  0.1669 -0.2442
24750SOL    HW177748   7.062   1.509   9.824  0.3784  0.2366 -0.1291
24750SOL    HW277749   7.082   1.368   9.773 -2.7894 -0.0947 -0.6269
24751SOL     OW77750   7.115  10.841   1.311 -0.7331  0.5334 -0.3556
24751SOL    HW177751   7.161  10.821   1.392 -0.8177  1.2534 -0.1243
24751SOL    HW277752   7.181  10.828   1.242 -0.2976  1.1405 -0.0628
24752SOL     OW77753   3.226   4.597   1.803  0.0671 -0.4724  1.1159
24752SOL    HW177754   3.290   4.662   1.833 -0.0804 -0.7900  2.1696
24752SOL    HW277755   3.262   4.513   1.832  0.7452 -1.0166 -1.0672
24753SOL     OW77756   6.894   8.756   5.716  0.2391 -0.3039 -0.2114
24753SOL    HW177757   6.858   8.842   5.696  0.4718 -0.0659  0.3774
24753SOL    HW277758   6.818   8.698   5.717  0.0905 -0.1283 -0.6866
24754SOL     OW77759   9.676   6.389   9.750  0.5180  0.2019  0.5278
24754SOL    HW177760   9.637   6.431   9.674  0.8220  1.0633  0.8290
24754SOL    HW277761   9.622   6.312   9.766 -0.8398  1.1434  0.7030
24755SOL     OW77762   5.088   8.808  10.736 -0.3290 -0.0313 -0.0897
24755SOL    HW177763   5.149   8.801  10.810 -0.8052 -1.4451  0.1938
24755SOL    HW277764   5.020   8.744  10.755 -0.5895 -0.2445 -1.6371
24756SOL     OW77765  10.342   1.582   2.086 -0.7572 -0.6057 -0.2848
24756SOL    HW177766  10.405   1.597   2.157  0.7813  1.9188 -2.0079
24756SOL    HW277767  10.368   1.499   2.048 -0.3435 -1.0186  0.8460
24757SOL     OW77768   5.248   3.563   5.293  0.1760  0.2712  0.5632
24757SOL    HW177769   5.342   3.583   5.285  0.4992 -1.0783  0.7351
24757SOL    HW277770   5.230   3.573   5.387  0.1857  0.4007  0.5513
24758SOL     OW77771   8.917   4.835   5.342  0.3382 -0.1450 -0.7463
24758SOL    HW177772   8.962   4.916   5.318  0.4161  0.1276  0.3001
24758SOL    HW277773   8.825   4.860   5.350  0.2359 -0.3468 -1.2408
24759SOL     OW77774   5.857   8.974   4.376  0.8754  0.2568  0.1067
24759SOL    HW177775   5.848   8.987   4.470 -0.7650 -1.0643  0.1720
24759SOL    HW277776   5.820   9.053   4.337  2.2562  1.1628  0.5214
24760SOL     OW77777  10.070   7.156   7.591 -0.4338  0.1911  0.5408
24760SOL    HW177778  10.122   7.146   7.511  0.0310  0.1032  0.8487
24760SOL    HW277779  10.120   7.109   7.658 -0.5359  0.7291  1.0024
24761SOL     OW77780   5.889   8.384   2.111 -0.6118 -0.1399  0.4123
24761SOL    HW177781   5.795   8.402   2.108 -1.1066 -2.4635  0.2287
24761SOL    HW277782   5.905   8.353   2.200  0.0509  0.4675  0.5148
24762SOL     OW77783   5.610  10.814   6.180  0.3731 -0.2240 -0.1057
24762SOL    HW177784   5.547  10.878   6.147  0.1142  0.3973  1.5495
24762SOL    HW277785   5.696  10.849   6.155  0.2164  0.6005  0.5132
24763SOL     OW77786   0.355   8.555   3.938  1.0675 -0.7222 -0.3736
24763SOL    HW177787   0.357   8.483   3.875  1.3205 -1.7105  0.7372
24763SOL    HW277788   0.301   8.524   4.010 -0.2233  0.8563 -0.5947
24764SOL     OW77789   0.166  10.699   7.432  0.3127  0.0148 -0.0556
24764SOL    HW177790   0.146  10.716   7.524  1.3564  2.6845 -0.2259
24764SOL    HW277791   0.250  10.653   7.434  0.5841  0.5064  0.3528
24765SOL     OW77792  10.000   2.170   7.636 -0.0812  0.1498 -0.2399
24765SOL    HW177793   9.981   2.213   7.720 -1.3184 -1.3899  0.3136
24765SOL    HW277794  10.041   2.087   7.661  1.1402  0.4139 -1.2492
24766SOL     OW77795   7.460   7.091   4.938  0.1122  0.1701 -0.4918
24766SOL    HW177796   7.476   7.073   4.845  0.9049 -0.0271 -0.3287
24766SOL    HW277797   7.365   7.092   4.947  0.0108 -1.6461 -0.9625
24767SOL     OW77798   0.863   2.209   5.318 -0.0580  0.2688  0.1583
24767SOL    HW177799   0.869   2.304   5.326 -1.0052  0.2652  1.0962
24767SOL    HW277800   0.778   2.187   5.357 -0.1828 -0.8843 -0.7054
24768SOL     OW77801   2.676   5.598   9.886  0.2980 -0.0869 -0.4448
24768SOL    HW177802   2.750   5.636   9.839  0.2892 -1.0975 -1.3224
24768SOL    HW277803   2.668   5.509   9.851  1.2359 -1.4733  2.5621
24769SOL     OW77804  10.453   0.395   4.407 -0.0165  0.0294 -0.5599
24769SOL    HW177805  10.533   0.449   4.413  1.0062 -1.3980 -0.7804
24769SOL    HW277806  10.419   0.412   4.319  0.2116  0.4260 -0.5734
24770SOL     OW77807   5.833   2.822   7.217 -0.0917 -0.4612  0.0313
24770SOL    HW177808   5.739   2.835   7.224 -0.2270 -1.9078  1.5405
24770SOL    HW277809   5.846   2.782   7.131 -0.6877  0.7732 -0.6588
24771SOL     OW77810   2.815   4.424   5.446 -0.7647  0.0643  0.3444
24771SOL    HW177811   2.761   4.474   5.385 -1.1993  0.6337  1.1880
24771SOL    HW277812   2.905   4.444   5.421 -0.7628 -3.0069 -2.8855
24772SOL     OW77813   1.322   3.256   7.905 -0.2339 -0.9348  0.3211
24772SOL    HW177814   1.395   3.207   7.867 -0.4812 -0.3382 -0.9495
24772SOL    HW277815   1.350   3.271   7.996  0.3025 -2.4849  0.4494
24773SOL     OW77816   0.652  10.295   4.527  0.1711  0.0269 -0.0487
24773SOL    HW177817   0.598  10.352   4.472 -0.7479 -2.3398 -1.7840
24773SOL    HW277818   0.622  10.313   4.616 -3.4721 -1.0010 -0.9055
24774SOL     OW77819   9.862   8.876   9.904  0.3695 -0.7656 -0.4245
24774SOL    HW177820   9.924   8.826   9.958 -0.7937  0.4579  2.2711
24774SOL    HW277821   9.824   8.939   9.965 -2.2578 -0.3152 -2.3602
24775SOL     OW77822   9.050   2.063   9.537  0.2178 -0.0024  0.1919
24775SOL    HW177823   9.045   1.997   9.607  2.4234 -0.7355 -0.2513
24775SOL    HW277824   9.088   2.015   9.463 -3.2100  0.3870 -2.0543
24776SOL     OW77825   1.705   1.744   2.734 -0.2991  0.1102 -0.1162
24776SOL    HW177826   1.665   1.831   2.740  0.2415  0.2435  2.0314
24776SOL    HW277827   1.714   1.730   2.639  1.7120  3.3624 -0.5896
24777SOL     OW77828   7.938   7.245   9.660 -0.4504  0.1183 -0.1091
24777SOL    HW177829   7.848   7.264   9.685 -0.8573 -0.8068 -0.7921
24777SOL    HW277830   7.985   7.327   9.673 -1.2683  0.4622  0.7886
24778SOL     OW77831   8.649   0.052   7.575 -0.4936 -0.0255 -0.0839
24778SOL    HW177832   8.576   0.105   7.606 -0.3503  0.5655 -0.7203
24778SOL    HW277833   8.616   0.009   7.496 -0.2276  0.0742 -0.2510
24779SOL     OW77834  10.150  10.826   9.817 -0.6373  0.3094  0.0130
24779SOL    HW177835  10.210  10.901   9.817 -1.5644  1.0817  0.7616
24779SOL    HW277836  10.178  10.773   9.891 -0.9402  0.7321  0.4376
24780SOL     OW77837   3.024   3.586   7.657 -0.3804  0.1036  0.0374
24780SOL    HW177838   3.019   3.490   7.660 -1.2264  0.1344 -0.1791
24780SOL    HW277839   3.026   3.613   7.749  0.0961 -0.1324  0.0968
24781SOL     OW77840   0.979   2.854   2.179 -0.3713  0.8973  0.8314
24781SOL    HW177841   0.911   2.875   2.243 -1.5854  0.6864 -0.3477
24781SOL    HW277842   0.931   2.821   2.103  1.0947 -4.8181  1.8489
24782SOL     OW77843   4.761   2.555   3.429 -0.0883  0.2273  0.1059
24782SOL    HW177844   4.797   2.590   3.348  1.1976  1.0120  0.9730
24782SOL    HW277845   4.682   2.508   3.403 -0.3339  1.4480 -1.4498
24783SOL     OW77846   7.406   9.689   4.786 -0.0380 -0.3166 -0.3249
24783SOL    HW177847   7.325   9.739   4.801 -0.2540 -0.7138 -0.1324
24783SOL    HW277848   7.476   9.747   4.815 -0.3134 -0.2795  0.2802
24784SOL     OW77849   3.686   2.940   1.110 -0.3419 -0.4547  0.6120
24784SOL    HW177850   3.706   2.936   1.204  0.6883 -2.3321  0.3492
24784SOL    HW277851   3.618   2.874   1.098 -0.5068 -0.1815  0.0205
24785SOL     OW77852   3.828   8.587   1.712 -0.4151  0.1647 -0.1434
24785SOL    HW177853   3.907   8.594   1.659 -0.7317 -0.0960 -0.6525
24785SOL    HW277854   3.760   8.628   1.659 -0.4357  1.2968  0.7055
24786SOL     OW77855   1.942   1.449  10.752  0.2791  0.2065  0.2832
24786SOL    HW177856   1.994   1.383  10.798 -0.7941 -0.1055  1.0850
24786SOL    HW277857   1.901   1.402  10.679  0.7618  0.3582 -0.0953
24787SOL     OW77858   6.559   6.958   9.323  0.0421  0.5745 -0.1893
24787SOL    HW177859   6.476   6.927   9.359  1.0874  0.3737  2.2437
24787SOL    HW277860   6.620   6.885   9.337  0.7621  0.9007 -1.4755
24788SOL     OW77861   9.951   5.072   1.134  0.5116 -0.1858 -0.7843
24788SOL    HW177862   9.934   5.045   1.224  1.4523  0.6102 -0.3511
24788SOL    HW277863  10.000   5.154   1.141  1.5035 -0.6237 -1.9882
24789SOL     OW77864   9.852   6.923   8.672  0.7453  0.7978 -0.4423
24789SOL    HW177865   9.820   7.011   8.652  0.3531 -0.0277 -4.2839
24789SOL    HW277866   9.780   6.865   8.646  2.2096 -0.7559 -1.2220
24790SOL     OW77867  10.888   1.636   3.379  0.0729 -0.1857 -0.6307
24790SOL    HW177868  10.957   1.574   3.356 -0.5372 -0.9679 -0.4279
24790SOL    HW277869  10.824   1.629   3.308 -0.1467 -0.0155 -0.4533
24791SOL     OW77870   7.589   0.040   3.705 -0.4622  0.6542  0.3055
24791SOL    HW177871   7.543  -0.026   3.652 -0.5009  0.2293  0.8642
24791SOL    HW277872   7.674   0.049   3.663 -0.7868  0.9316 -0.3232
24792SOL     OW77873   9.203   2.456  10.646  0.2418 -0.3589  0.3884
24792SOL    HW177874   9.204   2.435  10.553 -1.3646 -2.3219  0.7363
24792SOL    HW277875   9.114   2.490  10.661  0.4608 -0.1415  1.2152
24793SOL     OW77876   2.934   9.469  10.400  0.2551 -0.0878  0.2941
24793SOL    HW177877   3.005   9.412  10.369  0.1658 -0.7686  1.2828
24793SOL    HW277878   2.912   9.434  10.486  0.9678  2.1184  1.4623
24794SOL     OW77879   3.878   4.394   7.268 -0.1553  0.0642  0.4490
24794SOL    HW177880   3.809   4.459   7.265  0.4645  0.8481  1.9286
24794SOL    HW277881   3.939   4.419   7.199  0.0235  1.0139  0.9381
24795SOL     OW77882   3.185   2.054   1.097  0.0558  0.2060 -0.2055
24795SOL    HW177883   3.252   2.117   1.125 -0.4958  0.0273  1.6513
24795SOL    HW277884   3.102   2.091   1.128 -0.4233 -0.7982 -0.2326
24796SOL     OW77885  10.137   3.450   0.782 -0.1651  0.1652  0.1562
24796SOL    HW177886  10.073   3.521   0.783 -0.0790  0.3430 -2.2881
24796SOL    HW277887  10.222   3.494   0.789 -0.1945  0.0402  1.7038
24797SOL     OW77888   6.659   4.191   0.047  0.3639 -0.1719  0.0781
24797SOL    HW177889   6.742   4.150   0.024  0.7083  0.4882  0.1431
24797SOL    HW277890   6.682   4.265   0.103 -0.2208  0.3796 -0.3937
24798SOL     OW77891   9.277   2.630   2.325  0.5504 -0.3305 -0.4081
24798SOL    HW177892   9.279   2.587   2.240 -1.1442 -2.1434  0.3784
24798SOL    HW277893   9.278   2.558   2.388  0.7660  0.9246  1.0856
24799SOL     OW77894   6.268   2.946   0.460  0.0556 -0.3094  0.0951
24799SOL    HW177895   6.337   2.896   0.417  0.1695 -2.6898  2.7376
24799SOL    HW277896   6.314   3.020   0.500  0.1756  1.0247 -2.3450
24800SOL     OW77897   1.884   2.592   4.134 -0.1487  0.3155  0.4709
24800SOL    HW177898   1.880   2.593   4.038  1.2663 -1.7771  0.3259
24800SOL    HW277899   1.844   2.508   4.158  2.0936 -0.5295  1.4856
24801SOL     OW77900   8.380   2.389   9.167  0.0488  0.0227 -0.2997
24801SOL    HW177901   8.390   2.426   9.255 -1.3491 -2.1697  0.8697
24801SOL    HW277902   8.449   2.431   9.116 -0.1152  2.5957  1.3897
24802SOL     OW77903   9.482  10.873   5.450 -0.0745  0.1915  0.3523
24802SOL    HW177904   9.556  10.812   5.451  1.4286  1.8808 -0.2996
24802SOL    HW277905   9.469  10.893   5.357  1.0193  2.5268  0.6183
24803SOL     OW77906   2.648   9.872   8.200  0.2519  0.0037  0.1729
24803SOL    HW177907   2.577   9.829   8.153  0.2498 -0.3128  0.4601
24803SOL    HW277908   2.727   9.851   8.149  0.6122 -2.3414  1.5345
24804SOL     OW77909   3.654   1.457   4.776  0.3355  0.6976 -0.5141
24804SOL    HW177910   3.707   1.461   4.696  0.9748 -0.2694 -0.1563
24804SOL    HW277911   3.600   1.379   4.764  0.1604  0.7654 -0.1637
24805SOL     OW77912   1.638  10.611   4.739  0.6704  0.3026  0.2920
24805SOL    HW177913   1.684  10.639   4.819  0.6774  0.5258  0.2103
24805SOL    HW277914   1.613  10.693   4.696 -1.6324  0.2381  1.3697
24806SOL     OW77915   2.441   3.365  10.765 -0.0367  0.2063  0.0186
24806SOL    HW177916   2.350   3.351  10.789  0.0731 -0.7065 -0.0663
24806SOL    HW277917   2.473   3.278  10.740  0.9665  0.4413  0.4428
24807SOL     OW77918   0.639   2.385   3.492  0.7229  0.7289 -0.0397
24807SOL    HW177919   0.545   2.368   3.491  1.0689 -1.5246 -1.9274
24807SOL    HW277920   0.674   2.334   3.419  3.5970  0.4484  1.3979
24808SOL     OW77921   8.274  10.974   5.352 -0.4832  0.0776  0.1941
24808SOL    HW177922   8.346  10.962   5.414 -1.1096  0.1950  0.9696
24808SOL    HW277923   8.219  11.042   5.392  0.5351  2.2290 -1.8421
24809SOL     OW77924   0.098   0.167   5.925 -0.1140 -0.6577 -0.3269
24809SOL    HW177925   0.024   0.186   5.866 -0.0537 -1.1503 -0.5724
24809SOL    HW277926   0.093   0.234   5.992 -0.9978 -0.8746 -0.1541
24810SOL     OW77927   1.592   2.195   4.762  0.3807 -0.7364  0.4665
24810SOL    HW177928   1.575   2.257   4.833  1.6039  0.6475 -0.4059
24810SOL    HW277929   1.564   2.240   4.683 -0.9204 -2.2446 -0.0064
24811SOL     OW77930   5.972   3.756   9.046 -0.3155 -0.4004  0.3806
24811SOL    HW177931   5.893   3.770   8.994  0.1285 -2.1129 -0.8635
24811SOL    HW277932   6.038   3.812   9.005 -0.7366  0.6252  1.0843
24812SOL     OW77933   5.649  11.004   9.021  0.0241 -0.3584  0.2700
24812SOL    HW177934   5.622  10.912   9.014  1.5753 -0.8044 -0.2588
24812SOL    HW277935   5.623  11.043   8.937 -1.4225 -0.0700  0.8288
24813SOL     OW77936   4.914   5.335   7.945  0.2510 -0.1738  0.1504
24813SOL    HW177937   4.939   5.424   7.920 -0.3441 -0.0545 -0.0343
24813SOL    HW277938   4.930   5.282   7.867 -1.5369  0.1849 -0.5277
24814SOL     OW77939   2.008   4.515   0.339  0.2398  0.1183 -0.5506
24814SOL    HW177940   1.947   4.460   0.388  0.8928 -0.0216  0.1275
24814SOL    HW277941   2.025   4.466   0.259 -0.7378  0.2881 -0.8843
24815SOL     OW77942   2.247  10.679   2.818  0.7574 -0.2397 -1.0971
24815SOL    HW177943   2.162  10.651   2.784 -0.2088  1.8101 -0.5242
24815SOL    HW277944   2.235  10.686   2.913  0.6429  2.7588 -1.2487
24816SOL     OW77945   6.029  10.151   3.751 -0.3284 -0.2281  1.0622
24816SOL    HW177946   6.021  10.187   3.663 -0.2008  1.4023  1.6820
24816SOL    HW277947   6.123  10.157   3.771 -0.2571 -1.2052  1.0831
24817SOL     OW77948   8.371   5.986   9.856  0.2292  0.7468  0.0034
24817SOL    HW177949   8.434   5.984   9.784 -0.1179 -2.3361 -0.3250
24817SOL    HW277950   8.424   6.007   9.933  1.1214  1.1803 -0.7157
24818SOL     OW77951   2.055   1.835   5.455  0.0951 -0.0876  0.5182
24818SOL    HW177952   2.053   1.917   5.406  0.2455 -0.3022  0.1526
24818SOL    HW277953   1.985   1.844   5.520  1.8219  1.4247  2.2677
24819SOL     OW77954   4.875   9.187   0.475  0.2966  0.4007 -0.2092
24819SOL    HW177955   4.848   9.278   0.482 -1.9251 -0.2974  1.3326
24819SOL    HW277956   4.899   9.176   0.382  0.4269  2.4623 -0.4597
24820SOL     OW77957   0.921   8.817   1.488  0.1589 -0.0562  0.2591
24820SOL    HW177958   0.893   8.803   1.398 -0.3328  1.9429  0.0500
24820SOL    HW277959   1.016   8.815   1.485  0.1356 -0.4295 -0.2325
24821SOL     OW77960   5.200   5.196  10.319 -0.1696  0.1283 -0.2649
24821SOL    HW177961   5.167   5.168  10.233 -0.8915  1.4654 -0.4521
24821SOL    HW277962   5.186   5.291  10.320  3.3377  0.7896 -0.1928
24822SOL     OW77963   9.156   2.668   3.118 -0.6569 -0.7670  0.7220
24822SOL    HW177964   9.108   2.640   3.040 -0.8790 -1.0945  0.9717
24822SOL    HW277965   9.152   2.764   3.115  0.8256 -0.7005 -0.5916
24823SOL     OW77966  10.740   4.027   6.595 -0.0448 -0.9632  0.3231
24823SOL    HW177967  10.722   4.121   6.587 -1.0253 -1.1071  0.6732
24823SOL    HW277968  10.835   4.021   6.602 -0.0022  0.0546  0.8153
24824SOL     OW77969   2.509   6.868   6.468 -0.1893 -0.3985  0.1576
24824SOL    HW177970   2.429   6.832   6.507 -0.5393  1.7176  1.5596
24824SOL    HW277971   2.579   6.813   6.504 -0.8200 -0.6561  1.0438
24825SOL     OW77972   9.334   6.231   2.620  0.4443 -0.0794 -0.0255
24825SOL    HW177973   9.323   6.228   2.715  1.8669 -1.6417  0.1319
24825SOL    HW277974   9.272   6.298   2.591 -0.7671 -0.3052  1.8786
24826SOL     OW77975   6.418   7.754   2.127  0.0316  0.3523  0.5988
24826SOL    HW177976   6.335   7.729   2.086 -1.0133  2.8839  1.0049
24826SOL    HW277977   6.441   7.679   2.181 -0.1487 -1.8231 -2.1268
24827SOL     OW77978   8.434   2.317   3.016  0.3812 -0.1038 -0.6423
24827SOL    HW177979   8.370   2.247   3.004 -1.1393  0.8896  1.0464
24827SOL    HW277980   8.504   2.278   3.068  0.2747 -0.7303 -0.9606
24828SOL     OW77981   6.082   2.111   8.814 -0.3275 -0.7659  0.1784
24828SOL    HW177982   6.167   2.080   8.783 -0.1089 -0.3927  0.4047
24828SOL    HW277983   6.098   2.141   8.903 -0.9897 -1.9763  0.7272
24829SOL     OW77984   5.398   1.724  10.418  0.4079 -0.0995  0.4700
24829SOL    HW177985   5.366   1.782  10.487  1.1956  1.9876 -0.8084
24829SOL    HW277986   5.349   1.750  10.340 -0.6503 -2.5774  0.2097
24830SOL     OW77987   8.839  10.147  10.017 -0.6175  0.4580  0.1594
24830SOL    HW177988   8.866  10.238  10.008  1.5784 -0.2952 -1.5913
24830SOL    HW277989   8.918  10.101  10.042 -1.1967 -1.2578 -1.0055
24831SOL     OW77990  10.178   5.218  10.514  0.3612 -0.3152 -0.1479
24831SOL    HW177991  10.087   5.186  10.522  0.0378  0.8401  1.1875
24831SOL    HW277992  10.169   5.309  10.485  1.1333 -0.3620 -0.5532
24832SOL     OW77993   5.339  10.732   7.266 -0.0720 -0.0653  0.4230
24832SOL    HW177994   5.305  10.734   7.355 -1.7423  0.8673 -0.1890
24832SOL    HW277995   5.266  10.700   7.213  0.5115  0.4843 -0.7528
24833SOL     OW77996   1.264   9.216   1.760 -0.0705 -0.4908  0.3229
24833SOL    HW177997   1.336   9.265   1.801 -1.0511 -0.2587  1.8330
24833SOL    HW277998   1.303   9.177   1.682  2.5306 -2.9273  2.6662
24834SOL     OW77999   0.906  10.157   1.468  0.0753  0.1258 -0.0252
24834SOL    HW178000   0.868  10.129   1.552  1.0883 -1.4838 -0.0764
24834SOL    HW278001   0.977  10.216   1.492  0.4274 -0.4099  0.2727
24835SOL     OW78002   5.480   6.593   5.110  0.1640 -0.3865  0.0169
24835SOL    HW178003   5.419   6.664   5.089  0.6275  0.5691  1.7463
24835SOL    HW278004   5.431   6.535   5.168  0.5496 -0.1772  0.5588
24836SOL     OW78005   5.448   0.929   6.941  0.3884 -0.6095 -0.1941
24836SOL    HW178006   5.408   0.912   7.026  1.7451  1.3685  0.9087
24836SOL    HW278007   5.517   0.863   6.933  1.3699  0.2224  1.0585
24837SOL     OW78008   4.830   1.702   7.470 -0.2639 -0.0399 -0.3024
24837SOL    HW178009   4.892   1.760   7.514 -0.4082  0.9416 -1.3593
24837SOL    HW278010   4.765   1.760   7.431 -0.6778 -0.9340 -0.9896
24838SOL     OW78011   7.697   7.856   6.010  0.0852 -0.0540  0.7216
24838SOL    HW178012   7.641   7.780   6.028  0.6220 -0.1819  1.9211
24838SOL    HW278013   7.785   7.819   6.000  0.6122  0.5108  2.7622
24839SOL     OW78014   4.968   5.409   4.584  0.1300  0.0828 -0.1293
24839SOL    HW178015   4.958   5.332   4.640 -0.8902 -1.3724 -2.1763
24839SOL    HW278016   4.908   5.474   4.621 -0.6139 -0.8781  0.3905
24840SOL     OW78017   2.292   4.822   8.897  0.0132 -0.3631  0.0705
24840SOL    HW178018   2.355   4.894   8.906  0.3424 -0.6245 -0.1151
24840SOL    HW278019   2.255   4.834   8.810 -0.0059 -0.3563  0.0802
24841SOL     OW78020   8.230   0.326   2.555 -0.5816  0.3216  0.0648
24841SOL    HW178021   8.273   0.341   2.640 -0.3153 -0.3992  0.0595
24841SOL    HW278022   8.147   0.284   2.577 -0.5775  0.2655 -0.0262
24842SOL     OW78023   8.639   3.838   5.834  0.1502 -0.1985 -0.0026
24842SOL    HW178024   8.547   3.823   5.813 -0.2644  1.3359  0.5814
24842SOL    HW278025   8.651   3.797   5.920 -0.2484  0.3890  0.3432
24843SOL     OW78026   3.064   7.568   6.481 -0.2945  0.0636 -0.0702
24843SOL    HW178027   3.010   7.490   6.470  1.2179 -1.0274 -0.0860
24843SOL    HW278028   3.154   7.535   6.476  0.4418  1.3663  2.7590
24844SOL     OW78029   0.923   5.272  10.240  0.1516 -0.2026  0.2275
24844SOL    HW178030   0.928   5.288  10.334 -2.7301 -1.0125  0.6174
24844SOL    HW278031   0.904   5.358  10.202  0.6638  0.0101  0.4481
24845SOL     OW78032  10.919   2.059   2.088 -0.0225  0.2840  0.1440
24845SOL    HW178033  10.912   2.049   2.183  0.0807  3.3464  0.5706
24845SOL    HW278034  11.000   2.015   2.065  0.2595  0.0062  1.5694
24846SOL     OW78035  10.050   3.224   0.462  0.3311 -0.0107  0.1704
24846SOL    HW178036  10.069   3.266   0.378  0.7169 -0.7384 -0.1093
24846SOL    HW278037   9.971   3.172   0.445 -0.4168  0.9264  0.6360
24847SOL     OW78038   5.216   5.416   0.576 -0.1090 -0.1658 -0.4475
24847SOL    HW178039   5.127   5.431   0.544 -0.5495  2.6248  1.7095
24847SOL    HW278040   5.262   5.498   0.560  1.2925 -0.6695  0.7504
24848SOL     OW78041   5.430   4.147  10.456 -0.2764 -0.0573  0.1092
24848SOL    HW178042   5.437   4.179  10.366  1.0182 -0.7191 -0.0500
24848SOL    HW278043   5.361   4.201  10.495 -1.5482 -0.4096 -1.5420
24849SOL     OW78044   7.044   9.251   2.780 -0.0914 -0.1214  0.1992
24849SOL    HW178045   6.972   9.197   2.749 -0.9028  0.3280  1.2265
24849SOL    HW278046   7.033   9.335   2.736 -0.4115  0.0635  0.6294
24850SOL     OW78047   9.365   5.745   4.406  0.1871 -0.2377  0.7646
24850SOL    HW178048   9.307   5.671   4.387  0.8197 -0.2195 -1.6278
24850SOL    HW278049   9.333   5.815   4.349  2.0563  0.0120 -0.0392
24851SOL     OW78050   6.331   1.443   0.923 -0.4406 -0.0652  0.7208
24851SOL    HW178051   6.321   1.351   0.948  0.1934 -0.9152 -1.8430
24851SOL    HW278052   6.315   1.491   1.004  0.4335 -2.4641  2.4449
24852SOL     OW78053   5.546   6.738   3.763  0.0217  0.5246  0.3769
24852SOL    HW178054   5.476   6.675   3.778  0.8155 -0.4339  0.1927
24852SOL    HW278055   5.626   6.685   3.762  0.7423  1.5732  0.4889
24853SOL     OW78056   7.042  10.054   6.993 -0.5909 -0.3569  0.1876
24853SOL    HW178057   6.981  10.101   7.050 -1.5507  0.0135 -1.0903
24853SOL    HW278058   7.018  10.082   6.905  0.4467 -1.3811 -0.4425
24854SOL     OW78059   2.677   2.184   4.768  0.3067 -0.1017  0.4387
24854SOL    HW178060   2.672   2.280   4.775  2.1476 -0.0330  1.2864
24854SOL    HW278061   2.730   2.169   4.689  0.2171 -0.4286  0.4421
24855SOL     OW78062   8.054   9.020   9.578 -0.8293 -0.1364 -0.1807
24855SOL    HW178063   8.053   9.046   9.670 -1.4242 -2.2280  0.4598
24855SOL    HW278064   8.009   9.091   9.533 -3.4349 -0.4707  1.6130
24856SOL     OW78065   3.028   7.040   2.753 -0.2412 -0.4794 -0.5333
24856SOL    HW178066   3.006   7.024   2.661  1.0401  1.8174 -1.3164
24856SOL    HW278067   3.106   6.987   2.769 -0.8184 -1.3567 -0.5591
24857SOL     OW78068   0.533   3.752  10.369  0.6145 -0.4405 -0.3529
24857SOL    HW178069   0.559   3.757  10.277 -0.5916 -0.0593 -0.6975
24857SOL    HW278070   0.514   3.659  10.383  0.5654 -0.4620 -0.5541
24858SOL     OW78071   5.232   3.275   2.439 -0.0378  0.0076  0.8201
24858SOL    HW178072   5.277   3.327   2.505  0.9019 -0.4393  0.5529
24858SOL    HW278073   5.198   3.200   2.486  0.0453  0.0338  0.9222
24859SOL     OW78074   1.683   6.369   6.723 -0.2599 -0.0681 -0.1144
24859SOL    HW178075   1.763   6.368   6.776  0.0266  0.1798 -0.5340
24859SOL    HW278076   1.690   6.448   6.670 -1.4778  0.7473  0.8801
24860SOL     OW78077   8.162   4.209   0.138 -0.4504 -0.3387  0.3440
24860SOL    HW178078   8.124   4.213   0.050 -1.5058  0.2262  0.8033
24860SOL    HW278079   8.241   4.263   0.132  0.5356 -1.8423 -0.7288
24861SOL     OW78080   2.995   8.183   5.216  0.4147  0.1632  0.3295
24861SOL    HW178081   3.051   8.130   5.273 -0.2205 -0.3441  0.4987
24861SOL    HW278082   2.906   8.160   5.242 -0.0253 -2.3203 -2.7740
24862SOL     OW78083   8.217   7.969   5.556 -0.0062 -0.2974 -0.6009
24862SOL    HW178084   8.269   7.918   5.494  0.3130 -2.5379  1.3400
24862SOL    HW278085   8.278   7.988   5.627  0.6840  5.2206 -2.2123
24863SOL     OW78086   2.739   7.077   7.737 -0.0574  0.4896  0.6949
24863SOL    HW178087   2.816   7.027   7.762 -0.8908 -1.1802  0.1048
24863SOL    HW278088   2.684   7.078   7.815 -0.5101 -0.5077  0.4150
24864SOL     OW78089   9.625   4.782   2.429 -0.1410  0.0513 -0.1665
24864SOL    HW178090   9.564   4.823   2.491  1.8419 -0.0732  1.9668
24864SOL    HW278091   9.602   4.690   2.429  1.0718 -0.3094  2.0018
24865SOL     OW78092   3.169   8.818   0.959  0.0023 -0.8886 -0.5085
24865SOL    HW178093   3.230   8.758   1.003  1.3913  2.5088  2.7711
24865SOL    HW278094   3.095   8.826   1.020 -0.1587  0.6432 -0.8604
24866SOL     OW78095   2.999   2.327   8.637  0.0144  0.1633  0.0010
24866SOL    HW178096   3.007   2.379   8.716 -0.1953 -1.5552  1.2171
24866SOL    HW278097   3.080   2.276   8.634 -0.6247 -0.8827 -0.0260
24867SOL     OW78098   6.416   7.424   3.453 -0.0310 -0.0770 -0.4577
24867SOL    HW178099   6.444   7.389   3.368  0.4720  0.5546 -0.5606
24867SOL    HW278100   6.493   7.413   3.509 -0.2777 -0.2541 -0.1537
24868SOL     OW78101   3.666   7.328   9.103  0.1770  0.5486 -0.6628
24868SOL    HW178102   3.742   7.369   9.144  0.2925 -0.3753  0.0822
24868SOL    HW278103   3.600   7.325   9.171  0.3281 -0.8868 -0.5372
24869SOL     OW78104   4.891  10.779   7.964  0.6693 -0.0588 -0.4077
24869SOL    HW178105   4.855  10.765   7.876  0.6475 -1.3562 -0.2197
24869SOL    HW278106   4.824  10.745   8.023  0.1865  1.8194  0.2024
24870SOL     OW78107   7.049   2.767   4.956 -0.0150 -0.4628 -0.3570
24870SOL    HW178108   7.032   2.703   5.025  1.1350 -0.5465 -0.1353
24870SOL    HW278109   6.963   2.786   4.920 -0.7539  0.1823  1.6199
24871SOL     OW78110  10.252   2.013   2.885 -0.0386  0.1368  0.1703
24871SOL    HW178111  10.234   2.106   2.872  1.4591  0.3530 -0.4722
24871SOL    HW278112  10.327   2.011   2.945 -0.3606 -0.6756  0.5647
24872SOL     OW78113   8.059   3.095   8.673 -0.0471 -0.8378  0.0115
24872SOL    HW178114   8.068   3.124   8.582  2.4786  0.0575  0.4595
24872SOL    HW278115   8.145   3.059   8.695 -0.3715 -0.4090  2.2415
24873SOL     OW78116   8.194   0.054   0.452 -0.3571 -0.4253 -0.1929
24873SOL    HW178117   8.267   0.025   0.506 -0.6527 -2.4682 -0.8029
24873SOL    HW278118   8.164  -0.026   0.408 -2.4362  0.5043 -0.5699
24874SOL     OW78119   0.838   8.561   2.510 -0.0589 -0.4793  0.4475
24874SOL    HW178120   0.750   8.537   2.482 -0.3862  1.2796 -0.2050
24874SOL    HW278121   0.858   8.502   2.582 -2.7524  0.5776  2.2367
24875SOL     OW78122   8.154   1.233   6.823  0.1577  0.0053  0.3352
24875SOL    HW178123   8.214   1.262   6.892  0.4569 -0.0654  0.1075
24875SOL    HW278124   8.211   1.207   6.751 -0.1464 -0.1043  0.1311
24876SOL     OW78125   0.084   6.396   7.989 -0.3014  0.0886 -0.1194
24876SOL    HW178126   0.007   6.344   7.966  0.4836 -1.3676  0.3986
24876SOL    HW278127   0.158   6.347   7.953  0.4687  0.8200  0.4341
24877SOL     OW78128   8.211   1.577   7.324  0.1588  0.2049 -0.1166
24877SOL    HW178129   8.202   1.666   7.289 -1.4458  0.3156  0.5095
24877SOL    HW278130   8.198   1.586   7.418  0.5427 -0.6213  0.0233
24878SOL     OW78131   8.336   2.446   8.212  0.8400  0.3819 -0.2271
24878SOL    HW178132   8.340   2.504   8.135  1.1467  0.3616 -0.2276
24878SOL    HW278133   8.383   2.367   8.185 -0.6869 -0.4120 -0.6775
24879SOL     OW78134  10.499   6.374   0.576 -0.0049  0.0802 -0.0711
24879SOL    HW178135  10.539   6.449   0.621 -0.7854 -0.0956  0.9615
24879SOL    HW278136  10.555   6.300   0.599  0.8254  0.3362 -1.1746
24880SOL     OW78137   0.142   4.197   5.680  0.1490 -0.1872 -0.2143
24880SOL    HW178138   0.145   4.256   5.755 -0.6307  0.2799 -0.5355
24880SOL    HW278139   0.185   4.246   5.610 -0.0037 -0.2288 -0.3360
24881SOL     OW78140   6.327   1.725   9.035  0.0001 -0.4299 -0.3419
24881SOL    HW178141   6.249   1.700   9.084 -0.6695  0.5518 -0.8848
24881SOL    HW278142   6.321   1.677   8.953 -0.4514  0.2521 -0.7135
24882SOL     OW78143   4.317   2.218   9.558  0.2358 -0.3467 -0.1334
24882SOL    HW178144   4.244   2.170   9.518  0.4528  0.3748 -1.4416
24882SOL    HW278145   4.283   2.307   9.571  1.4615  0.5809 -2.6805
24883SOL     OW78146   4.387   0.184   2.059  0.2715  0.1617  0.0743
24883SOL    HW178147   4.340   0.263   2.083  2.9534  1.6296  0.9057
24883SOL    HW278148   4.331   0.141   1.994 -3.0516  0.7023  2.3187
24884SOL     OW78149   7.016  10.753   7.348  0.0200  0.6228 -0.1241
24884SOL    HW178150   6.935  10.746   7.298  0.0002  1.3023 -0.1954
24884SOL    HW278151   7.041  10.845   7.341 -0.2499  0.8494  1.5339
24885SOL     OW78152  10.839   4.656   9.203  0.0376  0.1149  0.0536
24885SOL    HW178153  10.913   4.624   9.152  1.9383  2.3784  1.1764
24885SOL    HW278154  10.836   4.600   9.280 -0.2385 -0.7710 -0.5937
24886SOL     OW78155   2.027   5.280   0.741  0.0599 -0.2951 -0.8473
24886SOL    HW178156   2.002   5.278   0.833 -1.1981 -1.6881 -1.1788
24886SOL    HW278157   2.106   5.225   0.737  0.2706 -0.0186 -0.5793
24887SOL     OW78158  10.983   0.938   6.294  0.2258 -0.1966  0.3589
24887SOL    HW178159  10.890   0.942   6.272  0.0262  0.3702  1.2962
24887SOL    HW278160  11.026   0.983   6.221 -0.3244  0.5001  0.4492
24888SOL     OW78161   9.383   1.003   5.329  0.0336  0.8145  0.3759
24888SOL    HW178162   9.295   1.014   5.293  1.2568  1.2914 -2.8102
24888SOL    HW278163   9.392   0.908   5.339  0.3025  0.4226 -2.7529
24889SOL     OW78164   9.522   3.879   7.739 -0.0658 -0.4494  0.3651
24889SOL    HW178165   9.582   3.949   7.717  2.4130 -1.7490  2.4130
24889SOL    HW278166   9.476   3.910   7.817  1.1445 -1.0375  1.3665
24890SOL     OW78167   7.942   0.901   8.800  0.0751  0.0473  0.6586
24890SOL    HW178168   8.033   0.922   8.822 -0.5231  0.5744  2.9069
24890SOL    HW278169   7.920   0.829   8.858 -0.6483 -0.7955 -0.6317
24891SOL     OW78170   6.751   5.685   8.258  0.5711  0.0918  0.4293
24891SOL    HW178171   6.711   5.735   8.186  0.6964  1.3340  1.2028
24891SOL    HW278172   6.679   5.634   8.294 -0.0155  1.1805  0.8485
24892SOL     OW78173   3.296   0.393   0.635 -0.0474 -0.2481  0.1338
24892SOL    HW178174   3.391   0.393   0.621 -0.0105  2.7437 -0.3436
24892SOL    HW278175   3.286   0.395   0.730  0.4954  1.2505  0.1930
24893SOL     OW78176   6.088   4.061   9.815  0.2427 -0.4306  0.1003
24893SOL    HW178177   6.180   4.046   9.832  0.7808  1.2599 -1.0786
24893SOL    HW278178   6.062   4.128   9.879  0.0109 -0.3898 -0.0340
24894SOL     OW78179   2.149   5.175   5.772  0.3031  0.2031 -0.4025
24894SOL    HW178180   2.087   5.228   5.723 -0.3303 -0.5430 -0.4356
24894SOL    HW278181   2.192   5.120   5.706 -1.0693 -1.3167 -0.0739
24895SOL     OW78182   7.658   4.609   4.737  0.1681 -0.4763 -0.0063
24895SOL    HW178183   7.714   4.686   4.723 -0.8720  0.1488 -0.8619
24895SOL    HW278184   7.577   4.645   4.772 -0.0116 -1.2886  0.4144
24896SOL     OW78185   4.347   8.540  10.939  0.0450  0.4049 -0.4336
24896SOL    HW178186   4.297   8.621  10.945  1.6179  1.3100  2.3599
24896SOL    HW278187   4.417   8.560  10.877  0.8760  1.5061  0.8208
24897SOL     OW78188   9.836   8.135   3.844 -0.7293 -0.1656  0.0845
24897SOL    HW178189   9.840   8.039   3.847  4.5955 -0.2744 -0.4024
24897SOL    HW278190   9.891   8.163   3.918 -0.6036  2.4091 -0.8887
24898SOL     OW78191   3.710   6.782   4.627 -0.3574 -0.4949 -0.5558
24898SOL    HW178192   3.638   6.805   4.686 -0.1523 -1.0846 -0.0694
24898SOL    HW278193   3.670   6.782   4.540 -0.7237  0.1149 -0.3970
24899SOL     OW78194  10.943  10.651   4.744 -0.0615 -0.0492  0.4029
24899SOL    HW178195  10.887  10.724   4.772 -2.3573 -0.5588 -2.4097
24899SOL    HW278196  11.011  10.693   4.690 -0.3023  0.1718  0.2691
24900SOL     OW78197   5.697   1.488   1.040 -0.0602 -0.4152 -0.1253
24900SOL    HW178198   5.744   1.407   1.060  0.5488  0.3327  1.7424
24900SOL    HW278199   5.615   1.481   1.089 -0.2439 -0.1203 -0.3849
24901SOL     OW78200   8.916   7.057   7.067 -0.4891  0.3594  0.2954
24901SOL    HW178201   8.921   6.989   7.134  0.8336  0.0332 -0.1009
24901SOL    HW278202   8.914   7.009   6.984 -0.6586  0.7784  0.0530
24902SOL     OW78203   6.715   0.323   9.457 -0.0351 -0.5249 -0.4405
24902SOL    HW178204   6.658   0.313   9.533  0.1823 -0.1303 -0.2177
24902SOL    HW278205   6.657   0.314   9.382 -0.5997  0.8906 -0.2159
24903SOL     OW78206   6.205   7.670   5.121  0.0743  0.1029 -0.1675
24903SOL    HW178207   6.141   7.610   5.159  0.3130  0.4476  0.8373
24903SOL    HW278208   6.225   7.730   5.193  0.3789  0.9333 -0.9363
24904SOL     OW78209   9.308   9.266   1.956 -0.1942  0.0345 -0.2095
24904SOL    HW178210   9.393   9.282   1.914 -0.2740 -0.2870 -0.5037
24904SOL    HW278211   9.244   9.285   1.887 -0.3027 -1.1499 -0.4646
24905SOL     OW78212   9.523   6.072   4.328 -0.3881 -0.1130  0.1471
24905SOL    HW178213   9.558   5.990   4.362 -1.1774 -0.3888  0.3135
24905SOL    HW278214   9.593   6.108   4.273  0.0838 -0.7264  0.3424
24906SOL     OW78215   4.398  10.168   3.247 -0.6146  0.2707  0.1339
24906SOL    HW178216   4.461  10.098   3.264 -1.0448 -0.3430 -0.7620
24906SOL    HW278217   4.452  10.243   3.222 -0.2691 -0.6540 -2.0548
24907SOL     OW78218   1.937   8.091   8.631 -0.0137  0.2503 -0.0935
24907SOL    HW178219   1.993   8.147   8.685  1.4622  0.0001 -1.2727
24907SOL    HW278220   1.997   8.056   8.565 -1.4339 -0.6940 -0.9152
24908SOL     OW78221   4.251   9.709   6.557 -0.2315 -0.2594 -0.2880
24908SOL    HW178222   4.170   9.669   6.590 -0.7857  1.6332  0.7939
24908SOL    HW278223   4.239   9.710   6.462 -1.2184 -0.5536 -0.1844
24909SOL     OW78224   2.590   9.947   6.244  0.8558  0.0704 -0.5385
24909SOL    HW178225   2.532  10.021   6.261  0.8242 -0.4272  1.8935
24909SOL    HW278226   2.669   9.966   6.294  1.5596 -0.6971 -1.3259
24910SOL     OW78227   8.641   3.201   5.492 -0.6344 -0.7613 -0.4816
24910SOL    HW178228   8.551   3.231   5.474  0.1516  1.6246 -0.8156
24910SOL    HW278229   8.675   3.264   5.555  0.7172 -1.8295 -0.1055
24911SOL     OW78230   2.350   4.801   7.831 -0.1644 -0.2693  0.2117
24911SOL    HW178231   2.264   4.770   7.859  0.2907  0.3626  2.5448
24911SOL    HW278232   2.404   4.721   7.828 -1.0364 -0.8444 -2.4178
24912SOL     OW78233   3.333   7.145   3.631 -0.0835  0.0429 -0.2118
24912SOL    HW178234   3.353   7.199   3.707 -0.8829 -0.4996  0.4087
24912SOL    HW278235   3.237   7.147   3.625 -0.1807 -1.7383  0.1851
24913SOL     OW78236   8.673   4.568   4.574 -0.0102 -0.1820 -0.0032
24913SOL    HW178237   8.652   4.657   4.603  1.2888 -0.2685  1.3140
24913SOL    HW278238   8.739   4.537   4.636 -1.3949 -2.5881  0.3749
24914SOL     OW78239   3.422   5.337   3.037 -0.5415 -0.0629 -0.6014
24914SOL    HW178240   3.451   5.280   3.109 -0.0635  0.0068 -0.7315
24914SOL    HW278241   3.330   5.316   3.024 -0.8939  0.6095  0.6746
24915SOL     OW78242   9.142   2.919   0.060 -1.2223  0.1802 -0.3420
24915SOL    HW178243   9.191   2.838   0.079  0.5915  1.7852  2.5297
24915SOL    HW278244   9.113   2.950   0.145 -1.0578  3.0469 -1.2334
24916SOL     OW78245   7.315   1.284   9.189  0.1589  0.1030 -0.8690
24916SOL    HW178246   7.224   1.311   9.189 -0.5498 -1.8732  1.4163
24916SOL    HW278247   7.362   1.359   9.225 -0.9466  0.3341  0.1728
24917SOL     OW78248   9.060   5.340   1.594 -0.2566 -0.4030  0.9905
24917SOL    HW178249   9.070   5.401   1.667 -1.2915 -0.4470  1.1815
24917SOL    HW278250   8.977   5.364   1.554 -0.3173 -1.2071  0.6114
24918SOL     OW78251   2.467   3.635  10.454 -0.1836 -0.3340 -0.4129
24918SOL    HW178252   2.479   3.552  10.408 -1.7669 -0.8500  0.0503
24918SOL    HW278253   2.411   3.686  10.396  0.9218  0.5035 -0.7738
24919SOL     OW78254   6.786   6.210  10.856 -0.3190 -0.4389  0.5360
24919SOL    HW178255   6.713   6.154  10.828  0.7538 -1.4611 -0.2705
24919SOL    HW278256   6.767   6.295  10.817 -0.1284 -1.1934 -1.2865
24920SOL     OW78257   7.894   9.780   3.718  0.3901 -0.4548 -0.5609
24920SOL    HW178258   7.934   9.720   3.654  1.1094  0.3310 -0.8648
24920SOL    HW278259   7.854   9.848   3.664  0.2212 -0.2641 -0.1953
24921SOL     OW78260  10.011   6.922   0.495  0.6146 -0.2759 -0.0179
24921SOL    HW178261   9.960   6.962   0.424  1.6611 -1.1311 -1.2809
24921SOL    HW278262   9.946   6.906   0.564 -0.2311  1.5791 -0.3114
24922SOL     OW78263   1.438   1.268  10.717 -0.7138  0.0904  0.1281
24922SOL    HW178264   1.381   1.337  10.751 -2.3388 -0.3947 -1.4694
24922SOL    HW278265   1.521   1.280  10.764 -2.2389  0.4941  2.9223
24923SOL     OW78266   0.689   6.105  10.638  0.4753 -0.3739  0.2259
24923SOL    HW178267   0.664   6.173  10.575 -0.7639 -1.7904 -0.8593
24923SOL    HW278268   0.692   6.151  10.722  1.9224  1.5158 -0.7638
24924SOL     OW78269   5.130   7.626   3.753  0.1156  0.2404 -0.4820
24924SOL    HW178270   5.206   7.570   3.739  1.3419  1.8503 -0.5530
24924SOL    HW278271   5.060   7.584   3.703  1.0740 -1.0245 -0.8025
24925SOL     OW78272   9.094   0.472   8.836  0.8273  0.3029 -0.1595
24925SOL    HW178273   9.006   0.444   8.859  1.2892 -0.7796  0.3235
24925SOL    HW278274   9.081   0.532   8.762 -0.6843  3.6928  2.5794
24926SOL     OW78275   4.869   1.275   0.930  0.0795  0.0776  0.1435
24926SOL    HW178276   4.879   1.346   0.994 -2.0203  0.6460 -0.1036
24926SOL    HW278277   4.959   1.247   0.912  0.8207  0.8227  2.2931
24927SOL     OW78278   5.842   1.076   4.776 -0.0776  0.0481  0.2454
24927SOL    HW178279   5.842   1.002   4.715  1.1226  0.7882 -0.6961
24927SOL    HW278280   5.927   1.071   4.820 -0.8137 -0.2977  1.6457
24928SOL     OW78281   1.006   1.099   5.383  0.1034 -0.2263 -0.3168
24928SOL    HW178282   1.035   1.014   5.351  1.1928  0.1715 -0.4143
24928SOL    HW278283   1.055   1.112   5.464 -0.1334  0.2696 -0.2487
24929SOL     OW78284   3.253   0.322   1.932  0.3915  0.2303 -0.0065
24929SOL    HW178285   3.257   0.227   1.939 -0.9929  0.0689 -1.1258
24929SOL    HW278286   3.226   0.351   2.019  0.7506 -0.3885  0.3200
24930SOL     OW78287   5.457   1.158   1.529  0.3277  0.6313  0.0591
24930SOL    HW178288   5.513   1.081   1.533  0.3583  0.7051  1.3009
24930SOL    HW278289   5.470   1.203   1.613 -0.2578  1.5856 -0.3348
24931SOL     OW78290   3.625   3.034   5.797 -0.0072 -0.7325 -0.3928
24931SOL    HW178291   3.719   3.016   5.794 -0.0654 -1.0468 -0.2903
24931SOL    HW278292   3.592   3.005   5.712  0.1399  0.2441 -0.8030
24932SOL     OW78293   7.459   7.277   7.592  0.9117 -0.3217  0.1174
24932SOL    HW178294   7.532   7.239   7.641 -1.1167 -1.9554  2.1519
24932SOL    HW278295   7.381   7.241   7.635 -1.1628  2.8751 -0.5881
24933SOL     OW78296   1.063   7.179   7.825  0.3734 -0.7101  0.8113
24933SOL    HW178297   1.039   7.223   7.743  0.0699 -0.1624  1.1927
24933SOL    HW278298   0.979   7.158   7.866  0.4601  2.0619  2.6197
24934SOL     OW78299   2.539   6.810   8.773 -0.4641  0.2319 -0.4423
24934SOL    HW178300   2.446   6.804   8.796 -0.2080 -0.1272  0.5573
24934SOL    HW278301   2.580   6.849   8.850  0.1699  0.7328 -1.0219
24935SOL     OW78302   9.496   6.187   2.912 -0.1945  0.3181  0.0687
24935SOL    HW178303   9.500   6.092   2.905  0.7008  0.3407  0.1610
24935SOL    HW278304   9.464   6.202   3.001 -0.8340  0.1144 -0.1142
24936SOL     OW78305   9.951   2.372   1.247 -0.3406  0.3475  0.3182
24936SOL    HW178306   9.987   2.315   1.316 -0.7526  0.3109  0.5052
24936SOL    HW278307   9.933   2.313   1.174 -0.8264  0.2231  0.5343
24937SOL     OW78308  10.323   3.720   3.045 -0.2156  0.3276 -0.0430
24937SOL    HW178309  10.300   3.759   2.960 -2.3277 -1.6621 -0.5060
24937SOL    HW278310  10.262   3.759   3.107  0.4407  0.7982  0.3141
24938SOL     OW78311   4.761   2.014  10.932  0.1945  0.6694  0.0626
24938SOL    HW178312   4.839   1.968  10.961  0.6907  1.4306 -0.0375
24938SOL    HW278313   4.769   2.017  10.837  0.6157  1.7192  0.1178
24939SOL     OW78314  10.528   4.097   4.464  0.3456 -0.3713  0.5685
24939SOL    HW178315  10.462   4.036   4.496 -1.2512  1.2839  0.6147
24939SOL    HW278316  10.480   4.155   4.406  1.8449  0.7299  0.3707
24940SOL     OW78317   7.491   9.768   7.881  0.7115 -0.2492  0.2652
24940SOL    HW178318   7.467   9.752   7.790  0.0261  0.5848  0.2852
24940SOL    HW278319   7.480   9.684   7.925 -1.9410 -0.0116  0.2017
24941SOL     OW78320   8.098   5.653  10.877 -0.0079  0.2352  0.1081
24941SOL    HW178321   8.148   5.617  10.804  1.4459  1.2757  0.5527
24941SOL    HW278322   8.064   5.736  10.845 -1.1791 -0.2799 -0.0574
24942SOL     OW78323   8.721   8.511   1.518  0.1288 -0.4388  0.7600
24942SOL    HW178324   8.722   8.594   1.471  1.0573 -0.1767  1.2225
24942SOL    HW278325   8.755   8.447   1.455 -1.9996 -0.7873 -0.1124
24943SOL     OW78326   1.937   8.597   0.220 -0.1837  0.5528  0.3185
24943SOL    HW178327   1.921   8.666   0.285 -0.5332 -0.1671  1.0120
24943SOL    HW278328   2.026   8.568   0.238  0.0155  0.9100 -0.0677
24944SOL     OW78329   7.425  10.124   0.070 -0.7000  0.8475 -0.2187
24944SOL    HW178330   7.462  10.041   0.040 -1.4697  0.3388  0.2446
24944SOL    HW278331   7.495  10.188   0.052  0.2021 -0.0071  0.1300
24945SOL     OW78332  10.341   6.797   4.515 -0.2644 -0.5420  0.1522
24945SOL    HW178333  10.341   6.816   4.609  0.2106  1.6620 -0.2327
24945SOL    HW278334  10.292   6.869   4.477 -0.7530 -1.5988 -1.2864
24946SOL     OW78335   1.090   4.317   9.598  0.3326 -0.1191 -0.2008
24946SOL    HW178336   1.055   4.340   9.684  1.0279  3.2979 -0.6893
24946SOL    HW278337   1.040   4.370   9.536  2.4282  0.4846 -1.4818
24947SOL     OW78338   8.613   0.297   4.856 -0.1715  0.2165 -0.0304
24947SOL    HW178339   8.635   0.290   4.763 -0.5985 -2.3719 -0.0243
24947SOL    HW278340   8.545   0.230   4.869  1.3160 -0.9523  2.5067
24948SOL     OW78341   2.884  10.337   7.713 -0.5136 -0.5221 -0.3855
24948SOL    HW178342   2.933  10.291   7.645 -1.0030  0.3314 -1.3461
24948SOL    HW278343   2.797  10.295   7.712 -0.2611 -1.0797  0.3226
24949SOL     OW78344   5.405   7.628   0.408 -0.0976  0.1259  0.6295
24949SOL    HW178345   5.498   7.649   0.417 -0.0435  0.2920 -0.2924
24949SOL    HW278346   5.361   7.713   0.408 -0.0100  0.2039 -1.5883
24950SOL     OW78347   7.204   9.709   0.093  0.3218  0.1117  0.1341
24950SOL    HW178348   7.210   9.778   0.159  1.0594 -1.8650  2.3187
24950SOL    HW278349   7.114   9.713   0.061 -0.3588  0.6174  1.9634
24951SOL     OW78350  10.052   1.564   5.804 -0.2441  0.1689  0.0923
24951SOL    HW178351  10.041   1.563   5.709 -0.6979  0.6926  0.1368
24951SOL    HW278352  10.017   1.480   5.833  0.3243 -0.1981 -0.2401
24952SOL     OW78353   9.154   6.096   4.077  0.0914  0.4732 -0.4849
24952SOL    HW178354   9.152   6.153   4.000  1.0846  0.8333 -0.2522
24952SOL    HW278355   9.081   6.127   4.130  0.6029  1.5358 -0.3717
24953SOL     OW78356   2.056   7.981   8.397 -0.3524 -0.6206 -0.2680
24953SOL    HW178357   2.136   7.952   8.442 -0.2372 -0.4626 -0.3685
24953SOL    HW278358   2.069   7.955   8.306  0.1170  0.4709 -0.5280
24954SOL     OW78359   2.604   8.305   4.537  0.0620  0.2227 -0.0794
24954SOL    HW178360   2.569   8.372   4.596 -2.3700  0.3273 -1.5097
24954SOL    HW278361   2.586   8.222   4.582 -2.6678  0.2376 -0.9409
24955SOL     OW78362   2.308   4.997   2.321 -0.4481  0.1549  0.3441
24955SOL    HW178363   2.390   5.014   2.367  0.3046 -1.3591 -0.3663
24955SOL    HW278364   2.311   4.904   2.300 -2.2320  0.1253  0.0483
24956SOL     OW78365   4.943   8.497   2.049 -0.1958 -0.2025 -0.7927
24956SOL    HW178366   5.002   8.524   2.120  0.2928 -0.6323 -1.0281
24956SOL    HW278367   4.958   8.403   2.040 -0.7648 -0.2772 -1.0029
24957SOL     OW78368  10.173   6.075  10.854  0.1263  0.3611  0.1210
24957SOL    HW178369  10.101   6.096  10.795  0.5658 -0.3898 -0.7111
24957SOL    HW278370  10.205   6.160  10.885 -0.1021  0.7712 -0.7390
24958SOL     OW78371   4.451   9.775   9.651 -0.2108  0.1677 -0.1398
24958SOL    HW178372   4.503   9.695   9.661  0.8344  0.9080  0.6704
24958SOL    HW278373   4.373   9.747   9.605 -0.2266 -1.4839  0.7828
24959SOL     OW78374   8.450   2.453   8.906 -0.2542  0.2064  0.3351
24959SOL    HW178375   8.369   2.459   8.956  0.1974 -0.1445  1.1314
24959SOL    HW278376   8.434   2.386   8.840 -1.0186  1.0119 -0.3243
24960SOL     OW78377   7.708  10.039  10.577  0.0101 -0.3181 -0.2489
24960SOL    HW178378   7.749  10.063  10.494  0.7382 -3.3353 -0.8812
24960SOL    HW278379   7.716   9.944  10.581 -0.1272 -0.3046  3.2370
24961SOL     OW78380   9.495   4.209   1.348  0.6367  0.1604  0.1824
24961SOL    HW178381   9.436   4.280   1.373  0.0656 -0.2927  0.1110
24961SOL    HW278382   9.511   4.161   1.429  0.5445  0.0088  0.1103
24962SOL     OW78383   6.119  10.811   6.003  0.0039  0.3075  0.5111
24962SOL    HW178384   6.123  10.739   6.066 -1.0589  0.0060  0.2466
24962SOL    HW278385   6.211  10.829   5.982  0.3186 -0.3814  1.2457
24963SOL     OW78386   0.738   7.090   9.774 -0.1150 -0.2943  0.5396
24963SOL    HW178387   0.741   6.996   9.759  0.7140  0.0213 -1.6907
24963SOL    HW278388   0.774   7.102   9.862  0.2311 -2.0086  0.6605
24964SOL     OW78389   0.656  10.785  10.193  0.0910 -0.0189  0.0250
24964SOL    HW178390   0.606  10.718  10.239  2.0711 -0.7653  1.1759
24964SOL    HW278391   0.646  10.762  10.100 -0.3257 -1.1273  0.3270
24965SOL     OW78392   9.603   4.038   8.785  0.1922 -0.9489  0.6846
24965SOL    HW178393   9.697   4.036   8.801  0.3418 -2.0147 -0.2165
24965SOL    HW278394   9.592   4.106   8.717  0.7173 -2.7925 -1.3608
24966SOL     OW78395   6.852   9.388   9.316  0.0067  0.3798  0.0321
24966SOL    HW178396   6.768   9.430   9.299 -1.2740 -2.3927 -1.1662
24966SOL    HW278397   6.909   9.417   9.245 -1.5369 -1.4994 -2.1130
24967SOL     OW78398   5.588   8.797   9.095  0.5738 -0.1854 -0.0610
24967SOL    HW178399   5.523   8.744   9.139 -0.2915 -0.3971 -1.5319
24967SOL    HW278400   5.554   8.886   9.099  1.2383  0.0329  1.0004
24968SOL     OW78401  10.824   4.889   8.653 -0.4138  0.0493 -0.1810
24968SOL    HW178402  10.833   4.981   8.679 -0.1083  0.0275 -0.2086
24968SOL    HW278403  10.838   4.840   8.734 -1.5572  0.0593  0.0385
24969SOL     OW78404   9.652   7.912   1.747  0.6401 -0.2887 -0.0635
24969SOL    HW178405   9.678   7.955   1.666  0.0222  1.4685  0.6195
24969SOL    HW278406   9.560   7.935   1.758  0.2513 -1.8850  0.3205
24970SOL     OW78407   7.141  10.559   7.972  0.1684 -0.2831 -0.3390
24970SOL    HW178408   7.063  10.508   7.995 -0.9864  0.8856 -1.5164
24970SOL    HW278409   7.162  10.608   8.052 -1.9693  1.4344 -0.7504
24971SOL     OW78410   3.443   9.176   6.197 -0.4313  0.4405  0.0591
24971SOL    HW178411   3.420   9.234   6.269  1.4358  2.5689 -0.9461
24971SOL    HW278412   3.465   9.234   6.125  0.0254 -1.5688 -1.5247
24972SOL     OW78413   4.855  10.360   3.702  0.0645 -0.3663 -0.4019
24972SOL    HW178414   4.947  10.385   3.714  0.2046 -0.4505 -1.2241
24972SOL    HW278415   4.837  10.299   3.774  0.5744 -0.1441 -0.0801
24973SOL     OW78416   1.799   4.636   2.178  0.1764 -0.9630  0.0724
24973SOL    HW178417   1.810   4.545   2.204  1.2490 -0.6086  0.9367
24973SOL    HW278418   1.844   4.643   2.094 -1.5111 -1.6342 -0.9330
24974SOL     OW78419   4.971   0.444   7.700  0.8790 -0.1144  0.1673
24974SOL    HW178420   4.905   0.492   7.750  0.4293 -2.2403  1.7331
24974SOL    HW278421   5.035   0.511   7.675 -1.0544  1.7603 -0.1202
24975SOL     OW78422   8.095   2.860  10.172 -0.1381 -0.1181 -0.2511
24975SOL    HW178423   8.136   2.943  10.147 -0.7463  0.2096 -0.1851
24975SOL    HW278424   8.165   2.810  10.214 -0.1900  1.0580  1.3061
24976SOL     OW78425   5.910   4.147   5.554 -0.3316 -0.1266  0.1674
24976SOL    HW178426   5.939   4.158   5.463 -0.0783  1.7869  0.4288
24976SOL    HW278427   5.935   4.058   5.577 -0.2255 -0.5788 -1.5716
24977SOL     OW78428   7.283   7.820   2.797 -0.0271  0.1120  0.1695
24977SOL    HW178429   7.257   7.899   2.750  0.4979 -0.2244 -0.6947
24977SOL    HW278430   7.287   7.848   2.889 -1.8603  0.5684  0.1477
24978SOL     OW78431   7.539   5.811   9.826 -0.1901  0.1579  0.8476
24978SOL    HW178432   7.510   5.888   9.776  1.3265  1.5116  1.9517
24978SOL    HW278433   7.458   5.776   9.864 -1.0388  0.5760 -0.4768
24979SOL     OW78434   5.823  10.699   3.040  0.2515  0.1365  0.1476
24979SOL    HW178435   5.781  10.653   2.968 -1.3132  0.9962  0.4464
24979SOL    HW278436   5.768  10.776   3.054 -0.5756 -0.8600  3.3811
24980SOL     OW78437   3.652   7.717  10.135  0.0023  0.1666 -0.8559
24980SOL    HW178438   3.570   7.767  10.134 -0.1102  0.0243 -0.0632
24980SOL    HW278439   3.713   7.773  10.184  0.3024  0.1578 -1.2172
24981SOL     OW78440   1.530   1.233   8.941 -0.1159 -0.0811  0.1844
24981SOL    HW178441   1.617   1.233   8.901 -0.5454  1.2778 -0.7969
24981SOL    HW278442   1.545   1.203   9.030  2.3152  5.1425  1.9285
24982SOL     OW78443   0.334   7.007   5.505  0.2918 -0.5094  0.1032
24982SOL    HW178444   0.421   7.004   5.545 -0.3020 -0.2496  1.4513
24982SOL    HW278445   0.287   6.934   5.545 -0.0405 -0.8155 -0.8254
24983SOL     OW78446   1.494   4.931   1.125  0.0420 -0.2440 -0.0394
24983SOL    HW178447   1.444   4.986   1.066  1.7391  0.3561 -1.0011
24983SOL    HW278448   1.444   4.931   1.207 -1.0665  0.9900 -0.6866
24984SOL     OW78449   5.760   0.162   6.509 -0.4539  0.4206  0.0977
24984SOL    HW178450   5.824   0.157   6.438  2.1264  2.4718  2.0691
24984SOL    HW278451   5.703   0.235   6.485 -0.7435 -0.0505 -0.6752
24985SOL     OW78452   7.740   9.569   6.771 -0.3020  0.1417  0.3735
24985SOL    HW178453   7.751   9.515   6.849  0.0486  1.3068  1.1623
24985SOL    HW278454   7.664   9.623   6.790 -0.2262  0.4225 -0.1068
24986SOL     OW78455   3.342   3.170   8.395 -0.6357 -0.3705 -0.3342
24986SOL    HW178456   3.287   3.246   8.415  0.3371  0.2581 -0.0182
24986SOL    HW278457   3.347   3.169   8.299  2.0360  1.9911 -0.3529
24987SOL     OW78458   6.908   0.924  10.643  0.0805 -0.2850 -0.5600
24987SOL    HW178459   6.896   0.862  10.715 -0.6232 -0.8378 -1.1445
24987SOL    HW278460   6.992   0.899  10.604 -0.7284 -1.6537 -1.5175
24988SOL     OW78461   3.092   2.282   6.039  0.0454 -0.2617  0.4066
24988SOL    HW178462   3.109   2.358   6.094  0.1297 -0.0514  0.0946
24988SOL    HW278463   3.158   2.288   5.970 -0.8271  0.1600 -0.4167
24989SOL     OW78464  10.286   3.930   2.259  0.0748 -0.8562 -0.1196
24989SOL    HW178465  10.205   3.913   2.211  0.1328  1.2184 -1.0423
24989SOL    HW278466  10.272   4.016   2.300  1.5184 -0.8110  0.3377
24990SOL     OW78467   4.999   6.071   2.174 -0.6924 -0.6470  0.1252
24990SOL    HW178468   5.013   6.149   2.120 -0.2219 -1.2583 -0.6672
24990SOL    HW278469   5.067   6.076   2.241  0.6051 -1.3428 -1.0828
24991SOL     OW78470   0.099   7.497   5.595  0.3484 -0.0080 -0.2012
24991SOL    HW178471   0.166   7.449   5.545  0.9853  0.8428 -0.1917
24991SOL    HW278472   0.029   7.514   5.532  1.0999  0.9683 -0.8000
24992SOL     OW78473   8.485   2.480   0.498 -0.1729 -0.4050  0.7256
24992SOL    HW178474   8.431   2.483   0.419  1.4215  0.1548 -0.3929
24992SOL    HW278475   8.452   2.551   0.553  1.9392  2.7376 -1.7230
24993SOL     OW78476   5.874   4.864   7.097  0.4228 -0.0855  1.0985
24993SOL    HW178477   5.895   4.952   7.066  1.4878 -0.1312  1.6127
24993SOL    HW278478   5.822   4.878   7.176  0.2304  0.0779  0.9422
24994SOL     OW78479   8.608   1.538   8.906  0.8175  0.0830  0.9356
24994SOL    HW178480   8.632   1.446   8.913  2.5619  0.4543  0.4361
24994SOL    HW278481   8.682   1.585   8.944  0.1176  1.2918  0.8478
24995SOL     OW78482   3.366  10.395   8.726  0.2062 -0.2254  0.1895
24995SOL    HW178483   3.454  10.421   8.699  0.2049  0.8475  1.1649
24995SOL    HW278484   3.308  10.457   8.682 -0.1214 -1.2280 -0.8384
24996SOL     OW78485   6.439   6.035   0.092 -0.0184 -0.0276 -0.0054
24996SOL    HW178486   6.434   6.101   0.023 -0.0932  1.2853  1.2113
24996SOL    HW278487   6.531   6.036   0.119  0.0280 -0.6007 -0.1192
24997SOL     OW78488   8.508   0.190   0.096 -0.2613  0.7317 -0.6768
24997SOL    HW178489   8.555   0.187   0.179 -3.0641 -0.0494  0.9948
24997SOL    HW278490   8.555   0.129   0.040  2.0949  1.7706  0.0253
24998SOL     OW78491   5.990   1.855   6.270  0.3379 -0.5156  0.5020
24998SOL    HW178492   6.045   1.818   6.201 -1.6602 -0.2615 -1.3341
24998SOL    HW278493   6.032   1.827   6.352  2.6721 -1.0220 -0.7792
24999SOL     OW78494  10.589  10.204   3.756 -0.7266  0.0211 -0.4281
24999SOL    HW178495  10.597  10.211   3.851 -1.5544 -1.7913 -0.1910
24999SOL    HW278496  10.632  10.283   3.723 -1.0142  1.0365  1.4612
25000SOL     OW78497   7.873   0.039   2.997  0.0095 -0.6783  0.0896
25000SOL    HW178498   7.848   0.097   2.924  0.6097 -1.4254 -0.7338
25000SOL    HW278499   7.836  -0.046   2.973  0.1024 -0.9048  0.7347
25001SOL     OW78500   5.573   6.402   6.240  0.3531 -0.4153 -0.1794
25001SOL    HW178501   5.552   6.482   6.289 -1.0866 -0.9292  0.1194
25001SOL    HW278502   5.511   6.337   6.274 -0.8653 -0.7629 -2.7906
25002SOL     OW78503   0.755   1.641   6.297  0.0852 -0.3885 -0.6774
25002SOL    HW178504   0.673   1.629   6.344  0.7501  0.0125  0.6356
25002SOL    HW278505   0.744   1.590   6.217 -0.6307 -2.1496  0.4562
25003SOL     OW78506   6.819   6.367   2.882  0.1434  0.4259 -0.6997
25003SOL    HW178507   6.856   6.279   2.894  1.7445  1.1103 -0.2885
25003SOL    HW278508   6.794   6.394   2.971  0.3532  0.6778 -0.7180
25004SOL     OW78509   3.453   4.386   7.441 -0.0372  0.0156  0.4349
25004SOL    HW178510   3.495   4.306   7.410 -0.5694 -0.7334  1.5739
25004SOL    HW278511   3.425   4.431   7.361  3.3292  0.8409 -0.4463
25005SOL     OW78512   7.551  10.117   4.309  0.1080  0.4138  0.9468
25005SOL    HW178513   7.632  10.160   4.335  0.5273 -0.3960  0.9853
25005SOL    HW278514   7.507  10.182   4.253  0.7886  0.8482  0.9044
25006SOL     OW78515   1.405   8.421   1.496  0.0126  0.2693  0.3211
25006SOL    HW178516   1.494   8.386   1.495 -0.4127 -0.8648 -0.4769
25006SOL    HW278517   1.387   8.444   1.405 -0.9064 -0.6135  0.2608
25007SOL     OW78518   3.971  10.504   0.873  0.1700  0.0144  0.1529
25007SOL    HW178519   3.889  10.506   0.923 -0.2850  0.4011 -0.5946
25007SOL    HW278520   4.003  10.595   0.875  0.1323  0.0411 -0.2764
25008SOL     OW78521   2.386   1.489   3.225  0.0489 -0.2614 -0.0737
25008SOL    HW178522   2.379   1.462   3.133  0.4381 -1.6673  0.2679
25008SOL    HW278523   2.310   1.543   3.241  0.9125  1.5642 -1.7083
25009SOL     OW78524   3.976   5.865  10.688  0.7701 -0.2331 -0.2466
25009SOL    HW178525   3.901   5.815  10.656  0.3730 -0.1313  0.5054
25009SOL    HW278526   3.938   5.937  10.736  1.3510  0.4734 -0.8175
25010SOL     OW78527   8.401   4.912   4.468  0.1209  0.3064  0.2224
25010SOL    HW178528   8.306   4.912   4.461  0.0478 -2.3106  0.4419
25010SOL    HW278529   8.420   4.987   4.525 -1.7537  1.0137  0.0077
25011SOL     OW78530   8.490   1.060   4.557  0.1051  0.2376  0.6902
25011SOL    HW178531   8.407   1.020   4.581 -0.1157  0.6898  0.6898
25011SOL    HW278532   8.526   1.093   4.640 -0.4097  1.3327  0.4979
25012SOL     OW78533   3.758   7.203   2.664 -0.0154 -0.4198  0.1840
25012SOL    HW178534   3.800   7.278   2.623 -1.3176 -0.2449 -0.9156
25012SOL    HW278535   3.664   7.221   2.657 -0.3173 -1.4600  1.2335
25013SOL     OW78536   9.175   0.458   5.301 -0.2941  0.5425 -0.1251
25013SOL    HW178537   9.160   0.417   5.216  1.8391  0.4545 -0.5011
25013SOL    HW278538   9.215   0.389   5.354 -1.7348  0.5526  1.0415
25014SOL     OW78539   3.833   2.075   3.198 -0.6459  0.5353  0.5386
25014SOL    HW178540   3.791   2.000   3.240  0.6922 -0.5894 -0.0628
25014SOL    HW278541   3.861   2.042   3.113  0.1451  1.6657  0.3465
25015SOL     OW78542   5.930   4.345   2.402  0.0515 -0.2038  0.3726
25015SOL    HW178543   5.857   4.390   2.360  0.6087  2.0464  1.6477
25015SOL    HW278544   5.900   4.332   2.492  0.9148  0.0654  0.7079
25016SOL     OW78545   9.009   5.616   3.443  0.0136 -0.2110  0.1322
25016SOL    HW178546   9.096   5.656   3.450  0.4157 -0.9361 -0.5138
25016SOL    HW278547   9.027   5.527   3.413 -1.0085 -0.1166 -0.7942
25017SOL     OW78548  11.005   1.322   3.752  0.2970  0.3848  0.1979
25017SOL    HW178549  10.982   1.339   3.660 -0.1432 -0.1778  0.1976
25017SOL    HW278550  11.084   1.374   3.767  0.4285  0.4086 -0.5320
25018SOL     OW78551   7.735   3.970   5.095  0.5560  0.0679 -0.1725
25018SOL    HW178552   7.719   3.978   5.001  1.3994 -0.8825 -0.4193
25018SOL    HW278553   7.691   3.889   5.119  1.6548 -0.5174 -0.0806
25019SOL     OW78554   8.511   4.513   8.040 -0.3862 -0.8577 -0.2899
25019SOL    HW178555   8.529   4.588   8.097 -3.3431 -0.7413  0.6761
25019SOL    HW278556   8.554   4.440   8.084  1.7170  0.0507 -0.7285
25020SOL     OW78557   9.393  10.616   1.693 -0.4633  0.1530  0.3063
25020SOL    HW178558   9.332  10.569   1.636 -0.8512  0.0301  0.8141
25020SOL    HW278559   9.338  10.654   1.762  0.0858 -0.4891  1.1292
25021SOL     OW78560   3.866   4.463   9.415  0.4016 -0.0131  0.5659
25021SOL    HW178561   3.791   4.522   9.408  0.2390 -0.3915 -1.2471
25021SOL    HW278562   3.837   4.381   9.375  1.6341 -0.2964  0.1831
25022SOL     OW78563   9.836   2.006   0.679  0.1290 -0.7031 -0.8022
25022SOL    HW178564   9.825   2.100   0.663 -0.9390 -0.3190  1.6694
25022SOL    HW278565   9.907   2.000   0.743 -1.1798 -1.3252  0.6771
25023SOL     OW78566   4.375   6.325   9.600 -0.1811 -0.2868  0.1778
25023SOL    HW178567   4.394   6.384   9.527  0.0132 -0.3958  0.1398
25023SOL    HW278568   4.441   6.349   9.666  0.2429 -0.8280 -0.0445
25024SOL     OW78569   7.157   3.509   5.359  0.1139 -0.5583 -0.1532
25024SOL    HW178570   7.118   3.545   5.280  1.0958 -0.6307 -0.6891
25024SOL    HW278571   7.224   3.572   5.384  0.1283 -0.7670  0.3498
25025SOL     OW78572   0.242   3.476   8.445 -0.0977 -0.0664 -0.2873
25025SOL    HW178573   0.210   3.428   8.522  0.9539  1.6755  1.3149
25025SOL    HW278574   0.292   3.411   8.395  0.5566 -0.8776  1.3629
25026SOL     OW78575   9.440   6.490   4.372  0.4646  0.0019  0.1070
25026SOL    HW178576   9.505   6.461   4.308 -0.2263 -0.0685 -0.5805
25026SOL    HW278577   9.399   6.567   4.331 -0.8674 -0.7973 -0.1304
25027SOL     OW78578   6.997   7.500   2.152 -0.3238 -0.2985 -0.7042
25027SOL    HW178579   6.984   7.481   2.245 -1.9687  2.6168 -0.2013
25027SOL    HW278580   6.994   7.415   2.109 -1.1475 -1.5997  1.7350
25028SOL     OW78581   8.870   6.275   0.482  0.0175 -0.0906  1.0784
25028SOL    HW178582   8.872   6.347   0.419  0.1742  1.0409  2.3276
25028SOL    HW278583   8.896   6.316   0.565 -0.3403 -1.5010  1.9055
25029SOL     OW78584   6.130   1.929   9.230 -0.2156  0.1492 -0.6495
25029SOL    HW178585   6.115   1.986   9.155  0.5726 -0.0037 -0.9379
25029SOL    HW278586   6.060   1.951   9.292  0.3570  1.8178 -0.5189
25030SOL     OW78587   6.160   8.601   3.465 -0.2728 -0.7661 -0.0011
25030SOL    HW178588   6.196   8.530   3.519 -0.7846 -0.1968  1.1090
25030SOL    HW278589   6.232   8.664   3.458 -0.1728 -0.8868 -0.0767
25031SOL     OW78590   5.501   1.749   1.232  0.0234  0.5999 -0.1944
25031SOL    HW178591   5.580   1.798   1.210  2.0789 -1.4284  2.1966
25031SOL    HW278592   5.459   1.800   1.301  1.4285 -0.2510  1.3311
25032SOL     OW78593   4.201   9.441   5.899  0.1159 -0.2518  0.3974
25032SOL    HW178594   4.166   9.463   5.813 -3.2355  1.9485  2.0931
25032SOL    HW278595   4.148   9.367   5.928 -0.7044  0.7350  1.5381
25033SOL     OW78596   3.482   4.306   9.638  0.0197 -0.5436  0.2604
25033SOL    HW178597   3.444   4.342   9.557 -2.2892 -0.0029  1.4880
25033SOL    HW278598   3.574   4.293   9.617  0.0551  1.9687 -1.6738
25034SOL     OW78599   7.095   7.169   0.316  0.0010  0.3164 -0.6677
25034SOL    HW178600   7.111   7.162   0.222 -0.3035  0.1233 -0.7067
25034SOL    HW278601   7.130   7.088   0.352  1.5490  1.0616 -0.4072
25035SOL     OW78602   1.642   7.403   8.706 -0.2412 -0.0460  0.0692
25035SOL    HW178603   1.548   7.415   8.720 -0.6679  0.1889 -2.4510
25035SOL    HW278604   1.651   7.310   8.687 -0.0909  0.0693 -0.4292
25036SOL     OW78605   5.809   0.937   5.101 -0.0995  0.4630  0.3746
25036SOL    HW178606   5.869   0.882   5.151  0.0807 -0.9780 -1.3098
25036SOL    HW278607   5.862   0.972   5.029 -0.5551  1.7455  0.6218
25037SOL     OW78608   1.153   2.971   8.913 -0.9644 -0.2538 -0.6516
25037SOL    HW178609   1.154   2.961   9.008  0.5488 -0.9231 -0.7175
25037SOL    HW278610   1.239   3.006   8.891 -0.1283 -2.9263 -2.0310
25038SOL     OW78611   0.314   8.572   6.716 -0.5707 -0.0785 -0.0446
25038SOL    HW178612   0.400   8.535   6.735 -0.9447 -1.2955 -0.6104
25038SOL    HW278613   0.332   8.649   6.662  0.1405 -0.6313 -0.6033
25039SOL     OW78614   3.029   3.182   1.716 -0.6016  0.4315 -0.7021
25039SOL    HW178615   3.118   3.214   1.700  0.0197 -0.5856  0.5961
25039SOL    HW278616   2.972   3.251   1.682  0.6758  2.4239  1.0094
25040SOL     OW78617   0.651   8.995   1.781 -0.2804 -0.0959  0.0873
25040SOL    HW178618   0.697   8.992   1.864  0.6543 -1.8665 -0.4412
25040SOL    HW278619   0.713   9.036   1.721 -0.8808  1.0038  0.1818
25041SOL     OW78620   4.296   4.222   5.312 -0.5476 -0.1463  0.1836
25041SOL    HW178621   4.343   4.289   5.263  1.0284 -1.2017  0.2073
25041SOL    HW278622   4.306   4.142   5.261 -0.8088 -0.7775  1.0852
25042SOL     OW78623   5.778   0.057   4.206 -0.4502 -0.0325  0.2339
25042SOL    HW178624   5.835   0.055   4.130 -0.9399  1.4692 -0.2095
25042SOL    HW278625   5.828   0.013   4.275  0.3968 -0.5426 -0.6845
25043SOL     OW78626   5.010   5.772   2.689 -0.0663 -0.3182 -0.1266
25043SOL    HW178627   5.092   5.807   2.655  0.0074 -0.8035 -0.4657
25043SOL    HW278628   4.963   5.742   2.611  0.1580 -1.5583  0.1907
25044SOL     OW78629   8.650   4.309   2.388  0.0802  0.5794  0.3940
25044SOL    HW178630   8.571   4.300   2.441  0.1145  1.9939  0.6996
25044SOL    HW278631   8.621   4.358   2.311  0.7430  1.5261  0.7328
25045SOL     OW78632   0.377   0.414   2.142 -0.1170 -0.3148  0.0439
25045SOL    HW178633   0.301   0.357   2.152  0.2392 -0.6051  1.3232
25045SOL    HW278634   0.444   0.359   2.102  1.2330 -1.8529  3.9515
25046SOL     OW78635   1.170   2.758   2.507 -0.3120  0.8806 -0.0462
25046SOL    HW178636   1.242   2.778   2.449 -1.4565  1.0451 -1.4611
25046SOL    HW278637   1.097   2.812   2.475 -1.5322 -0.5191  0.2580
25047SOL     OW78638  10.461   7.495   5.696  0.1236  0.1979  0.0152
25047SOL    HW178639  10.493   7.504   5.786  0.9400 -0.5145 -0.1887
25047SOL    HW278640  10.374   7.456   5.706  0.0158  0.5512  0.5145
25048SOL     OW78641   6.483   1.925   2.589 -0.0697 -0.2530  0.3913
25048SOL    HW178642   6.389   1.946   2.590 -0.0482 -0.1186  1.5101
25048SOL    HW278643   6.525   2.003   2.625  0.5741  0.0472 -0.9600
25049SOL     OW78644   1.733   4.174   1.152 -0.3730 -0.4881  0.1622
25049SOL    HW178645   1.775   4.254   1.121 -0.9289  0.4869  1.7806
25049SOL    HW278646   1.801   4.128   1.201 -0.6341  0.1642  1.1816
25050SOL     OW78647   9.042   1.997   7.748 -0.3162  0.7780 -0.0600
25050SOL    HW178648   9.104   2.068   7.734 -0.0899 -0.0409 -5.0726
25050SOL    HW278649   9.091   1.917   7.729 -2.1510 -0.1336 -1.2482
25051SOL     OW78650   2.884   6.458   6.340 -0.5607 -0.1807  0.0504
25051SOL    HW178651   2.814   6.425   6.397 -0.9381  0.8184  0.1790
25051SOL    HW278652   2.852   6.543   6.310  0.6190  0.2990  0.1224
25052SOL     OW78653   0.661   1.964   9.355 -0.0002  0.0392 -0.3869
25052SOL    HW178654   0.594   1.971   9.422 -0.6582 -0.6098 -0.9566
25052SOL    HW278655   0.689   2.054   9.338  0.8149  0.1541  1.3722
25053SOL     OW78656   1.948   9.680  10.370 -0.1106 -0.1852  0.5038
25053SOL    HW178657   1.992   9.715  10.447  0.5877 -0.6423  0.3193
25053SOL    HW278658   1.856   9.704  10.382 -0.2238 -1.2165  2.0579
25054SOL     OW78659   4.689   3.431   7.708 -0.0620  0.5013  0.1140
25054SOL    HW178660   4.718   3.522   7.717  0.4850  0.3612 -0.1564
25054SOL    HW278661   4.771   3.381   7.699 -0.3877  0.1438 -1.1284
25055SOL     OW78662   4.009   3.546   3.674 -0.5826  0.0403  0.5712
25055SOL    HW178663   4.051   3.587   3.598  1.5972  0.2585  1.8190
25055SOL    HW278664   3.990   3.619   3.733 -2.9266 -0.0430  0.0056
25056SOL     OW78665   6.147   1.201   8.901 -0.1725 -0.0873  0.1166
25056SOL    HW178666   6.119   1.259   8.972 -0.9093  0.8315 -0.8931
25056SOL    HW278667   6.069   1.151   8.879 -0.2686  0.4552 -0.8065
25057SOL     OW78668   8.744   8.730   8.325  0.0195 -0.2664  0.7362
25057SOL    HW178669   8.835   8.710   8.347 -0.4584 -1.2429  1.9601
25057SOL    HW278670   8.728   8.816   8.362  0.2639 -0.3705  1.0819
25058SOL     OW78671   5.289   9.197  10.175  0.0682 -0.3879  0.2210
25058SOL    HW178672   5.279   9.273  10.232 -0.3393 -0.6669  0.5279
25058SOL    HW278673   5.200   9.177  10.147  0.4470  1.2554 -2.5215
25059SOL     OW78674   0.088   9.535   8.110  0.4615  0.4974  0.0240
25059SOL    HW178675   0.082   9.465   8.175  1.8433  1.5378  1.3429
25059SOL    HW278676   0.169   9.516   8.062  0.8990  1.2170  0.4567
25060SOL     OW78677   8.686  10.898   3.643 -0.0962  0.0835  0.3035
25060SOL    HW178678   8.667  10.991   3.655 -0.4701 -0.0508  0.7784
25060SOL    HW278679   8.782  10.892   3.649 -0.1778  0.1309  2.6545
25061SOL     OW78680   0.855   8.263  11.002  0.3965 -0.2258 -0.2496
25061SOL    HW178681   0.871   8.337  10.943  0.0920 -0.9536 -1.2652
25061SOL    HW278682   0.942   8.225  11.016  0.5172  0.1599  0.0594
25062SOL     OW78683   7.871   8.962   5.831  0.0529 -0.5598 -0.0060
25062SOL    HW178684   7.809   9.029   5.802 -1.1721 -1.9108 -0.6016
25062SOL    HW278685   7.840   8.937   5.918 -0.5513 -1.5666 -0.4936
25063SOL     OW78686   8.100   9.291   7.036 -0.1807 -0.5830  0.4284
25063SOL    HW178687   8.015   9.252   7.016 -0.2781 -0.3007  0.2854
25063SOL    HW278688   8.161   9.218   7.037 -0.1320 -0.5768 -1.1138
25064SOL     OW78689   5.624   2.762   1.575 -0.0336  0.1751  0.2194
25064SOL    HW178690   5.657   2.686   1.623 -2.2436 -0.4401  0.8773
25064SOL    HW278691   5.699   2.821   1.569  1.4270 -1.5300  0.7389
25065SOL     OW78692   7.300   2.647   3.693  0.0632  0.1840 -0.3720
25065SOL    HW178693   7.289   2.697   3.611 -0.4803 -0.0837 -0.4717
25065SOL    HW278694   7.266   2.705   3.761  0.7987  0.5282 -0.2916
25066SOL     OW78695   5.506   9.022   3.966  0.1411 -0.3783  0.2332
25066SOL    HW178696   5.584   8.991   4.011 -0.1376 -1.6390 -0.1139
25066SOL    HW278697   5.449   9.054   4.035  0.6344 -0.2042  0.5612
25067SOL     OW78698  10.963   3.572  10.765  0.3838 -0.0709  0.0847
25067SOL    HW178699  10.928   3.589  10.677  0.5885 -2.0426 -0.4234
25067SOL    HW278700  11.047   3.620  10.766 -0.7180  1.9891  0.1526
25068SOL     OW78701   0.411   3.808   5.607  0.3532  0.0716 -0.4401
25068SOL    HW178702   0.454   3.807   5.692  0.3379  1.6249 -0.3974
25068SOL    HW278703   0.328   3.854   5.622 -0.3659 -0.9800 -0.9835
25069SOL     OW78704   2.779   7.265  10.446 -0.6424  0.8046 -0.6804
25069SOL    HW178705   2.711   7.209  10.483 -0.4460 -0.2157 -1.8142
25069SOL    HW278706   2.856   7.209  10.439  1.1045  2.4797  2.5887
25070SOL     OW78707   0.103   7.696  10.623 -0.6993 -0.7955 -0.5718
25070SOL    HW178708   0.168   7.748  10.575 -1.2412 -0.6567 -1.1645
25070SOL    HW278709   0.091   7.744  10.705 -2.1210  0.7749 -1.6142
25071SOL     OW78710   1.101   7.002   2.818 -0.2104 -0.1682 -0.7204
25071SOL    HW178711   1.192   7.029   2.809 -0.2654  0.2961 -0.0155
25071SOL    HW278712   1.098   6.953   2.901 -0.8560  1.0600  0.0224
25072SOL     OW78713   1.540   1.704   1.222  0.2351 -0.3258 -0.1083
25072SOL    HW178714   1.466   1.717   1.281  1.4141 -0.2705  1.4372
25072SOL    HW278715   1.593   1.636   1.264  1.0037 -0.4428 -1.2220
25073SOL     OW78716   1.416   7.031   1.079 -0.1868  0.0297 -0.7971
25073SOL    HW178717   1.497   7.073   1.107 -1.5314  1.2478  1.5957
25073SOL    HW278718   1.442   6.942   1.055  1.7474  0.0842  0.8119
25074SOL     OW78719   1.078   9.656   1.598  0.0569  0.1337 -0.2989
25074SOL    HW178720   1.147   9.714   1.632 -0.7877  0.8379  0.2486
25074SOL    HW278721   1.020   9.714   1.549 -0.9546 -0.1885  0.4949
25075SOL     OW78722   4.089   5.545   7.763  0.2700  0.5005  0.3913
25075SOL    HW178723   4.006   5.505   7.736  1.5078 -1.2404 -1.0613
25075SOL    HW278724   4.108   5.506   7.848  0.0128  0.2713  0.3447
25076SOL     OW78725   9.764   2.204   1.763 -0.2406 -0.2059 -0.1364
25076SOL    HW178726   9.804   2.164   1.686 -0.5323 -2.2195  0.6821
25076SOL    HW278727   9.829   2.193   1.832 -0.2051  1.0727  0.0458
25077SOL     OW78728   7.257   2.751   0.190 -0.9608  0.1497 -0.3156
25077SOL    HW178729   7.235   2.793   0.107 -2.7896  2.1862  1.0818
25077SOL    HW278730   7.180   2.698   0.211 -1.9212  2.1031  1.4764
25078SOL     OW78731   7.554   9.468  10.339 -0.1862  0.1491  0.6827
25078SOL    HW178732   7.556   9.564  10.344 -3.3063  0.2955  1.3464
25078SOL    HW278733   7.628   9.440  10.393  1.4398  2.1160 -0.3334
25079SOL     OW78734   0.548   2.623   0.955  0.1053  0.1720  0.2531
25079SOL    HW178735   0.500   2.589   1.031  1.2774  2.4099  2.1155
25079SOL    HW278736   0.480   2.638   0.889 -1.6459  1.9527  2.3050
25080SOL     OW78737   7.360   4.632   9.790  0.3786  0.1021  0.0715
25080SOL    HW178738   7.408   4.549   9.784  0.7081  0.3178 -0.3920
25080SOL    HW278739   7.375   4.662   9.879 -0.3452 -0.6909  0.4731
25081SOL     OW78740   3.848   6.957   0.441 -0.2240  0.0719  0.5282
25081SOL    HW178741   3.853   7.046   0.405 -1.3910  0.2627  0.7925
25081SOL    HW278742   3.902   6.905   0.381  0.5312  0.9530  0.4015
25082SOL     OW78743   1.309   1.902   7.145  0.5446 -0.5592 -0.2906
25082SOL    HW178744   1.353   1.984   7.125  1.3931 -0.8314  0.4238
25082SOL    HW278745   1.219   1.927   7.166  0.1518 -0.0604 -2.3694
25083SOL     OW78746   7.226   1.699   1.862  0.3193  0.9076  0.1900
25083SOL    HW178747   7.191   1.688   1.773  0.7285  2.3499 -0.1700
25083SOL    HW278748   7.251   1.791   1.867  0.0816  0.9052  1.8958
25084SOL     OW78749   0.722   7.306   4.660 -0.1108  0.1924  0.6966
25084SOL    HW178750   0.787   7.376   4.666 -1.9888  2.4227 -2.3317
25084SOL    HW278751   0.652   7.332   4.718 -0.5783  0.6039 -0.0339
25085SOL     OW78752   7.102   3.705   8.489 -0.2844  0.3160  0.0354
25085SOL    HW178753   7.175   3.653   8.455 -1.7172 -1.2326 -0.8217
25085SOL    HW278754   7.143   3.773   8.543  1.9082  0.9294 -2.2562
25086SOL     OW78755   3.081   1.292   6.200  0.0177  0.3332  0.2060
25086SOL    HW178756   2.987   1.275   6.205  0.0690 -0.8400 -1.9028
25086SOL    HW278757   3.088   1.388   6.195 -1.0906  0.3994 -0.1824
25087SOL     OW78758   0.374   5.465   6.220  0.2417 -0.2473 -0.0059
25087SOL    HW178759   0.427   5.430   6.291 -0.1132 -1.2941 -0.2302
25087SOL    HW278760   0.427   5.452   6.141 -0.9421 -2.8825 -0.4804
25088SOL     OW78761   6.626  10.608   9.882 -0.1498  0.5312 -0.0891
25088SOL    HW178762   6.619  10.660   9.962  1.9365 -1.4100  1.5110
25088SOL    HW278763   6.642  10.672   9.813 -0.0868  2.1598  1.3541
25089SOL     OW78764   8.673   7.383   1.001 -0.0640 -0.3670 -0.1349
25089SOL    HW178765   8.687   7.341   0.916  1.1439 -1.1179  0.4026
25089SOL    HW278766   8.634   7.315   1.056 -1.3607  0.2787 -0.2302
25090SOL     OW78767   0.709   9.788   3.526  0.0607 -0.0408 -0.6382
25090SOL    HW178768   0.681   9.757   3.613 -0.3879 -1.1811 -1.1654
25090SOL    HW278769   0.666   9.873   3.516  0.0114  0.0433  0.2028
25091SOL     OW78770   9.892   7.681   0.713  0.4768  0.2776 -0.3614
25091SOL    HW178771   9.797   7.691   0.717  0.3762 -0.8936  2.3088
25091SOL    HW278772   9.906   7.597   0.670  0.0610 -1.1636  2.1182
25092SOL     OW78773   7.335   0.429   0.711  0.0106 -0.1998 -0.0380
25092SOL    HW178774   7.258   0.445   0.657 -1.3812 -0.5818  1.7324
25092SOL    HW278775   7.407   0.418   0.648 -1.2161  0.8652 -1.7189
25093SOL     OW78776   5.361   0.947   8.516  0.7953 -0.0945 -0.0935
25093SOL    HW178777   5.351   0.929   8.609 -0.5670 -1.7043 -0.5056
25093SOL    HW278778   5.291   1.010   8.496  0.4058 -0.5492 -0.2031
25094SOL     OW78779   5.010   0.179   1.739 -0.9296  0.0587 -0.0407
25094SOL    HW178780   5.034   0.172   1.832  0.5693 -3.0452 -0.5386
25094SOL    HW278781   5.092   0.198   1.694 -0.9260 -1.8534 -0.9623
25095SOL     OW78782   5.644   1.278   1.365  0.0222  0.0657  0.7749
25095SOL    HW178783   5.582   1.225   1.415 -1.3724  1.9695  1.2013
25095SOL    HW278784   5.590   1.343   1.320  1.5394  0.4234 -0.6549
25096SOL     OW78785   3.242   9.097   2.077 -0.1455 -0.6832  0.2526
25096SOL    HW178786   3.167   9.040   2.093 -0.2604 -0.6079 -0.0052
25096SOL    HW278787   3.318   9.039   2.084 -0.2965 -1.0099 -0.6397
25097SOL     OW78788   6.676   8.153   7.696  0.5997  0.0685  0.4656
25097SOL    HW178789   6.660   8.085   7.632 -0.8754 -0.1679  1.0419
25097SOL    HW278790   6.604   8.215   7.684  1.8211  1.4940  0.0445
25098SOL     OW78791   8.855   4.631   2.977  0.0070 -0.0610  0.4720
25098SOL    HW178792   8.927   4.634   3.040  0.1906 -1.8821  0.4068
25098SOL    HW278793   8.896   4.603   2.895 -0.4894  0.7121 -0.0532
25099SOL     OW78794   1.962   4.254   4.220  0.0539  0.5979 -0.2001
25099SOL    HW178795   1.867   4.256   4.221  0.0238  0.7589 -1.5073
25099SOL    HW278796   1.985   4.162   4.230 -0.2092  0.6321  0.8023
25100SOL     OW78797   1.929   0.748   1.823 -0.0104  0.8767  0.3706
25100SOL    HW178798   1.886   0.678   1.775  0.7668  1.2859 -1.0056
25100SOL    HW278799   1.858   0.802   1.857 -0.6087 -0.3395  1.1272
25101SOL     OW78800   0.876   7.076   2.078  0.1089  0.4503 -0.3109
25101SOL    HW178801   0.929   7.050   2.003 -1.0282 -2.0367 -0.3572
25101SOL    HW278802   0.788   7.089   2.042 -0.3884 -0.4896  0.4837
25102SOL     OW78803  10.275   8.195  10.191 -0.0277  0.1631 -0.0087
25102SOL    HW178804  10.266   8.221  10.100 -0.3782  1.4215  0.3645
25102SOL    HW278805  10.208   8.246  10.238  2.5898  2.5260  1.4889
25103SOL     OW78806   4.981   5.173   0.265  0.5939 -0.1170  0.2944
25103SOL    HW178807   4.913   5.108   0.286  0.1547  0.9773  2.6571
25103SOL    HW278808   4.933   5.255   0.256  1.2448  0.0744 -1.7540
25104SOL     OW78809   3.064   8.556   6.701 -0.2302  0.0633 -0.7620
25104SOL    HW178810   3.092   8.648   6.692  0.0979  0.0369 -0.0612
25104SOL    HW278811   3.121   8.508   6.640 -0.0083  0.2497 -0.7051
25105SOL     OW78812   8.845   7.917   8.875  0.2802 -0.0889  0.6205
25105SOL    HW178813   8.914   7.853   8.860  1.0437  0.5171  1.4153
25105SOL    HW278814   8.796   7.921   8.793  2.0120  0.4381 -0.4334
25106SOL     OW78815   5.476  10.525   8.900 -0.1779 -0.3945  0.2732
25106SOL    HW178816   5.453  10.446   8.851 -0.1370 -2.2765  3.1163
25106SOL    HW278817   5.495  10.495   8.989  0.4911  2.7495  1.3357
25107SOL     OW78818   1.425   7.145   3.684 -0.0744 -0.1303 -0.5753
25107SOL    HW178819   1.450   7.207   3.753  0.9024 -0.4107 -0.6580
25107SOL    HW278820   1.337   7.117   3.708 -0.4923  1.2106 -0.4871
25108SOL     OW78821   2.470   3.849   6.156  0.6546  0.3050  0.0350
25108SOL    HW178822   2.555   3.819   6.188  1.1251 -0.8940 -2.0806
25108SOL    HW278823   2.436   3.904   6.225  2.8951  0.3402  1.2105
25109SOL     OW78824   9.224   6.837   7.241  0.2033 -0.7925 -0.4940
25109SOL    HW178825   9.141   6.807   7.202 -0.4240  0.8208 -0.4710
25109SOL    HW278826   9.197   6.893   7.313  1.3381 -0.3742 -0.3871
25110SOL     OW78827   0.812   5.978   9.893  0.3065 -0.4274 -0.4664
25110SOL    HW178828   0.727   5.985   9.849  0.7129 -1.1901 -1.3940
25110SOL    HW278829   0.872   5.944   9.826  1.0425 -1.1829  0.5377
25111SOL     OW78830   0.823   3.888   5.604 -0.3198 -0.6938 -0.2286
25111SOL    HW178831   0.842   3.927   5.689  2.5826  2.0976 -1.9160
25111SOL    HW278832   0.799   3.961   5.548 -1.0547 -2.2639 -2.1024
25112SOL     OW78833   5.764   8.320   6.259  0.3050 -0.0891  0.5875
25112SOL    HW178834   5.680   8.287   6.289  0.4307  0.4028  1.4999
25112SOL    HW278835   5.801   8.247   6.208 -0.2612 -0.6404  0.9510
25113SOL     OW78836   8.551   4.045   3.986  0.3152 -0.2773 -0.4767
25113SOL    HW178837   8.518   4.100   4.057  1.3813 -1.2107  0.7906
25113SOL    HW278838   8.493   4.064   3.912 -1.5267 -0.1013  0.9580
25114SOL     OW78839   0.952   6.386   8.491  0.5569  0.3618  0.0202
25114SOL    HW178840   0.996   6.443   8.556  1.6328  0.8218 -1.0751
25114SOL    HW278841   0.988   6.299   8.508  0.5521  0.4077  0.2807
25115SOL     OW78842  10.522   8.107   9.697 -0.5949  0.1997 -0.6235
25115SOL    HW178843  10.428   8.122   9.708 -0.5277  2.8325 -2.5298
25115SOL    HW278844  10.528   8.047   9.623 -0.8128  0.6192 -0.9908
25116SOL     OW78845  10.432   8.749   7.394 -0.4390 -0.3942 -0.2572
25116SOL    HW178846  10.504   8.785   7.343  1.2592 -2.4202  0.5109
25116SOL    HW278847  10.440   8.654   7.382 -0.7312 -0.8948  2.6605
25117SOL     OW78848   0.030   2.028  10.750  0.3883  0.1663  0.0180
25117SOL    HW178849  -0.015   2.000  10.830 -1.0263  2.9511  0.3469
25117SOL    HW278850   0.089   2.098  10.779  0.9137  0.2544 -1.1890
25118SOL     OW78851   8.435   1.629   6.730 -1.1108  0.5130 -0.3525
25118SOL    HW178852   8.455   1.540   6.701 -0.4640  0.3379  0.6098
25118SOL    HW278853   8.403   1.619   6.819  0.2602  1.3423  0.2716
25119SOL     OW78854   6.094   5.427   9.515 -0.1767  0.4371 -0.0346
25119SOL    HW178855   6.186   5.432   9.542 -0.6384 -0.1116  1.7491
25119SOL    HW278856   6.063   5.518   9.521 -0.1840  0.3728  1.0202
25120SOL     OW78857   9.025   1.660   4.044 -0.3930  0.1856 -0.6899
25120SOL    HW178858   8.970   1.657   4.122  0.6022 -0.7994  0.0160
25120SOL    HW278859   9.096   1.721   4.067 -0.8518  0.9979 -1.3716
25121SOL     OW78860   3.856   5.868   9.883  0.1899 -0.2142 -0.0575
25121SOL    HW178861   3.842   5.960   9.859  1.6451 -0.3574 -1.6272
25121SOL    HW278862   3.840   5.819   9.803  1.7605 -1.0768  0.1216
25122SOL     OW78863   0.708   5.442   6.555  0.2776  0.5891 -0.3357
25122SOL    HW178864   0.664   5.463   6.472 -0.9384 -0.6375 -0.0291
25122SOL    HW278865   0.636   5.432   6.618  1.0650 -0.3506  0.4388
25123SOL     OW78866   3.154   1.751   0.677  0.0405 -0.0430  0.6258
25123SOL    HW178867   3.174   1.658   0.688 -0.6089 -0.0813  1.5674
25123SOL    HW278868   3.060   1.757   0.689  0.0068  0.6779  0.0759
25124SOL     OW78869   9.692   2.763   8.144 -0.2508 -0.0000 -0.2772
25124SOL    HW178870   9.731   2.794   8.062  0.5853  1.7238  0.6964
25124SOL    HW278871   9.601   2.793   8.140  0.1212  1.2142 -0.0587
25125SOL     OW78872   6.724   0.671   1.297 -0.6092 -0.2591 -0.1861
25125SOL    HW178873   6.672   0.688   1.375 -0.5681 -1.3701  0.1032
25125SOL    HW278874   6.791   0.739   1.297 -0.1427 -0.6996  1.1810
25126SOL     OW78875   3.642   4.330   9.297 -0.2930  0.4894  0.6235
25126SOL    HW178876   3.588   4.260   9.260  0.7432 -1.2053  2.1148
25126SOL    HW278877   3.581   4.386   9.344 -0.8482 -1.2203  2.0360
25127SOL     OW78878   6.183  10.589   8.465  0.4308  0.3940  0.0584
25127SOL    HW178879   6.091  10.561   8.470  0.7114 -0.3663  3.3748
25127SOL    HW278880   6.180  10.684   8.474 -0.0477  0.3141  0.8537
25128SOL     OW78881   9.939   5.151   9.589  0.1992 -0.7014  0.0303
25128SOL    HW178882   9.982   5.070   9.616 -1.5742 -1.6323  0.2388
25128SOL    HW278883  10.007   5.201   9.544  1.6391 -1.7759  0.9343
25129SOL     OW78884   5.100  10.924   9.873 -0.5610  0.1585 -0.1099
25129SOL    HW178885   5.125  11.012   9.900 -1.3243  0.5360 -0.6206
25129SOL    HW278886   5.166  10.867   9.915 -2.3702  0.5282  3.7108
25130SOL     OW78887   5.050   4.652   0.506  0.1701 -0.3139 -0.0026
25130SOL    HW178888   5.091   4.639   0.420  0.9620 -1.3236  0.5030
25130SOL    HW278889   5.007   4.737   0.499  0.2502 -0.3604 -1.3864
25131SOL     OW78890   6.546  10.379   5.720  0.0570 -0.6769 -0.7707
25131SOL    HW178891   6.490  10.337   5.654 -1.2158  0.7399 -0.6502
25131SOL    HW278892   6.518  10.340   5.803 -1.7319  0.9150 -0.5563
25132SOL     OW78893   4.228   2.973   3.193 -0.0272 -0.0751 -0.1618
25132SOL    HW178894   4.148   3.007   3.234 -0.6038 -0.1342 -1.1776
25132SOL    HW278895   4.198   2.942   3.107  0.5546 -2.6832  0.5011
25133SOL     OW78896   9.963   5.212   9.100  0.8098 -0.0511  0.0798
25133SOL    HW178897   9.982   5.305   9.110  0.6752  0.0790 -0.8614
25133SOL    HW278898   9.990   5.191   9.011 -3.0414  0.0662 -1.2817
25134SOL     OW78899   2.459   9.560   8.667 -0.5948 -0.1305  0.0182
25134SOL    HW178900   2.401   9.540   8.594  0.1690  0.2497 -0.7082
25134SOL    HW278901   2.543   9.521   8.642 -0.7308 -1.3921  1.4196
25135SOL     OW78902   6.987   7.627   3.189 -0.3499  0.0817 -0.5674
25135SOL    HW178903   7.003   7.715   3.222 -1.1677  0.3103 -0.7503
25135SOL    HW278904   6.891   7.618   3.190 -0.2511 -1.1934  0.4461
25136SOL     OW78905   4.194   8.969  10.696  0.4103  0.2047 -0.1823
25136SOL    HW178906   4.120   8.967  10.636 -0.3055  1.0533  0.6336
25136SOL    HW278907   4.270   8.956  10.641 -0.1478  1.8690 -1.4414
25137SOL     OW78908   8.950   5.511  10.151  0.5778 -0.3748 -0.2239
25137SOL    HW178909   8.937   5.438  10.212  0.5423 -0.4151 -0.2797
25137SOL    HW278910   8.920   5.477  10.067  1.3087 -0.5682 -0.4137
25138SOL     OW78911   3.658   0.226   1.722  0.7079 -0.5588  0.2636
25138SOL    HW178912   3.583   0.286   1.725  1.4105  0.3038  1.1077
25138SOL    HW278913   3.618   0.139   1.729 -0.1986 -0.0854  1.4278
25139SOL     OW78914   5.735   4.736   8.322  0.0824 -0.1879 -0.0606
25139SOL    HW178915   5.790   4.665   8.287  0.8878 -0.0536  0.8750
25139SOL    HW278916   5.791   4.780   8.386 -1.2502 -0.2821  1.2180
25140SOL     OW78917   9.522   8.410   5.819  0.4426  0.8731 -0.0094
25140SOL    HW178918   9.561   8.446   5.740 -1.8229  1.7215 -0.8196
25140SOL    HW278919   9.555   8.465   5.890  0.1113  2.0566 -0.7547
25141SOL     OW78920   6.866   4.633   8.269 -0.4134  0.1519 -0.2541
25141SOL    HW178921   6.935   4.598   8.324  0.2553  2.5702  0.5569
25141SOL    HW278922   6.815   4.689   8.327 -0.2672  2.0245 -1.8418
25142SOL     OW78923  10.052   4.963   5.836 -0.2868 -0.4215 -0.2733
25142SOL    HW178924  10.092   4.883   5.801  0.3262  0.9996 -3.1415
25142SOL    HW278925   9.972   4.973   5.785 -1.5502 -0.3427  1.6384
25143SOL     OW78926   7.989   6.779   9.171 -0.5342 -0.4285 -0.1265
25143SOL    HW178927   8.065   6.740   9.128 -1.4789 -0.5727 -1.7391
25143SOL    HW278928   7.988   6.870   9.141  0.1008  0.1323  1.4587
25144SOL     OW78929   1.677   6.213   1.974 -0.0406  0.6070  0.1816
25144SOL    HW178930   1.636   6.295   2.000  1.7484  1.7889 -0.5694
25144SOL    HW278931   1.706   6.227   1.884 -1.4999 -1.6065 -0.7329
25145SOL     OW78932  10.711   0.044   2.198 -0.1132  0.1062 -0.4325
25145SOL    HW178933  10.690   0.067   2.108  0.5537  1.3288 -0.2850
25145SOL    HW278934  10.664   0.108   2.251  1.3099  0.8273  0.0047
25146SOL     OW78935   0.234   1.718   7.855  0.2311 -0.4026  0.4091
25146SOL    HW178936   0.310   1.726   7.797  0.3552 -0.4466  0.5648
25146SOL    HW278937   0.194   1.635   7.830 -1.6256  1.0561 -1.8852
25147SOL     OW78938   3.108   9.960   0.925 -0.2972  0.7698  0.0859
25147SOL    HW178939   3.060  10.030   0.969  0.3088  1.4559 -0.3121
25147SOL    HW278940   3.198   9.970   0.954  0.0607  1.0534 -1.0556
25148SOL     OW78941   9.279   7.162   1.225  0.6952  0.1416  0.2415
25148SOL    HW178942   9.364   7.150   1.267  0.4652  1.6422  1.2307
25148SOL    HW278943   9.220   7.104   1.273  1.3636 -1.9487 -1.3303
25149SOL     OW78944   0.689   1.657   4.815 -0.0300 -0.1484 -0.2793
25149SOL    HW178945   0.625   1.728   4.821  1.3454  1.0017  3.1555
25149SOL    HW278946   0.636   1.577   4.816 -1.5066  0.7603 -1.3574
25150SOL     OW78947   3.287   5.080  10.571 -0.3983  0.4792  0.0098
25150SOL    HW178948   3.227   5.027  10.623 -1.0602  1.0016 -0.2087
25150SOL    HW278949   3.252   5.169  10.576  0.4316  0.8185 -0.0141
25151SOL     OW78950   7.081   6.922   6.459  0.1803  0.0827 -0.7052
25151SOL    HW178951   7.148   6.912   6.392 -1.6472 -0.4072 -2.5400
25151SOL    HW278952   7.034   6.839   6.459  0.0767  0.0959  1.1609
25152SOL     OW78953   4.554  10.711   2.738 -0.0558  0.6590  0.0392
25152SOL    HW178954   4.522  10.769   2.669 -0.4928  2.5221  1.7155
25152SOL    HW278955   4.605  10.768   2.795  0.1501 -0.7922  1.3752
25153SOL     OW78956   2.508   8.230   6.107 -0.2039 -0.3342 -0.4765
25153SOL    HW178957   2.592   8.199   6.075  0.1524 -0.6443  0.7075
25153SOL    HW278958   2.520   8.240   6.201 -1.4313 -0.1666 -0.3151
25154SOL     OW78959   4.224   1.501   7.813 -0.3615 -0.3734  0.3454
25154SOL    HW178960   4.245   1.593   7.795 -0.9133 -0.2393  0.3677
25154SOL    HW278961   4.209   1.498   7.907  1.1047 -0.7899  0.5938
25155SOL     OW78962   3.432   8.697   5.666  0.0813 -0.2310  0.1567
25155SOL    HW178963   3.350   8.715   5.619 -0.5071 -1.6999  0.5789
25155SOL    HW278964   3.500   8.721   5.603 -0.6634  0.2447 -0.5043
25156SOL     OW78965  10.861   3.644   5.929  0.0126  0.0710  0.0651
25156SOL    HW178966  10.784   3.614   5.978 -0.8490  1.6029 -0.2793
25156SOL    HW278967  10.825   3.682   5.849  1.3299 -1.3537 -1.2741
25157SOL     OW78968   5.637   4.306   5.294  0.3259  0.5446 -0.0422
25157SOL    HW178969   5.722   4.343   5.272 -0.2484  1.7316 -0.3705
25157SOL    HW278970   5.592   4.376   5.341 -0.6347  0.1090 -0.2810
25158SOL     OW78971   1.835   0.259   1.069  0.3021  0.0017  0.2994
25158SOL    HW178972   1.896   0.189   1.091 -1.3346 -1.7391 -0.4064
25158SOL    HW278973   1.830   0.258   0.973 -0.4971  0.3788  0.3247
25159SOL     OW78974   9.083   9.399   2.847  0.0178 -0.0471 -0.1982
25159SOL    HW178975   9.166   9.446   2.857 -0.7195  1.8788 -2.2936
25159SOL    HW278976   9.033   9.422   2.925  0.1578  1.7122 -0.5861
25160SOL     OW78977   6.467   0.119   4.395  0.3538 -0.1877  0.2604
25160SOL    HW178978   6.471   0.213   4.378  0.6147  0.1180  1.8728
25160SOL    HW278979   6.537   0.102   4.457  1.0998 -1.6915 -0.9118
25161SOL     OW78980   8.122   0.195   5.415 -0.9353 -0.4732  0.5122
25161SOL    HW178981   8.177   0.273   5.426 -1.0043 -0.0723 -1.5380
25161SOL    HW278982   8.058   0.221   5.349 -0.3738 -2.5377 -0.9459
25162SOL     OW78983   1.774   2.002   9.409 -0.1125 -0.1402 -0.5363
25162SOL    HW178984   1.681   2.020   9.424 -0.1459  2.1801 -2.8412
25162SOL    HW278985   1.818   2.085   9.430  1.1279 -0.4612 -1.7341
25163SOL     OW78986   0.754   2.046   1.311  0.2357 -0.3659 -0.1693
25163SOL    HW178987   0.821   2.018   1.249  0.9284  1.1438 -0.1346
25163SOL    HW278988   0.792   2.031   1.397 -0.3089 -1.4551 -0.0994
25164SOL     OW78989   8.705   5.077  10.776 -0.4959 -0.3102 -0.2786
25164SOL    HW178990   8.785   5.119  10.809 -1.3805  1.2886 -0.0763
25164SOL    HW278991   8.636   5.106  10.837 -1.0451 -2.7493  0.3599
25165SOL     OW78992   2.852   0.421   7.785  0.3119 -0.2881 -0.7953
25165SOL    HW178993   2.851   0.329   7.760 -2.8206 -0.4060 -0.5505
25165SOL    HW278994   2.810   0.424   7.871  0.2762  1.3913 -0.8228
25166SOL     OW78995   0.436   6.444   0.681  0.6876  0.6583 -0.1734
25166SOL    HW178996   0.468   6.376   0.622  0.9274 -0.1067  0.8299
25166SOL    HW278997   0.515   6.491   0.709  0.6392  0.6164  0.0341
25167SOL     OW78998   9.210   1.677   2.459 -0.2961  0.1814 -0.2424
25167SOL    HW178999   9.283   1.642   2.408  0.3267  0.6717  0.3129
25167SOL    HW279000   9.148   1.709   2.392  1.3069  2.4787 -0.7372
25168SOL     OW79001   5.774   7.453   2.411  0.0085 -0.3137 -0.4184
25168SOL    HW179002   5.686   7.421   2.392 -0.0238 -1.1635  0.9831
25168SOL    HW279003   5.830   7.375   2.402  0.2335 -0.3473  1.0383
25169SOL     OW79004   8.935   8.864   1.370  0.2526  0.1174 -0.3259
25169SOL    HW179005   9.002   8.867   1.302 -1.8771  1.4663 -2.5133
25169SOL    HW279006   8.933   8.953   1.405 -0.1450 -0.0172 -0.0044
25170SOL     OW79007   0.799   7.158   0.202 -0.4718 -0.5106  0.4265
25170SOL    HW179008   0.708   7.169   0.230 -0.4131  0.9110  0.1286
25170SOL    HW279009   0.812   7.224   0.134  1.0132 -0.1225  1.0392
25171SOL     OW79010   8.370   1.818   4.644 -0.6277  0.0548  0.3183
25171SOL    HW179011   8.448   1.774   4.612 -0.8836 -0.2495  0.1014
25171SOL    HW279012   8.346   1.879   4.574  0.0761  1.0009  0.8724
25172SOL     OW79013   5.967  10.178   2.040 -0.2469 -0.2690 -0.2498
25172SOL    HW179014   5.886  10.199   1.994 -0.0895  1.4802  0.1771
25172SOL    HW279015   5.942  10.169   2.132  0.0922  0.8017 -0.0387
25173SOL     OW79016   2.164   7.745   7.812 -0.1235  0.2164  0.2580
25173SOL    HW179017   2.076   7.715   7.790 -0.1707  0.6612 -0.1815
25173SOL    HW279018   2.192   7.688   7.884 -0.1565 -0.9450 -0.6230
25174SOL     OW79019   9.073   0.835   8.394  0.0572  0.1921 -0.0412
25174SOL    HW179020   9.032   0.749   8.388 -0.3044  0.1798  1.8508
25174SOL    HW279021   9.002   0.893   8.420  0.0379  1.3414 -2.4293
25175SOL     OW79022   8.787   3.154   3.475  0.4341 -0.0983  0.1185
25175SOL    HW179023   8.815   3.116   3.391  3.8418  0.2330  0.9622
25175SOL    HW279024   8.857   3.130   3.536 -0.5982  1.9729  2.2377
25176SOL     OW79025   5.934   6.089   5.836 -0.7746  0.1295  0.7253
25176SOL    HW179026   6.001   6.146   5.875 -1.6103  1.3510  0.4418
25176SOL    HW279027   5.872   6.072   5.907 -0.9852  0.2971  0.5828
25177SOL     OW79028  10.884   0.275   0.366  0.0541 -0.1533  0.3524
25177SOL    HW179029  10.883   0.355   0.418  0.6810  0.3289 -0.3594
25177SOL    HW279030  10.888   0.204   0.431  0.8313  0.4349  0.9704
25178SOL     OW79031   3.427   0.117   9.114 -0.2479  0.3606 -0.3685
25178SOL    HW179032   3.499   0.078   9.163 -0.5793  0.1078 -0.0771
25178SOL    HW279033   3.358   0.130   9.179 -1.5265 -1.9992 -1.1402
25179SOL     OW79034   4.178   2.767   4.043  0.1347 -0.6386 -0.0015
25179SOL    HW179035   4.266   2.801   4.028 -0.8230  1.9806 -0.1800
25179SOL    HW279036   4.138   2.767   3.956 -0.6913  0.2481  0.3681
25180SOL     OW79037   4.345   6.112   9.390 -0.0852  0.1904 -0.8396
25180SOL    HW179038   4.335   6.178   9.458 -0.5392 -1.0819  0.3603
25180SOL    HW279039   4.406   6.151   9.328  0.4176  1.3405  0.3382
25181SOL     OW79040   6.574   7.357   9.516 -0.1453 -0.4486  0.0652
25181SOL    HW179041   6.502   7.421   9.518 -0.0920 -0.3888  1.3909
25181SOL    HW279042   6.642   7.398   9.463 -0.2827  0.4192  0.5411
25182SOL     OW79043   1.517   9.081  10.820  0.2574  0.4083  0.0622
25182SOL    HW179044   1.503   9.038  10.735 -0.2583 -1.2245  0.9294
25182SOL    HW279045   1.607   9.060  10.843 -0.3054 -1.1781  0.9650
25183SOL     OW79046   7.145   5.931   4.192  0.4117 -0.2915 -0.1396
25183SOL    HW179047   7.137   6.023   4.217 -1.1729 -0.6153  0.6853
25183SOL    HW279048   7.094   5.924   4.111 -0.0546 -0.5619  0.1710
25184SOL     OW79049   4.532   7.619   4.557  0.1716  0.3056  0.2182
25184SOL    HW179050   4.439   7.599   4.547  0.5388 -0.5888 -2.1852
25184SOL    HW279051   4.560   7.567   4.632 -0.9574 -0.5792  0.0559
25185SOL     OW79052   0.562   1.094   7.322 -0.1584 -0.0156  0.3678
25185SOL    HW179053   0.599   1.033   7.257 -1.5287  0.7048 -1.1713
25185SOL    HW279054   0.469   1.071   7.326 -0.7420  1.9493 -0.3210
25186SOL     OW79055   1.255   7.359   7.845 -0.4829  0.2490  0.1124
25186SOL    HW179056   1.241   7.413   7.767  2.2972 -1.5517 -1.8075
25186SOL    HW279057   1.187   7.292   7.839  0.6555 -0.8190 -1.7494
25187SOL     OW79058   0.190   7.957   9.706  0.4699 -0.2081 -0.4806
25187SOL    HW179059   0.284   7.946   9.720  0.1056 -0.9620  1.8234
25187SOL    HW279060   0.163   7.881   9.655  0.9930 -0.3021 -0.6196
25188SOL     OW79061   2.416   7.870   4.499 -0.4954  0.2561 -0.3027
25188SOL    HW179062   2.348   7.936   4.511 -0.4128  0.3569 -0.3882
25188SOL    HW279063   2.401   7.807   4.570 -0.1965  0.6905  0.1595
25189SOL     OW79064   9.014   1.125   6.740  0.0433  0.6593 -0.5585
25189SOL    HW179065   9.041   1.207   6.781 -0.8768  0.3381  0.7415
25189SOL    HW279066   9.079   1.061   6.769 -0.3957  0.5101  0.1064
25190SOL     OW79067   8.014   9.830   7.344  0.2893  0.6337  0.7235
25190SOL    HW179068   8.052   9.800   7.426  1.7602  0.6871  0.0933
25190SOL    HW279069   7.982   9.918   7.363 -0.4084  0.2306  1.5138
25191SOL     OW79070   6.294   2.720   7.888  0.1942  0.2152 -0.8636
25191SOL    HW179071   6.318   2.655   7.954 -0.4646  0.4882 -0.3441
25191SOL    HW279072   6.230   2.776   7.932 -2.9094 -1.6030 -2.6890
25192SOL     OW79073  10.533   3.041   2.905  0.0186 -0.3098 -0.2207
25192SOL    HW179074  10.544   3.000   2.991 -2.3150  0.3736  0.4769
25192SOL    HW279075  10.518   3.134   2.925  1.0694  0.1669 -1.5050
25193SOL     OW79076   6.419   8.392   7.474 -0.3597  0.6495  0.3308
25193SOL    HW179077   6.492   8.384   7.413 -0.0707  2.4194  0.3961
25193SOL    HW279078   6.341   8.380   7.420 -0.0904 -2.7827  0.5072
25194SOL     OW79079   1.428  10.025   6.203  0.0195 -0.1710  0.2546
25194SOL    HW179080   1.453  10.000   6.291 -0.3671  0.1256  0.4546
25194SOL    HW279081   1.369   9.956   6.174  0.6035 -0.5711  0.0022
25195SOL     OW79082   2.129   0.782   1.122 -0.0592 -0.4025 -0.0906
25195SOL    HW179083   2.169   0.860   1.161 -1.9845  0.9927 -0.7775
25195SOL    HW279084   2.173   0.771   1.038 -0.1137  0.2747 -0.2149
25196SOL     OW79085   7.281   9.390   7.870 -0.0838  0.1341  0.4201
25196SOL    HW179086   7.314   9.470   7.910 -0.4060 -0.4485  1.9187
25196SOL    HW279087   7.239   9.343   7.942 -1.4684 -0.5616 -0.7949
25197SOL     OW79088  10.798   4.941   2.519 -0.4695 -0.0072 -0.2515
25197SOL    HW179089  10.891   4.944   2.541 -0.5905 -0.8723  0.4132
25197SOL    HW279090  10.796   4.910   2.428 -0.1034  0.5399 -0.4573
25198SOL     OW79091   0.627   6.879   2.416 -0.8365 -0.2512  0.7330
25198SOL    HW179092   0.578   6.928   2.349 -0.2494 -0.2597  0.2905
25198SOL    HW279093   0.616   6.931   2.496  1.2939  1.6872 -0.1040
25199SOL     OW79094   7.017   8.915   2.210  0.0969 -0.1653  0.3012
25199SOL    HW179095   6.935   8.872   2.186  0.1295  0.0636 -0.2454
25199SOL    HW279096   7.081   8.881   2.147  0.2838  0.1262  0.3306
25200SOL     OW79097   3.052   5.299   0.377 -0.5869 -0.9104  0.3197
25200SOL    HW179098   3.137   5.264   0.403 -1.0347 -1.7044  0.7413
25200SOL    HW279099   2.995   5.283   0.452 -0.9883  0.1053  0.2572
25201SOL     OW79100   2.712   0.590   6.184 -0.1866  1.0409 -0.0804
25201SOL    HW179101   2.657   0.585   6.262  0.4795  0.6067  0.3700
25201SOL    HW279102   2.678   0.523   6.125  0.1449  0.4516  0.3890
25202SOL     OW79103   4.037   7.610   8.524 -0.2821  0.0082  0.0220
25202SOL    HW179104   4.030   7.553   8.600 -0.3793  1.1594  0.8977
25202SOL    HW279105   4.048   7.698   8.560  1.3324  0.3944 -1.2941
25203SOL     OW79106   6.902   7.736   0.870  0.2828  0.0600  0.1165
25203SOL    HW179107   6.815   7.764   0.841  0.6632  1.2257  0.0422
25203SOL    HW279108   6.909   7.645   0.841 -0.0942  0.5867 -1.8112
25204SOL     OW79109   2.780   3.278   5.538 -0.0038  0.3273 -0.0671
25204SOL    HW179110   2.788   3.247   5.628 -2.1941 -0.3029 -0.0178
25204SOL    HW279111   2.843   3.350   5.532  1.7289 -0.9772  1.2865
25205SOL     OW79112   8.921   4.657   6.297 -0.3113  0.5347  0.0346
25205SOL    HW179113   8.945   4.709   6.220  2.2779 -0.2801  0.1887
25205SOL    HW279114   8.984   4.683   6.364 -0.0569 -1.5026  0.6556
25206SOL     OW79115  10.308   4.818   6.691 -0.4769  0.2155 -0.1104
25206SOL    HW179116  10.299   4.723   6.684 -0.8907  0.2833 -0.5339
25206SOL    HW279117  10.362   4.843   6.616 -0.1567  0.2902  0.1401
25207SOL     OW79118   5.426   4.901   4.019 -0.2547  0.2622  0.0571
25207SOL    HW179119   5.406   4.814   4.053 -1.5139 -0.0777 -1.4328
25207SOL    HW279120   5.348   4.952   4.036 -0.6401  0.2808 -1.5442
25208SOL     OW79121   3.119   0.225   0.850 -0.7794  0.4693 -0.2132
25208SOL    HW179122   3.095   0.297   0.909 -0.0775  1.6099 -1.2755
25208SOL    HW279123   3.161   0.161   0.907  2.0901  2.5790  0.3175
25209SOL     OW79124   4.813   5.175   8.972  0.5925  0.8155  0.2075
25209SOL    HW179125   4.799   5.105   8.909  0.4029  0.8898  0.1666
25209SOL    HW279126   4.728   5.219   8.978  0.0959 -0.2847  1.8551
25210SOL     OW79127   9.582   9.531   8.871 -0.0409  0.0185 -0.0946
25210SOL    HW179128   9.541   9.458   8.824  0.6976 -0.7591  0.4474
25210SOL    HW279129   9.515   9.600   8.871  0.0275  0.1932 -2.5788
25211SOL     OW79130   7.980   3.661   4.117  0.3212 -0.2480 -0.1623
25211SOL    HW179131   7.971   3.745   4.162 -1.3943 -0.7758  0.5517
25211SOL    HW279132   7.990   3.684   4.024  0.5460  0.7391  0.1004
25212SOL     OW79133   6.171   2.352   3.196  0.0269 -0.3034  0.6988
25212SOL    HW179134   6.143   2.442   3.211 -0.3743 -0.4502  0.8618
25212SOL    HW279135   6.228   2.331   3.270  2.4203  0.7180 -0.7403
25213SOL     OW79136   0.408   7.593   2.344  0.2519  0.3638 -0.6029
25213SOL    HW179137   0.445   7.541   2.272 -0.8450  0.3845 -1.2033
25213SOL    HW279138   0.448   7.556   2.423  0.6035 -0.4221 -1.1308
25214SOL     OW79139   6.213   0.674   3.146 -0.0265 -0.1376  0.2966
25214SOL    HW179140   6.202   0.599   3.088 -0.0565  0.9949 -1.2568
25214SOL    HW279141   6.124   0.706   3.161 -0.0052 -0.3374  0.8461
25215SOL     OW79142   7.380   5.301   1.408 -0.5239 -0.2954  0.0165
25215SOL    HW179143   7.430   5.283   1.329  2.1755  0.5748  1.3971
25215SOL    HW279144   7.318   5.368   1.383  0.2776 -0.0392 -1.3649
25216SOL     OW79145   2.580   5.215  10.137  0.1561  0.2615  0.4497
25216SOL    HW179146   2.645   5.216  10.067 -0.0025 -2.3385  0.1722
25216SOL    HW279147   2.496   5.213  10.091  0.0603 -2.2873  0.5708
25217SOL     OW79148  10.635   5.045   2.247  0.3782  0.3740 -0.2898
25217SOL    HW179149  10.633   5.089   2.332 -0.3159  0.5038 -0.3639
25217SOL    HW279150  10.626   4.952   2.268  0.5391  0.3770 -0.2043
25218SOL     OW79151   9.228   2.564   9.458  0.5211 -0.2311  0.4899
25218SOL    HW179152   9.297   2.524   9.511  0.8243  0.9118  0.9817
25218SOL    HW279153   9.201   2.494   9.398  1.0255 -1.1665  1.3173
25219SOL     OW79154   6.136   0.804   6.590 -0.0101  0.0458 -0.1975
25219SOL    HW179155   6.170   0.812   6.679 -0.6122 -0.6775  0.1089
25219SOL    HW279156   6.088   0.721   6.590  0.4080 -0.2209 -1.3351
25220SOL     OW79157   8.347   7.710   4.663  0.5740 -0.6474  0.7744
25220SOL    HW179158   8.351   7.744   4.752 -1.0561 -0.5445  0.8391
25220SOL    HW279159   8.399   7.630   4.665  0.9054 -0.4192  1.6982
25221SOL     OW79160   3.978   6.704   5.702  0.1087 -0.4582  0.1629
25221SOL    HW179161   3.966   6.618   5.743 -0.5856 -0.4033  0.0775
25221SOL    HW279162   3.981   6.765   5.775 -1.0208 -0.3731  0.1565
25222SOL     OW79163   7.255   5.792   6.717 -0.1625 -0.0262 -0.3128
25222SOL    HW179164   7.231   5.791   6.625 -1.2159  1.3450 -0.0840
25222SOL    HW279165   7.319   5.863   6.725  0.9024 -0.9643 -0.1808
25223SOL     OW79166   1.123   2.484   4.601 -0.1676 -0.1432 -0.2260
25223SOL    HW179167   1.154   2.419   4.663 -3.1659 -0.8916  0.6307
25223SOL    HW279168   1.129   2.567   4.648 -0.4127 -0.4114  0.2826
25224SOL     OW79169   9.988   0.536   2.519 -0.3721 -0.1164 -0.0890
25224SOL    HW179170   9.943   0.573   2.595  0.5940 -0.4883  0.7031
25224SOL    HW279171   9.952   0.448   2.510  0.9092 -0.8262  1.2335
25225SOL     OW79172   5.264   8.835  10.952  0.2310  0.2488 -0.0427
25225SOL    HW179173   5.326   8.905  10.934  1.1638 -0.5211  0.0964
25225SOL    HW279174   5.298   8.792  11.031 -0.6683  0.0327  0.2377
25226SOL     OW79175   7.742   5.351   8.888  0.2060 -0.4971  0.6029
25226SOL    HW179176   7.827   5.307   8.881 -0.2982 -1.6935  1.6339
25226SOL    HW279177   7.704   5.343   8.801  0.0509 -2.3427  0.7997
25227SOL     OW79178   7.578   4.787   0.179  0.0399 -0.1186  0.3629
25227SOL    HW179179   7.555   4.879   0.163 -1.0579 -0.1110  1.6912
25227SOL    HW279180   7.594   4.750   0.093  1.4240  1.5404 -0.1424
25228SOL     OW79181   4.160   9.306   9.304 -0.4372  0.1019 -0.2002
25228SOL    HW179182   4.166   9.375   9.370  0.6189  1.1136 -1.3004
25228SOL    HW279183   4.246   9.306   9.261 -0.4654 -1.7863 -0.3724
25229SOL     OW79184   5.743   1.122   1.657 -0.3846 -0.3247  0.1185
25229SOL    HW179185   5.829   1.118   1.615 -0.5455  1.0770 -0.4017
25229SOL    HW279186   5.762   1.137   1.750 -0.0527 -0.5421  0.0853
25230SOL     OW79187   7.855   5.360   3.818  0.1818 -1.1550  0.0035
25230SOL    HW179188   7.906   5.298   3.870 -0.4000 -0.7794  1.0425
25230SOL    HW279189   7.921   5.413   3.774  0.7476 -0.1757  1.9272
25231SOL     OW79190   8.660   1.670   5.133 -0.4368  0.1529 -0.0882
25231SOL    HW179191   8.622   1.674   5.045 -2.4253  0.3821  0.7325
25231SOL    HW279192   8.613   1.600   5.176 -2.1196  2.3511  1.9152
25232SOL     OW79193   7.042   9.613   3.505  0.1821 -0.3661 -0.0835
25232SOL    HW179194   7.123   9.659   3.483  0.3203  0.1633  1.4646
25232SOL    HW279195   7.028   9.554   3.431  1.1665  0.6019 -1.0782
25233SOL     OW79196   5.074   0.219   6.978 -0.1609 -0.0806 -0.4543
25233SOL    HW179197   5.137   0.200   7.047 -3.4438 -1.4938  2.4709
25233SOL    HW279198   5.053   0.312   6.990  0.8904  0.2569 -1.0980
25234SOL     OW79199   3.394   4.518   7.199  0.4050  0.1051 -0.6281
25234SOL    HW179200   3.394   4.468   7.118 -1.5380 -1.2182  0.0963
25234SOL    HW279201   3.335   4.591   7.181 -0.0580 -0.2109 -0.4275
25235SOL     OW79202   4.614   4.774   8.205 -0.6672  0.2825  0.1147
25235SOL    HW179203   4.617   4.814   8.118  1.7984 -0.0395 -0.0032
25235SOL    HW279204   4.635   4.682   8.191 -0.7951  0.1087  0.9967
25236SOL     OW79205   5.017   4.838   5.053  0.1968  0.1602 -0.4198
25236SOL    HW179206   4.930   4.802   5.068  0.6198 -0.5587  0.3916
25236SOL    HW279207   5.021   4.914   5.111  1.4277 -1.9792  2.5544
25237SOL     OW79208   7.596   5.770   6.246 -0.2252 -0.3220 -0.3605
25237SOL    HW179209   7.679   5.811   6.221 -0.4825 -0.3991 -1.3511
25237SOL    HW279210   7.551   5.836   6.298  0.7717 -0.5456  0.8505
25238SOL     OW79211   2.038   7.032   9.973  0.4794  0.2780  0.0730
25238SOL    HW179212   2.053   6.976   9.897  0.6252 -0.5799  0.7182
25238SOL    HW279213   2.104   7.004  10.037 -1.8323 -1.5623  1.8884
25239SOL     OW79214   7.365   5.493   5.823  0.2951  0.4818 -0.3978
25239SOL    HW179215   7.420   5.465   5.896  0.2981 -0.0789 -0.6086
25239SOL    HW279216   7.276   5.476   5.852  0.2089  1.5998  0.0312
25240SOL     OW79217   6.354   9.761  11.006  0.1445  0.1099  0.4953
25240SOL    HW179218   6.300   9.682  11.010  1.0970 -0.6109 -0.2423
25240SOL    HW279219   6.339   9.805  11.089 -1.8253  0.1209  0.1914
25241SOL     OW79220   4.695   0.541  10.966 -0.0444  0.2366  0.2013
25241SOL    HW179221   4.639   0.512  11.038 -1.2933 -0.1502 -0.8792
25241SOL    HW279222   4.738   0.461  10.935 -2.4535 -0.4146 -1.8967
25242SOL     OW79223   4.240   0.672   3.375  0.0815 -0.7239 -0.0941
25242SOL    HW179224   4.187   0.670   3.295  0.2420 -1.6085 -0.1908
25242SOL    HW279225   4.301   0.744   3.361 -1.3004  0.5489  0.1637
25243SOL     OW79226   6.587  10.096   8.859 -0.6471  0.3736 -0.3137
25243SOL    HW179227   6.640  10.099   8.939 -0.1198 -0.5196 -0.6112
25243SOL    HW279228   6.499  10.075   8.888 -1.1116  2.7946  0.2899
25244SOL     OW79229   8.480   4.870   0.156  0.2847 -0.2135 -0.2593
25244SOL    HW179230   8.440   4.914   0.231 -0.8303  1.3277 -1.6972
25244SOL    HW279231   8.426   4.792   0.142 -1.4416  1.0914 -1.2861
25245SOL     OW79232   6.357   5.246   8.442  0.2135 -0.2951  0.0156
25245SOL    HW179233   6.297   5.181   8.479 -0.1397 -0.1725 -0.3383
25245SOL    HW279234   6.444   5.216   8.469 -0.1052  0.6594  2.3412
25246SOL     OW79235   2.299   5.360   0.532 -0.6030  0.1883  0.0776
25246SOL    HW179236   2.210   5.369   0.499 -1.2393 -0.6921  1.4671
25246SOL    HW279237   2.355   5.368   0.455 -1.9231  0.0075 -0.9148
25247SOL     OW79238  10.038   6.203   0.785 -0.0849  0.4103 -0.1655
25247SOL    HW179239  10.060   6.213   0.877 -0.4759  0.5086 -0.0767
25247SOL    HW279240  10.045   6.292   0.749  0.5008  0.2979 -0.3334
25248SOL     OW79241   9.939   2.756   7.765  0.6643  0.4316  0.2925
25248SOL    HW179242   9.920   2.744   7.672 -0.1174 -0.4531  0.5525
25248SOL    HW279243   9.989   2.838   7.769  1.0593  0.2661 -0.9405
25249SOL     OW79244  10.425   3.418   4.301  0.3436 -0.2676  0.2303
25249SOL    HW179245  10.426   3.420   4.397  0.8936  0.5928  0.2124
25249SOL    HW279246  10.449   3.328   4.279  1.7570 -0.0766  0.8967
25250SOL     OW79247   4.000   3.537   7.246  0.1297  0.0694  0.3077
25250SOL    HW179248   3.938   3.603   7.277 -0.7555  0.2899 -1.7523
25250SOL    HW279249   4.069   3.589   7.203 -0.3963 -0.2809 -1.0185
25251SOL     OW79250   0.521   6.318   0.971 -0.2039 -0.5744 -1.0665
25251SOL    HW179251   0.604   6.364   0.981  0.1568 -1.0548 -1.7224
25251SOL    HW279252   0.546   6.227   0.954 -0.8990 -1.0944  0.4879
25252SOL     OW79253  10.701   5.518   7.070 -0.2905  0.2797  0.2867
25252SOL    HW179254  10.613   5.543   7.098 -0.3171 -0.0384  0.4931
25252SOL    HW279255  10.760   5.575   7.120 -0.3175 -0.5797  1.3305
25253SOL     OW79256  10.257   1.386   3.032  0.5127  0.0763  0.3560
25253SOL    HW179257  10.292   1.420   2.949  0.9025  2.1046  1.2979
25253SOL    HW279258  10.168   1.360   3.011  0.9538 -0.4650 -0.9434
25254SOL     OW79259  10.817   9.824  10.040 -0.3695  0.0565  0.6373
25254SOL    HW179260  10.868   9.743  10.039  1.5838  1.1546  2.3201
25254SOL    HW279261  10.816   9.854   9.950  0.4731 -0.8828  0.3037
25255SOL     OW79262   2.938   0.289   1.575  0.6798 -0.3493 -0.1748
25255SOL    HW179263   2.936   0.297   1.671 -1.0566  1.7578 -0.2932
25255SOL    HW279264   2.847   0.270   1.551  0.5235  1.8245 -1.5238
25256SOL     OW79265   9.316  10.900   0.674 -0.3230  0.1070  0.0522
25256SOL    HW179266   9.287  10.816   0.709  1.0507 -0.2931  0.2733
25256SOL    HW279267   9.370  10.878   0.598  0.7244  0.7304  0.5873
25257SOL     OW79268   7.424   4.036   5.251 -0.0910  0.2336 -0.3821
25257SOL    HW179269   7.490   4.103   5.233 -1.2861  1.5406 -0.0635
25257SOL    HW279270   7.431   4.019   5.345 -0.1840  0.3682 -0.3496
25258SOL     OW79271   2.108   5.987   2.802  0.5122  0.5460 -0.3826
25258SOL    HW179272   2.105   5.893   2.820 -1.5889  0.6030 -0.1891
25258SOL    HW279273   2.196   6.002   2.766  2.6675 -0.6756  3.7363
25259SOL     OW79274   5.704   6.274   8.308 -0.3894  0.0852 -0.3050
25259SOL    HW179275   5.724   6.214   8.236  0.6977 -1.2711  1.0476
25259SOL    HW279276   5.691   6.359   8.266 -0.8839 -0.8639 -2.1892
25260SOL     OW79277   3.330   2.573   0.534  0.5450  0.2440  0.2965
25260SOL    HW179278   3.276   2.611   0.464 -0.5940 -1.2389  0.3134
25260SOL    HW279279   3.339   2.643   0.598  1.7274  1.6864 -1.3590
25261SOL     OW79280   3.879   6.143  10.111 -0.3508 -0.2665 -0.2729
25261SOL    HW179281   3.824   6.064  10.103  0.6670 -1.2617  1.7798
25261SOL    HW279282   3.867   6.171  10.202  1.6881  0.1095 -0.0861
25262SOL     OW79283   2.133   5.175   3.071  0.3113 -0.9487  0.2475
25262SOL    HW179284   2.048   5.188   3.112  1.1841 -0.6169  2.1135
25262SOL    HW279285   2.156   5.084   3.090  1.0089 -0.6067  1.1255
25263SOL     OW79286   7.864   6.220   6.544 -0.3181  0.4673  0.2797
25263SOL    HW179287   7.880   6.313   6.526  0.5030  0.1649 -0.5978
25263SOL    HW279288   7.929   6.174   6.492 -1.2586 -0.6443  0.0624
25264SOL     OW79289   3.757   9.659   9.287  0.2043 -0.6530  0.6296
25264SOL    HW179290   3.806   9.736   9.256  0.0823 -1.4148 -1.6191
25264SOL    HW279291   3.759   9.598   9.214 -0.8671 -2.2804  1.8786
25265SOL     OW79292   2.127   0.761   0.844 -0.3002  0.0744  0.3637
25265SOL    HW179293   2.108   0.847   0.881  0.9005  0.7624 -0.5297
25265SOL    HW279294   2.200   0.777   0.784 -0.7533 -1.3895 -0.6126
25266SOL     OW79295   9.540   6.814   3.115  0.3316  0.1388 -0.1644
25266SOL    HW179296   9.548   6.797   3.021 -1.3148  0.0914 -0.3280
25266SOL    HW279297   9.586   6.742   3.157  0.6106 -0.1372 -0.9406
25267SOL     OW79298   5.156   1.662   2.314  1.2064 -0.2629 -0.0011
25267SOL    HW179299   5.239   1.674   2.360  2.0288 -0.7950 -1.3117
25267SOL    HW279300   5.124   1.751   2.299  0.3704 -0.0589  2.4848
25268SOL     OW79301   3.111   3.325   9.786 -0.6068  0.3368  0.3628
25268SOL    HW179302   3.101   3.232   9.803 -2.3642  0.4001 -0.0645
25268SOL    HW279303   3.109   3.333   9.691  1.6042  0.6549  0.3062
25269SOL     OW79304   6.817   0.238   1.321  0.1023 -0.0240  0.0052
25269SOL    HW179305   6.768   0.183   1.383 -0.7385  0.9803  0.2602
25269SOL    HW279306   6.908   0.211   1.332 -0.2716 -1.2579  0.2260
25270SOL     OW79307   6.900   7.463  10.156  0.5861 -0.1718 -0.4237
25270SOL    HW179308   6.887   7.538  10.098  2.4209 -0.3779 -1.1605
25270SOL    HW279309   6.933   7.394  10.099 -1.1820 -1.6396  0.2195
25271SOL     OW79310   6.451   8.717   1.321 -0.6941 -0.6625 -0.4460
25271SOL    HW179311   6.502   8.686   1.395  0.6567  1.1444 -0.5439
25271SOL    HW279312   6.440   8.640   1.265  0.8973 -1.3872  0.1803
25272SOL     OW79313   1.888   8.222  10.706 -0.3089 -0.4414 -0.5312
25272SOL    HW179314   1.801   8.184  10.694 -0.7901  0.2780  0.5799
25272SOL    HW279315   1.873   8.317  10.707  0.3914 -0.3265  0.3062
25273SOL     OW79316   9.605  10.948   0.189  0.2965  0.4105  0.0641
25273SOL    HW179317   9.539  10.983   0.130  0.5076  0.7745  0.0382
25273SOL    HW279318   9.680  11.007   0.178  0.6934 -0.1132 -0.0515
25274SOL     OW79319   3.744   5.038   5.496  0.0990 -0.0432  0.5925
25274SOL    HW179320   3.806   5.105   5.466  2.4851 -1.4898  1.9160
25274SOL    HW279321   3.746   4.971   5.428 -0.2955  0.0808  0.4605
25275SOL     OW79322   7.010   7.505   5.898 -0.0068 -0.4860  0.8024
25275SOL    HW179323   6.991   7.455   5.977  0.5203 -1.1456  0.5215
25275SOL    HW279324   6.985   7.446   5.826 -0.0604 -0.0672  0.4702
25276SOL     OW79325   8.178   5.082   6.992 -0.0917  0.2816  0.0631
25276SOL    HW179326   8.211   5.167   7.019  2.8619 -0.5233 -0.5429
25276SOL    HW279327   8.083   5.093   6.985 -0.3067  2.3813  3.8299
25277SOL     OW79328   6.888   2.738   0.093 -0.9942 -0.5576  0.0978
25277SOL    HW179329   6.857   2.726   0.003 -1.8751  0.3806  0.2612
25277SOL    HW279330   6.958   2.804   0.085 -0.9359 -0.6214  0.0790
25278SOL     OW79331   2.231   0.255   5.373  0.7251 -0.2130 -0.4883
25278SOL    HW179332   2.224   0.217   5.285 -0.8718 -0.6495 -0.2051
25278SOL    HW279333   2.320   0.234   5.401  0.5543 -2.0571 -1.1472
25279SOL     OW79334   2.177   6.674  10.473  0.2096  0.5502  0.1664
25279SOL    HW179335   2.115   6.653  10.404  0.9362  1.9863 -0.9728
25279SOL    HW279336   2.139   6.637  10.553 -1.7231  0.7740 -0.6246
25280SOL     OW79337   1.234   0.315   6.378  0.7770 -0.5244  0.4990
25280SOL    HW179338   1.294   0.296   6.305 -1.6267 -2.2600 -1.1697
25280SOL    HW279339   1.215   0.408   6.369  2.4589 -0.1432  0.5081
25281SOL     OW79340   4.510   7.522   2.979  0.3626 -0.3904 -0.4042
25281SOL    HW179341   4.554   7.457   2.924  0.6541  0.5163 -1.2674
25281SOL    HW279342   4.575   7.590   2.993  0.0116 -0.2004  0.3695
25282SOL     OW79343  10.703   2.497   2.887  0.1173 -0.2223 -0.3584
25282SOL    HW179344  10.733   2.556   2.957 -0.8201  1.3959 -1.2463
25282SOL    HW279345  10.677   2.417   2.932 -0.9815  0.9673  1.2471
25283SOL     OW79346   8.353   9.149   8.889  0.3351 -0.1555 -0.1371
25283SOL    HW179347   8.263   9.120   8.881  0.1442  0.0728  1.0496
25283SOL    HW279348   8.371   9.147   8.983  1.9484 -1.3605 -0.4277
25284SOL     OW79349   7.585   5.939   3.870  0.5683  0.1997 -0.3226
25284SOL    HW179350   7.657   5.931   3.933 -1.6109  2.6830  2.7807
25284SOL    HW279351   7.624   5.981   3.793  2.2058  2.9855  1.8825
25285SOL     OW79352   2.840   9.817   5.952  0.1547 -0.3266  0.2377
25285SOL    HW179353   2.883   9.750   6.006 -1.0107  0.0514  1.7026
25285SOL    HW279354   2.748   9.790   5.949  0.0266  0.1572 -0.8399
25286SOL     OW79355   8.220   9.551   0.779 -0.0976 -0.5908  0.0481
25286SOL    HW179356   8.257   9.598   0.854 -1.6836 -0.9298  1.0829
25286SOL    HW279357   8.296   9.531   0.724  0.8709  1.3882  0.5661
25287SOL     OW79358   8.888   6.895   8.103 -0.6474  0.1300 -0.4803
25287SOL    HW179359   8.958   6.834   8.079 -1.2451 -0.4365 -0.8160
25287SOL    HW279360   8.820   6.840   8.142 -1.1353  0.5984 -0.6548
25288SOL     OW79361   6.060   7.664   3.191  0.1401 -0.0707 -0.2622
25288SOL    HW179362   5.990   7.608   3.226  0.1109  1.5820  2.6043
25288SOL    HW279363   6.017   7.748   3.174  0.9096  0.1775 -1.0697
25289SOL     OW79364   9.558  10.996   3.408 -0.1852  0.0672  0.7699
25289SOL    HW179365   9.543  10.905   3.430 -0.7533 -0.4395 -1.4061
25289SOL    HW279366   9.521  11.006   3.320  0.5070  2.2093  0.6431
25290SOL     OW79367   9.148   0.927   9.243  0.0963 -0.0288 -0.2025
25290SOL    HW179368   9.239   0.951   9.225 -0.0886  0.4973 -0.4784
25290SOL    HW279369   9.151   0.835   9.268  0.7660  0.1134  0.2735
25291SOL     OW79370   3.647   4.959   0.576  0.0573 -0.2253  1.0049
25291SOL    HW179371   3.636   5.036   0.632 -0.4691 -0.1179  0.7616
25291SOL    HW279372   3.642   4.885   0.636 -0.9755 -0.1331  1.0513
25292SOL     OW79373   9.220   8.353   5.175 -0.1263 -0.7579 -0.2472
25292SOL    HW179374   9.143   8.353   5.117 -0.8904 -0.0078  0.7175
25292SOL    HW279375   9.226   8.263   5.206 -0.5521 -0.8595 -0.4449
25293SOL     OW79376   8.250   1.205   5.494 -0.3714  0.2104 -0.0082
25293SOL    HW179377   8.221   1.217   5.584  0.0017 -1.2904  0.3433
25293SOL    HW279378   8.343   1.182   5.501 -0.6067 -1.0381 -0.6809
25294SOL     OW79379   8.593   2.969   2.777 -0.2140  0.1622  0.0811
25294SOL    HW179380   8.673   2.997   2.821 -1.4505  0.5195  2.2234
25294SOL    HW279381   8.603   3.002   2.687  0.8988  2.4860  0.9679
25295SOL     OW79382  10.014   9.228   9.577 -0.4801 -0.0526  0.1631
25295SOL    HW179383  10.024   9.263   9.665 -1.8523  1.3359 -0.1842
25295SOL    HW279384   9.994   9.136   9.590 -0.6910  0.1372  1.3067
25296SOL     OW79385   5.647   3.228   6.803  0.0680 -0.0252 -0.6017
25296SOL    HW179386   5.621   3.146   6.845 -3.1021  1.2155  0.1614
25296SOL    HW279387   5.653   3.206   6.710 -4.2787 -0.6001 -0.9657
25297SOL     OW79388   3.228   9.039   1.427  0.8787  0.1883 -0.2632
25297SOL    HW179389   3.148   9.065   1.474  0.6778 -0.1091 -0.4362
25297SOL    HW279390   3.282   9.118   1.427 -0.7513  1.4959 -3.0248
25298SOL     OW79391   8.192   1.595   7.593  0.1947  0.1282 -0.2914
25298SOL    HW179392   8.240   1.543   7.657  0.2191  1.7148  1.0638
25298SOL    HW279393   8.100   1.586   7.619  0.1169  0.0628 -0.5868
25299SOL     OW79394  10.145   8.981  10.205  0.2288 -0.1993 -0.3715
25299SOL    HW179395  10.157   9.073  10.229  0.1299  0.4109 -2.5006
25299SOL    HW279396  10.230   8.941  10.223  0.1160  0.1590  1.0776
25300SOL     OW79397   0.784   0.656   5.693  0.3095 -0.4501 -0.2663
25300SOL    HW179398   0.736   0.725   5.648 -0.7419 -0.8310  0.2564
25300SOL    HW279399   0.793   0.687   5.783  1.0020 -0.4136 -0.3363
25301SOL     OW79400   4.401   4.638   3.944  0.2926  0.4708  0.3302
25301SOL    HW179401   4.490   4.613   3.918 -0.0329  0.2325 -0.5717
25301SOL    HW279402   4.347   4.563   3.920 -0.2682  0.9194  0.1784
25302SOL     OW79403   2.507   3.455   7.688 -0.2043  0.4758 -0.2859
25302SOL    HW179404   2.461   3.479   7.768 -1.3792 -1.7791 -0.2019
25302SOL    HW279405   2.589   3.416   7.718  0.5927  2.0205 -0.3388
25303SOL     OW79406   2.719   8.541   8.623  0.0624  0.0785  0.1249
25303SOL    HW179407   2.712   8.517   8.530 -0.0871 -0.2506  0.2193
25303SOL    HW279408   2.726   8.457   8.669  0.4252  0.2498  0.3880
25304SOL     OW79409   4.102   8.229   6.885  0.5271  0.4156 -0.0132
25304SOL    HW179410   4.035   8.166   6.857  1.4363 -0.3253 -0.5925
25304SOL    HW279411   4.087   8.306   6.831 -0.3729  0.5727  0.4464
25305SOL     OW79412   8.990   1.258   7.351  0.2844 -0.3462  0.6957
25305SOL    HW179413   8.990   1.346   7.389  1.4987  0.0928 -0.2257
25305SOL    HW279414   8.944   1.204   7.414 -2.2128  1.2927  0.4375
25306SOL     OW79415  10.423   5.150   0.980  0.7248  0.0523 -0.3148
25306SOL    HW179416  10.411   5.067   0.933  0.7525 -0.1934  0.1053
25306SOL    HW279417  10.504   5.186   0.945  1.8907 -1.1468  1.0041
25307SOL     OW79418  10.937   0.904   5.134  0.2470  0.1848  0.2773
25307SOL    HW179419  10.983   0.888   5.052  0.1006  1.2581 -0.0266
25307SOL    HW279420  10.890   0.987   5.120 -0.0494  0.2100  1.3187
25308SOL     OW79421   9.663  10.201   3.675  0.2782  0.2028  0.4217
25308SOL    HW179422   9.654  10.207   3.580 -1.1194 -1.1059  0.4464
25308SOL    HW279423   9.748  10.241   3.693  2.2533 -2.5400 -1.7778
25309SOL     OW79424   0.577   7.004   8.670  0.1239 -0.6537 -0.0464
25309SOL    HW179425   0.491   6.986   8.708 -0.2241 -1.1930 -1.0536
25309SOL    HW279426   0.567   6.983   8.577  0.1911  2.9948 -1.0376
25310SOL     OW79427   8.073   4.341   2.546 -0.3492 -0.3593  0.8736
25310SOL    HW179428   8.043   4.289   2.471 -1.5825 -0.1468  1.1928
25310SOL    HW279429   8.023   4.306   2.620  1.6847 -1.3669  1.8650
25311SOL     OW79430   1.758   1.834  10.301  0.0928  0.4541  0.2768
25311SOL    HW179431   1.713   1.815  10.219  3.1639 -0.1469 -1.4218
25311SOL    HW279432   1.703   1.900  10.344 -1.6098  0.8360 -2.2658
25312SOL     OW79433   3.447   1.295  10.620 -0.2500 -0.0529  0.2277
25312SOL    HW179434   3.516   1.253  10.671 -0.6981 -2.3887 -0.9284
25312SOL    HW279435   3.489   1.321  10.539 -0.3059  0.3935  0.3380
25313SOL     OW79436   6.508   9.083   1.979  0.2720 -0.2951  0.0973
25313SOL    HW179437   6.513   9.067   1.885 -0.3637  0.5795 -0.1020
25313SOL    HW279438   6.547   9.006   2.019 -0.4483 -1.1734 -0.8498
25314SOL     OW79439   6.899   9.605   3.743  0.3886 -0.2880 -0.2271
25314SOL    HW179440   6.840   9.541   3.705  1.0304 -1.2459  0.3314
25314SOL    HW279441   6.939   9.649   3.668 -0.4908 -0.1149 -0.6099
25315SOL     OW79442   6.323   6.984   8.954 -0.1971  0.5587 -0.3109
25315SOL    HW179443   6.415   6.977   8.980 -0.8406  0.5936  2.2436
25315SOL    HW279444   6.312   6.919   8.885  1.2169 -1.2081  1.0315
25316SOL     OW79445   9.329  10.088  10.684  0.0274  0.1592  0.2025
25316SOL    HW179446   9.394  10.044  10.739 -0.1625  2.7967  2.8424
25316SOL    HW279447   9.358  10.179  10.680 -3.3357  1.4762  1.4676
25317SOL     OW79448   8.164  10.391   4.219 -0.2170 -0.0877 -0.6197
25317SOL    HW179449   8.085  10.352   4.183 -0.5896 -0.4330  0.5233
25317SOL    HW279450   8.185  10.338   4.295  0.6034  0.5499 -0.3742
25318SOL     OW79451   5.114   8.660   4.601 -0.3401  0.2761  0.2588
25318SOL    HW179452   5.206   8.642   4.621 -0.3239  0.7170  0.5707
25318SOL    HW279453   5.089   8.731   4.659 -0.1048  2.0444 -1.6784
25319SOL     OW79454   6.123   2.288  10.269  0.6360 -0.6366  0.4640
25319SOL    HW179455   6.081   2.236  10.201  0.3856 -0.1944  0.2769
25319SOL    HW279456   6.072   2.369  10.273  1.7106  0.0929 -0.0730
25320SOL     OW79457   6.922   2.201   1.486  0.2039  0.3632 -0.3327
25320SOL    HW179458   6.838   2.218   1.443 -1.0241 -1.2380  1.2630
25320SOL    HW279459   6.987   2.213   1.417 -1.6276 -1.7072 -2.6145
25321SOL     OW79460   6.793  10.520   4.714  0.1019  0.1798  0.0407
25321SOL    HW179461   6.833  10.556   4.635 -0.3069 -1.1864 -0.8054
25321SOL    HW279462   6.867  10.485   4.764  0.0892 -1.7920 -1.2357
25322SOL     OW79463   1.757   7.877  10.798  0.0310 -0.2661 -0.4078
25322SOL    HW179464   1.812   7.810  10.757  0.5708  0.7945 -1.4469
25322SOL    HW279465   1.792   7.885  10.887  0.8565 -0.3762 -0.7170
25323SOL     OW79466   9.392   7.371   9.139  0.4405 -0.2293  0.1596
25323SOL    HW179467   9.336   7.318   9.083 -0.5155  0.0727  0.8024
25323SOL    HW279468   9.339   7.388   9.217  1.1075  0.7830  0.4161
25324SOL     OW79469   7.588   4.686  10.922 -0.2476 -0.3509 -0.3848
25324SOL    HW179470   7.671   4.712  10.880 -0.3509  0.9750  0.1893
25324SOL    HW279471   7.534   4.654  10.850  1.1116 -2.2462 -0.6331
25325SOL     OW79472   6.323   3.235   3.604 -0.0037 -0.4774 -0.0563
25325SOL    HW179473   6.245   3.266   3.651 -0.1730  1.0512 -1.2630
25325SOL    HW279474   6.394   3.291   3.635 -0.3463  1.3684 -2.3974
25326SOL     OW79475   7.250   4.419   3.588 -0.3546 -0.2313 -0.4493
25326SOL    HW179476   7.224   4.386   3.502  0.6878  0.2209 -0.9505
25326SOL    HW279477   7.344   4.403   3.592 -0.6489 -1.8478  1.3370
25327SOL     OW79478   3.144  10.167   1.331 -0.0576 -0.0587  0.0586
25327SOL    HW179479   3.198  10.193   1.257 -0.7877 -0.2641 -0.5511
25327SOL    HW279480   3.054  10.188   1.305 -0.4060 -0.8517  0.5616
25328SOL     OW79481  10.968   8.632   1.785 -0.2252 -1.0337 -0.6403
25328SOL    HW179482  11.057   8.666   1.793 -0.8529  0.4352  0.7162
25328SOL    HW279483  10.955   8.578   1.863 -2.0870  2.8498  2.0573
25329SOL     OW79484   8.651   9.806   0.519  0.2874 -0.1294 -0.1082
25329SOL    HW179485   8.596   9.873   0.559 -0.2598  1.4092 -3.2096
25329SOL    HW279486   8.694   9.850   0.446  0.1828 -3.0495 -2.0913
25330SOL     OW79487   6.275   5.494   3.145 -0.1849  0.2239  0.4704
25330SOL    HW179488   6.362   5.499   3.187 -0.6249  1.3394  1.3174
25330SOL    HW279489   6.221   5.448   3.208  0.1950 -2.1696 -0.8627
25331SOL     OW79490   2.996   5.393   1.746  0.4014 -0.0184  0.4513
25331SOL    HW179491   3.079   5.346   1.755 -1.0890 -2.5832  1.7755
25331SOL    HW279492   3.016   5.464   1.684  3.1001 -1.6656 -0.7697
25332SOL     OW79493   8.352   8.687   9.684  0.1069 -0.0076  0.0733
25332SOL    HW179494   8.327   8.671   9.775  1.7129  1.3036  0.8137
25332SOL    HW279495   8.330   8.606   9.638 -1.3731 -0.4494  1.4789
25333SOL     OW79496   7.809   7.321   4.968  0.5818  0.2993  0.2265
25333SOL    HW179497   7.855   7.238   4.956 -1.5322 -0.6703 -1.8157
25333SOL    HW279498   7.822   7.368   4.886 -1.6279  0.1656 -0.2509
25334SOL     OW79499   1.105   7.755   8.041  0.0763 -0.1131  0.2775
25334SOL    HW179500   1.084   7.755   8.135 -1.8519  0.5271 -0.1079
25334SOL    HW279501   1.041   7.696   8.002  1.1050 -0.6629 -0.6055
25335SOL     OW79502   1.501   8.939   3.186 -0.3827 -0.8805  0.1451
25335SOL    HW179503   1.511   8.979   3.272  0.0660 -0.0602 -0.2738
25335SOL    HW279504   1.425   8.983   3.148  0.1713 -0.3218 -0.3571
25336SOL     OW79505   9.357   5.473   3.530  0.2890 -0.0218 -0.1247
25336SOL    HW179506   9.335   5.380   3.542  1.4524 -0.1963  0.7543
25336SOL    HW279507   9.383   5.503   3.616 -0.3565  1.2244 -0.3389
25337SOL     OW79508   1.212   0.820   9.672  0.3100 -0.3205 -0.2995
25337SOL    HW179509   1.279   0.887   9.687  0.0515 -0.0112 -0.5013
25337SOL    HW279510   1.191   0.828   9.579  0.5839 -0.9776 -0.4180
25338SOL     OW79511   1.654   7.208   2.537 -0.6558  0.7157  0.3670
25338SOL    HW179512   1.749   7.211   2.527 -0.6532 -1.4232 -0.6790
25338SOL    HW279513   1.623   7.159   2.461 -2.3731 -0.4995  1.7649
25339SOL     OW79514   6.607   1.945   8.230 -0.1468 -0.6487 -0.2826
25339SOL    HW179515   6.597   2.025   8.178 -0.5506  0.3903  1.3182
25339SOL    HW279516   6.530   1.942   8.286  0.9544 -0.9053  1.3094
25340SOL     OW79517   4.169   9.409   1.297 -0.2659 -0.0182 -0.4344
25340SOL    HW179518   4.165   9.315   1.276  2.0476 -0.0919 -0.8029
25340SOL    HW279519   4.183   9.452   1.213 -0.1962  0.5654 -0.1260
25341SOL     OW79520   7.899  10.089   8.479  0.8121 -0.2377 -0.2664
25341SOL    HW179521   7.913  10.107   8.572 -4.9872  1.1277  0.7427
25341SOL    HW279522   7.894   9.994   8.473 -0.1590 -0.3071  1.2041
25342SOL     OW79523   2.179   7.817   1.229 -0.2227  0.3660 -0.4894
25342SOL    HW179524   2.221   7.889   1.278 -0.7029  0.4958 -0.2583
25342SOL    HW279525   2.178   7.847   1.138  0.0220  0.4419 -0.4673
25343SOL     OW79526  10.979   0.481   0.858  0.3716 -1.0333  0.5729
25343SOL    HW179527  10.966   0.553   0.920  2.5587 -1.2693  1.4125
25343SOL    HW279528  10.966   0.521   0.772  1.1647  0.3168  1.0389
25344SOL     OW79529   7.243  10.103   1.882  0.0688  0.0520  0.3419
25344SOL    HW179530   7.247  10.095   1.977  0.3942 -2.7095  0.1594
25344SOL    HW279531   7.332  10.126   1.856  0.0905  0.3393  0.6620
25345SOL     OW79532   2.497   4.611   3.447 -0.4425 -0.0584  0.1583
25345SOL    HW179533   2.553   4.675   3.404  0.1026  0.5804  1.7272
25345SOL    HW279534   2.413   4.617   3.401  0.4597 -0.3279 -1.5892
25346SOL     OW79535   5.678   1.161   1.928  0.1283 -0.1406  0.1442
25346SOL    HW179536   5.696   1.252   1.953 -0.0486 -0.1269  0.2234
25346SOL    HW279537   5.721   1.108   1.995 -0.5884 -0.1008  0.6492
25347SOL     OW79538   2.755   0.748   1.270 -0.3951  0.6712  0.4062
25347SOL    HW179539   2.697   0.675   1.291 -0.2105  0.4732  0.2306
25347SOL    HW279540   2.799   0.770   1.352  1.7042 -1.2881 -0.0971
25348SOL     OW79541   9.473   2.730   7.660  0.6232 -0.2248  0.0713
25348SOL    HW179542   9.528   2.717   7.584 -0.0372 -1.1285 -0.2729
25348SOL    HW279543   9.412   2.799   7.635  0.4837 -0.4385 -0.1750
25349SOL     OW79544   6.897   0.960   1.732 -0.4491 -0.3109 -0.3149
25349SOL    HW179545   6.820   0.940   1.679  0.3918 -2.1970 -0.9005
25349SOL    HW279546   6.886   0.909   1.812  1.0366 -2.1514 -1.2036
25350SOL     OW79547   0.879   1.304   2.088  0.1539 -0.2721 -0.1755
25350SOL    HW179548   0.912   1.365   2.154  1.3489  1.0128 -1.8882
25350SOL    HW279549   0.948   1.237   2.081 -0.4757 -1.0352  0.6198
25351SOL     OW79550   6.144   6.483   5.722 -0.2130  0.1557  0.0776
25351SOL    HW179551   6.180   6.570   5.744 -0.9792  0.2105  1.2320
25351SOL    HW279552   6.161   6.431   5.801 -1.0491 -0.3239 -0.0584
25352SOL     OW79553   3.658  10.352  10.681  0.4718 -0.2431  0.4847
25352SOL    HW179554   3.563  10.338  10.673  0.5623  0.3926 -3.1198
25352SOL    HW279555   3.697  10.269  10.654  0.9112  0.2572 -0.4722
25353SOL     OW79556   6.771   5.497   3.001  0.5522 -0.4170 -0.5485
25353SOL    HW179557   6.725   5.434   2.945  0.5609 -0.6733 -0.2698
25353SOL    HW279558   6.805   5.444   3.073  0.4042 -0.0643 -0.2180
25354SOL     OW79559  10.817   4.998   4.896 -0.3187 -0.1422 -0.0765
25354SOL    HW179560  10.824   5.016   4.802 -1.2689 -0.6060 -0.2518
25354SOL    HW279561  10.832   5.083   4.937 -0.6783  0.2290 -0.6921
25355SOL     OW79562   5.724   5.407  10.609 -0.1649  0.5911 -0.0442
25355SOL    HW179563   5.733   5.312  10.605  0.1074  0.6175 -0.1006
25355SOL    HW279564   5.639   5.425  10.569 -1.0582  0.2360  1.5988
25356SOL     OW79565   2.969   6.218   5.376 -0.3052  0.2134  0.2116
25356SOL    HW179566   3.043   6.266   5.413 -0.2154 -0.1675  0.5297
25356SOL    HW279567   2.893   6.254   5.421 -0.1669 -0.4757  1.0204
25357SOL     OW79568   7.955   7.685   6.564 -0.1709  0.5979 -0.0404
25357SOL    HW179569   8.002   7.730   6.494  0.5902  0.0892  0.1304
25357SOL    HW279570   8.024   7.649   6.620 -0.7689  0.2995  0.5198
25358SOL     OW79571   0.506   9.246   7.958 -0.3694 -0.4831  0.1923
25358SOL    HW179572   0.539   9.157   7.970 -0.0143 -0.4379 -0.4435
25358SOL    HW279573   0.529   9.269   7.869 -1.0975 -0.0113  0.1130
25359SOL     OW79574   8.211   6.957   4.560 -0.2840  0.4667  0.4332
25359SOL    HW179575   8.149   7.013   4.606  1.6090  1.6853  1.6798
25359SOL    HW279576   8.242   6.896   4.627  0.3443  0.3195  0.0188
25360SOL     OW79577   7.334   6.909   1.030  0.5493  0.3588 -0.0078
25360SOL    HW179578   7.279   6.927   1.106  0.6817 -0.9277  0.4161
25360SOL    HW279579   7.348   6.994   0.990 -0.9378  0.8438  0.4364
25361SOL     OW79580   7.419   4.215   4.892 -0.1433 -0.0829 -0.4508
25361SOL    HW179581   7.497   4.272   4.888 -0.1247 -0.1497 -1.2889
25361SOL    HW279582   7.372   4.245   4.970  1.6341 -1.2521  1.1858
25362SOL     OW79583   3.586   1.490   7.954 -0.3079  0.1075  0.0838
25362SOL    HW179584   3.550   1.511   8.041  2.4402  0.2716  1.3106
25362SOL    HW279585   3.516   1.443   7.910 -1.2402 -1.6566  3.1051
25363SOL     OW79586   5.565   5.987   8.082  0.2902  0.0634 -0.0366
25363SOL    HW179587   5.512   6.026   8.152  0.1460  0.1637 -0.2008
25363SOL    HW279588   5.598   5.905   8.119 -0.3237 -0.2085 -0.0809
25364SOL     OW79589   0.936   3.709   8.767  0.8067  0.5099 -0.6444
25364SOL    HW179590   1.009   3.650   8.783 -0.9316 -1.5081  0.4576
25364SOL    HW279591   0.926   3.710   8.672  2.1513  0.7069 -0.7969
25365SOL     OW79592   3.191   5.662   2.207 -0.0868  0.4586  0.6156
25365SOL    HW179593   3.222   5.745   2.242 -0.9820  1.4392 -0.8174
25365SOL    HW279594   3.201   5.600   2.280  1.8348  1.4882  1.2916
25366SOL     OW79595   5.752   5.604   9.406 -0.4886 -0.3420 -0.3455
25366SOL    HW179596   5.778   5.593   9.315 -0.2197  0.7324 -0.4096
25366SOL    HW279597   5.725   5.516   9.434  1.1242 -1.0550 -0.9148
25367SOL     OW79598   9.058   0.825   2.781 -0.5293  0.1071 -0.1436
25367SOL    HW179599   9.060   0.787   2.693 -0.2235  0.9170 -0.5041
25367SOL    HW279600   8.984   0.885   2.779 -1.1439 -0.6170  0.4891
25368SOL     OW79601   4.129   4.805   8.899  0.5266 -0.2403  0.3148
25368SOL    HW179602   4.224   4.814   8.888  0.4909 -0.3207 -0.0678
25368SOL    HW279603   4.117   4.795   8.993  0.8614  0.2260  0.4148
25369SOL     OW79604   1.817   5.649   5.661 -0.2706  0.9639  0.5691
25369SOL    HW179605   1.861   5.640   5.576 -0.7253 -1.3099  0.5018
25369SOL    HW279606   1.861   5.722   5.703  0.0304  2.1165 -1.5836
25370SOL     OW79607   5.079   7.213   6.812 -0.2238  0.3082 -0.5273
25370SOL    HW179608   5.126   7.143   6.858 -1.7764  0.4849  1.4473
25370SOL    HW279609   5.069   7.179   6.723  1.1217 -0.9443 -0.2568
25371SOL     OW79610   0.201   1.652   7.556  0.2564 -0.4469 -0.2582
25371SOL    HW179611   0.197   1.658   7.461 -1.8930 -1.2284 -0.2718
25371SOL    HW279612   0.278   1.703   7.580  0.3816  0.4613 -2.3568
25372SOL     OW79613  10.634  10.515   3.758 -0.3402  0.5751  0.4448
25372SOL    HW179614  10.708  10.463   3.728 -1.3502  0.2256 -1.5815
25372SOL    HW279615  10.648  10.602   3.721 -0.7123  0.6349  0.4396
25373SOL     OW79616   9.211   0.888   6.619  0.4618  0.1921  0.1453
25373SOL    HW179617   9.298   0.864   6.588  0.3204 -0.0126 -0.0946
25373SOL    HW279618   9.187   0.964   6.565  0.6632  0.5151  0.5006
25374SOL     OW79619   6.590   0.613   2.564 -0.4788 -0.2059  0.1445
25374SOL    HW179620   6.582   0.588   2.656 -0.4434 -2.4667 -0.4071
25374SOL    HW279621   6.670   0.570   2.534 -0.6089  0.3109 -1.0000
25375SOL     OW79622   6.729   3.420   5.068  0.3360 -0.2663  0.2150
25375SOL    HW179623   6.757   3.350   5.126  0.4455  0.3917  0.9792
25375SOL    HW279624   6.643   3.394   5.036  0.6416 -1.0277  0.0048
25376SOL     OW79625   0.770   7.736   0.936  0.3719 -0.3082 -0.0006
25376SOL    HW179626   0.760   7.748   0.842 -0.1333 -1.4940 -0.1160
25376SOL    HW279627   0.860   7.765   0.954  0.6669 -0.5928 -0.9450
25377SOL     OW79628   5.069   7.346   9.892  0.0981  0.5183  0.2008
25377SOL    HW179629   5.043   7.403   9.820 -0.8358 -0.9390 -0.6743
25377SOL    HW279630   5.144   7.389   9.931 -0.5037  2.2711 -0.4893
25378SOL     OW79631   8.609   9.885   3.634  0.2038 -0.1409 -0.0661
25378SOL    HW179632   8.561   9.817   3.587 -0.5747  0.2765  0.1051
25378SOL    HW279633   8.600   9.963   3.579  0.6159 -0.0393  0.0107
25379SOL     OW79634   5.062   9.911   7.621  0.6402 -0.0633 -0.1487
25379SOL    HW179635   4.984   9.923   7.676  0.6477 -1.4708  0.2023
25379SOL    HW279636   5.045   9.965   7.544 -0.1179  0.6366  0.4816
25380SOL     OW79637   5.285   2.191   0.682 -0.3357 -0.5159 -0.0068
25380SOL    HW179638   5.378   2.202   0.698 -0.8459 -0.3957  3.6940
25380SOL    HW279639   5.271   2.096   0.679 -0.0153 -0.5326 -1.4841
25381SOL     OW79640   6.272   2.597  10.738  0.4214  0.4368  0.1225
25381SOL    HW179641   6.213   2.522  10.732  1.0916 -0.2727  1.9060
25381SOL    HW279642   6.258   2.645  10.656 -0.6804 -1.1303 -0.6487
25382SOL     OW79643   1.914   0.392   2.607 -0.4289 -0.0937  0.2426
25382SOL    HW179644   1.932   0.299   2.590  4.5287  0.0920  2.7712
25382SOL    HW279645   1.857   0.392   2.684  0.3174 -1.0986  0.8210
25383SOL     OW79646   2.082   3.224   5.068  0.1715 -0.2885 -0.5196
25383SOL    HW179647   2.006   3.268   5.105 -0.1833 -1.0508 -0.3257
25383SOL    HW279648   2.078   3.245   4.974  0.6918  1.0776 -0.2550
25384SOL     OW79649   9.370   1.435   3.868  0.1662  0.7754  0.3658
25384SOL    HW179650   9.391   1.368   3.803  0.1413  0.1900  0.9455
25384SOL    HW279651   9.425   1.510   3.844 -0.5096  0.9071 -0.8615
25385SOL     OW79652   0.674   0.811   0.850 -0.1011 -1.0933 -0.0666
25385SOL    HW179653   0.676   0.767   0.765 -0.1670 -0.3596 -0.4504
25385SOL    HW279654   0.594   0.864   0.848  0.7684  0.2649 -0.2330
25386SOL     OW79655   9.550   0.033   6.098  0.4409 -0.2055  0.6629
25386SOL    HW179656   9.626   0.035   6.040 -0.8532  0.8044 -1.0865
25386SOL    HW279657   9.505  -0.049   6.076 -0.8324  0.8559 -0.8975
25387SOL     OW79658   1.464   5.310   8.729  0.3232 -0.1156 -0.1887
25387SOL    HW179659   1.406   5.237   8.710 -1.2494  0.6143  1.4987
25387SOL    HW279660   1.477   5.307   8.824  1.3402  0.9766 -0.2686
25388SOL     OW79661   0.945  10.409   9.951  0.3445  0.2404 -0.7224
25388SOL    HW179662   0.997  10.431   9.873  0.6837 -1.0101 -0.8642
25388SOL    HW279663   0.968  10.477  10.015  1.4681  0.2234 -1.0900
25389SOL     OW79664   0.201  10.474  10.940 -0.4081 -0.4224 -0.3274
25389SOL    HW179665   0.140  10.417  10.894 -0.7470  0.4976 -1.0735
25389SOL    HW279666   0.261  10.415  10.985  1.4564 -1.5189 -3.8456
25390SOL     OW79667   9.077   9.137   2.914  0.4347  0.4236 -0.0346
25390SOL    HW179668   9.097   9.214   2.862  0.8500  1.2511  1.3107
25390SOL    HW279669   9.160   9.115   2.956  0.4125 -0.9846 -0.6613
25391SOL     OW79670   9.365   1.043   1.883  0.4825 -1.0578 -0.4037
25391SOL    HW179671   9.335   0.971   1.939  0.4311 -0.3947  0.4487
25391SOL    HW279672   9.326   1.121   1.922  0.9762 -0.5069 -0.9931
25392SOL     OW79673   1.892   6.699   2.782 -0.4897  0.0782 -0.2495
25392SOL    HW179674   1.868   6.699   2.690  0.9785 -2.9361 -0.7500
25392SOL    HW279675   1.871   6.611   2.812  1.6256  0.1067  1.5570
25393SOL     OW79676   1.313  10.792   4.741 -0.3444  0.4772  0.2774
25393SOL    HW179677   1.283  10.701   4.750 -1.3114  0.8580  1.1879
25393SOL    HW279678   1.293  10.832   4.826 -0.5173  1.7117 -0.3254
25394SOL     OW79679   8.425   5.126   0.540  0.1514 -0.3637  0.0729
25394SOL    HW179680   8.490   5.174   0.489  0.8314 -0.6855  0.6240
25394SOL    HW279681   8.377   5.193   0.588  0.5557 -0.1810  0.2203
25395SOL     OW79682   4.331   7.891   6.641 -0.1977  0.0911  0.1277
25395SOL    HW179683   4.254   7.920   6.691 -1.2712 -1.7964 -0.3517
25395SOL    HW279684   4.297   7.825   6.581  1.7091 -0.2866 -0.5913
25396SOL     OW79685   8.281   7.329   8.883 -0.0439 -0.1428  0.6037
25396SOL    HW179686   8.234   7.397   8.835 -0.3853 -0.1644  0.8968
25396SOL    HW279687   8.223   7.252   8.878  0.0948 -0.2570  0.7188
25397SOL     OW79688   0.635   0.333   2.617  0.3182  0.0172  0.3999
25397SOL    HW179689   0.541   0.329   2.598  0.1367  2.9753  0.1906
25397SOL    HW279690   0.674   0.373   2.539  1.6026 -0.1530  0.9181
25398SOL     OW79691   1.314   7.695   7.191 -0.2650 -0.3200 -0.5982
25398SOL    HW179692   1.235   7.661   7.148 -1.6905  2.4212 -0.4274
25398SOL    HW279693   1.377   7.705   7.120 -0.5599 -1.2084 -1.0021
25399SOL     OW79694  10.210   2.140  10.398 -0.3023 -0.7387  0.3255
25399SOL    HW179695  10.240   2.219  10.443  0.0478 -0.9824  0.5319
25399SOL    HW279696  10.276   2.074  10.420  0.0925 -0.7623 -0.8858
25400SOL     OW79697   2.316   7.545   9.707  0.1023 -1.3390 -0.3267
25400SOL    HW179698   2.366   7.610   9.659  0.0036  0.6777  2.0799
25400SOL    HW279699   2.376   7.471   9.718  1.0938 -0.6431 -1.0020
25401SOL     OW79700   2.197   7.155   4.417 -0.1785 -0.0606  0.5966
25401SOL    HW179701   2.183   7.175   4.510 -1.9841 -1.3393  0.6540
25401SOL    HW279702   2.276   7.101   4.416  0.5684  0.9838  1.2270
25402SOL     OW79703   2.464   4.616  10.804 -0.1850 -0.3271 -0.3571
25402SOL    HW179704   2.489   4.648  10.717 -1.2289  0.8935 -0.2346
25402SOL    HW279705   2.418   4.534  10.788  1.7149 -1.3660 -0.7579
25403SOL     OW79706   2.336   9.329   4.998 -0.3158 -0.3766  0.4632
25403SOL    HW179707   2.264   9.374   5.042 -0.2162 -0.9559  1.2587
25403SOL    HW279708   2.414   9.358   5.045 -0.4290 -3.0109  2.5181
25404SOL     OW79709   2.738   6.643   2.916  0.1653 -0.0864 -0.4913
25404SOL    HW179710   2.745   6.711   2.849 -1.5606 -1.2762 -1.9799
25404SOL    HW279711   2.714   6.690   2.995  0.4932  1.1911 -1.1207
25405SOL     OW79712   1.560   1.631   5.699 -0.9220  0.9519 -0.6356
25405SOL    HW179713   1.653   1.648   5.682 -0.8715  1.8514  0.3871
25405SOL    HW279714   1.515   1.669   5.624 -0.5023  1.1137 -0.8135
25406SOL     OW79715   2.737  10.476   7.411  0.2215  0.3299 -0.1814
25406SOL    HW179716   2.657  10.439   7.447  0.2324  0.8365  0.3771
25406SOL    HW279717   2.733  10.455   7.317 -0.1511 -0.3698 -0.0092
25407SOL     OW79718   8.041   9.602   1.744 -0.0712  0.1605  0.0537
25407SOL    HW179719   8.008   9.532   1.689 -0.2079 -0.9232  1.4504
25407SOL    HW279720   8.043   9.679   1.687 -0.5187 -0.8225 -1.3366
25408SOL     OW79721   2.390   4.374   6.503 -0.4292  0.0041  0.5311
25408SOL    HW179722   2.341   4.437   6.556  1.5809  0.7826  1.5851
25408SOL    HW279723   2.475   4.416   6.488  0.0286 -1.3644 -1.0277
25409SOL     OW79724   6.148   8.521   1.761  0.4799  0.0820 -0.1899
25409SOL    HW179725   6.062   8.525   1.803 -0.0959 -3.0005 -0.8864
25409SOL    HW279726   6.158   8.606   1.719 -1.1661  1.3706  1.8070
25410SOL     OW79727   9.470   7.916   2.530 -0.3226 -0.1747  0.3744
25410SOL    HW179728   9.533   7.945   2.463  0.6549 -0.3995  1.1709
25410SOL    HW279729   9.507   7.948   2.612 -0.8243 -1.0562  0.9504
25411SOL     OW79730  10.401  10.654   5.150 -0.3185 -0.6771  0.1305
25411SOL    HW179731  10.386  10.561   5.137  0.4324 -0.7788 -0.0771
25411SOL    HW279732  10.476  10.674   5.093 -0.6121  0.0946  0.0016
25412SOL     OW79733   4.934   0.450  10.724 -0.4647 -0.1350  0.4325
25412SOL    HW179734   4.965   0.487  10.807 -1.0044 -1.4046  1.2368
25412SOL    HW279735   4.874   0.380  10.751 -0.4031 -0.7719 -1.0317
25413SOL     OW79736   0.594   3.162   4.100 -0.1310 -0.0790  0.1262
25413SOL    HW179737   0.575   3.124   4.186 -0.2794 -0.9962 -0.2969
25413SOL    HW279738   0.535   3.116   4.040  1.8986 -1.5177 -0.8978
25414SOL     OW79739   6.598   0.315   3.346 -0.1006  0.5333  0.3760
25414SOL    HW179740   6.538   0.269   3.287 -1.4236  3.1133 -0.4720
25414SOL    HW279741   6.678   0.328   3.294 -0.4993  0.9885 -0.1329
25415SOL     OW79742  10.167   9.841   5.514 -0.1686 -0.1261  0.0099
25415SOL    HW179743  10.207   9.758   5.540 -0.9165 -0.5187 -0.0549
25415SOL    HW279744  10.138   9.827   5.424 -1.0917 -0.1002  0.2939
25416SOL     OW79745   3.064   6.756   6.067  0.1804  0.6418  0.8318
25416SOL    HW179746   3.133   6.818   6.090  0.9015  0.4885 -0.7691
25416SOL    HW279747   3.019   6.797   5.992  1.3489 -1.1538 -0.9550
25417SOL     OW79748   3.361   3.628   0.953  0.3208  0.9088  0.4193
25417SOL    HW179749   3.276   3.586   0.954  0.9874 -0.5308  2.4358
25417SOL    HW279750   3.373   3.657   0.863 -0.2077 -3.2604 -1.1886
25418SOL     OW79751   1.701   3.821   9.246 -0.3884  0.0312  1.1582
25418SOL    HW179752   1.662   3.820   9.159  0.4760  1.9126  0.7070
25418SOL    HW279753   1.756   3.742   9.249  0.5212  0.5771 -0.4657
25419SOL     OW79754   1.647   4.462  10.484  0.6225  0.2586 -0.1583
25419SOL    HW179755   1.578   4.518  10.448 -2.6456 -2.7291  0.8627
25419SOL    HW279756   1.622   4.449  10.575  2.4537 -1.1629  0.1982
25420SOL     OW79757   4.902   4.607   0.870 -0.5126 -0.2354 -0.3496
25420SOL    HW179758   4.853   4.525   0.864  0.9864 -1.1162 -1.2222
25420SOL    HW279759   4.842   4.674   0.837 -1.8981 -0.8881  0.7384
25421SOL     OW79760   3.107   9.914   8.356 -0.3009 -0.1364 -0.1229
25421SOL    HW179761   3.040   9.945   8.295  0.8784  0.3700 -1.2138
25421SOL    HW279762   3.060   9.855   8.415 -1.5914 -0.2529 -1.2058
25422SOL     OW79763   9.303   6.417   1.065 -0.3914  0.3158 -0.0870
25422SOL    HW179764   9.361   6.492   1.078 -1.0817  0.7944  0.2896
25422SOL    HW279765   9.303   6.402   0.971  1.3658 -0.5197  0.0152
25423SOL     OW79766   2.438   0.947   3.648  0.0377 -0.1576 -0.4457
25423SOL    HW179767   2.506   0.899   3.695  0.7254  2.2672  1.2094
25423SOL    HW279768   2.360   0.893   3.656  0.8338 -1.1428  1.0841
25424SOL     OW79769   4.039   1.546   3.452  0.6454  0.7561 -1.0084
25424SOL    HW179770   4.101   1.575   3.386  1.3041  0.1077 -0.6928
25424SOL    HW279771   4.093   1.500   3.517  0.0474  1.5561  0.0808
25425SOL     OW79772   5.433   9.839   8.489  0.0403  0.6184 -0.2107
25425SOL    HW179773   5.401   9.788   8.564 -0.8479  1.1787 -0.1903
25425SOL    HW279774   5.528   9.826   8.490 -0.2678 -2.0721 -0.9967
25426SOL     OW79775   4.087   6.813  10.441  0.0536  0.2885 -0.4925
25426SOL    HW179776   4.043   6.897  10.432 -2.4526 -0.7712  0.7724
25426SOL    HW279777   4.052   6.777  10.523  1.7613 -1.6002 -0.5185
25427SOL     OW79778   1.717   6.135   4.185  0.1378  0.3355 -0.5296
25427SOL    HW179779   1.705   6.091   4.102 -1.4614  0.1584 -0.2213
25427SOL    HW279780   1.632   6.174   4.205  0.3228 -0.0853  1.2683
25428SOL     OW79781   9.739   3.712   2.172  0.1132  0.0961  0.0551
25428SOL    HW179782   9.805   3.737   2.108 -0.5790  0.3801 -0.5612
25428SOL    HW279783   9.658   3.704   2.121 -0.1695 -1.0249  0.6604
25429SOL     OW79784   9.885   6.670   4.629 -0.1528  0.3383 -0.2974
25429SOL    HW179785   9.829   6.596   4.608 -0.6986  0.3076  1.2019
25429SOL    HW279786   9.966   6.653   4.579 -0.2274 -1.3034  0.0743
25430SOL     OW79787   1.016   7.937   3.726  0.1249  0.5538 -0.6728
25430SOL    HW179788   0.970   7.889   3.795  0.7630 -0.6505 -1.0676
25430SOL    HW279789   0.957   7.934   3.651 -0.6112  1.9452 -0.1856
25431SOL     OW79790   4.747   0.694   4.684  0.2341 -0.0408 -0.3810
25431SOL    HW179791   4.818   0.649   4.730  0.0091 -0.3176 -0.3038
25431SOL    HW279792   4.790   0.769   4.642  0.5671 -0.1911 -0.3151
25432SOL     OW79793   5.493   3.976   4.612  0.1439  0.3890 -0.4139
25432SOL    HW179794   5.543   3.940   4.685 -0.5132  2.3865  1.0914
25432SOL    HW279795   5.559   3.992   4.544  1.2087  0.8959  0.7004
25433SOL     OW79796   3.779   1.694  10.873  0.2138 -0.0611  0.0308
25433SOL    HW179797   3.849   1.710  10.810  1.2420 -1.4669  0.7789
25433SOL    HW279798   3.768   1.599  10.873  0.7910 -0.1857  2.5328
25434SOL     OW79799  10.633   2.967  10.197  0.2338  0.6277 -0.1300
25434SOL    HW179800  10.659   2.900  10.134 -0.1743  0.8334 -0.5174
25434SOL    HW279801  10.716   2.997  10.235  0.4406  0.1025 -0.1495
25435SOL     OW79802   7.395   1.638   6.159  0.1459 -0.2923  0.3229
25435SOL    HW179803   7.377   1.575   6.089  1.5576 -1.2348  0.7743
25435SOL    HW279804   7.444   1.708   6.116 -0.7437  0.1407 -0.0179
25436SOL     OW79805  10.977   5.631   0.261  0.1983  0.7573 -0.0090
25436SOL    HW179806  10.908   5.667   0.205 -0.9682  0.5668  1.2515
25436SOL    HW279807  10.994   5.544   0.225 -0.4936  0.6572 -0.1016
25437SOL     OW79808   0.731   6.692   4.132 -0.2035  0.8485 -0.4832
25437SOL    HW179809   0.812   6.640   4.133 -1.0065 -0.4603  0.6781
25437SOL    HW279810   0.723   6.722   4.042  0.3150 -1.0938 -1.2252
25438SOL     OW79811   1.417   6.741   0.702  0.0623 -0.6489 -0.1181
25438SOL    HW179812   1.488   6.758   0.640  0.6628 -1.0704  0.4423
25438SOL    HW279813   1.395   6.649   0.691 -1.0224 -0.3146 -0.9148
25439SOL     OW79814   0.054   5.947   6.184  0.2200 -0.4622 -0.2024
25439SOL    HW179815   0.022   5.875   6.130  0.9390  0.0088 -1.2945
25439SOL    HW279816  -0.016   5.962   6.248 -1.5206  0.1123 -2.1098
25440SOL     OW79817   1.552  10.657   3.107 -0.0530 -0.3840 -0.0837
25440SOL    HW179818   1.565  10.702   3.190  1.0209 -0.4350 -0.2103
25440SOL    HW279819   1.530  10.727   3.045 -0.2437 -0.2736  0.1059
25441SOL     OW79820   8.625   3.811   6.689  0.0481 -0.5371  0.7782
25441SOL    HW179821   8.613   3.840   6.780 -1.2061  0.7226  0.2449
25441SOL    HW279822   8.546   3.760   6.670 -1.9393  2.8294 -0.9039
25442SOL     OW79823   9.508   3.159   8.739 -0.0411  0.4937  0.1663
25442SOL    HW179824   9.420   3.129   8.717  0.2717  0.4118 -0.9951
25442SOL    HW279825   9.566   3.105   8.686  0.6600  1.3184  0.0761
25443SOL     OW79826   0.400   5.739   4.708 -0.1234 -0.5521  0.0338
25443SOL    HW179827   0.434   5.808   4.652 -0.9736  0.7841  1.1161
25443SOL    HW279828   0.315   5.716   4.670  0.1831 -1.0513 -0.3568
25444SOL     OW79829   4.933   3.094   6.959 -0.8810  0.2686 -0.1319
25444SOL    HW179830   4.857   3.040   6.980 -1.3760  1.2502  0.6867
25444SOL    HW279831   4.898   3.166   6.907 -0.1861 -0.3032 -1.4309
25445SOL     OW79832   3.092   4.663   0.977  0.6157  0.1129  0.4389
25445SOL    HW179833   3.021   4.720   0.947  1.2169  0.6907  0.1075
25445SOL    HW279834   3.133   4.631   0.897 -0.0789 -1.2787  0.6023
25446SOL     OW79835   6.910   4.318   3.062 -0.4558  0.0985  0.4369
25446SOL    HW179836   6.868   4.343   2.980 -2.0617 -0.9540  0.8897
25446SOL    HW279837   6.957   4.237   3.041 -0.4072  0.1253  0.4402
25447SOL     OW79838   8.332   7.768   5.808 -0.3256 -0.1978  0.1217
25447SOL    HW179839   8.379   7.837   5.761 -0.3611 -0.3310 -0.1086
25447SOL    HW279840   8.306   7.809   5.891  1.2944 -0.4852  0.8117
25448SOL     OW79841   6.139   8.202   4.934  0.3862 -0.2213 -0.4657
25448SOL    HW179842   6.180   8.129   4.888 -0.4412 -0.4909 -0.7970
25448SOL    HW279843   6.119   8.266   4.865  1.8321  0.6819 -0.0735
25449SOL     OW79844   6.482   7.250   3.879  0.2485  0.3911 -0.3501
25449SOL    HW179845   6.483   7.317   3.947  0.2118  0.5231 -0.4776
25449SOL    HW279846   6.550   7.278   3.817  1.9558 -0.9705  0.8198
25450SOL     OW79847   5.320   1.513   7.032 -0.1550 -0.4735 -0.0456
25450SOL    HW179848   5.235   1.506   6.988  0.8570 -0.1650 -2.2094
25450SOL    HW279849   5.319   1.599   7.073 -0.2255  0.3565 -1.6878
25451SOL     OW79850   8.135  10.771   1.634 -0.2412 -0.1816  0.0270
25451SOL    HW179851   8.179  10.825   1.569  0.2031 -0.0786  0.4153
25451SOL    HW279852   8.116  10.689   1.588 -1.6563  0.5826 -0.8220
25452SOL     OW79853   6.971   0.678   9.287  0.1193  0.3257 -0.3542
25452SOL    HW179854   6.966   0.720   9.373 -0.2462 -1.1838  0.4178
25452SOL    HW279855   6.978   0.584   9.307  1.1928  0.0206 -1.9721
25453SOL     OW79856   8.724   0.519   6.472  0.0639  0.1132  0.2156
25453SOL    HW179857   8.792   0.500   6.407  0.2719  1.0074  0.1524
25453SOL    HW279858   8.771   0.557   6.546 -0.3221  0.4267  0.3090
25454SOL     OW79859   0.649   9.346   3.262 -0.2090 -0.0701 -0.6478
25454SOL    HW179860   0.635   9.257   3.293 -0.5239  0.2657  0.2256
25454SOL    HW279861   0.580   9.397   3.304  1.4012  0.9983  0.8837
25455SOL     OW79862   7.672   9.187   4.019 -0.2229  0.4015 -0.1788
25455SOL    HW179863   7.708   9.274   4.000 -1.5911  1.0571  0.1056
25455SOL    HW279864   7.685   9.176   4.113 -1.6488  1.0874  0.1197
25456SOL     OW79865   4.553   3.156   2.631 -0.1632  0.7833 -0.3222
25456SOL    HW179866   4.467   3.196   2.643 -0.6631  0.1945 -1.6886
25456SOL    HW279867   4.615   3.225   2.653 -0.9551  0.8915  1.7236
25457SOL     OW79868   0.986   9.141   7.400  0.6232 -0.0338  0.2201
25457SOL    HW179869   1.082   9.139   7.403  0.6081 -1.2198  0.4036
25457SOL    HW279870   0.960   9.053   7.427 -0.5161  0.1799 -0.1531
25458SOL     OW79871   8.510   2.196  10.188 -0.5253 -0.3520  0.0825
25458SOL    HW179872   8.502   2.141  10.265  0.2511 -0.7755 -0.1290
25458SOL    HW279873   8.437   2.258  10.195 -0.1992 -0.0796  1.3894
25459SOL     OW79874   4.721   4.868   2.664 -0.2246  0.2661 -0.0907
25459SOL    HW179875   4.750   4.959   2.674 -1.9958  0.7482  1.1629
25459SOL    HW279876   4.628   4.875   2.640 -0.6695 -1.1969  1.0454
25460SOL     OW79877   5.273   6.891   9.519  0.5324 -0.5904 -0.6742
25460SOL    HW179878   5.233   6.958   9.464 -0.6752  0.3557  1.2548
25460SOL    HW279879   5.297   6.821   9.458  0.8893  1.1272 -2.6087
25461SOL     OW79880   1.900   5.820  10.587  0.3282  0.1830 -0.0604
25461SOL    HW179881   1.951   5.747  10.552  0.3318 -1.0883  2.3656
25461SOL    HW279882   1.809   5.792  10.578  0.3502 -0.4645  1.4462
25462SOL     OW79883   8.152   2.874   4.216  0.0681 -0.5862  0.0387
25462SOL    HW179884   8.159   2.834   4.129 -0.8571  0.9115 -0.7848
25462SOL    HW279885   8.160   2.968   4.199  0.0223 -0.2684  1.6083
25463SOL     OW79886   9.889   7.991  10.058  0.4082 -0.2427 -0.3898
25463SOL    HW179887   9.841   7.920  10.100  2.1428 -2.3111 -1.6706
25463SOL    HW279888   9.966   8.004  10.112  0.6860 -0.1615 -0.7969
25464SOL     OW79889  10.928   7.302   6.076  0.3778  0.4628  0.2687
25464SOL    HW179890  10.922   7.315   5.981  0.7638  0.6473  0.2664
25464SOL    HW279891  10.941   7.207   6.086 -1.7946  0.1143  0.2532
25465SOL     OW79892  10.683   9.384   5.249  0.1150 -0.0343 -0.2231
25465SOL    HW179893  10.694   9.386   5.344 -0.3835 -0.1796 -0.1596
25465SOL    HW279894  10.661   9.294   5.229 -1.9426  0.4267 -0.2173
25466SOL     OW79895   1.018   8.849   2.925  0.3497  0.2989 -0.5253
25466SOL    HW179896   1.025   8.754   2.937  1.6966  0.4655  0.2937
25466SOL    HW279897   1.094   8.871   2.871  0.3505  0.9805 -0.2488
25467SOL     OW79898   6.440   4.945   6.080 -0.4937 -0.0821  0.1894
25467SOL    HW179899   6.444   5.005   6.155 -2.3720 -0.0437  0.3162
25467SOL    HW279900   6.476   4.863   6.114 -0.0894  0.3111  0.7378
25468SOL     OW79901   2.079   4.454   5.732  0.5082 -0.4559 -0.2785
25468SOL    HW179902   2.061   4.361   5.725  1.0820 -0.6328  0.4403
25468SOL    HW279903   2.139   4.461   5.806  0.2404  0.5111 -0.1391
25469SOL     OW79904   1.617   5.030   4.842 -0.0177  0.5421 -0.3762
25469SOL    HW179905   1.557   5.051   4.914  0.8390  0.6561  0.3104
25469SOL    HW279906   1.621   5.111   4.791 -3.7899 -0.6259 -2.9653
25470SOL     OW79907   0.614   1.490   1.414 -0.2605 -0.1619  0.7015
25470SOL    HW179908   0.593   1.452   1.500  1.1082 -1.1824  0.6219
25470SOL    HW279909   0.694   1.446   1.388  0.2587  1.3499 -0.3687
25471SOL     OW79910   9.309   7.319   9.593  0.2035  0.3449 -0.2341
25471SOL    HW179911   9.218   7.342   9.612  0.0411 -1.5146  1.5502
25471SOL    HW279912   9.315   7.226   9.614  2.5679  0.4750 -0.1269
25472SOL     OW79913   1.686  10.901   0.425  0.5973  0.4042 -0.8312
25472SOL    HW179914   1.772  10.919   0.463 -0.3941  3.3616  0.2675
25472SOL    HW279915   1.637  10.859   0.496 -0.4903  3.7691  0.6325
25473SOL     OW79916   5.910   2.711   5.147  0.0438  0.0258  0.0944
25473SOL    HW179917   5.934   2.793   5.104  0.7499 -0.4479 -0.4349
25473SOL    HW279918   5.845   2.736   5.212  2.4610  1.4856  2.0960
25474SOL     OW79919   7.517   2.217   9.256 -0.1430  0.4504 -0.6537
25474SOL    HW179920   7.557   2.294   9.217 -1.4431  0.3075 -2.3660
25474SOL    HW279921   7.548   2.144   9.202  0.7554 -0.2133  0.6982
25475SOL     OW79922   2.577   0.038   6.036  0.4273 -0.9063  0.2143
25475SOL    HW179923   2.524   0.111   6.005  1.3033 -0.1508  0.4425
25475SOL    HW279924   2.645   0.079   6.090  0.8137 -1.9098  0.5119
25476SOL     OW79925   4.956   5.784   8.055 -0.2055  0.1976 -0.5825
25476SOL    HW179926   4.988   5.777   8.145 -2.9499 -0.7181  0.4159
25476SOL    HW279927   4.987   5.705   8.012 -1.1592 -0.7491  0.4043
25477SOL     OW79928   9.539   3.436   1.659 -0.0461  0.4548 -0.0102
25477SOL    HW179929   9.609   3.481   1.706  1.4530 -1.1580 -0.5981
25477SOL    HW279930   9.485   3.396   1.727  0.3725  0.6079  0.4144
25478SOL     OW79931   9.716   7.426   4.250 -0.1771 -0.2834  0.1267
25478SOL    HW179932   9.799   7.442   4.205 -0.9017  0.9285 -0.8367
25478SOL    HW279933   9.705   7.501   4.309 -0.4413 -0.5979  0.4843
25479SOL     OW79934   8.892  10.655   5.611 -0.0851  0.0977  0.0685
25479SOL    HW179935   8.937  10.602   5.545  0.9556  0.1503  0.7130
25479SOL    HW279936   8.818  10.601   5.639  0.5126 -0.6943  0.1563
25480SOL     OW79937   7.283   0.812   7.456  0.5405  0.1644  0.0974
25480SOL    HW179938   7.378   0.804   7.459  0.3461 -3.5282  1.1865
25480SOL    HW279939   7.265   0.853   7.371  3.0290 -0.5510 -0.8622
25481SOL     OW79940   9.622   3.365   3.825  0.1441  0.6416 -0.4889
25481SOL    HW179941   9.651   3.307   3.895  0.1022 -0.4466 -1.3480
25481SOL    HW279942   9.554   3.419   3.866  1.2304  1.1482  0.7275
25482SOL     OW79943   7.679   0.895   3.362  0.5012  0.2081 -0.4333
25482SOL    HW179944   7.636   0.967   3.407  0.9383  0.6089 -0.6355
25482SOL    HW279945   7.620   0.820   3.372  0.0214  0.6080 -0.2624
25483SOL     OW79946   1.609   5.816   2.437 -0.4100 -0.0582 -0.6425
25483SOL    HW179947   1.642   5.746   2.493 -2.0704  0.1697  0.7176
25483SOL    HW279948   1.686   5.847   2.389  1.1178 -0.2713  1.5364
25484SOL     OW79949   4.012   3.010   0.080  0.3614  0.0627 -0.3983
25484SOL    HW179950   4.008   3.095   0.125 -2.0115 -0.6007  0.8368
25484SOL    HW279951   3.925   2.973   0.093  0.2910 -1.2208 -3.6701
25485SOL     OW79952   1.332   4.597  10.002  0.1648  0.1162  0.3358
25485SOL    HW179953   1.268   4.526  10.010  1.5749 -1.0891  1.5026
25485SOL    HW279954   1.417   4.553  10.011  1.1100  1.8447  0.1844
25486SOL     OW79955   9.348  10.902   7.711  0.2443 -0.3697  0.1534
25486SOL    HW179956   9.260  10.902   7.674  0.4221 -3.0057 -0.4462
25486SOL    HW279957   9.337  10.931   7.801 -0.8450  1.6137 -0.5490
25487SOL     OW79958   5.148   3.886   7.751 -0.1164  0.6076  0.2695
25487SOL    HW179959   5.080   3.821   7.735  0.2504  0.3382 -0.2203
25487SOL    HW279960   5.114   3.966   7.711  0.8230 -0.0751 -2.0996
25488SOL     OW79961   5.762  10.239   0.456  0.0740  0.3514  0.0255
25488SOL    HW179962   5.761  10.310   0.393  0.4432 -0.1102 -0.5075
25488SOL    HW279963   5.856  10.224   0.473 -0.0227  0.9773  1.2653
25489SOL     OW79964   0.948   3.982   7.028 -0.5238 -0.1948  0.1627
25489SOL    HW179965   0.956   3.918   7.098 -1.6856 -2.3592 -1.5719
25489SOL    HW279966   0.854   3.991   7.014 -0.3410  0.8892 -0.5448
25490SOL     OW79967   5.459   8.091   4.338  0.4987  0.2591 -0.1467
25490SOL    HW179968   5.484   8.004   4.370  1.4734 -0.4105 -2.4674
25490SOL    HW279969   5.379   8.075   4.287  1.0670  0.5539 -1.1628
25491SOL     OW79970   8.924   2.346   3.898 -0.0536  0.2027 -0.0154
25491SOL    HW179971   8.839   2.389   3.901 -0.4251 -0.5331  0.2387
25491SOL    HW279972   8.961   2.370   3.813 -1.2477 -0.8699 -0.8536
25492SOL     OW79973   7.178   3.017   1.161  0.8866 -0.2274  0.8045
25492SOL    HW179974   7.214   3.051   1.243 -0.9007 -1.2522  2.0768
25492SOL    HW279975   7.091   3.055   1.155  0.8823 -0.3993 -0.4932
25493SOL     OW79976   2.351   5.716  10.651 -0.6662 -0.4868 -0.6053
25493SOL    HW179977   2.258   5.718  10.629 -1.0835 -1.4386  0.8945
25493SOL    HW279978   2.384   5.802  10.627 -1.7727 -0.3860 -1.8276
25494SOL     OW79979   1.741   0.089   2.121  0.2010  0.7906  0.2674
25494SOL    HW179980   1.649   0.065   2.134  0.3646 -0.4860 -0.7342
25494SOL    HW279981   1.790   0.015   2.158  0.7974  0.7910 -0.5086
25495SOL     OW79982  10.027   0.587   4.561  0.3725  0.0183  0.1763
25495SOL    HW179983  10.076   0.669   4.567  0.7609 -0.2480  0.7139
25495SOL    HW279984  10.093   0.519   4.546 -0.0233 -0.1102 -1.1543
25496SOL     OW79985   1.672  10.072   3.862  0.4764 -0.8781  0.1142
25496SOL    HW179986   1.669   9.982   3.894  0.0636  0.3779  4.2939
25496SOL    HW279987   1.763  10.099   3.876  0.1179 -0.0695  1.0712
25497SOL     OW79988   8.562  10.242   0.653 -0.6099  0.1041  0.0982
25497SOL    HW179989   8.491  10.305   0.660 -1.3041 -0.7252  0.7020
25497SOL    HW279990   8.641  10.295   0.651 -1.1596  0.9852  0.9694
25498SOL     OW79991   1.500   7.140   7.172 -0.0869  0.2734  0.0578
25498SOL    HW179992   1.526   7.111   7.260 -1.3820  2.3145  1.1868
25498SOL    HW279993   1.451   7.066   7.136  0.1772 -0.4699  1.1642
25499SOL     OW79994   3.566   0.313   0.609 -0.0287  0.6669 -0.4210
25499SOL    HW179995   3.516   0.244   0.566 -1.2737  0.9454  0.5521
25499SOL    HW279996   3.596   0.274   0.691  0.2238  0.9350 -0.3829
25500SOL     OW79997   4.990   9.122  10.159  0.4800  0.3484  0.5628
25500SOL    HW179998   4.928   9.101  10.229  0.0327  1.3182  0.4659
25500SOL    HW279999   4.993   9.217  10.156  1.5799  0.3187  0.2031
25501SOL     OW80000   4.781   1.336   6.217  0.0278  0.1625 -0.1369
25501SOL    HW180001   4.741   1.293   6.292 -0.9207 -0.8121 -1.1637
25501SOL    HW280002   4.875   1.320   6.226 -0.0398  0.3543  1.0086
25502SOL     OW80003  10.844   1.346   6.469 -0.2152 -0.0718 -0.1344
25502SOL    HW180004  10.918   1.305   6.513 -0.8668 -1.5424 -0.3714
25502SOL    HW280005  10.830   1.294   6.390  0.2418  1.8627 -1.5868
25503SOL     OW80006   9.871  10.600   7.986  0.0299  0.6325  0.0453
25503SOL    HW180007   9.928  10.590   8.062 -1.3814  0.1574  1.0948
25503SOL    HW280008   9.884  10.520   7.935 -1.0027 -0.3653  1.2467
25504SOL     OW80009   6.083   7.087   7.679  0.1764 -0.6081 -0.0025
25504SOL    HW180010   6.008   7.085   7.738  2.1744 -1.5155  2.6690
25504SOL    HW280011   6.112   6.996   7.674  0.1433 -0.5553 -2.3965
25505SOL     OW80012   8.726   4.607   7.361 -0.1370  0.1084  0.2246
25505SOL    HW180013   8.712   4.572   7.273 -0.1213 -0.5161  0.4619
25505SOL    HW280014   8.768   4.535   7.408  0.7984  0.7918  0.4589
25506SOL     OW80015   6.815   6.524   3.589  0.5561 -0.0569 -0.0713
25506SOL    HW180016   6.724   6.530   3.562 -0.2259 -0.4071  2.2634
25506SOL    HW280017   6.822   6.440   3.634  1.5871  0.6955  1.2647
25507SOL     OW80018   2.673   6.376   7.851  0.1966 -0.2602  0.3972
25507SOL    HW180019   2.622   6.312   7.802  0.7915  0.5227 -1.3089
25507SOL    HW280020   2.608   6.434   7.889 -0.2341  0.3736 -1.2526
25508SOL     OW80021  11.008   5.943  10.715 -0.0631 -1.1264 -0.0704
25508SOL    HW180022  10.945   6.014  10.717  1.1912  0.0727 -1.2473
25508SOL    HW280023  11.013   5.913  10.806 -0.7793  0.1366  0.4059
25509SOL     OW80024   0.305   0.635   4.780 -0.1190  0.0423 -0.2892
25509SOL    HW180025   0.363   0.591   4.842  1.3795 -0.1965 -1.7581
25509SOL    HW280026   0.279   0.565   4.719 -2.8769 -0.0933  0.9128
25510SOL     OW80027   6.980   3.597   2.672  0.2297  0.3129  0.1002
25510SOL    HW180028   6.920   3.576   2.601 -0.6864  2.0498  0.3026
25510SOL    HW280029   6.959   3.688   2.695  1.0483  0.0622  2.0343
25511SOL     OW80030   3.446   0.114   7.328 -0.0653 -0.0066 -0.8774
25511SOL    HW180031   3.504   0.097   7.254 -0.5204  1.5450 -1.6243
25511SOL    HW280032   3.506   0.127   7.402  0.3542 -2.9155 -0.5957
25512SOL     OW80033   1.795   5.836   9.618 -0.4587 -0.2859  0.3898
25512SOL    HW180034   1.728   5.779   9.654 -0.2262 -1.0294 -0.3210
25512SOL    HW280035   1.831   5.788   9.544 -0.8409  1.1489 -0.7796
25513SOL     OW80036  10.130   6.354   6.938 -0.3020  0.2609  0.8037
25513SOL    HW180037  10.087   6.284   6.987  0.2090 -0.5074  0.1822
25513SOL    HW280038  10.191   6.393   7.000 -0.1363 -0.2723  0.9836
25514SOL     OW80039   7.955   5.707   2.880 -0.0296  0.4187  0.0900
25514SOL    HW180040   7.878   5.735   2.830  0.7775  1.1555 -0.7736
25514SOL    HW280041   8.029   5.744   2.833  0.9501 -1.1614  0.3067
25515SOL     OW80042   8.838   7.352   7.315  0.3009  0.0044  0.0093
25515SOL    HW180043   8.933   7.356   7.308  0.3234  2.5643  0.7522
25515SOL    HW280044   8.822   7.334   7.407  0.0368 -1.1825 -0.2552
25516SOL     OW80045   4.685   5.389   9.423 -0.1346 -0.2764 -0.3215
25516SOL    HW180046   4.778   5.401   9.441 -0.7722  1.2078  2.6273
25516SOL    HW280047   4.667   5.298   9.448  0.6123 -0.7677 -1.5162
25517SOL     OW80048   3.681   1.878   3.617  0.0227  0.2992 -0.2106
25517SOL    HW180049   3.738   1.826   3.562  0.0168  1.7995 -1.6881
25517SOL    HW280050   3.690   1.839   3.704  1.6876 -0.7686 -0.8194
25518SOL     OW80051   3.442   2.371  10.228 -0.2176  0.3507  0.1960
25518SOL    HW180052   3.382   2.311  10.274 -0.5332 -0.2094 -0.9069
25518SOL    HW280053   3.389   2.409  10.159  0.4968  0.4423 -0.3129
25519SOL     OW80054   7.623   5.836   4.362 -0.2459  0.4735  0.8858
25519SOL    HW180055   7.566   5.909   4.388 -1.2853 -0.6645  1.9178
25519SOL    HW280056   7.711   5.863   4.388 -0.5541  1.5214  0.8868
25520SOL     OW80057   7.039   4.698   5.735 -0.6030 -0.1684 -0.6026
25520SOL    HW180058   7.002   4.629   5.790 -1.8690  1.2762  0.4281
25520SOL    HW280059   7.037   4.661   5.647  0.9662 -2.3384  0.1580
25521SOL     OW80060  10.284   3.632   6.934 -0.3230 -0.0005 -0.2515
25521SOL    HW180061  10.332   3.641   7.016  2.5301 -1.1605 -1.6533
25521SOL    HW280062  10.225   3.558   6.948 -1.7737  1.4100  1.5038
25522SOL     OW80063   8.964   0.484   9.478 -0.0962  0.0291 -0.1760
25522SOL    HW180064   8.991   0.452   9.391 -2.3767 -1.9634 -0.2377
25522SOL    HW280065   8.905   0.557   9.459  0.6392  0.6256 -0.2194
25523SOL     OW80066   9.246   7.817   6.788 -0.0113  0.1697  0.1403
25523SOL    HW180067   9.274   7.909   6.787  2.5461 -0.5152 -1.0560
25523SOL    HW280068   9.271   7.785   6.701 -2.1334 -1.3357  0.0374
25524SOL     OW80069   9.571   6.933   9.212  0.2087  0.1739  0.2686
25524SOL    HW180070   9.477   6.924   9.229 -0.0911 -2.3419 -1.9976
25524SOL    HW280071   9.604   6.986   9.285 -2.8404  0.6288  1.4612
25525SOL     OW80072   6.309   4.976   5.853  0.1897 -0.2097  0.6039
25525SOL    HW180073   6.347   4.974   5.941  0.1849  1.4820  0.6625
25525SOL    HW280074   6.381   5.005   5.796 -0.4882  1.2370  0.4496
25526SOL     OW80075   9.803   5.317   5.297 -0.2647  0.1916  0.3534
25526SOL    HW180076   9.713   5.304   5.327 -0.0670 -1.8044  0.2487
25526SOL    HW280077   9.798   5.311   5.202  0.2516 -2.7118  0.4072
25527SOL     OW80078   3.538   8.817   6.893  0.1343 -0.4769 -0.1934
25527SOL    HW180079   3.627   8.838   6.865 -0.4539 -0.1497 -1.9400
25527SOL    HW280080   3.528   8.864   6.976  0.5645  2.1189 -1.5016
25528SOL     OW80081   4.517   9.583   9.897  0.4435 -0.5279  0.4264
25528SOL    HW180082   4.433   9.623   9.922  0.2869  1.3430 -2.5117
25528SOL    HW280083   4.583   9.644   9.931  0.2998  0.9293 -1.6654
25529SOL     OW80084   9.114   1.370   4.468  0.1669  0.9008  0.2086
25529SOL    HW180085   9.031   1.378   4.422  0.1799  0.8017  0.1680
25529SOL    HW280086   9.174   1.426   4.420  0.4736 -0.0901 -0.5808
25530SOL     OW80087   1.064   3.131   2.712 -0.1409 -0.2085 -0.1991
25530SOL    HW180088   1.062   3.039   2.740 -0.2895  0.1790  1.1302
25530SOL    HW280089   1.000   3.136   2.641 -1.6449 -0.7247  1.0657
25531SOL     OW80090   7.702   5.527   4.951  0.4498  1.0415 -0.0614
25531SOL    HW180091   7.633   5.464   4.935  1.5384 -0.1104 -0.3637
25531SOL    HW280092   7.730   5.555   4.864 -2.0724  4.3601  0.0107
25532SOL     OW80093   3.806   0.491   2.245 -0.3495 -0.9534  0.3568
25532SOL    HW180094   3.783   0.547   2.320 -1.9246 -1.5228  0.3374
25532SOL    HW280095   3.818   0.552   2.173 -1.5256 -0.5837  0.4573
25533SOL     OW80096   6.244   9.673   0.967  0.2791  0.1752 -0.0654
25533SOL    HW180097   6.188   9.612   1.015 -0.2405 -2.0094 -3.1790
25533SOL    HW280098   6.210   9.759   0.990 -1.8739 -0.9008  1.0930
25534SOL     OW80099   6.026   0.335   9.092 -0.2261  0.0672  0.0361
25534SOL    HW180100   6.099   0.390   9.120  0.5748 -1.2346  0.5803
25534SOL    HW280101   6.065   0.275   9.027 -0.6634 -1.0021  0.7395
25535SOL     OW80102   5.330   9.985   0.773  0.1762 -0.1605  1.2073
25535SOL    HW180103   5.347   9.933   0.851  2.0419 -0.6594  0.5295
25535SOL    HW280104   5.417   9.997   0.733 -0.6967  0.2426 -0.6753
25536SOL     OW80105   8.381   3.071   4.774 -0.1202  0.4909  0.0084
25536SOL    HW180106   8.453   3.032   4.824 -0.7684 -1.2849 -0.3750
25536SOL    HW280107   8.396   3.165   4.780  0.5449  0.3042  2.4700
25537SOL     OW80108   8.795   3.276   7.147 -0.1847  0.6303  0.8097
25537SOL    HW180109   8.810   3.362   7.109 -0.5657 -0.3413 -1.7801
25537SOL    HW280110   8.706   3.252   7.119  0.7993 -1.5858 -0.7596
25538SOL     OW80111   4.764  10.500   4.648 -0.1870 -0.3497 -0.4227
25538SOL    HW180112   4.746  10.445   4.725 -0.6117  0.4868  0.0808
25538SOL    HW280113   4.703  10.469   4.582 -2.8465  1.6854  0.8978
25539SOL     OW80114   0.953   2.286   3.426  0.4248 -0.0767 -0.6080
25539SOL    HW180115   0.934   2.200   3.462  3.5307  0.0961  1.8378
25539SOL    HW280116   1.021   2.271   3.360 -0.3336  0.3535 -1.5161
25540SOL     OW80117   7.757   8.797  10.121  0.0506 -0.2448  0.3961
25540SOL    HW180118   7.765   8.802  10.026 -0.4093 -0.0160  0.3689
25540SOL    HW280119   7.845   8.770  10.151 -0.4533 -3.0213 -0.2874
25541SOL     OW80120   9.213   1.843   3.177  0.1488  0.1881  0.6339
25541SOL    HW180121   9.163   1.776   3.223  0.3816  0.2843  1.0252
25541SOL    HW280122   9.157   1.867   3.102  0.7747 -1.6433 -0.4908
25542SOL     OW80123   0.398   4.732   5.638  0.1906 -0.1745  0.5079
25542SOL    HW180124   0.318   4.744   5.586 -0.3002  1.5141  1.5657
25542SOL    HW280125   0.458   4.686   5.580 -0.6872  0.7626 -1.2074
25543SOL     OW80126   6.646   0.964   8.880  0.7778 -0.1570  0.2309
25543SOL    HW180127   6.634   0.964   8.785 -0.7946  0.5915  0.4056
25543SOL    HW280128   6.586   0.897   8.913  0.0989  0.7115  0.8106
25544SOL     OW80129   2.166   8.463   0.249 -0.6507 -0.3569  0.2644
25544SOL    HW180130   2.246   8.478   0.299 -0.5037 -0.9199  0.2059
25544SOL    HW280131   2.197   8.431   0.164 -0.8702  1.0906 -0.3944
25545SOL     OW80132   9.225   9.769   2.757 -0.1329  0.3851  0.1181
25545SOL    HW180133   9.252   9.764   2.848 -1.3771  0.7333  0.5231
25545SOL    HW280134   9.293   9.821   2.714  1.3277 -1.1429  0.4787
25546SOL     OW80135   9.371   5.908   7.101  0.2116  0.1515 -0.6231
25546SOL    HW180136   9.404   5.957   7.026  0.0257  0.3130 -0.6005
25546SOL    HW280137   9.331   5.974   7.157  0.7894  0.1022 -0.1413
25547SOL     OW80138   4.425   6.291   6.445 -0.6940  0.0599  0.4104
25547SOL    HW180139   4.449   6.332   6.529 -1.5899 -0.4640  0.9376
25547SOL    HW280140   4.439   6.360   6.380  3.1419 -0.4308  0.4700
25548SOL     OW80141   4.081   4.347   8.121 -0.6083  0.4833  0.1130
25548SOL    HW180142   4.023   4.286   8.166  1.4493 -1.2936  0.5558
25548SOL    HW280143   4.032   4.376   8.044 -1.9965 -1.0703  0.3686
25549SOL     OW80144   7.800  10.410   0.323  0.0210  0.0539  0.5878
25549SOL    HW180145   7.761  10.452   0.399  1.1545  0.2227  1.1039
25549SOL    HW280146   7.850  10.337   0.359 -0.6865 -0.8139 -0.1573
25550SOL     OW80147   0.349   5.131   0.692  0.2864  0.6026 -0.5192
25550SOL    HW180148   0.285   5.084   0.638  0.9604 -0.7284 -0.1958
25550SOL    HW280149   0.308   5.138   0.778  0.6413 -0.4420 -0.2531
25551SOL     OW80150   3.899   7.614   1.457  0.7127 -0.1729 -0.2172
25551SOL    HW180151   3.967   7.568   1.506  1.3401 -0.3603 -1.2426
25551SOL    HW280152   3.824   7.616   1.517  1.5021 -0.2591  0.8021
25552SOL     OW80153   8.052   2.391   4.692  0.0580 -0.0583  0.0416
25552SOL    HW180154   8.047   2.432   4.606 -0.9426  0.7081  0.4391
25552SOL    HW280155   7.962   2.365   4.711  0.3125 -0.4535  0.7507
25553SOL     OW80156  10.201   2.194   0.303  0.2757 -0.1888 -0.3416
25553SOL    HW180157  10.234   2.122   0.357 -1.5063  0.1772  1.3753
25553SOL    HW280158  10.232   2.273   0.347 -1.1165  0.1178  0.1536
25554SOL     OW80159   5.718   6.394   8.581 -0.3056  0.6883  0.1152
25554SOL    HW180160   5.646   6.453   8.606  0.0760  1.6992 -1.0307
25554SOL    HW280161   5.701   6.375   8.488  0.8620  0.8914 -0.1464
25555SOL     OW80162   3.700   6.954   8.852 -0.1529  0.5454 -0.2105
25555SOL    HW180163   3.711   6.970   8.759 -1.3979  1.0629 -0.2949
25555SOL    HW280164   3.652   6.871   8.857  0.7281  0.0320  0.0182
25556SOL     OW80165  10.106   5.608   7.722  0.3768 -1.0562  0.8476
25556SOL    HW180166  10.169   5.547   7.760  0.9514 -1.4738 -0.6905
25556SOL    HW280167  10.141   5.627   7.635  1.3462  3.1387  1.9334
25557SOL     OW80168   6.036   1.683   7.343 -0.1604 -0.3674 -0.0764
25557SOL    HW180169   6.063   1.703   7.253 -0.9601  1.0442 -0.0305
25557SOL    HW280170   6.067   1.757   7.394  0.6907 -1.3720  0.9233
25558SOL     OW80171   0.428   0.410   6.011  0.0352  0.1400 -0.0910
25558SOL    HW180172   0.438   0.493   5.964  2.0006 -0.2927 -0.5357
25558SOL    HW280173   0.398   0.348   5.944  0.3728  0.0875 -0.1960
25559SOL     OW80174   9.876   9.318   1.268 -0.2922 -0.0429 -0.0799
25559SOL    HW180175   9.865   9.282   1.180 -1.3468  0.9594 -0.3836
25559SOL    HW280176   9.966   9.350   1.270 -0.1634 -0.3640 -0.6881
25560SOL     OW80177   2.016   5.298   4.359 -0.2541 -0.2880 -0.4514
25560SOL    HW180178   1.932   5.256   4.375 -1.7115  1.6712 -2.4078
25560SOL    HW280179   2.013   5.379   4.410  0.1191  0.1262 -1.0649
25561SOL     OW80180   3.910   9.816   3.218 -0.0544  0.2509  0.1594
25561SOL    HW180181   3.990   9.868   3.211  0.6493 -0.4345  2.3013
25561SOL    HW280182   3.842   9.880   3.243  0.3903  0.4561  0.8772
25562SOL     OW80183  10.474   6.803   2.961 -0.2908  0.3360 -0.2367
25562SOL    HW180184  10.552   6.793   2.907 -0.0437 -0.5237  0.2755
25562SOL    HW280185  10.475   6.728   3.020 -0.7508  1.0615  0.7278
25563SOL     OW80186   4.739  10.563   9.564  0.4026  0.0125  0.6199
25563SOL    HW180187   4.835  10.561   9.566  0.6198  1.5548 -2.1513
25563SOL    HW280188   4.717  10.656   9.570 -0.6522  0.0155 -1.8709
25564SOL     OW80189  10.369   8.576   0.508  0.2677 -0.6648 -0.2970
25564SOL    HW180190  10.317   8.515   0.456  0.4398 -0.2946 -0.9239
25564SOL    HW280191  10.414   8.631   0.443 -0.5477  0.6963  0.2313
25565SOL     OW80192   1.243   9.180   8.406 -0.0072 -0.0171  0.0015
25565SOL    HW180193   1.202   9.256   8.448 -1.5315  0.0788 -1.5830
25565SOL    HW280194   1.195   9.105   8.440  0.7524 -0.2231  0.6827
25566SOL     OW80195   5.839   6.118   6.382  0.3406 -0.9111  0.2973
25566SOL    HW180196   5.765   6.073   6.423 -0.0543 -0.0659  0.5352
25566SOL    HW280197   5.833   6.208   6.414  0.1485 -0.2639 -1.4575
25567SOL     OW80198   4.558  10.659   5.549 -0.1568 -0.1953 -0.6264
25567SOL    HW180199   4.619  10.710   5.601  1.5536 -1.9592 -0.7783
25567SOL    HW280200   4.513  10.723   5.494  0.6006  1.2985  0.4392
25568SOL     OW80201   7.503   8.650   9.979 -0.3354 -0.0425 -0.1491
25568SOL    HW180202   7.583   8.698  10.002 -0.7797  0.7709 -0.2425
25568SOL    HW280203   7.477   8.607  10.060  0.0683 -0.1210 -0.0567
25569SOL     OW80204   7.487   3.806   3.991 -0.1640 -0.5378 -0.1576
25569SOL    HW180205   7.562   3.862   3.973 -1.7950  1.6437 -0.4950
25569SOL    HW280206   7.453   3.836   4.075 -0.9501 -1.1733 -0.2312
25570SOL     OW80207   3.091   0.208   2.628 -0.0142  0.8658 -0.7069
25570SOL    HW180208   3.115   0.142   2.693 -0.2060  0.4306 -1.0720
25570SOL    HW280209   3.099   0.292   2.674 -1.5863  0.4799  0.3236
25571SOL     OW80210   9.755   4.136   2.818  0.0771  0.3009 -0.2136
25571SOL    HW180211   9.709   4.217   2.798  0.2121  0.4894  0.2074
25571SOL    HW280212   9.693   4.085   2.869  0.2843  0.5039  0.2509
25572SOL     OW80213   8.836  10.980   2.122 -0.0650  0.2281  0.3376
25572SOL    HW180214   8.890  11.001   2.047  1.1321  0.7666  1.3144
25572SOL    HW280215   8.872  11.033   2.194 -0.3033 -1.2556  1.6092
25573SOL     OW80216   9.926   8.743   1.645 -0.2259 -0.1027  0.8218
25573SOL    HW180217   9.895   8.669   1.697 -1.8040  0.4318  0.6835
25573SOL    HW280218   9.902   8.722   1.555  1.2271 -0.3665  0.4558
25574SOL     OW80219   2.218   7.210   7.327  0.5102  0.2163  0.8123
25574SOL    HW180220   2.231   7.117   7.311  0.0860  0.0164  1.6294
25574SOL    HW280221   2.123   7.222   7.331  0.5783  0.4378  2.1007
25575SOL     OW80222   9.461   0.295   1.197 -0.6835  0.1837 -0.0343
25575SOL    HW180223   9.445   0.353   1.272 -0.2843 -0.4142  0.5154
25575SOL    HW280224   9.442   0.350   1.120 -1.8128  0.5833  0.5033
25576SOL     OW80225   1.670   9.697   1.546  0.0149  0.3998  0.7910
25576SOL    HW180226   1.690   9.758   1.475 -0.8494 -1.3558 -1.0551
25576SOL    HW280227   1.625   9.750   1.612  0.5756  2.0173 -0.0783
25577SOL     OW80228   5.447   2.056   4.568  0.6279  0.5956 -0.0319
25577SOL    HW180229   5.354   2.048   4.591  0.8914 -0.5186  0.7731
25577SOL    HW280230   5.480   2.125   4.625  0.8834 -0.9484  1.8036
25578SOL     OW80231   8.725   9.220   9.214  0.5542  1.0596 -0.5060
25578SOL    HW180232   8.770   9.242   9.295  0.0568  2.3304 -0.5599
25578SOL    HW280233   8.792   9.178   9.160  0.7228 -0.4562  0.8038
25579SOL     OW80234   8.486   4.075   7.601 -0.6879 -0.5926  0.5578
25579SOL    HW180235   8.477   4.074   7.696 -1.9177 -0.0111  0.4604
25579SOL    HW280236   8.580   4.084   7.586 -0.5286 -0.1676  1.7248
25580SOL     OW80237   0.362   2.461   0.761  0.4452  0.4343  0.4579
25580SOL    HW180238   0.373   2.381   0.711  0.5547  1.5656 -1.4187
25580SOL    HW280239   0.291   2.442   0.822  0.2217 -0.9571 -0.2106
25581SOL     OW80240   0.458   9.653   3.801  0.0524 -0.1927  0.0944
25581SOL    HW180241   0.542   9.622   3.767  0.2690  0.5212 -0.0516
25581SOL    HW280242   0.471   9.659   3.895 -0.0794 -0.7960  0.1524
25582SOL     OW80243   5.783   2.616   5.450 -0.6701 -0.2165 -0.2712
25582SOL    HW180244   5.870   2.637   5.486 -0.8937  1.1249 -0.4633
25582SOL    HW280245   5.796   2.533   5.404  0.2507 -0.5977  0.6123
25583SOL     OW80246   5.853   9.000   9.939  0.3095  0.6232  0.1547
25583SOL    HW180247   5.788   9.034  10.001 -0.3120 -2.3171  1.2892
25583SOL    HW280248   5.931   8.985   9.993  0.8574  1.0612 -0.5032
25584SOL     OW80249  10.976   9.764   2.267 -0.1486  0.2127 -0.6477
25584SOL    HW180250  10.881   9.759   2.266 -0.1664  0.3193 -0.0920
25584SOL    HW280251  10.998   9.834   2.206 -0.4874  0.9436  0.0518
25585SOL     OW80252   4.208   0.323   3.902  0.2574 -0.0034 -0.4524
25585SOL    HW180253   4.255   0.318   3.985 -1.9414 -1.8068  0.8170
25585SOL    HW280254   4.246   0.398   3.856  2.7735 -0.0672  1.3702
25586SOL     OW80255   0.108   8.573   8.195  0.4852 -0.2634 -0.2265
25586SOL    HW180256   0.065   8.613   8.120 -0.2420  0.4693  0.5536
25586SOL    HW280257   0.124   8.646   8.255  1.8837 -0.6856 -0.0511
25587SOL     OW80258   5.413   4.292   0.274  0.0027 -0.3085  0.3358
25587SOL    HW180259   5.391   4.247   0.193  1.8885  0.4665 -0.6888
25587SOL    HW280260   5.416   4.224   0.340  0.1700 -1.2624 -0.6325
25588SOL     OW80261   6.743   3.938  10.830  0.1272  0.3028 -0.0455
25588SOL    HW180262   6.774   3.942  10.921 -1.1987 -0.1069  0.4360
25588SOL    HW280263   6.739   3.845  10.810  1.3170  0.4007 -0.8692
25589SOL     OW80264   5.342   4.310   6.955  0.2654  0.3242 -0.7442
25589SOL    HW180265   5.324   4.321   7.049  1.1606  3.9909 -0.8598
25589SOL    HW280266   5.269   4.257   6.923 -1.4869  1.1520  1.5883
25590SOL     OW80267   7.080  10.697   2.125 -0.5177 -0.1508  0.4434
25590SOL    HW180268   7.006  10.644   2.093  1.6588 -2.6761 -0.7923
25590SOL    HW280269   7.106  10.749   2.049 -0.0378 -0.4904  0.3706
25591SOL     OW80270  10.920  10.573   0.455 -0.3102  0.5902  0.4556
25591SOL    HW180271  10.915  10.495   0.510 -1.2430  0.6624  0.4830
25591SOL    HW280272  11.002  10.561   0.406 -1.4042 -1.4449 -1.0558
25592SOL     OW80273   0.819   4.417   0.104 -0.1295 -0.1564 -0.1568
25592SOL    HW180274   0.876   4.492   0.085  0.0781 -0.7056 -1.7897
25592SOL    HW280275   0.841   4.393   0.194  0.2765  1.3171  0.1714
25593SOL     OW80276  10.453   6.559   3.645 -0.3908  0.1006  0.2649
25593SOL    HW180277  10.369   6.552   3.690 -0.6550  0.1538 -0.2130
25593SOL    HW280278  10.498   6.477   3.666 -1.4220 -0.8772 -1.1708
25594SOL     OW80279   0.508   4.245   1.472  0.3742  0.1079 -0.0080
25594SOL    HW180280   0.463   4.171   1.515 -0.0508  0.0188 -0.5855
25594SOL    HW280281   0.451   4.320   1.489 -1.0635 -0.3478 -2.3504
25595SOL     OW80282   0.300   6.824  10.436  0.3574 -0.1351  0.0733
25595SOL    HW180283   0.310   6.795  10.345  2.5959 -0.8525  0.4794
25595SOL    HW280284   0.208   6.809  10.455 -0.7680  2.2001 -2.7478
25596SOL     OW80285   8.652   4.705   4.113 -0.0306 -0.4283 -0.4239
25596SOL    HW180286   8.650   4.672   4.023  0.3988  0.2121 -0.6703
25596SOL    HW280287   8.565   4.743   4.127  1.1799  3.3499 -2.0582
25597SOL     OW80288   2.264   6.750   7.584  0.0360 -0.2485  0.0959
25597SOL    HW180289   2.302   6.837   7.598  0.3288 -0.5017  0.9479
25597SOL    HW280290   2.278   6.704   7.667  2.8497 -2.2211 -1.2834
25598SOL     OW80291   3.759   7.975   4.259  0.1407  0.2980 -0.2250
25598SOL    HW180292   3.793   7.916   4.326  0.8872 -0.0256 -0.8760
25598SOL    HW280293   3.711   8.042   4.308  0.7629  0.1259  0.6433
25599SOL     OW80294   4.850   9.278   1.368  0.1535 -0.0906  0.1206
25599SOL    HW180295   4.850   9.242   1.457 -0.6925  0.0658  0.1856
25599SOL    HW280296   4.936   9.254   1.333 -0.8061 -3.2682 -0.2945
25600SOL     OW80297   9.006   4.159   2.932  0.1554 -0.4979  0.8788
25600SOL    HW180298   9.051   4.077   2.952  0.6052 -0.4930 -0.0345
25600SOL    HW280299   8.975   4.191   3.017 -2.2847 -2.8531  1.0174
25601SOL     OW80300   1.797   3.240   3.004 -0.3896 -0.2407 -0.1606
25601SOL    HW180301   1.767   3.264   2.916  0.7669  0.3069 -0.4211
25601SOL    HW280302   1.890   3.263   3.005 -0.5112  0.2707  1.4017
25602SOL     OW80303   9.939   2.587   3.768 -0.1738 -0.0288 -0.1309
25602SOL    HW180304   9.927   2.681   3.757 -0.3772  0.0152  0.4440
25602SOL    HW280305   9.850   2.552   3.771 -0.1796  0.0292  1.8708
25603SOL     OW80306   7.065   3.594   1.475 -0.5260  0.4747 -0.3436
25603SOL    HW180307   7.145   3.591   1.424 -0.3684  1.3372 -0.1491
25603SOL    HW280308   6.996   3.566   1.414 -0.1775  0.3579 -0.6857
25604SOL     OW80309   4.644   7.197   3.040  0.6558 -0.6034 -0.2898
25604SOL    HW180310   4.698   7.236   3.107 -0.3853  0.2142  0.1000
25604SOL    HW280311   4.554   7.202   3.074 -0.0823  1.0579 -2.2668
25605SOL     OW80312   4.272   9.687   1.782  0.2128 -0.1278  0.3875
25605SOL    HW180313   4.291   9.710   1.873 -0.7216  1.2363  0.2659
25605SOL    HW280314   4.329   9.612   1.764  1.1434  0.2021  1.7766
25606SOL     OW80315   2.631  10.309   4.539  0.1030  0.0320 -0.4539
25606SOL    HW180316   2.611  10.339   4.627 -2.0073 -1.6860 -0.2696
25606SOL    HW280317   2.712  10.355   4.516 -0.3497  2.0267  1.5821
25607SOL     OW80318   3.136   1.723   6.361  0.3607  0.0235  0.1004
25607SOL    HW180319   3.056   1.703   6.409  0.0436  0.4755 -0.2391
25607SOL    HW280320   3.131   1.667   6.283  0.4446 -0.0493  0.1471
25608SOL     OW80321   0.100   1.482   0.615 -0.4478 -0.1683  0.3649
25608SOL    HW180322   0.050   1.409   0.653 -0.8118 -0.4676 -0.6622
25608SOL    HW280323   0.044   1.515   0.545 -0.1040  0.8499  0.5541
25609SOL     OW80324   4.464   7.319   2.432  0.2334  0.2284  0.3153
25609SOL    HW180325   4.391   7.303   2.372 -1.0133  0.1994  1.7442
25609SOL    HW280326   4.500   7.404   2.405  0.7618 -0.5314 -1.4389
25610SOL     OW80327   0.784  10.598   3.097 -0.1841  0.5254  0.1062
25610SOL    HW180328   0.820  10.682   3.070 -0.3873  0.1265 -1.4962
25610SOL    HW280329   0.712  10.620   3.156 -0.7873  1.5286 -0.9636
25611SOL     OW80330   5.924   8.994   7.047  0.4057  0.5981 -0.2114
25611SOL    HW180331   5.870   8.917   7.030  0.6189  0.7072 -1.4786
25611SOL    HW280332   5.861   9.066   7.052  0.3075  0.5113 -0.1907
25612SOL     OW80333   3.249   9.911   6.045 -0.0588 -0.3911  0.2353
25612SOL    HW180334   3.269   9.944   5.957 -3.2146 -0.7164 -0.7120
25612SOL    HW280335   3.223   9.989   6.094 -0.3390 -0.4846  0.2376
25613SOL     OW80336   9.312   4.685   4.932  0.0381 -0.4100 -0.0483
25613SOL    HW180337   9.338   4.692   4.840  0.8189 -0.7892  0.1291
25613SOL    HW280338   9.393   4.700   4.980 -0.0446 -1.6871  0.5385
25614SOL     OW80339   6.653   4.668  10.631  0.1294  0.2129  0.1382
25614SOL    HW180340   6.656   4.577  10.600 -0.1889  0.6861 -1.3604
25614SOL    HW280341   6.705   4.717  10.567 -0.6923  1.2677  0.2491
25615SOL     OW80342   6.146   8.639   0.755  0.1031  0.1054 -0.0565
25615SOL    HW180343   6.209   8.656   0.685 -0.3566  0.8819 -0.3020
25615SOL    HW280344   6.123   8.547   0.745 -0.1635  0.2744 -1.1188
25616SOL     OW80345   8.114   4.459  10.848  0.0306 -0.0294  0.2151
25616SOL    HW180346   8.195   4.422  10.883 -1.3153 -2.1028  1.2933
25616SOL    HW280347   8.076   4.508  10.921 -0.1213  0.2233 -0.0307
25617SOL     OW80348   0.114   9.790   8.100  0.4384 -0.0583 -0.4522
25617SOL    HW180349   0.082   9.700   8.101 -0.8036  0.3720  0.5047
25617SOL    HW280350   0.179   9.791   8.030 -2.2809 -0.7489 -3.2145
25618SOL     OW80351   5.424   8.261   5.514  0.1871  0.0335  0.5382
25618SOL    HW180352   5.445   8.315   5.437 -0.8635 -1.5563 -0.9266
25618SOL    HW280353   5.354   8.309   5.558  1.0692  1.1578  0.7681
25619SOL     OW80354   3.779   2.209   3.780 -0.2864  0.5498  0.2800
25619SOL    HW180355   3.696   2.257   3.787 -1.5935 -1.4157 -0.8546
25619SOL    HW280356   3.782   2.155   3.859 -0.8543 -0.4485 -0.3540
25620SOL     OW80357   8.840   6.431   0.242  0.2120 -0.2632 -0.6702
25620SOL    HW180358   8.777   6.497   0.214 -0.0287 -0.8371 -1.5414
25620SOL    HW280359   8.814   6.352   0.194  1.6027 -0.5043 -1.0609
25621SOL     OW80360   2.212   9.776   3.001  0.0872  0.3247 -0.1231
25621SOL    HW180361   2.287   9.756   2.944 -0.4457 -0.9973 -0.4106
25621SOL    HW280362   2.251   9.820   3.076  1.2100 -0.5438 -0.1578
25622SOL     OW80363  10.265   3.446  10.948 -0.2674 -0.0152 -0.5817
25622SOL    HW180364  10.263   3.380  11.017  0.6741 -0.0927 -0.6172
25622SOL    HW280365  10.175   3.450  10.916 -0.6466 -0.2046  0.4331
25623SOL     OW80366   8.479   8.713   4.497 -0.0448 -0.3811 -0.4664
25623SOL    HW180367   8.525   8.673   4.571 -0.5662  0.9777  0.6483
25623SOL    HW280368   8.386   8.707   4.521 -0.2508 -0.3532 -1.2395
25624SOL     OW80369   1.115   3.174   3.166 -0.1374  0.5145  0.0565
25624SOL    HW180370   1.113   3.086   3.205 -1.9129  0.7598  0.6508
25624SOL    HW280371   1.059   3.226   3.224 -0.1889  1.7005 -1.0306
25625SOL     OW80372   3.522   7.521   0.014  0.1455 -0.1548  0.4113
25625SOL    HW180373   3.500   7.613   0.032  0.1316 -0.1890  0.5779
25625SOL    HW280374   3.600   7.525  -0.040 -0.2888 -0.0309 -0.2166
25626SOL     OW80375   2.418   7.765   6.286  0.6191  0.1547 -0.3055
25626SOL    HW180376   2.357   7.762   6.213 -0.7295 -1.0290  0.8019
25626SOL    HW280377   2.491   7.709   6.259 -0.3536 -1.1177 -0.3708
25627SOL     OW80378   9.779   5.475   9.515  0.4766  0.6468  0.4501
25627SOL    HW180379   9.786   5.433   9.601  1.4587  1.7872  0.9570
25627SOL    HW280380   9.826   5.417   9.456  0.6755  0.3615  0.8844
25628SOL     OW80381   3.736   1.532   6.725 -0.0016 -0.0119  0.0438
25628SOL    HW180382   3.793   1.607   6.711 -0.0867 -0.1107 -0.9245
25628SOL    HW280383   3.760   1.471   6.655 -0.6607 -0.4395  0.1856
25629SOL     OW80384  10.265   0.339   0.165 -0.0481  0.0792  0.0171
25629SOL    HW180385  10.350   0.324   0.207  0.2584  0.6105 -0.4064
25629SOL    HW280386  10.228   0.414   0.212 -0.6674 -0.6667  0.7592
25630SOL     OW80387   5.038   4.472   8.303  1.0134  0.5580  0.2529
25630SOL    HW180388   5.132   4.476   8.287  1.6345 -1.4065  2.7460
25630SOL    HW280389   5.029   4.474   8.399 -1.4283 -0.1121  0.1192
25631SOL     OW80390   0.165  10.623   7.175 -0.6036 -0.3228  0.3493
25631SOL    HW180391   0.160  10.618   7.271 -0.1670  2.3002  0.5799
25631SOL    HW280392   0.258  10.608   7.155 -0.2922  1.1716  0.5610
25632SOL     OW80393   2.055   5.962   8.198 -0.5118  0.0697 -0.7256
25632SOL    HW180394   2.128   6.010   8.237  0.2242 -0.9235 -0.8456
25632SOL    HW280395   1.981   5.981   8.255  0.2140 -0.2007  0.3402
25633SOL     OW80396   6.710   7.155   4.203  0.5693  0.1401 -0.2710
25633SOL    HW180397   6.797   7.125   4.176  0.7886  1.1275 -0.7157
25633SOL    HW280398   6.719   7.250   4.210 -0.7488  0.3916 -1.4224
25634SOL     OW80399   6.656   0.139   5.935  0.1025  0.4790 -0.4445
25634SOL    HW180400   6.700   0.111   6.015  1.7872 -1.4213 -1.9313
25634SOL    HW280401   6.598   0.066   5.913 -2.4594  2.1095  0.3952
25635SOL     OW80402  10.080   8.209   4.959 -0.1772 -0.0316  0.3666
25635SOL    HW180403  10.067   8.290   5.008  0.3992  0.4231 -0.2032
25635SOL    HW280404  10.007   8.153   4.984 -0.4309  0.5613  0.9801
25636SOL     OW80405   4.900  10.017   8.174 -0.6165  0.3403 -0.4337
25636SOL    HW180406   4.963  10.021   8.102 -1.5000 -2.0578 -1.4632
25636SOL    HW280407   4.815  10.004   8.130 -0.9270 -3.4742  0.9344
25637SOL     OW80408   5.515   8.471   0.055 -0.0911  0.1355  0.4752
25637SOL    HW180409   5.493   8.549   0.106  0.5308 -0.1955  1.2717
25637SOL    HW280410   5.431   8.427   0.040 -0.3852  0.7084  0.4263
25638SOL     OW80411   4.490   5.972   0.679 -0.3771  0.0737 -0.2796
25638SOL    HW180412   4.509   5.899   0.737 -1.0817 -0.4737 -0.7209
25638SOL    HW280413   4.572   5.987   0.631  0.3432  0.8050  1.1183
25639SOL     OW80414   9.117   0.143   8.028  0.3731 -0.2539 -0.1758
25639SOL    HW180415   9.070   0.060   8.020 -0.4653  0.2372 -0.4780
25639SOL    HW280416   9.208   0.121   8.007 -0.0859 -0.8289 -1.6726
25640SOL     OW80417   8.258   6.111   7.166 -0.0899 -0.4583  0.2911
25640SOL    HW180418   8.197   6.184   7.156 -0.2365 -0.5045  0.8097
25640SOL    HW280419   8.205   6.041   7.204 -0.1330 -1.0929 -0.8790
25641SOL     OW80420   9.449   2.273   4.999  0.0002 -0.4606 -0.3414
25641SOL    HW180421   9.492   2.342   4.947  0.6463  0.5172  1.4107
25641SOL    HW280422   9.380   2.240   4.941 -0.0682  1.3759 -1.4127
25642SOL     OW80423   4.994   1.295  10.767 -0.2523  0.1882  0.5587
25642SOL    HW180424   4.968   1.295  10.859  0.8232 -0.1681  0.8770
25642SOL    HW280425   5.018   1.204  10.749  0.9239  0.5348  0.3308
25643SOL     OW80426   8.693   3.164   9.050  0.1988 -0.2413 -0.0705
25643SOL    HW180427   8.757   3.102   9.016  0.1361 -0.7915  0.7894
25643SOL    HW280428   8.616   3.111   9.069  0.3010 -0.0016  1.1055
25644SOL     OW80429   3.109   6.920  10.056 -0.2335 -0.0772 -0.6386
25644SOL    HW180430   3.113   7.002  10.007  1.5208  1.1629  1.4294
25644SOL    HW280431   3.021   6.918  10.092 -0.4132  0.7265 -1.0053
25645SOL     OW80432   6.642   9.413   2.510 -0.0642 -0.3447  0.1019
25645SOL    HW180433   6.655   9.331   2.462 -2.7479  0.0520 -1.5241
25645SOL    HW280434   6.686   9.479   2.456 -0.0920 -0.3746  0.0420
25646SOL     OW80435   2.883   2.000  10.004  0.4711 -0.1311 -0.0431
25646SOL    HW180436   2.943   2.061  10.047  0.7550  0.2093 -0.9153
25646SOL    HW280437   2.917   1.990   9.916 -0.8183  0.1703 -0.5977
25647SOL     OW80438   7.440   4.266   8.078 -0.4029 -0.4070  0.2018
25647SOL    HW180439   7.471   4.199   8.017 -1.4447  0.3914 -1.2727
25647SOL    HW280440   7.347   4.272   8.061 -0.4147  1.0507  0.6783
25648SOL     OW80441   7.426   4.297   4.404  0.0361 -0.3533  0.1340
25648SOL    HW180442   7.430   4.262   4.493  0.3355  0.5195  0.4670
25648SOL    HW280443   7.332   4.300   4.384 -0.0020 -1.2203  0.1420
25649SOL     OW80444   2.074   5.023   0.138  0.4885 -0.9909 -0.2621
25649SOL    HW180445   2.160   5.037   0.177  1.3839 -0.5975 -2.2357
25649SOL    HW280446   2.016   5.084   0.183  2.0047  1.2966 -1.2574
25650SOL     OW80447  10.911   0.382   4.034  0.0298 -0.7042  0.1855
25650SOL    HW180448  10.999   0.344   4.033  0.5097  0.3294 -1.4905
25650SOL    HW280449  10.926   0.476   4.025 -1.2121 -0.3157  1.7051
25651SOL     OW80450   8.330   2.962   9.944 -0.1626  0.5037  0.2697
25651SOL    HW180451   8.291   2.875   9.935  0.7625  0.1328 -0.2094
25651SOL    HW280452   8.302   3.009   9.865 -1.4016  0.9504  0.9494
25652SOL     OW80453   8.889   6.361   7.016  0.3813  0.2633 -0.2980
25652SOL    HW180454   8.954   6.431   7.013 -0.4904  1.0803 -0.3419
25652SOL    HW280455   8.805   6.406   7.018 -0.1957 -0.7853 -0.3587
25653SOL     OW80456   9.362   9.107   2.327  0.0107  0.8821  0.0862
25653SOL    HW180457   9.289   9.079   2.271  0.5849  0.9988 -0.7282
25653SOL    HW280458   9.361   9.203   2.322 -0.1849  0.9094  0.6027
25654SOL     OW80459   4.927   8.642   6.411 -0.0555  0.2570  0.3789
25654SOL    HW180460   4.876   8.621   6.333 -1.0043 -1.3317  1.3826
25654SOL    HW280461   5.007   8.682   6.377 -0.7971  0.3597 -1.3556
25655SOL     OW80462   6.857   9.849   6.357 -0.4400 -0.1207 -0.2813
25655SOL    HW180463   6.870   9.938   6.392 -2.1207 -0.3421  1.0232
25655SOL    HW280464   6.937   9.802   6.383 -0.6311  0.3564  1.2822
25656SOL     OW80465   9.115   3.102   5.278  0.4182 -0.5802  0.0397
25656SOL    HW180466   9.128   3.088   5.184  1.3738 -4.3569  0.5481
25656SOL    HW280467   9.164   3.031   5.319 -1.1367  0.0875  3.3609
25657SOL     OW80468   8.174   6.091   9.422 -0.0711  0.4523  0.3673
25657SOL    HW180469   8.147   6.175   9.459 -0.0111  0.9634 -0.7240
25657SOL    HW280470   8.094   6.038   9.422 -0.5114  1.0907 -0.4936
25658SOL     OW80471   0.486   8.032   8.595 -0.0227 -0.2242 -0.1911
25658SOL    HW180472   0.408   8.066   8.552 -0.3231  0.4958  0.8812
25658SOL    HW280473   0.458   8.015   8.685  0.1118 -3.3483 -0.6339
25659SOL     OW80474   1.534   6.983   6.061 -0.3198 -0.1912  0.2320
25659SOL    HW180475   1.527   6.907   6.003 -0.0959  0.0263 -0.0835
25659SOL    HW280476   1.489   7.053   6.014 -0.0060  0.0255  0.2504
25660SOL     OW80477   1.492   8.256  10.086  0.8457 -0.8722 -0.1764
25660SOL    HW180478   1.433   8.218  10.151 -0.1376  1.1431  0.2055
25660SOL    HW280479   1.567   8.196  10.083  1.8997 -0.1845  4.2661
25661SOL     OW80480   7.983   1.583   0.300  0.1897 -0.0804  0.8536
25661SOL    HW180481   7.930   1.534   0.363 -0.0351  1.1006  1.6086
25661SOL    HW280482   7.930   1.659   0.278  0.2243 -0.5024 -0.8618
25662SOL     OW80483   8.015  10.210   6.102  0.0834 -0.7252  0.6596
25662SOL    HW180484   7.951  10.179   6.038 -2.1131  0.9977  1.9036
25662SOL    HW280485   8.018  10.141   6.168 -2.0358 -0.0464  1.5642
25663SOL     OW80486   8.085   0.162   7.833  0.0783 -0.0276  0.0462
25663SOL    HW180487   8.055   0.110   7.908 -0.5327 -0.0985 -0.2431
25663SOL    HW280488   8.112   0.246   7.871 -0.2188 -0.0642  0.3435
25664SOL     OW80489   3.441   7.562   6.729  0.7185  0.2551  0.8940
25664SOL    HW180490   3.402   7.518   6.654  1.3165  2.0947 -0.5729
25664SOL    HW280491   3.531   7.579   6.703  0.8700  1.1535  1.9201
25665SOL     OW80492   5.095   3.360   6.884  0.3616 -0.4605 -0.8152
25665SOL    HW180493   5.123   3.315   6.805 -0.5910 -3.5038  0.4358
25665SOL    HW280494   5.062   3.290   6.941  2.5204  1.2889  2.9605
25666SOL     OW80495  10.336   3.124   6.037  0.1980  0.1466  0.2365
25666SOL    HW180496  10.365   3.121   5.946 -0.0758  1.7819  0.0713
25666SOL    HW280497  10.242   3.140   6.031  0.2586  0.7362  0.8079
25667SOL     OW80498   0.870   8.496   1.402 -0.3156 -0.1389  0.5557
25667SOL    HW180499   0.828   8.478   1.318  1.2414 -0.7637 -0.1278
25667SOL    HW280500   0.804   8.545   1.451 -2.2104 -1.8964 -0.0629
25668SOL     OW80501   4.442   5.575  10.710  0.7846 -0.0618  0.2129
25668SOL    HW180502   4.469   5.531  10.791  0.0545 -0.0768  0.4612
25668SOL    HW280503   4.433   5.667  10.735  0.7453 -0.0366  0.1062
25669SOL     OW80504  10.682   5.210   7.257 -0.0117  0.1995  0.0260
25669SOL    HW180505  10.673   5.259   7.175  0.6097 -1.2832 -0.9695
25669SOL    HW280506  10.665   5.275   7.325  0.3293  1.6939 -1.2400
25670SOL     OW80507   7.209   9.206   5.483 -0.4779  0.1571 -0.0508
25670SOL    HW180508   7.263   9.149   5.428 -1.2095  0.2196 -0.8515
25670SOL    HW280509   7.233   9.295   5.457  0.2955  0.2227  0.8398
25671SOL     OW80510  10.379   5.171   4.023 -0.0435  0.8955 -0.1213
25671SOL    HW180511  10.394   5.089   4.070  1.0176  1.4986  0.6598
25671SOL    HW280512  10.442   5.232   4.062  0.2114  1.6847 -1.6985
25672SOL     OW80513   5.637   4.416   2.070  0.0216  0.5528  0.2703
25672SOL    HW180514   5.559   4.364   2.053  0.0968  0.3087  0.6604
25672SOL    HW280515   5.644   4.474   1.994  0.6687 -0.8829 -0.8312
25673SOL     OW80516   7.343   8.364   8.787  0.0436 -0.0701 -0.6150
25673SOL    HW180517   7.397   8.351   8.710  1.1908 -0.4212  0.2195
25673SOL    HW280518   7.368   8.292   8.846 -0.4764  0.4450  0.2571
25674SOL     OW80519   4.207   6.762   8.939  0.1723  0.4085  0.5090
25674SOL    HW180520   4.299   6.735   8.936 -0.2572 -1.1861  0.6435
25674SOL    HW280521   4.204   6.840   8.884  1.9328  1.6068  2.0001
25675SOL     OW80522   9.057   8.617   1.471 -0.1304  0.2430  0.2268
25675SOL    HW180523   9.138   8.666   1.479 -0.0913  0.1982  0.1152
25675SOL    HW280524   8.992   8.683   1.445  0.0343  0.1446 -0.4479
25676SOL     OW80525   0.296   3.355   1.117  0.2065  0.1373 -0.2115
25676SOL    HW180526   0.378   3.386   1.080 -1.4794  1.0806 -3.5176
25676SOL    HW280527   0.289   3.264   1.089 -0.1481  0.2423 -0.4738
25677SOL     OW80528   6.394   8.274   8.164  0.1387 -0.4746  0.6942
25677SOL    HW180529   6.384   8.179   8.165  1.8719 -0.6818  0.4118
25677SOL    HW280530   6.479   8.289   8.123 -0.6070  1.2499 -0.3483
25678SOL     OW80531   4.373   4.070   9.552 -0.7362 -0.7787  0.3333
25678SOL    HW180532   4.283   4.063   9.520 -0.3682 -1.2779 -0.6621
25678SOL    HW280533   4.417   4.127   9.489 -0.9384  1.6295  2.2238
25679SOL     OW80534   7.490  10.155   6.517 -0.0446 -0.4927  0.0722
25679SOL    HW180535   7.523  10.198   6.439  2.1394  0.1323  1.2512
25679SOL    HW280536   7.527  10.067   6.513  1.8518  0.1819  1.3544
25680SOL     OW80537   6.740   4.662   8.913 -0.8225 -0.3494 -0.0679
25680SOL    HW180538   6.808   4.683   8.976  0.7803 -0.9383 -1.5152
25680SOL    HW280539   6.669   4.625   8.965  0.3773 -0.6791  1.4065
25681SOL     OW80540   7.204   7.624   8.410  0.5233 -0.0206  0.0082
25681SOL    HW180541   7.177   7.623   8.318  0.8122 -1.6771 -0.0782
25681SOL    HW280542   7.262   7.699   8.416 -2.6781  2.7482 -0.1666
25682SOL     OW80543   3.090   2.610   6.458 -0.1261 -0.5341  0.1134
25682SOL    HW180544   3.097   2.550   6.384  2.6078 -2.1088  1.4893
25682SOL    HW280545   3.175   2.655   6.460 -0.7839  0.7327  1.2953
25683SOL     OW80546  10.160   2.018   8.213 -0.4662 -0.0652 -0.4803
25683SOL    HW180547  10.237   2.072   8.196  0.5949 -1.4393 -0.2566
25683SOL    HW280548  10.087   2.070   8.181  0.4413  1.6655  0.0912
25684SOL     OW80549   6.078   6.951   3.913  0.9999 -0.2523 -0.2028
25684SOL    HW180550   5.998   6.995   3.886  0.4405 -1.1999 -0.1310
25684SOL    HW280551   6.116   6.919   3.831  1.4610  0.4358 -0.2661
25685SOL     OW80552   5.634  10.793   7.161  0.6888  0.1402 -0.2993
25685SOL    HW180553   5.639  10.822   7.070  0.2387  2.4468  0.3601
25685SOL    HW280554   5.722  10.760   7.181  1.0187  0.3722 -1.3196
25686SOL     OW80555   8.534   7.674  10.272  0.0495  0.2206  0.5182
25686SOL    HW180556   8.592   7.600  10.258 -0.2777 -0.7337  3.4706
25686SOL    HW280557   8.449   7.635  10.291 -1.1761  1.5438 -1.8803
25687SOL     OW80558   5.498   7.400   7.264 -0.3219 -0.0260  0.3308
25687SOL    HW180559   5.529   7.367   7.348  1.4974 -1.4843 -0.8326
25687SOL    HW280560   5.413   7.359   7.251  0.4954 -1.8005  0.3637
25688SOL     OW80561   9.393   4.882   4.617 -0.5721  0.2451 -0.1242
25688SOL    HW180562   9.318   4.902   4.673  0.0059  2.2323  0.0303
25688SOL    HW280563   9.357   4.886   4.528 -1.1601 -1.3516  0.0250
25689SOL     OW80564   8.023   2.474   1.545 -0.1869  0.5023 -0.4334
25689SOL    HW180565   7.988   2.447   1.630 -0.7696  0.4273 -0.6901
25689SOL    HW280566   8.009   2.569   1.543  0.5761  0.6255 -0.1113
25690SOL     OW80567   8.232   3.160   3.678  0.2553 -0.2379 -0.1467
25690SOL    HW180568   8.299   3.120   3.623 -1.2448  0.2464 -2.4464
25690SOL    HW280569   8.198   3.233   3.626 -1.2245  0.2737  1.4458
25691SOL     OW80570   5.474   2.380   0.963  0.3946 -0.2683 -0.2181
25691SOL    HW180571   5.489   2.336   0.879 -1.3114 -1.3940 -0.0111
25691SOL    HW280572   5.492   2.312   1.028  0.3830  0.1792  0.2504
25692SOL     OW80573   3.369   3.674  10.755  0.5638 -0.5236  0.0999
25692SOL    HW180574   3.344   3.706  10.668  0.6544  1.1375  0.6523
25692SOL    HW280575   3.454   3.715  10.772 -0.4530  1.0352  1.8643
25693SOL     OW80576  10.535   7.322   0.693 -0.1477 -0.0273 -0.0562
25693SOL    HW180577  10.492   7.253   0.743 -0.5963 -0.1225 -0.5594
25693SOL    HW280578  10.465   7.384   0.674  0.3839  0.9488  1.0042
25694SOL     OW80579  10.010   9.654   1.489 -0.1311  0.2898  0.3564
25694SOL    HW180580  10.074   9.726   1.481  0.1952  0.2127  2.0280
25694SOL    HW280581   9.930   9.690   1.452  0.5251  0.8389 -0.5943
25695SOL     OW80582   7.839   7.033   5.903 -0.0827  0.6953 -0.2489
25695SOL    HW180583   7.810   6.985   5.826  0.2369  1.2161 -0.7024
25695SOL    HW280584   7.760   7.079   5.933  0.1004  1.6098 -1.1110
25696SOL     OW80585   7.455   7.882   1.371  0.0863  0.0830 -0.5718
25696SOL    HW180586   7.398   7.807   1.384 -2.8481  1.8730 -2.1278
25696SOL    HW280587   7.537   7.858   1.414 -0.5894 -4.0584 -1.2168
25697SOL     OW80588  10.651   2.583   5.581  0.6213  0.0907 -0.6870
25697SOL    HW180589  10.744   2.605   5.580  0.6849  0.3485  2.2798
25697SOL    HW280590  10.648   2.494   5.617 -0.2517 -0.0229 -1.0281
25698SOL     OW80591   3.213   3.530   4.498  0.0404 -0.6180 -0.4163
25698SOL    HW180592   3.198   3.453   4.442  0.5013 -1.1713  0.2130
25698SOL    HW280593   3.160   3.599   4.457 -2.6796 -1.9608  0.5644
25699SOL     OW80594   6.117   0.888   4.539 -0.1965  0.3102 -0.3818
25699SOL    HW180595   6.075   0.893   4.625  1.9395  0.1053  0.7563
25699SOL    HW280596   6.141   0.979   4.519  1.1391  0.1338  0.2725
25700SOL     OW80597   7.326   1.103  10.714  0.4358  0.1825 -0.4154
25700SOL    HW180598   7.356   1.122  10.803  1.9030 -1.1611 -0.5920
25700SOL    HW280599   7.350   1.012  10.699 -0.4633  0.1609 -1.9372
25701SOL     OW80600   7.538  10.894   2.183  0.2820 -0.3736  0.0481
25701SOL    HW180601   7.613  10.862   2.133  0.1713 -1.8190  0.7333
25701SOL    HW280602   7.463  10.847   2.146 -0.3483  1.2534 -0.8034
25702SOL     OW80603   1.601   6.552   7.369 -0.2289 -0.0421 -0.3674
25702SOL    HW180604   1.628   6.581   7.282 -0.5313 -2.3702 -1.3126
25702SOL    HW280605   1.524   6.497   7.354 -0.0692 -0.8045  1.3328
25703SOL     OW80606   8.705  10.406   7.093  0.5300  0.0367  0.1939
25703SOL    HW180607   8.628  10.356   7.117  1.8346 -2.4217 -0.3858
25703SOL    HW280608   8.752  10.420   7.175  0.4669 -0.2844  0.2857
25704SOL     OW80609   0.563   1.233   4.047  0.1423  0.2960  0.1950
25704SOL    HW180610   0.585   1.156   3.993  1.9961  1.7937 -1.3233
25704SOL    HW280611   0.637   1.243   4.106  0.1341  1.2001  0.0537
25705SOL     OW80612   2.716   7.145   4.948  0.3068  0.0320  0.1275
25705SOL    HW180613   2.747   7.211   4.886  0.2399 -1.4363 -1.5565
25705SOL    HW280614   2.623   7.134   4.927  0.5530 -1.3236 -0.3619
25706SOL     OW80615   7.872   3.996   5.588  0.1514 -0.3557  0.3068
25706SOL    HW180616   7.914   4.070   5.544 -0.3359  0.1088  0.6034
25706SOL    HW280617   7.888   3.921   5.530 -1.2278  0.4079 -1.1369
25707SOL     OW80618   6.830   4.890   3.818 -0.0926 -0.1777 -0.3541
25707SOL    HW180619   6.752   4.927   3.859 -0.8565 -0.5061 -1.4530
25707SOL    HW280620   6.854   4.817   3.874  0.6460  1.1059  1.1042
25708SOL     OW80621   8.735   6.163   6.777 -0.1286 -0.1547 -0.2056
25708SOL    HW180622   8.687   6.211   6.843  0.8541  0.2680  0.2255
25708SOL    HW280623   8.673   6.152   6.705 -0.2008  2.3119 -0.5945
25709SOL     OW80624   7.729  10.438   9.777  0.1840 -0.7498 -0.4514
25709SOL    HW180625   7.676  10.406   9.704  0.5392 -0.0311 -1.0470
25709SOL    HW280626   7.668  10.491   9.829 -0.1252 -1.4488 -0.0969
25710SOL     OW80627   6.392  10.426   4.587  0.3486 -0.5618 -0.0583
25710SOL    HW180628   6.315  10.473   4.617 -0.5717 -2.1738  0.1705
25710SOL    HW280629   6.423  10.477   4.511 -1.4437 -0.3562 -0.6972
25711SOL     OW80630   8.578   0.622   2.085 -0.3146  0.0197  0.1449
25711SOL    HW180631   8.507   0.605   2.023  1.0064  1.2850 -1.8297
25711SOL    HW280632   8.584   0.542   2.137 -1.9023 -0.8579 -0.9311
25712SOL     OW80633   1.922   6.916   5.119  0.1658 -0.1557  0.2021
25712SOL    HW180634   1.926   6.820   5.124 -1.1172 -0.1794  1.6285
25712SOL    HW280635   1.966   6.945   5.198  0.3465  0.4222 -0.1120
25713SOL     OW80636   6.387   1.817   1.396  0.5216 -0.9125  0.5956
25713SOL    HW180637   6.418   1.775   1.316  0.3748 -1.4663  0.8230
25713SOL    HW280638   6.465   1.857   1.435  0.1085  2.4829 -1.5952
25714SOL     OW80639   5.009   3.743   1.624  0.3051  0.1625  0.2225
25714SOL    HW180640   5.085   3.701   1.664 -1.3013 -1.7897  1.4418
25714SOL    HW280641   4.999   3.825   1.672  1.3945  0.2477  0.3189
25715SOL     OW80642   9.833   4.963   8.853 -0.3467 -0.0686  0.0528
25715SOL    HW180643   9.873   4.901   8.915 -2.3744  1.6469  3.3868
25715SOL    HW280644   9.803   4.908   8.781  3.0524 -2.0846 -0.0599
25716SOL     OW80645   6.752   7.770   4.913  0.2907  0.1231 -0.1148
25716SOL    HW180646   6.667   7.730   4.898  0.2170  0.2828 -0.1280
25716SOL    HW280647   6.763   7.770   5.008 -0.1959  1.0615 -0.0433
25717SOL     OW80648   5.812   1.875   9.600 -0.2082 -0.6738  0.5819
25717SOL    HW180649   5.881   1.853   9.664 -0.4390 -2.2341  0.3197
25717SOL    HW280650   5.736   1.897   9.654 -0.1374 -1.0719  0.8445
25718SOL     OW80651   9.684   6.130  10.533  0.1350  0.1031  0.0004
25718SOL    HW180652   9.673   6.222  10.560 -2.2828 -0.7724  2.5424
25718SOL    HW280653   9.606   6.112  10.480 -2.1942 -1.6326  3.6270
25719SOL     OW80654   6.225  10.574   5.798  0.7131 -0.4577  0.3873
25719SOL    HW180655   6.275  10.591   5.877  1.0076  0.6254 -0.0152
25719SOL    HW280656   6.253  10.642   5.737 -1.0089 -0.0274  0.0423
25720SOL     OW80657   3.402   9.107  10.036 -0.0008 -0.3301  0.5002
25720SOL    HW180658   3.434   9.141  10.119  0.4534 -0.6025  0.4411
25720SOL    HW280659   3.389   9.185   9.982  1.7758 -0.2640  0.1035
25721SOL     OW80660   3.715   3.531   3.637 -0.2292  0.3673 -0.2812
25721SOL    HW180661   3.810   3.526   3.651  0.0494  1.8014 -1.4660
25721SOL    HW280662   3.688   3.439   3.628  0.8368 -0.1398  1.1961
25722SOL     OW80663   4.330   2.954   5.013 -0.1264 -0.3329 -0.5611
25722SOL    HW180664   4.319   2.931   4.921  0.0699 -2.0652 -0.1814
25722SOL    HW280665   4.360   2.873   5.055  0.0812  0.5032  0.9738
25723SOL     OW80666   9.166   6.201   2.997  0.2130 -0.1142 -0.0001
25723SOL    HW180667   9.154   6.133   2.930  0.2754 -0.7530  0.6324
25723SOL    HW280668   9.140   6.282   2.953 -0.5123 -0.6342 -0.5593
25724SOL     OW80669   8.964   3.273   5.558 -0.0142  0.0234 -0.3418
25724SOL    HW180670   9.057   3.293   5.570 -0.1125  0.1470  0.2507
25724SOL    HW280671   8.958   3.179   5.576 -0.0636  0.0862 -0.0381
25725SOL     OW80672  10.472  10.920   5.555 -0.0158 -0.1559 -1.2108
25725SOL    HW180673  10.465  10.968   5.638  1.2096  0.3815 -1.3897
25725SOL    HW280674  10.411  10.966   5.496 -0.3820 -0.1102 -0.8037
25726SOL     OW80675   5.102   4.439   2.879  0.1474 -0.0602  0.1568
25726SOL    HW180676   5.159   4.399   2.812 -0.2487  0.0342 -0.2432
25726SOL    HW280677   5.132   4.401   2.961  1.7797  1.1199  0.1438
25727SOL     OW80678  10.375   3.547   0.849  0.1720 -0.0551  0.5285
25727SOL    HW180679  10.465   3.517   0.854  0.3347  0.5706  1.9348
25727SOL    HW280680  10.382   3.641   0.831 -0.2087 -0.0558  0.3638
25728SOL     OW80681   7.852   9.788   0.929 -0.5400  0.2102  0.0252
25728SOL    HW180682   7.857   9.800   1.024  1.5073  0.5544 -0.0781
25728SOL    HW280683   7.774   9.837   0.902 -0.2803  1.4185  1.3564
25729SOL     OW80684   4.249   5.146   8.837 -0.2694 -0.2673  0.2164
25729SOL    HW180685   4.242   5.240   8.849 -0.6182 -0.4710  1.7485
25729SOL    HW280686   4.214   5.108   8.918 -1.5397 -1.7516 -0.9510
25730SOL     OW80687   3.349   4.294   5.854  0.0701  0.1619 -0.2660
25730SOL    HW180688   3.408   4.360   5.889 -0.3963  0.0737  0.7060
25730SOL    HW280689   3.359   4.219   5.912 -1.3793  0.3350  0.2381
25731SOL     OW80690   6.406   1.455  10.617  0.1134  0.2366 -0.1293
25731SOL    HW180691   6.406   1.370  10.573 -2.7429  1.6405 -3.2790
25731SOL    HW280692   6.479   1.502  10.578  3.3239 -1.2603  3.3679
25732SOL     OW80693   6.441   8.007   8.118  0.1173  0.2045 -0.3207
25732SOL    HW180694   6.391   7.968   8.046 -1.5998 -0.4895  1.1626
25732SOL    HW280695   6.447   7.938   8.183 -1.5862  1.8426  1.7151
25733SOL     OW80696   7.323   7.729   0.193  0.0628  0.4199  0.2596
25733SOL    HW180697   7.349   7.640   0.172  1.7545 -0.0192  3.6123
25733SOL    HW280698   7.233   7.722   0.223 -0.1278  0.0435 -0.3767
25734SOL     OW80699   2.972   9.886   1.160 -0.0399  1.0565 -0.2925
25734SOL    HW180700   2.976   9.917   1.070  0.9316  1.3178 -0.1674
25734SOL    HW280701   3.063   9.870   1.184 -0.1192  2.4510  1.1243
25735SOL     OW80702   4.940   4.913   0.529  0.4731 -0.0895  0.5276
25735SOL    HW180703   4.905   4.871   0.607  0.7462  0.8294  1.1556
25735SOL    HW280704   4.863   4.929   0.475 -0.1835  2.1424  2.0096
25736SOL     OW80705   0.541   3.058   8.524 -0.2195 -0.0782 -0.3117
25736SOL    HW180706   0.621   3.020   8.488 -0.9705 -1.1886 -0.8637
25736SOL    HW280707   0.526   3.136   8.472 -0.1796 -0.5626 -1.0685
25737SOL     OW80708   5.349   6.153   0.582  0.6408  0.6027  0.1960
25737SOL    HW180709   5.401   6.112   0.513  0.8335  3.3451 -1.4205
25737SOL    HW280710   5.259   6.146   0.552  0.6942  1.5134 -0.1946
25738SOL     OW80711   2.966   7.682   2.321  0.2758 -0.2489 -0.5540
25738SOL    HW180712   3.048   7.636   2.340  1.2494  0.8210 -1.9715
25738SOL    HW280713   2.993   7.763   2.277 -1.4468  1.0184  0.5655
25739SOL     OW80714   0.631   9.738   5.842  0.1471 -0.6854  0.0058
25739SOL    HW180715   0.621   9.648   5.812 -1.2042 -0.7837  0.7010
25739SOL    HW280716   0.722   9.743   5.871  0.4737 -1.5739 -0.8179
25740SOL     OW80717   6.764   2.531   1.083 -0.0241  0.1038 -0.3670
25740SOL    HW180718   6.803   2.445   1.099 -1.2103 -0.3163  0.4415
25740SOL    HW280719   6.835   2.584   1.047  1.7783 -0.1143  2.5318
25741SOL     OW80720   7.337   4.269   5.852  0.4333  0.0825 -0.4976
25741SOL    HW180721   7.301   4.256   5.765 -0.5585 -2.1977  0.1728
25741SOL    HW280722   7.315   4.189   5.899 -0.5857  1.8961  2.3954
25742SOL     OW80723   8.724   7.073   9.499  0.0996 -0.2680  0.2202
25742SOL    HW180724   8.747   7.138   9.433  0.5605  1.8328  2.3279
25742SOL    HW280725   8.695   6.997   9.448  1.7525  0.7040 -2.3856
25743SOL     OW80726   3.727  10.306   3.179  0.2782  0.6248 -0.4401
25743SOL    HW180727   3.800  10.340   3.231  1.5016 -0.4460 -1.3680
25743SOL    HW280728   3.742  10.211   3.177 -0.9103  0.4311 -1.0099
25744SOL     OW80729   7.191   9.917   9.431  0.4607 -0.8846 -0.6718
25744SOL    HW180730   7.199   9.873   9.346  1.6040 -0.9267 -0.5708
25744SOL    HW280731   7.268   9.975   9.434 -1.7516  2.3647 -1.4599
25745SOL     OW80732   4.279   0.079   3.816 -0.0490 -0.3286  0.2176
25745SOL    HW180733   4.239   0.165   3.832 -2.9398 -1.6206  0.6961
25745SOL    HW280734   4.254   0.058   3.726  0.1369 -0.9146  0.3007
25746SOL     OW80735   4.034   6.152   8.953 -0.1768  0.0404 -0.6745
25746SOL    HW180736   4.013   6.208   9.028 -1.5023 -1.0278 -0.2110
25746SOL    HW280737   4.117   6.187   8.920  0.6999  0.2557  1.5643
25747SOL     OW80738   6.500   5.276   6.484  0.0393  0.1013 -0.7513
25747SOL    HW180739   6.482   5.366   6.454  1.6209  0.0217 -2.0700
25747SOL    HW280740   6.585   5.282   6.528  0.6454 -0.9192 -1.7442
25748SOL     OW80741   2.258   7.119  10.965 -0.4391 -1.0769 -0.0360
25748SOL    HW180742   2.248   7.024  10.966 -0.8467 -1.0342  0.0567
25748SOL    HW280743   2.263   7.142  10.872  1.6224 -1.3806 -0.0425
25749SOL     OW80744   8.694   7.713   4.571  0.0861  0.6957 -0.4985
25749SOL    HW180745   8.729   7.801   4.590 -1.6316  1.2696  0.1389
25749SOL    HW280746   8.689   7.711   4.475  1.6279  0.6672 -0.6037
25750SOL     OW80747   0.309   0.262   9.291 -0.0866  0.9081  0.3951
25750SOL    HW180748   0.315   0.296   9.201  0.7047  1.5568  0.6749
25750SOL    HW280749   0.224   0.294   9.323 -0.2108  0.9776  0.0023
25751SOL     OW80750   9.670   8.935   3.728 -0.0843 -0.6241 -0.5218
25751SOL    HW180751   9.636   9.020   3.754  0.1459 -0.8714  0.6600
25751SOL    HW280752   9.596   8.875   3.739  0.5104 -1.0707  1.5455
25752SOL     OW80753   0.343   1.662  10.477  0.3463 -0.3999 -1.0051
25752SOL    HW180754   0.410   1.605  10.439  0.3680 -0.2866 -1.1341
25752SOL    HW280755   0.304   1.707  10.402  1.0426  0.5441 -0.8247
25753SOL     OW80756   9.698   9.764   3.568  0.1398  1.0106 -0.2654
25753SOL    HW180757   9.764   9.730   3.508  2.6852  1.7488  1.8944
25753SOL    HW280758   9.624   9.790   3.512  1.6138  0.0256 -2.8058
25754SOL     OW80759   4.865   5.770   3.197  0.0632  0.1968 -0.2878
25754SOL    HW180760   4.851   5.759   3.102 -0.8410 -0.2963 -0.1135
25754SOL    HW280761   4.793   5.827   3.225  0.6937  0.8722  0.0097
25755SOL     OW80762  10.600   6.200   6.624  0.6379 -0.1826  0.2325
25755SOL    HW180763  10.510   6.208   6.656  0.0331  0.3083 -1.5009
25755SOL    HW280764  10.606   6.109   6.595  0.4081  0.0265 -0.4766
25756SOL     OW80765   6.327   2.808   4.253 -0.0442 -0.0549 -0.4712
25756SOL    HW180766   6.272   2.876   4.291  0.0014 -0.1657 -0.2067
25756SOL    HW280767   6.415   2.829   4.283 -0.2076 -1.0126  0.7716
25757SOL     OW80768   5.507   2.050   7.533 -0.1141  0.1933  0.1646
25757SOL    HW180769   5.526   1.979   7.472 -0.2398  1.3109 -1.2316
25757SOL    HW280770   5.585   2.057   7.588  0.1698 -0.5634 -0.1292
25758SOL     OW80771   5.399   2.344  10.775 -0.5512  0.1083 -0.6217
25758SOL    HW180772   5.370   2.256  10.798 -1.9685  0.1255 -2.1960
25758SOL    HW280773   5.396   2.347  10.680  0.2765  1.6096 -0.6373
25759SOL     OW80774   4.673   4.775   5.212  0.0578 -0.9026  0.3226
25759SOL    HW180775   4.669   4.870   5.197  1.5012 -0.5810  1.6581
25759SOL    HW280776   4.703   4.738   5.130 -0.0517 -0.1431 -0.0661
25760SOL     OW80777   9.385   0.820  10.328 -0.1811 -0.6749  0.3611
25760SOL    HW180778   9.332   0.805  10.406 -2.9007 -1.0534 -1.4139
25760SOL    HW280779   9.425   0.905  10.342 -0.5927 -0.7453  2.1743
25761SOL     OW80780   8.241  10.750   3.147 -0.2847 -0.1354 -0.0674
25761SOL    HW180781   8.153  10.785   3.143 -0.3242 -0.2122  0.1009
25761SOL    HW280782   8.261  10.746   3.241  0.8277  2.2152 -0.1525
25762SOL     OW80783   0.093   1.637   9.297  0.0881  0.0635  0.2175
25762SOL    HW180784   0.172   1.668   9.253 -0.1496  0.5088  0.0938
25762SOL    HW280785   0.028   1.706   9.280 -0.7392 -0.9502 -0.8669
25763SOL     OW80786   1.683   2.642   4.352 -0.0486 -0.7788  0.3986
25763SOL    HW180787   1.641   2.587   4.286  0.9862 -0.3914 -0.6063
25763SOL    HW280788   1.727   2.711   4.303  2.5464 -1.6629  1.2741
25764SOL     OW80789   2.735   1.084   3.309  0.0591  0.0213 -1.0944
25764SOL    HW180790   2.803   1.141   3.345 -0.1517  0.0005 -0.6478
25764SOL    HW280791   2.657   1.104   3.361 -0.0678 -0.5356 -1.0567
25765SOL     OW80792   0.312   3.642   1.249 -0.0093 -0.0934 -0.5083
25765SOL    HW180793   0.324   3.602   1.163  0.5107 -1.4021  0.1365
25765SOL    HW280794   0.277   3.571   1.303 -1.6022  1.0611  0.0590
25766SOL     OW80795   5.592   9.728   5.857  0.3734 -0.4366  0.0152
25766SOL    HW180796   5.659   9.678   5.811 -0.6841 -3.2651  1.3002
25766SOL    HW280797   5.611   9.819   5.837  1.8704 -1.3492 -3.2882
25767SOL     OW80798  10.196   5.690   3.082 -0.8109  0.1572  0.4246
25767SOL    HW180799  10.144   5.649   3.151 -1.0470  1.5162  1.0819
25767SOL    HW280800  10.272   5.727   3.126 -1.5678  2.1045  0.1967
25768SOL     OW80801   8.449   8.282   5.646  0.6312  0.1902 -0.8223
25768SOL    HW180802   8.462   8.314   5.557  1.8107  0.9699 -0.4067
25768SOL    HW280803   8.430   8.361   5.697  1.9731  0.0599 -0.0580
25769SOL     OW80804   4.683   7.944   2.069  0.0154 -0.5951  0.2844
25769SOL    HW180805   4.660   7.876   2.005  0.9236 -0.8738  0.2320
25769SOL    HW280806   4.676   8.026   2.020  1.9510 -0.8901 -0.6001
25770SOL     OW80807   8.460   9.499   9.210  0.3395  0.2081  0.3090
25770SOL    HW180808   8.366   9.508   9.227 -0.0409 -0.2853 -1.3217
25770SOL    HW280809   8.481   9.409   9.237  0.2640  0.1865  0.2970
25771SOL     OW80810   9.020   3.302   2.761 -0.2318 -0.3327 -0.1717
25771SOL    HW180811   8.980   3.369   2.816  0.3993 -0.6101  0.6450
25771SOL    HW280812   9.040   3.230   2.822 -0.5051 -1.0886 -0.9500
25772SOL     OW80813   9.727   1.204   6.997 -0.1455 -0.4228 -0.4451
25772SOL    HW180814   9.715   1.298   6.986 -0.3543 -0.6138 -2.2158
25772SOL    HW280815   9.702   1.166   6.912 -0.5854 -2.1277  0.3939
25773SOL     OW80816   7.217   8.801   6.098 -0.1611 -0.3999  0.8755
25773SOL    HW180817   7.158   8.851   6.042  1.5784 -0.6570 -1.3518
25773SOL    HW280818   7.224   8.716   6.056  1.7725 -0.3704  1.0399
25774SOL     OW80819   0.648   4.209   4.066 -0.0004 -0.3634  0.2668
25774SOL    HW180820   0.723   4.163   4.103  0.5161  0.3378  0.1183
25774SOL    HW280821   0.617   4.152   3.995  1.6450  0.2472 -0.9985
25775SOL     OW80822   0.876   4.946   3.590  0.2162  0.8964 -0.2329
25775SOL    HW180823   0.805   4.994   3.546 -0.5044  0.7261  0.7076
25775SOL    HW280824   0.928   4.909   3.519 -2.2696 -1.4031 -1.0033
25776SOL     OW80825   2.651   4.212   9.451  0.0054  0.0879  0.3787
25776SOL    HW180826   2.655   4.186   9.543 -2.0815 -0.8179  0.2751
25776SOL    HW280827   2.597   4.291   9.450  0.3185  0.3019 -0.0300
25777SOL     OW80828   4.859   6.580   4.009 -0.3171 -0.1869 -0.4389
25777SOL    HW180829   4.929   6.543   4.063 -1.0718 -2.4733 -0.9258
25777SOL    HW280830   4.878   6.674   4.006  0.5442 -0.1666  2.6066
25778SOL     OW80831   0.032   2.336   7.080 -0.4857  0.0913  0.3510
25778SOL    HW180832  -0.039   2.397   7.100 -0.1824  0.3055  0.7909
25778SOL    HW280833  -0.011   2.261   7.039 -0.7532  1.0806 -1.2814
25779SOL     OW80834   3.125   3.681  10.233 -0.5124  0.3600 -0.4324
25779SOL    HW180835   3.048   3.736  10.239 -1.1956 -0.4810 -1.2226
25779SOL    HW280836   3.102   3.613  10.170  1.2279  0.6481 -1.4476
25780SOL     OW80837   5.594   9.395   6.190 -0.3385 -0.1939 -0.0557
25780SOL    HW180838   5.568   9.345   6.267 -0.5505  0.4303  0.2837
25780SOL    HW280839   5.682   9.427   6.210 -0.0557 -0.7269 -0.4228
25781SOL     OW80840   7.135   6.422   5.135  0.0923  0.7548  0.1561
25781SOL    HW180841   7.060   6.480   5.121 -0.2409  0.4031  0.4526
25781SOL    HW280842   7.167   6.443   5.222  0.8406  1.4581 -0.2798
25782SOL     OW80843   8.185   7.547   2.188 -0.0724 -0.0078  0.6272
25782SOL    HW180844   8.220   7.523   2.274 -1.4331  1.0761  1.5320
25782SOL    HW280845   8.149   7.635   2.201 -0.0837  0.2730 -1.1282
25783SOL     OW80846   0.661   5.830   3.254  0.0055 -0.0573  0.2666
25783SOL    HW180847   0.603   5.781   3.196 -1.1464  0.4416  0.9714
25783SOL    HW280848   0.609   5.904   3.284  2.0492  2.3552 -1.6687
25784SOL     OW80849   4.820   0.691   9.252  0.4607  0.3922 -0.5383
25784SOL    HW180850   4.771   0.747   9.312 -0.7054  2.3029 -3.0844
25784SOL    HW280851   4.910   0.695   9.284  0.2016  2.8090  0.0652
25785SOL     OW80852  10.478   4.886  10.656  0.0297  0.0150 -0.0421
25785SOL    HW180853  10.573   4.873  10.661  0.2737  2.1955  2.9896
25785SOL    HW280854  10.468   4.966  10.604 -0.0386  0.5991  0.8597
25786SOL     OW80855   3.030   0.117   5.715  0.4162 -0.0557  0.1822
25786SOL    HW180856   3.043   0.211   5.700  1.3520 -0.2931 -0.6597
25786SOL    HW280857   2.935   0.106   5.719  0.3129  1.0311  1.0653
25787SOL     OW80858   8.993   4.984   5.871 -0.2176 -0.1104 -0.2973
25787SOL    HW180859   9.018   5.076   5.860  0.8568 -0.3426  0.1075
25787SOL    HW280860   9.039   4.938   5.800 -0.1365 -0.4350 -0.0385
25788SOL     OW80861   4.807   3.848   8.186  0.7667  0.0563 -0.3703
25788SOL    HW180862   4.857   3.921   8.150 -1.2472  1.2454 -0.9166
25788SOL    HW280863   4.775   3.879   8.271 -0.0780 -0.1853 -0.5848
25789SOL     OW80864  10.873   5.221   9.126 -0.9157 -0.5896  0.1152
25789SOL    HW180865  10.796   5.194   9.176  0.3358 -1.0606  1.9432
25789SOL    HW280866  10.933   5.146   9.133  0.8087  0.7819  1.2796
25790SOL     OW80867   6.299   2.233   9.308 -0.1112  0.2929  0.1149
25790SOL    HW180868   6.261   2.252   9.394  1.7428 -0.0298  1.0640
25790SOL    HW280869   6.237   2.271   9.246 -1.6088  0.3724  1.5704
25791SOL     OW80870  10.402   2.585   5.908 -0.4998 -0.2217  0.3556
25791SOL    HW180871  10.451   2.505   5.889  0.9725  0.6694  0.2133
25791SOL    HW280872  10.358   2.567   5.991  0.4817 -0.9054  0.7483
25792SOL     OW80873   4.130   5.462   0.964 -0.1530 -0.6594 -0.5068
25792SOL    HW180874   4.038   5.439   0.965 -0.2778 -0.1675 -0.1279
25792SOL    HW280875   4.142   5.519   1.040  0.9002 -2.3930  0.6897
25793SOL     OW80876   6.982   7.330   8.068 -0.1129 -0.1888  0.8362
25793SOL    HW180877   6.974   7.237   8.049 -1.1091 -0.4316  2.3299
25793SOL    HW280878   7.070   7.339   8.106 -0.3725 -0.6733  1.5526
25794SOL     OW80879   5.962   4.685   3.921  0.0950  0.1303  0.1626
25794SOL    HW180880   5.872   4.688   3.887 -0.0585 -0.8623  0.4705
25794SOL    HW280881   6.017   4.695   3.843 -0.2654  0.7895 -0.0248
25795SOL     OW80882   5.450   7.252   3.598  0.1094 -0.2686 -0.2364
25795SOL    HW180883   5.470   7.159   3.598  0.9753 -0.1720 -2.8272
25795SOL    HW280884   5.432   7.273   3.506 -0.3388  2.0757  0.2977
25796SOL     OW80885   5.174  10.607   3.996 -0.3874  0.2765 -0.2653
25796SOL    HW180886   5.184  10.603   3.901 -0.0230  1.3995 -0.2909
25796SOL    HW280887   5.081  10.623   4.010 -0.2912  1.0654 -0.4816
25797SOL     OW80888   5.058   6.055   2.554  0.8391 -0.1188 -0.0381
25797SOL    HW180889   5.117   6.130   2.567  0.0117  0.3912  0.9179
25797SOL    HW280890   5.064   6.006   2.637  1.9100 -1.5302 -0.9013
25798SOL     OW80891   4.879   1.983   8.856  0.0542  0.2493 -0.3057
25798SOL    HW180892   4.828   2.052   8.816  0.0413 -0.2397 -1.1496
25798SOL    HW280893   4.970   2.009   8.843  0.0425  0.6572  0.3753
25799SOL     OW80894   7.349  10.424   3.726 -0.4669  0.4928 -0.0184
25799SOL    HW180895   7.437  10.395   3.752 -0.4968  0.9785  0.6541
25799SOL    HW280896   7.292  10.351   3.752 -0.5597  1.1576  1.7950
25800SOL     OW80897  10.440   4.415   2.216  0.0987  0.4770  0.0678
25800SOL    HW180898  10.431   4.324   2.241 -0.3373  0.8234  1.2180
25800SOL    HW280899  10.478   4.458   2.293  1.7414  1.0062 -0.9679
25801SOL     OW80900   9.785   9.046   1.542  0.0135  0.1377 -0.5339
25801SOL    HW180901   9.848   8.976   1.523 -0.8092 -0.7148 -0.2471
25801SOL    HW280902   9.732   9.011   1.614 -0.3430  1.1176 -0.3066
25802SOL     OW80903   8.118   7.809   7.321  0.0797 -0.8022 -0.1346
25802SOL    HW180904   8.075   7.891   7.297  2.6466  0.4677 -0.7399
25802SOL    HW280905   8.097   7.797   7.413 -2.1714 -0.7078 -0.5789
25803SOL     OW80906   9.888   4.756   9.589  0.3073  0.2557 -0.1100
25803SOL    HW180907   9.852   4.766   9.677 -1.4525  1.3648 -0.9034
25803SOL    HW280908   9.862   4.668   9.562 -0.1993  0.3558  0.0415
25804SOL     OW80909   8.204   5.483   1.221  0.2597  0.1668  0.4238
25804SOL    HW180910   8.275   5.542   1.248 -0.2384  0.4461  1.1575
25804SOL    HW280911   8.128   5.513   1.271  0.3291 -2.0030  1.9637
25805SOL     OW80912   5.868   5.881   7.933  0.9382  0.1718 -0.0212
25805SOL    HW180913   5.830   5.923   7.856  0.7465  1.8303  0.9314
25805SOL    HW280914   5.798   5.824   7.966  0.2989  0.9714  0.0460
25806SOL     OW80915   2.946   4.649   8.696  0.7435  0.1745 -0.3727
25806SOL    HW180916   2.899   4.614   8.621  0.9133  0.5511 -0.6564
25806SOL    HW280917   2.880   4.696   8.746  0.7152  0.2673 -0.4981
25807SOL     OW80918   5.315  10.483   1.673  0.4325 -0.1724 -0.4574
25807SOL    HW180919   5.233  10.488   1.723  1.8466 -1.9486  2.2709
25807SOL    HW280920   5.291  10.514   1.586 -2.7277  1.0256  0.6723
25808SOL     OW80921   6.776  10.108   1.896  0.7623 -0.2696 -0.0577
25808SOL    HW180922   6.871  10.104   1.886  0.6988  1.4068 -1.9327
25808SOL    HW280923   6.743  10.037   1.840  0.8756 -1.2119  1.0219
25809SOL     OW80924   6.603   9.741   8.899  0.1018  0.1968  0.5633
25809SOL    HW180925   6.698   9.743   8.895  0.1680  2.6402  1.5450
25809SOL    HW280926   6.574   9.783   8.818 -0.0476  1.1047  1.0670
25810SOL     OW80927   6.487   0.280   6.419 -0.4006  1.1338  0.2961
25810SOL    HW180928   6.407   0.258   6.370  0.8343 -2.1591 -0.4855
25810SOL    HW280929   6.546   0.314   6.353 -0.3833  1.3673  0.4332
25811SOL     OW80930   3.879   3.543   4.232  0.4317  0.7306 -0.1818
25811SOL    HW180931   3.883   3.465   4.176 -0.3918 -0.4258  1.2586
25811SOL    HW280932   3.969   3.555   4.262  0.1535 -1.7956  2.1770
25812SOL     OW80933   4.950   8.358   7.722  0.2870  0.0382  0.0626
25812SOL    HW180934   4.889   8.368   7.649 -0.0523 -1.1938  0.1527
25812SOL    HW280935   4.896   8.325   7.794  0.9155 -0.3393  0.3745
25813SOL     OW80936   4.401   9.106   1.358  0.4589 -0.2398  0.2848
25813SOL    HW180937   4.404   9.017   1.393 -0.7818 -0.8239 -0.9759
25813SOL    HW280938   4.308   9.121   1.339  0.5704  1.5568  1.0205
25814SOL     OW80939  10.558   8.984  10.911 -0.2079  0.8472  0.1591
25814SOL    HW180940  10.602   9.064  10.940  0.9297  0.2589  0.1335
25814SOL    HW280941  10.493   9.014  10.847 -0.8729  1.8843  1.2849
25815SOL     OW80942   3.326   3.033   3.014  0.5149 -0.1820 -0.3075
25815SOL    HW180943   3.311   3.101   3.080  1.2036  0.2998 -0.6283
25815SOL    HW280944   3.275   3.062   2.939 -3.3798 -2.6202  1.1166
25816SOL     OW80945   8.782   8.593   7.902 -0.2795  0.0134 -0.3605
25816SOL    HW180946   8.856   8.538   7.928 -2.3789 -2.2520  1.2624
25816SOL    HW280947   8.777   8.583   7.807  1.4327  0.2160 -0.5036
25817SOL     OW80948   8.541   6.748   2.389  0.8719  0.7477  0.3116
25817SOL    HW180949   8.522   6.721   2.479  0.0162  1.3755  0.3384
25817SOL    HW280950   8.469   6.808   2.367 -0.2231 -1.1190 -1.5802
25818SOL     OW80951   9.493   9.280   1.030 -0.4650  0.3546  0.6410
25818SOL    HW180952   9.521   9.256   1.119 -4.7970 -0.2380  2.1315
25818SOL    HW280953   9.489   9.196   0.983  0.6016  0.4975  0.2843
25819SOL     OW80954   0.819   0.811   3.708  0.0732 -0.4298 -0.0601
25819SOL    HW180955   0.840   0.778   3.620  0.0618 -0.5741 -0.0091
25819SOL    HW280956   0.797   0.903   3.694 -1.6841 -0.8766 -0.4621
25820SOL     OW80957   3.058   8.864   2.149  0.1561 -0.6325 -0.0462
25820SOL    HW180958   3.040   8.847   2.242 -0.9246 -2.3064 -0.5089
25820SOL    HW280959   2.977   8.900   2.115  0.9077  1.0649 -0.1474
25821SOL     OW80960   4.402   9.331  10.355  0.3233  0.3283  0.0929
25821SOL    HW180961   4.427   9.372  10.438  2.3656  0.3579 -0.4720
25821SOL    HW280962   4.462   9.369  10.291  0.2297 -1.2915 -1.0058
25822SOL     OW80963   0.890   4.047   6.602  0.2754  0.4128 -0.5598
25822SOL    HW180964   0.822   4.064   6.666  1.4191  2.3332  0.2594
25822SOL    HW280965   0.851   3.986   6.540 -1.3418 -0.4105  1.1837
25823SOL     OW80966   6.620   3.733   0.896 -0.2198 -0.5701 -0.1822
25823SOL    HW180967   6.604   3.640   0.880  0.5319 -0.8989  0.8657
25823SOL    HW280968   6.543   3.761   0.947  0.0580 -0.8942  0.4304
25824SOL     OW80969   7.612   3.695   5.147  0.2737 -0.1775 -0.0860
25824SOL    HW180970   7.524   3.690   5.110  0.0324  0.2115  0.4160
25824SOL    HW280971   7.600   3.672   5.240  0.6861 -0.0151  0.0098
25825SOL     OW80972   7.331   7.481   9.732  0.0984 -0.1917 -0.1012
25825SOL    HW180973   7.247   7.504   9.771  0.5900  0.0466  0.8520
25825SOL    HW280974   7.382   7.446   9.805  1.7239  2.0300 -0.0927
25826SOL     OW80975   2.331   9.936   3.452  0.2442  0.2700  0.6579
25826SOL    HW180976   2.375   9.866   3.403 -1.3938 -1.2086  1.1888
25826SOL    HW280977   2.402   9.989   3.487  1.5163  0.8083 -2.4079
25827SOL     OW80978   5.504   8.412   9.266 -0.5926  0.2382 -0.4737
25827SOL    HW180979   5.456   8.495   9.262  0.7308  1.2873  2.2174
25827SOL    HW280980   5.574   8.423   9.202 -1.3848  0.4928 -1.3227
25828SOL     OW80981   6.641   2.673   0.162 -0.1744 -0.5886  0.3291
25828SOL    HW180982   6.736   2.679   0.150 -0.3566  0.8192 -0.6626
25828SOL    HW280983   6.606   2.682   0.073 -1.2488 -0.7513  0.7304
25829SOL     OW80984   2.072   7.678   9.781 -0.1880 -0.4074 -0.0905
25829SOL    HW180985   2.034   7.611   9.838  1.4138  0.6842  2.3988
25829SOL    HW280986   2.151   7.637   9.745 -0.5114 -0.6489 -0.5452
25830SOL     OW80987  10.391   0.678  10.138 -0.2981 -0.1143  0.0228
25830SOL    HW180988  10.421   0.590  10.158 -0.4729  0.1074  1.3406
25830SOL    HW280989  10.329   0.667  10.066 -0.0449 -1.0167 -0.0671
25831SOL     OW80990   4.287   9.492   0.240  0.4339  0.0591 -0.2206
25831SOL    HW180991   4.216   9.516   0.300  0.2456  0.5155 -0.6164
25831SOL    HW280992   4.243   9.481   0.155  0.8284  0.2979 -0.4572
25832SOL     OW80993   9.320   6.768   6.869 -0.4779 -0.2057  0.2726
25832SOL    HW180994   9.396   6.721   6.835 -0.3692 -0.1272  0.4016
25832SOL    HW280995   9.347   6.797   6.956 -0.0083  1.3242 -0.3477
25833SOL     OW80996   8.320   4.040   5.049  0.4088 -0.2375  0.0883
25833SOL    HW180997   8.317   4.112   5.112 -2.0553  0.7081 -0.9925
25833SOL    HW280998   8.236   3.997   5.057 -0.1692  0.1482 -2.7391
25834SOL     OW80999   7.310   2.030   9.330  0.3362  0.2147  0.2641
25834SOL    HW181000   7.293   1.971   9.257 -2.4959 -0.2371  1.1553
25834SOL    HW281001   7.398   2.065   9.313  0.7280 -1.6322 -2.0730
25835SOL     OW81002   9.084   8.310   9.317 -0.5333  0.8240  0.4039
25835SOL    HW181003   9.025   8.317   9.392 -0.3281  1.2981  0.5270
25835SOL    HW281004   9.102   8.401   9.293 -1.9838  0.7040 -1.3262
25836SOL     OW81005   6.906   6.001   9.805 -0.1434  0.1549 -0.0696
25836SOL    HW181006   6.896   6.080   9.858  2.4896  0.4618  0.0970
25836SOL    HW281007   6.992   5.967   9.829 -0.5811 -1.9521 -1.2456
25837SOL     OW81008   3.076   6.508   1.872  0.2303 -0.7347  0.5706
25837SOL    HW181009   3.171   6.495   1.875  0.1345 -1.4375  0.6339
25837SOL    HW281010   3.040   6.445   1.934 -0.1420  1.3139  2.5789
25838SOL     OW81011   8.708   0.955   3.573 -0.2320 -0.5276 -0.8772
25838SOL    HW181012   8.721   0.896   3.648  1.6008  0.5492 -0.2712
25838SOL    HW281013   8.615   0.950   3.555 -0.7888 -0.6834  1.6098
25839SOL     OW81014   8.111   4.916   8.466  0.2391 -0.4125 -0.2741
25839SOL    HW181015   8.107   4.843   8.528 -1.1336  1.3022  1.7952
25839SOL    HW281016   8.173   4.978   8.505 -1.3428  1.1105 -0.0696
25840SOL     OW81017   4.989   4.312   2.491 -0.4539  0.4555 -0.2290
25840SOL    HW181018   5.048   4.369   2.441  0.1281 -0.4070 -0.5286
25840SOL    HW281019   4.904   4.324   2.448 -0.4433  1.4382 -0.0114
25841SOL     OW81020   1.153   4.781   5.521  0.0788 -0.4027  0.4390
25841SOL    HW181021   1.063   4.773   5.489  0.5771 -0.0284 -1.1579
25841SOL    HW281022   1.145   4.817   5.609 -1.3556 -1.0392  0.5882
25842SOL     OW81023   0.996   5.925   7.795 -0.3335 -0.4844 -0.3323
25842SOL    HW181024   0.902   5.947   7.794 -0.1214  0.6719  1.2403
25842SOL    HW281025   1.002   5.847   7.849 -0.2032  0.8161  1.6558
25843SOL     OW81026   0.942   4.665   7.603  0.5392 -0.2050 -0.0721
25843SOL    HW181027   0.860   4.644   7.649 -0.6883  2.2334 -0.9650
25843SOL    HW281028   0.943   4.604   7.529 -0.0044 -0.8606  0.4415
25844SOL     OW81029   9.094   1.369   6.879 -0.1006  0.4374 -0.0983
25844SOL    HW181030   9.020   1.377   6.939 -1.5867 -0.8963 -1.6471
25844SOL    HW281031   9.097   1.452   6.832 -0.7023  0.4361 -0.1363
25845SOL     OW81032   4.219   0.641   3.950 -0.7423 -0.0388 -0.2232
25845SOL    HW181033   4.196   0.701   3.879 -1.2428 -0.4229 -0.3876
25845SOL    HW281034   4.156   0.660   4.019  0.6984  1.4349  0.7698
25846SOL     OW81035   6.417   7.328   6.260  0.1827  0.2105  0.4410
25846SOL    HW181036   6.437   7.235   6.256  0.4830  0.2295  1.2303
25846SOL    HW281037   6.347   7.335   6.325  0.3664  0.5617  0.6072
25847SOL     OW81038   0.217   1.987   8.606  0.4104 -0.3342  0.3474
25847SOL    HW181039   0.124   2.011   8.614 -0.1532 -2.6355  1.3179
25847SOL    HW281040   0.216   1.897   8.576  2.3970 -0.0697 -0.6497
25848SOL     OW81041   3.958   8.165   2.888 -0.9841 -0.6284 -0.0632
25848SOL    HW181042   4.022   8.139   2.955 -2.8744 -1.5323  1.5088
25848SOL    HW281043   3.937   8.256   2.909  0.9508  0.2631 -1.6475
25849SOL     OW81044   9.062   7.110  10.705  0.5211 -0.0576 -0.2752
25849SOL    HW181045   9.035   7.092  10.796 -1.2800 -1.7980 -1.0736
25849SOL    HW281046   9.133   7.048  10.689  1.7955  1.2048  0.3363
25850SOL     OW81047   9.738  10.082   0.499  0.1672  0.2348 -0.1991
25850SOL    HW181048   9.770  10.035   0.576  1.2299  0.1720 -0.6577
25850SOL    HW281049   9.713  10.012   0.438  0.0218  0.2795 -0.1911
25851SOL     OW81050   0.487   6.877   9.473  0.2330  0.4131 -0.2544
25851SOL    HW181051   0.412   6.821   9.495 -0.0363  0.0946 -1.8729
25851SOL    HW281052   0.555   6.816   9.445  0.7729  0.7686  0.2538
25852SOL     OW81053   0.425   7.717   7.152 -0.2285 -0.1770 -0.2037
25852SOL    HW181054   0.373   7.645   7.115 -0.0552  0.3857 -1.6104
25852SOL    HW281055   0.507   7.715   7.102 -0.5927  1.5818 -0.9334
25853SOL     OW81056   0.300   6.974   5.198 -0.3130  0.2803 -0.1250
25853SOL    HW181057   0.320   6.980   5.291  1.8628 -0.0470 -0.5075
25853SOL    HW281058   0.304   6.880   5.178 -2.3168  0.1953 -0.2782
25854SOL     OW81059   3.310   4.619   4.930 -0.2821 -0.5841 -0.5248
25854SOL    HW181060   3.232   4.675   4.935 -0.0540 -0.2485 -0.7072
25854SOL    HW281061   3.283   4.545   4.875  0.5844  1.3251 -3.7928
25855SOL     OW81062   6.063  10.842   9.093 -0.1384 -0.3253  0.1160
25855SOL    HW181063   5.971  10.813   9.095 -0.5055  0.7561 -0.3147
25855SOL    HW281064   6.111  10.765   9.064 -1.3272 -0.0211 -3.1090
25856SOL     OW81065   1.141   0.053   3.254 -0.3224 -0.3831  0.4297
25856SOL    HW181066   1.139   0.137   3.301  2.1956  0.2483 -0.4772
25856SOL    HW281067   1.214   0.005   3.293 -0.9168 -1.6538  0.0442
25857SOL     OW81068  10.518   9.946  10.373  0.1844  0.2557 -0.2043
25857SOL    HW181069  10.442  10.003  10.382 -0.6419 -0.9029  0.4692
25857SOL    HW281070  10.491   9.878  10.312 -0.0012 -1.1731  1.3794
25858SOL     OW81071   5.218   2.148   6.690 -0.1741 -0.0285 -0.6480
25858SOL    HW181072   5.183   2.132   6.603 -1.7143  0.3456 -0.1399
25858SOL    HW281073   5.310   2.170   6.676  0.0849 -1.7897 -1.9872
25859SOL     OW81074   0.594   8.871   5.980 -0.0660  0.6083  0.4966
25859SOL    HW181075   0.681   8.832   5.988 -0.5235 -0.2299  1.6417
25859SOL    HW281076   0.591   8.938   6.049  0.0186  1.3486 -0.1993
25860SOL     OW81077   6.581   9.385   6.025 -0.2284  0.0254 -0.2721
25860SOL    HW181078   6.654   9.429   5.980 -0.4791 -0.0421 -0.7544
25860SOL    HW281079   6.623   9.311   6.070  0.4613  1.6579  1.9364
25861SOL     OW81080   3.241   3.194   1.425 -0.1763 -0.0275  0.6377
25861SOL    HW181081   3.217   3.252   1.353 -0.4982  0.9918  1.5467
25861SOL    HW281082   3.225   3.106   1.390 -0.6863  0.4540 -0.4067
25862SOL     OW81083   1.481   0.545   3.925 -0.1996  0.3044  0.2246
25862SOL    HW181084   1.507   0.637   3.923  2.5232 -0.3876  0.3157
25862SOL    HW281085   1.476   0.523   4.018 -0.9053  0.3500  0.2041
25863SOL     OW81086   2.782   7.292   6.745  0.1676  0.1730  0.1206
25863SOL    HW181087   2.737   7.332   6.820 -1.2204  0.3894 -0.7845
25863SOL    HW281088   2.875   7.296   6.768 -0.0116  2.5183  0.7609
25864SOL     OW81089   8.734   2.464   2.437 -0.0578 -0.5428  0.0566
25864SOL    HW181090   8.651   2.417   2.445 -0.5990  0.1235 -1.2351
25864SOL    HW281091   8.710   2.548   2.396  1.2535 -0.3593 -0.3766
25865SOL     OW81092   1.036   0.197   4.952  0.5293 -0.0648 -0.0509
25865SOL    HW181093   1.096   0.128   4.981 -1.5362 -1.9003  0.1037
25865SOL    HW281094   1.003   0.166   4.867 -0.7508  0.4836  0.2246
25866SOL     OW81095   1.846   2.741   4.997  0.7635 -0.7374 -0.4601
25866SOL    HW181096   1.788   2.771   4.927  0.5414  0.2872  0.1465
25866SOL    HW281097   1.900   2.817   5.018 -0.0009 -0.6335  1.3156
25867SOL     OW81098   9.484   5.809   3.681 -0.1595  0.0518 -0.1616
25867SOL    HW181099   9.513   5.899   3.671  0.9798 -0.3455 -0.6245
25867SOL    HW281100   9.493   5.791   3.775  0.4061  0.1685 -0.1895
25868SOL     OW81101   3.206   0.219   3.174 -0.1529 -0.0518  0.3559
25868SOL    HW181102   3.170   0.296   3.219 -2.5763 -1.4814  1.0115
25868SOL    HW281103   3.272   0.255   3.114  0.9799  2.2229  2.7576
25869SOL     OW81104   2.244   1.198   4.668  0.5832 -0.6965 -0.4171
25869SOL    HW181105   2.267   1.229   4.580 -0.3827  1.0518 -0.1044
25869SOL    HW281106   2.168   1.251   4.693  1.8552  0.0939  2.1326
25870SOL     OW81107   7.700   6.737   9.100  0.1628  0.2059 -0.0114
25870SOL    HW181108   7.701   6.771   9.011 -2.6161  0.3504 -0.0522
25870SOL    HW281109   7.792   6.718   9.119  0.9755  1.3365 -2.4296
25871SOL     OW81110   5.610   4.439   3.180 -0.0612  0.1774 -0.2097
25871SOL    HW181111   5.635   4.531   3.190 -0.5013  0.3611 -0.7341
25871SOL    HW281112   5.667   4.391   3.241  1.0096  0.6675 -0.7993
25872SOL     OW81113   3.153   2.624   2.755 -1.3184 -0.1702 -0.5886
25872SOL    HW181114   3.077   2.659   2.709 -0.6898  0.5360 -1.1094
25872SOL    HW281115   3.185   2.697   2.808 -1.1469 -0.5349 -0.1847
25873SOL     OW81116   0.834   0.592   5.052  0.0828 -0.5626  0.0122
25873SOL    HW181117   0.798   0.621   5.135  0.8333 -0.5002  0.3213
25873SOL    HW281118   0.929   0.602   5.062  0.2044 -0.9536 -0.6957
25874SOL     OW81119   7.407   0.569   0.384  0.2702  0.0479  0.2371
25874SOL    HW181120   7.429   0.636   0.449  0.5985 -2.2927  2.7205
25874SOL    HW281121   7.332   0.523   0.423  1.5537 -2.5227 -0.1506
25875SOL     OW81122   8.634   1.440   3.243 -0.1801 -0.6410 -0.6060
25875SOL    HW181123   8.726   1.425   3.220 -0.1000 -0.4872 -0.3819
25875SOL    HW281124   8.618   1.531   3.217 -0.1861 -0.5744 -0.3678
25876SOL     OW81125   5.066   4.214   4.458  0.6388  0.0775 -0.7703
25876SOL    HW181126   5.100   4.140   4.509 -0.5740  0.3150  0.4429
25876SOL    HW281127   5.144   4.251   4.416  1.5479 -0.7363  0.1114
25877SOL     OW81128  10.554   7.021   7.318  0.3841 -0.1588 -0.0117
25877SOL    HW181129  10.518   6.981   7.239  2.6393 -4.3291  0.8334
25877SOL    HW281130  10.491   6.999   7.387  0.1141  0.5068 -0.0365
25878SOL     OW81131   9.491   2.693   1.931 -0.7024  0.3450 -0.1141
25878SOL    HW181132   9.557   2.762   1.932  0.9121 -1.0990 -0.8342
25878SOL    HW281133   9.452   2.698   1.844 -0.4536  0.2529 -0.2331
25879SOL     OW81134   1.246   2.015   0.712 -0.3190 -0.2433 -0.5610
25879SOL    HW181135   1.329   2.062   0.716 -0.9753  1.2376 -2.4761
25879SOL    HW281136   1.262   1.944   0.649 -0.3057 -0.4345 -0.3444
25880SOL     OW81137   1.883   7.308   1.067  1.0277 -0.2376 -0.0003
25880SOL    HW181138   1.950   7.324   1.001  1.0840  0.3998  0.2108
25880SOL    HW281139   1.899   7.218   1.096  0.3595 -0.9097 -1.5891
25881SOL     OW81140   9.221   4.058   8.954  0.1618  0.2608 -0.4100
25881SOL    HW181141   9.214   3.976   9.004  0.6432  1.5272  1.8691
25881SOL    HW281142   9.311   4.087   8.967 -0.6786  2.4724  1.1265
25882SOL     OW81143   2.697   5.764   0.049  0.4725 -0.4820  0.1582
25882SOL    HW181144   2.702   5.860   0.049 -0.5320 -0.4004 -0.5770
25882SOL    HW281145   2.744   5.738  -0.030 -2.5855 -0.2702 -1.9366
25883SOL     OW81146  10.829   3.536   8.762 -0.4207  0.1715 -0.3231
25883SOL    HW181147  10.749   3.586   8.781  0.6054  1.7227  0.1104
25883SOL    HW281148  10.817   3.505   8.672 -1.8082 -0.2564 -0.0227
25884SOL     OW81149   7.061   5.817   7.240  0.1745  0.7500  0.2490
25884SOL    HW181150   7.084   5.729   7.211 -0.3602  1.0730 -1.2487
25884SOL    HW281151   7.079   5.873   7.164  1.5875  2.1278  1.5339
25885SOL     OW81152   2.793   4.093  10.680  0.5123  0.3188 -0.4738
25885SOL    HW181153   2.757   4.008  10.703  2.2365 -0.5211 -0.6659
25885SOL    HW281154   2.822   4.130  10.763  1.6987 -0.2529 -0.6146
25886SOL     OW81155   0.747   7.565   1.792 -0.0835  0.0624 -0.0939
25886SOL    HW181156   0.810   7.576   1.864 -0.7474  0.2220  0.4659
25886SOL    HW281157   0.795   7.513   1.727  2.4283  4.0354 -1.8858
25887SOL     OW81158   7.007   0.229   8.441 -0.1446  0.3220  0.2590
25887SOL    HW181159   6.969   0.302   8.490  3.5400  0.9431  2.5961
25887SOL    HW281160   7.027   0.163   8.508  2.7524  0.0956 -0.6872
25888SOL     OW81161   1.052   0.878   4.718 -0.3819 -0.1381 -0.3682
25888SOL    HW181162   1.090   0.897   4.632 -0.8427  0.2106 -0.4995
25888SOL    HW281163   1.003   0.957   4.740 -0.5223 -0.3478  0.0759
25889SOL     OW81164   3.209   1.118   3.873  0.1082 -0.6665 -0.5452
25889SOL    HW181165   3.262   1.057   3.923  1.0057 -1.1513 -2.0293
25889SOL    HW281166   3.119   1.096   3.896  0.4719 -1.4890  0.1249
25890SOL     OW81167  10.590   9.906   2.113 -0.2795 -0.1023 -0.6922
25890SOL    HW181168  10.643   9.900   2.033  0.2104  1.5259 -0.5356
25890SOL    HW281169  10.556   9.996   2.111 -0.5292 -0.1501  0.7619
25891SOL     OW81170   7.487   5.644   4.524 -0.4501  0.2882 -0.0118
25891SOL    HW181171   7.394   5.663   4.533 -0.7528 -0.7434 -0.8852
25891SOL    HW281172   7.515   5.693   4.447 -1.0545 -1.9868 -1.7848
25892SOL     OW81173   8.538   8.821   1.694  0.2248 -0.1503 -0.3362
25892SOL    HW181174   8.607   8.754   1.700  2.2186  1.8938  1.7886
25892SOL    HW281175   8.471   8.792   1.755  0.0408 -1.2429 -1.0306
25893SOL     OW81176   3.802   9.202   4.326  0.4125  0.2854  0.2447
25893SOL    HW181177   3.735   9.135   4.312 -0.7829  0.9454  2.2831
25893SOL    HW281178   3.866   9.160   4.384 -0.0088  0.6788  1.0100
25894SOL     OW81179   8.635   2.692   7.024  0.2385 -0.4329  0.1194
25894SOL    HW181180   8.575   2.619   7.012 -0.6568  0.5490 -1.8563
25894SOL    HW281181   8.600   2.740   7.099  0.3734 -1.5441  0.9162
25895SOL     OW81182   6.459   7.881   6.198 -0.0350  0.4250 -0.1962
25895SOL    HW181183   6.542   7.872   6.151  0.4523  0.6956  0.5887
25895SOL    HW281184   6.436   7.974   6.190  0.8112  0.8090  1.2955
25896SOL     OW81185   4.855   3.056   6.573 -0.5667  0.0316 -0.9943
25896SOL    HW181186   4.806   3.048   6.492 -0.6279 -0.5759 -0.8986
25896SOL    HW281187   4.945   3.074   6.544 -0.6464  0.1192 -1.1901
25897SOL     OW81188   4.640   1.008   1.649 -0.2983 -0.4984 -0.2498
25897SOL    HW181189   4.588   1.019   1.729 -2.0699  0.4934 -1.4541
25897SOL    HW281190   4.730   1.002   1.679 -1.1150 -3.2945  2.0368
25898SOL     OW81191   2.340   6.711   0.902 -0.2145  0.4940  0.2478
25898SOL    HW181192   2.411   6.767   0.872 -1.2982  0.7842 -1.9888
25898SOL    HW281193   2.290   6.765   0.963  0.4713  0.8999  0.4517
25899SOL     OW81194   8.433   9.370   7.168 -0.6438 -0.2906  0.4148
25899SOL    HW181195   8.356   9.409   7.209 -0.8840 -0.2289 -0.0824
25899SOL    HW281196   8.431   9.278   7.196 -1.7441 -0.6580 -0.7804
25900SOL     OW81197   7.316   3.873   1.839  0.5330  0.0391 -0.3913
25900SOL    HW181198   7.299   3.834   1.753  0.4120  1.0544 -0.8359
25900SOL    HW281199   7.366   3.806   1.886  0.5625 -0.5430 -1.2336
25901SOL     OW81200   8.640   4.887   5.310  0.0027  0.4823  0.1696
25901SOL    HW181201   8.573   4.818   5.307 -0.7426  1.0028  2.8619
25901SOL    HW281202   8.646   4.917   5.219 -0.0753 -2.6645 -1.0286
25902SOL     OW81203   0.625   7.981   4.775 -0.1537  0.2907 -0.0027
25902SOL    HW181204   0.600   7.892   4.799 -2.5202  0.8942 -0.0334
25902SOL    HW281205   0.699   8.001   4.832 -0.6457 -1.1023  1.1846
25903SOL     OW81206   2.743   3.894   6.015  0.5557 -0.0861 -0.0440
25903SOL    HW181207   2.831   3.918   6.041  1.1585  0.7671 -2.5955
25903SOL    HW281208   2.708   3.972   5.973 -1.8438 -0.0683  1.7582
25904SOL     OW81209  10.659   0.758   2.856  0.2048  0.5911  0.5182
25904SOL    HW181210  10.635   0.670   2.827 -1.2929  1.4575 -1.0687
25904SOL    HW281211  10.575   0.798   2.882  1.0321  1.1290  2.5490
25905SOL     OW81212  10.107   1.189   6.939 -1.4098 -0.3392 -0.0650
25905SOL    HW181213  10.195   1.225   6.953 -0.7919 -2.1692  1.1132
25905SOL    HW281214  10.081   1.224   6.853  1.2101 -1.1226 -1.2970
25906SOL     OW81215   9.448   6.736   4.756  0.7509 -0.1166 -0.1642
25906SOL    HW181216   9.539   6.747   4.785 -0.0956 -0.5253  2.9704
25906SOL    HW281217   9.416   6.660   4.805 -1.4552  0.3381 -0.7952
25907SOL     OW81218   1.338   2.783  10.902  0.5489  0.1535 -0.5867
25907SOL    HW181219   1.247   2.782  10.874  0.4773  0.8151 -0.4120
25907SOL    HW281220   1.386   2.819  10.827  0.3752  1.7940  0.0335
25908SOL     OW81221   6.998   7.304   6.277 -0.1406  0.0468 -0.0654
25908SOL    HW181222   6.987   7.386   6.326  1.7189  0.9806 -1.1228
25908SOL    HW281223   7.041   7.245   6.339  0.2411  0.4982  0.1023
25909SOL     OW81224   1.402   7.699  10.732  0.2397  0.6886  0.1646
25909SOL    HW181225   1.482   7.725  10.777  0.3695 -0.0473  0.3687
25909SOL    HW281226   1.332   7.720  10.794  0.4844 -1.1647  1.1204
25910SOL     OW81227  10.104   6.225   5.595 -0.1238 -0.1038 -0.3120
25910SOL    HW181228  10.099   6.138   5.555  0.3902  0.5291 -1.7998
25910SOL    HW281229  10.181   6.221   5.651 -0.6953 -0.9135  0.4513
25911SOL     OW81230   4.032   0.488   9.710  0.2761  0.1691 -0.0335
25911SOL    HW181231   3.998   0.538   9.637 -1.5316  1.5111  1.6151
25911SOL    HW281232   4.045   0.552   9.780  1.4301 -1.1178  1.0007
25912SOL     OW81233   2.973   9.980   8.118 -0.4050  0.0523 -0.1207
25912SOL    HW181234   2.900  10.024   8.075 -0.6815 -0.4415 -0.1582
25912SOL    HW281235   2.960   9.887   8.099  0.5572  0.0105 -0.6202
25913SOL     OW81236   1.560   7.829   8.567 -0.2949  1.0405 -0.3708
25913SOL    HW181237   1.631   7.868   8.516  0.6622  1.6397  1.3318
25913SOL    HW281238   1.602   7.757   8.615 -0.5289  2.0674  1.4743
25914SOL     OW81239   3.698   4.028   8.562 -0.2754  0.0552 -0.1528
25914SOL    HW181240   3.668   4.091   8.627 -0.0605 -0.2331  0.2270
25914SOL    HW281241   3.790   4.014   8.583  0.7607  2.4536 -2.5016
25915SOL     OW81242   1.200   1.848   8.658 -0.1512 -0.4668  0.1789
25915SOL    HW181243   1.218   1.853   8.752 -0.6014  0.3655  0.2320
25915SOL    HW281244   1.108   1.824   8.652 -1.0989  2.6918  0.0433
25916SOL     OW81245   5.520  10.605   1.773  0.6900 -0.2283  0.2299
25916SOL    HW181246   5.457  10.541   1.740  1.4150 -0.1151 -1.4885
25916SOL    HW281247   5.578  10.555   1.831  0.9930 -1.0503 -0.7642
25917SOL     OW81248   9.840   2.260  10.785  0.7330 -0.1391  0.3282
25917SOL    HW181249   9.866   2.300  10.868  0.7397  0.9634 -0.1850
25917SOL    HW281250   9.922   2.249  10.737  0.4866  1.7623 -0.6080
25918SOL     OW81251   3.369   1.881   3.184  0.6652 -0.0859  0.0572
25918SOL    HW181252   3.281   1.917   3.173  1.1816  1.0584 -0.5850
25918SOL    HW281253   3.380   1.871   3.278 -0.7280 -1.8114  0.0762
25919SOL     OW81254   3.920   7.457   5.925 -0.2035 -0.0506  0.9890
25919SOL    HW181255   3.977   7.444   5.849 -0.5009  0.4147  0.6794
25919SOL    HW281256   3.977   7.443   6.001  0.3019  0.3380  0.6844
25920SOL     OW81257   2.473   7.800   7.088  0.3283 -0.2074  0.4281
25920SOL    HW181258   2.433   7.884   7.111 -1.3495 -0.5089 -1.1159
25920SOL    HW281259   2.398   7.741   7.073  1.3610 -1.1212 -1.5216
25921SOL     OW81260   6.704   6.173   4.277  0.0162  0.7733 -0.4029
25921SOL    HW181261   6.741   6.256   4.246 -1.9962  1.0851 -2.2681
25921SOL    HW281262   6.643   6.200   4.346 -0.6745  0.9054 -1.0425
25922SOL     OW81263   7.339  10.980   8.038  0.1788 -0.6360  0.2297
25922SOL    HW181264   7.255  10.998   8.082 -0.4624 -1.0633 -0.7895
25922SOL    HW281265   7.369  11.065   8.008 -0.7468 -0.6791 -0.8798
25923SOL     OW81266   5.287   0.487   8.284  0.0657  0.4799  0.0551
25923SOL    HW181267   5.229   0.554   8.321 -0.8958  0.5216 -1.4505
25923SOL    HW281268   5.344   0.535   8.223  1.0681  0.2887  0.8115
25924SOL     OW81269   5.550   8.623   3.662  0.2918  0.2484 -0.4717
25924SOL    HW181270   5.463   8.649   3.694  0.3019 -1.5983  1.2615
25924SOL    HW281271   5.531   8.576   3.580 -0.1147  1.5841 -1.1789
25925SOL     OW81272   7.388   0.297   6.190 -0.5832  0.2555  0.4492
25925SOL    HW181273   7.389   0.393   6.191 -0.2553  0.2606  0.0718
25925SOL    HW281274   7.368   0.273   6.280 -3.0268  0.6763  0.0728
25926SOL     OW81275   7.158   4.949  10.447 -0.2449 -0.5190  0.3378
25926SOL    HW181276   7.162   4.991  10.361  2.1125  2.0003  1.4884
25926SOL    HW281277   7.074   4.976  10.483  0.3968  1.8459  0.2689
25927SOL     OW81278   3.984   4.380   9.649 -0.3407  0.8522 -0.2515
25927SOL    HW181279   3.954   4.410   9.564 -0.4174  0.8054 -0.2409
25927SOL    HW281280   3.918   4.317   9.677  0.3139 -0.0483 -0.6958
25928SOL     OW81281   2.064   3.098   8.113 -0.2115 -0.1039  0.8432
25928SOL    HW181282   2.098   3.106   8.024 -0.3350  1.8373  0.9308
25928SOL    HW281283   2.005   3.173   8.123  0.5794  0.3118  2.8868
25929SOL     OW81284   1.454   7.924  10.164  0.2938  0.2152  0.1636
25929SOL    HW181285   1.532   7.886  10.124 -0.1013 -0.2434 -0.1758
25929SOL    HW281286   1.459   7.896  10.256 -0.0097 -0.6848 -0.0893
25930SOL     OW81287   6.142   1.093   2.198  0.5103 -0.3136 -0.1077
25930SOL    HW181288   6.123   1.138   2.280  0.6376  0.9062 -0.7190
25930SOL    HW281289   6.211   1.031   2.220 -0.3607 -0.9115  0.9659
25931SOL     OW81290   2.445   4.658   4.059 -0.6719 -0.0246  0.0023
25931SOL    HW181291   2.436   4.725   4.127  2.2077  0.8556 -0.3611
25931SOL    HW281292   2.416   4.577   4.102 -1.1225  0.8805  1.5141
25932SOL     OW81293   3.134   6.760   0.382 -0.6628 -0.1131  0.1440
25932SOL    HW181294   3.092   6.826   0.438 -0.3424 -0.0931  0.3596
25932SOL    HW281295   3.227   6.778   0.390 -0.5698 -0.6562  0.2830
25933SOL     OW81296   0.621   9.851   9.089  0.1771  0.1295 -0.0698
25933SOL    HW181297   0.574   9.910   9.030 -0.1178  1.9649  1.8526
25933SOL    HW281298   0.707   9.891   9.099  0.2418 -0.1804  0.6706
25934SOL     OW81299   3.222   1.421   9.089 -0.1253  0.6363 -0.2955
25934SOL    HW181300   3.190   1.455   9.173 -0.9328  0.5179 -0.5448
25934SOL    HW281301   3.174   1.471   9.023 -0.3561 -0.0774 -0.6756
25935SOL     OW81302   9.804   7.683   4.002 -0.1355  0.2081  0.0194
25935SOL    HW181303   9.709   7.668   4.002 -0.1506 -0.4221  3.3412
25935SOL    HW281304   9.817   7.754   4.064  1.5883  0.7526 -0.9027
25936SOL     OW81305   6.241   7.387   6.454 -0.1932 -0.0936 -0.1728
25936SOL    HW181306   6.225   7.473   6.417 -1.6465 -0.5790 -0.7532
25936SOL    HW281307   6.154   7.348   6.462  0.4741 -1.7116 -0.4307
25937SOL     OW81308   9.619  10.981   8.842  0.0508 -0.7619  0.3975
25937SOL    HW181309   9.625  10.886   8.835  0.1866 -0.7745  0.6775
25937SOL    HW281310   9.545  11.004   8.785 -0.0954 -1.0528  0.4636
25938SOL     OW81311   4.363   2.209   2.864 -0.1248 -0.4776  0.2713
25938SOL    HW181312   4.390   2.141   2.925  2.0842 -0.8367 -0.9761
25938SOL    HW281313   4.440   2.266   2.855 -1.4581  1.4225  0.2442
25939SOL     OW81314   4.423   2.943   6.987 -0.4743  0.3772 -0.0726
25939SOL    HW181315   4.402   2.851   7.003  0.4295  0.2233  0.2707
25939SOL    HW281316   4.369   2.967   6.912 -1.5944 -0.0981  0.5601
25940SOL     OW81317   3.797   9.260  10.855  0.4741 -0.2500  0.5362
25940SOL    HW181318   3.772   9.299  10.771  2.6674  1.1121  0.4504
25940SOL    HW281319   3.819   9.170  10.834  1.1584  0.1218 -0.4248
25941SOL     OW81320   8.120   7.144   7.928  0.1812  0.5077 -0.0581
25941SOL    HW181321   8.182   7.203   7.971  1.1129 -0.1452 -0.4721
25941SOL    HW281322   8.151   7.139   7.838  0.5962 -1.1974  0.1396
25942SOL     OW81323   7.185   0.023   7.048  0.7630 -0.1112 -0.0902
25942SOL    HW181324   7.262   0.020   6.991  1.0602 -0.9565  0.3382
25942SOL    HW281325   7.112  -0.003   6.991  1.0456 -0.8727 -0.1135
25943SOL     OW81326   0.662  10.066  11.004  0.0690 -0.1826 -0.2829
25943SOL    HW181327   0.643  10.103  11.090 -0.8541 -0.4333 -0.3671
25943SOL    HW281328   0.757  10.073  10.996 -0.0416  2.1966 -0.3131
25944SOL     OW81329   3.081   5.288   7.072 -0.0627  0.1527  0.3138
25944SOL    HW181330   3.038   5.373   7.082  0.1983  0.2813  0.3633
25944SOL    HW281331   3.169   5.310   7.039  0.5140  0.0069  1.6756
25945SOL     OW81332   5.113   9.667   9.901 -0.0033 -0.4486 -0.2789
25945SOL    HW181333   5.032   9.629   9.868 -0.2627 -0.2508  0.1231
25945SOL    HW281334   5.175   9.593   9.903 -1.0015 -1.3557  2.2244
25946SOL     OW81335   5.133   0.167   6.160 -0.2100  0.0515  0.3150
25946SOL    HW181336   5.153   0.107   6.087  2.0627  1.1019 -0.0174
25946SOL    HW281337   5.161   0.120   6.238  0.3958  0.1693  0.1747
25947SOL     OW81338   4.388   2.441   6.174  0.1150  0.0334 -0.2091
25947SOL    HW181339   4.310   2.445   6.229 -0.5550  2.4560 -1.1933
25947SOL    HW281340   4.355   2.421   6.087  0.4276  1.8842 -0.8009
25948SOL     OW81341   7.161   3.331   7.708  0.2157 -0.9702  0.0984
25948SOL    HW181342   7.090   3.271   7.685 -0.6078  0.2577 -0.6550
25948SOL    HW281343   7.214   3.282   7.772  0.5886 -3.1695 -1.7713
25949SOL     OW81344   6.781   7.803   7.251 -0.4795  0.6773 -0.6195
25949SOL    HW181345   6.829   7.748   7.188 -1.2923 -0.1155 -0.5804
25949SOL    HW281346   6.832   7.798   7.331 -0.2675  0.3878 -0.7682
25950SOL     OW81347   5.704   9.074  10.155  0.1264  0.0635  0.7195
25950SOL    HW181348   5.772   9.059  10.221 -0.2582 -2.4901  0.6186
25950SOL    HW281349   5.624   9.041  10.194 -0.1692 -1.2392 -0.8633
25951SOL     OW81350   4.009  10.980   1.234  0.5265  0.5702  0.2589
25951SOL    HW181351   4.084  11.015   1.186  0.8635  0.8484  0.9768
25951SOL    HW281352   3.933  11.012   1.185  0.8141  2.4690  0.9583
25952SOL     OW81353   9.572   5.060   9.871  0.1010 -0.3509 -0.0854
25952SOL    HW181354   9.536   5.108   9.945 -0.3784 -1.0310  0.1367
25952SOL    HW281355   9.590   4.972   9.906  3.3315  0.2880  0.2254
25953SOL     OW81356   4.264   7.312   5.568  0.1592  0.1176 -0.3183
25953SOL    HW181357   4.347   7.263   5.568  0.4083  0.5287 -0.2791
25953SOL    HW281358   4.236   7.311   5.476  0.6944  0.7620 -0.5047
25954SOL     OW81359   9.369   2.288   9.903 -0.0354 -0.3064  0.2135
25954SOL    HW181360   9.449   2.341   9.912  2.5340 -3.9560  1.1340
25954SOL    HW281361   9.355   2.281   9.809  1.3697 -0.4116 -0.0038
25955SOL     OW81362   9.304   8.792   6.211 -0.2586 -0.7928 -0.0607
25955SOL    HW181363   9.242   8.860   6.185  0.0887  0.4405  2.0670
25955SOL    HW281364   9.255   8.710   6.203 -1.2465 -0.1344 -1.0479
25956SOL     OW81365   0.393   4.202   7.893 -0.1614  0.5095 -0.1238
25956SOL    HW181366   0.378   4.138   7.824 -0.0679  0.1354  0.2029
25956SOL    HW281367   0.306   4.226   7.923 -0.1577 -0.6617  0.8526
25957SOL     OW81368   7.768   2.103   7.715  0.2378 -0.1644  0.1347
25957SOL    HW181369   7.723   2.100   7.630 -1.9510 -0.5131  1.2513
25957SOL    HW281370   7.792   2.011   7.732 -1.4465 -0.4876  0.9345
25958SOL     OW81371   5.556   7.293   1.168  0.1040 -0.0890 -0.4128
25958SOL    HW181372   5.480   7.338   1.205  0.7228  0.4055  0.2932
25958SOL    HW281373   5.520   7.212   1.131 -0.8873  0.5585 -0.9071
25959SOL     OW81374   8.302   3.190   1.193  0.6497 -0.3035 -0.4377
25959SOL    HW181375   8.248   3.269   1.200  1.2233  0.1966 -1.5094
25959SOL    HW281376   8.363   3.195   1.266 -0.1698 -0.4346  0.2715
25960SOL     OW81377   5.827   2.402   7.401  0.2308  0.1845  0.9927
25960SOL    HW181378   5.740   2.368   7.381  0.5817 -0.0829 -0.1900
25960SOL    HW281379   5.853   2.356   7.481 -0.6700  0.2021  1.3083
25961SOL     OW81380   6.739   6.808   4.859 -0.1140  0.1582  0.2783
25961SOL    HW181381   6.653   6.767   4.849 -0.4414  0.6738  0.9088
25961SOL    HW281382   6.800   6.735   4.858 -0.6385 -0.2994  0.7295
25962SOL     OW81383   0.556   1.159   3.288 -0.3565 -0.0517  0.1579
25962SOL    HW181384   0.553   1.149   3.384 -0.7089 -1.0656  0.0539
25962SOL    HW281385   0.468   1.137   3.259 -0.9815  2.6491 -0.2335
25963SOL     OW81386   1.594   1.087   0.571  0.2315  0.2893  0.3123
25963SOL    HW181387   1.549   1.156   0.521 -0.0238 -0.7669 -0.9526
25963SOL    HW281388   1.682   1.122   0.586 -0.0128  1.0459  0.0247
25964SOL     OW81389   3.058   1.382   1.900 -0.0761 -0.3346 -0.0712
25964SOL    HW181390   2.974   1.383   1.854  0.7830  0.3171 -1.6710
25964SOL    HW281391   3.077   1.288   1.911 -1.3963 -0.5037  1.1090
25965SOL     OW81392   3.791   3.587   1.492 -0.1510  0.5288 -0.5225
25965SOL    HW181393   3.806   3.649   1.564 -1.2646  1.8548 -1.3891
25965SOL    HW281394   3.766   3.641   1.418  0.0873 -0.8879 -1.6851
25966SOL     OW81395   7.703  10.161   0.729 -0.2028  0.2242  0.1421
25966SOL    HW181396   7.729  10.242   0.771  0.2662 -0.1152  0.5130
25966SOL    HW281397   7.673  10.104   0.801 -0.3214 -0.0104 -0.0883
25967SOL     OW81398   1.102   9.057   7.835  0.0387  0.3375  0.1711
25967SOL    HW181399   1.092   9.001   7.758 -0.2900  0.4159  0.1532
25967SOL    HW281400   1.170   9.120   7.811 -1.1427  1.3567 -0.6499
25968SOL     OW81401   0.690   6.300   5.139 -0.1076  0.0474 -0.4407
25968SOL    HW181402   0.640   6.304   5.057 -0.7366 -0.4615 -0.0925
25968SOL    HW281403   0.648   6.365   5.196  1.7990  2.1432 -1.2760
25969SOL     OW81404   7.172   5.072  10.208 -0.3816 -0.3048  0.1150
25969SOL    HW181405   7.255   5.117  10.193 -0.1722 -0.7583 -0.1097
25969SOL    HW281406   7.108   5.121  10.155 -0.0054 -0.7435 -0.7599
25970SOL     OW81407   5.879   0.560   6.425  0.1274 -0.3119 -0.1767
25970SOL    HW181408   5.826   0.501   6.372 -0.8319  0.4102 -0.0548
25970SOL    HW281409   5.832   0.643   6.423  0.0910 -0.2239  1.7069
25971SOL     OW81410   0.335   9.796   3.513 -0.1087  0.7071 -0.1658
25971SOL    HW181411   0.358   9.748   3.434  1.0275 -0.9192  1.0703
25971SOL    HW281412   0.418   9.835   3.543 -0.1853  0.0217  1.0180
25972SOL     OW81413   4.137   5.395   1.519  0.4750  0.1451  0.0496
25972SOL    HW181414   4.228   5.377   1.542  1.4797  0.9541 -2.9161
25972SOL    HW281415   4.123   5.486   1.545  0.5911  0.1140  0.2234
25973SOL     OW81416   9.480  10.872  10.630  0.2723 -0.4285  0.8083
25973SOL    HW181417   9.425  10.815  10.683  0.6421 -0.9396  0.6404
25973SOL    HW281418   9.538  10.914  10.693  0.5152 -0.8151  0.8420
25974SOL     OW81419   4.283   5.650   2.459  0.1057  0.5013  0.7183
25974SOL    HW181420   4.294   5.588   2.530 -1.7342 -0.7483 -0.0052
25974SOL    HW281421   4.369   5.690   2.448  0.5897  0.2599  3.1735
25975SOL     OW81422  10.846   5.478   9.918 -0.1334 -0.3457 -0.5237
25975SOL    HW181423  10.757   5.505   9.895 -0.5975 -0.7346  0.7120
25975SOL    HW281424  10.863   5.522  10.002  0.3992 -1.1849 -0.1852
25976SOL     OW81425   6.462   6.532   9.197 -0.2682 -0.2253  0.3484
25976SOL    HW181426   6.448   6.577   9.280  0.8264  0.0086  0.4198
25976SOL    HW281427   6.538   6.575   9.159 -0.6899 -0.4037 -0.7340
25977SOL     OW81428   2.014   4.815   2.545 -0.3960  0.0708 -0.0133
25977SOL    HW181429   2.049   4.742   2.594 -1.4807  1.0641  2.4084
25977SOL    HW281430   1.929   4.785   2.514 -0.1706 -0.2065 -0.3635
25978SOL     OW81431   6.388   3.692   1.012  0.1099 -0.3164  0.1829
25978SOL    HW181432   6.325   3.674   1.082 -0.3527 -0.8390 -0.3610
25978SOL    HW281433   6.360   3.637   0.939  0.3730  0.4897 -0.5448
25979SOL     OW81434   3.039   5.790   9.169  0.6595  0.2890  0.7345
25979SOL    HW181435   2.990   5.708   9.171  0.3212  0.4963  1.2687
25979SOL    HW281436   3.086   5.789   9.085 -2.7757  1.5411 -1.4054
25980SOL     OW81437   2.293   8.506   3.161  0.3046 -0.3263 -0.2810
25980SOL    HW181438   2.366   8.447   3.180 -1.1912 -2.1642  0.1528
25980SOL    HW281439   2.285   8.505   3.066  0.5061 -0.5629 -0.2955
25981SOL     OW81440   2.542   5.814   8.022 -0.1383  0.2433  0.3022
25981SOL    HW181441   2.485   5.879   7.980  0.3931 -0.8852 -2.3776
25981SOL    HW281442   2.616   5.865   8.055 -0.2489  1.1339 -0.7674
25982SOL     OW81443   2.364   7.363   8.231  0.5693 -0.2905 -0.5315
25982SOL    HW181444   2.273   7.365   8.261 -0.1764 -1.4813 -2.5062
25982SOL    HW281445   2.406   7.434   8.279 -1.3204  0.1289  0.6423
25983SOL     OW81446   4.590   0.644   5.623 -0.4638  0.0436 -0.1968
25983SOL    HW181447   4.594   0.569   5.682 -1.3820 -1.2894 -1.7591
25983SOL    HW281448   4.542   0.711   5.674 -1.3580 -1.1062  0.5361
25984SOL     OW81449   6.766   0.096   6.786 -0.3068  0.8137 -0.6348
25984SOL    HW181450   6.690   0.073   6.840  0.0528  1.3960  0.1448
25984SOL    HW281451   6.768   0.192   6.787  1.3567  0.8161  0.7090
25985SOL     OW81452   2.718   3.477   2.986 -0.3610 -0.1353 -0.2677
25985SOL    HW181453   2.673   3.393   2.993 -0.4091 -0.3253 -2.2686
25985SOL    HW281454   2.807   3.460   3.015 -0.7950 -0.4711  0.9026
25986SOL     OW81455   2.838   8.822   4.208  0.5006  0.4838 -0.3542
25986SOL    HW181456   2.768   8.760   4.227 -0.9434  1.4029 -2.2709
25986SOL    HW281457   2.891   8.778   4.142  0.8810  0.3601  0.0324
25987SOL     OW81458   2.936   4.394   7.338  0.3174 -0.0293  0.2406
25987SOL    HW181459   2.854   4.400   7.289  1.2476 -1.9876 -1.6909
25987SOL    HW281460   2.909   4.369   7.427 -1.2341  0.6986  0.0004
25988SOL     OW81461   1.041   3.447   9.106 -0.6104 -0.1983  0.6687
25988SOL    HW181462   1.058   3.358   9.136 -0.7158  0.0207  1.4141
25988SOL    HW281463   1.020   3.496   9.186  0.1776  0.6725  0.3662
25989SOL     OW81464   7.165   6.576   3.045 -0.1489  0.5553 -0.4463
25989SOL    HW181465   7.256   6.590   3.018 -0.3836 -0.3081 -1.7696
25989SOL    HW281466   7.164   6.598   3.139  1.8566 -1.2075  0.0725
25990SOL     OW81467   2.818   6.171   7.610 -0.3938 -0.2136  0.1572
25990SOL    HW181468   2.906   6.137   7.594  0.4088  0.8834  1.8742
25990SOL    HW281469   2.804   6.158   7.704 -2.1377 -0.4772 -0.0980
25991SOL     OW81470   0.526   3.548   6.113 -0.1984  0.0752 -0.4217
25991SOL    HW181471   0.478   3.501   6.181  0.8079 -0.2002  0.1297
25991SOL    HW281472   0.618   3.526   6.130  0.1728  1.0513 -1.0742
25992SOL     OW81473   3.238   7.385   9.864  0.1375 -0.2424  0.8513
25992SOL    HW181474   3.201   7.442   9.797 -0.8403  0.7621  2.2106
25992SOL    HW281475   3.299   7.441   9.913  0.5503 -0.8562  1.0598
25993SOL     OW81476  10.938   1.162   4.580  0.2245 -0.6782  0.0186
25993SOL    HW181477  10.913   1.071   4.562  0.7045 -1.1144  1.4013
25993SOL    HW281478  11.034   1.160   4.580  0.3144  0.3625 -2.3423
25994SOL     OW81479   4.874  10.843   5.893 -0.4803 -0.2175  0.1337
25994SOL    HW181480   4.801  10.903   5.909 -1.1024 -0.9574  0.1116
25994SOL    HW281481   4.922  10.842   5.976 -0.6667  0.0342  0.2463
25995SOL     OW81482   6.609   9.700  10.445 -0.0710 -0.3720 -0.2439
25995SOL    HW181483   6.564   9.646  10.380 -1.8923 -1.9587  2.1143
25995SOL    HW281484   6.692   9.655  10.460 -1.5460 -2.7614  1.6641
25996SOL     OW81485   0.577  10.103   0.531  0.4770 -0.2503 -0.0561
25996SOL    HW181486   0.660  10.072   0.566  1.1470  0.1133 -1.2708
25996SOL    HW281487   0.511  10.060   0.586  1.4524 -0.4782  0.9787
25997SOL     OW81488   5.993   7.405   5.952 -0.1821 -0.0277  0.1392
25997SOL    HW181489   5.911   7.385   5.909  0.2434 -0.8967 -0.2876
25997SOL    HW281490   6.027   7.482   5.906 -0.1189 -0.4648 -0.5567
25998SOL     OW81491   1.000   6.425   4.257 -0.2254 -0.1110  0.4084
25998SOL    HW181492   1.008   6.498   4.319  1.4380 -0.4572  0.6394
25998SOL    HW281493   1.036   6.350   4.304  0.2350 -0.5666 -0.6606
25999SOL     OW81494   4.362   9.246   4.913 -0.5231  0.3798  0.7590
25999SOL    HW181495   4.368   9.335   4.879  0.7424  0.7291  1.8021
25999SOL    HW281496   4.445   9.233   4.960 -0.5730 -1.4453  0.4007
26000SOL     OW81497   5.898  10.600   6.782 -0.0915  0.7284 -0.4267
26000SOL    HW181498   5.936  10.687   6.778  0.4184  0.5559  0.2785
26000SOL    HW281499   5.815  10.612   6.828  1.1127  0.5337  1.9709
26001SOL     OW81500   6.970   4.092   8.723 -0.9899 -0.0900 -0.4920
26001SOL    HW181501   7.009   4.180   8.720  0.2883 -0.5464  1.2109
26001SOL    HW281502   7.009   4.047   8.648  0.8081 -0.1196  0.4120
26002SOL     OW81503   6.695   9.417   2.792 -0.2173  0.0177 -0.5482
26002SOL    HW181504   6.683   9.424   2.697  0.8858  0.1763 -0.6921
26002SOL    HW281505   6.742   9.335   2.804  1.0606  0.7603 -0.2992
26003SOL     OW81506   5.284   9.641   6.916  0.3856  0.6182  0.0494
26003SOL    HW181507   5.215   9.681   6.862 -0.0635 -0.2316 -0.0189
26003SOL    HW281508   5.349   9.711   6.927 -0.2863  1.3059 -0.2319
26004SOL     OW81509   8.761   9.401   7.946 -0.1545  0.4063  0.3773
26004SOL    HW181510   8.815   9.325   7.926 -0.0920  0.1621  1.4438
26004SOL    HW281511   8.821   9.475   7.941  0.3597  0.1143  1.7603
26005SOL     OW81512   1.718   1.086   9.110  0.4195  0.5552  0.2003
26005SOL    HW181513   1.643   1.037   9.144  1.0119  0.2370  1.0805
26005SOL    HW281514   1.744   1.145   9.181  1.4148  0.1845  0.1700
26006SOL     OW81515   5.932   4.775   5.756  0.0932 -0.5922  0.1529
26006SOL    HW181516   5.997   4.735   5.699 -0.1982 -0.5385 -0.2238
26006SOL    HW281517   5.873   4.703   5.780 -0.6038 -0.3356 -0.7678
26007SOL     OW81518   2.578   5.505   7.257 -0.4344 -0.0414  0.4593
26007SOL    HW181519   2.568   5.552   7.174 -0.7068 -0.2799  0.3579
26007SOL    HW281520   2.659   5.454   7.245 -0.1728  0.3441  0.5456
26008SOL     OW81521   1.074   2.844   8.247  0.1774  0.2582  0.0768
26008SOL    HW181522   1.168   2.859   8.258  0.3774  0.5380 -1.6715
26008SOL    HW281523   1.033   2.900   8.311  1.2005  0.1863  0.8261
26009SOL     OW81524   5.360   2.209   2.828 -0.4073 -0.3042  0.1183
26009SOL    HW181525   5.452   2.201   2.853 -0.4762 -0.6816  0.2545
26009SOL    HW281526   5.361   2.260   2.747 -0.0886 -0.1995  0.1889
26010SOL     OW81527   4.045   6.012   0.069  0.8246 -0.1182 -0.5138
26010SOL    HW181528   4.114   6.057   0.117  0.0337 -0.9054  1.4462
26010SOL    HW281529   4.071   5.920   0.070 -0.5419 -0.5361  0.8842
26011SOL     OW81530  10.638   9.505   0.523 -0.0993 -0.0477  0.3001
26011SOL    HW181531  10.622   9.416   0.491  0.8620  0.3348 -1.3544
26011SOL    HW281532  10.732   9.507   0.542 -0.4232  0.1174  2.0606
26012SOL     OW81533   6.941   9.045   7.786  0.1069 -0.1202  0.3436
26012SOL    HW181534   6.985   9.123   7.754 -0.8154 -0.4149 -1.8150
26012SOL    HW281535   6.859   9.077   7.823  1.2621  0.2427  2.8532
26013SOL     OW81536   5.708   3.464   0.640  0.2862 -0.2327  0.1863
26013SOL    HW181537   5.653   3.391   0.610 -0.2617  0.6529 -1.0181
26013SOL    HW281538   5.661   3.542   0.614  1.3443  0.5638  0.5979
26014SOL     OW81539   0.947  10.911   8.747  0.4887 -0.4731  0.7682
26014SOL    HW181540   0.926  10.818   8.738  1.8095 -0.7310  0.0411
26014SOL    HW281541   0.925  10.932   8.838 -1.0189 -1.1599  0.5776
26015SOL     OW81542   3.535   7.413   9.336  0.4334 -0.0863 -0.3277
26015SOL    HW181543   3.560   7.494   9.380 -0.7422 -0.4298  1.0555
26015SOL    HW281544   3.454   7.435   9.289 -0.6056 -0.7217  1.0862
26016SOL     OW81545   4.184   2.134   7.209  0.3220 -0.2835  0.6163
26016SOL    HW181546   4.276   2.153   7.192  0.2487 -1.2220 -1.0527
26016SOL    HW281547   4.185   2.064   7.274  0.7536  0.4390  1.3931
26017SOL     OW81548   6.959   9.238   1.690 -0.2112  0.4872  0.3176
26017SOL    HW181549   6.930   9.156   1.650  1.1493  0.1525 -0.0132
26017SOL    HW281550   7.052   9.243   1.672  0.5761  0.1887  3.6191
26018SOL     OW81551   8.981   4.900   1.140  0.4116 -0.5946  0.7750
26018SOL    HW181552   8.916   4.944   1.084  1.1235 -0.5481 -0.0414
26018SOL    HW281553   8.973   4.944   1.225  0.8368  0.8693  0.0899
26019SOL     OW81554   1.141  10.085   6.043 -0.5239  0.2210  0.3633
26019SOL    HW181555   1.057  10.131   6.046 -2.3692 -2.7284 -0.5339
26019SOL    HW281556   1.181  10.112   5.960 -1.3244  0.5796  0.0847
26020SOL     OW81557   0.767   6.271   1.789 -0.1407  0.4542  0.0542
26020SOL    HW181558   0.855   6.258   1.826 -0.3053  0.6915  0.5457
26020SOL    HW281559   0.771   6.358   1.749 -0.7453  1.3878  1.9070
26021SOL     OW81560   3.893   2.837   0.396 -0.1905  0.1529 -0.1306
26021SOL    HW181561   3.981   2.817   0.363 -0.5149 -0.9716 -0.3195
26021SOL    HW281562   3.837   2.836   0.319 -0.8026 -1.6748  0.3048
26022SOL     OW81563   2.250   9.947   0.590  0.1958 -0.4388 -0.6059
26022SOL    HW181564   2.195   9.923   0.664  1.4856 -0.8137  0.2592
26022SOL    HW281565   2.189   9.958   0.517 -1.0519 -0.4303  0.4169
26023SOL     OW81566   8.551   0.755   2.353 -0.0798 -0.6427 -0.5658
26023SOL    HW181567   8.469   0.765   2.305  0.1378 -0.5783 -0.9255
26023SOL    HW281568   8.616   0.735   2.286  0.3481  0.0591 -0.3740
26024SOL     OW81569   6.851   8.893   6.366  0.0147 -0.1305 -0.2857
26024SOL    HW181570   6.900   8.966   6.328  0.1121  1.4639  2.5735
26024SOL    HW281571   6.869   8.899   6.460 -1.2602 -2.9205  0.2372
26025SOL     OW81572   7.864  10.283   8.260  0.0913 -0.8116  0.0512
26025SOL    HW181573   7.876  10.223   8.333 -1.9043  0.8528  1.8943
26025SOL    HW281574   7.807  10.235   8.199  1.7326 -2.1959 -0.4759
26026SOL     OW81575   5.993   6.352  10.740  0.0878 -0.5742  0.1255
26026SOL    HW181576   6.007   6.447  10.738 -1.4480 -0.2678  1.1823
26026SOL    HW281577   6.045   6.322  10.815  1.7657 -0.8477 -1.0915
26027SOL     OW81578   1.340   9.457  10.051 -0.0712 -0.3217 -0.3658
26027SOL    HW181579   1.393   9.381  10.074  1.2054  0.6592  0.0398
26027SOL    HW281580   1.331   9.507  10.133  0.0019  0.4940 -0.8375
26028SOL     OW81581   8.064   1.142   2.758 -0.0969  0.2552  0.1338
26028SOL    HW181582   8.106   1.212   2.808  1.6161  1.1538 -2.3620
26028SOL    HW281583   8.136   1.095   2.718 -1.3411  0.3936 -2.4571
26029SOL     OW81584   6.044   3.004   9.596 -0.1481 -0.3203 -0.4310
26029SOL    HW181585   6.138   3.024   9.604 -0.1684  0.4050 -1.6724
26029SOL    HW281586   6.024   2.954   9.674  1.3548 -0.7620 -0.2858
26030SOL     OW81587  10.147   7.337   4.466 -0.1200 -0.4314 -0.4714
26030SOL    HW181588  10.068   7.294   4.497  0.0368  0.4700  1.3067
26030SOL    HW281589  10.209   7.329   4.539  0.2422  1.8845 -0.4574
26031SOL     OW81590   5.523  10.827   3.251  0.9839  0.4572  0.0289
26031SOL    HW181591   5.524  10.877   3.333 -0.2971 -0.0075  0.3509
26031SOL    HW281592   5.497  10.890   3.184 -0.3688  0.3081  0.3902
26032SOL     OW81593   8.216   3.989  10.918 -0.0214  0.0950 -0.3675
26032SOL    HW181594   8.225   3.914  10.976  2.6168  0.9004  0.4278
26032SOL    HW281595   8.135   4.032  10.946 -1.0086 -1.8367 -0.1479
26033SOL     OW81596   7.595   3.929   4.585  0.0831 -0.5659 -0.5180
26033SOL    HW181597   7.537   3.998   4.554  0.9464  0.2458 -0.3586
26033SOL    HW281598   7.581   3.857   4.524 -0.1353  0.0815 -1.2414
26034SOL     OW81599   7.724   9.223   4.286  0.4375 -0.0103 -0.0708
26034SOL    HW181600   7.677   9.174   4.353  1.4517 -1.2767 -0.2422
26034SOL    HW281601   7.718   9.315   4.315 -0.4308 -0.3602  0.9295
26035SOL     OW81602   8.309   0.660   3.037  0.0985  0.1822  0.1310
26035SOL    HW181603   8.392   0.618   3.014 -0.7523 -0.9205 -1.0611
26035SOL    HW281604   8.331   0.717   3.111  1.8733 -0.2069 -0.0438
26036SOL     OW81605   0.729  10.215   2.764 -0.5971  0.0461  0.0717
26036SOL    HW181606   0.681  10.139   2.799 -0.0120 -1.4244 -2.0968
26036SOL    HW281607   0.814  10.180   2.740 -0.4860  1.2635 -1.4555
26037SOL     OW81608   4.328   0.192   6.264 -0.6175 -0.1191 -0.8803
26037SOL    HW181609   4.288   0.116   6.305  0.3354 -0.6389 -0.8809
26037SOL    HW281610   4.351   0.250   6.336 -0.6536 -0.1835 -0.8176
26038SOL     OW81611   0.100   5.471   5.049  0.2206  0.1658 -0.1628
26038SOL    HW181612   0.113   5.380   5.078  1.0382  1.0050  2.4123
26038SOL    HW281613   0.121   5.523   5.127  0.5155  2.6044 -1.7977
26039SOL     OW81614   8.422   5.146   4.591 -0.4048  0.5352 -0.1501
26039SOL    HW181615   8.503   5.197   4.599 -0.0779 -0.2150  1.6054
26039SOL    HW281616   8.385   5.144   4.679 -0.9171 -1.4342 -0.3588
26040SOL     OW81617  10.749   7.257   7.894  0.3311 -0.4747 -0.1011
26040SOL    HW181618  10.734   7.319   7.822  0.5988  0.1711  0.3832
26040SOL    HW281619  10.694   7.182   7.873  0.5165 -0.3665 -1.0593
26041SOL     OW81620   1.770   2.032   5.555 -0.0353 -0.1191 -0.0974
26041SOL    HW181621   1.808   1.984   5.629 -0.2450  0.2077  0.2281
26041SOL    HW281622   1.676   2.030   5.571 -0.0875 -0.0964 -0.3915
26042SOL     OW81623   9.426   5.029   8.729 -0.7666 -0.7463 -0.2539
26042SOL    HW181624   9.478   4.986   8.661 -0.1929  0.8138 -0.8253
26042SOL    HW281625   9.472   5.009   8.810  0.2691 -0.1074 -0.6614
26043SOL     OW81626   3.575   2.501   9.259 -0.3651  0.1115 -0.4560
26043SOL    HW181627   3.648   2.547   9.219 -0.2934  0.2515 -0.1705
26043SOL    HW281628   3.501   2.518   9.200 -0.1440 -0.1289 -0.8056
26044SOL     OW81629   3.203   4.451   4.736 -0.2917 -0.3010 -0.6121
26044SOL    HW181630   3.146   4.378   4.760  0.1196 -0.7588 -1.0210
26044SOL    HW281631   3.152   4.502   4.673 -0.6006 -0.1988 -0.2845
26045SOL     OW81632   6.529   2.658   0.642 -0.0882  0.3881  0.0888
26045SOL    HW181633   6.556   2.750   0.647  0.5875  0.1403  1.4893
26045SOL    HW281634   6.580   2.622   0.570 -1.6002  1.4767 -1.6128
26046SOL     OW81635   4.133   6.036   0.666  0.3216 -0.6034  0.4240
26046SOL    HW181636   4.134   5.966   0.732  1.4111 -1.3341 -0.3366
26046SOL    HW281637   4.178   5.998   0.591 -0.0997  0.5335 -0.4262
26047SOL     OW81638   3.105   9.960   7.169 -0.0664  0.2947 -0.0428
26047SOL    HW181639   3.013   9.988   7.172 -0.3607 -0.1775 -2.6078
26047SOL    HW281640   3.107   9.881   7.223 -1.5096 -0.4649 -1.0275
26048SOL     OW81641   8.278  10.374   2.840  0.2578  0.0133  0.5987
26048SOL    HW181642   8.206  10.321   2.873  0.1307 -0.7261 -0.7669
26048SOL    HW281643   8.257  10.387   2.747  2.5078 -1.3905 -0.1927
26049SOL     OW81644   3.769   5.041   2.899 -0.1428  0.1196 -0.1627
26049SOL    HW181645   3.695   5.003   2.851  0.5506 -0.3293 -0.9019
26049SOL    HW281646   3.754   5.135   2.896  0.2140  0.1598 -1.8723
26050SOL     OW81647   8.729   9.375   0.248  0.8428  0.0224  0.1961
26050SOL    HW181648   8.787   9.333   0.185 -0.3317 -3.6263  1.3000
26050SOL    HW281649   8.753   9.336   0.332 -0.7777  1.1675  1.2388
26051SOL     OW81650   8.229   5.639   3.568  0.2865 -0.1062  0.3963
26051SOL    HW181651   8.323   5.624   3.562  0.5110  0.7891  1.4298
26051SOL    HW281652   8.204   5.671   3.482  0.8322 -0.8277 -0.0365
26052SOL     OW81653   9.698   3.861   0.023 -0.0057 -0.4072 -0.3120
26052SOL    HW181654   9.643   3.788  -0.006 -2.4376  1.5754 -1.0701
26052SOL    HW281655   9.635   3.927   0.054  2.0820  1.3417  0.4152
26053SOL     OW81656   9.580   2.903   9.836  0.0160 -0.2408 -0.4121
26053SOL    HW181657   9.597   2.833   9.773 -0.6065  0.0201 -0.8778
26053SOL    HW281658   9.611   2.982   9.792 -0.6572 -0.0211 -0.5056
26054SOL     OW81659   9.689   5.775   5.659  0.3883 -0.2756 -0.1136
26054SOL    HW181660   9.735   5.777   5.574  1.0669 -1.7292  0.1854
26054SOL    HW281661   9.635   5.854   5.659  2.0535  0.9354 -0.9669
26055SOL     OW81662   9.784  10.206   2.470  0.1456 -0.3740  0.2741
26055SOL    HW181663   9.807  10.185   2.379 -2.1264  2.2442 -1.0689
26055SOL    HW281664   9.855  10.264   2.500  0.5083 -0.6065 -0.1189
26056SOL     OW81665   3.917   2.253   7.424  0.2372 -0.1883 -0.1440
26056SOL    HW181666   3.980   2.303   7.475  0.5487 -1.3242  0.6354
26056SOL    HW281667   3.967   2.221   7.349  0.3369 -0.2856 -0.0366
26057SOL     OW81668   6.669   5.292  10.921 -0.1155  0.7505 -0.0682
26057SOL    HW181669   6.696   5.331  11.004  1.5229  0.4759 -0.4467
26057SOL    HW281670   6.711   5.206  10.919 -1.6078 -0.0076 -0.3963
26058SOL     OW81671   5.465   0.096   2.372 -0.1808 -0.3248 -0.2308
26058SOL    HW181672   5.420   0.019   2.406  0.6159 -0.4377  0.6257
26058SOL    HW281673   5.492   0.071   2.284 -1.2947 -0.4523 -0.5424
26059SOL     OW81674   5.710   0.551   7.356 -0.0085 -0.0562 -0.2860
26059SOL    HW181675   5.740   0.532   7.267 -0.9480  0.1172 -0.6594
26059SOL    HW281676   5.736   0.475   7.407  0.2918 -0.2908 -0.7765
26060SOL     OW81677   3.705   6.887   6.925  0.0177 -0.9429  0.2569
26060SOL    HW181678   3.631   6.837   6.958 -1.2297 -0.0021 -1.0121
26060SOL    HW281679   3.691   6.976   6.957 -1.1714 -0.0209 -2.5313
26061SOL     OW81680   8.701   3.681   4.960  0.1089  0.6701  0.0791
26061SOL    HW181681   8.693   3.748   5.027  1.8798  0.8700  0.1318
26061SOL    HW281682   8.703   3.598   5.008 -2.8706  0.4126 -0.0247
26062SOL     OW81683   9.240   3.600   8.145  0.6106 -0.6816 -0.3344
26062SOL    HW181684   9.266   3.685   8.182  0.6892 -1.4447  1.4434
26062SOL    HW281685   9.160   3.578   8.192  0.5446 -1.5547 -0.8514
26063SOL     OW81686   7.345   6.870   2.960 -0.2669  0.5029  0.0799
26063SOL    HW181687   7.359   6.775   2.960 -0.1592  0.4102  2.9762
26063SOL    HW281688   7.417   6.905   2.908  0.0678 -0.9599 -0.4920
26064SOL     OW81689   8.783   6.515   7.654  0.1201 -1.4262  0.2986
26064SOL    HW181690   8.856   6.570   7.626 -0.9167  0.1889  0.6190
26064SOL    HW281691   8.799   6.499   7.747  0.7676 -2.2530  0.0549
26065SOL     OW81692  10.988   9.322   5.829 -0.1701 -0.1065 -0.5349
26065SOL    HW181693  11.039   9.380   5.771  0.1128 -0.6182 -0.8020
26065SOL    HW281694  11.016   9.234   5.806 -1.6686 -0.4517 -1.1610
26066SOL     OW81695   5.884   7.452   5.582  0.0966  0.2293 -0.2922
26066SOL    HW181696   5.965   7.467   5.632 -1.2973  1.7780  1.6604
26066SOL    HW281697   5.882   7.522   5.517 -0.4096  1.1502  0.6954
26067SOL     OW81698   4.879   2.140   0.177 -0.2455  0.2977 -0.5171
26067SOL    HW181699   4.791   2.136   0.140 -0.4602 -0.1398  0.0340
26067SOL    HW281700   4.921   2.059   0.149 -1.3235 -1.4256  2.4269
26068SOL     OW81701   9.408   3.679   5.249  0.4711 -0.0296  0.0569
26068SOL    HW181702   9.457   3.604   5.216 -0.4498 -0.7273  0.2388
26068SOL    HW281703   9.318   3.665   5.218  0.4820  1.5131 -0.7502
26069SOL     OW81704   0.349   9.746   4.318 -0.5458 -0.0922 -0.1724
26069SOL    HW181705   0.330   9.652   4.322 -1.5883  0.1313  0.4912
26069SOL    HW281706   0.443   9.751   4.301 -0.1980 -1.2468  1.2852
26070SOL     OW81707   2.356   4.990  10.342  1.0971 -0.1703  0.7933
26070SOL    HW181708   2.325   4.908  10.302  1.7812 -0.2791  0.4515
26070SOL    HW281709   2.334   4.982  10.434 -0.6597  0.1467  0.4350
26071SOL     OW81710   2.114   7.987   8.948  0.5979 -0.3719 -0.3121
26071SOL    HW181711   2.074   8.075   8.950 -0.9460 -1.0523  1.1849
26071SOL    HW281712   2.069   7.943   8.876 -0.1091 -0.5652  0.2358
26072SOL     OW81713   8.963   8.380   7.293 -0.0501  0.5201 -0.2997
26072SOL    HW181714   9.015   8.360   7.216 -0.5424 -0.1731 -0.4708
26072SOL    HW281715   8.980   8.308   7.353 -0.4299  0.5354 -0.1654
26073SOL     OW81716   4.004   5.701   6.871  0.6105 -0.5847  0.0183
26073SOL    HW181717   3.946   5.652   6.930 -0.0225  0.3202  0.1828
26073SOL    HW281718   4.031   5.638   6.805  0.6958 -1.4230  0.8389
26074SOL     OW81719   5.886   3.177   6.029  0.3341 -0.4380 -0.3375
26074SOL    HW181720   5.954   3.244   6.024  0.7338 -0.5996  1.9081
26074SOL    HW281721   5.930   3.096   6.004  0.2712 -0.1670 -1.4022
26075SOL     OW81722   8.643   0.748   1.190 -0.4827 -0.2927  0.0723
26075SOL    HW181723   8.717   0.687   1.187  0.5774  0.9026  0.8624
26075SOL    HW281724   8.645   0.794   1.106 -0.5480 -0.5083 -0.0476
26076SOL     OW81725  10.458  10.745   2.030  0.1727  0.1096 -0.1823
26076SOL    HW181726  10.389  10.714   2.089  1.0996 -1.1667  0.2695
26076SOL    HW281727  10.467  10.838   2.051  0.7644 -0.3894  2.0261
26077SOL     OW81728   9.246   9.049   9.575 -0.2850  0.4735  0.3946
26077SOL    HW181729   9.158   9.085   9.587 -0.1812  0.6341  0.6798
26077SOL    HW281730   9.305   9.121   9.598 -0.0719  0.0080  1.3530
26078SOL     OW81731   7.763   5.846   2.752  0.1412  0.2777 -0.3747
26078SOL    HW181732   7.705   5.917   2.779  1.1276  1.1395 -0.4524
26078SOL    HW281733   7.735   5.825   2.663 -0.3031  0.4194 -0.2715
26079SOL     OW81734   5.064   1.689  10.386 -0.5509 -0.1513  0.2173
26079SOL    HW181735   5.101   1.602  10.369  0.4453 -0.0148  1.5151
26079SOL    HW281736   5.059   1.695  10.482  0.2936  1.5829  0.1903
26080SOL     OW81737   5.731   8.248   0.464  0.0130  0.1511 -0.1206
26080SOL    HW181738   5.719   8.284   0.377 -0.7463 -0.1085 -0.1292
26080SOL    HW281739   5.822   8.267   0.486  0.1724  0.3167 -0.9196
26081SOL     OW81740   4.669   4.344   4.143  0.2247  0.0764 -0.0351
26081SOL    HW181741   4.753   4.298   4.152 -0.1111 -0.6239 -0.4287
26081SOL    HW281742   4.611   4.280   4.101 -0.2945  0.8100 -0.4543
26082SOL     OW81743  10.853   5.262   0.707 -0.3902 -0.1112  0.0575
26082SOL    HW181744  10.898   5.191   0.752 -2.0080 -1.0953  0.2318
26082SOL    HW281745  10.833   5.228   0.620 -1.8271 -0.1882  0.3860
26083SOL     OW81746   6.262   5.444   1.605 -0.2654  0.8001  0.1372
26083SOL    HW181747   6.304   5.395   1.535  1.8033  0.8037  1.2898
26083SOL    HW281748   6.172   5.411   1.607  0.2710 -0.8605 -0.9864
26084SOL     OW81749   7.081   8.992   4.074  0.0172  0.4563 -0.0710
26084SOL    HW181750   7.115   9.009   3.986  1.6523  0.0334  0.4328
26084SOL    HW281751   7.126   8.912   4.102 -0.3982  0.6375  1.1901
26085SOL     OW81752   5.990   4.695   8.963  0.7961 -0.2284  0.3431
26085SOL    HW181753   5.943   4.776   8.943 -0.6307 -0.7813  1.2679
26085SOL    HW281754   6.076   4.706   8.923  0.0928  1.0940 -0.8773
26086SOL     OW81755   8.162   3.120   0.124  0.1629 -0.0483 -0.5622
26086SOL    HW181756   8.080   3.164   0.144 -0.6081 -2.4203  2.1614
26086SOL    HW281757   8.229   3.175   0.165 -0.5136 -0.0712  0.6239
26087SOL     OW81758   6.530   2.415   9.309  0.3844  0.5201 -0.4682
26087SOL    HW181759   6.458   2.352   9.299  1.2019 -0.7357  1.1030
26087SOL    HW281760   6.531   2.436   9.402  1.2867  1.4703 -0.6751
26088SOL     OW81761   2.740   3.423   7.853  0.2207  0.1211 -0.2633
26088SOL    HW181762   2.833   3.433   7.835  0.0691  0.8772 -0.6759
26088SOL    HW281763   2.705   3.512   7.848 -0.4140 -0.0744  0.5127
26089SOL     OW81764   4.172   7.224   4.668 -0.1489 -0.3210  0.3356
26089SOL    HW181765   4.165   7.129   4.677 -2.3001 -0.4376 -1.5524
26089SOL    HW281766   4.099   7.259   4.720 -0.1028  0.2089  0.0551
26090SOL     OW81767   8.341   1.612   5.671 -0.6094  0.3525 -0.3575
26090SOL    HW181768   8.397   1.547   5.628 -0.0379 -0.8094  1.9347
26090SOL    HW281769   8.288   1.649   5.601 -0.3520 -2.0012 -1.9139
26091SOL     OW81770  10.849   6.299   9.296  0.0572 -1.0283  0.1161
26091SOL    HW181771  10.754   6.298   9.310 -0.0080 -1.0034 -0.2892
26091SOL    HW281772  10.862   6.368   9.230  0.3529 -1.0549  0.1462
26092SOL     OW81773   5.049   9.832   0.185  0.0799 -0.5874  0.0164
26092SOL    HW181774   5.053   9.927   0.183  1.7507 -0.6390 -1.1562
26092SOL    HW281775   4.977   9.812   0.245 -1.6109  1.4032 -1.2174
26093SOL     OW81776   7.540   5.451   3.596 -0.1573 -0.5761  0.4907
26093SOL    HW181777   7.524   5.538   3.558  0.7396 -0.8235 -0.4969
26093SOL    HW281778   7.624   5.459   3.640  0.2872 -1.1334 -0.2348
26094SOL     OW81779   2.599   6.922   7.542  0.1509 -0.4611  0.1607
26094SOL    HW181780   2.583   6.950   7.632 -1.9878  1.8640 -0.7946
26094SOL    HW281781   2.680   6.966   7.517  0.9663 -1.4298  1.0240
26095SOL     OW81782   8.481   1.444   4.508 -0.0239 -0.0791 -0.2431
26095SOL    HW181783   8.476   1.362   4.458 -0.1556  0.0936 -0.5105
26095SOL    HW281784   8.393   1.482   4.502 -0.6149 -0.9818  1.6900
26096SOL     OW81785   5.172   6.998   4.079  0.9370 -0.1315 -0.0570
26096SOL    HW181786   5.222   7.037   4.150 -0.9322 -0.2688  1.4345
26096SOL    HW281787   5.091   7.049   4.077 -0.2656 -1.9356 -0.1223
26097SOL     OW81788   2.520  10.105   3.560 -0.2369 -0.0377  0.0244
26097SOL    HW181789   2.483  10.163   3.626 -1.3631 -1.2628  0.5077
26097SOL    HW281790   2.598  10.067   3.602 -0.2042  0.1789  0.1587
26098SOL     OW81791   8.085   4.285   4.129  0.6552 -0.9491 -0.0283
26098SOL    HW181792   8.067   4.373   4.095 -1.5539 -0.4819  2.0870
26098SOL    HW281793   8.069   4.227   4.055  1.4912  0.3365 -1.2844
26099SOL     OW81794   6.177   6.312   1.759  0.1074 -0.0689 -0.3276
26099SOL    HW181795   6.083   6.327   1.772  0.3242 -0.0228  1.4802
26099SOL    HW281796   6.181   6.227   1.715 -0.7588 -1.5133  2.1593
26100SOL     OW81797   3.557   6.984   2.922 -0.4720 -0.8511 -0.3364
26100SOL    HW181798   3.652   6.981   2.910 -0.2505  2.0566  0.0190
26100SOL    HW281799   3.543   6.943   3.007  0.6276 -0.2457  0.1643
26101SOL     OW81800   1.340   3.550   5.202  0.8697  0.1055 -0.3299
26101SOL    HW181801   1.276   3.587   5.141  0.1388  1.1845  1.0170
26101SOL    HW281802   1.332   3.456   5.191 -0.2259  0.2552 -0.9357
26102SOL     OW81803   8.791   5.988   8.019 -0.4728  0.3427 -0.1739
26102SOL    HW181804   8.856   5.936   8.066 -1.4663  0.5276  1.4613
26102SOL    HW281805   8.787   5.948   7.932 -0.7914 -1.9634  0.8381
26103SOL     OW81806   3.411   2.586   9.712 -0.2126  0.2087  0.3061
26103SOL    HW181807   3.414   2.659   9.650  0.3465 -0.1364 -0.0800
26103SOL    HW281808   3.329   2.600   9.760 -0.0962  1.1059  0.2676
26104SOL     OW81809   1.674   9.054   1.616  0.0034  0.4114 -0.2299
26104SOL    HW181810   1.668   9.136   1.567 -0.2994  0.0603 -0.7888
26104SOL    HW281811   1.641   9.077   1.703 -0.6658  0.7469 -0.5556
26105SOL     OW81812   0.163   9.288   6.161 -0.4169  0.0962  0.4573
26105SOL    HW181813   0.107   9.235   6.218 -1.8384 -0.6309 -1.5154
26105SOL    HW281814   0.102   9.338   6.107  0.8932  2.0617  0.6936
26106SOL     OW81815   7.860   7.934  10.065 -0.2754 -0.2806 -0.1072
26106SOL    HW181816   7.845   8.013  10.013 -0.6064 -1.1616 -1.3927
26106SOL    HW281817   7.859   7.965  10.156  1.0737  1.4202 -0.6192
26107SOL     OW81818   8.694   0.622   6.794 -0.0964  0.0849  0.7052
26107SOL    HW181819   8.619   0.680   6.782  0.4126  0.3475 -1.7633
26107SOL    HW281820   8.657   0.539   6.822 -1.0709  0.7924  1.6131
26108SOL     OW81821   1.181   2.166   2.798 -0.2553  0.5179 -0.8267
26108SOL    HW181822   1.268   2.153   2.760  0.5548 -0.0441  1.1282
26108SOL    HW281823   1.172   2.096   2.862 -2.3232  0.3482 -1.2507
26109SOL     OW81824   1.377   4.372   8.080  0.2243 -0.3546 -0.0040
26109SOL    HW181825   1.360   4.283   8.111 -1.0838 -0.7125 -1.5485
26109SOL    HW281826   1.303   4.390   8.022 -0.6000  2.5016  1.7453
26110SOL     OW81827   9.399   2.407   2.992  0.5767  0.4808  0.3300
26110SOL    HW181828   9.380   2.314   2.997  1.3724  0.2575 -0.5701
26110SOL    HW281829   9.331   2.442   2.934 -0.4559  0.6882  1.6396
26111SOL     OW81830   7.785   0.548   1.218  0.0008 -0.5847 -0.0929
26111SOL    HW181831   7.718   0.518   1.280  0.1191 -1.7625 -0.5081
26111SOL    HW281832   7.867   0.511   1.251  0.6283  1.4895  0.8504
26112SOL     OW81833   5.933   6.817   6.463 -0.5006 -0.1955 -0.0237
26112SOL    HW181834   6.019   6.788   6.494 -0.5282  1.0399  1.3432
26112SOL    HW281835   5.950   6.900   6.418 -1.1171  0.9252  1.6984
26113SOL     OW81836   8.638   1.045   9.535 -0.4011 -0.0488  0.0296
26113SOL    HW181837   8.706   1.075   9.595  0.0708  1.9498 -1.3919
26113SOL    HW281838   8.657   0.952   9.521  0.6824 -0.0529  1.3472
26114SOL     OW81839   5.570  10.217   8.129 -0.1983  0.4311 -0.2050
26114SOL    HW181840   5.591  10.153   8.060 -0.2408  1.0968 -0.8535
26114SOL    HW281841   5.600  10.176   8.210 -0.3171 -0.4532 -0.5965
26115SOL     OW81842  10.014   0.114   3.197 -0.5292  0.3757 -0.7410
26115SOL    HW181843   9.998   0.029   3.237 -0.6593  0.6708 -0.1678
26115SOL    HW281844  10.028   0.174   3.270 -0.2659  0.8142 -1.1446
26116SOL     OW81845   1.180   8.421   5.908 -0.3633 -0.1463 -0.2082
26116SOL    HW181846   1.109   8.357   5.909 -0.8731  0.4082  1.1533
26116SOL    HW281847   1.249   8.381   5.961 -0.5871  0.3175  0.4373
26117SOL     OW81848   8.923   9.687   8.302  0.6363  0.3016  0.0011
26117SOL    HW181849   8.844   9.637   8.284  1.2633  0.0674 -2.4882
26117SOL    HW281850   8.984   9.624   8.339  0.7361 -0.3315 -1.1959
26118SOL     OW81851   2.069   5.948   1.863  0.4802  0.4994  0.1069
26118SOL    HW181852   2.017   5.872   1.890  0.9332 -0.9356 -2.6049
26118SOL    HW281853   2.016   6.024   1.885 -1.1243 -0.7479  0.7024
26119SOL     OW81854   2.308   7.042   0.943 -0.1006  0.2312  0.0884
26119SOL    HW181855   2.271   6.988   1.013  0.2884  2.9557  2.5799
26119SOL    HW281856   2.400   7.053   0.968  0.1338  0.9821 -1.0479
26120SOL     OW81857   6.269   3.827   0.056  0.1909  0.0212 -0.3260
26120SOL    HW181858   6.329   3.829  -0.019 -0.3949  2.9011 -0.8686
26120SOL    HW281859   6.323   3.796   0.129  1.4791 -0.4200 -1.4155
26121SOL     OW81860   3.986   7.898   7.576 -0.6254 -0.2652 -0.0778
26121SOL    HW181861   3.929   7.934   7.508 -0.1642 -0.8862 -0.8058
26121SOL    HW281862   3.935   7.826   7.614 -0.2925 -0.9117 -0.8241
26122SOL     OW81863   4.276   3.737   0.009 -0.0562 -0.3895  0.0227
26122SOL    HW181864   4.266   3.689  -0.073 -0.6981 -1.1922  0.5473
26122SOL    HW281865   4.360   3.707   0.044  1.2697  1.5395 -1.3164
26123SOL     OW81866   6.102   0.501   5.283  0.4691 -0.0183  0.7516
26123SOL    HW181867   6.071   0.411   5.276 -2.7801  1.0877 -0.7396
26123SOL    HW281868   6.137   0.507   5.372  1.1255 -2.7811  0.7730
26124SOL     OW81869   7.576   6.479   4.370  0.1614  0.3723 -0.3934
26124SOL    HW181870   7.528   6.562   4.363  0.2849  0.3227 -2.1624
26124SOL    HW281871   7.522   6.415   4.324  1.7587  0.2687 -2.2473
26125SOL     OW81872   7.368   6.662   2.012  0.3546  0.0332 -0.3393
26125SOL    HW181873   7.350   6.733   2.074 -0.4960 -0.7608  0.3472
26125SOL    HW281874   7.450   6.624   2.041  0.6966  0.5741 -0.5729
26126SOL     OW81875   2.960   9.379   9.026 -0.2325 -0.1907  0.0117
26126SOL    HW181876   2.919   9.333   8.952 -2.3668 -0.0931  1.0685
26126SOL    HW281877   2.978   9.310   9.089  0.5375 -0.1106 -0.1043
26127SOL     OW81878   9.662   9.053   1.969 -0.1009 -0.2378 -0.3027
26127SOL    HW181879   9.618   9.115   2.028  0.4463 -1.1047  1.0697
26127SOL    HW281880   9.652   8.968   2.011  1.7214 -0.6515 -0.6063
26128SOL     OW81881   0.138   7.513   8.148 -0.2859 -0.0935 -0.1357
26128SOL    HW181882   0.231   7.499   8.129 -0.5555  1.4257 -3.2079
26128SOL    HW281883   0.092   7.455   8.087 -1.3232  0.9161 -0.3408
26129SOL     OW81884   1.743   0.938   0.285 -0.2286 -0.1074 -0.4347
26129SOL    HW181885   1.757   0.844   0.295 -1.0858 -0.0976  1.2687
26129SOL    HW281886   1.823   0.978   0.320  0.0974 -0.1964 -1.0733
26130SOL     OW81887   8.076   4.844   8.933 -0.0251 -0.3233 -0.0236
26130SOL    HW181888   8.140   4.913   8.916  1.2332 -1.6726 -0.9902
26130SOL    HW281889   7.992   4.884   8.910  0.6138  1.0366 -0.1078
26131SOL     OW81890   5.853   0.630  10.981  0.5231  0.5069  0.0943
26131SOL    HW181891   5.825   0.540  10.997  1.2934 -0.1877 -2.0628
26131SOL    HW281892   5.819   0.651  10.894 -1.4909  3.1398  1.4054
26132SOL     OW81893   6.636   0.220   1.802 -0.0540 -0.3131  0.6522
26132SOL    HW181894   6.644   0.159   1.875 -1.8467  1.3013  2.3264
26132SOL    HW281895   6.544   0.249   1.805  0.5153  1.8573 -0.5158
26133SOL     OW81896   1.018   4.638   4.156  0.2438 -0.5828  0.0400
26133SOL    HW181897   1.000   4.661   4.065  0.3932  0.0106  0.1549
26133SOL    HW281898   0.932   4.622   4.195  0.2464 -2.4209 -0.5935
26134SOL     OW81899  10.053   1.961  10.734  0.1301  0.2609 -0.1653
26134SOL    HW181900  10.021   1.969  10.644 -0.4885  3.4266  0.1909
26134SOL    HW281901   9.975   1.944  10.786  0.4203 -1.1002 -0.1484
26135SOL     OW81902   3.508   3.586   8.684  0.1815 -0.0023  0.2313
26135SOL    HW181903   3.555   3.592   8.767  2.1190  0.9484 -0.8407
26135SOL    HW281904   3.495   3.677   8.657  1.9454 -0.2383 -1.6898
26136SOL     OW81905  10.838   8.105  10.077  0.4671  0.0572  0.3845
26136SOL    HW181906  10.853   8.058   9.995  0.1517  0.0255  0.3442
26136SOL    HW281907  10.777   8.048  10.126  0.1025  0.4099  0.3468
26137SOL     OW81908   4.962   1.145   5.096 -0.0757 -0.4724  0.4108
26137SOL    HW181909   5.043   1.148   5.045 -1.1341 -0.1601 -1.3317
26137SOL    HW281910   4.918   1.065   5.066 -0.9501 -0.0224  0.4496
26138SOL     OW81911   3.340   9.479  10.456  0.5068  0.0824 -0.7090
26138SOL    HW181912   3.281   9.547  10.488 -0.6730 -1.7068  1.1744
26138SOL    HW281913   3.357   9.424  10.533  1.6959 -1.5431 -2.0648
26139SOL     OW81914   3.888   2.549   2.172 -0.2086  0.1894 -0.3222
26139SOL    HW181915   3.923   2.506   2.250 -2.3022 -2.8480 -0.8505
26139SOL    HW281916   3.959   2.546   2.108  0.3904 -0.6683  0.3608
26140SOL     OW81917   4.292   9.064   8.282  0.5502 -0.1757  0.2735
26140SOL    HW181918   4.212   9.053   8.334  0.8145 -0.8942  0.5474
26140SOL    HW281919   4.267   9.124   8.212  0.0057  0.2912  0.8560
26141SOL     OW81920   2.366   0.705   6.147  0.3737 -0.0073 -0.7655
26141SOL    HW181921   2.389   0.659   6.229 -0.5719 -0.1361 -0.5687
26141SOL    HW281922   2.433   0.774   6.140  0.0245  0.5024  0.5253
26142SOL     OW81923   5.826   2.402   3.551  0.3545 -0.0389 -0.5062
26142SOL    HW181924   5.841   2.318   3.506 -0.7124 -0.6203  0.1840
26142SOL    HW281925   5.831   2.467   3.481 -0.0688 -0.8112 -1.2752
26143SOL     OW81926   7.790   8.514   6.079  0.1271 -0.1097  0.1300
26143SOL    HW181927   7.869   8.562   6.104 -0.3962  0.3482  0.9848
26143SOL    HW281928   7.722   8.548   6.139 -0.9054  0.1162 -1.1278
26144SOL     OW81929   9.639   9.037   4.482  0.0692  0.0080 -0.4351
26144SOL    HW181930   9.704   8.967   4.486 -0.2072 -0.1927  0.9266
26144SOL    HW281931   9.672   9.097   4.416  0.0098 -1.7009 -2.1053
26145SOL     OW81932   1.189   8.741   1.503 -0.7055 -0.6377 -0.1865
26145SOL    HW181933   1.177   8.659   1.456 -0.1093  0.8215 -3.1429
26145SOL    HW281934   1.269   8.778   1.465 -0.7112  1.1081  1.3815
26146SOL     OW81935   2.141   1.787   5.108  0.4151  0.3172  0.6464
26146SOL    HW181936   2.190   1.831   5.039 -0.1100  0.7677  0.5593
26146SOL    HW281937   2.105   1.858   5.161 -0.4468 -0.0012  0.5005
26147SOL     OW81938   7.947   8.931   3.560 -0.2729  0.0999  0.7184
26147SOL    HW181939   7.871   8.930   3.619 -1.8415 -0.5248 -1.1881
26147SOL    HW281940   7.923   8.994   3.491  0.5998 -0.6665 -0.3269
26148SOL     OW81941   8.878   2.701   8.437  0.3815 -0.1664  0.0586
26148SOL    HW181942   8.865   2.620   8.388 -0.2725  0.0067 -0.0666
26148SOL    HW281943   8.818   2.764   8.396  2.4865  1.0519 -1.3320
26149SOL     OW81944   3.575   0.188   6.779  0.0056  0.0894 -0.0185
26149SOL    HW181945   3.634   0.114   6.765  0.3975  0.5871 -1.1045
26149SOL    HW281946   3.568   0.230   6.693 -1.7782  0.1617  0.1313
26150SOL     OW81947  10.561   4.616   8.114 -0.5388  0.4214  0.4778
26150SOL    HW181948  10.496   4.566   8.065 -0.6346  0.1651  0.8695
26150SOL    HW281949  10.634   4.627   8.052 -0.7678  0.3226  0.1906
26151SOL     OW81950   4.810   3.405   9.583  0.1592  0.0491  0.3730
26151SOL    HW181951   4.814   3.492   9.543 -1.0928  0.4571  1.0608
26151SOL    HW281952   4.789   3.422   9.675 -0.4145 -0.9922  0.4519
26152SOL     OW81953   3.243   4.060   5.170 -0.1631  0.5735  0.4424
26152SOL    HW181954   3.220   4.113   5.246  0.1611 -0.2670  1.1362
26152SOL    HW281955   3.251   3.971   5.204 -1.4169 -0.0662 -0.8311
26153SOL     OW81956   1.742   5.752   6.063 -0.2675 -0.4545  0.2618
26153SOL    HW181957   1.690   5.680   6.028 -0.4724 -0.5449  0.7378
26153SOL    HW281958   1.705   5.831   6.024 -0.0836 -0.6011 -0.2127
26154SOL     OW81959   8.886   5.182   6.224  0.1752  0.0576  0.0457
26154SOL    HW181960   8.953   5.242   6.255 -0.1985 -0.3263  1.6484
26154SOL    HW281961   8.896   5.104   6.279 -1.7756  0.1097  0.5283
26155SOL     OW81962   9.683   7.406  10.129  0.6454  0.7222  0.4607
26155SOL    HW181963   9.698   7.330  10.186  0.2635  0.7275  0.5717
26155SOL    HW281964   9.679   7.480  10.190  0.3779  0.7469  0.4126
26156SOL     OW81965   3.504   4.740   9.172  0.2457 -0.1344  0.4119
26156SOL    HW181966   3.496   4.709   9.083  1.1346 -2.3479  1.0429
26156SOL    HW281967   3.435   4.695   9.221  1.2122 -0.7673  1.2471
26157SOL     OW81968   5.235   7.455   3.230  0.1844  0.8144  0.3052
26157SOL    HW181969   5.180   7.381   3.205  0.1481 -0.0599  2.6738
26157SOL    HW281970   5.289   7.472   3.153 -0.7176 -0.8217 -0.7471
26158SOL     OW81971   5.636   6.836   1.103  0.0716  0.2887  0.3474
26158SOL    HW181972   5.594   6.863   1.021  1.1362  0.5010 -0.1462
26158SOL    HW281973   5.627   6.741   1.106 -0.6657  0.3568  0.3823
26159SOL     OW81974   2.988   7.954   5.935 -0.0657  0.4138  0.6302
26159SOL    HW181975   3.040   8.003   5.999 -1.6824  2.7034  0.3025
26159SOL    HW281976   3.038   7.962   5.853 -0.4785  1.9215  0.4959
26160SOL     OW81977   8.600   5.519   3.203 -0.5247 -0.7589 -0.2018
26160SOL    HW181978   8.515   5.475   3.211 -1.2411  0.8852  3.0222
26160SOL    HW281979   8.656   5.474   3.266 -0.6649  1.4377  1.6182
26161SOL     OW81980  10.494   2.418   1.204 -0.3410  0.3895  0.8420
26161SOL    HW181981  10.543   2.358   1.149 -0.8211  0.4243  0.3670
26161SOL    HW281982  10.552   2.436   1.278  0.3705  0.4669  0.2691
26162SOL     OW81983   8.397   0.234  10.708 -0.0036  0.0009 -0.3586
26162SOL    HW181984   8.354   0.319  10.713 -0.8853 -0.4818  0.6002
26162SOL    HW281985   8.464   0.245  10.641 -1.0167  1.0453 -1.2360
26163SOL     OW81986   7.412   9.228  10.938  0.3562  0.1408 -0.6339
26163SOL    HW181987   7.503   9.219  10.969  0.1401 -1.0146 -0.2803
26163SOL    HW281988   7.385   9.139  10.919 -1.0745  0.3382  0.3190
26164SOL     OW81989   4.971   4.551  10.195  0.0620  0.1572  0.0133
26164SOL    HW181990   4.975   4.631  10.142  0.5405  0.5312  0.5994
26164SOL    HW281991   4.923   4.489  10.141  0.3499  0.5989 -0.7701
26165SOL     OW81992   7.387   9.107   9.186  0.3311  0.1339  0.7285
26165SOL    HW181993   7.460   9.069   9.234  0.8198  0.3273  0.1487
26165SOL    HW281994   7.427   9.173   9.129 -0.1488 -0.4732 -0.3619
26166SOL     OW81995   8.633   0.850   4.364  0.3470 -0.1725  0.5778
26166SOL    HW181996   8.590   0.889   4.440 -0.5222 -0.0966  0.0740
26166SOL    HW281997   8.726   0.856   4.382  0.2226  1.6161  0.7842
26167SOL     OW81998   3.189   2.560   1.082 -0.3815 -0.3323 -0.5335
26167SOL    HW181999   3.169   2.520   0.997 -0.7798  0.1855 -0.6873
26167SOL    HW282000   3.216   2.487   1.137  1.7169 -0.4587 -1.6431
26168SOL     OW82001   8.744   9.910   1.303  0.0487 -0.7642 -0.0179
26168SOL    HW182002   8.837   9.921   1.325 -0.4069  0.3134  1.4594
26168SOL    HW282003   8.697   9.953   1.373 -1.6059 -1.4407 -0.6623
26169SOL     OW82004   5.513   2.533   3.519 -0.0869 -0.0132 -0.0606
26169SOL    HW182005   5.602   2.554   3.547 -0.5817 -0.7280  2.2852
26169SOL    HW282006   5.513   2.437   3.509 -0.9055 -0.2018  1.4017
26170SOL     OW82007  10.187  10.668   2.151 -0.1682  0.1238  0.3053
26170SOL    HW182008  10.137  10.587   2.164 -0.9948  0.6239  0.3208
26170SOL    HW282009  10.152  10.705   2.070  1.3568 -0.3503 -0.6156
26171SOL     OW82010   9.835   5.213   5.661 -0.3444  0.3330  0.6738
26171SOL    HW182011   9.843   5.173   5.747 -1.1152  1.3487  1.2361
26171SOL    HW282012   9.893   5.161   5.605  0.3027 -0.2330  1.8334
26172SOL     OW82013   8.809   0.241   6.654 -0.1652 -0.0764  0.5728
26172SOL    HW182014   8.858   0.168   6.691 -1.6189 -1.4180 -0.0011
26172SOL    HW282015   8.868   0.281   6.590  0.3564 -1.3307  0.2442
26173SOL     OW82016   5.861   9.898   9.646  0.2571 -0.1547  0.4970
26173SOL    HW182017   5.873   9.810   9.680  2.0052 -0.2740 -0.3122
26173SOL    HW282018   5.818   9.946   9.717 -1.2455 -1.7654  0.7334
26174SOL     OW82019   0.269  10.777   3.992  0.0351  0.2206  0.1725
26174SOL    HW182020   0.363  10.773   4.010  0.1143  0.1298 -0.2576
26174SOL    HW282021   0.263  10.807   3.902 -0.3426  0.0061  0.1240
26175SOL     OW82022   6.607   2.412   4.251 -0.3133 -0.0723 -0.4150
26175SOL    HW182023   6.632   2.484   4.193 -0.3519 -0.2721 -0.6799
26175SOL    HW282024   6.687   2.359   4.260  0.2946  1.0506  1.3428
26176SOL     OW82025   7.767   8.452  10.413 -0.2533  0.2615 -0.1314
26176SOL    HW182026   7.730   8.364  10.404  0.2672  0.2115 -2.8861
26176SOL    HW282027   7.696   8.510  10.387 -0.6488  0.7335  1.8492
26177SOL     OW82028   5.716   0.596   2.781 -0.5780 -0.7513  0.2481
26177SOL    HW182029   5.692   0.675   2.733  0.7719  0.7291  1.8560
26177SOL    HW282030   5.661   0.527   2.745 -3.4273  1.3541  0.2857
26178SOL     OW82031   9.968   9.560  10.658 -0.2418 -0.1217 -0.1842
26178SOL    HW182032   9.967   9.650  10.626  1.6103  0.2772  0.7681
26178SOL    HW282033   9.960   9.568  10.753  0.0297 -0.9617 -0.0827
26179SOL     OW82034   9.468   3.464   1.104  0.0784 -0.1988  0.6866
26179SOL    HW182035   9.526   3.394   1.134  0.9308  0.2314  0.0845
26179SOL    HW282036   9.495   3.541   1.154  0.0859  0.0232  0.3473
26180SOL     OW82037   3.181   9.601   0.616  0.3305  0.3563  0.1768
26180SOL    HW182038   3.175   9.518   0.568  3.0039 -1.1684  2.1976
26180SOL    HW282039   3.210   9.664   0.550  1.3051 -1.0266 -0.7906
26181SOL     OW82040  10.786   2.257   4.451 -0.4813  0.5858  0.6927
26181SOL    HW182041  10.867   2.308   4.444 -0.0234 -0.3132 -1.4102
26181SOL    HW282042  10.813   2.167   4.432 -2.3914  0.7347 -3.9073
26182SOL     OW82043   0.969   2.260   8.505  0.8288  0.6101 -0.2833
26182SOL    HW182044   0.878   2.270   8.476 -0.2057 -0.2252  2.3896
26182SOL    HW282045   1.001   2.350   8.517  0.3964  0.9087 -1.2670
26183SOL     OW82046   1.813   9.908   2.933 -0.3207  0.4623 -0.0548
26183SOL    HW182047   1.719   9.906   2.915 -0.1486 -1.2123 -0.8963
26183SOL    HW282048   1.820   9.894   3.027 -0.8614 -1.5483 -0.2804
26184SOL     OW82049   6.930   8.858  10.971  0.1063 -0.3054  0.1541
26184SOL    HW182050   6.895   8.802  10.902  1.9477 -0.0245 -1.0563
26184SOL    HW282051   6.889   8.825  11.051 -2.8096 -0.0388 -1.1194
26185SOL     OW82052   7.520   9.458   3.596  0.2016 -0.3593 -0.4441
26185SOL    HW182053   7.511   9.378   3.647  0.5102  1.0927  2.0533
26185SOL    HW282054   7.475   9.525   3.648  0.7431  1.2716 -1.9767
26186SOL     OW82055  10.408   1.364   4.876 -0.0003  0.1938 -0.0440
26186SOL    HW182056  10.392   1.273   4.853 -0.2380 -0.2169  1.6028
26186SOL    HW282057  10.414   1.364   4.972 -0.9322  2.0467  0.0640
26187SOL     OW82058   7.518   7.841   8.257 -0.2485 -0.1350 -0.2202
26187SOL    HW182059   7.549   7.753   8.278  0.4564  0.4693  1.5094
26187SOL    HW282060   7.424   7.837   8.276 -0.1766 -0.4499  0.0896
26188SOL     OW82061   6.665   0.664   6.301 -0.4484  0.1635 -0.4167
26188SOL    HW182062   6.685   0.751   6.269 -1.2999  0.6988  0.4536
26188SOL    HW282063   6.576   0.671   6.337 -0.3225 -0.9135  0.1578
26189SOL     OW82064  10.885   9.500   6.065 -0.2430 -0.1870  0.0290
26189SOL    HW182065  10.936   9.580   6.070  0.4143 -0.6632  2.1830
26189SOL    HW282066  10.921   9.452   5.990  2.3277 -0.3609  1.2910
26190SOL     OW82067   0.227   9.911   9.603  0.1631 -0.9234 -0.3425
26190SOL    HW182068   0.144   9.910   9.651  0.4464  0.1047  0.2078
26190SOL    HW282069   0.282   9.973   9.652  1.0944 -1.2407 -0.9578
26191SOL     OW82070   0.441   9.163  10.739  0.2718  0.2626  0.5824
26191SOL    HW182071   0.390   9.230  10.783  0.5576  0.0064  1.3222
26191SOL    HW282072   0.531   9.176  10.771  0.5137  0.1773 -0.0512
26192SOL     OW82073  11.001   9.371   5.083 -0.0666  0.0677  0.1930
26192SOL    HW182074  10.933   9.306   5.098 -0.7587  0.5954 -0.6164
26192SOL    HW282075  10.961   9.436   5.027  1.2517  0.1490 -0.7008
26193SOL     OW82076   2.338  10.194   9.091  0.2346  0.1891  0.4338
26193SOL    HW182077   2.402  10.188   9.020 -2.0642 -0.3647 -1.7503
26193SOL    HW282078   2.281  10.267   9.065 -0.3137  0.3961  2.0873
26194SOL     OW82079   4.634   0.697   2.155  0.1243  0.2578  0.4475
26194SOL    HW182080   4.666   0.787   2.155 -2.2105  1.1351 -0.0316
26194SOL    HW282081   4.558   0.698   2.213 -0.2899 -1.2892 -0.0097
26195SOL     OW82082   7.613   7.992   4.366 -0.4396 -0.4690  0.3655
26195SOL    HW182083   7.544   7.990   4.300 -1.0194 -0.7496  0.9751
26195SOL    HW282084   7.586   8.060   4.428  0.4695  0.3130 -0.0604
26196SOL     OW82085   5.900   4.881   0.818  0.5977  0.1510 -0.4517
26196SOL    HW182086   5.860   4.896   0.903  1.1378  2.0743 -0.4847
26196SOL    HW282087   5.980   4.832   0.836 -0.7304 -2.0766 -0.2036
26197SOL     OW82088   7.809   6.446   0.084  0.1706  0.1421  0.2498
26197SOL    HW182089   7.894   6.486   0.103 -0.2449  0.7878  0.7590
26197SOL    HW282090   7.745   6.512   0.108 -0.5842 -1.1636  2.1380
26198SOL     OW82091   7.545   4.718   8.215  0.2462  0.2494  0.7098
26198SOL    HW182092   7.458   4.689   8.243  0.1193  1.1666  1.3037
26198SOL    HW282093   7.576   4.774   8.285  1.5957 -0.5391  0.7874
26199SOL     OW82094   4.836   9.973   1.454 -0.1200  0.0145  0.2724
26199SOL    HW182095   4.927   9.988   1.429 -0.0877 -0.6892 -0.0519
26199SOL    HW282096   4.785  10.010   1.382 -0.1223  1.0532  0.7853
26200SOL     OW82097   6.268   7.348  10.934  0.0593 -0.1994 -0.1815
26200SOL    HW182098   6.182   7.341  10.976 -0.8606 -0.3414 -2.0210
26200SOL    HW282099   6.264   7.430  10.885  0.7954 -0.4526 -0.6796
26201SOL     OW82100   3.352   5.047   0.102 -0.0801  0.2755 -0.0288
26201SOL    HW182101   3.265   5.012   0.081 -1.3019  1.7635  2.1276
26201SOL    HW282102   3.372   5.011   0.189  1.3267  0.2228 -0.3475
26202SOL     OW82103   6.625   5.145   8.539  0.2231  0.6068  0.1533
26202SOL    HW182104   6.702   5.114   8.588 -0.8284  0.1895  1.6164
26202SOL    HW282105   6.656   5.154   8.449  2.0651  0.7375  0.7525
26203SOL     OW82106   6.107   8.812   2.339 -0.0590  0.6479  0.1324
26203SOL    HW182107   6.068   8.888   2.383 -0.6241 -0.6869  2.0574
26203SOL    HW282108   6.034   8.754   2.321  0.4010  0.4180 -1.0905
26204SOL     OW82109   2.352   4.385   0.390 -0.3093 -0.6908  0.4802
26204SOL    HW182110   2.319   4.470   0.359 -0.9799 -1.5703 -1.3366
26204SOL    HW282111   2.336   4.387   0.485 -0.1143  1.2752  0.5306
26205SOL     OW82112   7.148   6.500  10.152 -0.2120 -0.5479 -0.0954
26205SOL    HW182113   7.113   6.472  10.237  0.5560 -1.5142 -0.0886
26205SOL    HW282114   7.180   6.420  10.111  0.8450  0.1269 -0.6373
26206SOL     OW82115   0.022   5.484   1.007 -0.4613 -0.4351 -0.4316
26206SOL    HW182116  -0.020   5.568   1.028  1.7298  0.9270 -1.1903
26206SOL    HW282117   0.004   5.471   0.914  1.3504  0.5660 -0.9657
26207SOL     OW82118   0.610   0.082   6.688 -0.6308  0.1298  0.0934
26207SOL    HW182119   0.532   0.090   6.742 -1.1597  0.0418 -0.6330
26207SOL    HW282120   0.619  -0.011   6.671  0.7576 -0.0910  1.7381
26208SOL     OW82121   0.416   8.898   1.672 -0.6065 -0.2508 -0.6594
26208SOL    HW182122   0.463   8.918   1.753 -0.4617  1.5968 -1.1443
26208SOL    HW282123   0.482   8.906   1.603 -1.2096  0.5883 -1.1686
26209SOL     OW82124   9.536   2.682   4.172 -0.0999 -0.4136 -0.0213
26209SOL    HW182125   9.471   2.628   4.127  1.5693 -1.8615 -0.8169
26209SOL    HW282126   9.517   2.671   4.265 -1.6460  0.0954 -0.2493
26210SOL     OW82127   1.557   2.554   1.867 -0.0803  0.0278  0.1369
26210SOL    HW182128   1.490   2.569   1.933  0.1939 -2.9252  1.2362
26210SOL    HW282129   1.616   2.628   1.875 -1.0051  0.6202  2.0008
26211SOL     OW82130   5.685   8.309   0.204  0.1308 -0.7518  0.0937
26211SOL    HW182131   5.637   8.371   0.149  1.5527 -0.1128 -0.4732
26211SOL    HW282132   5.777   8.327   0.186  0.6410 -0.9161  2.2673
26212SOL     OW82133   1.455   4.511   9.460 -0.4675  0.1140 -0.2356
26212SOL    HW182134   1.532   4.456   9.450  0.2142  0.6581  1.6628
26212SOL    HW282135   1.446   4.555   9.375  0.1993 -1.3188 -1.0897
26213SOL     OW82136   9.537   8.740  10.651 -0.3743  0.6029 -0.2385
26213SOL    HW182137   9.611   8.697  10.610  0.2720  0.3413  1.1244
26213SOL    HW282138   9.498   8.794  10.582 -0.3338 -1.0356 -1.6017
26214SOL     OW82139   5.012   8.396   6.265  0.2618  0.5457  0.1072
26214SOL    HW182140   5.005   8.484   6.228  1.5439  0.9962  0.8683
26214SOL    HW282141   4.928   8.381   6.307 -0.0140  1.3596 -0.1385
26215SOL     OW82142   7.529   3.167   3.841  0.2119  0.1335  0.0314
26215SOL    HW182143   7.525   3.156   3.936  0.1904  1.0664  0.1442
26215SOL    HW282144   7.444   3.205   3.818  0.6324  0.9376 -0.2134
26216SOL     OW82145   4.395   7.724   7.924  0.6946  0.2228 -0.0892
26216SOL    HW182146   4.421   7.632   7.931 -1.4163 -0.4622 -0.5666
26216SOL    HW282147   4.309   7.728   7.967  1.2347  2.2310  0.9352
26217SOL     OW82148   8.662   7.009  10.468 -0.4100  0.4553 -0.0442
26217SOL    HW182149   8.672   7.100  10.437 -0.3555  0.4516 -0.0373
26217SOL    HW282150   8.674   6.956  10.389  0.0660  0.4271  0.0429
26218SOL     OW82151   2.991   4.658   7.066  0.0715 -0.2661 -0.5714
26218SOL    HW182152   2.929   4.728   7.086  1.2574  1.4059 -2.4645
26218SOL    HW282153   2.948   4.606   6.998 -1.6294 -2.7076  2.0886
26219SOL     OW82154   1.158   1.268   5.223  0.0182  0.4629  0.6422
26219SOL    HW182155   1.093   1.217   5.272  0.7283 -0.7491  0.3563
26219SOL    HW282156   1.153   1.235   5.134  0.1349  1.2653  0.3294
26220SOL     OW82157   1.995   8.054   0.649 -0.2804  0.0092  0.1329
26220SOL    HW182158   2.029   8.008   0.571 -0.9189  0.7426 -0.5947
26220SOL    HW282159   2.071   8.063   0.706  0.6122  0.9305 -1.1304
26221SOL     OW82160   0.387   1.919   1.200  0.1028 -0.3842  0.2827
26221SOL    HW182161   0.448   1.886   1.267  1.9360 -1.8669 -1.9731
26221SOL    HW282162   0.411   2.011   1.189  1.9090 -0.8927 -0.4327
26222SOL     OW82163   3.800   8.258   8.141  0.7713  0.3300 -0.0855
26222SOL    HW182164   3.771   8.260   8.232 -0.0560  2.4296 -0.3314
26222SOL    HW282165   3.744   8.322   8.096  3.4366  1.9813 -1.3330
26223SOL     OW82166   6.952   4.551   7.037 -0.5043 -0.2252 -0.2924
26223SOL    HW182167   6.912   4.577   7.120  0.1768  0.6309 -0.2215
26223SOL    HW282168   7.025   4.494   7.063 -1.4020 -1.4682 -0.4040
26224SOL     OW82169   1.978   7.244   4.232  0.2364 -0.0411  0.0036
26224SOL    HW182170   2.059   7.229   4.281  0.6490 -1.8451 -1.1424
26224SOL    HW282171   1.997   7.321   4.178  1.2457 -0.5255 -0.3526
26225SOL     OW82172   6.571   2.115   5.920  0.2564 -0.2431 -0.0183
26225SOL    HW182173   6.483   2.080   5.908 -0.6265  1.2679  1.4871
26225SOL    HW282174   6.611   2.059   5.986  0.5208 -1.0405 -0.8335
26226SOL     OW82175   0.805   8.026   3.273 -0.4266  0.0879 -0.3970
26226SOL    HW182176   0.754   8.031   3.192 -0.9025 -1.4670 -0.2314
26226SOL    HW282177   0.757   8.080   3.336 -1.2022 -0.3464 -0.5990
26227SOL     OW82178   0.941  10.719   2.823 -0.9222  0.5341 -0.1503
26227SOL    HW182179   0.876  10.666   2.778 -1.7813  0.5572  1.0311
26227SOL    HW282180   0.963  10.788   2.760 -0.4426 -0.6695 -1.3630
26228SOL     OW82181   4.388   5.588   1.403  0.9921  0.0371 -0.1300
26228SOL    HW182182   4.404   5.594   1.497 -0.0981  0.5688  0.0478
26228SOL    HW282183   4.384   5.494   1.385 -0.6569 -0.0914  0.7303
26229SOL     OW82184   6.149   6.367   4.395 -0.6051 -0.1080  0.6115
26229SOL    HW182185   6.167   6.391   4.486 -3.5141  0.9453  1.0156
26229SOL    HW282186   6.159   6.448   4.346 -3.3608  0.4179  0.7862
26230SOL     OW82187   8.494   5.295   2.115 -0.4647  0.2541  0.2652
26230SOL    HW182188   8.444   5.371   2.143 -0.2913  0.5511 -0.2302
26230SOL    HW282189   8.484   5.293   2.019 -1.5401 -1.0803  0.3708
26231SOL     OW82190   0.705   5.512   1.518  0.1077  0.4741  0.1661
26231SOL    HW182191   0.782   5.459   1.541 -0.2260 -0.1528 -0.1275
26231SOL    HW282192   0.658   5.459   1.454 -1.5398  0.0027  1.6762
26232SOL     OW82193  10.632   1.647   5.491 -0.2497 -0.5045 -0.2129
26232SOL    HW182194  10.550   1.634   5.444  0.1623  1.9576 -1.7779
26232SOL    HW282195  10.700   1.640   5.424  0.5391  0.6906  0.4155
26233SOL     OW82196   6.768   1.835   7.791  0.6211 -0.2404 -0.0516
26233SOL    HW182197   6.790   1.841   7.698  1.1960  0.3984  0.1166
26233SOL    HW282198   6.765   1.926   7.820 -1.1250 -0.3486  0.2122
26234SOL     OW82199   9.018   1.599   9.890 -0.3826 -0.2555 -0.0346
26234SOL    HW182200   8.982   1.602   9.979  2.0062 -0.6235  1.0242
26234SOL    HW282201   8.987   1.516   9.854 -0.1529 -0.8193  1.0326
26235SOL     OW82202   4.660   3.314   5.592 -0.4783  0.4400 -0.2705
26235SOL    HW182203   4.605   3.242   5.563 -1.6927  1.0994  0.3095
26235SOL    HW282204   4.659   3.376   5.519  0.3991 -0.0267 -0.6882
26236SOL     OW82205   3.539   4.574   8.882  0.3224 -0.5209  0.0494
26236SOL    HW182206   3.628   4.540   8.894  0.3991  0.1360  1.6685
26236SOL    HW282207   3.551   4.659   8.842  0.7321  0.9471  2.9916
26237SOL     OW82208   3.644   6.468   1.984  0.3110  0.1733 -0.3562
26237SOL    HW182209   3.592   6.547   1.972  1.2720  1.0261  0.8132
26237SOL    HW282210   3.710   6.493   2.048  1.8747 -1.0055 -1.4439
26238SOL     OW82211   2.998   9.672  10.581 -0.0305  0.1395 -0.1037
26238SOL    HW182212   3.092   9.686  10.568 -0.2570  0.2788 -1.7942
26238SOL    HW282213   2.970   9.622  10.504 -1.3528  0.1373  0.3507
26239SOL     OW82214   8.986   1.648   0.628  0.3386  0.4591 -0.1758
26239SOL    HW182215   9.034   1.705   0.688 -0.7561  0.7606  0.4496
26239SOL    HW282216   8.941   1.709   0.569  0.4572  0.1933 -0.5403
26240SOL     OW82217   6.448   8.426   6.145 -0.6779 -0.0019  0.3190
26240SOL    HW182218   6.378   8.481   6.111 -0.7764  0.3435  1.0529
26240SOL    HW282219   6.423   8.409   6.236 -0.2548 -0.6153  0.3265
26241SOL     OW82220  10.806   7.321   9.073 -0.4273 -0.1979 -0.4532
26241SOL    HW182221  10.806   7.288   8.983  2.3711  0.2085 -0.6960
26241SOL    HW282222  10.831   7.245   9.126  0.5327  0.1706 -0.3596
26242SOL     OW82223   8.750   5.163   9.099  0.0092 -0.4493  0.2024
26242SOL    HW182224   8.816   5.153   9.168  0.0501  1.2207  0.4529
26242SOL    HW282225   8.801   5.184   9.020 -0.1726  0.3009  0.2754
26243SOL     OW82226   1.557  10.208  10.965  0.2950  0.2010 -0.3538
26243SOL    HW182227   1.600  10.277  10.915  1.0475  0.1160  0.1507
26243SOL    HW282228   1.577  10.128  10.917  0.4781  0.1964 -0.2748
26244SOL     OW82229   9.466   7.934   2.047 -0.2488  0.8243 -0.0247
26244SOL    HW182230   9.452   7.864   1.983  0.8437 -0.2247  0.8222
26244SOL    HW282231   9.525   7.995   2.003  0.2223  0.2841 -0.1664
26245SOL     OW82232   0.312   8.002   7.811  0.0053 -0.0905 -0.4405
26245SOL    HW182233   0.320   7.945   7.734 -1.4763 -0.1300 -0.5973
26245SOL    HW282234   0.265   8.079   7.779 -2.0711 -0.7811  0.6893
26246SOL     OW82235  10.851   4.293   7.889  0.5007  0.2333  0.3776
26246SOL    HW182236  10.928   4.297   7.947  1.3076  1.8634 -0.7404
26246SOL    HW282237  10.889   4.285   7.801 -0.6577  0.0222 -0.1114
26247SOL     OW82238  10.185   7.564   4.771 -0.1079  0.4790 -0.2479
26247SOL    HW182239  10.279   7.561   4.785  0.1539  0.2062 -1.8525
26247SOL    HW282240  10.151   7.618   4.842  1.0913 -0.4522  1.0816
26248SOL     OW82241   4.832   8.941   8.049 -0.0536  0.5598  0.2300
26248SOL    HW182242   4.826   8.856   8.005 -2.4875  0.3458  0.8202
26248SOL    HW282243   4.877   8.923   8.131  0.4608  0.0693 -0.1567
26249SOL     OW82244   2.395   6.253   0.968  0.2460 -0.5647 -0.1772
26249SOL    HW182245   2.427   6.183   1.026 -0.9191  0.3955  1.7003
26249SOL    HW282246   2.445   6.330   0.993  1.2703 -0.5761 -1.9975
26250SOL     OW82247   7.881   1.705   3.886 -0.3687 -0.0814 -0.8596
26250SOL    HW182248   7.795   1.662   3.888 -0.4643  0.1237 -0.5024
26250SOL    HW282249   7.889   1.737   3.796 -1.1224  0.8033 -0.6350
26251SOL     OW82250   0.424   4.000   9.750 -0.5266  0.2087  0.2733
26251SOL    HW182251   0.430   3.921   9.803 -0.6498  0.9471  1.4237
26251SOL    HW282252   0.513   4.035   9.749 -1.0759  1.9350  2.8031
26252SOL     OW82253   9.615   5.532   7.373 -0.2324  0.9031  0.0671
26252SOL    HW182254   9.635   5.612   7.325 -0.2671  0.8187 -0.0880
26252SOL    HW282255   9.530   5.504   7.340 -0.9648  1.6639  1.2632
26253SOL     OW82256   2.019   3.215   6.014 -0.2247 -0.1100 -0.1183
26253SOL    HW182257   2.066   3.249   6.090 -0.7979  0.1008  0.1469
26253SOL    HW282258   2.088   3.189   5.953  0.2337  0.2005  0.2606
26254SOL     OW82259   6.618  10.470   3.834  0.0985  0.1483 -0.0674
26254SOL    HW182260   6.707  10.505   3.829 -0.2304  0.8300 -1.8661
26254SOL    HW282261   6.590  10.460   3.743 -1.7485  0.1552  0.4439
26255SOL     OW82262  10.189   4.902  10.717  0.2561  0.2193 -0.4279
26255SOL    HW182263  10.265   4.866  10.671  0.0873 -0.1433 -0.4272
26255SOL    HW282264  10.226   4.971  10.773  0.0632  3.3143 -3.7537
26256SOL     OW82265   4.317   4.603   9.380  0.4119 -0.8982  0.3699
26256SOL    HW182266   4.284   4.536   9.440 -1.4384 -0.6942 -0.3547
26256SOL    HW282267   4.398   4.565   9.344  1.0869 -1.3877  2.2863
26257SOL     OW82268   7.200   2.705   6.606  0.0520 -0.3286 -0.0180
26257SOL    HW182269   7.116   2.678   6.643  0.4306  0.1243  1.2172
26257SOL    HW282270   7.246   2.623   6.587  0.1900 -0.5849  1.3398
26258SOL     OW82271   1.251   4.069  10.051 -0.1247 -0.5233 -0.6160
26258SOL    HW182272   1.239   4.159  10.020 -0.8311 -0.2167  0.4576
26258SOL    HW282273   1.208   4.068  10.137 -1.3894 -2.2622 -1.2179
26259SOL     OW82274   7.285   8.532   1.916  0.2142  0.1953 -0.2977
26259SOL    HW182275   7.273   8.484   1.997 -0.8060  0.5868 -0.2053
26259SOL    HW282276   7.261   8.470   1.847 -0.1334  0.2558 -0.2318
26260SOL     OW82277   3.528  10.008   0.039  0.6907 -0.3067 -0.5254
26260SOL    HW182278   3.553  10.065   0.112  0.1856  0.6943 -1.1234
26260SOL    HW282279   3.503   9.925   0.081  0.6311  0.1800  0.4191
26261SOL     OW82280   9.413   2.770   5.754 -0.5442 -0.0278  0.0232
26261SOL    HW182281   9.470   2.799   5.825  2.0413 -1.0543 -1.4763
26261SOL    HW282282   9.419   2.674   5.755 -1.6638 -0.1333 -0.6813
26262SOL     OW82283   4.374   8.976   4.841 -0.0980  0.0555 -0.1135
26262SOL    HW182284   4.385   9.068   4.865 -1.1499 -0.6232  3.4378
26262SOL    HW282285   4.280   8.960   4.846 -0.1810 -0.8278 -2.6925
26263SOL     OW82286   1.411   9.513   3.724 -0.2705 -0.2037 -0.2422
26263SOL    HW182287   1.392   9.429   3.766 -2.0079 -0.4618 -1.4171
26263SOL    HW282288   1.506   9.520   3.726 -0.0029 -2.6669 -0.9408
26264SOL     OW82289   2.037   8.732   7.317  0.1459 -0.1198  0.6302
26264SOL    HW182290   2.069   8.820   7.297  1.7083 -0.5224  1.2004
26264SOL    HW282291   2.114   8.685   7.349 -0.9199 -1.3400  1.5191
26265SOL     OW82292   1.062   1.861   9.583  0.4372  0.7457 -0.0601
26265SOL    HW182293   0.998   1.924   9.617 -0.7697 -0.7222  0.5224
26265SOL    HW282294   1.027   1.834   9.498  0.8370  0.7191 -0.2200
26266SOL     OW82295  10.298   5.592   2.444 -0.3503 -0.4754  0.2745
26266SOL    HW182296  10.384   5.568   2.409 -0.9301 -1.4061 -0.5876
26266SOL    HW282297  10.239   5.585   2.369 -1.0284  1.1225  0.6146
26267SOL     OW82298   5.375   5.573   4.251  0.2869  0.7026  0.0573
26267SOL    HW182299   5.294   5.623   4.264 -1.1547 -1.4320 -0.1026
26267SOL    HW282300   5.395   5.584   4.158 -1.1252 -0.4725 -0.4350
26268SOL     OW82301   8.405   0.340   6.196 -0.1481  0.0655 -0.2398
26268SOL    HW182302   8.417   0.389   6.277 -1.9676 -0.4416  0.3937
26268SOL    HW282303   8.424   0.403   6.127  4.1334 -0.1639  0.4239
26269SOL     OW82304   3.948   4.181   6.962  0.0035 -0.5906  0.0298
26269SOL    HW182305   3.982   4.271   6.964 -0.6440 -0.3235 -0.5793
26269SOL    HW282306   3.865   4.186   7.010  1.0393 -1.3533  1.9952
26270SOL     OW82307   7.677   8.095  11.008 -0.1816  0.0309  0.0086
26270SOL    HW182308   7.627   8.029  11.057  1.2807 -0.2907  1.1715
26270SOL    HW282309   7.718   8.148  11.076  3.7146 -1.7633 -0.6982
26271SOL     OW82310   6.170   1.234  10.062 -0.3010  0.2890  0.5422
26271SOL    HW182311   6.193   1.205  10.151  1.9109  0.2175  0.0128
26271SOL    HW282312   6.148   1.327  10.072  0.1587  0.3391  1.1456
26272SOL     OW82313   1.997   8.857  10.627  0.2711  0.7220  0.9126
26272SOL    HW182314   2.062   8.819  10.568 -0.6028 -2.6299  1.8818
26272SOL    HW282315   1.919   8.870  10.573  0.9962  2.6690  0.2506
26273SOL     OW82316   5.940   5.272   9.961  0.4627  0.3043 -0.1739
26273SOL    HW182317   5.933   5.219  10.041 -0.7869  0.9592  0.1758
26273SOL    HW282318   5.984   5.214   9.899  0.5642 -0.5778  0.6807
26274SOL     OW82319   3.253   3.814   8.288  0.0194 -0.5802  0.0652
26274SOL    HW182320   3.268   3.762   8.210  0.3944  0.1978 -0.3898
26274SOL    HW282321   3.247   3.904   8.257 -0.0389 -0.2797  0.9029
26275SOL     OW82322   8.535   2.260   2.481 -0.3548 -0.4143 -0.3860
26275SOL    HW182323   8.570   2.188   2.429 -2.2408 -1.2356 -0.6202
26275SOL    HW282324   8.451   2.280   2.440 -0.9153  0.3739  1.0697
26276SOL     OW82325  10.613   3.517   1.626 -0.7838  0.1377  0.0686
26276SOL    HW182326  10.566   3.585   1.578 -0.9754 -0.3518 -0.4540
26276SOL    HW282327  10.694   3.505   1.576 -1.4392 -1.0989 -0.7554
26277SOL     OW82328   8.844  10.793  10.418 -0.7662 -0.3889  0.3643
26277SOL    HW182329   8.788  10.728  10.377 -1.5936 -2.4948  4.3390
26277SOL    HW282330   8.788  10.834  10.485  1.0515  1.0903  1.0714
26278SOL     OW82331   4.661   6.397   1.236  0.4575 -0.0429 -0.1104
26278SOL    HW182332   4.736   6.432   1.189 -0.4309 -0.6300 -2.0360
26278SOL    HW282333   4.587   6.406   1.176 -0.5623 -1.6247  0.8174
26279SOL     OW82334   5.964   9.151   9.201  0.3315 -1.0811  0.2857
26279SOL    HW182335   6.010   9.235   9.192  0.5821 -1.2919 -0.5245
26279SOL    HW282336   5.995   9.115   9.284 -0.1625 -0.1497  0.8945
26280SOL     OW82337   4.182   4.724   0.659  0.0984  0.2629 -0.1021
26280SOL    HW182338   4.209   4.692   0.573 -0.1813  1.1917 -0.5427
26280SOL    HW282339   4.197   4.818   0.656 -2.6414  0.7804 -0.1710
26281SOL     OW82340   4.131   7.611   3.721 -0.9059  0.9213 -0.4168
26281SOL    HW182341   4.133   7.680   3.655 -2.8437 -0.2643 -1.8338
26281SOL    HW282342   4.040   7.609   3.751 -0.4111  0.3897  1.1831
26282SOL     OW82343   4.535  10.432   2.964 -0.2153  0.0667  0.2677
26282SOL    HW182344   4.492  10.515   2.983  0.9907  0.5105  1.2395
26282SOL    HW282345   4.464  10.371   2.943 -1.0863  1.4980 -1.2101
26283SOL     OW82346  10.579   0.783   9.911  0.5085 -0.3760  0.2119
26283SOL    HW182347  10.556   0.731   9.989  2.4492 -0.1020  1.0210
26283SOL    HW282348  10.497   0.826   9.887  0.0430  0.3331  2.7393
26284SOL     OW82349   0.065   6.069   6.595  0.3743  0.5292 -0.0703
26284SOL    HW182350   0.097   6.158   6.585 -0.0055  1.2591  3.5300
26284SOL    HW282351   0.141   6.013   6.583  0.6331  1.2945 -2.2685
26285SOL     OW82352   1.320   0.418   3.068 -0.2946 -0.1616  0.5548
26285SOL    HW182353   1.267   0.352   3.023  1.5968 -2.0023  0.8376
26285SOL    HW282354   1.258   0.470   3.118 -1.9036 -1.6176  0.1546
26286SOL     OW82355   0.549   8.026   9.533 -0.4477 -0.2900 -0.0528
26286SOL    HW182356   0.629   8.076   9.548 -0.3585 -0.0183 -1.3243
26286SOL    HW282357   0.521   7.999   9.620  1.5015 -1.1513  0.3515
26287SOL     OW82358   5.481   6.339   7.760 -0.1777 -0.0711  0.2494
26287SOL    HW182359   5.551   6.291   7.804  0.3791  0.7680  0.2849
26287SOL    HW282360   5.457   6.283   7.686 -1.0072 -1.4104  1.4713
26288SOL     OW82361   6.970   7.097   5.098  1.2887 -0.5577  0.0078
26288SOL    HW182362   6.940   7.099   5.007 -0.2245 -1.6353  0.4393
26288SOL    HW282363   6.988   7.189   5.120 -1.3722  0.1577 -0.4614
26289SOL     OW82364   5.490   4.462   1.260  0.0524 -0.2761 -0.1512
26289SOL    HW182365   5.419   4.400   1.240 -1.9866  1.7476  0.4514
26289SOL    HW282366   5.528   4.483   1.175 -1.8756  0.6062 -0.8568
26290SOL     OW82367   0.788   3.043  10.196  0.5214  0.0741 -0.4342
26290SOL    HW182368   0.834   3.127  10.185  1.3145 -0.5162 -1.8346
26290SOL    HW282369   0.841   2.980  10.148 -0.6048 -1.0564 -0.2396
26291SOL     OW82370   1.747   9.441   7.176  0.4360  0.1073  0.1650
26291SOL    HW182371   1.720   9.522   7.133 -0.1797 -0.9286 -1.5040
26291SOL    HW282372   1.817   9.407   7.121 -1.0120 -1.7406 -0.6817
26292SOL     OW82373   3.238   7.574   9.381 -0.2608  0.1148  0.0183
26292SOL    HW182374   3.226   7.665   9.409 -2.5910  0.1072 -0.7621
26292SOL    HW282375   3.252   7.580   9.286 -0.2452 -0.3382 -0.0086
26293SOL     OW82376   8.840   6.854   1.204 -0.3077 -0.0055 -0.0549
26293SOL    HW182377   8.906   6.800   1.246  1.7950  1.3623 -1.4053
26293SOL    HW282378   8.814   6.804   1.127 -1.3230 -0.7975  0.7748
26294SOL     OW82379   8.209   6.549   1.501 -0.5490 -0.3447 -0.7439
26294SOL    HW182380   8.257   6.482   1.454 -0.3441 -0.0847 -0.9097
26294SOL    HW282381   8.122   6.513   1.513  0.3409 -1.9207  1.7973
26295SOL     OW82382   7.082   9.698  10.416  0.8395  0.0681 -0.6209
26295SOL    HW182383   7.015   9.767  10.426  1.3206  0.3588  0.7602
26295SOL    HW282384   7.119   9.688  10.503  0.6656 -2.0997 -0.7467
26296SOL     OW82385   3.919   3.181   9.567 -0.4671 -0.6635 -0.0736
26296SOL    HW182386   3.876   3.100   9.539 -0.8720 -0.7486  0.7652
26296SOL    HW282387   3.872   3.208   9.646  0.9592 -0.7114  0.8362
26297SOL     OW82388   9.746   3.905   3.794  0.4770 -0.5862 -0.4831
26297SOL    HW182389   9.689   3.866   3.727  1.8984 -1.4832 -1.2194
26297SOL    HW282390   9.801   3.832   3.824  0.1191 -0.1111  1.4182
26298SOL     OW82391   8.888   0.313   9.701 -0.8284  0.1221 -0.0133
26298SOL    HW182392   8.836   0.359   9.767  2.4346  2.8712  0.9077
26298SOL    HW282393   8.894   0.375   9.628 -0.3813 -0.9266 -0.8884
26299SOL     OW82394  10.088   1.753   4.002  0.1171 -0.0236  0.0064
26299SOL    HW182395  10.085   1.847   4.019  1.8141  0.4966 -2.2278
26299SOL    HW282396  10.146   1.718   4.069  1.3337  0.9066 -0.5373
26300SOL     OW82397   4.727  10.959   5.576 -0.3136 -0.2429 -0.0383
26300SOL    HW182398   4.773  10.984   5.497  0.5326  2.1306  1.0949
26300SOL    HW282399   4.740  11.033   5.636 -0.9875 -1.8765  2.2868
26301SOL     OW82400   7.421   8.094   2.355 -0.6946  0.0544  0.1689
26301SOL    HW182401   7.465   8.145   2.287  0.6131 -1.6540 -0.3402
26301SOL    HW282402   7.480   8.098   2.430 -0.8389 -0.2703  0.3024
26302SOL     OW82403   3.300   0.785   0.884  0.1813 -0.1024  0.9237
26302SOL    HW182404   3.346   0.823   0.959 -1.4261 -0.4668  2.1507
26302SOL    HW282405   3.255   0.708   0.921 -0.5447 -0.3547 -0.4449
26303SOL     OW82406   6.623  10.468   1.726 -0.0701 -0.1921  0.3499
26303SOL    HW182407   6.582  10.492   1.809 -1.6450  1.5497 -0.8650
26303SOL    HW282408   6.584  10.384   1.702 -1.6473  0.5944  0.0906
26304SOL     OW82409   7.856  10.880   2.465  0.0221 -0.3259 -0.0564
26304SOL    HW182410   7.765  10.907   2.475  0.3107  0.4669  0.5699
26304SOL    HW282411   7.884  10.921   2.383 -0.2494 -0.7467 -0.3571
26305SOL     OW82412   1.943   2.745   1.401  0.3156  0.1015  0.2160
26305SOL    HW182413   1.899   2.674   1.353 -0.0818  0.8428 -0.5331
26305SOL    HW282414   1.947   2.714   1.492 -0.1287 -0.7469 -0.0465
26306SOL     OW82415   9.201   7.529   7.017  0.0005 -0.2975 -0.3330
26306SOL    HW182416   9.258   7.455   7.036  0.4395  0.2580  0.5855
26306SOL    HW282417   9.259   7.595   6.980  0.1620  0.5900  1.3898
26307SOL     OW82418   8.681   5.343   3.405  0.0159  0.1705  0.1439
26307SOL    HW182419   8.770   5.311   3.389 -0.8949 -2.7551  0.3984
26307SOL    HW282420   8.625   5.266   3.397 -1.9101  0.5298  5.5214
26308SOL     OW82421   0.700   8.393   4.308 -0.7777 -0.0399  0.6926
26308SOL    HW182422   0.649   8.388   4.228 -0.4816 -0.1960  0.5080
26308SOL    HW282423   0.745   8.477   4.303  0.0096 -0.4764  0.2119
26309SOL     OW82424   9.837   0.682  10.913 -0.0828 -0.1214  0.1293
26309SOL    HW182425   9.885   0.759  10.943 -0.5297 -0.0733  0.7457
26309SOL    HW282426   9.887   0.650  10.838 -0.7534  1.7022 -1.1622
26310SOL     OW82427   8.458   0.219   7.722  0.7107  0.5307  0.0418
26310SOL    HW182428   8.373   0.219   7.679 -0.8208 -4.1600  2.4290
26310SOL    HW282429   8.443   0.264   7.805  0.1400 -1.2879  0.9632
26311SOL     OW82430   8.738   0.274   2.600 -0.2592 -0.0729 -0.4703
26311SOL    HW182431   8.696   0.361   2.599 -0.5225 -0.0909  1.8604
26311SOL    HW282432   8.665   0.213   2.602 -0.1177 -0.2256  0.4699
26312SOL     OW82433   1.746   9.082   9.624  0.8702  0.8033 -0.2214
26312SOL    HW182434   1.794   9.136   9.561  0.8910 -0.5296 -1.4225
26312SOL    HW282435   1.684   9.032   9.570 -0.5927  1.1477  1.0892
26313SOL     OW82436   3.434   4.024   9.739  0.1229 -0.6635 -0.1836
26313SOL    HW182437   3.413   4.111   9.705  1.0310 -0.5702 -0.5269
26313SOL    HW282438   3.529   4.017   9.731  0.1714 -1.3060  0.7676
26314SOL     OW82439   6.394   9.117   1.531 -0.3046  0.8500  0.0197
26314SOL    HW182440   6.326   9.050   1.518  0.5973  0.2048 -1.6694
26314SOL    HW282441   6.371   9.186   1.469  1.0270  0.2232 -1.2356
26315SOL     OW82442   9.465   5.522  10.868 -0.1003 -0.1461  0.4383
26315SOL    HW182443   9.443   5.615  10.865  1.3206  0.2754  1.6541
26315SOL    HW282444   9.557   5.520  10.896  0.6304 -1.8440 -1.8067
26316SOL     OW82445   3.182   7.215   0.447  0.3011 -0.5396 -0.1209
26316SOL    HW182446   3.108   7.213   0.508 -0.0161  0.3636 -0.4550
26316SOL    HW282447   3.229   7.296   0.469  0.2578 -0.2704 -0.9771
26317SOL     OW82448   3.569   3.931   6.963 -0.1922  0.7359  0.0903
26317SOL    HW182449   3.521   3.987   6.902 -0.3607 -2.8848 -3.5204
26317SOL    HW282450   3.660   3.935   6.932 -0.0452 -0.1857  0.3699
26318SOL     OW82451   3.670   6.884   3.155 -0.0627  0.0285 -0.0545
26318SOL    HW182452   3.741   6.883   3.219  0.3858  1.5926 -0.4847
26318SOL    HW282453   3.592   6.905   3.206  0.1469  0.4107  0.1116
26319SOL     OW82454   9.298   5.008   7.996  0.1481 -0.0210 -0.0261
26319SOL    HW182455   9.329   5.054   7.918  0.0991 -0.9280 -0.6005
26319SOL    HW282456   9.327   5.062   8.069  1.9669 -0.1722 -0.5942
26320SOL     OW82457  10.966   7.051   3.330 -0.1965  0.1337  0.0736
26320SOL    HW182458  10.942   7.132   3.374  0.6912  0.4115  0.0729
26320SOL    HW282459  11.044   7.021   3.377 -0.9015 -1.0782  0.5043
26321SOL     OW82460   8.869   0.242  10.030  0.0165  0.0912 -0.1832
26321SOL    HW182461   8.904   0.170   9.978  1.9336  0.7480  0.1269
26321SOL    HW282462   8.856   0.205  10.117 -3.1175 -0.9881 -0.9661
26322SOL     OW82463   3.903   6.765   7.671  0.2644  0.0849 -0.1084
26322SOL    HW182464   3.954   6.823   7.727 -0.1622  1.7533 -1.3450
26322SOL    HW282465   3.951   6.762   7.589 -0.3779 -0.2756 -0.4820
26323SOL     OW82466   6.112   1.770   1.324 -0.4387 -0.4443 -0.2201
26323SOL    HW182467   6.194   1.806   1.359  0.8172 -0.6787 -2.7228
26323SOL    HW282468   6.105   1.683   1.365 -0.1527  0.0873  1.0090
26324SOL     OW82469   9.284   2.356   7.146 -0.0371 -0.2957 -0.0223
26324SOL    HW182470   9.352   2.304   7.189  0.2588  0.0063 -0.1169
26324SOL    HW282471   9.205   2.340   7.197  0.4486  0.5801  1.0560
26325SOL     OW82472   3.042   3.742   9.451 -0.2357 -0.6418 -0.0010
26325SOL    HW182473   3.099   3.739   9.528  0.9818  0.8422 -0.8171
26325SOL    HW282474   2.997   3.657   9.452  2.4767 -2.1906  0.2992
26326SOL     OW82475   9.978   7.623   0.057  0.1318  0.2444  0.0035
26326SOL    HW182476   9.890   7.626   0.095  0.0213 -0.3958 -0.1889
26326SOL    HW282477  10.030   7.575   0.121  0.1466 -0.0991 -0.2682
26327SOL     OW82478   4.373   2.069   8.135 -0.0536  0.3931 -0.0616
26327SOL    HW182479   4.455   2.084   8.182 -0.3161  0.6593  0.3110
26327SOL    HW282480   4.394   1.997   8.075  0.0421 -0.5700  1.0865
26328SOL     OW82481   6.092   8.916  10.027 -0.0255 -0.1451 -0.2359
26328SOL    HW182482   6.158   8.982  10.047 -1.2166  0.8510  0.5735
26328SOL    HW282483   6.102   8.850  10.095  1.5316 -1.1234 -1.3609
26329SOL     OW82484   5.750   9.722   7.349  0.4022 -0.3166 -0.3070
26329SOL    HW182485   5.666   9.724   7.394 -0.8753  0.3620 -2.5256
26329SOL    HW282486   5.786   9.635   7.366 -1.0699 -0.8503  0.1663
26330SOL     OW82487   4.042   4.138   6.687 -0.0101  0.1908 -0.1825
26330SOL    HW182488   3.987   4.177   6.619  2.0034  1.7221 -1.0624
26330SOL    HW282489   4.007   4.172   6.769  0.1727  1.9287 -0.7824
26331SOL     OW82490   8.625   8.466   0.364  0.4539 -0.2492 -0.2548
26331SOL    HW182491   8.678   8.537   0.399  0.0761  0.8021 -1.7208
26331SOL    HW282492   8.560   8.447   0.432  1.1675  0.1240  0.5411
26332SOL     OW82493   7.757   1.401   3.252  0.3006  0.0901 -0.1666
26332SOL    HW182494   7.841   1.407   3.206  1.7938  1.6365  2.4974
26332SOL    HW282495   7.743   1.489   3.287  0.8313 -1.4360  4.6077
26333SOL     OW82496   6.793   5.126   8.294  0.0583 -0.6684 -0.5449
26333SOL    HW182497   6.846   5.188   8.245 -0.2739 -0.1115 -0.2221
26333SOL    HW282498   6.856   5.074   8.343  0.3005  0.9223  0.9527
26334SOL     OW82499   2.213   2.568   6.847  0.2016 -0.5675 -0.2376
26334SOL    HW182500   2.285   2.603   6.795 -0.4334  0.1179 -0.6731
26334SOL    HW282501   2.219   2.613   6.931 -0.1563  0.0402 -0.5331
26335SOL     OW82502   9.054   5.354   6.321  0.0385 -1.1311 -0.7805
26335SOL    HW182503   9.078   5.433   6.271 -2.2534  0.2071  0.0874
26335SOL    HW282504   9.133   5.332   6.370  0.9988  0.1338 -1.6912
26336SOL     OW82505   0.904   5.464   1.216 -0.1835 -0.3361 -0.1124
26336SOL    HW182506   0.825   5.517   1.211  0.0121  0.0211  0.4642
26336SOL    HW282507   0.942   5.486   1.301 -0.1011 -1.4084  0.1430
26337SOL     OW82508   9.236   2.025   1.046  0.2187  0.5366 -0.0398
26337SOL    HW182509   9.160   1.968   1.032  0.6523 -0.0875  0.1274
26337SOL    HW282510   9.199   2.104   1.086 -0.3470  0.2493  0.0220
26338SOL     OW82511   6.993   9.049   5.199  0.3533  0.7394  0.0016
26338SOL    HW182512   7.007   8.969   5.147  2.5911 -0.8818  2.8039
26338SOL    HW282513   6.903   9.041   5.231  0.8746 -1.2958  1.1156
26339SOL     OW82514   1.922   7.897   0.360 -0.2230  0.6057  0.1957
26339SOL    HW182515   1.968   7.856   0.287  0.3504  0.3688  0.6828
26339SOL    HW282516   1.859   7.956   0.319  2.3579  3.0847 -0.5230
26340SOL     OW82517  10.461  10.005   6.812  0.4820 -0.0028  0.1725
26340SOL    HW182518  10.426   9.924   6.776  0.0447 -0.1248  0.8554
26340SOL    HW282519  10.515  10.041   6.741  0.8195 -0.9651 -0.0834
26341SOL     OW82520  10.045   9.515   2.236  0.0956 -0.3762  0.1751
26341SOL    HW182521  10.086   9.434   2.206 -0.0166 -0.5676  0.5251
26341SOL    HW282522   9.954   9.507   2.208  0.3814  0.2478 -0.9955
26342SOL     OW82523   8.414   6.866   1.828 -0.0266 -0.5713  0.3751
26342SOL    HW182524   8.397   6.830   1.741 -1.7522 -0.1690  0.4956
26342SOL    HW282525   8.343   6.832   1.882  0.5069 -0.0912  1.4100
26343SOL     OW82526   1.419   7.668   5.396  0.2131 -0.3134 -0.2617
26343SOL    HW182527   1.331   7.687   5.362 -0.0078 -0.9984 -0.0997
26343SOL    HW282528   1.415   7.575   5.421  1.2245 -0.5670 -0.9770
26344SOL     OW82529   3.431   5.696   9.936  0.2121 -0.1632  0.8843
26344SOL    HW182530   3.517   5.655   9.926  0.2718  0.1393  0.0886
26344SOL    HW282531   3.438   5.749  10.015  0.0053 -1.9945  2.2029
26345SOL     OW82532   9.311   8.985  10.821  0.0679 -0.1048  0.1607
26345SOL    HW182533   9.318   8.892  10.839 -1.7302 -0.1646  0.8187
26345SOL    HW282534   9.267   8.990  10.736 -0.7075  0.1235  0.5670
26346SOL     OW82535   0.887   9.844   6.546  0.0570  0.4660  0.1263
26346SOL    HW182536   0.826   9.883   6.609  0.7036  0.3820  0.8137
26346SOL    HW282537   0.856   9.876   6.461 -1.2071  0.0725  0.4087
26347SOL     OW82538   4.918   3.821   5.480 -0.1410 -0.3789 -0.4220
26347SOL    HW182539   4.865   3.795   5.404 -2.7161 -0.7528  1.3706
26347SOL    HW282540   4.927   3.741   5.531  1.4693 -0.1084 -0.2469
26348SOL     OW82541   4.258   0.987  10.241 -0.0464  0.7137 -0.2729
26348SOL    HW182542   4.344   0.982  10.199  0.5523  0.2090  0.9684
26348SOL    HW282543   4.223   1.072  10.214  0.8228  0.9050 -0.8299
26349SOL     OW82544   2.701   0.417  10.909  0.1416  0.4659 -0.2668
26349SOL    HW182545   2.707   0.446  10.818 -1.0902 -1.2349 -0.9577
26349SOL    HW282546   2.788   0.431  10.945  0.7288  0.9319 -1.8036
26350SOL     OW82547  10.198   0.026   3.757 -0.0569  0.0543 -0.1199
26350SOL    HW182548  10.180   0.113   3.722  0.8497  0.8087  1.2121
26350SOL    HW282549  10.112  -0.008   3.783 -0.3960  0.6117 -0.4988
26351SOL     OW82550   0.332   1.818  10.216 -0.8536 -0.2512  0.1371
26351SOL    HW182551   0.386   1.820  10.137 -1.3885  2.9684 -0.3009
26351SOL    HW282552   0.242   1.809  10.183 -1.0117  0.2186  0.4349
26352SOL     OW82553   9.976   1.986   9.348  0.2784 -0.1096 -0.2467
26352SOL    HW182554  10.016   1.948   9.426  0.2307 -2.2108 -1.1892
26352SOL    HW282555   9.925   1.915   9.309  1.9753  0.1872 -3.3336
26353SOL     OW82556   8.885   0.907   3.373  1.0765  0.5385  0.8421
26353SOL    HW182557   8.856   0.981   3.319 -1.2058 -1.4151 -0.8166
26353SOL    HW282558   8.835   0.916   3.455 -0.2404  0.1274  0.1061
26354SOL     OW82559   2.534   9.301   6.788 -0.4127 -0.1548 -0.1831
26354SOL    HW182560   2.520   9.212   6.755 -0.7341  0.1249 -0.8060
26354SOL    HW282561   2.463   9.315   6.850 -1.4718  0.3417 -1.4722
26355SOL     OW82562   2.173   3.118   0.380 -0.2948 -0.0695  0.0229
26355SOL    HW182563   2.099   3.179   0.391  0.9385  1.7060 -0.9659
26355SOL    HW282564   2.172   3.096   0.287 -1.6918 -2.9734  0.6228
26356SOL     OW82565   7.051   8.538   1.694 -0.1264 -0.1611 -0.0491
26356SOL    HW182566   6.990   8.610   1.679 -0.2863  0.3054  2.3875
26356SOL    HW282567   7.007   8.482   1.758  0.2631 -2.1487 -1.4179
26357SOL     OW82568   7.983   7.412   3.893  0.2616  0.3095  0.1552
26357SOL    HW182569   8.071   7.380   3.875  0.7666  2.3064 -1.2307
26357SOL    HW282570   7.967   7.478   3.826 -1.8409  0.8447  1.0947
26358SOL     OW82571   4.419   5.226   5.130  0.0196 -0.1350  0.1582
26358SOL    HW182572   4.384   5.155   5.183 -1.3213  1.3063  1.3234
26358SOL    HW282573   4.468   5.280   5.192  0.8856  0.0550 -0.6722
26359SOL     OW82574   1.992   3.954   5.759 -0.1891  0.2736  0.4206
26359SOL    HW182575   2.059   3.899   5.719 -1.7394 -0.0095 -2.0112
26359SOL    HW282576   1.984   3.922   5.849  1.8456 -0.6402  0.3156
26360SOL     OW82577   8.676   3.723   0.229  0.1265  0.0256  0.2194
26360SOL    HW182578   8.733   3.789   0.190 -2.0245  2.7568  1.3150
26360SOL    HW282579   8.610   3.705   0.162 -0.2841  0.3289  0.5387
26361SOL     OW82580  10.775   7.175   0.572 -0.5049  0.0920  0.1478
26361SOL    HW182581  10.779   7.101   0.634  0.9581 -0.9344 -1.1065
26361SOL    HW282582  10.698   7.225   0.601  0.5561  0.1567  3.2879
26362SOL     OW82583   7.215   1.005   1.311 -0.4074 -0.2601 -0.3235
26362SOL    HW182584   7.205   0.939   1.379 -1.2133 -1.2019 -1.3265
26362SOL    HW282585   7.309   1.025   1.311 -0.4499  0.1537  1.3858
26363SOL     OW82586   7.240   9.690   1.887  0.6706  0.4525 -0.0263
26363SOL    HW182587   7.237   9.732   1.801 -0.9695  1.1218  0.3344
26363SOL    HW282588   7.321   9.721   1.926  1.2164  0.4909 -1.1493
26364SOL     OW82589   7.184   8.189   4.603 -0.1167  0.0825 -0.4854
26364SOL    HW182590   7.162   8.148   4.520 -0.5033 -1.0404  0.1579
26364SOL    HW282591   7.107   8.175   4.658  0.7372 -0.5677  0.5754
26365SOL     OW82592   8.112  10.039   3.526  0.1320 -0.4289 -0.7860
26365SOL    HW182593   8.025  10.000   3.533 -0.4081  0.9794  2.6845
26365SOL    HW282594   8.171   9.970   3.557 -0.1706 -0.3872 -0.0828
26366SOL     OW82595   7.947   7.872   2.381  0.2113  0.3270 -0.6518
26366SOL    HW182596   7.978   7.961   2.364 -0.5389  0.6408 -0.4007
26366SOL    HW282597   7.969   7.823   2.301 -0.1754  0.9516 -1.1484
26367SOL     OW82598   0.733   9.715   9.417 -0.4197  0.0874 -0.2609
26367SOL    HW182599   0.692   9.653   9.477  0.7274  0.6659  1.1656
26367SOL    HW282600   0.818   9.735   9.457  0.7314 -0.0936 -2.4549
26368SOL     OW82601  10.666   0.383   4.979 -0.6644 -0.1940 -0.4118
26368SOL    HW182602  10.677   0.387   5.074  0.4838  1.0027 -0.5686
26368SOL    HW282603  10.715   0.306   4.952 -0.3129 -0.0808 -0.1063
26369SOL     OW82604   7.738   1.970   1.027 -0.0445 -0.4578 -0.3850
26369SOL    HW182605   7.674   2.039   1.013  0.5485  0.1186 -0.2739
26369SOL    HW282606   7.816   2.015   1.059 -0.1388 -1.3318  1.1486
26370SOL     OW82607  10.513   0.667  10.473  0.2396  0.0256  0.8910
26370SOL    HW182608  10.552   0.605  10.411 -0.2760 -0.1103  0.7044
26370SOL    HW282609  10.491   0.743  10.420  0.9072  0.3980  1.1281
26371SOL     OW82610  10.278   4.254   6.985  0.4118  0.1919 -0.2210
26371SOL    HW182611  10.262   4.199   7.061  1.3215 -0.5781 -0.5563
26371SOL    HW282612  10.251   4.342   7.011 -0.8855 -0.3758  0.3986
26372SOL     OW82613   1.544   9.628   2.901 -0.5689  0.6390 -0.0255
26372SOL    HW182614   1.469   9.570   2.912  0.9473 -1.3367  0.3823
26372SOL    HW282615   1.594   9.590   2.829 -0.7647  2.8861 -1.4619
26373SOL     OW82616  10.692  10.435   5.380  0.4098  0.2533  0.3857
26373SOL    HW182617  10.692  10.461   5.288  2.1985 -0.8333  0.0431
26373SOL    HW282618  10.620  10.372   5.386  0.7953 -0.2889 -0.4715
26374SOL     OW82619   1.077   6.099   9.891 -0.1249  0.2998  0.0740
26374SOL    HW182620   1.128   6.167   9.847  0.2383 -0.4662 -0.7179
26374SOL    HW282621   1.143   6.039   9.926 -0.4398 -1.4257 -2.1068
26375SOL     OW82622   8.409   4.340   1.723  0.1132 -0.3046 -0.2375
26375SOL    HW182623   8.349   4.372   1.655 -0.2608 -0.4353  0.0329
26375SOL    HW282624   8.385   4.249   1.736 -1.7816  0.4102  2.1125
26376SOL     OW82625  10.662   9.870   2.575 -0.0669  0.3015  0.5092
26376SOL    HW182626  10.590   9.807   2.569  0.3565 -0.2546  1.0727
26376SOL    HW282627  10.641   9.922   2.652 -0.8827  1.4687 -0.4744
26377SOL     OW82628   0.382   9.096   9.401 -0.1049 -0.1678 -1.1374
26377SOL    HW182629   0.364   9.036   9.474  0.4759 -1.8161 -2.2854
26377SOL    HW282630   0.476   9.086   9.384 -0.1504  0.4981 -1.8600
26378SOL     OW82631  10.765   7.932   1.687  0.2227 -0.4892 -0.0328
26378SOL    HW182632  10.731   7.849   1.719 -0.1906 -0.4809 -0.4417
26378SOL    HW282633  10.777   7.918   1.593  2.6695 -0.9558  0.2856
26379SOL     OW82634   3.370   9.989   7.055 -0.2236  0.0862  0.8584
26379SOL    HW182635   3.383   9.944   6.971  0.9001 -1.5156  1.8277
26379SOL    HW282636   3.279   9.974   7.077 -0.1952 -0.6071  0.5203
26380SOL     OW82637   8.798   0.682   9.904  0.0745  0.3849 -0.5009
26380SOL    HW182638   8.808   0.689   9.999  0.7013 -1.6009 -0.3819
26380SOL    HW282639   8.751   0.600   9.890  1.5875 -0.3037 -1.9430
26381SOL     OW82640   5.181   2.590  10.861 -0.7181  0.0168  0.1069
26381SOL    HW182641   5.247   2.653  10.831  0.0687 -0.7528  0.1870
26381SOL    HW282642   5.205   2.508  10.817 -0.6095 -0.6941  1.4542
26382SOL     OW82643   6.079   2.099   4.492 -0.2395 -0.2939  1.0389
26382SOL    HW182644   6.039   2.017   4.519 -2.2653  0.3923  0.3295
26382SOL    HW282645   6.064   2.103   4.397  2.7030 -0.5576  0.4578
26383SOL     OW82646   0.652   9.981   4.948  0.8402  0.6699 -0.0190
26383SOL    HW182647   0.568   9.994   4.905  0.0696 -0.0219  1.1961
26383SOL    HW282648   0.715  10.033   4.897 -0.1138  0.3229 -1.5869
26384SOL     OW82649  10.806   5.049   6.365 -0.0955  0.2605  0.1864
26384SOL    HW182650  10.832   5.074   6.276 -1.4644 -2.8842 -1.2481
26384SOL    HW282651  10.710   5.048   6.362 -0.1523 -0.4206  1.5276
26385SOL     OW82652   3.662   9.208   9.520 -0.2505 -0.1899  0.0440
26385SOL    HW182653   3.738   9.150   9.526 -0.1052  0.1595  2.3736
26385SOL    HW282654   3.660   9.236   9.428 -0.0073 -3.3883 -1.0443
26386SOL     OW82655   0.487   1.233   9.736 -0.2493 -0.3824  0.7954
26386SOL    HW182656   0.440   1.187   9.805 -0.6490 -1.9250 -0.4421
26386SOL    HW282657   0.420   1.286   9.693 -0.1206  0.1336  1.2302
26387SOL     OW82658   0.801   8.821   4.170  0.3055 -0.1571 -0.4475
26387SOL    HW182659   0.845   8.754   4.222 -0.0199  0.2573  0.3711
26387SOL    HW282660   0.708   8.797   4.173  0.4983 -1.6154 -3.0085
26388SOL     OW82661   5.948   8.650   3.630  0.2423 -0.4284 -0.1464
26388SOL    HW182662   6.027   8.659   3.576  0.8043  0.4835  0.7972
26388SOL    HW282663   5.880   8.626   3.568  1.0272 -0.1289 -1.1591
26389SOL     OW82664   8.639   2.162   4.522  0.1650  0.1666 -0.1696
26389SOL    HW182665   8.571   2.133   4.460 -0.0502 -0.0675  0.1725
26389SOL    HW282666   8.707   2.095   4.516  0.8657  0.9298 -1.2851
26390SOL     OW82667   5.549   8.051   8.420 -0.4639 -0.1870  1.2026
26390SOL    HW182668   5.562   8.051   8.326  1.2295  0.0851  1.4176
26390SOL    HW282669   5.569   7.961   8.447 -0.2198 -0.0721  1.4004
26391SOL     OW82670   5.632   8.016   3.062  0.0343 -0.0965 -0.8129
26391SOL    HW182671   5.642   8.080   3.132  1.6082  1.8103 -2.6589
26391SOL    HW282672   5.578   7.947   3.101 -3.2427  3.0311  0.8613
26392SOL     OW82673   3.380   4.976   3.644  0.2053 -0.3922  0.1804
26392SOL    HW182674   3.454   5.026   3.678  0.2234 -0.5017  0.3027
26392SOL    HW282675   3.341   5.032   3.577  0.5600 -0.4423 -0.0689
26393SOL     OW82676   5.918   0.944   9.349  1.0153 -0.4603  0.1146
26393SOL    HW182677   5.893   0.852   9.359  1.1166 -0.6385 -1.0567
26393SOL    HW282678   6.005   0.941   9.309  0.6614  0.1210 -0.7375
26394SOL     OW82679   5.961   0.996   6.018 -0.7304 -0.0799 -0.1328
26394SOL    HW182680   5.903   1.071   5.998  0.9504  1.3080 -0.0340
26394SOL    HW282681   5.958   0.988   6.113 -0.0181  0.6533 -0.0346
26395SOL     OW82682   5.916   3.887   5.638 -0.0343  1.0557  0.4097
26395SOL    HW182683   5.905   3.792   5.640  0.8298  0.9437  0.5907
26395SOL    HW282684   5.852   3.921   5.701  0.1926  0.5277  0.9352
26396SOL     OW82685  10.970   5.081   1.914  0.2100 -0.1422 -0.7068
26396SOL    HW182686  10.899   5.141   1.938 -0.6407 -0.6325 -1.8940
26396SOL    HW282687  10.930   4.994   1.916  1.5688 -0.7841  1.5402
26397SOL     OW82688   7.338   4.184   8.797 -0.1964 -0.0645  0.6542
26397SOL    HW182689   7.410   4.176   8.735 -0.3016 -2.1116  0.7451
26397SOL    HW282690   7.276   4.244   8.754  1.0876  0.9735  0.1695
26398SOL     OW82691   3.245   4.714   7.002  0.3430  0.1730 -0.2264
26398SOL    HW182692   3.210   4.751   6.921 -1.0424  0.0109  0.2714
26398SOL    HW282693   3.171   4.713   7.062  1.1587 -0.4156  0.8098
26399SOL     OW82694  10.941   8.782   8.121  0.1963 -0.3145 -0.4928
26399SOL    HW182695  10.951   8.752   8.030  3.0661  2.8414 -1.4420
26399SOL    HW282696  10.903   8.869   8.113  0.8581  0.1826  1.2867
26400SOL     OW82697   2.702   3.854   0.946 -0.0086  0.3616  0.1324
26400SOL    HW182698   2.751   3.923   0.903 -2.4647  2.6133  0.6595
26400SOL    HW282699   2.610   3.873   0.926 -1.0175 -0.8844  2.9095
26401SOL     OW82700   1.105  10.906   9.562  0.1431 -0.0798  0.3467
26401SOL    HW182701   1.193  10.869   9.565  0.6539  0.8639 -1.2133
26401SOL    HW282702   1.079  10.896   9.470 -0.6200  1.2550  0.3888
26402SOL     OW82703   8.842   0.971   2.231  0.4188 -0.2311  0.1463
26402SOL    HW182704   8.880   1.022   2.303  1.2404 -0.5811 -0.0286
26402SOL    HW282705   8.865   0.880   2.250  1.0568 -0.2799 -0.7980
26403SOL     OW82706   3.254   2.685   0.805  0.3212 -0.6014  0.1970
26403SOL    HW182707   3.321   2.753   0.805  0.6445 -0.9139  0.6273
26403SOL    HW282708   3.177   2.728   0.769  0.5861 -0.0695  0.2465
26404SOL     OW82709   4.940   7.293   9.014  0.0609 -1.2070  0.6566
26404SOL    HW182710   4.983   7.367   8.970 -0.4511 -1.8121 -0.9144
26404SOL    HW282711   4.848   7.317   9.015 -0.0113 -1.4968  0.8145
26405SOL     OW82712   8.950   6.045   2.017  0.0560  0.5916 -0.1072
26405SOL    HW182713   9.003   6.124   2.022 -1.0789  1.4626 -1.1043
26405SOL    HW282714   8.886   6.054   2.087 -0.3346  0.7846 -0.4785
26406SOL     OW82715   2.326   1.488   2.970  0.3239 -0.1535  0.0042
26406SOL    HW182716   2.274   1.409   2.980 -2.0671  1.0992 -1.4814
26406SOL    HW282717   2.374   1.476   2.888  0.1236 -0.1466 -0.1134
26407SOL     OW82718   6.979   9.455  10.991 -0.2038 -0.9001 -0.5965
26407SOL    HW182719   7.059   9.443  10.941 -0.2577 -1.9078 -0.4636
26407SOL    HW282720   6.991   9.403  11.070  0.9752  2.6904  1.8468
26408SOL     OW82721   5.928   0.568   0.550  0.0488  0.0282  0.4838
26408SOL    HW182722   5.973   0.603   0.473  1.3835 -0.3805  1.0329
26408SOL    HW282723   5.886   0.488   0.520 -0.0708  0.2710  0.0073
26409SOL     OW82724   9.917   9.540   9.904  0.2254 -0.3069  0.3843
26409SOL    HW182725   9.949   9.621   9.864  2.0574 -0.0826  2.1117
26409SOL    HW282726   9.844   9.567   9.960 -0.3965 -0.1591 -0.4954
26410SOL     OW82727  10.639   7.422   9.285  0.2214  0.0035  0.2308
26410SOL    HW182728  10.712   7.379   9.240  0.7589  2.1878 -1.2032
26410SOL    HW282729  10.562   7.397   9.235  0.5208  0.5760 -0.5536
26411SOL     OW82730   0.196   3.507   5.671 -0.0846 -0.3968 -0.2828
26411SOL    HW182731   0.234   3.528   5.756  0.6004 -1.2252 -0.3677
26411SOL    HW282732   0.268   3.466   5.622 -0.0637  1.2576 -1.7448
26412SOL     OW82733   0.901   5.373   9.693  0.1205  0.6540 -0.1019
26412SOL    HW182734   0.820   5.425   9.698  0.0119  0.3969  1.3080
26412SOL    HW282735   0.965   5.424   9.741 -0.5357 -1.3808  3.2805
26413SOL     OW82736   5.763   8.435   2.402 -0.2531 -0.2429 -0.0191
26413SOL    HW182737   5.690   8.443   2.464 -0.2460 -0.3029 -0.0031
26413SOL    HW282738   5.796   8.346   2.415 -0.2831 -0.2726 -0.1447
26414SOL     OW82739   7.350   0.247   4.425 -0.3445  0.0421  0.5494
26414SOL    HW182740   7.290   0.310   4.386 -0.4461  0.0020  0.6406
26414SOL    HW282741   7.322   0.162   4.389 -1.3720 -0.1865  1.8295
26415SOL     OW82742   0.412   7.265   3.483 -0.1631  0.3714  0.9939
26415SOL    HW182743   0.319   7.289   3.484 -0.7659 -1.7512  1.7323
26415SOL    HW282744   0.416   7.190   3.422  1.3038  1.2139  0.0069
26416SOL     OW82745   9.820   1.414   4.434  0.0679 -0.1803  0.0398
26416SOL    HW182746   9.837   1.323   4.410 -2.8908 -0.1951 -2.5757
26416SOL    HW282747   9.736   1.413   4.478 -0.0356  1.2828 -0.0583
26417SOL     OW82748   7.543   6.628   7.311 -0.7006  0.1603  0.2558
26417SOL    HW182749   7.499   6.548   7.283 -0.6507  0.1335  0.2546
26417SOL    HW282750   7.474   6.694   7.313 -1.0899 -0.2611  1.9217
26418SOL     OW82751   0.992   4.296   3.846  0.5738  0.1043 -0.2587
26418SOL    HW182752   0.916   4.341   3.883  0.4554 -0.6364  0.4296
26418SOL    HW282753   0.955   4.220   3.801  0.8588  0.1040 -0.4963
26419SOL     OW82754   2.061  10.313   2.292  0.2875  0.6230 -0.0108
26419SOL    HW182755   2.017  10.320   2.207  1.4352 -1.7180 -0.9011
26419SOL    HW282756   2.150  10.283   2.270  0.3705 -0.8215  2.0238
26420SOL     OW82757   7.063   8.495   3.522 -0.2263  0.1518 -0.0644
26420SOL    HW182758   6.971   8.470   3.519 -0.6643  1.5243  0.6118
26420SOL    HW282759   7.087   8.512   3.431 -0.3964 -0.9778 -0.3304
26421SOL     OW82760   6.580   1.902   8.788 -0.2877 -0.1882  0.6628
26421SOL    HW182761   6.634   1.971   8.826 -0.2119 -0.2263  0.6248
26421SOL    HW282762   6.639   1.856   8.728 -0.4907  0.0577  0.2780
26422SOL     OW82763   7.781   7.821   7.653 -0.0481  0.1099  0.3991
26422SOL    HW182764   7.815   7.836   7.741  1.7945 -1.4119  0.0173
26422SOL    HW282765   7.849   7.854   7.595 -0.3675 -0.6212 -0.4246
26423SOL     OW82766   7.453   0.407   5.175  0.0491  0.0429 -0.4036
26423SOL    HW182767   7.469   0.494   5.212  0.1672  0.1987 -0.8217
26423SOL    HW282768   7.362   0.410   5.146  0.1957  0.1860 -0.8522
26424SOL     OW82769   6.175   9.369   0.467  0.0377 -0.1921  0.1152
26424SOL    HW182770   6.208   9.361   0.556 -2.2357 -3.2281  0.8425
26424SOL    HW282771   6.240   9.325   0.413  1.9386  2.5430  0.0052
26425SOL     OW82772   8.413   5.426   7.325  0.2372  0.8837  0.2470
26425SOL    HW182773   8.395   5.514   7.360 -2.7153  0.6537 -0.4201
26425SOL    HW282774   8.471   5.442   7.251 -0.1210  2.2692  0.2248
26426SOL     OW82775  10.570   8.492   8.088  0.2288  0.4256 -0.4323
26426SOL    HW182776  10.554   8.491   7.994 -1.3914 -1.3013 -0.2036
26426SOL    HW282777  10.492   8.532   8.126  1.2021  1.8516  0.1781
26427SOL     OW82778   9.611   8.382   0.094 -0.3397  0.0698 -0.1225
26427SOL    HW182779   9.556   8.320   0.142  0.2326 -0.1889  0.2142
26427SOL    HW282780   9.685   8.399   0.153  0.2346 -0.0310 -0.7926
26428SOL     OW82781   1.993   3.724   6.971  0.2013  0.3639 -0.2619
26428SOL    HW182782   1.912   3.719   6.922 -0.9218  0.5801  1.4847
26428SOL    HW282783   2.015   3.817   6.974  0.3347  0.3385 -0.4596
26429SOL     OW82784   9.839   3.091   8.160 -0.6787 -0.2621 -0.1118
26429SOL    HW182785   9.890   3.014   8.183 -0.4635 -0.5164 -1.3671
26429SOL    HW282786   9.903   3.162   8.155 -0.9822  0.1973  1.8004
26430SOL     OW82787   9.884   6.070   8.783 -0.1674 -0.0753  0.0945
26430SOL    HW182788   9.886   6.161   8.752  0.1189  0.6768  2.1657
26430SOL    HW282789   9.957   6.064   8.844 -0.0387 -1.7891 -0.1993
26431SOL     OW82790   9.845   6.142   2.340 -0.2814  0.7199 -0.4389
26431SOL    HW182791   9.839   6.206   2.411 -1.2151  0.4717 -0.2820
26431SOL    HW282792   9.760   6.148   2.296  0.6428  1.5984 -2.1771
26432SOL     OW82793  10.823   5.314   5.239 -0.1847  0.0665 -0.2766
26432SOL    HW182794  10.886   5.358   5.296 -2.0950  1.8752  0.5405
26432SOL    HW282795  10.826   5.222   5.266  0.2531  0.5721  1.4908
26433SOL     OW82796   0.424   4.756   0.582  0.1572  0.5000 -0.5230
26433SOL    HW182797   0.505   4.705   0.576  0.0817  0.4392 -1.1376
26433SOL    HW282798   0.363   4.709   0.526  0.0356  1.1646 -0.9632
26434SOL     OW82799   4.765   4.533   8.213  0.3619 -0.1088  0.2944
26434SOL    HW182800   4.860   4.530   8.225  0.3588  0.9962  0.7528
26434SOL    HW282801   4.737   4.442   8.217  1.1436 -0.3190  2.4680
26435SOL     OW82802   3.865   8.805   2.868 -0.5618  0.1204  0.4727
26435SOL    HW182803   3.902   8.801   2.780  0.4036  0.6269  0.8385
26435SOL    HW282804   3.778   8.766   2.859  0.8779 -3.2832  0.0427
26436SOL     OW82805   6.814   5.837   5.698  0.2359 -0.2572  0.3967
26436SOL    HW182806   6.833   5.751   5.734 -0.8835 -0.4820  0.4978
26436SOL    HW282807   6.720   5.850   5.714 -0.0520  0.1354 -1.3636
26437SOL     OW82808   9.533  10.544   7.208 -0.2667 -0.9775 -0.3294
26437SOL    HW182809   9.520  10.563   7.301 -0.3757  0.3988 -0.6024
26437SOL    HW282810   9.628  10.536   7.198  0.2632  3.4399 -0.8190
26438SOL     OW82811   7.944   1.703   8.167 -0.2159  0.3422 -0.2184
26438SOL    HW182812   7.939   1.695   8.263 -2.1637  0.2074 -0.2955
26438SOL    HW282813   7.936   1.797   8.151 -0.7302  0.2947 -0.2660
26439SOL     OW82814   1.443   2.997   1.676 -0.0534 -0.1160  0.3369
26439SOL    HW182815   1.378   3.066   1.660 -1.6830 -1.5221  0.6706
26439SOL    HW282816   1.487   2.985   1.592  0.1123  1.1690  0.2232
26440SOL     OW82817   6.251   9.771   4.399 -0.1703 -0.4147 -0.2889
26440SOL    HW182818   6.246   9.808   4.487 -0.7106 -0.4632 -0.3008
26440SOL    HW282819   6.345   9.760   4.384  0.1700  2.4383 -0.8908
26441SOL     OW82820  10.415   2.964   3.152 -0.5316 -0.4153  0.1112
26441SOL    HW182821  10.330   3.005   3.167  0.1212  1.1315 -0.2752
26441SOL    HW282822  10.464   2.978   3.233  0.1621  0.8062 -0.4890
26442SOL     OW82823   2.645   8.802   7.505 -0.2564  0.4499  0.0479
26442SOL    HW182824   2.592   8.772   7.432 -1.3292 -2.5292  1.8362
26442SOL    HW282825   2.593   8.871   7.546 -0.9604  0.2190 -0.4387
26443SOL     OW82826   7.206   4.825   6.770 -0.0867  0.1582  0.2093
26443SOL    HW182827   7.154   4.788   6.698 -0.2770  1.1794 -0.1939
26443SOL    HW282828   7.297   4.813   6.742 -0.1568  0.3818 -0.1196
26444SOL     OW82829   1.749   6.802  10.028  0.3238  0.3234  0.2850
26444SOL    HW182830   1.787   6.714  10.031 -0.2758  0.0918  1.3539
26444SOL    HW282831   1.778   6.843  10.110 -1.1298  0.3802  0.7907
26445SOL     OW82832   9.048   4.517   9.699 -0.5669  0.2909  0.1535
26445SOL    HW182833   9.074   4.478   9.615  0.9806  0.5182  0.5102
26445SOL    HW282834   8.959   4.549   9.683 -1.2624 -1.8441 -0.6486
26446SOL     OW82835   8.313   7.170   6.710 -0.2451  0.0518 -0.4529
26446SOL    HW182836   8.291   7.115   6.785 -0.0717 -1.3880 -1.4290
26446SOL    HW282837   8.337   7.254   6.749  2.5809 -1.4316  1.3682
26447SOL     OW82838   9.013   5.598   1.180  0.6743  0.2464  0.5331
26447SOL    HW182839   9.105   5.575   1.175  0.4315 -0.8374  0.6833
26447SOL    HW282840   9.005   5.679   1.130  1.5508 -0.1402 -0.2692
26448SOL     OW82841  10.899   5.144   6.611  0.1523  0.3393  0.2278
26448SOL    HW182842  10.874   5.133   6.519 -0.9360  0.3176  0.5125
26448SOL    HW282843  10.831   5.199   6.648  0.7371  0.5841  0.9634
26449SOL     OW82844   9.955   7.609  10.727  0.4580  0.5361 -0.4479
26449SOL    HW182845   9.895   7.542  10.759  0.7403  1.2381  1.7096
26449SOL    HW282846  10.033   7.600  10.781  0.5007  2.5660 -0.0797
26450SOL     OW82847   5.136   2.059   8.793 -0.0993 -0.0570 -0.5404
26450SOL    HW182848   5.120   2.099   8.708 -0.5140 -1.4106 -1.1252
26450SOL    HW282849   5.197   1.987   8.775  0.6357  0.2733  0.4798
26451SOL     OW82850   0.867   5.061   7.311  0.6360 -0.0156  0.3214
26451SOL    HW182851   0.815   4.983   7.331 -1.4415  1.5072  1.2544
26451SOL    HW282852   0.885   5.055   7.217 -1.6499 -0.4408 -0.1567
26452SOL     OW82853   6.076  10.900   0.447  0.4607  0.3553 -0.0192
26452SOL    HW182854   6.141  10.922   0.381  2.3785 -0.1704  1.6189
26452SOL    HW282855   6.086  10.967   0.515  0.7472 -0.8958  1.2149
26453SOL     OW82856   9.100   5.548   6.074  0.0613  0.3087  0.4835
26453SOL    HW182857   9.054   5.622   6.113  0.0726  0.9778 -0.7456
26453SOL    HW282858   9.084   5.555   5.980  1.8561  0.0069  0.1171
26454SOL     OW82859   1.467  10.537   0.107 -0.1026  0.5757 -0.4889
26454SOL    HW182860   1.465  10.536   0.202 -0.6115  0.1588 -0.4987
26454SOL    HW282861   1.475  10.629   0.084  3.0297  0.5232 -0.0165
26455SOL     OW82862   6.926   5.384   4.603 -0.9111 -0.7345  0.0934
26455SOL    HW182863   6.917   5.439   4.680 -0.0097  0.1842 -0.4325
26455SOL    HW282864   7.019   5.362   4.600 -1.3033 -2.6564  0.5158
26456SOL     OW82865   7.616  10.969   9.152 -0.3042 -0.1495 -0.2261
26456SOL    HW182866   7.615  10.954   9.058  1.3026  0.7302 -0.4204
26456SOL    HW282867   7.544  11.029   9.168 -1.1045 -0.9436 -0.7527
26457SOL     OW82868   0.708   3.791   5.146  0.1515  0.1872 -0.7766
26457SOL    HW182869   0.788   3.761   5.189 -0.1458 -0.3614 -0.5898
26457SOL    HW282870   0.647   3.807   5.218  0.8297  2.9831 -0.7170
26458SOL     OW82871   9.782   2.546   4.235 -0.0670  0.4683 -0.2661
26458SOL    HW182872   9.705   2.564   4.181 -2.0753  0.7038  2.4542
26458SOL    HW282873   9.805   2.630   4.273  0.8865  0.2152 -0.2704
26459SOL     OW82874   0.387   6.361   6.003 -0.2161 -0.1259 -0.1417
26459SOL    HW182875   0.401   6.315   6.086  0.2619 -0.6855 -0.5250
26459SOL    HW282876   0.368   6.451   6.029 -2.4487 -0.7655  0.6815
26460SOL     OW82877   7.382   4.598   4.339 -0.4326 -0.0142 -0.2140
26460SOL    HW182878   7.304   4.584   4.284  0.9326 -1.9845 -1.7915
26460SOL    HW282879   7.358   4.560   4.423 -0.9036 -1.4280 -0.9508
26461SOL     OW82880   3.368   3.070   1.030  0.2551  0.0976  0.1753
26461SOL    HW182881   3.397   3.141   1.087 -0.5327 -1.1934  2.2839
26461SOL    HW282882   3.274   3.061   1.048  0.5863 -2.3575  1.0392
26462SOL     OW82883   7.645   3.722   9.587 -0.5685  0.3868  0.0265
26462SOL    HW182884   7.673   3.811   9.608 -0.1009 -0.2981  2.6808
26462SOL    HW282885   7.550   3.723   9.598 -0.7040  0.7624 -1.0084
26463SOL     OW82886   3.169   5.208   3.047  0.7188  0.0989  0.2051
26463SOL    HW182887   3.155   5.116   3.025 -0.3826  0.7118 -1.9249
26463SOL    HW282888   3.110   5.225   3.120 -0.0973 -0.5662 -0.2822
26464SOL     OW82889   1.572   5.036   6.350  0.1768 -0.8390 -0.1159
26464SOL    HW182890   1.625   5.099   6.301  1.6368 -0.5936  1.6644
26464SOL    HW282891   1.636   4.974   6.386 -0.5931 -0.1022  2.7580
26465SOL     OW82892   6.500   7.389   3.026 -0.1163  0.5451  0.2295
26465SOL    HW182893   6.435   7.448   3.065 -1.5684 -0.1165 -1.1027
26465SOL    HW282894   6.481   7.304   3.064 -1.8876 -0.2202 -2.1558
26466SOL     OW82895   7.815   6.529   5.937  1.2456  0.5513  0.8237
26466SOL    HW182896   7.790   6.481   6.016  0.4851  1.7739  1.3656
26466SOL    HW282897   7.732   6.556   5.898  1.5040 -1.6801 -1.5369
26467SOL     OW82898   3.332   3.178   1.783  0.4929 -0.0966  0.5774
26467SOL    HW182899   3.385   3.102   1.805 -0.3180 -0.9116 -0.2083
26467SOL    HW282900   3.369   3.210   1.701 -1.8236 -2.3301 -1.5046
26468SOL     OW82901   3.796   5.997   1.650 -0.2197 -0.0279 -0.1804
26468SOL    HW182902   3.815   5.906   1.627 -1.0226  0.0058 -1.0083
26468SOL    HW282903   3.875   6.045   1.626 -0.6677 -0.1429 -2.0120
26469SOL     OW82904  10.246   6.908   9.639 -0.0740 -0.0769 -0.1419
26469SOL    HW182905  10.265   6.969   9.568 -2.3468  0.1738 -0.6058
26469SOL    HW282906  10.214   6.964   9.710  2.1535 -0.3253  1.1360
26470SOL     OW82907   4.713   9.351   7.138  0.1927 -0.3600 -0.1477
26470SOL    HW182908   4.737   9.339   7.046 -0.2106  0.0926 -0.3139
26470SOL    HW282909   4.651   9.281   7.157  0.3112 -0.4814 -0.2049
26471SOL     OW82910   3.106   8.212  10.190  0.5831 -0.2332 -0.0403
26471SOL    HW182911   3.107   8.307  10.188  0.8555 -0.2344  0.0490
26471SOL    HW282912   3.128   8.185  10.101  0.4421 -0.2141 -0.0820
26472SOL     OW82913   7.670   3.185  10.190 -0.1331 -0.1035 -0.5455
26472SOL    HW182914   7.619   3.163  10.112 -1.2472 -0.8585  0.3663
26472SOL    HW282915   7.614   3.160  10.264  1.5188 -0.8775  0.4996
26473SOL     OW82916   7.409   5.727   0.548  0.4035  0.5102 -0.0598
26473SOL    HW182917   7.378   5.811   0.514 -0.2543  0.1393 -0.3862
26473SOL    HW282918   7.420   5.743   0.642 -1.0414  0.5899  0.1260
26474SOL     OW82919   8.395   4.777   2.552  0.0222 -0.5927 -0.6026
26474SOL    HW182920   8.453   4.852   2.554  1.2520 -1.4784 -1.3521
26474SOL    HW282921   8.320   4.805   2.498  0.1409  0.2990 -0.3023
26475SOL     OW82922   2.241   1.953   6.083 -0.2194 -0.2721 -0.2113
26475SOL    HW182923   2.311   1.917   6.028 -0.5291  0.9447 -1.4618
26475SOL    HW282924   2.160   1.927   6.039 -0.4606  1.3023 -0.7574
26476SOL     OW82925  10.704   0.355   3.579  0.3080 -0.0721 -0.4438
26476SOL    HW182926  10.790   0.360   3.621  0.4908 -1.3742 -0.6310
26476SOL    HW282927  10.645   0.398   3.640  1.0801  0.8265 -0.3072
26477SOL     OW82928   7.721   5.237   2.944 -0.2367  0.5252  0.2363
26477SOL    HW182929   7.747   5.210   2.856 -0.7040 -0.1713  0.3063
26477SOL    HW282930   7.763   5.323   2.956 -1.4865  1.3919 -1.2818
26478SOL     OW82931   4.532   2.462   4.365 -0.2287  0.9650 -0.5605
26478SOL    HW182932   4.447   2.490   4.400  0.6727 -0.3368  3.0723
26478SOL    HW282933   4.588   2.539   4.372  0.0505  0.6231  1.5014
26479SOL     OW82934   6.368   8.255   4.443  0.8851 -0.1360 -0.0627
26479SOL    HW182935   6.384   8.248   4.537 -0.4878 -0.0063  0.2070
26479SOL    HW282936   6.398   8.171   4.407 -0.8370 -1.2190  0.8716
26480SOL     OW82937   0.658   5.215   0.335  0.3780  0.3011 -0.3317
26480SOL    HW182938   0.728   5.163   0.295  1.8475  0.8991  1.3322
26480SOL    HW282939   0.610   5.153   0.390  0.4968  0.1692 -0.3764
26481SOL     OW82940   6.023   9.112   1.095  0.4363  0.2680 -0.0698
26481SOL    HW182941   5.931   9.136   1.099  0.6102  1.0875 -0.6888
26481SOL    HW282942   6.028   9.027   1.139 -0.7335 -0.1467 -0.7015
26482SOL     OW82943   7.947   5.102   0.062 -0.8187 -0.0810 -0.3118
26482SOL    HW182944   7.883   5.157   0.015 -0.2163 -0.1087 -1.2053
26482SOL    HW282945   8.004   5.165   0.106 -2.6841 -0.0508  2.3251
26483SOL     OW82946   5.101   9.204   8.878  0.4261 -0.1985  0.0971
26483SOL    HW182947   5.185   9.218   8.920  0.1294  0.3874  0.5111
26483SOL    HW282948   5.096   9.271   8.809  0.2041 -0.0789  0.2264
26484SOL     OW82949   4.172   1.892   5.837  0.1059 -0.1230 -0.2694
26484SOL    HW182950   4.142   1.829   5.772 -1.7924  1.1710 -0.7425
26484SOL    HW282951   4.251   1.930   5.799  0.4314 -1.1657 -0.6500
26485SOL     OW82952   4.494   7.013   6.578  0.6048  0.4611  0.1519
26485SOL    HW182953   4.412   6.971   6.603  0.1102  1.3656  0.0996
26485SOL    HW282954   4.549   6.941   6.546 -0.0895 -0.1847  0.3812
26486SOL     OW82955  10.987   9.067   0.671  0.1633  0.3007 -0.1956
26486SOL    HW182956  10.919   9.126   0.703  0.2377  0.0557  0.4318
26486SOL    HW282957  10.940   9.007   0.613 -0.2498 -0.1202  0.5454
26487SOL     OW82958   0.640   8.584   0.466 -0.1654  0.2746 -0.4085
26487SOL    HW182959   0.558   8.573   0.419  0.1152  0.6758 -1.0001
26487SOL    HW282960   0.706   8.600   0.398  0.3623  0.1896  0.0692
26488SOL     OW82961   6.165   1.897   1.713 -0.5079  0.4147  0.3576
26488SOL    HW182962   6.208   1.882   1.797 -0.6635  1.3071  0.6133
26488SOL    HW282963   6.094   1.834   1.710  0.0270 -0.2007  0.5100
26489SOL     OW82964   1.314  10.193   5.148 -0.0715 -0.6258 -0.6381
26489SOL    HW182965   1.320  10.098   5.134  1.5878 -0.5725 -0.5798
26489SOL    HW282966   1.406  10.221   5.155 -0.4826  1.1688 -1.8895
26490SOL     OW82967   4.059   0.447   7.157  0.5703  0.3652  0.4772
26490SOL    HW182968   3.985   0.412   7.207  0.1302 -0.8109 -0.9451
26490SOL    HW282969   4.024   0.464   7.070  1.6065  1.2902  0.2130
26491SOL     OW82970   2.202   9.263   2.562 -0.7369 -0.3691  0.2530
26491SOL    HW182971   2.260   9.329   2.524 -0.7887 -0.3140  0.2699
26491SOL    HW282972   2.255   9.183   2.564 -0.8414 -0.4515 -0.2396
26492SOL     OW82973   1.287   6.662   5.052  0.4712  0.1535  0.1226
26492SOL    HW182974   1.210   6.641   4.999 -0.0538  0.7500  0.6260
26492SOL    HW282975   1.293   6.588   5.114  1.0801 -0.5357 -0.7392
26493SOL     OW82976   2.768   8.259   6.050 -0.3189 -0.0738 -0.6017
26493SOL    HW182977   2.730   8.347   6.054 -2.1175 -0.8163  0.0753
26493SOL    HW282978   2.860   8.273   6.031 -0.5518  1.9607 -0.4619
26494SOL     OW82979   5.381   1.268   5.207 -0.3919 -0.4961 -0.2521
26494SOL    HW182980   5.411   1.322   5.281  0.2987  1.3087 -1.7739
26494SOL    HW282981   5.430   1.186   5.216  0.2545 -0.0168  0.8420
26495SOL     OW82982  10.112   2.336   4.868 -0.1800 -0.6333  0.4076
26495SOL    HW182983  10.018   2.324   4.853  0.2670  0.0617 -4.4756
26495SOL    HW282984  10.130   2.425   4.838  2.2059 -1.1549  0.1329
26496SOL     OW82985   5.864   4.019   6.196 -0.6493 -0.3318 -0.4169
26496SOL    HW182986   5.829   4.106   6.213  0.7922  0.3104 -0.5583
26496SOL    HW282987   5.868   3.977   6.282  1.4746  0.8930  0.1591
26497SOL     OW82988   7.120   5.735   3.066  0.1111 -0.3349 -0.2324
26497SOL    HW182989   7.039   5.763   3.024 -0.1937  1.6936  1.5053
26497SOL    HW282990   7.114   5.640   3.071 -3.3891 -0.1756  2.0439
26498SOL     OW82991   7.997   9.305   8.897  0.1614 -0.4237  0.0816
26498SOL    HW182992   8.077   9.260   8.925 -0.9131 -1.8696  1.0002
26498SOL    HW282993   7.997   9.297   8.802  0.6526 -1.2691  0.1363
26499SOL     OW82994   5.348  10.381   6.483  0.3907  0.4249 -0.2491
26499SOL    HW182995   5.305  10.311   6.532 -0.0618  0.1358 -1.0533
26499SOL    HW282996   5.418  10.411   6.541 -1.0254  1.0786  1.1892
26500SOL     OW82997   6.639   7.701   8.856  0.6096 -0.1756 -0.3651
26500SOL    HW182998   6.599   7.787   8.867  1.0337  0.1549 -1.2913
26500SOL    HW282999   6.565   7.641   8.849  0.1976  0.4576 -2.3520
26501SOL     OW83000   6.419   1.495   2.649  0.5271 -0.1540  0.6341
26501SOL    HW183001   6.488   1.440   2.611  0.5022 -1.6192  2.5296
26501SOL    HW283002   6.444   1.584   2.627  2.0608 -0.7584 -0.2301
26502SOL     OW83003   6.518   9.163   4.934  0.2105  0.2923 -0.1959
26502SOL    HW183004   6.529   9.244   4.983  1.4169  0.4702 -0.7388
26502SOL    HW283005   6.458   9.111   4.988  0.6097  0.9357  0.9028
26503SOL     OW83006   7.904   0.364   7.123 -0.6835 -0.4431 -0.2473
26503SOL    HW183007   7.926   0.323   7.207 -1.0577 -0.3648 -0.1086
26503SOL    HW283008   7.968   0.328   7.061  0.4572  0.4969  0.3257
26504SOL     OW83009   3.339  10.635   7.659 -0.3958  0.7670 -0.0455
26504SOL    HW183010   3.393  10.691   7.603  0.3184  1.1065  0.9772
26504SOL    HW283011   3.365  10.657   7.748 -0.8110 -0.4930  0.4030
26505SOL     OW83012   4.589   0.491   8.958 -0.2215 -0.8138  0.0563
26505SOL    HW183013   4.513   0.439   8.929  0.2296 -0.8375 -1.1232
26505SOL    HW283014   4.591   0.479   9.053 -0.6186 -2.2971 -0.0949
26506SOL     OW83015   3.716   0.775   0.982 -0.2375 -0.0982 -0.3507
26506SOL    HW183016   3.709   0.684   0.956  0.4623 -0.1378 -0.4239
26506SOL    HW283017   3.632   0.814   0.958 -2.2803 -1.6202  3.3782
26507SOL     OW83018   9.619   6.470   1.613  0.5651 -0.3364  0.0437
26507SOL    HW183019   9.660   6.431   1.691 -2.3989 -0.4159  1.7027
26507SOL    HW283020   9.627   6.565   1.627  1.1694 -0.3468 -0.2165
26508SOL     OW83021   3.473   7.687  10.688 -0.0862  0.8900 -0.1073
26508SOL    HW183022   3.540   7.620  10.699 -0.9447  0.1572  0.8539
26508SOL    HW283023   3.505   7.741  10.616  0.5960 -0.5851 -0.9611
26509SOL     OW83024   1.152   7.658   9.220 -0.6742  0.1990  0.3569
26509SOL    HW183025   1.081   7.601   9.191  0.2506 -0.3726 -0.8585
26509SOL    HW283026   1.232   7.612   9.194  0.1945  0.3757  2.5352
26510SOL     OW83027   9.273   1.852   5.129  0.3654 -0.1715  0.3987
26510SOL    HW183028   9.244   1.789   5.063 -1.3490  0.8098  0.1408
26510SOL    HW283029   9.352   1.892   5.092 -0.2833 -0.0001 -0.8576
26511SOL     OW83030   8.005  10.866  10.917  0.2023 -0.4337  0.0092
26511SOL    HW183031   8.032  10.776  10.936 -0.5190 -0.9603 -1.3205
26511SOL    HW283032   7.968  10.897  10.999  0.1692 -1.4652  0.4028
26512SOL     OW83033   9.199   5.626   8.291 -0.1356  0.5651  0.7533
26512SOL    HW183034   9.147   5.647   8.369 -1.9558  0.8287 -0.4710
26512SOL    HW283035   9.149   5.663   8.218  1.0416 -0.4716 -0.6330
26513SOL     OW83036   3.234   0.344   3.682  0.3057  0.3484 -0.2790
26513SOL    HW183037   3.277   0.315   3.602 -0.7143 -1.4266 -0.2358
26513SOL    HW283038   3.299   0.398   3.727  1.3317  0.3180 -1.6877
26514SOL     OW83039   4.380   0.837   5.700  0.4474 -0.2884  0.4406
26514SOL    HW183040   4.306   0.779   5.714  1.5917 -1.6473  1.1436
26514SOL    HW283041   4.358   0.886   5.621 -1.4009 -0.2929  0.9305
26515SOL     OW83042   2.945   3.429   1.178 -0.1278 -0.2053  0.1675
26515SOL    HW183043   2.893   3.349   1.186 -1.8341  0.6959 -1.1157
26515SOL    HW283044   2.883   3.494   1.143  1.8043  1.0081 -1.2056
26516SOL     OW83045   6.331   0.505   7.862  0.4414 -0.4680  0.3696
26516SOL    HW183046   6.254   0.560   7.874  0.3450 -0.5275  0.0334
26516SOL    HW283047   6.301   0.432   7.807  1.1161  0.3688 -1.1979
26517SOL     OW83048   5.232   8.403   7.156 -0.3737  0.2138  0.5088
26517SOL    HW183049   5.172   8.438   7.222 -0.7259  1.5899 -0.5063
26517SOL    HW283050   5.305   8.465   7.156 -1.5374  1.7581 -2.1417
26518SOL     OW83051   2.375  10.787   3.821  0.0652  0.2546  0.9907
26518SOL    HW183052   2.325  10.729   3.878 -0.2495 -0.3337  0.1382
26518SOL    HW283053   2.343  10.768   3.733  0.7660  0.9137  0.5759
26519SOL     OW83054   3.806   5.177   0.147 -0.3315  0.2311 -0.1932
26519SOL    HW183055   3.723   5.197   0.190  0.3072  1.9350  0.3415
26519SOL    HW283056   3.784   5.109   0.083 -2.0055  0.1985  0.3607
26520SOL     OW83057   7.987   8.402   0.973  0.1416  0.2751  0.3363
26520SOL    HW183058   8.074   8.399   1.012  0.3099  0.2591 -0.0350
26520SOL    HW283059   8.001   8.382   0.880  0.0160  2.4255 -0.1989
26521SOL     OW83060   4.474   3.981   5.774  0.0454 -0.1088 -0.1212
26521SOL    HW183061   4.459   4.028   5.692  0.7392 -0.4081 -0.4286
26521SOL    HW283062   4.450   3.891   5.754  1.3394 -0.4248 -0.3710
26522SOL     OW83063   5.216  10.231   0.812 -0.4174  0.3697 -0.2031
26522SOL    HW183064   5.235  10.280   0.892 -0.9576 -1.9404  1.4627
26522SOL    HW283065   5.262  10.148   0.823 -1.6472 -0.5601 -1.6235
26523SOL     OW83066   0.182   5.839   3.720 -0.4048 -0.2847  0.0294
26523SOL    HW183067   0.257   5.781   3.709 -0.7513 -0.8456  0.4831
26523SOL    HW283068   0.176   5.888   3.638  1.4752  1.0295  0.6125
26524SOL     OW83069   4.857   1.866   1.701  0.1246  0.1602 -0.4362
26524SOL    HW183070   4.818   1.831   1.781 -1.4154  3.0458  0.2263
26524SOL    HW283071   4.804   1.828   1.630  1.3196 -2.1857 -0.1783
26525SOL     OW83072   1.865   9.185   2.276 -0.0486  0.0275  0.0545
26525SOL    HW183073   1.914   9.113   2.237  0.6907 -0.6367  2.0531
26525SOL    HW283074   1.907   9.264   2.243  1.7320 -0.5240  0.8800
26526SOL     OW83075   4.458   2.063   5.189  1.0551  0.3852  0.1717
26526SOL    HW183076   4.505   1.984   5.164  1.6977  0.4551  1.1000
26526SOL    HW283077   4.365   2.039   5.182  1.2381 -0.1865 -0.3343
26527SOL     OW83078   7.953   7.497   2.370  0.0937  0.6629 -0.2129
26527SOL    HW183079   7.976   7.469   2.459 -0.1274 -1.0212 -0.6379
26527SOL    HW283080   7.936   7.415   2.323 -1.5514  1.5799 -1.3340
26528SOL     OW83081   2.620   6.585   6.169 -0.4918  0.2712 -0.2980
26528SOL    HW183082   2.605   6.635   6.089  1.6950  0.3571 -0.7168
26528SOL    HW283083   2.693   6.629   6.212 -0.9356 -0.4044  1.2339
26529SOL     OW83084   4.665   7.965   2.535  0.7322 -0.4179 -0.3715
26529SOL    HW183085   4.623   7.909   2.601  0.6029 -1.1721 -1.0725
26529SOL    HW283086   4.608   8.041   2.529  0.0887 -0.8951 -0.4616
26530SOL     OW83087   7.047   6.429   8.899  0.0635  0.1319 -0.0357
26530SOL    HW183088   6.993   6.478   8.961 -0.2347 -1.0308  0.6385
26530SOL    HW283089   7.104   6.496   8.859 -3.2836  1.8790 -2.4378
26531SOL     OW83090   8.219   5.041   4.844 -0.2679  0.0913  0.3052
26531SOL    HW183091   8.142   5.055   4.790  0.1875 -2.7857 -1.3095
26531SOL    HW283092   8.190   4.977   4.910  0.5948 -0.7320 -0.0906
26532SOL     OW83093   7.539   5.946   0.664  0.3535 -0.1129  0.2601
26532SOL    HW183094   7.566   6.035   0.689 -1.5897  0.7297 -0.4274
26532SOL    HW283095   7.547   5.944   0.569  1.0814 -0.9383  0.3295
26533SOL     OW83096   2.438   3.927   7.433 -0.6158  0.1846  0.5360
26533SOL    HW183097   2.410   3.952   7.521 -0.0902  1.7965  0.2821
26533SOL    HW283098   2.485   4.004   7.400 -2.0610  0.1889 -1.7153
26534SOL     OW83099   4.500   5.724   5.924 -0.3682 -0.6048  0.1282
26534SOL    HW183100   4.416   5.765   5.945 -0.0309 -0.1644  0.6406
26534SOL    HW283101   4.531   5.771   5.846 -0.7858 -1.0429 -0.3054
26535SOL     OW83102   0.601   9.435   2.881  0.3024  0.1454 -0.0409
26535SOL    HW183103   0.658   9.457   2.807 -0.1591  0.3341 -0.3435
26535SOL    HW283104   0.523   9.397   2.841 -0.3795  1.1568  0.2687
26536SOL     OW83105  10.037   2.932   6.996  0.1209 -0.4775  0.1936
26536SOL    HW183106  10.002   2.844   6.982  1.6127 -0.9906 -0.4715
26536SOL    HW283107  10.099   2.923   7.068  0.7669 -0.0976 -0.3098
26537SOL     OW83108   6.853   6.902   0.281 -0.2774  0.1145  0.2464
26537SOL    HW183109   6.780   6.861   0.327 -0.3854 -0.9882 -0.8475
26537SOL    HW283110   6.924   6.837   0.285  0.0343  0.4134 -0.2906
26538SOL     OW83111   3.401   5.444   8.066 -0.1451  0.0816  0.2717
26538SOL    HW183112   3.407   5.539   8.054 -0.4979  0.0216 -0.5003
26538SOL    HW283113   3.450   5.427   8.146  0.6674  0.8148 -0.0449
26539SOL     OW83114   4.405   1.619   1.314 -0.1454  0.6784 -0.2973
26539SOL    HW183115   4.393   1.650   1.224 -2.2323  1.4992  0.2209
26539SOL    HW283116   4.388   1.696   1.368  0.6919  0.0886  0.8304
26540SOL     OW83117   1.776   6.076   9.486 -0.3072  0.2427  0.3068
26540SOL    HW183118   1.805   6.139   9.552 -2.1092  1.6140 -0.1339
26540SOL    HW283119   1.776   5.992   9.532 -1.0686  1.0906  1.9450
26541SOL     OW83120   4.092   8.980   4.839  0.3005  0.3321 -0.1884
26541SOL    HW183121   4.049   8.922   4.776 -1.1106  0.6212  0.4661
26541SOL    HW283122   4.038   8.974   4.917  1.5797  0.5805  0.7591
26542SOL     OW83123   5.899   3.660   1.049  0.0734 -0.7572  0.0508
26542SOL    HW183124   5.838   3.588   1.040 -1.9020  0.7824  0.5040
26542SOL    HW283125   5.854   3.724   1.104  0.8102  1.7571 -2.0439
26543SOL     OW83126   8.746   5.163   8.082  0.4115  0.7094  0.2772
26543SOL    HW183127   8.677   5.213   8.126 -2.2482 -0.0102 -2.7409
26543SOL    HW283128   8.791   5.228   8.028 -0.4626  0.5561 -0.6564
26544SOL     OW83129   4.028   8.975   0.656 -0.8929 -0.2397 -0.0259
26544SOL    HW183130   4.038   9.038   0.727 -0.4960 -0.8491  0.4761
26544SOL    HW283131   4.045   9.025   0.577  1.8138 -0.1996  0.4946
26545SOL     OW83132   8.535   0.253   6.720  0.0419  0.2947  0.7434
26545SOL    HW183133   8.541   0.334   6.772  0.0031  0.6909  0.1387
26545SOL    HW283134   8.626   0.230   6.703  0.0537  0.1905  0.9412
26546SOL     OW83135  10.707   8.120   3.906  0.0607  0.0621 -0.4122
26546SOL    HW183136  10.766   8.109   3.831 -0.7561 -0.0069 -1.0610
26546SOL    HW283137  10.619   8.111   3.869 -0.3679  0.3077  0.5129
26547SOL     OW83138  10.681   1.232   3.358  0.0712  0.4023 -0.2863
26547SOL    HW183139  10.612   1.265   3.301  0.8644  2.5220 -0.0855
26547SOL    HW283140  10.737   1.180   3.301 -0.9550 -0.2574 -0.7164
26548SOL     OW83141   1.001   4.322   4.777  0.4746 -0.2141  0.3419
26548SOL    HW183142   0.926   4.357   4.824 -0.3216 -0.3653 -0.7888
26548SOL    HW283143   1.005   4.373   4.696  0.4335 -1.4567 -0.4687
26549SOL     OW83144   4.614   3.358   0.458  0.1117  0.1729 -0.1609
26549SOL    HW183145   4.530   3.316   0.477  0.2273 -0.3769 -0.8466
26549SOL    HW283146   4.655   3.368   0.544 -0.0041 -0.9257  0.0376
26550SOL     OW83147   6.344   0.089   5.146 -0.7684 -0.3608 -0.4701
26550SOL    HW183148   6.342   0.136   5.063 -1.8579 -0.5275 -0.5508
26550SOL    HW283149   6.272   0.126   5.196  1.4512  1.6478  1.5040
26551SOL     OW83150  10.527   9.619   2.479 -0.1554 -0.3740  0.2804
26551SOL    HW183151  10.523   9.578   2.393 -1.8401 -0.2702  0.2829
26551SOL    HW283152  10.523   9.546   2.541 -1.8513 -0.3141  0.2732
26552SOL     OW83153  10.986   7.653   6.407 -0.1940  0.4321  0.4797
26552SOL    HW183154  10.974   7.606   6.324  1.5512  2.6236 -1.1388
26552SOL    HW283155  10.909   7.708   6.415 -0.3439  0.2491  0.2967
26553SOL     OW83156   6.561   9.850   9.912 -0.0538 -0.6436 -0.6005
26553SOL    HW183157   6.601   9.890   9.989 -0.5571 -0.5416 -0.3867
26553SOL    HW283158   6.467   9.867   9.923  0.0320  1.2524 -2.3080
26554SOL     OW83159   1.368   9.136   1.512  0.1496  0.6525  0.6976
26554SOL    HW183160   1.454   9.174   1.495  0.6574 -0.7493 -0.0627
26554SOL    HW283161   1.362   9.063   1.450 -2.1910  1.5850 -0.2812
26555SOL     OW83162   0.071   7.120   9.532 -0.9437 -0.1668 -0.0293
26555SOL    HW183163   0.149   7.135   9.478 -0.7906 -0.3763  0.1349
26555SOL    HW283164   0.024   7.051   9.486 -0.9072 -0.2153  0.0064
26556SOL     OW83165   8.937   2.546   1.623 -0.2064 -0.2655 -0.1761
26556SOL    HW183166   8.842   2.540   1.627 -0.0930 -2.9636  0.1740
26556SOL    HW283167   8.956   2.638   1.644 -2.7321  0.5813 -1.2763
26557SOL     OW83168   7.601  10.213   4.694  0.0642  0.1902  0.5118
26557SOL    HW183169   7.689  10.187   4.668 -0.5360 -1.0787 -0.3614
26557SOL    HW283170   7.550  10.132   4.692 -1.0918  0.8668  1.1736
26558SOL     OW83171   5.223   7.566  10.788 -0.4040 -0.4231 -0.0537
26558SOL    HW183172   5.296   7.624  10.810 -0.3461 -0.4999 -0.0429
26558SOL    HW283173   5.185   7.542  10.872  0.2753 -1.3097  0.0134
26559SOL     OW83174   3.510   8.587   7.853 -0.0984 -1.0161  0.6458
26559SOL    HW183175   3.548   8.673   7.871 -1.4108 -0.2619 -0.0532
26559SOL    HW283176   3.464   8.599   7.770  0.5722 -2.6890 -0.0037
26560SOL     OW83177   7.556   8.820   2.150 -0.3396 -0.1437  0.5548
26560SOL    HW183178   7.629   8.875   2.178 -0.7344  0.5397  0.2704
26560SOL    HW283179   7.524   8.862   2.070 -0.9161 -0.5552  0.5647
26561SOL     OW83180   1.043   5.781   9.619 -0.1518  0.7978  0.7319
26561SOL    HW183181   1.052   5.728   9.698 -1.6368  1.2205  1.2180
26561SOL    HW283182   1.123   5.832   9.614  0.6294 -0.3704  1.0974
26562SOL     OW83183  10.976   0.657   9.626 -0.1294  0.1083 -0.3990
26562SOL    HW183184  10.927   0.651   9.544 -1.0150 -0.9286  0.1737
26562SOL    HW283185  10.908   0.663   9.693  0.5672 -0.0585  0.3317
26563SOL     OW83186   6.796   6.569   9.373 -0.2313 -0.3235 -0.3973
26563SOL    HW183187   6.751   6.588   9.455  0.4261 -0.0519 -0.0949
26563SOL    HW283188   6.844   6.488   9.390  0.2592 -0.0315 -0.3657
26564SOL     OW83189   6.387  10.531  10.492  0.0591 -0.0915 -0.8128
26564SOL    HW183190   6.429  10.571  10.569 -3.9354  1.2794  0.9580
26564SOL    HW283191   6.374  10.440  10.517 -0.0511  0.0345 -0.4009
26565SOL     OW83192   9.268   1.037   0.100 -0.0027  0.1322  0.1067
26565SOL    HW183193   9.345   0.981   0.108  0.6577  0.9866 -0.0981
26565SOL    HW283194   9.303   1.126   0.105 -1.0838  0.5309  0.9136
26566SOL     OW83195   2.909   1.380   8.707 -0.3299 -0.1272  0.0096
26566SOL    HW183196   2.866   1.459   8.674  0.1882 -0.4564 -1.4907
26566SOL    HW283197   2.879   1.310   8.649  0.5598 -0.7401  0.2709
26567SOL     OW83198   2.638   6.922   8.988  0.0624  0.3522 -0.1119
26567SOL    HW183199   2.639   6.941   9.082 -0.7726  0.0910 -0.0349
26567SOL    HW283200   2.730   6.926   8.961  0.3364  0.2028  0.7634
26568SOL     OW83201   1.773   7.873   0.588 -0.1053  0.5507  0.2939
26568SOL    HW183202   1.838   7.848   0.522  1.0202  0.7266  1.3201
26568SOL    HW283203   1.824   7.904   0.662 -1.3777  2.8302  0.3127
26569SOL     OW83204   7.074   2.840   3.301  0.1443 -0.1806 -0.4628
26569SOL    HW183205   7.049   2.785   3.226  2.2853  0.2820 -1.5996
26569SOL    HW283206   7.065   2.783   3.377 -0.6290 -1.1423 -1.2451
26570SOL     OW83207   6.605   9.456  10.012 -0.6001  0.2183 -0.2474
26570SOL    HW183208   6.555   9.530  10.046 -0.9405 -0.8478  1.6774
26570SOL    HW283209   6.694   9.470  10.046 -0.5296  0.0276 -0.3536
26571SOL     OW83210   0.325   4.122  10.144 -0.3828 -0.4699  0.1329
26571SOL    HW183211   0.330   4.183  10.218  2.0165 -0.6466  0.1918
26571SOL    HW283212   0.276   4.048  10.178  1.1411 -0.7923  1.8108
26572SOL     OW83213   2.163   3.629  10.530  0.0568 -0.1463 -0.0588
26572SOL    HW183214   2.247   3.653  10.570 -0.2625  0.1389  0.4453
26572SOL    HW283215   2.110   3.596  10.602 -1.0036  1.6558  0.0467
26573SOL     OW83216   9.415   5.390   7.225  0.2393 -0.1413 -0.0346
26573SOL    HW183217   9.433   5.307   7.182 -0.3660  0.6377 -1.8917
26573SOL    HW283218   9.322   5.387   7.245  0.6380 -0.7597  1.8906
26574SOL     OW83219   1.028   6.027  10.829 -0.6594  0.0023 -0.1209
26574SOL    HW183220   0.984   6.112  10.842 -0.1367  0.3280 -0.4414
26574SOL    HW283221   1.078   6.038  10.748  0.7933 -0.0220  0.7339
26575SOL     OW83222   7.695   1.562   6.223  0.0577  0.9134  0.0574
26575SOL    HW183223   7.600   1.560   6.223  0.0613  0.4665  0.7133
26575SOL    HW283224   7.719   1.561   6.316  0.7706 -2.5443 -0.0296
26576SOL     OW83225   9.597  10.223   2.226 -0.1918  0.5269 -0.7952
26576SOL    HW183226   9.573  10.282   2.297  2.0739  0.1715  0.3759
26576SOL    HW283227   9.582  10.135   2.261 -0.4157  0.3676 -1.2850
26577SOL     OW83228   5.799   3.935   8.105 -0.1330  0.2403 -0.4695
26577SOL    HW183229   5.851   3.984   8.168 -0.6172  1.1269 -0.7512
26577SOL    HW283230   5.786   3.995   8.032  0.5442 -0.8126 -1.4930
26578SOL     OW83231   8.963   4.812  10.965  0.3400 -0.0083 -0.3875
26578SOL    HW183232   8.922   4.848  10.886  0.4936  0.3473 -0.3084
26578SOL    HW283233   8.891   4.801  11.027  0.6029  2.6827  0.5420
26579SOL     OW83234   3.979   4.952   8.727  0.7290  0.2473 -0.3491
26579SOL    HW183235   4.070   4.959   8.696  1.0645  1.8247  0.8753
26579SOL    HW283236   3.986   4.902   8.809  0.0056 -2.7452 -1.9583
26580SOL     OW83237   6.319   9.443   8.106 -0.4746 -0.4192 -0.1943
26580SOL    HW183238   6.278   9.471   8.024  0.0364  1.1782  0.0638
26580SOL    HW283239   6.289   9.507   8.171  2.3243  0.8140  0.0055
26581SOL     OW83240   4.490   5.332  10.892  0.4866 -0.2498 -0.8177
26581SOL    HW183241   4.396   5.317  10.883  0.4236  0.4658 -1.5097
26581SOL    HW283242   4.500   5.372  10.979  0.2430 -0.9502 -0.4615
26582SOL     OW83243   3.487   0.406   3.567  0.3062 -0.3300 -0.3323
26582SOL    HW183244   3.578   0.377   3.559  0.7689  0.6723  1.0296
26582SOL    HW283245   3.468   0.402   3.660 -0.0850  2.1903 -0.2391
26583SOL     OW83246   3.814   1.434   4.556 -0.3098  0.7460  0.0730
26583SOL    HW183247   3.884   1.484   4.599  0.3744 -1.3519  1.5916
26583SOL    HW283248   3.860   1.365   4.508 -1.2618  0.5016 -0.5049
26584SOL     OW83249   6.167   8.954   3.678 -0.1409  0.7296 -0.0268
26584SOL    HW183250   6.245   8.899   3.669  0.1701  1.3236 -1.2528
26584SOL    HW283251   6.136   8.937   3.767  1.8187  1.0361  0.7856
26585SOL     OW83252   0.292   7.450   6.303 -0.2258 -0.0677 -0.0128
26585SOL    HW183253   0.291   7.432   6.397 -0.4836 -0.8232 -0.1540
26585SOL    HW283254   0.279   7.545   6.297 -0.9978 -0.1219  0.6822
26586SOL     OW83255   4.172   6.015   3.690  0.4834 -0.0620 -0.0695
26586SOL    HW183256   4.169   5.939   3.632  1.6281 -0.9252  0.9514
26586SOL    HW283257   4.127   5.986   3.769  2.2711 -0.2370  0.9213
26587SOL     OW83258  10.460   7.929   4.995 -0.1747 -0.0451  0.1196
26587SOL    HW183259  10.413   8.009   5.019 -1.0553 -0.3847 -0.4229
26587SOL    HW283260  10.465   7.932   4.899  1.3758  0.2284  0.1785
26588SOL     OW83261   1.544  10.721   0.914  0.2238  0.5166  0.5027
26588SOL    HW183262   1.637  10.699   0.903 -0.1501 -0.0742 -2.2761
26588SOL    HW283263   1.499  10.637   0.908 -0.6148  1.0212 -0.5905
26589SOL     OW83264   3.313   7.239   6.138  0.0507  0.4100  0.8594
26589SOL    HW183265   3.245   7.252   6.204  0.4092  0.4842  1.2167
26589SOL    HW283266   3.392   7.218   6.188  0.4652  1.0488  0.4896
26590SOL     OW83267   3.460   7.547   1.748  0.2287 -0.2920 -0.2383
26590SOL    HW183268   3.471   7.602   1.826 -0.6904 -0.5442  0.0876
26590SOL    HW283269   3.386   7.490   1.770  1.2057 -1.7180 -0.5238
26591SOL     OW83270   0.244   3.637   2.774 -0.0897 -0.1975 -0.7833
26591SOL    HW183271   0.187   3.652   2.699 -2.4407  1.2220  1.1145
26591SOL    HW283272   0.273   3.547   2.764 -0.6169 -0.1722 -3.1668
26592SOL     OW83273   7.874   7.782   2.113  0.0489  0.0662 -0.6995
26592SOL    HW183274   7.800   7.834   2.143 -0.5602  0.9089 -3.3592
26592SOL    HW283275   7.835   7.712   2.061  0.9723 -2.0202  1.2651
26593SOL     OW83276   7.620   9.388   2.396 -0.3504  0.1333 -0.2112
26593SOL    HW183277   7.678   9.318   2.425 -0.5621 -0.4299 -1.1211
26593SOL    HW283278   7.617   9.448   2.470 -1.2320 -1.4729  1.1114
26594SOL     OW83279   9.352   4.433   1.461 -0.4733 -0.4650  0.4298
26594SOL    HW183280   9.315   4.445   1.548 -0.8351  1.9429 -0.0029
26594SOL    HW283281   9.388   4.519   1.437 -1.5449 -0.6732 -2.3200
26595SOL     OW83282   3.655   2.280   4.314 -0.0481  0.2198 -0.5850
26595SOL    HW183283   3.572   2.320   4.340  0.1887 -0.6131  1.6388
26595SOL    HW283284   3.722   2.339   4.348  0.2932 -1.6309  2.2749
26596SOL     OW83285   0.460   2.385   8.650 -0.0767 -0.2233  0.0210
26596SOL    HW183286   0.372   2.412   8.676  0.4021  0.7808  0.6535
26596SOL    HW283287   0.483   2.316   8.713 -0.6511 -0.9576 -0.5533
26597SOL     OW83288   0.411   1.718   0.658  0.5616 -0.0317  0.1185
26597SOL    HW183289   0.409   1.686   0.568 -1.5834 -0.1540  0.1480
26597SOL    HW283290   0.416   1.814   0.650 -0.6855  0.0232 -0.1877
26598SOL     OW83291   3.075  10.981   4.436  0.6285  0.1274 -0.4688
26598SOL    HW183292   3.112  11.061   4.473 -0.8767  0.7878 -0.3250
26598SOL    HW283293   3.007  11.012   4.376 -1.6158 -1.0537  1.3324
26599SOL     OW83294   8.462   3.983   1.479 -0.1137  0.2235  0.0917
26599SOL    HW183295   8.420   4.018   1.558 -0.5321 -1.5110  0.6700
26599SOL    HW283296   8.390   3.948   1.427  0.2669  0.5128 -0.6502
26600SOL     OW83297   7.802   6.533   2.086  0.2714  0.0426  0.4080
26600SOL    HW183298   7.881   6.516   2.136  0.2544  2.4586  1.3746
26600SOL    HW283299   7.768   6.615   2.121 -1.4922  0.1912 -1.4407
26601SOL     OW83300   4.895   8.941  10.991  0.5197 -0.4904  0.4593
26601SOL    HW183301   4.843   9.001  10.937  1.8271 -0.5909 -0.9874
26601SOL    HW283302   4.980   8.938  10.948  0.8960 -2.3789  1.2434
26602SOL     OW83303   9.037   1.442   2.345 -0.0804 -0.8493 -0.2971
26602SOL    HW183304   9.000   1.439   2.257  0.6806 -1.4781 -0.6015
26602SOL    HW283305   9.023   1.532   2.374  0.5315 -0.3637 -1.4432
26603SOL     OW83306   7.857   8.013   4.247  0.0535  0.0821  0.4764
26603SOL    HW183307   7.782   8.010   4.307 -0.4187  1.5678  0.0139
26603SOL    HW283308   7.926   8.057   4.297 -0.0806  0.5980  0.2193
26604SOL     OW83309   8.861   4.062   2.211  0.1076  0.3361 -0.7443
26604SOL    HW183310   8.953   4.048   2.232  0.1975 -3.0590 -2.7002
26604SOL    HW283311   8.822   4.093   2.292  2.3518 -1.4994  1.1765
26605SOL     OW83312   4.022   5.083   8.053  0.5682 -0.0782 -0.5965
26605SOL    HW183313   4.046   5.163   8.006 -0.1750 -0.4235 -1.5947
26605SOL    HW283314   4.062   5.012   8.003  0.7418 -0.3816 -0.0420
26606SOL     OW83315   0.663   1.045   5.228  0.5257  0.1015 -0.6486
26606SOL    HW183316   0.692   1.112   5.289  1.2470 -1.5242  0.8819
26606SOL    HW283317   0.658   1.089   5.144  0.6724  2.1237  0.3546
26607SOL     OW83318   4.683   4.895   2.227 -0.0288 -0.3933  0.6441
26607SOL    HW183319   4.680   4.847   2.145  1.3721  0.6326 -0.0553
26607SOL    HW283320   4.593   4.894   2.260 -1.1430  1.0627 -2.0157
26608SOL     OW83321   5.788   2.156   1.282 -0.0585  0.4118 -0.4525
26608SOL    HW183322   5.827   2.230   1.328  0.1807  1.0149 -1.5907
26608SOL    HW283323   5.855   2.126   1.220 -0.7638  0.3793 -1.2360
26609SOL     OW83324   2.468   9.801   0.659  0.0658  0.5074 -0.0733
26609SOL    HW183325   2.436   9.747   0.731  0.6689 -2.7428 -2.0433
26609SOL    HW283326   2.395   9.858   0.636 -1.6966 -1.5272  0.2676
26610SOL     OW83327   6.449   0.664   1.467 -0.2303  0.2829 -0.3613
26610SOL    HW183328   6.393   0.723   1.517  0.6516  0.4638  0.4272
26610SOL    HW283329   6.506   0.624   1.532 -0.6886 -1.3276 -0.8995
26611SOL     OW83330   8.609   4.477  10.902  0.3203  0.1393  0.5728
26611SOL    HW183331   8.578   4.560  10.865 -3.0443 -1.1343  0.1915
26611SOL    HW283332   8.637   4.426  10.826  0.5806  0.2572  0.5911
26612SOL     OW83333   5.685   3.092   6.200 -0.1351 -0.3022 -0.4361
26612SOL    HW183334   5.732   3.158   6.150 -0.9379  1.1332  0.6414
26612SOL    HW283335   5.622   3.055   6.138 -0.4109  0.7155 -0.7762
26613SOL     OW83336   0.948  10.500   9.450  0.3798  0.3116  0.0573
26613SOL    HW183337   0.968  10.579   9.401 -0.8659 -0.1226 -1.2336
26613SOL    HW283338   0.860  10.514   9.484  1.0168  0.3764  1.7604
26614SOL     OW83339   5.396   7.225   6.825  0.1425  0.2853 -0.4324
26614SOL    HW183340   5.443   7.222   6.743 -0.7181 -0.8497 -0.9090
26614SOL    HW283341   5.393   7.134   6.855 -1.2909  0.3800 -0.1909
26615SOL     OW83342   0.069   5.887   4.240 -0.0940  0.0547  0.1653
26615SOL    HW183343   0.022   5.901   4.158  0.8435  0.8229 -0.2605
26615SOL    HW283344   0.008   5.837   4.294 -1.3747  0.9737 -0.3799
26616SOL     OW83345   7.603  10.514   4.727 -0.3785 -0.1146  0.5171
26616SOL    HW183346   7.564  10.594   4.692  1.0086  0.2977 -0.1670
26616SOL    HW283347   7.630  10.465   4.650  0.6218 -0.2763  0.9520
26617SOL     OW83348   2.663   6.780   4.171  0.1319  0.4286 -0.0520
26617SOL    HW183349   2.625   6.811   4.089 -0.1191  0.5262  0.1002
26617SOL    HW283350   2.693   6.859   4.216  2.1880  0.2370 -0.9728
26618SOL     OW83351   8.190   7.582   4.486 -0.0821  0.0773  0.0720
26618SOL    HW183352   8.267   7.540   4.448  0.5589  0.4488  0.9073
26618SOL    HW283353   8.223   7.624   4.565 -0.9076  1.2746 -0.1959
26619SOL     OW83354  10.783   0.108  10.173  0.8840 -0.6831 -0.5468
26619SOL    HW183355  10.688   0.117  10.161  1.1582  2.1577 -1.3506
26619SOL    HW283356  10.792   0.047  10.247 -1.5450 -1.1289 -0.5262
26620SOL     OW83357   7.418   9.181  10.612  0.2800 -0.3562  0.4398
26620SOL    HW183358   7.433   9.120  10.685  0.4428  1.0917  1.6591
26620SOL    HW283359   7.353   9.137  10.557 -0.1839 -1.2870  1.6895
26621SOL     OW83360   3.439   5.757   4.971  0.1563 -0.3923  0.4116
26621SOL    HW183361   3.365   5.730   5.025 -0.1291  0.2260  0.3246
26621SOL    HW283362   3.490   5.815   5.027 -1.2804  2.0074 -0.6588
26622SOL     OW83363   4.687   0.218   1.029  0.1872  0.2821 -0.4047
26622SOL    HW183364   4.723   0.149   0.974  0.6426  0.8200 -0.7839
26622SOL    HW283365   4.757   0.238   1.091 -0.0801  0.1508 -0.0552
26623SOL     OW83366   2.282   0.036   8.441 -0.1007 -0.0477  0.0770
26623SOL    HW183367   2.341   0.009   8.370  1.4816 -2.3254  2.1053
26623SOL    HW283368   2.337   0.090   8.498 -0.6510 -0.2314  0.7954
26624SOL     OW83369   9.110   1.378   0.332 -0.1097  0.1218  0.4721
26624SOL    HW183370   9.105   1.421   0.417 -2.1145  1.4789 -0.2571
26624SOL    HW283371   9.121   1.449   0.269  3.9056 -0.9702 -0.3678
26625SOL     OW83372   9.447   2.717   2.691 -0.1971 -0.3009 -0.6852
26625SOL    HW183373   9.464   2.797   2.742 -0.1064 -1.8249  1.8705
26625SOL    HW283374   9.352   2.715   2.681 -0.1935  0.1748 -0.8316
26626SOL     OW83375   5.696   2.515   9.881  0.0833  0.2413 -0.1908
26626SOL    HW183376   5.683   2.509   9.975 -0.0754  1.5025 -0.1111
26626SOL    HW283377   5.653   2.437   9.846  0.4979 -0.4436  0.8028
26627SOL     OW83378   9.851   0.163   4.749  0.8639  0.6762  0.2911
26627SOL    HW183379   9.931   0.200   4.710  1.7635  0.9910  2.2732
26627SOL    HW283380   9.863   0.178   4.843 -1.0366 -0.3065  0.7157
26628SOL     OW83381   7.639   7.624   8.324 -0.3515  0.2101 -0.3001
26628SOL    HW183382   7.598   7.576   8.396  0.6416 -0.3005 -0.0428
26628SOL    HW283383   7.718   7.662   8.363 -0.7268  1.4158 -0.6987
26629SOL     OW83384   0.658   6.781   6.389  0.0628 -0.2313  0.1671
26629SOL    HW183385   0.727   6.811   6.448  0.0758  0.0853 -0.0052
26629SOL    HW283386   0.684   6.692   6.365  0.6464  0.0485 -0.2562
26630SOL     OW83387   5.927   5.149   0.344  0.2652  0.0555  0.3010
26630SOL    HW183388   6.000   5.091   0.368  0.7484  0.6823  0.3654
26630SOL    HW283389   5.905   5.123   0.254  1.4594  0.7340 -0.2211
26631SOL     OW83390   9.010   3.709   3.169  0.3133 -0.4259  0.1038
26631SOL    HW183391   8.952   3.756   3.110  0.4996  0.3629  0.5351
26631SOL    HW283392   9.070   3.661   3.112  1.2587  1.2628 -0.3716
26632SOL     OW83393   9.697   6.456   5.865  0.5001 -0.2258  0.4550
26632SOL    HW183394   9.766   6.488   5.807 -0.2277 -0.4593 -0.5836
26632SOL    HW283395   9.631   6.525   5.863 -0.7549 -1.3804 -1.2195
26633SOL     OW83396   6.166   5.219   6.614  1.0348 -0.4655  0.3061
26633SOL    HW183397   6.170   5.283   6.543 -2.7405  0.2443  0.5129
26633SOL    HW283398   6.132   5.139   6.572 -0.3964 -0.2982  1.0801
26634SOL     OW83399   7.186   1.929   9.556 -0.1865 -0.8514 -0.0142
26634SOL    HW183400   7.256   1.959   9.498 -0.9381 -0.5855 -0.8208
26634SOL    HW283401   7.108   1.975   9.524 -0.5968 -0.5643  1.3259
26635SOL     OW83402   5.710   7.400   8.588  0.7554  0.2663  0.0633
26635SOL    HW183403   5.636   7.373   8.642  0.2160  1.6945  0.0851
26635SOL    HW283404   5.787   7.363   8.632  0.3907  1.7719  2.1004
26636SOL     OW83405   2.972   2.214  10.115  0.2391 -0.0779  0.0938
26636SOL    HW183406   3.008   2.253  10.194  0.1416  1.8614 -0.7657
26636SOL    HW283407   3.011   2.264  10.043 -1.9612  0.2293 -0.9619
26637SOL     OW83408   3.815   5.222   9.788  0.2700  0.0741 -0.0839
26637SOL    HW183409   3.729   5.182   9.798 -0.0813  0.7193 -0.4770
26637SOL    HW283410   3.875   5.148   9.777  0.2081 -0.5676  2.9953
26638SOL     OW83411   8.733   6.566   2.373 -0.0504  0.1714 -0.0121
26638SOL    HW183412   8.805   6.586   2.314 -0.4503  1.5374 -0.0771
26638SOL    HW283413   8.659   6.616   2.339 -0.7105 -0.2606  0.7425
26639SOL     OW83414   3.771   3.958   9.654 -0.8206  0.5978  0.1200
26639SOL    HW183415   3.729   3.874   9.676  1.1482 -0.3954  0.2967
26639SOL    HW283416   3.821   3.938   9.575  1.2518  1.0378  1.2668
26640SOL     OW83417   1.368   9.838   1.306 -0.1232 -0.5293  0.5722
26640SOL    HW183418   1.291   9.857   1.360  0.0739  2.8849 -0.1039
26640SOL    HW283419   1.333   9.818   1.220 -0.3187  1.3979  0.1678
26641SOL     OW83420   5.690   2.808   0.684 -0.3330 -0.2119 -0.0608
26641SOL    HW183421   5.784   2.811   0.706  0.2836 -0.9042 -2.2792
26641SOL    HW283422   5.651   2.758   0.755  0.7988  0.9095  1.4147
26642SOL     OW83423   0.579   2.438  10.496  0.2747  0.2502  0.0757
26642SOL    HW183424   0.579   2.441  10.592 -0.3175  1.4515  0.0601
26642SOL    HW283425   0.626   2.358  10.474 -0.4153 -0.5450  1.3869
26643SOL     OW83426   5.882   3.700   5.325  0.4462  0.0339  0.3199
26643SOL    HW183427   5.952   3.642   5.295 -0.7183  0.2469 -3.2979
26643SOL    HW283428   5.815   3.642   5.359  0.8188 -0.4351  0.2581
26644SOL     OW83429   7.052   8.046   5.888  0.2473  0.0112 -0.3409
26644SOL    HW183430   7.036   7.952   5.878 -1.2568  0.3602 -1.6781
26644SOL    HW283431   6.965   8.083   5.904  0.7356  1.2380 -0.4521
26645SOL     OW83432   1.945   4.268   8.137 -0.0492 -0.5853 -0.7055
26645SOL    HW183433   1.855   4.253   8.166  0.3286 -1.1907  0.1885
26645SOL    HW283434   1.938   4.339   8.073 -1.4772 -2.2433 -2.5215
26646SOL     OW83435   3.860   0.583   3.732 -0.8155  0.1594  0.1872
26646SOL    HW183436   3.833   0.519   3.666  0.7542  0.7345 -1.0539
26646SOL    HW283437   3.912   0.533   3.795 -2.3954 -0.4085  1.1019
26647SOL     OW83438  10.866   2.025   4.294  0.0568 -0.0889  0.2504
26647SOL    HW183439  10.797   1.971   4.255  0.8555 -1.8175  1.1109
26647SOL    HW283440  10.948   1.989   4.260  0.6012  1.0424  0.3115
26648SOL     OW83441   9.320   8.380   6.420 -0.0573  0.4388  0.2535
26648SOL    HW183442   9.301   8.472   6.440 -0.3105  0.3070  0.6252
26648SOL    HW283443   9.316   8.336   6.504  0.2572  0.1156  0.1031
26649SOL     OW83444   5.105  10.897   4.805  0.0645 -0.2213 -0.6154
26649SOL    HW183445   5.054  10.817   4.795  0.3758 -0.5967  0.5899
26649SOL    HW283446   5.181  10.883   4.748  1.6882 -2.1761  1.8093
26650SOL     OW83447   5.844   8.858   2.074  0.2114 -0.0600  0.4678
26650SOL    HW183448   5.843   8.812   2.158 -1.5611 -0.3937  0.3165
26650SOL    HW283449   5.903   8.931   2.087  0.2794 -0.3380  1.8884
26651SOL     OW83450   1.652   2.744  10.653 -0.1294 -0.5382 -0.4047
26651SOL    HW183451   1.567   2.786  10.643 -1.0618 -2.3824 -0.6157
26651SOL    HW283452   1.640   2.683  10.725  1.0390 -0.8174 -0.4250
26652SOL     OW83453   2.810   5.497   4.325  0.9736 -0.4368 -0.2821
26652SOL    HW183454   2.790   5.429   4.390 -0.5590 -0.0742 -0.3399
26652SOL    HW283455   2.745   5.565   4.341  1.0798  0.0169 -1.6810
26653SOL     OW83456   5.707   6.940   2.505  0.0747  0.0006  0.2451
26653SOL    HW183457   5.767   6.920   2.433 -0.7034 -0.1106 -0.3836
26653SOL    HW283458   5.711   6.863   2.562 -3.6531 -2.7639 -2.6499
26654SOL     OW83459   5.789  10.066   8.264  0.1109 -0.0286 -0.3532
26654SOL    HW183460   5.745  10.094   8.344 -2.2077 -0.3979 -1.4079
26654SOL    HW283461   5.811   9.974   8.279  0.4054  0.1193  0.1327
26655SOL     OW83462  10.808   0.519   2.581  0.1825 -0.2366  0.2770
26655SOL    HW183463  10.727   0.556   2.615  1.3204  3.9541 -0.8996
26655SOL    HW283464  10.840   0.463   2.651 -2.8562 -0.7345  1.4293
26656SOL     OW83465   0.627   2.899  10.628  0.2623 -0.1107  0.7056
26656SOL    HW183466   0.607   2.992  10.634 -2.7537 -0.5583 -0.3907
26656SOL    HW283467   0.646   2.873  10.718  1.4445  1.5602  0.9882
26657SOL     OW83468   4.787   2.416   5.453 -0.0792 -0.2923 -0.1822
26657SOL    HW183469   4.818   2.414   5.544 -1.0531  2.5966  0.2844
26657SOL    HW283470   4.730   2.339   5.446  1.4422 -1.6223  1.0340
26658SOL     OW83471  10.876   6.543   7.550  0.3419  0.7832 -0.1338
26658SOL    HW183472  10.827   6.614   7.508  0.8798  2.5388  1.9729
26658SOL    HW283473  10.900   6.579   7.636  2.4320 -1.2285  0.2245
26659SOL     OW83474   3.230   4.618   3.724 -0.0675 -0.4876 -0.4318
26659SOL    HW183475   3.274   4.702   3.713 -0.6806 -0.2716 -1.2452
26659SOL    HW283476   3.225   4.607   3.819 -1.5291  1.2294 -0.2513
26660SOL     OW83477  10.092   6.434   8.273 -0.4516 -0.2559  0.3292
26660SOL    HW183478  10.021   6.392   8.322  0.3419 -0.0324  1.7327
26660SOL    HW283479  10.080   6.528   8.290  1.5255 -0.3226  2.6243
26661SOL     OW83480   6.631   8.931   1.294 -0.2040  0.2427 -1.0606
26661SOL    HW183481   6.587   9.001   1.246  1.0308  0.5737 -1.7588
26661SOL    HW283482   6.565   8.862   1.301 -0.8808  0.7764 -1.9378
26662SOL     OW83483   6.834   7.902   0.557  0.2552  0.0831 -0.6918
26662SOL    HW183484   6.861   7.940   0.641  1.1693 -2.1903  0.1394
26662SOL    HW283485   6.915   7.895   0.507  0.5092 -2.2905 -0.0999
26663SOL     OW83486   5.796   0.132   7.686 -0.3311  0.7171 -0.0469
26663SOL    HW183487   5.802   0.037   7.686 -0.0313  0.7226 -1.0653
26663SOL    HW283488   5.707   0.151   7.716 -1.1078  0.0386 -1.7686
26664SOL     OW83489   4.468   2.391   6.475 -0.1277  0.3042 -0.2532
26664SOL    HW183490   4.468   2.327   6.546  0.1891  1.0420  0.4412
26664SOL    HW283491   4.481   2.340   6.396  1.5254 -0.3872  0.4072
26665SOL     OW83492   6.757   7.435   9.348  0.4200 -0.7966  0.4050
26665SOL    HW183493   6.849   7.459   9.352 -0.2065  2.1195 -0.4724
26665SOL    HW283494   6.738   7.428   9.254 -0.1989 -1.7301  0.5845
26666SOL     OW83495   6.481   5.211   0.451 -0.0148 -0.0883 -0.4081
26666SOL    HW183496   6.465   5.304   0.434  2.4065  0.1851 -1.4919
26666SOL    HW283497   6.497   5.173   0.365  1.6790 -0.9467  0.2483
26667SOL     OW83498   8.637   6.276   4.163  0.4643  0.0705 -0.7645
26667SOL    HW183499   8.602   6.343   4.222  1.8852 -1.6019  2.1746
26667SOL    HW283500   8.634   6.317   4.076 -3.7476  1.8932 -0.0326
26668SOL     OW83501   5.637   8.846   1.031  0.2357  0.1912 -0.6297
26668SOL    HW183502   5.616   8.755   1.055  0.2673  0.5718  0.9267
26668SOL    HW283503   5.662   8.840   0.939 -0.2577 -1.3018 -0.7114
26669SOL     OW83504   9.209   4.207   9.366 -0.3181  0.2672  0.7280
26669SOL    HW183505   9.142   4.139   9.372 -0.3925  0.1146 -1.2550
26669SOL    HW283506   9.292   4.159   9.364 -0.4090  0.1258 -1.5482
26670SOL     OW83507   0.760   5.845   5.272 -0.6576 -0.4057  0.4506
26670SOL    HW183508   0.854   5.828   5.272 -0.8271 -1.5341  1.9633
26670SOL    HW283509   0.750   5.927   5.320 -0.2796  1.3296 -2.1970
26671SOL     OW83510   2.195  10.311   4.204  0.1561 -0.2089 -0.2083
26671SOL    HW183511   2.269  10.322   4.264 -1.0799  0.7413  1.2511
26671SOL    HW283512   2.118  10.309   4.262 -0.8612 -2.9981 -1.5135
26672SOL     OW83513   9.306   4.396   3.903 -0.4987  0.0596 -0.2295
26672SOL    HW183514   9.223   4.349   3.896 -0.1357 -0.7857  0.9591
26672SOL    HW283515   9.297   4.450   3.981  0.0023  0.0845 -0.1833
26673SOL     OW83516   1.520   4.355   6.617  0.1023  0.0611 -0.3791
26673SOL    HW183517   1.510   4.449   6.602  2.1345  0.5893  1.1342
26673SOL    HW283518   1.586   4.327   6.555 -0.3217 -0.3252 -0.6593
26674SOL     OW83519   4.658   8.635   7.788 -0.2248 -0.1694  0.6016
26674SOL    HW183520   4.591   8.650   7.721 -0.8243 -2.9686  0.4658
26674SOL    HW283521   4.737   8.675   7.752 -1.3545  1.6044 -0.0557
26675SOL     OW83522   1.318   4.490   4.717 -0.0308 -0.4738  0.6056
26675SOL    HW183523   1.285   4.412   4.761  1.9271 -1.0554  1.1508
26675SOL    HW283524   1.309   4.560   4.781 -1.6850 -0.2178  0.1548
26676SOL     OW83525   2.010   2.060   9.607 -0.0034 -0.2435 -0.0045
26676SOL    HW183526   2.006   2.149   9.574  0.8804 -0.2322 -0.1008
26676SOL    HW283527   2.049   2.067   9.694  0.2695 -0.5480 -0.0962
26677SOL     OW83528   5.531   0.536   0.455  0.6896 -0.4120 -0.6248
26677SOL    HW183529   5.445   0.563   0.421  1.0714  1.9257  0.0853
26677SOL    HW283530   5.550   0.600   0.524  2.2679 -1.9028  0.3899
26678SOL     OW83531   5.044   0.374   8.437 -0.3855  0.3284  0.1106
26678SOL    HW183532   5.082   0.406   8.519  2.6875  1.6098 -1.6109
26678SOL    HW283533   4.995   0.449   8.402 -0.7193  0.1655  0.2239
26679SOL     OW83534   7.727   5.015   1.280 -0.2208  0.2651 -0.6653
26679SOL    HW183535   7.758   5.080   1.343  1.4748  0.2987 -1.4787
26679SOL    HW283536   7.723   5.062   1.197 -0.3769 -0.3157 -0.9902
26680SOL     OW83537   2.174   6.348   5.515  0.3283  0.0981  0.1564
26680SOL    HW183538   2.093   6.360   5.465  0.3977 -0.7000 -0.1562
26680SOL    HW283539   2.231   6.418   5.484 -1.2649  2.7323  2.6197
26681SOL     OW83540   9.364   3.986   6.091 -0.4600  0.0527  0.4836
26681SOL    HW183541   9.281   3.995   6.138 -0.8258 -2.1699  0.3700
26681SOL    HW283542   9.428   3.968   6.160 -1.0196 -3.3461  0.3064
26682SOL     OW83543   0.087   3.052   5.176  0.0023  0.2147 -0.1014
26682SOL    HW183544  -0.002   3.051   5.139 -0.8324 -2.8217  1.6076
26682SOL    HW283545   0.083   3.118   5.245 -0.5230  0.9465 -0.7984
26683SOL     OW83546   3.219  10.598   3.674  0.4750 -0.2377 -0.2358
26683SOL    HW183547   3.309  10.632   3.665  1.1231 -1.8446 -0.0915
26683SOL    HW283548   3.166  10.658   3.621  1.7195  0.4099 -0.7955
26684SOL     OW83549   3.898   2.999  10.687 -0.7013 -0.1617  0.6061
26684SOL    HW183550   3.868   2.944  10.614  1.9146 -1.2218  0.2281
26684SOL    HW283551   3.818   3.042  10.719 -2.6406 -2.9398 -0.1149
26685SOL     OW83552   8.713   9.128   3.904  0.0832  0.3448 -0.0830
26685SOL    HW183553   8.772   9.180   3.850  0.1527  1.4298  0.9930
26685SOL    HW283554   8.766   9.054   3.934 -0.2783 -0.9693 -2.4057
26686SOL     OW83555   3.995   7.661   9.988 -0.2100  0.2710 -0.2783
26686SOL    HW183556   3.987   7.570   9.958 -0.0521 -0.1254  0.8298
26686SOL    HW283557   4.061   7.699   9.931  0.2499 -0.5252 -0.2962
26687SOL     OW83558   5.096   4.132   7.183  0.0599 -0.3252 -0.1019
26687SOL    HW183559   5.001   4.137   7.174  0.1398  2.2842 -0.3093
26687SOL    HW283560   5.123   4.068   7.117 -1.5381 -1.1737  0.0233
26688SOL     OW83561   3.532   5.395   9.225  0.1752  0.3614 -0.1726
26688SOL    HW183562   3.440   5.374   9.237  0.6163 -2.1130 -0.5972
26688SOL    HW283563   3.543   5.408   9.131  0.8511 -3.0527 -0.6740
26689SOL     OW83564  10.832   9.977   1.352  0.4676  0.2804  0.0142
26689SOL    HW183565  10.844   9.937   1.266 -1.1331  0.9699 -0.5651
26689SOL    HW283566  10.744   9.949   1.379 -0.0393  2.0498  0.3020
26690SOL     OW83567   0.136   9.293   7.939 -0.5450 -0.2113  0.2797
26690SOL    HW183568   0.202   9.283   7.871  2.3537 -1.1543  2.9770
26690SOL    HW283569   0.053   9.283   7.893  1.2083 -1.5780 -2.9573
26691SOL     OW83570   0.707   0.041   2.659  0.3188 -0.4520 -0.3316
26691SOL    HW183571   0.701   0.108   2.591 -2.4311 -1.7897 -1.5615
26691SOL    HW283572   0.745  -0.035   2.614 -1.5643 -1.3581 -0.4987
26692SOL     OW83573   4.907   2.706   7.538 -0.2299 -0.1353 -0.4075
26692SOL    HW183574   4.841   2.639   7.521 -0.2734 -0.5788  1.3566
26692SOL    HW283575   4.903   2.763   7.461 -3.2659  0.3173 -0.0316
26693SOL     OW83576  10.084   8.454   2.799 -0.6054 -0.5905 -0.3593
26693SOL    HW183577  10.072   8.391   2.727  0.9187 -0.6457 -0.6143
26693SOL    HW283578  10.140   8.522   2.761  0.7610 -0.9353  0.9260
26694SOL     OW83579   4.055  11.004   5.497  0.1619  0.0653 -0.0720
26694SOL    HW183580   4.117  10.935   5.521  0.4510  0.1327 -0.6130
26694SOL    HW283581   3.969  10.963   5.507  0.3453 -0.5619 -0.9302
26695SOL     OW83582   5.472   9.418   7.683 -0.6178 -0.0639 -0.2392
26695SOL    HW183583   5.416   9.375   7.618 -0.9832  0.3688 -0.2076
26695SOL    HW283584   5.443   9.509   7.684  0.6060  0.3595 -0.7989
26696SOL     OW83585  10.476   4.583   5.296  0.1320  0.1172 -0.0928
26696SOL    HW183586  10.492   4.676   5.278  0.0903  0.3055  0.7616
26696SOL    HW283587  10.397   4.562   5.247 -0.9748  1.0586  1.1995
26697SOL     OW83588   8.803   9.753   7.316  0.5646  0.0822 -0.3160
26697SOL    HW183589   8.727   9.805   7.292  0.8309  1.0960  0.9456
26697SOL    HW283590   8.876   9.815   7.318  1.0724 -0.5100  0.2533
26698SOL     OW83591   1.645   4.655   1.627  0.3795  0.4803  0.4182
26698SOL    HW183592   1.589   4.642   1.551  1.1258  1.6273 -0.3500
26698SOL    HW283593   1.697   4.732   1.606  1.8269 -0.1977  1.3684
26699SOL     OW83594   5.539   7.735   9.549 -0.2767  0.2516 -0.3135
26699SOL    HW183595   5.579   7.686   9.478  1.2676 -0.7243  1.1589
26699SOL    HW283596   5.608   7.746   9.614 -1.3715  1.9188  0.6668
26700SOL     OW83597   8.056   1.786   2.479  0.1198  0.6291  0.4386
26700SOL    HW183598   8.063   1.771   2.385  1.6444 -0.6931  0.7201
26700SOL    HW283599   8.141   1.759   2.514 -1.1331 -1.0415  2.4563
26701SOL     OW83600   3.858   5.655   2.111 -0.2962  0.0136 -0.0677
26701SOL    HW183601   3.856   5.669   2.016  1.8430  0.7168 -0.0514
26701SOL    HW283602   3.941   5.692   2.139 -0.3123 -1.3108  1.9241
26702SOL     OW83603   1.879   4.146   0.847  0.2194  0.2128 -0.5544
26702SOL    HW183604   1.789   4.118   0.832  0.1104  1.4960 -2.8292
26702SOL    HW283605   1.872   4.229   0.894  0.2246  0.1883 -0.5106
26703SOL     OW83606   4.289   0.394   5.306 -0.2972  0.3080  0.3792
26703SOL    HW183607   4.332   0.470   5.344 -0.1847  0.9165 -0.9027
26703SOL    HW283608   4.208   0.429   5.269 -0.8769 -0.4441  0.9186
26704SOL     OW83609  10.598   5.999   2.686  0.2269 -0.1941  0.2138
26704SOL    HW183610  10.680   6.040   2.714 -0.6044  1.9424 -0.2707
26704SOL    HW283611  10.583   6.033   2.598 -0.2554 -2.0486 -0.4511
26705SOL     OW83612   3.782   9.749   8.820  0.1259 -0.9897  0.2154
26705SOL    HW183613   3.860   9.781   8.865 -1.2718  0.4635  1.7082
26705SOL    HW283614   3.780   9.796   8.737 -0.5840  1.0842  1.3464
26706SOL     OW83615   2.836   7.247   5.639  0.0366 -0.3196  0.4892
26706SOL    HW183616   2.792   7.203   5.566 -0.9103  1.4673 -0.0672
26706SOL    HW283617   2.778   7.235   5.714 -1.3305  1.7298 -0.1609
26707SOL     OW83618   3.507   2.595   2.954 -0.4163 -0.2775 -0.0199
26707SOL    HW183619   3.451   2.669   2.976 -0.2876 -0.0353 -0.5003
26707SOL    HW283620   3.449   2.518   2.964 -0.2622 -0.2261  1.5099
26708SOL     OW83621   9.670   0.279   0.315 -0.3373  0.6581  0.0794
26708SOL    HW183622   9.645   0.255   0.405  1.4149  2.1134  1.0161
26708SOL    HW283623   9.734   0.214   0.290  1.8350  2.1740  1.3160
26709SOL     OW83624   7.544   3.352   6.985  0.5640  0.2054 -0.3987
26709SOL    HW183625   7.525   3.259   6.980  2.3064 -0.1282 -2.6865
26709SOL    HW283626   7.570   3.367   7.076 -0.3978 -1.3831  0.1623
26710SOL     OW83627   3.300   7.173   0.066  0.0565 -0.2898 -0.4035
26710SOL    HW183628   3.336   7.254   0.101 -1.0914  0.4108 -0.7685
26710SOL    HW283629   3.290   7.116   0.142  0.5664  0.0324 -0.0917
26711SOL     OW83630   9.714   1.471   7.006  0.1799 -0.3299 -0.0659
26711SOL    HW183631   9.753   1.496   6.922  3.0145 -0.2799  1.1478
26711SOL    HW283632   9.694   1.554   7.049  2.2362 -0.2055  0.7607
26712SOL     OW83633   3.805   0.949   0.500  0.0659 -0.2889 -0.4319
26712SOL    HW183634   3.891   0.934   0.540  1.1265 -0.0194 -2.4819
26712SOL    HW283635   3.743   0.923   0.568  1.7454 -0.1894  1.2334
26713SOL     OW83636   0.909   5.988   9.007 -0.3011 -0.1475 -0.2340
26713SOL    HW183637   0.921   6.052   8.938 -0.3011 -0.0042 -0.1010
26713SOL    HW283638   0.814   5.987   9.023 -0.2738 -0.0036 -0.0671
26714SOL     OW83639   8.655   2.257   1.295  0.3250 -0.5609  0.2753
26714SOL    HW183640   8.665   2.196   1.368 -0.0668 -0.4453  0.4263
26714SOL    HW283641   8.729   2.318   1.304  1.9779 -2.2449 -1.1025
26715SOL     OW83642   2.476   0.435   7.385 -0.0641  0.1770  0.0443
26715SOL    HW183643   2.514   0.488   7.455  1.4758 -0.8613  0.0402
26715SOL    HW283644   2.534   0.450   7.310  0.1487 -1.1377 -0.0798
26716SOL     OW83645  10.201   1.858   9.581 -0.3697 -0.1721  0.1769
26716SOL    HW183646  10.174   1.942   9.619 -1.9738 -1.6893  2.6899
26716SOL    HW283647  10.120   1.819   9.549  0.5417 -0.2864 -2.2102
26717SOL     OW83648   3.616   6.824  10.237 -0.0547  0.3078  0.1262
26717SOL    HW183649   3.658   6.871  10.165  0.5088  0.4236  0.5282
26717SOL    HW283650   3.534   6.873  10.252 -1.0039 -0.6935 -1.5214
26718SOL     OW83651   0.214   8.956   3.739  0.5271 -0.5837 -0.1488
26718SOL    HW183652   0.161   8.989   3.666 -2.0990 -1.5680  1.1870
26718SOL    HW283653   0.244   9.035   3.785  0.3909  0.0065 -1.0449
26719SOL     OW83654   2.640   8.980   9.040 -0.2222  0.2903 -0.2804
26719SOL    HW183655   2.642   8.953   8.948 -0.0003  1.7539 -0.7398
26719SOL    HW283656   2.570   9.045   9.044  0.7366  1.3120  0.2586
26720SOL     OW83657  10.753   0.493   3.219 -0.6964  0.2501  0.1139
26720SOL    HW183658  10.790   0.538   3.296  0.9634 -0.7795 -0.0321
26720SOL    HW283659  10.666   0.531   3.209 -1.5555 -0.5388  3.3544
26721SOL     OW83660   4.409   4.283  10.621  0.0876  0.2448 -0.2100
26721SOL    HW183661   4.338   4.259  10.561  1.6137  0.9458 -2.4215
26721SOL    HW283662   4.401   4.378  10.632 -1.0104 -0.0305  1.9209
26722SOL     OW83663   9.486   9.331   6.565  0.6469 -0.5339  0.1310
26722SOL    HW183664   9.531   9.284   6.635 -0.6334 -0.5744  0.9565
26722SOL    HW283665   9.420   9.270   6.532 -1.5335  0.8163  1.7038
26723SOL     OW83666   5.154   2.392   8.778 -0.7800  0.0796 -0.6563
26723SOL    HW183667   5.198   2.309   8.765 -2.7005 -1.0395 -0.3730
26723SOL    HW283668   5.187   2.449   8.709  1.2957 -0.5714 -0.2505
26724SOL     OW83669   4.293   5.984   2.453 -0.6881  0.0993 -0.3728
26724SOL    HW183670   4.275   5.891   2.437  0.3613 -0.3380  0.7325
26724SOL    HW283671   4.296   6.023   2.366  1.2975 -1.4210 -1.0779
26725SOL     OW83672   4.666   2.701   4.886 -0.1965  0.2768 -0.2402
26725SOL    HW183673   4.737   2.719   4.824  0.4018 -1.1838 -0.0135
26725SOL    HW283674   4.587   2.729   4.840  0.4068  0.7985 -0.9822
26726SOL     OW83675   3.284   0.078   8.574 -0.1896  0.0326  0.7192
26726SOL    HW183676   3.307   0.144   8.639  1.2681  2.1734 -1.7426
26726SOL    HW283677   3.198   0.104   8.542 -0.0605  0.1580  0.4654
26727SOL     OW83678   6.737   8.028   8.188  0.6783  0.0775  0.8210
26727SOL    HW183679   6.650   7.990   8.187  0.1470  1.1777  2.2250
26727SOL    HW283680   6.755   8.046   8.280  3.1802 -1.8138  0.8114
26728SOL     OW83681   9.755   7.259   1.912  0.2835 -0.4167  0.6200
26728SOL    HW183682   9.703   7.276   1.833  0.0924 -0.8173  0.6546
26728SOL    HW283683   9.692   7.267   1.984  0.3283 -0.6388  0.6844
26729SOL     OW83684   9.450   0.870   4.084  0.2888  0.6058  0.2245
26729SOL    HW183685   9.480   0.862   3.993 -1.9436 -0.5626 -0.4890
26729SOL    HW283686   9.505   0.809   4.133  0.7266  0.3412 -0.5717
26730SOL     OW83687   9.401   7.002   4.766  0.2371 -0.2255  0.1377
26730SOL    HW183688   9.436   7.016   4.854  0.6898  0.7804 -0.1852
26730SOL    HW283689   9.420   6.911   4.747  0.3250 -0.4002  1.0018
26731SOL     OW83690   4.027   3.988   6.117  0.0325  0.0645  0.0363
26731SOL    HW183691   4.015   3.974   6.023 -1.3358 -0.0196  0.2108
26731SOL    HW283692   4.047   3.901   6.151  0.3935  0.0720 -0.1439
26732SOL     OW83693   0.928  10.044   9.708 -0.3605 -0.7609 -0.1092
26732SOL    HW183694   0.949  10.009   9.795 -0.4337 -0.9227 -0.1557
26732SOL    HW283695   0.945   9.972   9.648  0.0182 -0.5372 -0.2682
26733SOL     OW83696   9.244   6.421   4.550  0.3425 -0.0630 -0.2371
26733SOL    HW183697   9.320   6.451   4.500  0.1027  0.8489 -0.0735
26733SOL    HW283698   9.169   6.459   4.504 -0.0940 -1.7028 -0.9364
26734SOL     OW83699   8.484   7.897   8.631  0.0812  0.4456 -0.0418
26734SOL    HW183700   8.512   7.817   8.675  3.7010  1.0644 -0.8441
26734SOL    HW283701   8.390   7.887   8.619  0.3034 -3.5327  0.2133
26735SOL     OW83702   2.721   9.250   6.360 -0.2558 -0.1362 -0.4861
26735SOL    HW183703   2.718   9.203   6.443 -0.1608  0.4193 -0.1616
26735SOL    HW283704   2.665   9.327   6.374 -1.4954 -0.8321 -1.4477
26736SOL     OW83705   6.684   9.515   7.538 -0.0078  0.2335  0.0028
26736SOL    HW183706   6.685   9.473   7.624  0.9405 -0.0085 -0.1122
26736SOL    HW283707   6.745   9.462   7.485  1.4219  1.8674 -0.0681
26737SOL     OW83708   8.063   0.360   5.685 -0.3194 -0.3100  0.2726
26737SOL    HW183709   8.016   0.402   5.613  0.7695  2.8005  1.2492
26737SOL    HW283710   8.122   0.426   5.718 -0.6323 -1.6195  3.9561
26738SOL     OW83711   5.486   3.666   5.444 -0.3269  0.8365  0.3057
26738SOL    HW183712   5.431   3.620   5.507 -0.4863 -0.1549 -0.5379
26738SOL    HW283713   5.561   3.607   5.430  0.4642  1.7230  0.6995
26739SOL     OW83714   8.993  10.708   0.223 -0.2823 -0.1076  0.6932
26739SOL    HW183715   8.982  10.735   0.314 -0.9157 -0.1144  0.6203
26739SOL    HW283716   9.055  10.635   0.227  1.5628  1.4005  0.8704
26740SOL     OW83717   1.851   2.731   1.692 -0.0267 -0.0381 -0.2467
26740SOL    HW183718   1.882   2.819   1.671  1.1012 -0.5572 -0.9209
26740SOL    HW283719   1.807   2.739   1.776 -1.0666  1.3981 -0.9036
26741SOL     OW83720   9.342  10.210   5.606 -0.6868 -0.3726  0.4610
26741SOL    HW183721   9.402  10.284   5.591 -2.0711  0.7170  0.0632
26741SOL    HW283722   9.269  10.249   5.655 -0.8837 -1.7584  1.3274
26742SOL     OW83723   4.230   0.038   9.288  0.0022  0.3699 -0.7018
26742SOL    HW183724   4.287   0.114   9.300 -0.4357  0.6781 -0.5774
26742SOL    HW283725   4.215   0.005   9.377  1.2902 -0.6805 -0.8450
26743SOL     OW83726  11.008   8.448   0.189 -0.2687  0.7796  0.0056
26743SOL    HW183727  11.025   8.357   0.163 -1.6462  0.2992  0.6610
26743SOL    HW283728  10.995   8.443   0.284 -1.9530  1.3680 -0.1617
26744SOL     OW83729   5.858   9.047   4.864 -0.2039 -0.1337 -0.6491
26744SOL    HW183730   5.873   8.977   4.927 -3.1643 -0.5969 -0.3287
26744SOL    HW283731   5.943   9.059   4.822  0.9879 -2.2738  0.9224
26745SOL     OW83732   9.769   8.712   4.951  0.2040  0.0707 -0.0002
26745SOL    HW183733   9.757   8.779   4.884 -0.3067  0.0837  0.1006
26745SOL    HW283734   9.803   8.636   4.904  0.8109  0.4084 -0.1090
26746SOL     OW83735   4.645   7.262   0.977 -0.0804  0.0039  0.2331
26746SOL    HW183736   4.667   7.198   0.909 -0.5879  0.5872 -0.4966
26746SOL    HW283737   4.634   7.345   0.929 -1.3554  0.2316  0.8850
26747SOL     OW83738   9.724   7.959   5.428  0.0581 -0.2723  0.0308
26747SOL    HW183739   9.805   7.914   5.455 -1.3066 -1.9070  1.6777
26747SOL    HW283740   9.663   7.943   5.500 -1.2585  2.3368 -0.4102
26748SOL     OW83741   3.903  10.137   7.425  0.4167  0.5248  0.1808
26748SOL    HW183742   3.904  10.151   7.331  0.5955 -1.1912 -0.1066
26748SOL    HW283743   3.981  10.181   7.457 -0.7512  2.9768 -0.1306
26749SOL     OW83744   2.689   9.386   2.877 -0.1585 -0.0190  0.4163
26749SOL    HW183745   2.725   9.356   2.961  0.8690  0.1521  0.0580
26749SOL    HW283746   2.639   9.311   2.845  2.2741 -1.4156 -0.4068
26750SOL     OW83747   3.243  10.014   5.302  0.1017  0.3178 -0.5076
26750SOL    HW183748   3.329  10.053   5.316  0.4318 -0.3458 -0.6470
26750SOL    HW283749   3.260   9.920   5.292 -0.6582  0.1514 -0.3354
26751SOL     OW83750   7.994   1.244   2.079  0.3065  0.2506  0.0892
26751SOL    HW183751   8.046   1.273   2.004 -0.2250  3.2829  0.7595
26751SOL    HW283752   7.916   1.299   2.078 -0.4091 -0.6199  2.0625
26752SOL     OW83753   4.842   0.876   2.164 -0.2217  0.2091 -0.3110
26752SOL    HW183754   4.922   0.848   2.119 -0.8476  2.2772 -2.9038
26752SOL    HW283755   4.870   0.892   2.254  1.4548 -2.4504 -0.2336
26753SOL     OW83756   3.591   8.945   7.359 -0.1988 -0.1445  0.3123
26753SOL    HW183757   3.673   8.896   7.372  0.6365  0.2497 -2.6564
26753SOL    HW283758   3.617   9.037   7.366  0.2008  0.0742 -2.7709
26754SOL     OW83759   0.232   2.051   3.707  0.1165  0.1208  0.0055
26754SOL    HW183760   0.138   2.033   3.700  0.2118 -0.1699 -0.6350
26754SOL    HW283761   0.269   2.018   3.625  0.5230  1.8660 -0.5600
26755SOL     OW83762   9.952  10.243   1.958 -0.3071  0.0013  0.2653
26755SOL    HW183763   9.973  10.297   1.882 -1.6437  3.1937  1.9866
26755SOL    HW283764   9.859  10.222   1.947 -0.4100  0.1577  0.8084
26756SOL     OW83765   3.392  10.443   8.089  0.2978 -0.6562  0.4981
26756SOL    HW183766   3.408  10.350   8.107 -0.8397 -0.9794 -0.0383
26756SOL    HW283767   3.369  10.445   7.996  1.6969  0.3630  0.1422
26757SOL     OW83768   5.323   7.756   6.102  0.4090  0.1785  0.2013
26757SOL    HW183769   5.326   7.737   6.195 -0.2547 -0.2962  0.1303
26757SOL    HW283770   5.231   7.746   6.078  0.0504  2.9572  0.0538
26758SOL     OW83771   6.245   2.997   9.283 -0.4796 -0.2073  0.1789
26758SOL    HW183772   6.304   3.071   9.296 -1.7328  0.9357 -0.3755
26758SOL    HW283773   6.274   2.931   9.346  0.7186  0.7215  0.6253
26759SOL     OW83774   9.410   7.933   7.438  0.3885 -0.4607  0.3946
26759SOL    HW183775   9.360   7.852   7.439 -0.4478 -0.0413 -1.7551
26759SOL    HW283776   9.344   8.003   7.437  1.0639  0.2001  0.5903
26760SOL     OW83777   9.352   2.678   6.419 -0.1813  0.4948  0.5251
26760SOL    HW183778   9.349   2.601   6.362 -0.8388  1.7492 -1.2290
26760SOL    HW283779   9.302   2.652   6.496 -2.2049 -0.2136 -0.9129
26761SOL     OW83780   1.391   5.189   3.442  0.3258 -0.5451  0.2513
26761SOL    HW183781   1.382   5.183   3.537 -1.6809 -0.0860  0.1410
26761SOL    HW283782   1.398   5.098   3.413 -0.8432 -0.8133  0.7354
26762SOL     OW83783   0.986   3.163   6.579  0.4527 -0.4065  0.1856
26762SOL    HW183784   0.930   3.195   6.650  0.9257  3.1101 -0.8369
26762SOL    HW283785   0.938   3.184   6.499  0.2988 -3.5513 -0.6735
26763SOL     OW83786   9.332   8.372   4.886  0.6252 -0.0330  0.2732
26763SOL    HW183787   9.416   8.390   4.929 -0.4361  2.6349  1.4485
26763SOL    HW283788   9.356   8.333   4.802  2.9058 -1.8389  1.6463
26764SOL     OW83789   0.469   2.186   9.805 -0.2302  0.1701  0.9225
26764SOL    HW183790   0.387   2.208   9.850 -0.9233  0.3904 -0.4185
26764SOL    HW283791   0.480   2.092   9.821 -0.5690  0.2063  1.3993
26765SOL     OW83792   3.238   0.934   2.123 -0.5371  0.0624  0.4194
26765SOL    HW183793   3.296   0.904   2.193 -1.0739 -0.0389  0.8292
26765SOL    HW283794   3.154   0.949   2.166 -0.3915  1.7963  0.1524
26766SOL     OW83795   2.428   4.127   6.041  0.5587  0.5135  0.9699
26766SOL    HW183796   2.408   4.116   5.948 -0.6559  0.8739  1.1676
26766SOL    HW283797   2.467   4.043   6.067 -1.9558 -0.8004  0.8287
26767SOL     OW83798   5.547   5.285   4.158 -0.7795  0.0023 -0.6722
26767SOL    HW183799   5.527   5.313   4.068  1.4692  0.4241 -1.0966
26767SOL    HW283800   5.626   5.232   4.149  1.0983  2.2673  1.3041
26768SOL     OW83801   3.475   8.435   8.327  0.6292 -0.2591  0.3124
26768SOL    HW183802   3.541   8.404   8.265  0.9063 -1.2070  1.0509
26768SOL    HW283803   3.399   8.380   8.312  0.1759  0.4762 -0.1667
26769SOL     OW83804  10.245   4.710   9.035  0.4532  0.2010 -0.1332
26769SOL    HW183805  10.334   4.736   9.014  0.1245  2.1650  0.6840
26769SOL    HW283806  10.253   4.623   9.073  2.0450  0.4282  0.1088
26770SOL     OW83807   0.774   5.891   1.360  0.8738 -0.0935 -0.4046
26770SOL    HW183808   0.723   5.961   1.402  0.0235 -0.2581 -1.1405
26770SOL    HW283809   0.854   5.885   1.413  0.2600  0.3647  0.6090
26771SOL     OW83810   3.448   2.682   5.660  0.1061 -0.3691 -0.2402
26771SOL    HW183811   3.378   2.739   5.692  1.1246  0.5507  0.4408
26771SOL    HW283812   3.477   2.724   5.579  2.4744  1.5551  1.4657
26772SOL     OW83813   9.984   1.188   2.067  0.6056  0.1995  0.0995
26772SOL    HW183814  10.063   1.184   2.121  2.0761  1.0062 -1.8852
26772SOL    HW283815  10.016   1.207   1.979 -1.6763 -1.1883 -1.1325
26773SOL     OW83816   7.841   2.999   9.185  0.4522  0.2605 -0.0143
26773SOL    HW183817   7.881   3.070   9.136  0.3344  0.1738 -0.2338
26773SOL    HW283818   7.915   2.956   9.230  0.3719  1.4267  1.3112
26774SOL     OW83819   2.957   0.351   4.577  0.6174 -0.0240  0.4596
26774SOL    HW183820   2.885   0.356   4.640  1.5648 -1.0286  1.6739
26774SOL    HW283821   2.915   0.363   4.492 -1.1417 -1.4265  1.0543
26775SOL     OW83822   3.634   7.303  10.664 -0.0944 -0.2982 -0.1097
26775SOL    HW183823   3.711   7.247  10.661 -0.1704 -0.4664  0.8452
26775SOL    HW283824   3.625   7.336  10.575  2.3162  1.3879  0.1528
26776SOL     OW83825   0.624   6.319   4.279  0.0878  0.0825  0.1376
26776SOL    HW183826   0.551   6.258   4.268  0.3416 -0.0257 -1.1408
26776SOL    HW283827   0.647   6.345   4.190 -0.9769  3.2531  0.6678
26777SOL     OW83828   6.079  10.938   5.017 -0.3031  0.0416 -0.0526
26777SOL    HW183829   6.171  10.913   5.018  0.2433  1.8888  0.2647
26777SOL    HW283830   6.068  10.987   4.935 -0.6121  1.0521  0.5614
26778SOL     OW83831   3.138   4.444   4.342  0.5843  0.1464 -0.0828
26778SOL    HW183832   3.197   4.518   4.354  0.2127  0.4590 -0.1524
26778SOL    HW283833   3.192   4.367   4.359  1.4531  0.3369 -1.8156
26779SOL     OW83834   8.159   5.894   3.767 -0.3987  0.1094  1.1450
26779SOL    HW183835   8.065   5.877   3.765 -0.2298 -1.1580 -1.5847
26779SOL    HW283836   8.199   5.810   3.744  1.2476  1.1432 -0.0321
26780SOL     OW83837   5.875   0.877   0.488  0.5614  0.2952  0.3263
26780SOL    HW183838   5.866   0.883   0.393  1.5044 -0.7785  0.1424
26780SOL    HW283839   5.852   0.787   0.509 -2.5834  1.2599  1.5450
26781SOL     OW83840   6.025   9.550  10.427 -0.4708 -0.2032 -0.1136
26781SOL    HW183841   5.932   9.538  10.447 -0.1539 -1.2660  0.7724
26781SOL    HW283842   6.053   9.467  10.388  0.0206  0.2456 -0.7457
26782SOL     OW83843   1.720   3.661   2.774 -0.0069  0.4102  0.5087
26782SOL    HW183844   1.743   3.745   2.814 -2.2183  1.5390 -0.3931
26782SOL    HW283845   1.724   3.678   2.680 -0.2747 -0.5517  0.3108
26783SOL     OW83846   4.776   3.571   8.387  0.4996  0.1602  0.0978
26783SOL    HW183847   4.692   3.531   8.365  0.4277  0.4303 -0.1241
26783SOL    HW283848   4.831   3.555   8.310  0.0793  1.5827 -0.5143
26784SOL     OW83849   6.148   7.313   0.656 -0.0251 -0.4693 -0.1879
26784SOL    HW183850   6.164   7.221   0.635 -0.7262 -0.4362 -0.9241
26784SOL    HW283851   6.058   7.315   0.689  0.4361 -0.2368  1.1355
26785SOL     OW83852   3.838   1.763   3.823  0.2288  0.6291 -0.3136
26785SOL    HW183853   3.933   1.767   3.814  0.1201  2.4912 -0.9748
26785SOL    HW283854   3.818   1.669   3.822  1.9468  0.2262 -1.3762
26786SOL     OW83855   3.070   9.582   3.199 -0.5623 -0.0017 -0.0126
26786SOL    HW183856   3.109   9.497   3.217  0.6676  0.9352  2.1804
26786SOL    HW283857   2.980   9.574   3.230  0.1855  0.1039  2.4207
26787SOL     OW83858   6.531   2.830   3.611  0.3039 -0.0289  0.2754
26787SOL    HW183859   6.597   2.877   3.560  0.9981  0.9623  2.0163
26787SOL    HW283860   6.572   2.817   3.696 -0.6350 -2.0870  0.4715
26788SOL     OW83861   7.830  10.326  10.894  0.3723  0.1693  0.3702
26788SOL    HW183862   7.738  10.303  10.907  0.6319 -1.2054 -0.0879
26788SOL    HW283863   7.830  10.382  10.817 -0.4018  2.8698  2.1559
26789SOL     OW83864   4.452   8.588   2.558  0.0678  0.1528 -0.6380
26789SOL    HW183865   4.454   8.505   2.510  1.9248 -0.0173 -0.3550
26789SOL    HW283866   4.439   8.655   2.492  1.8131 -0.1359 -1.3056
26790SOL     OW83867  10.769   0.682  10.852  0.4945  0.5381  0.3299
26790SOL    HW183868  10.720   0.600  10.865  0.0897  0.7003 -0.1220
26790SOL    HW283869  10.702   0.750  10.855  0.5614  0.7031 -1.0999
26791SOL     OW83870   4.965   9.896   1.684 -0.2084 -0.0303  0.0250
26791SOL    HW183871   4.913   9.900   1.604  0.3222  0.6025 -0.2990
26791SOL    HW283872   4.942   9.977   1.730  0.2516  0.0984  0.0290
26792SOL     OW83873   5.253   5.294   6.462  0.4363  0.0626 -0.1812
26792SOL    HW183874   5.312   5.369   6.476  1.4255 -0.6339 -0.4734
26792SOL    HW283875   5.168   5.334   6.442  0.6580  1.0922  0.8301
26793SOL     OW83876   0.680   8.438   0.936  0.3755 -0.1715 -0.0231
26793SOL    HW183877   0.594   8.481   0.937  0.3889 -0.0813  2.0716
26793SOL    HW283878   0.701   8.429   0.843 -0.3371  2.9223 -0.6071
26794SOL     OW83879   5.903  10.984   7.122  0.1019  0.2600 -0.2377
26794SOL    HW183880   5.959  10.925   7.172  0.0580  0.4202 -0.0005
26794SOL    HW283881   5.832  11.007   7.182 -1.6436 -1.9353 -1.3198
26795SOL     OW83882   8.805   9.568   2.252 -0.1974  0.5258  0.2567
26795SOL    HW183883   8.784   9.599   2.340 -1.4813 -0.1460  0.2116
26795SOL    HW283884   8.721   9.569   2.206  0.3191  0.0995 -0.7126
26796SOL     OW83885   6.011   1.841   5.255  0.4446  0.8842 -0.2106
26796SOL    HW183886   6.096   1.879   5.231 -0.2740  1.8457 -1.3920
26796SOL    HW283887   5.950   1.915   5.248 -0.5551  0.1080  0.1960
26797SOL     OW83888   5.140   7.019   0.535  0.0268 -0.4044 -0.2296
26797SOL    HW183889   5.088   6.987   0.462  0.5715 -2.2546  0.1309
26797SOL    HW283890   5.088   7.089   0.574  0.1297  1.2883 -2.8964
26798SOL     OW83891   3.948   7.770   6.889 -0.0822 -0.3581  0.0946
26798SOL    HW183892   4.032   7.810   6.907  0.0673 -1.0599  1.0600
26798SOL    HW283893   3.966   7.705   6.821  0.9905 -3.0882  2.7267
26799SOL     OW83894   7.269   0.054   4.238 -0.3936 -0.2120  0.3918
26799SOL    HW183895   7.174   0.066   4.236 -0.4462 -0.4795 -1.8779
26799SOL    HW283896   7.304   0.129   4.191  0.3436 -1.0701 -0.4909
26800SOL     OW83897   0.887   0.565   3.838  0.8533  0.3370  0.4355
26800SOL    HW183898   0.981   0.565   3.822  0.4533  1.0424 -2.5553
26800SOL    HW283899   0.858   0.652   3.809 -0.8472 -0.2110  0.3799
26801SOL     OW83900  10.261   9.589   3.218  0.0801 -0.2717 -0.2019
26801SOL    HW183901  10.308   9.667   3.247  1.0512 -0.4644 -1.1614
26801SOL    HW283902  10.323   9.545   3.159 -1.5839 -0.1202 -2.1852
26802SOL     OW83903   6.454   2.726   4.685  0.5189  0.0951 -0.3383
26802SOL    HW183904   6.396   2.775   4.626  0.8218  0.8483 -0.0231
26802SOL    HW283905   6.461   2.640   4.645 -0.9816 -0.0812 -0.2847
26803SOL     OW83906   1.631   4.835   5.723  0.2448  0.1730 -0.2257
26803SOL    HW183907   1.646   4.905   5.659 -2.6470  0.9573 -0.2252
26803SOL    HW283908   1.536   4.836   5.736 -0.1747 -4.6003 -1.1589
26804SOL     OW83909   5.425  10.824   1.879 -0.5486 -0.4633 -0.4724
26804SOL    HW183910   5.380  10.842   1.797  0.8979  0.0149 -1.1837
26804SOL    HW283911   5.477  10.746   1.863  0.5491  0.2238 -0.3604
26805SOL     OW83912   5.726   6.283   1.525  0.5233  0.4792 -0.5459
26805SOL    HW183913   5.771   6.216   1.577 -0.3822  0.4652  0.2478
26805SOL    HW283914   5.763   6.365   1.556  0.7995  0.4159 -0.6984
26806SOL     OW83915   6.735   9.653   3.382 -0.3765  0.7180  0.2382
26806SOL    HW183916   6.731   9.595   3.306 -1.5545  2.1904 -0.8734
26806SOL    HW283917   6.826   9.645   3.413  0.0677 -0.0755 -1.1634
26807SOL     OW83918  10.397   9.016   5.068 -0.0675  0.0010 -0.4675
26807SOL    HW183919  10.384   8.982   4.980 -3.1787  2.0100 -0.9434
26807SOL    HW283920  10.310   9.045   5.097  1.0806  0.8141  2.6776
26808SOL     OW83921   6.759   4.832  10.362 -0.0932 -0.3665 -0.4069
26808SOL    HW183922   6.744   4.762  10.299 -0.9186  1.1762 -2.0104
26808SOL    HW283923   6.722   4.910  10.321  2.2048  1.3715  0.5995
26809SOL     OW83924   8.962   0.562   1.669  0.3335  0.1186  0.0925
26809SOL    HW183925   8.925   0.618   1.601  1.0900 -0.5091 -0.8738
26809SOL    HW283926   8.966   0.617   1.747  0.1125  1.0829 -0.5631
26810SOL     OW83927   8.709   8.702  10.692 -0.4024  0.2628 -0.8514
26810SOL    HW183928   8.731   8.741  10.776 -1.0316  1.8792 -1.3951
26810SOL    HW283929   8.613   8.697  10.691 -0.4138  0.4615 -1.5481
26811SOL     OW83930   2.009   3.316   0.428  0.4298  0.0524  0.0316
26811SOL    HW183931   1.950   3.309   0.353 -1.9713 -1.7344  1.9188
26811SOL    HW283932   1.977   3.394   0.475  1.4494  0.7331 -0.3760
26812SOL     OW83933   0.949   1.917  10.090 -0.4945 -0.1527  0.3334
26812SOL    HW183934   1.002   1.906  10.169  0.5108 -1.1776 -0.4559
26812SOL    HW283935   0.960   1.835  10.041  2.1479  1.8142 -2.7675
26813SOL     OW83936   1.110   3.642  10.682  0.1401  0.0167  0.4963
26813SOL    HW183937   1.021   3.675  10.699 -1.0832 -1.6920 -2.0176
26813SOL    HW283938   1.128   3.667  10.592  2.7599  1.2856  1.2659
26814SOL     OW83939   7.523   9.988   7.180  0.4092  1.0887 -0.0940
26814SOL    HW183940   7.451  10.045   7.152 -2.0233 -2.0571 -0.8685
26814SOL    HW283941   7.570   9.968   7.099 -0.4183 -0.0753 -0.3061
26815SOL     OW83942   3.469   8.624   4.929  0.2817 -0.1879 -0.4128
26815SOL    HW183943   3.518   8.648   5.007  1.0596 -0.5784 -0.7693
26815SOL    HW283944   3.390   8.580   4.962  0.4482 -0.0655  0.1511
26816SOL     OW83945   1.094   2.456   7.874 -0.1978  0.1170 -0.7500
26816SOL    HW183946   1.159   2.399   7.916  0.1670 -0.7455 -2.4104
26816SOL    HW283947   1.069   2.517   7.943  2.6169  0.7098 -0.1150
26817SOL     OW83948   3.658  10.683   6.769 -0.3809 -0.1787  0.0052
26817SOL    HW183949   3.750  10.706   6.780  0.1132  0.4347 -3.9375
26817SOL    HW283950   3.611  10.746   6.823  1.4213  2.3982 -1.2478
26818SOL     OW83951   4.939   3.979   5.189  0.2755 -0.7135 -0.6732
26818SOL    HW183952   4.915   3.902   5.138 -0.9625 -0.0608 -1.1036
26818SOL    HW283953   4.907   3.961   5.277  1.1749 -1.2421 -0.4397
26819SOL     OW83954   0.439   3.972   6.506 -0.4599  0.5794  0.3223
26819SOL    HW183955   0.445   3.949   6.413 -0.7303 -2.6315  0.9896
26819SOL    HW283956   0.396   4.058   6.506  0.2351  1.0403 -2.5170
26820SOL     OW83957   6.652   3.153   2.355  0.1925  0.8556 -0.8700
26820SOL    HW183958   6.677   3.074   2.307 -1.2490 -1.3579  1.7224
26820SOL    HW283959   6.731   3.208   2.354  1.3724 -0.7494 -2.4727
26821SOL     OW83960   6.782   7.751   6.229  0.3421  0.6183 -0.4756
26821SOL    HW183961   6.876   7.740   6.219  0.3621  1.4870 -1.3552
26821SOL    HW283962   6.752   7.785   6.145 -1.2760 -2.6940 -1.4316
26822SOL     OW83963   1.532   2.395   1.415 -0.4147  0.9154 -0.1442
26822SOL    HW183964   1.544   2.475   1.466 -0.1878 -0.4699  2.1204
26822SOL    HW283965   1.552   2.324   1.477  1.1534 -0.8890 -2.5321
26823SOL     OW83966   6.678   5.158   6.186  0.9282  0.4341  0.1569
26823SOL    HW183967   6.606   5.211   6.153  0.3251  0.6762  1.7621
26823SOL    HW283968   6.732   5.139   6.109  0.1410  1.7855 -0.7580
26824SOL     OW83969  10.278   5.437   7.869  0.3852  0.8730 -0.1964
26824SOL    HW183970  10.306   5.361   7.819  0.1502  0.1412  0.7492
26824SOL    HW283971  10.276   5.407   7.960 -1.3097  1.5130  0.0267
26825SOL     OW83972   8.095  10.689   2.772  0.6249  0.4730  0.6224
26825SOL    HW183973   8.139  10.620   2.722  0.5922  0.8832  0.0089
26825SOL    HW283974   8.050  10.643   2.843 -1.3420 -0.4660 -1.1012
26826SOL     OW83975   7.118   1.889   3.582  0.0100 -0.2691 -0.3017
26826SOL    HW183976   7.186   1.876   3.516 -0.7413  0.4522 -1.2496
26826SOL    HW283977   7.047   1.830   3.556 -0.1327 -0.2737  0.0912
26827SOL     OW83978   6.520   0.966   7.518 -0.2033 -0.3407 -0.0526
26827SOL    HW183979   6.588   0.933   7.577  0.5153  2.2810  0.7353
26827SOL    HW283980   6.458   1.011   7.576 -0.7560  0.2521 -1.0671
26828SOL     OW83981   6.339   6.298   8.719  0.0951  0.4619 -0.1827
26828SOL    HW183982   6.375   6.362   8.658  1.0590 -0.0458 -0.1733
26828SOL    HW283983   6.331   6.347   8.801 -1.2324  1.1520 -0.6997
26829SOL     OW83984   5.458   7.517   5.233 -0.4039  0.6313 -0.2976
26829SOL    HW183985   5.376   7.526   5.280 -0.3849 -2.0067  0.4095
26829SOL    HW283986   5.495   7.434   5.264  1.0325  0.2005 -2.8290
26830SOL     OW83987   7.554   8.556   9.717 -0.2082 -0.3492 -0.8532
26830SOL    HW183988   7.556   8.568   9.812 -1.4868 -0.7626 -0.7592
26830SOL    HW283989   7.535   8.643   9.683 -1.7006 -0.5595 -0.6069
26831SOL     OW83990   3.653   4.385   5.349 -0.3977 -0.1193  0.1217
26831SOL    HW183991   3.563   4.413   5.330 -0.3359 -1.2995 -2.3547
26831SOL    HW283992   3.651   4.357   5.440 -2.6582 -0.5650 -0.0037
26832SOL     OW83993  10.022   1.451   7.777 -0.3551  0.1276 -0.0302
26832SOL    HW183994  10.060   1.530   7.814 -1.5357  0.2172  1.0556
26832SOL    HW283995  10.081   1.381   7.806  1.3262  0.6688 -1.9293
26833SOL     OW83996   6.224  10.422   3.205  0.2593 -0.6598 -0.0571
26833SOL    HW183997   6.134  10.436   3.176  0.7837  0.5823 -1.1368
26833SOL    HW283998   6.269  10.385   3.129  0.7737 -0.8422  0.3289
26834SOL     OW83999   3.634  10.107   1.825 -0.1054  0.0519  0.0131
26834SOL    HW184000   3.642  10.200   1.846 -0.2989  0.5360 -1.8010
26834SOL    HW284001   3.600  10.066   1.904 -1.6446  1.8249  0.3283
26835SOL     OW84002   0.759   7.963   6.609  0.0343 -0.9591  0.2626
26835SOL    HW184003   0.763   8.040   6.552 -0.6273 -0.3221  1.0329
26835SOL    HW284004   0.791   7.995   6.694  0.1488 -1.6444  0.4797
26836SOL     OW84005   4.030   6.373   2.812  0.8714 -0.5163  0.8391
26836SOL    HW184006   4.092   6.413   2.751 -0.1518  0.2562  0.2774
26836SOL    HW284007   4.049   6.279   2.808  0.6961 -0.5021 -0.8190
26837SOL     OW84008  10.332   9.580   7.030 -0.7231 -0.4885 -0.1367
26837SOL    HW184009  10.289   9.530   6.961  0.1259 -1.8270  0.2646
26837SOL    HW284010  10.381   9.514   7.081  1.1962  0.8521 -0.1390
26838SOL     OW84011   2.206   3.405   9.181  0.2552 -0.3575  0.6284
26838SOL    HW184012   2.236   3.480   9.130  0.2993  0.8649  2.3670
26838SOL    HW284013   2.267   3.335   9.158  0.9623  0.4784 -0.1227
26839SOL     OW84014   1.783   4.301   5.264 -0.7233  0.2081 -0.4368
26839SOL    HW184015   1.730   4.310   5.185  0.3919 -0.1536 -1.2648
26839SOL    HW284016   1.842   4.376   5.261 -0.9028  0.3777  0.2441
26840SOL     OW84017   2.180   4.334   1.663  0.0896 -0.9675  0.2829
26840SOL    HW184018   2.193   4.303   1.573  0.7345  0.2555 -0.0804
26840SOL    HW284019   2.089   4.364   1.664  0.5021  0.4303 -0.4608
26841SOL     OW84020   7.721  10.695   9.559 -0.2085 -0.1928 -0.4847
26841SOL    HW184021   7.725  10.736   9.645 -1.9586  1.4219 -1.1053
26841SOL    HW284022   7.680  10.610   9.574 -0.8037  0.2152  0.2424
26842SOL     OW84023   3.358   6.084   8.897  0.0767  0.5115  0.7013
26842SOL    HW184024   3.447   6.115   8.881  0.0342 -0.1815 -1.1574
26842SOL    HW284025   3.365   6.029   8.975  0.9719  1.6249  1.4445
26843SOL     OW84026   9.231   9.529   3.997  0.0016 -0.4843  0.2358
26843SOL    HW184027   9.193   9.617   4.007 -0.6240 -0.6952 -0.1837
26843SOL    HW284028   9.300   9.539   3.932 -1.0224 -0.5581 -0.9003
26844SOL     OW84029   9.925   7.250   5.425  0.3118 -0.0475  0.1575
26844SOL    HW184030   9.849   7.294   5.388  0.2071 -2.1245 -2.3331
26844SOL    HW284031   9.890   7.201   5.500 -0.5345  0.0560 -0.1643
26845SOL     OW84032   4.096   1.637   9.178  0.5063 -0.2962 -0.5264
26845SOL    HW184033   4.089   1.701   9.107 -0.5010 -0.6618 -0.7781
26845SOL    HW284034   4.151   1.680   9.244 -1.0030  1.2803 -0.2199
26846SOL     OW84035   6.621  10.211   1.596  0.2298 -0.0354  0.3919
26846SOL    HW184036   6.675  10.154   1.542 -0.5192 -0.5001  0.1204
26846SOL    HW284037   6.553  10.154   1.632  0.4099  0.3702  1.4124
26847SOL     OW84038  10.777   0.390   7.094 -0.0203  0.3416  0.0175
26847SOL    HW184039  10.687   0.379   7.123  0.5948  0.6234  2.1885
26847SOL    HW284040  10.801   0.478   7.123  1.5320 -0.4370  1.2479
26848SOL     OW84041   8.469   4.923   4.873 -0.2076  0.6740  0.8138
26848SOL    HW184042   8.502   4.915   4.962 -1.4740 -0.6727  1.1905
26848SOL    HW284043   8.395   4.984   4.880 -0.9313 -0.1983  0.8753
26849SOL     OW84044   4.696   6.521   2.947  0.1239 -0.6176 -0.8348
26849SOL    HW184045   4.721   6.538   2.855 -0.0289 -1.4717 -1.0381
26849SOL    HW284046   4.741   6.440   2.969 -0.9857 -1.1854 -0.6095
26850SOL     OW84047   8.636   2.029   5.913 -0.2494  0.3123  0.5913
26850SOL    HW184048   8.612   1.985   5.832 -0.4534 -1.2138  1.4463
26850SOL    HW284049   8.689   1.965   5.961  3.3722  2.5729 -0.0108
26851SOL     OW84050   1.107   0.258   3.715  0.3135  0.0872  0.1508
26851SOL    HW184051   1.111   0.227   3.806  0.0456 -1.2508 -0.2704
26851SOL    HW284052   1.170   0.329   3.711 -0.4268  0.8824  1.6524
26852SOL     OW84053   0.388   6.503   8.158 -0.0327 -0.6879  0.0721
26852SOL    HW184054   0.306   6.465   8.189  0.4581 -0.4620  1.7668
26852SOL    HW284055   0.380   6.597   8.179  0.7120 -0.6935  0.4361
26853SOL     OW84056   7.056   9.374   3.025 -0.4665  0.5276 -0.2149
26853SOL    HW184057   6.982   9.319   3.050 -0.0247  0.2757  0.5871
26853SOL    HW284058   7.093   9.330   2.948  1.1466 -1.5466  1.6242
26854SOL     OW84059  10.273   4.493   0.674  0.5295 -0.2952  0.0192
26854SOL    HW184060  10.318   4.443   0.605 -1.4368 -1.5752 -0.4150
26854SOL    HW284061  10.275   4.436   0.750  0.9290  0.2805  0.4526
26855SOL     OW84062   6.335   5.754   7.210 -0.2347  0.9122  0.0734
26855SOL    HW184063   6.354   5.718   7.296  0.2157 -0.4495 -0.5626
26855SOL    HW284064   6.387   5.834   7.205 -0.0925  0.8837  0.9766
26856SOL     OW84065  10.682  10.139   6.590  0.1433  0.0155 -0.0364
26856SOL    HW184066  10.720  10.150   6.503 -0.4568 -0.6508 -0.3959
26856SOL    HW284067  10.590  10.118   6.573  0.2564 -1.1404  0.7264
26857SOL     OW84068   1.851   0.509   1.697 -0.5471  0.3967  0.3278
26857SOL    HW184069   1.816   0.422   1.718  0.8525 -0.8716 -2.1748
26857SOL    HW284070   1.941   0.492   1.669 -1.0404  2.2552 -2.8520
26858SOL     OW84071   0.336   4.060   2.651  0.1598  0.6006  0.2085
26858SOL    HW184072   0.346   4.155   2.649 -2.2500  0.9871  1.9475
26858SOL    HW284073   0.340   4.038   2.744 -2.6917 -0.4622  0.1823
26859SOL     OW84074   3.846   1.942   7.231 -0.0785  0.4287  0.5285
26859SOL    HW184075   3.941   1.945   7.244 -0.0421 -0.2878  0.4907
26859SOL    HW284076   3.814   1.893   7.307 -0.3707  0.3082  0.3283
26860SOL     OW84077   4.798  10.321   8.420 -0.1838  0.6382  0.0142
26860SOL    HW184078   4.735  10.344   8.487 -0.9388  2.0622 -1.1359
26860SOL    HW284079   4.847  10.401   8.404 -0.0996  0.3618 -1.2127
26861SOL     OW84080   8.789   4.226   2.009  0.2630 -0.0132 -0.1085
26861SOL    HW184081   8.841   4.180   2.075 -2.2117 -2.8802  0.0247
26861SOL    HW284082   8.748   4.157   1.958 -2.1770  2.0853 -1.1993
26862SOL     OW84083   1.136   6.387  10.244  0.3675 -0.3338  0.5183
26862SOL    HW184084   1.228   6.402  10.265  0.1720  0.2850  0.9805
26862SOL    HW284085   1.119   6.441  10.167  0.9168 -2.0980 -0.9025
26863SOL     OW84086   3.532   3.020   3.955 -0.5099 -0.0861  0.0294
26863SOL    HW184087   3.594   3.014   3.883 -1.1482 -0.5591 -0.4892
26863SOL    HW284088   3.587   3.017   4.034  0.1857  0.3865 -0.4263
26864SOL     OW84089   5.052  10.064   3.820 -0.4347  0.0649  0.0507
26864SOL    HW184090   5.093   9.989   3.775 -0.4697 -0.3258  0.6554
26864SOL    HW284091   5.107  10.139   3.798 -0.1118 -0.2315 -0.1586
26865SOL     OW84092   7.766   3.978   9.156 -0.5356  0.1370  0.2236
26865SOL    HW184093   7.860   3.996   9.157 -0.4145 -0.3924 -0.2925
26865SOL    HW284094   7.736   4.015   9.073 -0.3764 -1.4653 -0.5971
26866SOL     OW84095   0.045   7.333   1.197 -0.1210 -0.3515  0.1277
26866SOL    HW184096   0.104   7.274   1.242 -0.1299 -0.5801 -0.1582
26866SOL    HW284097  -0.040   7.322   1.241 -0.4042 -1.3883 -0.6428
26867SOL     OW84098   4.356   4.876   7.764 -0.0584 -0.1903 -0.0258
26867SOL    HW184099   4.427   4.915   7.815 -0.2733  0.2086 -0.0353
26867SOL    HW284100   4.294   4.845   7.829 -0.6377  0.8804 -0.0457
26868SOL     OW84101   6.068   4.675   5.261  0.5324  0.6217 -0.4561
26868SOL    HW184102   6.149   4.703   5.305 -0.7216  5.6913 -0.7113
26868SOL    HW284103   6.094   4.658   5.171  1.6547 -0.4218  0.0412
26869SOL     OW84104   2.827   5.102  10.283  0.2861  0.3159 -0.4606
26869SOL    HW184105   2.833   5.053  10.201  3.3299 -0.1175 -0.1193
26869SOL    HW284106   2.855   5.191  10.260  1.0662  0.2164  0.0616
26870SOL     OW84107  10.555   8.672   1.645  0.4086 -0.5842 -0.8141
26870SOL    HW184108  10.573   8.658   1.738 -2.5914  0.9975  0.1289
26870SOL    HW284109  10.486   8.610   1.624 -0.0902  0.1959 -1.5259
26871SOL     OW84110   5.522   4.910   3.779  0.2403 -0.5303 -0.5948
26871SOL    HW184111   5.586   4.982   3.786 -0.4289  0.0922 -0.7976
26871SOL    HW284112   5.481   4.907   3.866  0.7652 -1.1477 -0.3612
26872SOL     OW84113   1.036   1.032   0.290 -0.2528 -0.6893 -0.9964
26872SOL    HW184114   1.031   1.107   0.349  2.6912 -0.8502 -0.4076
26872SOL    HW284115   0.973   1.052   0.222 -0.9726  1.3744  0.1704
26873SOL     OW84116   6.067   1.595   6.125 -0.6916  0.0693 -0.4910
26873SOL    HW184117   6.134   1.528   6.112  1.3858  1.5114  1.9246
26873SOL    HW284118   6.097   1.670   6.073 -0.5604  0.6174  0.3530
26874SOL     OW84119   1.979   6.108   9.302  0.6583 -0.1354  0.0979
26874SOL    HW184120   1.939   6.065   9.226  0.8896  0.9951 -0.6912
26874SOL    HW284121   1.912   6.104   9.370  0.6984 -1.7836  0.0911
26875SOL     OW84122   9.116   6.095   0.134  0.1968  0.7493 -0.2972
26875SOL    HW184123   9.083   6.115   0.046  0.7865 -0.0967 -0.7295
26875SOL    HW284124   9.082   6.008   0.153  1.8055  0.0188 -0.5884
26876SOL     OW84125   2.435   4.461   8.745 -0.4661  0.2734 -0.4806
26876SOL    HW184126   2.509   4.400   8.744 -0.1737  0.6080  0.1893
26876SOL    HW284127   2.474   4.545   8.721 -0.3548  0.7284  1.1868
26877SOL     OW84128   1.217   1.233   0.127 -0.3214 -0.4302  0.0898
26877SOL    HW184129   1.177   1.317   0.151  0.7229 -0.0615  0.6055
26877SOL    HW284130   1.154   1.193   0.067 -1.4193  0.1558  0.8111
26878SOL     OW84131   6.141   0.331   0.361  1.0419  0.0896 -1.0590
26878SOL    HW184132   6.146   0.314   0.267  3.4437 -1.1837 -0.7944
26878SOL    HW284133   6.186   0.256   0.401  0.8205  1.0100  1.0589
26879SOL     OW84134   4.344   4.296   8.216  0.3278  0.1788  0.0259
26879SOL    HW184135   4.289   4.374   8.210  0.4984  0.2111 -2.3542
26879SOL    HW284136   4.288   4.229   8.254 -1.1322  0.4386 -1.5554
26880SOL     OW84137   7.216   1.422   2.937  0.0208  0.3975  0.0868
26880SOL    HW184138   7.293   1.411   2.993  1.9017  2.1151 -1.9607
26880SOL    HW284139   7.168   1.340   2.947  2.4039 -1.0145  1.0421
26881SOL     OW84140   6.455   3.058  10.602  0.0680  0.3455  0.4978
26881SOL    HW184141   6.365   3.041  10.630  0.8122 -2.2791  1.6215
26881SOL    HW284142   6.508   3.044  10.680  1.5118  1.3547 -0.2538
26882SOL     OW84143   0.031   7.120   5.282 -0.0052  0.4884  0.2676
26882SOL    HW184144  -0.036   7.081   5.226  0.6385  0.3841 -0.4480
26882SOL    HW284145   0.104   7.059   5.279 -0.4082 -0.1790  2.2908
26883SOL     OW84146   3.192   3.753   9.174  0.6306  0.0147  0.0174
26883SOL    HW184147   3.175   3.743   9.268 -1.1654 -1.4076 -0.4095
26883SOL    HW284148   3.176   3.666   9.137  1.8793  0.4103 -1.5521
26884SOL     OW84149  10.453  10.280   5.417  0.2598  0.7074 -0.3574
26884SOL    HW184150  10.453  10.290   5.322  0.0729  3.0813 -0.1479
26884SOL    HW284151  10.382  10.217   5.435 -1.1793  1.9009 -1.6507
26885SOL     OW84152   2.095   4.211   0.543  0.8985  0.5820 -0.2736
26885SOL    HW184153   2.133   4.152   0.608 -1.3349  0.3113  0.8692
26885SOL    HW284154   2.133   4.297   0.564 -0.3027  0.6495  1.9332
26886SOL     OW84155   8.001   4.715   0.513  0.1861  0.2191 -0.2757
26886SOL    HW184156   7.967   4.654   0.579 -0.1252  1.2626  0.5614
26886SOL    HW284157   7.941   4.707   0.440  0.9086 -1.4395 -0.7332
26887SOL     OW84158   5.859   1.317   1.193  0.3267 -0.0766 -0.1498
26887SOL    HW184159   5.905   1.381   1.248  1.9926 -1.9725  0.7843
26887SOL    HW284160   5.780   1.296   1.242  0.6195  0.0138  0.3783
26888SOL     OW84161   1.825   0.587   6.117  0.8390 -0.4192  0.0619
26888SOL    HW184162   1.886   0.644   6.071 -0.5928  0.8806 -0.3499
26888SOL    HW284163   1.739   0.629   6.104 -0.0102 -1.6258  1.4181
26889SOL     OW84164   0.181   3.898   9.067  0.8475  0.1116 -0.0310
26889SOL    HW184165   0.139   3.952   9.135  0.7441  0.6271 -0.4955
26889SOL    HW284166   0.148   3.810   9.084 -0.4367  0.4961 -0.3672
26890SOL     OW84167   5.154   5.780   7.303  0.1160  0.4651 -0.1476
26890SOL    HW184168   5.242   5.789   7.341  0.5261 -2.5310 -0.1834
26890SOL    HW284169   5.144   5.859   7.249  2.4547  1.2822  0.4703
26891SOL     OW84170   9.361   0.934   1.231  0.6161  0.0086  0.3938
26891SOL    HW184171   9.266   0.947   1.231  0.5523 -0.4124  1.0680
26891SOL    HW284172   9.384   0.927   1.138 -0.1211 -0.6833  0.2488
26892SOL     OW84173   2.448  10.032   6.910  0.3130 -0.0378  0.2214
26892SOL    HW184174   2.499   9.954   6.932 -0.8883 -1.0351 -0.4359
26892SOL    HW284175   2.465  10.092   6.982  2.0537 -0.4929  0.2493
26893SOL     OW84176   4.252   6.068   7.849  0.1000 -0.0057  0.0402
26893SOL    HW184177   4.335   6.047   7.806  2.0391 -0.3477  3.5128
26893SOL    HW284178   4.276   6.132   7.916 -2.4497 -0.1348  1.1938
26894SOL     OW84179   8.254   6.050  10.354  0.0268 -0.3288  0.1271
26894SOL    HW184180   8.159   6.054  10.358  0.0214 -0.9398  0.5861
26894SOL    HW284181   8.276   5.958  10.368  0.7851  0.1315  2.5144
26895SOL     OW84182   5.145   4.482   2.185 -0.3608 -0.2881  0.5039
26895SOL    HW184183   5.146   4.565   2.233  1.2529  0.0643 -0.0696
26895SOL    HW284184   5.065   4.486   2.133  0.2603  1.4481 -0.3925
26896SOL     OW84185   5.338   1.835   8.844  0.0452  0.3803  0.7172
26896SOL    HW184186   5.405   1.767   8.841 -1.0757 -0.7354 -0.2900
26896SOL    HW284187   5.359   1.885   8.923  1.2369 -0.7781  1.1918
26897SOL     OW84188   4.660   6.016   9.226  0.0679  0.4222  0.2733
26897SOL    HW184189   4.599   6.088   9.241 -0.5197 -0.2650  1.2780
26897SOL    HW284190   4.734   6.034   9.284  0.6183  1.0010 -0.5899
26898SOL     OW84191   1.693  10.863   4.866  0.1060  0.6054 -0.3256
26898SOL    HW184192   1.653  10.896   4.785 -1.1108 -0.1108 -0.0340
26898SOL    HW284193   1.781  10.836   4.839 -0.6489 -0.6738 -1.6889
26899SOL     OW84194   9.450   6.505   7.526  0.1533  0.1709 -0.0871
26899SOL    HW184195   9.384   6.535   7.590  1.4683  0.2095  1.3035
26899SOL    HW284196   9.478   6.585   7.482 -1.3051  0.0542 -1.3045
26900SOL     OW84197   5.835   7.854   4.062  0.0883  0.1301 -0.3745
26900SOL    HW184198   5.842   7.759   4.061  0.5267  0.1613 -1.2167
26900SOL    HW284199   5.764   7.874   4.001  0.8514  0.3915 -1.1996
26901SOL     OW84200   3.548   4.831   8.052 -0.3211 -0.1278  0.4252
26901SOL    HW184201   3.620   4.888   8.080 -0.7463  1.0313 -0.7288
26901SOL    HW284202   3.524   4.864   7.965 -1.2267 -1.4795  0.1301
26902SOL     OW84203   5.036   8.608   3.908 -0.4809 -0.3967 -0.5047
26902SOL    HW184204   4.989   8.586   3.988 -0.4322  2.0842  0.2948
26902SOL    HW284205   4.969   8.635   3.846 -0.3342  0.8881 -0.1415
26903SOL     OW84206   9.740   3.681   6.111 -0.3997  0.2629 -0.2928
26903SOL    HW184207   9.660   3.647   6.071 -0.1769 -0.3357 -0.2434
26903SOL    HW284208   9.724   3.675   6.205 -0.2726  0.0791 -0.2824
26904SOL     OW84209   3.626   5.495   6.468  0.5754 -0.1007  0.0433
26904SOL    HW184210   3.678   5.461   6.395 -0.1943  0.7681 -0.9478
26904SOL    HW284211   3.555   5.543   6.426 -0.9131 -1.0568  1.3557
26905SOL     OW84212  10.854   7.657   2.662 -0.5453  0.0185 -0.3520
26905SOL    HW184213  10.898   7.658   2.747  0.7437 -1.6225 -0.9561
26905SOL    HW284214  10.761   7.664   2.683 -0.1778  0.8730  1.1059
26906SOL     OW84215   9.590   4.761   4.250 -0.1475  0.2639  0.2781
26906SOL    HW184216   9.607   4.783   4.342 -1.5435  2.7158  0.0652
26906SOL    HW284217   9.643   4.684   4.233  0.6960  0.1483  2.9467
26907SOL     OW84218   5.577   4.079   8.400 -0.0412  0.4826 -0.7652
26907SOL    HW184219   5.558   4.033   8.318 -0.4932 -0.8022  0.0259
26907SOL    HW284220   5.632   4.018   8.449 -0.9366  0.6393  0.4668
26908SOL     OW84221   7.649   0.006   5.543 -0.2209 -0.2397  0.2935
26908SOL    HW184222   7.719   0.069   5.529 -0.5606  0.2125  0.5966
26908SOL    HW284223   7.584   0.027   5.476  1.0860 -2.4003 -1.8113
26909SOL     OW84224   6.887   8.794   1.637  0.1267 -0.0396 -0.0485
26909SOL    HW184225   6.853   8.828   1.720  1.2863  0.2303  0.3414
26909SOL    HW284226   6.844   8.847   1.570 -0.4429  0.0790  0.4005
26910SOL     OW84227   2.384   4.994   1.281  0.1331 -0.0591 -0.1461
26910SOL    HW184228   2.442   4.979   1.207  0.1887 -1.3888  0.1490
26910SOL    HW284229   2.410   4.928   1.346 -1.0440 -0.0267  0.3836
26911SOL     OW84230   5.832   8.202   1.182  0.2549  0.8834 -0.2211
26911SOL    HW184231   5.901   8.266   1.199  0.8287  0.0094  0.8950
26911SOL    HW284232   5.750   8.251   1.194  0.6754  1.2816  1.3367
26912SOL     OW84233   1.517   7.960   0.608 -0.1168 -0.1375  0.0272
26912SOL    HW184234   1.607   7.930   0.597 -0.2012 -0.2306 -0.4395
26912SOL    HW284235   1.495   8.001   0.524 -0.4901 -0.0682  0.1562
26913SOL     OW84236   9.823   6.082  10.295  0.5682  0.3559  0.2306
26913SOL    HW184237   9.778   5.999  10.313  0.5001 -0.4333 -3.0249
26913SOL    HW284238   9.754   6.148  10.304  0.5409  0.1233  2.4951
26914SOL     OW84239   2.934   9.647  10.868 -0.0718 -0.7341 -0.5162
26914SOL    HW184240   3.006   9.701  10.902  0.1639 -2.3143  1.7012
26914SOL    HW284241   2.964   9.617  10.782  0.7117  0.8351 -0.8202
26915SOL     OW84242   2.888   8.987   9.876 -0.1315 -0.1499  0.9398
26915SOL    HW184243   2.917   8.957   9.789  1.3151  1.0038  1.0022
26915SOL    HW284244   2.797   8.956   9.882  0.9287 -3.7638  0.6719
26916SOL     OW84245   4.338   5.095   2.943  0.2434 -0.4517 -0.0573
26916SOL    HW184246   4.269   5.118   3.005 -1.5560 -0.0585 -2.0845
26916SOL    HW284247   4.359   5.004   2.962 -2.7802 -1.4681 -1.0361
26917SOL     OW84248   0.663   2.584   8.666  0.0849 -0.1551 -0.2885
26917SOL    HW184249   0.591   2.521   8.671 -0.6271  0.5999 -0.7504
26917SOL    HW284250   0.620   2.669   8.656  1.0159  0.4901  0.9868
26918SOL     OW84251   8.705   2.520   7.722  0.3189  0.2202 -0.0569
26918SOL    HW184252   8.707   2.591   7.658  2.0435 -0.0680 -0.3644
26918SOL    HW284253   8.653   2.451   7.680 -1.3212  1.2432  0.2244
26919SOL     OW84254   2.988   5.887   0.669  0.3207 -0.2960  0.2358
26919SOL    HW184255   2.894   5.878   0.683  0.4213 -0.2511  0.9521
26919SOL    HW284256   2.998   5.974   0.630 -0.1885 -1.3187 -2.3988
26920SOL     OW84257   9.629   4.759   2.010  0.1489  0.1065  1.1108
26920SOL    HW184258   9.683   4.799   2.078 -0.3498  2.3499  0.2676
26920SOL    HW284259   9.661   4.798   1.928 -1.0634 -0.4519  0.3381
26921SOL     OW84260   2.851   9.712   2.494 -0.5178 -0.4890  0.3697
26921SOL    HW184261   2.890   9.663   2.566 -0.0448  0.4293  0.7591
26921SOL    HW284262   2.820   9.793   2.534 -1.7760 -0.6971 -0.1556
26922SOL     OW84263   2.691   4.998   8.005  0.1422 -0.4059 -0.0615
26922SOL    HW184264   2.646   4.994   7.921  0.8326  2.1181 -0.6346
26922SOL    HW284265   2.777   4.959   7.988 -0.0759 -0.8191 -0.2397
26923SOL     OW84266   2.721   2.964  10.850 -0.3940 -0.6312  0.1415
26923SOL    HW184267   2.697   2.885  10.898 -3.1284  0.3027  0.4792
26923SOL    HW284268   2.703   3.036  10.911  0.0165  0.3562 -0.8660
26924SOL     OW84269   1.893   9.462   3.533 -0.0874  0.2705  0.6337
26924SOL    HW184270   1.944   9.431   3.609 -0.4338  1.3110  1.3066
26924SOL    HW284271   1.817   9.506   3.571 -0.2926  0.7695 -0.3200
26925SOL     OW84272   2.985   3.775   9.801  0.0685 -0.3936  0.0033
26925SOL    HW184273   2.901   3.816   9.785 -0.1108  0.1679  2.1996
26925SOL    HW284274   2.966   3.681   9.806 -0.2700 -0.3415 -0.2698
26926SOL     OW84275   8.495   3.737   1.647 -0.1541 -0.1792 -0.0492
26926SOL    HW184276   8.551   3.665   1.618  0.5855  0.1811  0.4345
26926SOL    HW284277   8.490   3.796   1.571  1.3745  0.5237  0.3432
26927SOL     OW84278   5.110   6.280   6.953  0.1444  0.0338 -0.0679
26927SOL    HW184279   5.139   6.194   6.923 -0.9912 -0.7529  0.9803
26927SOL    HW284280   5.062   6.262   7.034 -1.4086  1.4733 -0.6172
26928SOL     OW84281   9.624   8.603   8.598 -0.4774 -0.4849  0.0390
26928SOL    HW184282   9.574   8.596   8.679 -1.0552  1.2098 -0.1282
26928SOL    HW284283   9.716   8.598   8.625 -0.6812 -1.1084  0.6382
26929SOL     OW84284   1.707   9.281   0.710  0.0270 -0.6376  0.3179
26929SOL    HW184285   1.682   9.264   0.620  0.7736 -0.9013  0.1500
26929SOL    HW284286   1.687   9.374   0.724 -1.0277 -0.8363  0.2109
26930SOL     OW84287   6.923   5.442   1.158 -0.1338 -0.1918 -0.0303
26930SOL    HW184288   6.918   5.527   1.114 -0.9810 -0.4923 -0.5391
26930SOL    HW284289   6.943   5.463   1.249 -1.1115  0.6113  0.0193
26931SOL     OW84290   8.734   0.160   3.493 -0.5874 -0.0782  0.3942
26931SOL    HW184291   8.821   0.159   3.453 -0.8914 -0.5485 -0.2740
26931SOL    HW284292   8.716   0.252   3.512 -0.2171  0.0915 -0.0758
26932SOL     OW84293   7.241   5.369   9.613  0.4999  0.0624  0.3355
26932SOL    HW184294   7.283   5.396   9.531 -1.2595 -0.8299 -0.9384
26932SOL    HW284295   7.270   5.278   9.625  0.5688  0.1172  0.5827
26933SOL     OW84296   6.008   2.159   1.805  0.1400  0.3147  0.5249
26933SOL    HW184297   6.054   2.229   1.758 -1.3104  1.2720  0.4457
26933SOL    HW284298   6.048   2.078   1.774  3.1539  1.1082  2.0012
26934SOL     OW84299   6.146   8.487  10.517 -0.1479  0.0505  0.3945
26934SOL    HW184300   6.124   8.576  10.546  0.0616 -0.3222  1.7882
26934SOL    HW284301   6.074   8.461  10.460  1.0481  2.0720 -2.2412
26935SOL     OW84302   3.425   9.962   2.919  0.1346 -0.0868 -0.1940
26935SOL    HW184303   3.363   9.903   2.961  0.1389 -1.0096 -1.4158
26935SOL    HW284304   3.509   9.917   2.927  0.3445  0.3186 -0.0985
26936SOL     OW84305   8.163   7.839   3.558  0.5732 -0.8042 -0.1995
26936SOL    HW184306   8.067   7.848   3.556  0.6844  0.8125 -2.5713
26936SOL    HW284307   8.195   7.923   3.525  2.8545 -1.2216  0.7835
26937SOL     OW84308   8.958   9.571   3.079  0.2667  0.7567 -0.1553
26937SOL    HW184309   9.053   9.566   3.069  0.5462 -0.7031  2.3688
26937SOL    HW284310   8.944   9.599   3.169 -1.6811 -0.1345 -0.1076
26938SOL     OW84311   5.298   7.665   3.035  0.0789 -0.2808  0.2496
26938SOL    HW184312   5.348   7.620   2.967 -0.2968  0.3427 -0.4545
26938SOL    HW284313   5.332   7.754   3.035  0.1041 -0.2878  0.9123
26939SOL     OW84314   2.322   4.560   6.884 -0.3178 -0.0270  0.1286
26939SOL    HW184315   2.287   4.590   6.968  2.1749 -2.0322  2.0571
26939SOL    HW284316   2.416   4.552   6.899  0.1016 -1.3850 -2.5695
26940SOL     OW84317  10.296   5.058  10.908  0.3526  0.0545 -0.2665
26940SOL    HW184318  10.274   5.015  10.991  0.5182  0.7245  0.1321
26940SOL    HW284319  10.381   5.099  10.924  0.1902  0.5403 -0.6374
26941SOL     OW84320   4.490   1.268   6.221  0.6049  0.1054  0.3078
26941SOL    HW184321   4.575   1.311   6.226 -0.0561  1.8805 -2.0779
26941SOL    HW284322   4.443   1.298   6.299  1.6961  0.1213  0.9795
26942SOL     OW84323  10.802   5.900   3.376  0.2928  0.4924 -0.3813
26942SOL    HW184324  10.837   5.916   3.463 -0.2568 -0.4386  0.0268
26942SOL    HW284325  10.850   5.823   3.344  0.3294  0.6866 -0.8071
26943SOL     OW84326   0.906   5.921   6.635 -0.4281 -0.3885  0.1083
26943SOL    HW184327   0.947   5.891   6.716  1.1992 -1.2732 -0.9834
26943SOL    HW284328   0.886   5.840   6.588 -3.0757  0.0219  0.3561
26944SOL     OW84329   9.590   2.811   4.868 -0.0664  0.0424  0.4843
26944SOL    HW184330   9.542   2.736   4.904  1.0559 -1.4520 -0.9438
26944SOL    HW284331   9.555   2.821   4.779 -1.2387  2.2265  1.1197
26945SOL     OW84332   0.835   1.399   2.971 -0.1630 -0.2760 -0.0936
26945SOL    HW184333   0.846   1.469   3.036 -1.1883  0.3663 -0.5925
26945SOL    HW284334   0.922   1.389   2.933  0.5789 -0.9878  1.6719
26946SOL     OW84335   2.438   8.822   6.521  0.2669  0.0415 -0.0612
26946SOL    HW184336   2.452   8.802   6.429  0.5127 -0.5537  0.0977
26946SOL    HW284337   2.370   8.760   6.549  1.6434 -1.2118  0.6502
26947SOL     OW84338   1.421   8.841   8.492 -0.1870  0.9691 -0.7491
26947SOL    HW184339   1.445   8.927   8.457 -1.4703  1.4246 -0.5877
26947SOL    HW284340   1.353   8.809   8.432 -0.7981  0.7591  0.0360
26948SOL     OW84341   4.721   6.580   3.434  0.6634  0.4223 -0.2733
26948SOL    HW184342   4.680   6.518   3.495  0.2883  0.1712 -0.7673
26948SOL    HW284343   4.815   6.566   3.445  0.5862 -0.9072 -1.0177
26949SOL     OW84344   4.742   8.897   3.959  0.1432 -0.3637 -0.0404
26949SOL    HW184345   4.753   8.813   3.914 -0.8270  0.5836 -2.2054
26949SOL    HW284346   4.758   8.962   3.891 -0.6442  1.1698  1.1949
26950SOL     OW84347   9.993   6.236   5.262 -0.6273  0.0037  0.2817
26950SOL    HW184348  10.036   6.154   5.236 -1.8658 -1.2874  2.0727
26950SOL    HW284349   9.930   6.253   5.192 -0.4356 -0.6357 -0.0573
26951SOL     OW84350   7.799   3.641   3.501  0.0356 -0.2829 -0.1884
26951SOL    HW184351   7.867   3.703   3.476 -0.6377  0.6504  0.2375
26951SOL    HW284352   7.757   3.680   3.578 -0.3685 -1.2924  0.1291
26952SOL     OW84353   8.056   9.069   6.587  0.0561 -0.2975 -0.3220
26952SOL    HW184354   8.103   9.083   6.669  0.2581 -0.7040 -0.3682
26952SOL    HW284355   8.075   8.978   6.563 -0.0274 -0.1918 -0.8016
26953SOL     OW84356   0.696   5.205   6.746  0.7161  0.1295 -0.2519
26953SOL    HW184357   0.760   5.233   6.681  0.9885  1.9247  0.7170
26953SOL    HW284358   0.632   5.276   6.747  0.8854  0.2923  1.6303
26954SOL     OW84359   2.321   0.532   4.178 -0.5796  0.2832  0.3695
26954SOL    HW184360   2.277   0.471   4.118 -0.2990 -0.5095  0.9577
26954SOL    HW284361   2.249   0.580   4.219 -0.9400 -1.0965  1.4242
26955SOL     OW84362   1.126   3.925   5.544  0.2612  0.0085  0.0037
26955SOL    HW184363   1.163   3.991   5.603  1.0293 -1.5384  1.3464
26955SOL    HW284364   1.075   3.868   5.602  0.8891 -1.4595 -0.8481
26956SOL     OW84365   3.837   7.066   2.869 -0.3525  0.9676  0.9062
26956SOL    HW184366   3.852   6.989   2.815  0.0277  0.2386  2.0037
26956SOL    HW284367   3.786   7.125   2.814 -1.5968 -0.5158  0.4159
26957SOL     OW84368   0.074   3.617   8.003  0.4819  0.0849 -0.3563
26957SOL    HW184369  -0.006   3.598   8.052  1.5013  0.6810  1.6305
26957SOL    HW284370   0.047   3.612   7.911 -1.5360 -0.9630  0.2237
26958SOL     OW84371   9.145   1.203   1.037  0.7742  0.4046 -0.6179
26958SOL    HW184372   9.114   1.188   0.947  1.1022 -0.8699 -0.5342
26958SOL    HW284373   9.240   1.212   1.029  0.9838 -1.1225 -0.2736
26959SOL     OW84374   7.148   8.080   7.302  0.2266 -0.0872  0.4769
26959SOL    HW184375   7.188   8.021   7.239 -0.7502 -0.3014  0.0508
26959SOL    HW284376   7.194   8.061   7.384  1.5000  0.1957 -0.1470
26960SOL     OW84377   6.694   4.266   6.182 -0.5197  0.6050 -0.1150
26960SOL    HW184378   6.746   4.203   6.232 -1.2251  0.6000  0.6328
26960SOL    HW284379   6.714   4.246   6.090  0.4232  0.2959  0.1450
26961SOL     OW84380   8.668   2.340   0.223 -0.5132 -0.4748  0.4207
26961SOL    HW184381   8.709   2.332   0.309  2.6539 -2.0275 -1.0498
26961SOL    HW284382   8.589   2.287   0.229 -0.6710 -0.1086  2.4689
26962SOL     OW84383   1.284   4.701   8.369 -0.3214 -0.3705  0.2981
26962SOL    HW184384   1.329   4.706   8.284 -0.6528  0.5597  0.1728
26962SOL    HW284385   1.339   4.642   8.421 -0.1567 -1.0281 -0.5836
26963SOL     OW84386   2.974   8.717   0.774  0.2222 -0.4451  0.7065
26963SOL    HW184387   3.046   8.778   0.790  1.0340 -1.4319  0.8913
26963SOL    HW284388   2.914   8.766   0.717  0.5443  0.7352  1.3365
26964SOL     OW84389   8.649   7.426   0.398  0.5614  0.0739 -0.2741
26964SOL    HW184390   8.655   7.478   0.478 -0.1292  0.7118 -0.6239
26964SOL    HW284391   8.690   7.342   0.420  1.1660  0.5587  0.4733
26965SOL     OW84392   0.730   7.185   0.961  0.0385 -0.2609  0.8342
26965SOL    HW184393   0.670   7.207   1.032  0.2059 -0.7163  1.1252
26965SOL    HW284394   0.803   7.140   1.004  0.5529  0.2182  0.4785
26966SOL     OW84395   4.413   1.335   1.685  0.3697  0.1351  0.1818
26966SOL    HW184396   4.468   1.391   1.630 -0.5279 -0.8599 -1.7951
26966SOL    HW284397   4.462   1.253   1.693 -0.4083 -0.4634 -0.9142
26967SOL     OW84398   8.020   0.217   8.592 -0.4474  0.2320  0.1655
26967SOL    HW184399   7.997   0.180   8.677 -0.8981 -0.3081 -0.1865
26967SOL    HW284400   8.111   0.245   8.602 -0.6049  0.4972  0.9301
26968SOL     OW84401   3.036   4.792   6.388  0.0901  0.1054  0.1707
26968SOL    HW184402   3.005   4.734   6.457 -1.7941 -1.2865 -1.7247
26968SOL    HW284403   3.105   4.741   6.344 -1.6011 -0.8174 -1.5269
26969SOL     OW84404  10.927   1.058   2.679 -0.1224 -0.3610  0.0381
26969SOL    HW184405  10.940   1.080   2.587  0.9140 -0.4741  0.1497
26969SOL    HW284406  10.961   0.969   2.688  1.2670  0.2218  0.8562
26970SOL     OW84407   1.346   9.895   4.751 -0.1326  0.0862  0.7865
26970SOL    HW184408   1.337   9.800   4.739  0.3387 -0.1452  2.1296
26970SOL    HW284409   1.259   9.929   4.727  0.4772 -0.3177 -2.5071
26971SOL     OW84410   7.697   6.794   3.392  0.3147 -0.5709  0.1866
26971SOL    HW184411   7.614   6.753   3.368  0.1440 -0.2149  0.1618
26971SOL    HW284412   7.748   6.794   3.311 -0.7338  1.7708 -0.5532
26972SOL     OW84413   9.226   3.899   0.168 -0.6279 -0.1908 -0.5228
26972SOL    HW184414   9.205   3.827   0.229 -1.2104  1.2482  1.0626
26972SOL    HW284415   9.210   3.862   0.081 -0.5342 -2.0916  0.2061
26973SOL     OW84416   7.841   8.652   3.585 -0.8552  0.3577 -0.0005
26973SOL    HW184417   7.814   8.740   3.612 -0.3290  0.1149  1.4051
26973SOL    HW284418   7.926   8.664   3.543 -0.0841  0.3996  1.4881
26974SOL     OW84419   8.055   4.896   6.211  0.0605  0.4725 -0.3197
26974SOL    HW184420   7.972   4.924   6.174  0.8320  0.4335 -2.1802
26974SOL    HW284421   8.075   4.813   6.167  0.2377 -0.4677  1.4270
26975SOL     OW84422   4.099   1.143   9.875  0.3350  0.3996 -0.5428
26975SOL    HW184423   4.058   1.174   9.794 -0.2437  1.6556  0.2039
26975SOL    HW284424   4.104   1.220   9.931  1.3041 -0.3135  0.3958
26976SOL     OW84425   7.337   3.724   2.333  0.2885 -0.1439 -0.5232
26976SOL    HW184426   7.282   3.787   2.379  0.5400  0.2956 -0.8282
26976SOL    HW284427   7.328   3.644   2.385 -0.5269 -0.0436 -0.4920
26977SOL     OW84428   5.006   5.422   9.782 -0.0896 -0.2113 -0.1105
26977SOL    HW184429   5.083   5.473   9.757  0.2107 -1.2343 -1.3961
26977SOL    HW284430   5.027   5.387   9.868  1.6495 -1.8333 -1.1082
26978SOL     OW84431   7.803   5.691   0.895 -0.0548  0.3386 -0.1007
26978SOL    HW184432   7.793   5.744   0.974 -3.5600 -0.4020  0.0781
26978SOL    HW284433   7.805   5.754   0.824  1.8494  0.9324  0.4028
26979SOL     OW84434   5.019  10.545   9.623  0.0327  0.3056  0.2608
26979SOL    HW184435   5.021  10.482   9.550 -0.4195  0.9298 -0.3048
26979SOL    HW284436   5.065  10.622   9.589  0.1503  0.4641  0.7733
26980SOL     OW84437   0.911   2.262   8.057 -0.2421  0.0421 -0.2948
26980SOL    HW184438   0.988   2.318   8.068  0.3056 -0.7351 -0.1019
26980SOL    HW284439   0.839   2.324   8.043  0.0227  0.8939  1.6783
26981SOL     OW84440   3.147   9.320  10.286 -0.5379 -0.2511  0.0187
26981SOL    HW184441   3.222   9.369  10.252  0.0012 -1.1395 -0.0948
26981SOL    HW284442   3.185   9.256  10.346 -1.2600 -0.3436  0.3840
26982SOL     OW84443   7.483   6.690  10.658 -0.6592  0.1813  0.0839
26982SOL    HW184444   7.480   6.594  10.662 -1.0269  0.1730 -0.2856
26982SOL    HW284445   7.404   6.714  10.611  0.5570  0.5314 -1.8900
26983SOL     OW84446   3.370   7.061   5.886 -0.4873  0.2295  0.1714
26983SOL    HW184447   3.406   7.128   5.943  0.0458  0.7737 -0.7897
26983SOL    HW284448   3.446   7.012   5.855 -0.7127  0.3120 -0.5312
26984SOL     OW84449   6.982   2.731   7.017  0.1648  0.3762  0.2374
26984SOL    HW184450   6.978   2.637   7.034  0.1844  0.6150  1.6328
26984SOL    HW284451   6.891   2.761   7.026  0.0092  0.3692 -1.0781
26985SOL     OW84452   5.647  10.689   1.174  0.5013  0.5620 -0.0489
26985SOL    HW184453   5.682  10.616   1.122  0.3617  0.9386 -0.6787
26985SOL    HW284454   5.590  10.737   1.114 -1.6762 -0.4128  1.1319
26986SOL     OW84455   8.075   8.343   6.656  0.0345 -0.2215 -0.4266
26986SOL    HW184456   8.040   8.264   6.616  0.6532 -0.1391 -1.1425
26986SOL    HW284457   8.057   8.412   6.593  0.7445 -0.0363 -0.4356
26987SOL     OW84458   7.147   0.353   5.122 -0.0203  0.1161  0.2253
26987SOL    HW184459   7.186   0.287   5.180  0.7246  0.1980 -0.1820
26987SOL    HW284460   7.058   0.364   5.157  0.1303 -0.4621  0.8308
26988SOL     OW84461   7.283   8.399   5.134 -0.9907 -0.2096  0.2228
26988SOL    HW184462   7.318   8.428   5.050 -0.8777 -0.8468  0.0482
26988SOL    HW284463   7.257   8.480   5.178  0.8348  0.3015  0.4289
26989SOL     OW84464   0.074   6.821   7.531 -0.0028 -0.1596 -0.1084
26989SOL    HW184465   0.155   6.852   7.571  0.4988 -2.1665  0.5616
26989SOL    HW284466   0.014   6.809   7.604 -0.5651  0.2717 -0.4856
26990SOL     OW84467   4.410   2.293   7.127 -0.0595  0.2189 -0.0511
26990SOL    HW184468   4.380   2.368   7.075  1.3231  2.0038  1.5835
26990SOL    HW284469   4.456   2.238   7.064 -0.8272  0.8742 -1.2403
26991SOL     OW84470   7.231   4.793   7.036  0.0766  0.1533 -0.3519
26991SOL    HW184471   7.259   4.703   7.056  0.4373  0.2237 -0.5201
26991SOL    HW284472   7.193   4.787   6.949 -0.8851 -0.0314  0.0734
26992SOL     OW84473   2.201   8.833   4.546 -0.3113 -0.3088  0.0833
26992SOL    HW184474   2.120   8.859   4.503 -0.8908 -0.0492  1.3202
26992SOL    HW284475   2.174   8.771   4.614  0.3791  0.6502  1.2707
26993SOL     OW84476   8.970   3.717   2.260  0.6026  0.1220  0.4157
26993SOL    HW184477   8.909   3.743   2.329  1.0098 -1.0971  1.2598
26993SOL    HW284478   9.018   3.643   2.296  1.3271 -0.0953 -0.9170
26994SOL     OW84479   7.408   5.406   5.193 -0.0150 -0.2897  0.3546
26994SOL    HW184480   7.466   5.377   5.263  0.3528 -0.4556 -0.0187
26994SOL    HW284481   7.379   5.493   5.221  1.7419  0.5388 -0.2479
26995SOL     OW84482   3.411   5.315   4.175  0.4315  0.3386  0.1194
26995SOL    HW184483   3.327   5.353   4.201  0.3538  0.1521  0.1382
26995SOL    HW284484   3.467   5.391   4.160  0.2361  0.4665  0.0286
26996SOL     OW84485   9.072   7.064   5.962 -0.8580  0.0782  0.5835
26996SOL    HW184486   9.095   7.083   5.871  0.8665  0.7300  1.1211
26996SOL    HW284487   9.018   7.139   5.989  0.0278  0.7402  0.5711
26997SOL     OW84488   4.351   6.639   4.472  0.5091  0.0941  0.0787
26997SOL    HW184489   4.425   6.688   4.508  0.5009 -1.2625  2.1215
26997SOL    HW284490   4.274   6.690   4.496  0.6941  1.0439 -1.2587
26998SOL     OW84491   1.691  10.187  10.251  0.5674  0.4500  0.2855
26998SOL    HW184492   1.630  10.113  10.253  0.3818  0.5900 -0.2239
26998SOL    HW284493   1.766  10.157  10.303  0.5241 -0.1231  0.0226
26999SOL     OW84494  10.298   6.982   5.352  0.0978 -0.6537  0.1056
26999SOL    HW184495  10.208   7.006   5.326 -0.0716  0.1266  1.3208
26999SOL    HW284496  10.352   7.011   5.279 -0.5208  0.0467 -0.0949
27000SOL     OW84497   7.866  10.919   3.734  0.3267  0.0163  0.4552
27000SOL    HW184498   7.940  10.861   3.753 -0.7428 -1.3472  0.6275
27000SOL    HW284499   7.902  11.008   3.741  1.6555 -0.5895  1.7204
27001SOL     OW84500   1.037   1.253   8.467  0.5998 -0.3902 -0.6725
27001SOL    HW184501   1.032   1.349   8.466  2.6056 -0.2340 -0.5404
27001SOL    HW284502   0.977   1.227   8.537  0.6358  0.8391 -0.1500
27002SOL     OW84503   3.216  10.330   3.725  0.7054  0.3123  0.2069
27002SOL    HW184504   3.220  10.425   3.711  0.8335  0.1485 -0.9479
27002SOL    HW284505   3.288  10.296   3.672  0.5000 -0.4567  0.4206
27003SOL     OW84506   8.767   7.795   4.305  0.4841 -0.3234 -0.4327
27003SOL    HW184507   8.821   7.872   4.285  0.3514 -0.2871 -0.6562
27003SOL    HW284508   8.683   7.814   4.263  0.4783 -0.6269 -0.5588
27004SOL     OW84509   1.113   8.151   3.099 -0.3675  0.4878 -0.1646
27004SOL    HW184510   1.019   8.162   3.088 -0.5816  1.3302  2.0419
27004SOL    HW284511   1.122   8.089   3.172  0.7917  0.8003 -0.0195
27005SOL     OW84512   3.020   1.836   4.619  0.3534  0.1948  0.3653
27005SOL    HW184513   3.028   1.931   4.610  0.5799  0.3409  1.8507
27005SOL    HW284514   3.092   1.811   4.678  1.4854 -1.1841 -1.5058
27006SOL     OW84515   6.582   9.956  10.452 -0.3666 -0.2572 -0.6786
27006SOL    HW184516   6.501   9.926  10.493 -0.5675 -0.6259 -1.3195
27006SOL    HW284517   6.620   9.877  10.414  1.3077 -0.4653  1.2582
27007SOL     OW84518   5.142   5.218   0.809  0.2623 -0.0812  0.1475
27007SOL    HW184519   5.165   5.264   0.890 -1.4940  1.8737 -0.3700
27007SOL    HW284520   5.068   5.163   0.834  0.1725 -0.0139  0.0272
27008SOL     OW84521   3.949   3.815   1.945 -0.3481 -0.1582 -0.2043
27008SOL    HW184522   3.938   3.831   1.851  0.0671  0.4618 -0.1539
27008SOL    HW284523   3.932   3.900   1.986 -0.9735 -0.5338  0.3207
27009SOL     OW84524   3.866   7.695   2.603  0.4057  0.0405  0.1430
27009SOL    HW184525   3.882   7.602   2.622  0.0885 -0.2466 -0.9236
27009SOL    HW284526   3.865   7.700   2.507 -2.0053  0.7255  0.1569
27010SOL     OW84527   0.502   0.397   1.333  0.0596 -0.2660 -0.7760
27010SOL    HW184528   0.561   0.472   1.337  0.4172 -0.1333 -4.7687
27010SOL    HW284529   0.420   0.429   1.371  0.5304  1.8391 -1.4151
27011SOL     OW84530   4.329   7.587   4.142  0.3538  0.0206  0.4285
27011SOL    HW184531   4.378   7.521   4.190 -0.5669 -0.4918  0.7000
27011SOL    HW284532   4.247   7.543   4.119 -0.2339  1.0379  0.5293
27012SOL     OW84533   3.802   4.166   7.990  0.4304  0.9467 -0.1199
27012SOL    HW184534   3.859   4.111   7.938  1.8370  1.8457  0.4194
27012SOL    HW284535   3.769   4.109   8.059  1.3156  0.6140  0.0303
27013SOL     OW84536  10.437   8.855   5.462  0.2062  0.1540 -0.3797
27013SOL    HW184537  10.497   8.796   5.418  0.1728  0.7820 -1.2862
27013SOL    HW284538  10.362   8.862   5.403  0.2406  1.1493 -0.3217
27014SOL     OW84539   0.438   8.214   5.551 -0.1711 -0.2493 -0.1201
27014SOL    HW184540   0.501   8.283   5.532 -0.4676  0.3776  1.0469
27014SOL    HW284541   0.481   8.133   5.525 -0.2077  0.4241 -2.4906
27015SOL     OW84542   0.884   9.176   3.182 -0.2208 -0.7159 -0.2445
27015SOL    HW184543   0.942   9.221   3.120  0.7016  1.1587  1.8259
27015SOL    HW284544   0.796   9.200   3.154  0.2190  1.7627  0.2246
27016SOL     OW84545   1.251   3.571   5.668 -0.1714 -0.3530  0.2929
27016SOL    HW184546   1.289   3.530   5.745 -2.6196 -1.5243  0.9965
27016SOL    HW284547   1.270   3.664   5.677  2.0159 -0.7891  0.7782
27017SOL     OW84548   9.446  10.000   6.256  0.1762  0.0779  0.8224
27017SOL    HW184549   9.499   9.929   6.291 -0.6700 -1.4053 -0.7405
27017SOL    HW284550   9.380   9.956   6.202  0.3607  2.1075 -1.1897
27018SOL     OW84551   8.192   3.864   7.723 -0.0007  0.1745 -0.4298
27018SOL    HW184552   8.197   3.959   7.731  1.3275 -0.0108  1.4864
27018SOL    HW284553   8.189   3.848   7.628 -3.7099  2.2041 -0.8360
27019SOL     OW84554   6.477   5.699   9.990 -0.2124  0.0708 -0.8705
27019SOL    HW184555   6.405   5.666  10.043  0.1759  2.3377  1.2530
27019SOL    HW284556   6.549   5.638  10.008 -1.0934 -1.2921 -1.7653
27020SOL     OW84557   7.753   4.310   4.091  0.0596  0.1666  0.1486
27020SOL    HW184558   7.745   4.357   4.174 -1.2513  0.0858  0.0871
27020SOL    HW284559   7.822   4.357   4.044 -0.6246  1.5224  0.4388
27021SOL     OW84560   1.123   1.710   0.196 -0.0957  0.1253  0.9509
27021SOL    HW184561   1.081   1.660   0.126 -0.6401  0.8156  0.7745
27021SOL    HW284562   1.216   1.707   0.175 -0.3168  0.9923 -0.2587
27022SOL     OW84563  10.872   4.996  10.754 -0.0114  0.4020 -0.2391
27022SOL    HW184564  10.832   4.915  10.722 -1.4731  0.0223  2.3010
27022SOL    HW284565  10.963   4.972  10.771 -0.3208 -0.5858  0.0873
27023SOL     OW84566   5.064  10.061   6.717 -0.0728  0.1072 -0.0150
27023SOL    HW184567   5.043  10.123   6.787 -0.7884  1.0777 -1.0567
27023SOL    HW284568   5.105   9.987   6.762  0.0427  0.9702  1.3496
27024SOL     OW84569   9.667   4.895   1.787 -0.9717 -0.1496 -0.1002
27024SOL    HW184570   9.738   4.955   1.763 -0.2920 -0.5463  0.8725
27024SOL    HW284571   9.636   4.861   1.703 -0.3690  0.4262 -0.5753
27025SOL     OW84572   4.020   9.462   0.324 -0.0058  0.1038 -0.6320
27025SOL    HW184573   3.954   9.532   0.321 -1.0680 -0.8235  0.1731
27025SOL    HW284574   3.969   9.381   0.323  1.1530 -0.6501 -0.4738
27026SOL     OW84575   3.909   0.057   7.148  0.0416 -0.6275  0.2024
27026SOL    HW184576   3.961   0.033   7.071 -1.8992 -1.6852 -0.8556
27026SOL    HW284577   3.933   0.148   7.165  0.9759 -0.5533 -1.2756
27027SOL     OW84578   3.703   4.297   4.508  0.2104  0.0750 -0.3733
27027SOL    HW184579   3.776   4.235   4.501  0.6360  0.5627 -0.3568
27027SOL    HW284580   3.706   4.347   4.427  0.0846  0.3030 -0.2399
27028SOL     OW84581   9.877   1.168   7.868 -0.4569  0.0565 -0.1686
27028SOL    HW184582   9.818   1.094   7.881  0.2914 -0.9083 -1.8859
27028SOL    HW284583   9.827   1.244   7.898 -1.8431 -0.9377  0.1562
27029SOL     OW84584   6.545   9.686   1.377  0.0011  0.8021 -0.5374
27029SOL    HW184585   6.544   9.781   1.369 -1.3194  0.7938 -0.6988
27029SOL    HW284586   6.579   9.669   1.464  0.3838  1.4207 -0.5679
27030SOL     OW84587   1.668   4.987   7.586 -0.2680 -0.0679 -0.2053
27030SOL    HW184588   1.659   4.932   7.663  0.5959 -0.4013 -0.3365
27030SOL    HW284589   1.750   5.035   7.599 -0.5215  0.4784 -0.5400
27031SOL     OW84590   9.699   5.919   0.980 -0.0283 -0.2525 -0.0385
27031SOL    HW184591   9.751   5.960   1.050 -0.7247 -0.2218  0.4763
27031SOL    HW284592   9.661   5.842   1.022 -2.8328  1.3165  0.5514
27032SOL     OW84593  10.084   4.850   3.803  0.3305 -0.5950  0.6899
27032SOL    HW184594  10.051   4.928   3.759 -0.7791 -1.9133 -0.9745
27032SOL    HW284595  10.022   4.835   3.874  0.0405 -0.4295  0.4777
27033SOL     OW84596   5.137   2.876   1.381 -0.1076  0.1907  0.4768
27033SOL    HW184597   5.109   2.791   1.416  0.8671 -0.4433 -0.2340
27033SOL    HW284598   5.191   2.854   1.305  1.0729  1.4196  0.9259
27034SOL     OW84599   4.510   4.255   3.172 -0.3983  0.1891  0.4500
27034SOL    HW184600   4.470   4.174   3.204 -2.7344  0.9973 -0.2650
27034SOL    HW284601   4.544   4.231   3.086 -0.8433 -0.1001  0.3500
27035SOL     OW84602   7.953   3.109   4.131 -0.6622  0.2314  0.3991
27035SOL    HW184603   7.968   3.122   4.224  0.6652  1.4506  0.0700
27035SOL    HW284604   7.963   3.197   4.093 -1.1100 -0.2471 -0.8868
27036SOL     OW84605   4.139   1.995   3.135  0.6413 -0.0833 -0.0979
27036SOL    HW184606   4.203   1.973   3.068  0.4751 -2.2946  0.3914
27036SOL    HW284607   4.169   2.079   3.170  0.6984  1.1743 -2.8966
27037SOL     OW84608   6.541   8.312  10.004  0.0924 -0.4074 -0.6623
27037SOL    HW184609   6.512   8.314   9.913  2.0623  1.6252 -1.3261
27037SOL    HW284610   6.470   8.354  10.052  0.3407  1.3549 -1.7482
27038SOL     OW84611   3.740  10.434   0.073  0.0136 -0.2002  0.5012
27038SOL    HW184612   3.716  10.487  -0.003  1.4998  1.1991  0.9511
27038SOL    HW284613   3.748  10.345   0.038 -0.6871  0.1801 -0.6786
27039SOL     OW84614   3.244   6.553   1.351 -0.2068 -0.2161 -0.2345
27039SOL    HW184615   3.158   6.533   1.314 -1.2117 -0.5616  2.0539
27039SOL    HW284616   3.243   6.647   1.364 -0.0032 -0.1434 -0.7430
27040SOL     OW84617   8.960   9.024  10.552 -0.0787  0.2960  0.1419
27040SOL    HW184618   8.942   9.012  10.458 -2.3190 -2.3078  0.7876
27040SOL    HW284619   8.881   9.067  10.586 -0.0013 -0.2803  1.0857
27041SOL     OW84620  10.378   1.508  10.836  0.0131  0.3776 -0.0609
27041SOL    HW184621  10.467   1.542  10.833  0.4098 -0.3150  2.0885
27041SOL    HW284622  10.323   1.586  10.850 -0.0274  1.0886 -3.4584
27042SOL     OW84623   2.726  10.706   3.521 -0.2633 -0.0436 -0.5871
27042SOL    HW184624   2.731  10.648   3.597  0.0524  0.5216 -0.1651
27042SOL    HW284625   2.707  10.648   3.448 -1.1229 -0.5347  0.0071
27043SOL     OW84626   3.803   0.046   1.046 -0.0337  0.1859 -0.2174
27043SOL    HW184627   3.722  -0.002   1.063 -0.5189  0.8269 -0.6286
27043SOL    HW284628   3.845  -0.002   0.975 -0.1931 -0.0041 -0.1831
27044SOL     OW84629   9.359   8.723   3.261  0.5861 -0.1520  0.5365
27044SOL    HW184630   9.299   8.681   3.323  1.7338 -2.3940  0.2228
27044SOL    HW284631   9.442   8.730   3.309  0.9360 -0.0402 -0.0730
27045SOL     OW84632   6.926   4.261   1.915  0.5984  0.4907  0.0493
27045SOL    HW184633   6.915   4.334   1.976 -0.4167 -0.0175  0.4978
27045SOL    HW284634   6.839   4.250   1.876  0.5858 -0.8575  0.4287
27046SOL     OW84635   9.218   7.217   8.133  0.8039  0.2277  0.1614
27046SOL    HW184636   9.255   7.137   8.094  0.7331  0.8459 -1.2580
27046SOL    HW284637   9.248   7.215   8.224  0.3430 -1.6864  0.3270
27047SOL     OW84638   7.444   4.606  10.701  0.0871  0.0358  0.3736
27047SOL    HW184639   7.351   4.625  10.694 -0.0548  0.3087  2.3908
27047SOL    HW284640   7.487   4.690  10.686 -0.0483  0.1208  0.4658
27048SOL     OW84641   1.308   2.296   8.559 -0.1539 -0.1708  0.2173
27048SOL    HW184642   1.246   2.345   8.613  0.4668 -0.7483  1.4806
27048SOL    HW284643   1.263   2.214   8.538  0.2113 -0.6386  1.2294
27049SOL     OW84644   7.651   8.324   1.157  0.3343  0.4810  0.0520
27049SOL    HW184645   7.697   8.401   1.189  0.9482 -0.2763  1.0424
27049SOL    HW284646   7.558   8.343   1.173  0.3776  1.4779 -0.7760
27050SOL     OW84647   8.122  10.709   6.546 -0.0246 -0.5179 -0.0883
27050SOL    HW184648   8.096  10.653   6.619 -1.2176  1.6320  1.2515
27050SOL    HW284649   8.205  10.748   6.575 -1.2593  1.5447  0.9558
27051SOL     OW84650   0.867   9.123   3.768 -0.4149 -0.5122  0.4995
27051SOL    HW184651   0.792   9.142   3.711  0.4280 -1.2754 -0.9308
27051SOL    HW284652   0.828   9.101   3.852 -1.7581 -0.0902  0.0211
27052SOL     OW84653   6.390   0.954   4.063 -0.8727 -0.5099  0.3217
27052SOL    HW184654   6.379   0.875   4.116 -0.9479 -1.1525 -0.6383
27052SOL    HW284655   6.300   0.980   4.041 -0.8117 -0.9394 -0.4810
27053SOL     OW84656   9.165   1.502   9.293 -0.1166 -0.2556 -0.2004
27053SOL    HW184657   9.102   1.511   9.223  0.6098  0.1436 -0.8206
27053SOL    HW284658   9.235   1.447   9.256  2.4230  3.3816 -1.4047
27054SOL     OW84659   8.021   8.542   2.438  0.5843  0.1073 -0.1465
27054SOL    HW184660   8.053   8.484   2.508 -0.7152 -1.3553 -0.7043
27054SOL    HW284661   7.987   8.482   2.372 -0.7150  1.5344 -0.8095
27055SOL     OW84662   9.230   0.590  10.918  0.6575 -0.0149  0.4362
27055SOL    HW184663   9.314   0.614  10.878 -0.0544 -0.8656 -1.7226
27055SOL    HW284664   9.175   0.564  10.844 -0.6650 -2.0875  2.0418
27056SOL     OW84665  10.955   0.631   1.129  0.4142 -0.2651 -0.3171
27056SOL    HW184666  10.942   0.725   1.129  2.3562  0.0515 -1.4741
27056SOL    HW284667  10.988   0.611   1.217  0.7447  0.2646 -0.3195
27057SOL     OW84668  10.487  10.987   0.419 -0.1459  0.6589 -0.0681
27057SOL    HW184669  10.560  11.045   0.397 -0.0469  0.9250  0.9147
27057SOL    HW284670  10.466  11.009   0.510  0.1200 -1.0830  0.4464
27058SOL     OW84671   4.673   4.446   5.924 -0.0849 -0.2545 -0.2207
27058SOL    HW184672   4.681   4.484   5.837 -1.0263 -0.6156 -0.4696
27058SOL    HW284673   4.764   4.430   5.952  0.2129 -0.2831 -1.1882
27059SOL     OW84674   9.504   7.983   8.362  0.2411 -0.0466  0.0376
27059SOL    HW184675   9.423   7.961   8.408 -0.2957  0.1727 -0.7853
27059SOL    HW284676   9.525   7.904   8.312  0.0422  0.1974 -0.4405
27060SOL     OW84677   3.746   5.249   4.911  0.1685  0.0627 -0.1776
27060SOL    HW184678   3.657   5.283   4.905  0.2882  0.6285  0.9544
27060SOL    HW284679   3.777   5.279   4.996  1.1540 -0.8287 -0.2046
27061SOL     OW84680   2.839  10.637   6.851  0.0231 -0.0373  0.0811
27061SOL    HW184681   2.791  10.577   6.908 -0.8164 -1.4616 -2.0081
27061SOL    HW284682   2.931  10.622   6.873 -0.2900 -0.2815  1.2867
27062SOL     OW84683   3.493   5.109   1.866 -0.2860 -0.3354 -0.4900
27062SOL    HW184684   3.552   5.144   1.933 -0.4765  1.7188 -1.3156
27062SOL    HW284685   3.476   5.019   1.893 -1.7092  0.8518  3.1794
27063SOL     OW84686   3.608   4.454  10.943 -0.3845 -0.0404  0.5708
27063SOL    HW184687   3.617   4.484  11.033 -0.9790 -1.5696  1.1704
27063SOL    HW284688   3.526   4.404  10.942 -0.0053 -0.6800 -0.6333
27064SOL     OW84689   3.748   7.733   5.950  0.3934  0.5341  0.1016
27064SOL    HW184690   3.753   7.709   5.858 -1.4410  0.9096 -0.1295
27064SOL    HW284691   3.655   7.725   5.972  0.8801 -0.2781  2.1252
27065SOL     OW84692   2.571   8.257   9.954  0.2288  0.4090 -0.1793
27065SOL    HW184693   2.590   8.222  10.041 -0.0978  0.6043 -0.0307
27065SOL    HW284694   2.656   8.287   9.922  0.1917  1.2673  0.4826
27066SOL     OW84695  10.053   7.393  10.122  0.3617 -0.2609  0.4934
27066SOL    HW184696  10.078   7.450  10.195  1.4852 -1.9286  1.4700
27066SOL    HW284697  10.134   7.376  10.075 -0.0001 -0.8272  0.0518
27067SOL     OW84698   9.735   9.647   2.844 -0.5772  0.4504 -0.2523
27067SOL    HW184699   9.751   9.599   2.926 -2.1984 -0.3697 -0.3843
27067SOL    HW284700   9.807   9.710   2.840 -0.3898  0.4575  1.7590
27068SOL     OW84701   9.515   7.997   9.384  0.2104 -0.3834  1.4644
27068SOL    HW184702   9.468   8.080   9.379  0.2112 -0.4025  1.0969
27068SOL    HW284703   9.549   7.983   9.295 -1.2459 -1.6195  1.0637
27069SOL     OW84704   6.503   9.918   0.597 -0.0766 -0.1731  0.4348
27069SOL    HW184705   6.484   9.851   0.664  0.6788  1.0410  1.9212
27069SOL    HW284706   6.570   9.878   0.543  0.3259 -0.6647  1.2708
27070SOL     OW84707   8.064   0.402   5.010  0.2492 -0.6552 -1.0130
27070SOL    HW184708   7.999   0.443   4.954 -0.9591  0.0182  0.7628
27070SOL    HW284709   8.135   0.466   5.016 -1.4863  1.2670  1.4910
27071SOL     OW84710  10.370  10.579   1.337 -0.1400 -0.1645 -0.4071
27071SOL    HW184711  10.459  10.571   1.302 -0.1714  1.2659 -0.8928
27071SOL    HW284712  10.382  10.609   1.427 -0.1196 -1.4176  0.0292
27072SOL     OW84713   1.423   9.902   6.465 -0.0764  0.5681 -0.5998
27072SOL    HW184714   1.341   9.877   6.507  1.1225  0.1099  1.5904
27072SOL    HW284715   1.466   9.960   6.527  2.7372 -1.7932 -0.1113
27073SOL     OW84716   5.479   8.391   5.274 -0.2082 -0.0072 -0.1056
27073SOL    HW184717   5.445   8.480   5.277  0.3314  0.2673 -1.3508
27073SOL    HW284718   5.429   8.349   5.204 -1.5614 -1.1975  1.4966
27074SOL     OW84719   7.332   8.939   8.040  0.0908 -0.0612  0.2452
27074SOL    HW184720   7.273   8.905   7.973 -1.4860  0.5287  1.2775
27074SOL    HW284721   7.351   8.863   8.095  1.0755 -0.4596 -0.6308
27075SOL     OW84722   2.228   8.867   0.065 -0.5549 -0.1911 -0.3948
27075SOL    HW184723   2.302   8.813   0.038 -0.7911  0.0125 -1.4933
27075SOL    HW284724   2.155   8.834   0.013 -1.0345  0.2095  0.0219
27076SOL     OW84725   5.278   9.235   7.147  0.2345 -0.0375  0.0329
27076SOL    HW184726   5.187   9.217   7.122  0.3618 -0.9222  0.1820
27076SOL    HW284727   5.271   9.275   7.234  0.0610 -1.7237  0.8364
27077SOL     OW84728   1.507   1.049   2.666  0.9591 -0.3066 -0.7129
27077SOL    HW184729   1.431   1.039   2.607  1.9899 -1.5210 -1.9029
27077SOL    HW284730   1.469   1.049   2.754 -0.4852 -0.1931 -1.3000
27078SOL     OW84731   2.357  10.435   1.148  0.0765  0.4001  0.2447
27078SOL    HW184732   2.322  10.494   1.082  0.0146 -0.7080 -0.7332
27078SOL    HW284733   2.353  10.348   1.108  2.6091  0.0312  0.6308
27079SOL     OW84734  10.776   2.611   7.813 -0.3253 -0.2766 -0.1056
27079SOL    HW184735  10.785   2.520   7.783 -1.0854 -0.0568 -1.0525
27079SOL    HW284736  10.683   2.630   7.806 -0.0840  0.8006 -0.6217
27080SOL     OW84737   7.163   0.241   9.526 -0.0260  0.5245 -0.5378
27080SOL    HW184738   7.242   0.188   9.522 -1.0959 -1.3580  1.4389
27080SOL    HW284739   7.192   0.326   9.558  1.1796 -0.1999  0.3368
27081SOL     OW84740   1.634   3.791   2.262 -0.1794  0.3666 -0.1420
27081SOL    HW184741   1.547   3.751   2.259 -0.6530  1.4082 -2.3418
27081SOL    HW284742   1.622   3.878   2.223  1.4273  1.4612  1.6329
27082SOL     OW84743   7.564   0.283  10.830  0.3977 -0.8072 -0.8373
27082SOL    HW184744   7.602   0.263  10.916  2.1792 -0.7910 -1.5914
27082SOL    HW284745   7.588   0.374  10.814 -1.9879 -0.0112 -0.3541
27083SOL     OW84746   5.209   9.425   6.179  0.4851  0.2554  0.0779
27083SOL    HW184747   5.121   9.463   6.189  0.8805  1.1086  0.3750
27083SOL    HW284748   5.222   9.419   6.084  0.0060 -0.1141  0.0332
27084SOL     OW84749   2.985   4.319   2.475  0.3437 -0.0400 -0.4306
27084SOL    HW184750   2.963   4.283   2.561  1.1429  0.2378 -0.0990
27084SOL    HW284751   2.947   4.407   2.476  1.5465  0.4895  0.1920
27085SOL     OW84752   3.398   4.836   5.595 -0.6500  0.0430  0.0417
27085SOL    HW184753   3.486   4.799   5.601 -0.3514  0.6183 -0.6092
27085SOL    HW284754   3.371   4.818   5.505 -0.9955  0.3096  0.0914
27086SOL     OW84755   3.917   5.853   4.528  0.0322  0.2281 -0.1903
27086SOL    HW184756   3.938   5.796   4.454  1.0218  0.5776 -0.1807
27086SOL    HW284757   3.843   5.809   4.571  0.4525 -0.7933 -0.4704
27087SOL     OW84758  10.770   2.903   2.462 -0.1916  0.0275  0.6098
27087SOL    HW184759  10.719   2.823   2.452 -1.1207  0.7330 -0.4674
27087SOL    HW284760  10.726   2.950   2.533  0.0635 -0.1753  0.9095
27088SOL     OW84761   1.224   4.410   0.995 -0.3676 -0.1028 -0.1330
27088SOL    HW184762   1.290   4.341   1.000 -1.5010 -1.3052 -1.1296
27088SOL    HW284763   1.255   4.468   0.925 -0.1895 -0.4570 -0.3474
27089SOL     OW84764   0.826   3.631   5.513  0.2029  0.0728 -0.3161
27089SOL    HW184765   0.817   3.715   5.558 -0.0966 -1.0176  1.7793
27089SOL    HW284766   0.737   3.602   5.499  0.2132  1.1410 -3.2766
27090SOL     OW84767   7.969  10.094   7.390 -0.5785 -0.1124  0.1861
27090SOL    HW184768   8.045  10.143   7.359  0.0565  0.1430  2.0231
27090SOL    HW284769   7.967  10.110   7.484 -2.0531 -1.3079  0.3930
27091SOL     OW84770  10.803   4.538  10.750 -0.6620  0.1139  0.2995
27091SOL    HW184771  10.761   4.464  10.795  1.0691 -2.0013 -1.3461
27091SOL    HW284772  10.876   4.562  10.806  1.0767 -2.0607 -0.8849
27092SOL     OW84773   7.752   5.216   4.766 -0.2488  0.3872  0.1478
27092SOL    HW184774   7.707   5.132   4.764 -0.7955  0.6551  0.7885
27092SOL    HW284775   7.725   5.260   4.686  0.3441 -0.1883 -0.3869
27093SOL     OW84776   4.183   0.988   7.121  0.3481 -0.1056 -0.0224
27093SOL    HW184777   4.266   1.021   7.087  0.9902  0.0889  1.6115
27093SOL    HW284778   4.188   1.005   7.215 -1.5269 -0.1680  0.1184
27094SOL     OW84779   4.061   5.767   7.602 -0.0204  0.2273 -0.0556
27094SOL    HW184780   4.069   5.692   7.662  4.0268  0.9944  0.6794
27094SOL    HW284781   4.098   5.735   7.520 -2.1417  0.2977 -1.1075
27095SOL     OW84782   4.020   6.686   3.508  0.1257 -0.4589 -0.7617
27095SOL    HW184783   4.065   6.685   3.592 -1.1572 -0.6767 -0.0532
27095SOL    HW284784   4.034   6.599   3.471 -2.5317 -1.7900  1.0518
27096SOL     OW84785   9.024   1.890   9.129  0.1092 -0.0717 -0.5050
27096SOL    HW184786   8.931   1.867   9.134 -0.0528  0.5136 -0.7543
27096SOL    HW284787   9.058   1.839   9.056 -0.0905 -0.0348 -0.6228
27097SOL     OW84788   6.250   6.534   3.464  0.0447  0.0069 -0.2992
27097SOL    HW184789   6.279   6.601   3.403 -0.7078 -0.7215 -1.4923
27097SOL    HW284790   6.159   6.518   3.440  0.2757 -1.6025 -0.2064
27098SOL     OW84791   8.132   9.415   7.663  0.5207  0.2454 -0.9045
27098SOL    HW184792   8.137   9.438   7.756  1.7705  2.6766 -1.4892
27098SOL    HW284793   8.220   9.386   7.641  0.2923 -0.0834 -1.3746
27099SOL     OW84794   0.381   8.031   3.649  0.6570 -0.4101 -0.2786
27099SOL    HW184795   0.365   7.939   3.626  0.5098 -0.7109  0.9074
27099SOL    HW284796   0.445   8.026   3.721  0.9984  0.4473 -0.5120
27100SOL     OW84797   1.147   1.683  10.823  0.0417 -0.0486  0.0035
27100SOL    HW184798   1.063   1.688  10.868 -0.5062 -1.0444 -0.8514
27100SOL    HW284799   1.204   1.744  10.870 -1.5593  1.7339 -0.2701
27101SOL     OW84800   4.295   3.816   7.395 -0.6985 -0.4770  0.2217
27101SOL    HW184801   4.344   3.897   7.383 -1.5371  0.0565  0.3002
27101SOL    HW284802   4.212   3.844   7.435 -1.3425 -1.2729 -0.5247
27102SOL     OW84803   4.777  10.344   2.430  0.0333 -0.3211 -0.3860
27102SOL    HW184804   4.699  10.303   2.391  0.5910 -0.7579 -1.0608
27102SOL    HW284805   4.768  10.436   2.408  0.4479 -0.5918 -1.7696
27103SOL     OW84806   3.208   9.539   2.652  0.0305 -0.2216 -0.1008
27103SOL    HW184807   3.299   9.513   2.663  0.0523 -0.1374 -0.0836
27103SOL    HW284808   3.185   9.513   2.563  1.0320  2.6640 -1.3110
27104SOL     OW84809   5.459   8.649   7.636 -0.3409 -0.2775 -0.0383
27104SOL    HW184810   5.474   8.555   7.647 -0.2428 -0.2337  0.2112
27104SOL    HW284811   5.490   8.688   7.718 -1.6031 -0.1594  0.4021
27105SOL     OW84812   9.716   3.499   7.743  0.5107 -0.3370  0.1182
27105SOL    HW184813   9.636   3.547   7.718  0.1221 -0.4190  1.1396
27105SOL    HW284814   9.691   3.407   7.737  0.3359 -0.3536  1.0126
27106SOL     OW84815   8.393   8.588   2.105 -0.2094  0.1659 -0.2627
27106SOL    HW184816   8.474   8.614   2.062  0.3378 -0.1200  0.5556
27106SOL    HW284817   8.351   8.528   2.043 -0.6160  1.5876 -1.3914
27107SOL     OW84818   8.828   6.243   3.721  0.5143 -0.0347 -0.4466
27107SOL    HW184819   8.840   6.148   3.724 -0.3028 -0.1603 -0.9101
27107SOL    HW284820   8.800   6.261   3.632  3.2982  0.9928 -1.2207
27108SOL     OW84821   5.293   9.200   5.584 -0.0294  0.2502 -0.5060
27108SOL    HW184822   5.326   9.287   5.562 -0.1168 -0.0156 -1.7900
27108SOL    HW284823   5.233   9.179   5.512  0.2977 -1.0269 -0.4263
27109SOL     OW84824   0.197   4.334   2.672 -0.1960 -0.2764 -0.0804
27109SOL    HW184825   0.153   4.340   2.587 -0.2969  2.1640  0.0722
27109SOL    HW284826   0.286   4.366   2.656 -0.5092  1.1571  0.8947
27110SOL     OW84827   2.890   5.302   8.957  0.1471 -0.1272 -0.0218
27110SOL    HW184828   2.820   5.367   8.959  1.3063  1.1805  2.2154
27110SOL    HW284829   2.965   5.349   8.921 -0.1172 -1.6534 -2.8949
27111SOL     OW84830   5.830   4.653   1.065  0.3054  0.3631 -0.6497
27111SOL    HW184831   5.880   4.603   1.130 -1.0142  0.6395  0.6257
27111SOL    HW284832   5.853   4.745   1.084 -0.9635  0.5246  0.2418
27112SOL     OW84833   3.130  10.283   5.254  0.1002 -0.3458  0.1303
27112SOL    HW184834   3.192  10.321   5.317  0.6440 -1.2723  0.1768
27112SOL    HW284835   3.144  10.188   5.261  1.4206 -0.4470 -2.5850
27113SOL     OW84836   1.903   3.594   9.719  0.2196  0.1017  0.0726
27113SOL    HW184837   1.823   3.556   9.757 -0.2142  0.4621 -0.4588
27113SOL    HW284838   1.880   3.686   9.702  0.7652  0.2220 -0.0336
27114SOL     OW84839   7.987   2.101   9.287 -0.1060 -0.3971 -0.0627
27114SOL    HW184840   7.935   2.167   9.241 -0.2160  0.7364  1.5941
27114SOL    HW284841   8.077   2.119   9.258 -0.1516  0.4053  0.2503
27115SOL     OW84842   0.581   7.011  10.770 -0.1885  0.0176 -0.1880
27115SOL    HW184843   0.676   7.016  10.775  0.1134 -2.5088 -1.6910
27115SOL    HW284844   0.559   6.924  10.803 -1.8489  0.0585 -1.0379
27116SOL     OW84845   9.536   5.064   6.921  0.5145  0.1932 -0.3147
27116SOL    HW184846   9.546   5.159   6.921  2.0427  0.1765  3.2084
27116SOL    HW284847   9.449   5.049   6.958  0.4031  0.1836 -0.5738
27117SOL     OW84848   9.354   0.287   3.155  0.0195  0.1786 -0.0560
27117SOL    HW184849   9.275   0.236   3.141  0.1576  0.4283 -1.9451
27117SOL    HW284850   9.400   0.285   3.071  1.2316  1.3633  0.5359
27118SOL     OW84851   2.490   2.308   0.666 -0.3165  0.3220  0.0651
27118SOL    HW184852   2.568   2.261   0.636  0.1395  0.0891  1.5495
27118SOL    HW284853   2.442   2.245   0.718 -0.7407  0.9115  0.4018
27119SOL     OW84854  10.759   8.677   0.349 -0.2992  0.6598  0.2906
27119SOL    HW184855  10.807   8.681   0.266 -0.4166  0.9126  0.2326
27119SOL    HW284856  10.740   8.584   0.362  1.0184  0.4345  0.7790
27120SOL     OW84857   2.668  10.142   2.595 -0.4448  0.0705 -0.4220
27120SOL    HW184858   2.750  10.188   2.613 -0.2060  0.0902 -1.5075
27120SOL    HW284859   2.691  10.077   2.529 -0.8317 -1.4487  0.8739
27121SOL     OW84860   1.270   3.399  10.656 -0.2461 -0.1142 -0.0232
27121SOL    HW184861   1.215   3.476  10.667  0.9282  0.7681 -0.1356
27121SOL    HW284862   1.360   3.432  10.663  0.3987 -0.9083 -3.1534
27122SOL     OW84863   1.363   1.261   5.885  0.5355 -0.1596  0.0005
27122SOL    HW184864   1.447   1.307   5.886  0.7158 -0.4842 -0.0089
27122SOL    HW284865   1.372   1.196   5.815 -0.3930  1.0250 -1.2605
27123SOL     OW84866   3.678   0.797   1.613 -0.1478 -0.5365 -0.3266
27123SOL    HW184867   3.699   0.706   1.635 -0.6931 -0.9412 -1.4398
27123SOL    HW284868   3.669   0.798   1.518 -2.4106  0.2056 -0.1529
27124SOL     OW84869  10.643   9.798   0.970 -0.3680 -0.4751  0.0457
27124SOL    HW184870  10.649   9.860   0.898 -0.9786 -0.8479 -0.3363
27124SOL    HW284871  10.665   9.713   0.932 -1.6150 -0.8269  0.0518
27125SOL     OW84872   9.399   2.064   0.837 -0.8791  0.0081 -0.1462
27125SOL    HW184873   9.444   2.141   0.872 -0.4765 -0.9417  1.5490
27125SOL    HW284874   9.314   2.064   0.882 -0.8346 -0.5786 -0.0515
27126SOL     OW84875   5.260   9.952   2.554  0.4273 -0.5134  0.6603
27126SOL    HW184876   5.188   9.894   2.577  0.0488 -0.3866 -0.1593
27126SOL    HW284877   5.336   9.894   2.546 -0.2635 -1.2316 -1.7874
27127SOL     OW84878   4.456   6.619   6.456 -0.0752 -0.2655 -0.5418
27127SOL    HW184879   4.457   6.692   6.518  1.0134 -0.2966 -0.5032
27127SOL    HW284880   4.513   6.648   6.385  1.3959 -1.5557  0.0620
27128SOL     OW84881   7.768   1.542   2.356 -0.3953 -0.3415 -0.2452
27128SOL    HW184882   7.863   1.548   2.357 -0.4526  0.8190  0.9131
27128SOL    HW284883   7.747   1.514   2.267  0.9587  0.6549 -0.9238
27129SOL     OW84884   1.913  10.471   7.271  0.3760  0.0227  0.4269
27129SOL    HW184885   1.936  10.485   7.363  2.5941  1.5148 -0.2683
27129SOL    HW284886   1.997  10.472   7.225 -0.7630  0.5518 -1.7815
27130SOL     OW84887   8.840   6.753   0.281 -0.6710  0.1435 -0.1069
27130SOL    HW184888   8.906   6.781   0.218 -0.7900 -1.9173 -1.2362
27130SOL    HW284889   8.760   6.799   0.254 -0.3091  0.6273 -0.3697
27131SOL     OW84890   3.774  10.797   8.208  0.8173  0.4184  0.0531
27131SOL    HW184891   3.789  10.764   8.296 -0.4046 -0.2585  0.0323
27131SOL    HW284892   3.761  10.718   8.155 -1.3417  0.8420 -0.1486
27132SOL     OW84893   9.300   3.885   8.218  0.3478  0.2532 -0.3808
27132SOL    HW184894   9.327   3.880   8.310  1.2129  1.4393 -0.5548
27132SOL    HW284895   9.224   3.943   8.219 -0.3657 -0.6477 -0.2936
27133SOL     OW84896  10.738   7.595  10.094  0.3797  0.4772 -0.1169
27133SOL    HW184897  10.743   7.605   9.999  0.4635 -0.0225 -0.1696
27133SOL    HW284898  10.793   7.665  10.129  0.8243  0.3007 -0.4555
27134SOL     OW84899   9.242   4.751   5.854  0.3157 -0.0300  0.0071
27134SOL    HW184900   9.207   4.744   5.943 -0.1304  0.3192 -0.1354
27134SOL    HW284901   9.333   4.724   5.861  0.3134  0.1096  0.5927
27135SOL     OW84902   0.096   3.859   3.997  0.0323  0.1212  0.0531
27135SOL    HW184903   0.167   3.885   4.056 -0.9866 -1.3283  2.0275
27135SOL    HW284904   0.027   3.826   4.055 -1.5727 -0.1355 -1.9013
27136SOL     OW84905   3.913   8.877   8.291 -0.3082  0.7152  0.2450
27136SOL    HW184906   3.828   8.839   8.312  0.3671 -1.6093 -0.9334
27136SOL    HW284907   3.910   8.890   8.196  0.2386  1.7651  0.3588
27137SOL     OW84908   1.793   8.384   7.045 -0.6781 -0.1752  0.1764
27137SOL    HW184909   1.766   8.389   6.954 -2.5512  1.1882  0.7572
27137SOL    HW284910   1.884   8.354   7.041  0.0509  2.0019 -2.2583
27138SOL     OW84911   1.046   7.140  10.992 -0.0442  0.2087  0.3401
27138SOL    HW184912   1.086   7.098  11.069  1.0486  0.7299  0.0679
27138SOL    HW284913   1.087   7.227  10.988 -2.1162  1.2741  0.7753
27139SOL     OW84914   6.422  10.969   2.542  0.1083  0.3310  0.3400
27139SOL    HW184915   6.379  11.054   2.533  1.2028  0.7438 -1.7778
27139SOL    HW284916   6.395  10.920   2.464  1.5156 -0.2717  0.1966
27140SOL     OW84917   7.489   9.635  10.774 -0.1114 -0.1012  0.7840
27140SOL    HW184918   7.559   9.573  10.754 -1.3336 -1.5258  0.7554
27140SOL    HW284919   7.461   9.611  10.862 -2.0264 -1.0665 -0.0279
27141SOL     OW84920   7.024   3.327   6.197  0.3385  0.8087 -0.4662
27141SOL    HW184921   7.106   3.340   6.150  1.6278 -0.8273  1.1730
27141SOL    HW284922   6.975   3.265   6.144  0.6018  1.0351 -0.9748
27142SOL     OW84923   7.564   9.154   8.700  0.2881 -0.0742 -0.6985
27142SOL    HW184924   7.513   9.105   8.634  0.4481  1.0311 -1.6705
27142SOL    HW284925   7.655   9.144   8.671  0.3340  0.6596 -0.8271
27143SOL     OW84926   5.577   0.134   8.790 -0.0740 -0.1939 -0.1093
27143SOL    HW184927   5.514   0.157   8.721  0.8271 -0.1902 -0.9543
27143SOL    HW284928   5.652   0.099   8.742  1.1279  1.0787  0.7897
27144SOL     OW84929   4.623   1.657   2.177 -0.0814 -0.4367  0.2456
27144SOL    HW184930   4.548   1.607   2.144  0.0409 -1.4692  1.4462
27144SOL    HW284931   4.695   1.594   2.180  0.8704  0.5424 -0.8992
27145SOL     OW84932   7.539  10.736   4.588  0.3560 -0.0381  0.0218
27145SOL    HW184933   7.464  10.756   4.532 -0.8521 -0.1531  1.5409
27145SOL    HW284934   7.585  10.819   4.597 -1.5253  0.9211  1.7800
27146SOL     OW84935  10.024   3.892   5.159 -0.2076  0.4065 -0.1259
27146SOL    HW184936  10.032   3.987   5.146  0.2948  0.5801  1.2702
27146SOL    HW284937  10.103   3.868   5.208 -0.3865 -0.7271 -0.3643
27147SOL     OW84938  10.530   0.141   8.705  0.3200 -0.1854  0.4283
27147SOL    HW184939  10.580   0.187   8.637  2.4234 -2.2852  0.4277
27147SOL    HW284940  10.556   0.182   8.787  0.0417  0.4344  0.2068
27148SOL     OW84941   9.294   6.852   9.832  0.2306  0.1944  0.3904
27148SOL    HW184942   9.244   6.806   9.764  0.4353  1.4307 -0.6538
27148SOL    HW284943   9.266   6.812   9.914 -1.7360  0.1475 -0.2332
27149SOL     OW84944   5.317   1.205   6.711 -0.0582 -0.4321 -0.0683
27149SOL    HW184945   5.343   1.296   6.699 -0.9585 -0.4181 -2.4224
27149SOL    HW284946   5.374   1.156   6.652 -0.8616 -1.1636 -0.2570
27150SOL     OW84947   5.321   0.985   4.183  0.2879  0.3629 -0.4174
27150SOL    HW184948   5.333   0.891   4.197  1.1911  0.4688 -0.4182
27150SOL    HW284949   5.232   1.003   4.214 -0.7065 -0.8544 -2.3653
27151SOL     OW84950   7.983   8.903   2.317 -0.0942  0.4616 -0.6865
27151SOL    HW184951   8.038   8.957   2.373 -1.5906 -0.9587  2.4057
27151SOL    HW284952   8.041   8.835   2.283  0.6819  0.8390 -0.1273
27152SOL     OW84953   6.605   9.709  10.949 -0.1965 -0.4277  0.4197
27152SOL    HW184954   6.591   9.693  10.856 -0.7429  0.2530  0.3764
27152SOL    HW284955   6.516   9.717  10.986  0.0071 -1.0015  1.0552
27153SOL     OW84956   7.657   6.937   8.894 -0.1458 -0.0440  0.5418
27153SOL    HW184957   7.672   6.951   8.801 -0.1474 -0.1072  0.5319
27153SOL    HW284958   7.672   7.023   8.934  1.0297 -0.2648  0.6279
27154SOL     OW84959  10.052   3.943  10.839  0.0828  0.0879  0.1554
27154SOL    HW184960  10.056   3.876  10.771  2.3919  0.6140 -0.3046
27154SOL    HW284961  10.116   4.008  10.813 -0.9377  1.6968  1.4450
27155SOL     OW84962   7.543   7.461   8.533  0.2424 -0.4919  0.2395
27155SOL    HW184963   7.553   7.415   8.616 -1.0792  1.1944  1.3740
27155SOL    HW284964   7.478   7.409   8.485 -0.3759 -0.4652  1.0295
27156SOL     OW84965   8.489   5.760   1.056  0.2264  0.2889  0.3957
27156SOL    HW184966   8.560   5.758   0.992 -1.3024  1.1557 -1.3984
27156SOL    HW284967   8.420   5.706   1.018 -1.5746  2.5923  0.1545
27157SOL     OW84968   0.040   3.191   5.695 -0.0883  0.4216  0.3738
27157SOL    HW184969  -0.030   3.256   5.688  0.9911  1.6431  0.4866
27157SOL    HW284970   0.024   3.147   5.778 -1.6273 -0.4501 -0.3427
27158SOL     OW84971   7.307   9.132   5.228  0.3120  0.3146  0.0771
27158SOL    HW184972   7.333   9.207   5.175  0.7239  1.3232  1.6092
27158SOL    HW284973   7.212   9.125   5.216  0.6023 -0.5397 -2.0282
27159SOL     OW84974   1.870   7.666   7.766  0.2306  0.2184 -0.3467
27159SOL    HW184975   1.866   7.662   7.671  0.3453 -1.2111 -0.3214
27159SOL    HW284976   1.812   7.596   7.795 -0.7393  1.4052  0.6736
27160SOL     OW84977   1.510   1.850   3.563 -0.7009  0.2759 -0.0746
27160SOL    HW184978   1.488   1.939   3.592  0.9190  0.3267  1.0944
27160SOL    HW284979   1.495   1.795   3.640  0.2685 -0.1433 -0.1738
27161SOL     OW84980   0.448   9.270   0.829 -0.0457 -0.7247 -0.0438
27161SOL    HW184981   0.492   9.283   0.913 -0.0564 -0.1754 -0.1185
27161SOL    HW284982   0.355   9.280   0.850  0.0342  1.4101 -0.4392
27162SOL     OW84983   2.726   6.248   0.260  0.2172  0.4216  0.3435
27162SOL    HW184984   2.671   6.306   0.208 -1.8499 -0.7218  1.1207
27162SOL    HW284985   2.730   6.166   0.210  0.9135  0.3660  0.4779
27163SOL     OW84986   1.595   7.472   5.877  0.3711  0.2643  0.6130
27163SOL    HW184987   1.657   7.521   5.931  0.3594  2.9057 -1.5775
27163SOL    HW284988   1.640   7.459   5.793 -1.3746  0.7822 -0.4727
27164SOL     OW84989   5.559   0.508  10.958 -0.4445  0.4223  0.2955
27164SOL    HW184990   5.510   0.426  10.969  1.0300 -0.7171 -1.0975
27164SOL    HW284991   5.504   0.562  10.901 -0.0229 -0.9861 -1.5626
27165SOL     OW84992   3.422   3.077   2.162  0.2331 -0.1612 -0.8342
27165SOL    HW184993   3.428   3.038   2.075  0.4488  0.5454 -1.1402
27165SOL    HW284994   3.476   3.020   2.218  0.8508 -0.0842 -1.3494
27166SOL     OW84995   1.575   0.413   4.876  0.1469  1.0259  0.1002
27166SOL    HW184996   1.635   0.488   4.868  1.5324 -0.1707 -1.2805
27166SOL    HW284997   1.557   0.407   4.970 -1.2146  3.9611  0.1514
27167SOL     OW84998   2.461   9.806   0.314 -0.3485 -0.1819  0.2815
27167SOL    HW184999   2.511   9.842   0.387 -0.6959 -0.9530  0.9101
27167SOL    HW285000   2.412   9.733   0.352  3.1731 -3.8993 -1.6640
27168SOL     OW85001   1.566  10.551   9.921 -0.5618  0.8109 -0.1487
27168SOL    HW185002   1.574  10.501  10.002 -0.3482 -0.0538 -0.6947
27168SOL    HW285003   1.482  10.525   9.884 -0.5431  1.0067 -0.3331
27169SOL     OW85004   6.426   2.441   2.381  0.1483 -0.2654 -0.5929
27169SOL    HW185005   6.480   2.517   2.404  0.3533 -0.6610  0.2536
27169SOL    HW285006   6.336   2.470   2.394  0.2525 -0.4815  0.7943
27170SOL     OW85007   3.653   3.401   5.402  0.7553  0.6284 -0.3113
27170SOL    HW185008   3.729   3.365   5.356  0.0870  0.7632 -1.5380
27170SOL    HW285009   3.584   3.336   5.389  0.2672  1.1586 -0.3755
27171SOL     OW85010   9.598   6.054   3.956 -0.3102  0.3150 -0.0062
27171SOL    HW185011   9.671   6.057   3.894 -0.7577 -1.4517 -0.6777
27171SOL    HW285012   9.619   5.981   4.014 -1.8086 -0.6290 -0.5970
27172SOL     OW85013   7.870   4.973   8.390 -0.1610 -0.4746  0.5917
27172SOL    HW185014   7.952   4.971   8.439  0.6319  0.2871 -0.6813
27172SOL    HW285015   7.880   4.904   8.324  0.0956  0.6098 -0.5351
27173SOL     OW85016   6.074   3.420   1.661  0.2589 -0.0589  0.3420
27173SOL    HW185017   6.003   3.433   1.723 -0.0839  1.5627 -0.3339
27173SOL    HW285018   6.116   3.339   1.689 -1.6642 -0.9120  0.9189
27174SOL     OW85019   6.530   7.261   7.724 -0.1185  0.0917 -0.5367
27174SOL    HW185020   6.560   7.309   7.646  0.7435 -0.2948 -0.4605
27174SOL    HW285021   6.435   7.270   7.723 -0.2297 -0.7457 -2.2091
27175SOL     OW85022   7.323   1.022   6.400 -0.0500 -0.0093 -0.1658
27175SOL    HW185023   7.281   1.056   6.479 -0.9780 -0.5244 -0.4118
27175SOL    HW285024   7.405   1.071   6.393 -0.0622  0.2094  0.9783
27176SOL     OW85025   8.770   7.973   4.577 -0.1745 -0.2935 -0.1261
27176SOL    HW185026   8.708   8.008   4.513 -1.8619 -1.8953  0.5283
27176SOL    HW285027   8.719   7.967   4.658  1.6055  0.7432  1.1526
27177SOL     OW85028   3.714   2.761   7.794 -0.3403  0.3522 -0.0603
27177SOL    HW185029   3.777   2.691   7.774  3.0338  2.2198  2.9815
27177SOL    HW285030   3.679   2.738   7.880 -0.0300  1.7879  0.4748
27178SOL     OW85031   7.820  10.795   8.700  0.7316 -0.5699 -0.3199
27178SOL    HW185032   7.741  10.754   8.663  0.6810 -1.5950  0.8656
27178SOL    HW285033   7.864  10.723   8.746  2.0181  0.1465 -0.4099
27179SOL     OW85034   5.119   6.899   8.653  0.0628  0.0355 -0.1169
27179SOL    HW185035   5.135   6.858   8.738 -0.0098  0.3490  0.0521
27179SOL    HW285036   5.205   6.921   8.620  0.2124 -1.5633 -0.8819
27180SOL     OW85037   1.371  10.493   7.457 -0.4190 -0.3780 -0.3224
27180SOL    HW185038   1.285  10.489   7.499 -0.9117 -0.6189 -1.3223
27180SOL    HW285039   1.399  10.584   7.468 -0.6542 -0.3802  0.3057
27181SOL     OW85040   4.815   5.026   8.676  0.0926  0.1638 -0.4202
27181SOL    HW185041   4.812   5.116   8.644  0.7248 -0.2345 -1.6591
27181SOL    HW285042   4.723   4.999   8.680 -0.0422  0.5033 -1.1208
27182SOL     OW85043   2.666   5.311   8.486  0.7638  0.1356  0.3250
27182SOL    HW185044   2.751   5.287   8.524 -0.1151 -0.7276  1.8606
27182SOL    HW285045   2.602   5.282   8.552 -0.8413 -1.0900 -1.6723
27183SOL     OW85046   7.274   6.918   5.815  0.2697 -0.2081 -0.0289
27183SOL    HW185047   7.318   6.953   5.737 -0.0937 -0.0107 -0.1502
27183SOL    HW285048   7.183   6.905   5.787  0.4874 -1.7388 -0.1505
27184SOL     OW85049   3.062   2.270  11.007 -0.0572 -0.3395 -0.5682
27184SOL    HW185050   3.154   2.278  10.983 -0.0856  1.4985 -0.2540
27184SOL    HW285051   3.040   2.179  10.990  1.1223 -0.2369 -3.1834
27185SOL     OW85052   8.396   3.150   6.003  0.4524  0.7920  0.4617
27185SOL    HW185053   8.435   3.129   5.919 -2.7617 -2.1219 -0.5748
27185SOL    HW285054   8.417   3.075   6.059 -1.3839  0.3432  0.6291
27186SOL     OW85055   0.753   6.983   1.293  0.6465  0.3671 -0.3497
27186SOL    HW185056   0.814   6.922   1.334  0.1195  0.6286  0.8534
27186SOL    HW285057   0.704   6.930   1.230  2.3620  0.2297 -1.6625
27187SOL     OW85058   2.843   3.082   8.677 -0.1097  0.3118  0.2857
27187SOL    HW185059   2.815   3.071   8.768 -1.7713  0.3935 -0.1762
27187SOL    HW285060   2.818   3.172   8.655  0.0517  0.2115 -0.3225
27188SOL     OW85061   7.159   8.497   0.065  1.2064 -0.0171  0.0300
27188SOL    HW185062   7.247   8.462   0.055  0.4219 -1.7426 -1.4561
27188SOL    HW285063   7.135   8.526  -0.023  0.5673  1.1347  0.5738
27189SOL     OW85064   7.064   6.231   1.035 -0.5899 -0.0916  0.2024
27189SOL    HW185065   7.020   6.259   0.955  0.7039  0.3827 -0.3841
27189SOL    HW285066   7.115   6.154   1.008  0.6952  0.7017  0.2817
27190SOL     OW85067   1.716   1.528   2.550 -0.2547  0.2871  0.5047
27190SOL    HW185068   1.719   1.523   2.646 -1.0552 -1.1052  0.4831
27190SOL    HW285069   1.717   1.436   2.521 -0.1719  0.6850 -0.8216
27191SOL     OW85070  10.918   6.140   3.857 -0.0041 -0.2045  0.0690
27191SOL    HW185071  11.011   6.141   3.836 -0.3887 -1.6644 -2.0508
27191SOL    HW285072  10.891   6.232   3.854  1.3981  0.2589  1.0038
27192SOL     OW85073   9.701   6.814   4.790  0.0672 -0.0300 -0.7381
27192SOL    HW185074   9.782   6.769   4.765  0.2863 -0.9515  1.4088
27192SOL    HW285075   9.729   6.902   4.813  0.2895 -0.0127 -1.0737
27193SOL     OW85076   7.756   6.006   5.149  0.6647 -0.3512  0.1670
27193SOL    HW185077   7.745   5.917   5.116 -2.6874 -0.5565  1.3942
27193SOL    HW285078   7.756   6.062   5.071 -0.2700 -1.2539 -0.5034
27194SOL     OW85079   0.526   0.289   0.429  0.1165 -0.0553 -0.4234
27194SOL    HW185080   0.520   0.345   0.352 -0.2538  0.0245 -0.3401
27194SOL    HW285081   0.596   0.228   0.409 -1.9207 -2.0349 -2.1417
27195SOL     OW85082   7.519   3.054   3.503  0.4285 -0.2203  0.3533
27195SOL    HW185083   7.424   3.055   3.492  0.5091  0.2344 -0.3756
27195SOL    HW285084   7.533   3.066   3.597 -0.2478 -1.2848  0.5983
27196SOL     OW85085   5.119   1.090   8.567  0.2080  0.8419 -0.7031
27196SOL    HW185086   5.137   1.182   8.544 -1.3535  1.4078  0.1858
27196SOL    HW285087   5.120   1.090   8.663  0.2345 -0.0979 -0.6998
27197SOL     OW85088   0.457   9.118   7.542  0.4190  0.4485  0.1593
27197SOL    HW185089   0.436   9.099   7.450  1.0154 -0.0464  0.1226
27197SOL    HW285090   0.408   9.053   7.592  1.0264 -0.0369  0.1278
27198SOL     OW85091   1.514   2.257   7.443  0.1474 -0.7792  0.2520
27198SOL    HW185092   1.450   2.199   7.483 -0.8749  0.9214  1.1723
27198SOL    HW285093   1.507   2.339   7.492  0.0181  0.8663 -2.3187
27199SOL     OW85094   5.277   0.379   9.612  0.1673  0.4309 -0.0648
27199SOL    HW185095   5.368   0.348   9.611  0.1884  0.4942 -0.1469
27199SOL    HW285096   5.249   0.367   9.703  0.3851  0.7768  0.0505
27200SOL     OW85097   8.100   0.193   9.441  0.4335  0.3293  0.3441
27200SOL    HW185098   8.102   0.289   9.441  2.6040  0.4256 -2.1509
27200SOL    HW285099   8.038   0.171   9.372  1.6417  0.0577 -0.6907
27201SOL     OW85100   3.065   1.430   4.113 -0.1543  0.1166 -0.0244
27201SOL    HW185101   3.022   1.428   4.198  1.5999  0.1596  0.8936
27201SOL    HW285102   3.003   1.477   4.056 -0.7585  1.3254  1.5680
27202SOL     OW85103   3.467   2.708   4.248  0.7724 -0.1537  0.0072
27202SOL    HW185104   3.408   2.768   4.202  1.3330  0.1514 -0.3279
27202SOL    HW285105   3.555   2.738   4.224  1.1319  0.9517  2.4470
27203SOL     OW85106   0.702   9.248   2.232  0.3985  0.1340  0.3808
27203SOL    HW185107   0.734   9.335   2.208  0.2324  0.0709 -0.0737
27203SOL    HW285108   0.756   9.222   2.306  1.3736  0.0422 -0.3544
27204SOL     OW85109   4.955   2.472   2.804  0.5424 -0.1776  0.0673
27204SOL    HW185110   4.985   2.539   2.865 -0.6124  1.8191 -1.4314
27204SOL    HW285111   5.003   2.489   2.723 -0.6053 -0.4078 -0.6843
27205SOL     OW85112   2.347   6.370   9.478  0.8713 -0.5637  0.1403
27205SOL    HW185113   2.400   6.373   9.557  1.7449  0.2856 -0.4553
27205SOL    HW285114   2.291   6.293   9.489 -0.8662  0.9349  2.7254
27206SOL     OW85115   4.618   2.864   4.387 -0.0201  0.3926  0.4967
27206SOL    HW185116   4.556   2.829   4.322 -1.3989  0.5839  1.6427
27206SOL    HW285117   4.679   2.792   4.403  0.2448  0.2808 -0.8595
27207SOL     OW85118   9.807   2.991   0.142  0.1704 -0.4665  0.3840
27207SOL    HW185119   9.791   3.012   0.234 -1.8962 -0.7052  0.1338
27207SOL    HW285120   9.721   2.999   0.101  1.1452  0.0937 -1.6372
27208SOL     OW85121  10.267   5.570   0.946  0.2518 -0.4728  0.3068
27208SOL    HW185122  10.240   5.478   0.958  0.9075 -0.5285  1.5773
27208SOL    HW285123  10.198   5.620   0.990  0.9923 -0.4915  1.5254
27209SOL     OW85124   7.571   8.586   1.907  0.2493 -0.1574 -0.2719
27209SOL    HW185125   7.593   8.591   1.814  0.5562  1.8735 -0.1297
27209SOL    HW285126   7.484   8.623   1.913 -0.8103 -2.4974 -0.0070
27210SOL     OW85127   0.762   0.726   5.960  0.0263 -0.0835 -0.2319
27210SOL    HW185128   0.672   0.759   5.960 -0.1597 -0.5364  1.0728
27210SOL    HW285129   0.753   0.632   5.977  0.7301 -0.1838 -0.3892
27211SOL     OW85130   3.751   6.689   3.639  0.3449  0.0920  0.0945
27211SOL    HW185131   3.711   6.730   3.715  1.3279 -3.4976  2.8153
27211SOL    HW285132   3.835   6.735   3.628  1.6937 -1.2505  3.3848
27212SOL     OW85133   3.566   3.433   0.913 -0.1734 -0.3413 -0.0570
27212SOL    HW185134   3.569   3.391   0.999 -1.7679 -0.6532 -0.1283
27212SOL    HW285135   3.504   3.506   0.924 -2.2367 -1.7707 -1.4773
27213SOL     OW85136   0.390   0.870  10.314 -0.1785 -0.6878  0.0569
27213SOL    HW185137   0.461   0.906  10.368 -0.8883 -0.9851  1.2157
27213SOL    HW285138   0.426   0.870  10.225  0.9054  0.1040  0.4701
27214SOL     OW85139   1.937   2.638   3.823 -0.4745 -0.3016  0.0612
27214SOL    HW185140   1.912   2.674   3.737  0.3348  0.3036  0.0622
27214SOL    HW285141   2.033   2.648   3.825 -0.6660  2.0649  2.0398
27215SOL     OW85142   3.328   9.825   5.595  0.0665 -0.2418  0.6637
27215SOL    HW185143   3.337   9.801   5.503 -3.2922 -0.2084  0.2090
27215SOL    HW285144   3.326   9.920   5.594  2.4583 -0.1300  1.1481
27216SOL     OW85145   9.249   3.114   6.564 -0.1574  0.2972 -0.2099
27216SOL    HW185146   9.205   3.040   6.606 -0.2470  0.9112  0.8330
27216SOL    HW285147   9.178   3.176   6.547  0.0489  0.5416 -0.1797
27217SOL     OW85148   9.482   5.054  10.530 -0.0065 -0.0126 -0.3885
27217SOL    HW185149   9.554   5.087  10.476  0.5792  0.1408  0.4678
27217SOL    HW285150   9.502   5.084  10.618 -1.1736  0.1049 -0.1414
27218SOL     OW85151   9.966   8.778   7.975 -0.4088  0.0712  0.1411
27218SOL    HW185152   9.901   8.833   7.931 -0.8570 -0.2061  0.4455
27218SOL    HW285153  10.022   8.746   7.904 -0.2980  0.7103 -0.0666
27219SOL     OW85154   0.683   3.179   1.324 -0.1962  0.4276  0.2174
27219SOL    HW185155   0.694   3.272   1.306 -0.3470  0.5803  0.8979
27219SOL    HW285156   0.773   3.146   1.334 -0.1339  0.4527 -0.2347
27220SOL     OW85157   6.887  10.958   5.454  0.7490 -0.3142  0.1805
27220SOL    HW185158   6.871  10.866   5.434  0.9903 -0.5022  0.8322
27220SOL    HW285159   6.857  10.969   5.544  1.0135  0.1720  0.2153
27221SOL     OW85160   9.302   0.643   3.365  0.1167 -0.6032 -0.0245
27221SOL    HW185161   9.377   0.593   3.397 -0.1634 -1.3464 -0.4919
27221SOL    HW285162   9.338   0.727   3.338  0.4341 -0.0895  1.8045
27222SOL     OW85163   3.960   3.324  10.035  0.2888  0.4405 -0.4506
27222SOL    HW185164   4.031   3.266  10.063 -0.2119  0.5602  1.1894
27222SOL    HW285165   4.004   3.399   9.995  1.1806  0.9744  1.4010
27223SOL     OW85166  10.618   8.203   2.291 -0.0458 -0.5753 -0.9215
27223SOL    HW185167  10.647   8.268   2.354 -2.2182  0.4610 -0.9031
27223SOL    HW285168  10.580   8.133   2.343  1.3078 -1.4070 -0.9917
27224SOL     OW85169   7.100   0.008   6.162  0.7634 -0.2450  0.0125
27224SOL    HW185170   7.028   0.071   6.171  1.0308 -0.1735  2.1511
27224SOL    HW285171   7.057  -0.077   6.156  0.4635 -0.1429  0.5974
27225SOL     OW85172   8.210   3.583   2.297  0.3115  0.2094 -0.0451
27225SOL    HW185173   8.157   3.550   2.370 -1.1279 -0.6961 -1.4289
27225SOL    HW285174   8.241   3.669   2.327 -1.0365  0.2903  1.2687
27226SOL     OW85175   5.490  10.885   8.469 -0.3256 -0.2425 -0.1567
27226SOL    HW185176   5.531  10.885   8.555  1.1074  0.0179 -0.8032
27226SOL    HW285177   5.396  10.882   8.486 -0.1639  1.9554  1.4510
27227SOL     OW85178   4.461   4.218   2.612  0.0497 -0.1160  0.2422
27227SOL    HW185179   4.445   4.309   2.590  1.5957  0.7938  2.4253
27227SOL    HW285180   4.548   4.200   2.577 -1.1223 -1.5323 -2.1348
27228SOL     OW85181   2.367   9.640   2.643  0.0870 -0.3325 -0.4195
27228SOL    HW185182   2.291   9.678   2.599  0.9793  1.2271 -0.6912
27228SOL    HW285183   2.392   9.567   2.587 -0.0703  0.3242 -1.3815
27229SOL     OW85184   1.649   0.500   1.959 -0.5651  0.2768  0.3314
27229SOL    HW185185   1.620   0.444   1.888 -0.6173  0.1636  0.4414
27229SOL    HW285186   1.734   0.534   1.930 -1.4018  1.6856 -0.5882
27230SOL     OW85187   6.757   9.519   6.739 -0.4442 -0.4837  0.1931
27230SOL    HW185188   6.842   9.523   6.695 -0.9707 -0.7934 -0.8995
27230SOL    HW285189   6.694   9.543   6.671 -1.3014 -1.0656  0.7670
27231SOL     OW85190   7.368   4.529   6.483  0.0240 -0.1236 -0.2850
27231SOL    HW185191   7.379   4.443   6.523  2.4592  0.1489 -0.2158
27231SOL    HW285192   7.418   4.588   6.539  1.7684  0.6327 -2.5041
27232SOL     OW85193   6.465   9.682   6.719 -0.0650  0.1790 -0.2400
27232SOL    HW185194   6.431   9.769   6.699 -0.8412 -0.2459 -0.8123
27232SOL    HW285195   6.426   9.660   6.804  0.3358  0.4925  0.0265
27233SOL     OW85196   2.442   8.637   2.441  0.5132  0.3578  0.0968
27233SOL    HW185197   2.352   8.633   2.474  0.5623 -0.2238  0.1688
27233SOL    HW285198   2.461   8.548   2.412  2.0108 -0.2545  2.6477
27234SOL     OW85199   6.660   6.523   7.851 -0.1242  0.1978  0.3303
27234SOL    HW185200   6.735   6.550   7.904  0.6147  2.1955 -1.5503
27234SOL    HW285201   6.691   6.447   7.802  0.1879  0.1457  0.6091
27235SOL     OW85202   3.530  10.416   6.466 -0.7881  0.0217  0.5364
27235SOL    HW185203   3.622  10.395   6.486 -0.3523  1.2967 -0.0029
27235SOL    HW285204   3.518  10.386   6.376 -0.4002  1.2679  0.0447
27236SOL     OW85205   2.393   5.331   7.182 -0.8247 -0.5217  0.1660
27236SOL    HW185206   2.461   5.391   7.213 -2.5632  2.3789 -1.1885
27236SOL    HW285207   2.326   5.334   7.250 -1.6864  0.5166 -0.7056
27237SOL     OW85208   8.709   8.600   4.592 -0.0258 -0.3338 -0.8763
27237SOL    HW185209   8.771   8.670   4.573 -0.3995  0.6485  1.2521
27237SOL    HW285210   8.758   8.519   4.574  1.2889  0.4401 -0.8743
27238SOL     OW85211   1.665   1.836   3.135 -0.2389  0.4343 -0.5226
27238SOL    HW185212   1.707   1.776   3.075 -0.7719  1.8192 -2.3757
27238SOL    HW285213   1.705   1.817   3.220 -0.0525 -2.1408 -1.1133
27239SOL     OW85214   8.986   2.284   5.421  0.1935  0.7045  0.0314
27239SOL    HW185215   8.935   2.228   5.479 -0.6440  0.8354 -0.5688
27239SOL    HW285216   9.073   2.244   5.420 -0.4512 -0.7763 -0.6216
27240SOL     OW85217  10.957   2.895   5.535  0.0896 -0.0885 -0.2950
27240SOL    HW185218  10.926   2.944   5.611  1.3364 -0.9501  0.8010
27240SOL    HW285219  10.896   2.919   5.465  0.6544  3.0802  0.1518
27241SOL     OW85220   8.412   3.802   5.547  0.5471 -0.7550  0.2162
27241SOL    HW185221   8.446   3.886   5.518  0.9047 -0.6806  0.8454
27241SOL    HW285222   8.380   3.817   5.636  0.2509 -1.1882  0.1904
27242SOL     OW85223   3.768  10.479   9.287  0.2006 -0.1841  0.0091
27242SOL    HW185224   3.819  10.530   9.225 -0.9424  0.6742 -0.2552
27242SOL    HW285225   3.746  10.398   9.240 -0.2751  0.2638 -0.5521
27243SOL     OW85226   9.907   1.954   6.058 -0.0232 -0.1499  0.3658
27243SOL    HW185227   9.902   1.859   6.067  1.5919 -0.3250 -0.3337
27243SOL    HW285228   9.878   1.971   5.968 -0.5695  0.0529  0.5770
27244SOL     OW85229   2.225   8.946   7.213  0.8786  0.0597 -0.1135
27244SOL    HW185230   2.276   9.021   7.244  0.8221  0.8508 -1.7838
27244SOL    HW285231   2.287   8.873   7.211  1.3772  0.4782 -0.0339
27245SOL     OW85232   5.259   1.248   7.505  0.4832 -0.0136 -0.1397
27245SOL    HW185233   5.190   1.307   7.473 -0.7051 -1.1212  0.3255
27245SOL    HW285234   5.251   1.170   7.451  2.1983  0.2712 -0.9016
27246SOL     OW85235   7.567   6.985   2.245 -0.0956  0.1188  0.1638
27246SOL    HW185236   7.593   7.026   2.162 -0.6660 -1.5052 -0.8555
27246SOL    HW285237   7.540   7.058   2.301  3.8977  1.7111  0.3610
27247SOL     OW85238   8.568   9.164   1.209  0.1639  0.4089 -0.2561
27247SOL    HW185239   8.646   9.214   1.186  0.6201  0.4851  1.3323
27247SOL    HW285240   8.548   9.190   1.299 -0.7430 -0.8123 -0.0706
27248SOL     OW85241   3.334   5.126   6.787  0.2453 -0.4429  0.4111
27248SOL    HW185242   3.372   5.125   6.875 -0.7031 -2.8838  0.8908
27248SOL    HW285243   3.353   5.213   6.753 -0.8149  1.2503  3.6938
27249SOL     OW85244   4.467   5.582   1.665 -0.0379 -0.2244  0.5102
27249SOL    HW185245   4.417   5.529   1.728 -1.5290 -1.2414 -1.3960
27249SOL    HW285246   4.558   5.557   1.680 -0.5450 -2.0180  0.8878
27250SOL     OW85247   4.003   7.296   2.874 -0.7105  0.1963 -0.4450
27250SOL    HW185248   4.023   7.343   2.955 -0.6223 -0.9831  0.2406
27250SOL    HW285249   3.933   7.235   2.897  0.5096 -1.4081 -0.7745
27251SOL     OW85250  10.969   9.675   5.739 -0.7376 -0.7729 -0.2773
27251SOL    HW185251  11.062   9.658   5.754 -0.0540  0.0901 -2.9813
27251SOL    HW285252  10.940   9.719   5.819  0.9079 -1.9007  1.0141
27252SOL     OW85253   9.808  10.179   4.252  0.4290  0.4122  0.6948
27252SOL    HW185254   9.740  10.243   4.232  1.0594  0.9275  0.1170
27252SOL    HW285255   9.861  10.175   4.172 -0.4687 -1.9750  0.1344
27253SOL     OW85256   1.937   8.381   9.603 -0.4554  0.3285  0.3284
27253SOL    HW185257   1.990   8.344   9.532  0.3572  0.8434  0.6546
27253SOL    HW285258   1.976   8.467   9.620 -0.8587  0.3587  1.1619
27254SOL     OW85259   5.544   2.803   2.614 -0.1634  0.2029  0.2669
27254SOL    HW185260   5.496   2.856   2.550 -1.2499 -0.4789  0.4813
27254SOL    HW285261   5.572   2.726   2.565  2.8428  1.6005 -0.4763
27255SOL     OW85262   7.282   9.824   6.557  0.4701  0.2390  0.1606
27255SOL    HW185263   7.340   9.845   6.630 -0.2612 -0.7281  1.0605
27255SOL    HW285264   7.338   9.777   6.496  0.6626 -0.7212  1.0352
27256SOL     OW85265   7.323  10.480  10.812 -0.3810  0.1723  0.2388
27256SOL    HW185266   7.310  10.396  10.768  0.6500  0.6475 -1.0312
27256SOL    HW285267   7.250  10.486  10.874 -0.3231 -1.7646  0.5623
27257SOL     OW85268   8.732   6.356  10.730  0.0939  0.1188  0.2687
27257SOL    HW185269   8.719   6.268  10.764  0.0606 -0.2567 -0.6772
27257SOL    HW285270   8.794   6.397  10.790 -1.1629  0.0357  1.6814
27258SOL     OW85271   8.249   9.148   8.491  0.1878 -0.3354  0.0850
27258SOL    HW185272   8.235   9.200   8.412 -1.3482  0.7253  1.0125
27258SOL    HW285273   8.255   9.058   8.459 -0.8386  0.0268 -1.2174
27259SOL     OW85274  10.361   7.684   0.161  0.5034 -0.4375  0.1144
27259SOL    HW185275  10.347   7.607   0.216  2.1063 -0.5818  0.3495
27259SOL    HW285276  10.300   7.749   0.197  0.8098 -0.8442  1.4388
27260SOL     OW85277   2.064   3.455  10.374 -0.8492  0.1662  0.2712
27260SOL    HW185278   2.026   3.393  10.436  1.7104 -0.8771  0.9058
27260SOL    HW285279   2.095   3.527  10.428 -0.3678  0.1790 -0.0161
27261SOL     OW85280   8.930   8.704   2.348  0.2118 -0.3340  0.3440
27261SOL    HW185281   8.852   8.736   2.393  0.6432  1.6137 -0.2231
27261SOL    HW285282   9.001   8.715   2.410  0.8099  2.3671 -0.6959
27262SOL     OW85283   8.400   0.880   0.907  0.0641 -0.0642 -0.1250
27262SOL    HW185284   8.412   0.831   0.826  0.5068  0.2129 -0.2321
27262SOL    HW285285   8.487   0.915   0.927  0.0041 -0.2945  0.5793
27263SOL     OW85286   7.358   2.799   0.593  0.5133  0.3660 -0.1453
27263SOL    HW185287   7.315   2.858   0.655  0.0815  0.8821 -0.9048
27263SOL    HW285288   7.440   2.774   0.635 -0.3682 -0.3643  1.1848
27264SOL     OW85289   7.282   9.475  10.031  0.3186 -0.6047  0.1838
27264SOL    HW185290   7.284   9.571  10.037 -0.5702 -0.6383  1.6752
27264SOL    HW285291   7.229   9.457   9.954  0.9710  0.0946 -0.4432
27265SOL     OW85292  10.935   7.119   2.758  0.1794 -0.1499 -0.2812
27265SOL    HW185293  10.968   7.031   2.737 -0.4410 -0.1220 -1.4842
27265SOL    HW285294  10.840   7.107   2.766 -0.0378  0.5830 -1.5290
27266SOL     OW85295   2.138   5.965   0.205 -0.0512 -0.0407 -0.6632
27266SOL    HW185296   2.092   6.031   0.256  1.1801  0.6935 -0.4479
27266SOL    HW285297   2.224   6.004   0.188  0.4790 -1.3341 -1.0817
27267SOL     OW85298   9.367   5.852   0.337  0.2235 -0.0869 -0.1865
27267SOL    HW185299   9.379   5.769   0.291 -1.3179 -1.1411  1.2459
27267SOL    HW285300   9.315   5.831   0.414 -1.3100  2.3879 -0.4073
27268SOL     OW85301  10.528   0.456   9.108 -0.1645 -0.5030  0.0937
27268SOL    HW185302  10.478   0.419   9.182  0.1968  1.4403  1.3659
27268SOL    HW285303  10.520   0.551   9.118  1.8056 -0.1572 -1.0602
27269SOL     OW85304   5.805   4.105   3.113 -0.0391  0.1600  0.8950
27269SOL    HW185305   5.823   4.150   3.030 -1.2852 -0.1380  0.4369
27269SOL    HW285306   5.868   4.142   3.175  0.5012  0.8363 -0.0362
27270SOL     OW85307   2.452   2.997   3.452  0.3683 -0.1837 -0.9827
27270SOL    HW185308   2.414   2.925   3.502  1.3545 -0.0339  0.0299
27270SOL    HW285309   2.387   3.018   3.386 -0.9451 -0.4469  0.1939
27271SOL     OW85310   5.348   6.411  10.360 -0.0906  0.3333  0.5911
27271SOL    HW185311   5.372   6.432  10.451  1.6508  0.1284  0.2125
27271SOL    HW285312   5.431   6.414  10.312 -0.9248  0.0360 -0.9256
27272SOL     OW85313   0.660  10.856   1.589 -0.0486 -0.1283  0.1272
27272SOL    HW185314   0.580  10.899   1.558  0.0411 -0.7690 -1.0632
27272SOL    HW285315   0.710  10.840   1.509 -0.6846 -3.6631  0.2908
27273SOL     OW85316   0.953   6.665   8.201  0.3480  0.3319  0.4917
27273SOL    HW185317   1.011   6.655   8.126  0.9450  0.7409  0.8902
27273SOL    HW285318   0.928   6.576   8.224  0.6464  0.1656  0.1790
27274SOL     OW85319   2.434   3.961   1.711 -0.2758 -0.7065  0.2942
27274SOL    HW185320   2.507   3.967   1.648 -0.6937 -0.1738 -0.1434
27274SOL    HW285321   2.466   4.007   1.789 -1.1133  1.9647 -0.8287
27275SOL     OW85322   5.106   4.545   7.580  0.5522  0.0381 -0.4089
27275SOL    HW185323   5.027   4.547   7.634  1.0641 -0.8541  0.3864
27275SOL    HW285324   5.152   4.626   7.604 -0.9334  1.5352 -2.2066
27276SOL     OW85325   4.466   7.720   2.613  0.0552 -0.3920 -0.2082
27276SOL    HW185326   4.458   7.691   2.522  0.5079 -0.3706 -0.2577
27276SOL    HW285327   4.547   7.679   2.644  0.2920  0.1951 -0.0419
27277SOL     OW85328   3.396   3.562   7.024 -0.0641 -0.1531 -0.3298
27277SOL    HW185329   3.398   3.559   7.120  1.8426  0.8123 -0.2976
27277SOL    HW285330   3.477   3.518   6.997  1.0984  2.3849 -1.3349
27278SOL     OW85331   3.619   3.219   8.545 -0.0158  0.5090 -0.4173
27278SOL    HW185332   3.548   3.223   8.608  1.5344  0.5483  1.4204
27278SOL    HW285333   3.692   3.263   8.589  1.9772 -1.9867 -1.0285
27279SOL     OW85334   2.743   3.612   2.722 -0.4614 -0.4065  0.4663
27279SOL    HW185335   2.729   3.566   2.805  0.8489 -1.2261  0.2673
27279SOL    HW285336   2.838   3.612   2.711 -0.6622 -1.2686 -1.5658
27280SOL     OW85337   4.932   6.635  10.019 -0.0154 -0.4067  0.8407
27280SOL    HW185338   4.885   6.708   9.980 -3.0120 -1.8113  1.5361
27280SOL    HW285339   4.911   6.640  10.112 -0.0842 -1.9769  0.9333
27281SOL     OW85340   1.794   0.251   1.810  0.3027 -0.2120  0.6930
27281SOL    HW185341   1.870   0.255   1.867 -1.0535 -0.4324  2.6330
27281SOL    HW285342   1.820   0.195   1.737  2.1362  0.1751  1.0117
27282SOL     OW85343   0.061   3.672  10.337  0.3103 -0.2377  0.0658
27282SOL    HW185344   0.023   3.600  10.286 -0.3112  0.9372 -1.1861
27282SOL    HW285345  -0.014   3.712  10.381  0.2413  1.2391 -1.3200
27283SOL     OW85346   5.695  10.148   0.826 -0.3399 -0.3357  1.0212
27283SOL    HW185347   5.660  10.107   0.747 -2.2798  0.6066  1.3499
27283SOL    HW285348   5.758  10.084   0.860  1.2345 -0.3949 -1.7073
27284SOL     OW85349   2.856  10.030   2.401 -0.4952  0.1052 -0.6698
27284SOL    HW185350   2.926   9.978   2.442 -1.3134 -1.1818 -0.8721
27284SOL    HW285351   2.898  10.114   2.381  0.7872 -0.3723 -0.0987
27285SOL     OW85352   6.578   7.178   8.783 -0.1524  0.3550  0.0415
27285SOL    HW185353   6.559   7.123   8.708 -1.2248 -1.0164  1.2535
27285SOL    HW285354   6.554   7.124   8.859  0.7594  1.7250  1.3642
27286SOL     OW85355   9.498   8.594   7.402 -0.1537  0.1006  0.7415
27286SOL    HW185356   9.433   8.664   7.396  0.1036  0.2864 -0.1183
27286SOL    HW285357   9.450   8.514   7.379 -0.0286  0.2762 -0.1596
27287SOL     OW85358   0.050   3.696   8.566  0.6211  0.3627 -0.0960
27287SOL    HW185359  -0.028   3.642   8.564 -1.5112  3.1802  1.0371
27287SOL    HW285360   0.082   3.689   8.656  1.4130 -0.3286 -0.4095
27288SOL     OW85361  10.166   6.280  10.611 -0.4714 -0.2021 -0.0911
27288SOL    HW185362  10.184   6.369  10.582  0.4812 -0.5842 -0.7534
27288SOL    HW285363  10.248   6.251  10.651 -0.8940 -0.6531  0.4647
27289SOL     OW85364   1.753   1.450   8.952 -0.1626  0.1135  0.3375
27289SOL    HW185365   1.790   1.436   9.039  1.2116  0.7681 -0.1069
27289SOL    HW285366   1.802   1.391   8.895  0.7618  1.5144 -0.3805
27290SOL     OW85367   3.331   1.747  10.670  0.2906  0.1549 -0.0010
27290SOL    HW185368   3.399   1.722  10.607  1.8410  4.3030 -0.2729
27290SOL    HW285369   3.376   1.747  10.755  0.3190  1.6042  0.0086
27291SOL     OW85370   2.791   4.098   1.241  0.3714 -0.8408 -0.7638
27291SOL    HW185371   2.865   4.151   1.213  0.5902 -1.4391 -1.3421
27291SOL    HW285372   2.796   4.098   1.336  1.1285 -0.8926 -0.7989
27292SOL     OW85373   1.561   1.936   1.716 -1.0909  0.1091  0.5820
27292SOL    HW185374   1.568   1.850   1.674 -1.5673  0.4994 -0.3251
27292SOL    HW285375   1.614   1.929   1.796 -0.6471 -0.8333  0.2103
27293SOL     OW85376   7.887   0.697   8.504 -0.2041  0.5429 -0.5251
27293SOL    HW185377   7.846   0.656   8.580  1.2936  0.3324  0.1964
27293SOL    HW285378   7.972   0.728   8.536  1.1645 -0.9766 -2.4918
27294SOL     OW85379  10.921  10.251   1.562 -0.0360  0.4311  0.6577
27294SOL    HW185380  10.898  10.342   1.584  0.7081  0.5181  1.1499
27294SOL    HW285381  10.869  10.198   1.622  0.7681  0.6103  1.5449
27295SOL     OW85382  10.914   2.777   7.631 -0.1827  0.4607 -0.6114
27295SOL    HW185383  10.837   2.820   7.594 -0.5499  0.7543  0.4710
27295SOL    HW285384  10.879   2.710   7.690  0.3926 -0.0214 -0.7984
27296SOL     OW85385  10.167   8.851   6.701  0.5782 -0.3159  0.1073
27296SOL    HW185386  10.162   8.888   6.789  0.6435 -1.5355  0.6452
27296SOL    HW285387  10.260   8.834   6.688  0.4309 -1.3483  0.3386
27297SOL     OW85388   3.846   6.844   2.735  0.1147 -0.1254  0.0136
27297SOL    HW185389   3.794   6.794   2.798 -1.9143  0.4533 -1.1109
27297SOL    HW285390   3.856   6.785   2.660 -0.9040  0.5210 -0.6680
27298SOL     OW85391  10.515   5.053   6.468 -0.1361  0.5842  0.6612
27298SOL    HW185392  10.554   4.973   6.503  3.2191  1.4922 -0.6306
27298SOL    HW285393  10.547   5.123   6.525 -0.5317  1.3256 -0.0011
27299SOL     OW85394   6.690   9.235   3.319  0.2895  0.0332  0.0983
27299SOL    HW185395   6.621   9.286   3.361  0.0151 -0.6536  0.5002
27299SOL    HW285396   6.739   9.196   3.392  0.7335  0.0277 -0.1939
27300SOL     OW85397  10.171   7.069  10.663 -0.2706 -0.1482  0.0994
27300SOL    HW185398  10.237   7.006  10.635 -0.4590 -1.0226  1.5214
27300SOL    HW285399  10.129   7.028  10.739 -0.0776  1.9042  1.3933
27301SOL     OW85400   4.033  10.714   4.444  0.4109 -0.2054 -0.0959
27301SOL    HW185401   4.036  10.623   4.415 -0.4208 -0.5992  0.9632
27301SOL    HW285402   4.120  10.749   4.423  0.3630 -0.8939 -1.5574
27302SOL     OW85403   4.396   9.110   9.472 -0.2080 -0.2107  0.1958
27302SOL    HW185404   4.483   9.096   9.433 -1.0648 -0.7247 -1.6417
27302SOL    HW285405   4.335   9.089   9.401 -1.8403  0.1860  1.4430
27303SOL     OW85406   9.001   2.454   2.445  0.6657 -0.0986  0.7134
27303SOL    HW185407   8.907   2.439   2.438  0.7641 -0.0706 -1.3496
27303SOL    HW285408   9.014   2.542   2.408  1.6603 -0.8095 -0.7239
27304SOL     OW85409   7.869   2.034   4.803 -0.2478 -0.2039 -0.0547
27304SOL    HW185410   7.824   1.955   4.832  1.1271 -1.1618 -0.4731
27304SOL    HW285411   7.882   2.085   4.883  0.4204 -1.2187  0.5025
27305SOL     OW85412   7.130  10.891   3.005  0.8328 -0.2247 -0.2126
27305SOL    HW185413   7.066  10.891   3.076 -0.7304 -1.6581 -1.5094
27305SOL    HW285414   7.090  10.946   2.938  0.7617 -1.3861 -1.1624
27306SOL     OW85415   9.168   4.186   4.386  0.6344 -1.0066  0.6239
27306SOL    HW185416   9.171   4.092   4.367 -0.5132 -1.5254  2.7182
27306SOL    HW285417   9.075   4.206   4.393  0.7901  0.6465 -1.1281
27307SOL     OW85418   7.683   3.493   1.292  0.3458  0.7226 -0.1121
27307SOL    HW185419   7.676   3.527   1.202 -1.7903  1.7271  0.3639
27307SOL    HW285420   7.689   3.572   1.346  0.9155  0.1386  0.6942
27308SOL     OW85421   7.384   1.163  10.171 -0.1315 -0.6230 -0.5579
27308SOL    HW185422   7.364   1.090  10.112 -1.7085 -0.5639 -0.1456
27308SOL    HW285423   7.317   1.228  10.152 -0.0524 -0.1835  0.5907
27309SOL     OW85424   1.963   6.228   7.909  0.3002 -0.6741 -0.1610
27309SOL    HW185425   2.008   6.229   7.993 -3.4719 -0.3413  2.1105
27309SOL    HW285426   1.944   6.135   7.893 -1.0496 -0.5804  0.7035
27310SOL     OW85427   2.488   0.002   2.218  0.7581  0.0101  0.4830
27310SOL    HW185428   2.488   0.027   2.126 -0.2722 -1.0980  0.1612
27310SOL    HW285429   2.410   0.044   2.254  0.8705  0.0076  0.7289
27311SOL     OW85430   0.011   5.669   6.634 -0.2245 -0.3157  0.1833
27311SOL    HW185431   0.077   5.600   6.640 -0.2122 -0.2997  0.2390
27311SOL    HW285432   0.027   5.712   6.550  0.4125  0.2742  0.5974
27312SOL     OW85433   3.461   0.241   5.385  0.4110 -0.3776  0.3400
27312SOL    HW185434   3.429   0.169   5.331  0.0247  0.7350 -0.9537
27312SOL    HW285435   3.531   0.201   5.438  0.0795 -1.7362 -0.1928
27313SOL     OW85436   5.887   1.329   7.130 -0.4656  0.0781  0.0008
27313SOL    HW185437   5.946   1.263   7.093 -1.2286 -1.2352  1.0502
27313SOL    HW285438   5.934   1.363   7.206  0.3558  1.5296 -1.0924
27314SOL     OW85439   2.776   6.098   6.566  0.4312 -0.4189 -0.2470
27314SOL    HW185440   2.837   6.068   6.498  0.6680  1.4340 -0.9003
27314SOL    HW285441   2.712   6.151   6.519 -1.7964 -2.3228  0.4196
27315SOL     OW85442   3.523   8.031  10.704 -0.4747  0.0818  0.0889
27315SOL    HW185443   3.438   8.069  10.680 -2.2033 -1.8804  2.4890
27315SOL    HW285444   3.539   7.962  10.639 -0.1740  1.0977 -0.9444
27316SOL     OW85445   4.712   8.217  10.598  0.1065  0.7395 -0.0729
27316SOL    HW185446   4.697   8.264  10.516 -2.4578  0.7155  0.3016
27316SOL    HW285447   4.771   8.145  10.574  0.7489  1.7032 -1.5138
27317SOL     OW85448   6.841   0.517  10.247  0.1663 -0.5464  0.0153
27317SOL    HW185449   6.905   0.589  10.253  0.0090 -0.3088 -0.9941
27317SOL    HW285450   6.781   0.544  10.178 -0.6540 -1.0725  0.5077
27318SOL     OW85451   7.209   1.817   4.857 -0.0873  0.2423  0.2043
27318SOL    HW185452   7.280   1.755   4.839  0.0591  0.1717  0.9631
27318SOL    HW285453   7.209   1.877   4.783 -0.2399 -0.6815 -0.5521
27319SOL     OW85454   2.466   4.095   5.505 -0.2125  0.2995 -0.4400
27319SOL    HW185455   2.524   4.162   5.543 -1.8942  1.1862  0.7255
27319SOL    HW285456   2.514   4.013   5.515  0.5999  0.9094  1.0938
27320SOL     OW85457   3.730   5.798   5.746 -0.6770 -0.2796 -0.3401
27320SOL    HW185458   3.726   5.703   5.738 -0.4040 -0.3555  0.3413
27320SOL    HW285459   3.746   5.829   5.657  0.3176 -0.9398 -0.4090
27321SOL     OW85460   2.511   0.615   2.595 -0.0619  0.2523 -0.7306
27321SOL    HW185461   2.585   0.633   2.537 -0.3201  0.6876 -0.9235
27321SOL    HW285462   2.510   0.519   2.603 -0.2219  0.1647 -1.6992
27322SOL     OW85463   5.113   9.631   8.116 -0.2456  0.3281 -0.0855
27322SOL    HW185464   5.171   9.688   8.168  1.3731 -1.3282  0.0045
27322SOL    HW285465   5.032   9.626   8.168  0.2261  1.1325  0.7554
27323SOL     OW85466   5.072   4.377   4.052  0.2603  0.0370  0.2435
27323SOL    HW185467   5.158   4.390   4.013  0.8691  0.8208  1.7676
27323SOL    HW285468   5.081   4.409   4.141 -1.1946 -1.3011  0.9205
27324SOL     OW85469   0.803   7.647   3.369 -0.1042 -0.2629  0.3623
27324SOL    HW185470   0.871   7.699   3.327  0.3347 -1.1932 -0.0992
27324SOL    HW285471   0.850   7.578   3.415 -0.6353  0.1630  1.6115
27325SOL     OW85472   8.784   1.753   6.544 -0.0548  0.6370  0.0467
27325SOL    HW185473   8.703   1.773   6.591  0.1125  1.4916 -0.0165
27325SOL    HW285474   8.756   1.732   6.455 -0.3650 -0.8896  0.4667
27326SOL     OW85475   7.961   6.614   8.199  0.0590  0.6240 -0.2817
27326SOL    HW185476   7.939   6.650   8.284 -0.2412  0.9588 -0.5023
27326SOL    HW285477   7.886   6.634   8.143 -0.1207 -0.3417 -0.4100
27327SOL     OW85478   2.853   1.896   5.057 -0.3126 -0.7155 -0.3031
27327SOL    HW185479   2.809   1.851   4.985 -0.1826  0.5807 -1.2114
27327SOL    HW285480   2.824   1.849   5.135 -1.6625 -1.1933 -1.0559
27328SOL     OW85481   7.581   7.475   2.440  0.4634 -0.2172 -0.2476
27328SOL    HW185482   7.577   7.552   2.384  2.4768  0.0790 -0.0644
27328SOL    HW285483   7.624   7.505   2.520 -1.4457 -0.8628  1.1024
27329SOL     OW85484   8.486   5.397   9.132  0.4613  0.0466 -0.2055
27329SOL    HW185485   8.408   5.407   9.187 -0.0379  0.6046 -0.9865
27329SOL    HW285486   8.559   5.417   9.190 -0.0118 -0.0309  0.4240
27330SOL     OW85487   6.719   9.202   7.884 -0.3037 -0.3239  0.1435
27330SOL    HW185488   6.779   9.219   7.956  0.5950  0.8542 -0.8370
27330SOL    HW285489   6.662   9.132   7.916 -0.6901  0.9346  2.4382
27331SOL     OW85490   7.249   7.528   3.022 -0.3136  0.1492 -0.7024
27331SOL    HW185491   7.232   7.573   2.939  1.2176  1.1858 -0.5007
27331SOL    HW285492   7.181   7.559   3.081 -0.1636  1.0391 -0.9933
27332SOL     OW85493   5.452   6.460   3.789 -0.0367  0.3133 -0.1776
27332SOL    HW185494   5.496   6.376   3.804 -1.0311 -0.1893 -0.0066
27332SOL    HW285495   5.497   6.498   3.714  0.9185 -0.0237  0.2109
27333SOL     OW85496   7.146   3.600   7.378 -0.4873 -0.0460 -0.4896
27333SOL    HW185497   7.213   3.589   7.310  0.5093 -0.4521  0.5211
27333SOL    HW285498   7.165   3.686   7.416  1.4840 -1.3811  1.8480
27334SOL     OW85499   7.399   6.751   4.399 -0.0097 -0.3224  0.3606
27334SOL    HW185500   7.336   6.757   4.470 -0.9346  0.9969 -0.5276
27334SOL    HW285501   7.369   6.814   4.334  1.7063 -0.3278 -0.5098
27335SOL     OW85502   6.758   1.590   1.740  0.0314 -0.3074 -0.0049
27335SOL    HW185503   6.688   1.527   1.723 -1.2763  1.1461 -0.3150
27335SOL    HW285504   6.787   1.572   1.829 -1.7894 -0.0294  0.6868
27336SOL     OW85505   4.833   4.555   6.638 -0.5039  0.0828 -0.0314
27336SOL    HW185506   4.868   4.580   6.724  1.5552 -1.4088 -0.3493
27336SOL    HW285507   4.826   4.460   6.642 -2.7833  0.1641 -0.7196
27337SOL     OW85508   4.584   0.891   6.213 -0.3997 -0.0463  0.3161
27337SOL    HW185509   4.677   0.879   6.190 -0.1784  0.1129  1.0836
27337SOL    HW285510   4.544   0.807   6.193 -0.1966  0.0538 -0.5255
27338SOL     OW85511   7.432   1.147   9.494  0.3823 -0.3100 -0.9966
27338SOL    HW185512   7.350   1.164   9.449 -0.8647 -1.6660  0.6285
27338SOL    HW285513   7.450   1.227   9.543 -0.2434 -0.1694 -0.9904
27339SOL     OW85514   3.741   8.780   3.580  0.1884  0.4030  0.0945
27339SOL    HW185515   3.784   8.695   3.565 -0.5032  0.3107 -1.6310
27339SOL    HW285516   3.709   8.806   3.493 -0.1357  2.1546  0.7018
27340SOL     OW85517   8.803   1.198   3.823 -0.4346 -0.2100 -0.4799
27340SOL    HW185518   8.745   1.138   3.870  0.2820 -1.8535 -1.6203
27340SOL    HW285519   8.749   1.233   3.752 -1.4560  2.1208  1.2845
27341SOL     OW85520   3.889   4.343   8.399  0.6896 -0.1006 -0.3043
27341SOL    HW185521   3.835   4.335   8.320  0.5070 -0.5149 -0.1385
27341SOL    HW285522   3.826   4.350   8.471  0.8525  0.6588 -0.2257
27342SOL     OW85523   3.514   0.570   2.367  0.1220  0.1851 -0.2105
27342SOL    HW185524   3.473   0.556   2.282 -0.7787 -0.1076  0.2648
27342SOL    HW285525   3.550   0.485   2.391 -1.3130 -0.2296  0.5669
27343SOL     OW85526   1.338  10.863   3.322 -0.1681 -0.5076 -0.0996
27343SOL    HW185527   1.434  10.866   3.319 -0.1044 -2.2706 -1.4858
27343SOL    HW285528   1.318  10.821   3.406  0.2254  0.4234  0.4791
27344SOL     OW85529   4.626   0.562   9.513 -0.4722 -0.0437 -0.0216
27344SOL    HW185530   4.704   0.509   9.533 -0.4517  0.2029  0.5620
27344SOL    HW285531   4.628   0.633   9.577 -0.2839  0.9002 -1.0481
27345SOL     OW85532   3.710   1.564   8.353  0.5699  0.4922 -0.0536
27345SOL    HW185533   3.675   1.547   8.440 -0.5907 -0.2985 -0.6428
27345SOL    HW285534   3.773   1.493   8.338 -0.8073 -0.6469 -0.6680
27346SOL     OW85535   6.562   4.538   6.630  0.3210 -0.5719  0.6240
27346SOL    HW185536   6.517   4.622   6.630 -1.1433 -1.3249  0.2892
27346SOL    HW285537   6.585   4.523   6.538  1.4219 -0.1307  0.8093
27347SOL     OW85538   2.042   3.250   6.438 -0.2026  0.2249  0.4046
27347SOL    HW185539   2.119   3.253   6.381 -0.4639  1.5387  0.0819
27347SOL    HW285540   2.073   3.213   6.520  0.5553 -0.1275 -0.0359
27348SOL     OW85541   8.459   9.670   3.509  0.2914 -0.4443 -0.0701
27348SOL    HW185542   8.500   9.601   3.560 -1.3824 -1.3604  0.1052
27348SOL    HW285543   8.429   9.627   3.429  1.7903  0.7107 -1.3208
27349SOL     OW85544   6.177  10.690   2.791  0.5794  0.1359 -0.2987
27349SOL    HW185545   6.252  10.746   2.807 -1.1008  2.1562  1.0556
27349SOL    HW285546   6.128  10.733   2.721 -0.3896  0.0384  0.2920
27350SOL     OW85547  10.029   8.221   5.577 -0.4635 -0.5673 -0.1334
27350SOL    HW185548  10.122   8.201   5.579 -1.0857 -4.5488 -1.4054
27350SOL    HW285549  10.003   8.222   5.670  0.4945 -1.7397  0.1700
27351SOL     OW85550   1.894   1.249   8.864  0.3140 -0.1307 -0.1145
27351SOL    HW185551   1.938   1.203   8.792  2.3644 -0.2698  1.1233
27351SOL    HW285552   1.884   1.182   8.932 -0.1458  0.3679  0.3143
27352SOL     OW85553  10.412   8.242   0.432  0.6712 -0.2411  0.0669
27352SOL    HW185554  10.402   8.326   0.387  0.6056  0.4305  1.2885
27352SOL    HW285555  10.360   8.181   0.381 -0.8602  0.8712  0.2303
27353SOL     OW85556   0.331  10.227   5.932  0.6079 -0.4470 -0.6793
27353SOL    HW185557   0.370  10.315   5.925  3.1690 -1.4630 -0.2602
27353SOL    HW285558   0.356  10.184   5.850  1.4246 -1.4968  0.0907
27354SOL     OW85559   0.711  10.956   6.273 -0.8821  0.1005 -0.1110
27354SOL    HW185560   0.743  11.002   6.195  0.0445  1.8589  1.2540
27354SOL    HW285561   0.769  10.880   6.281  1.0003  1.5414  0.5234
27355SOL     OW85562   0.410   2.979   7.761 -0.2944 -0.5508 -0.2732
27355SOL    HW185563   0.499   2.993   7.794  0.1508 -1.1924 -1.1772
27355SOL    HW285564   0.372   2.915   7.821  0.0286 -0.6601 -0.1867
27356SOL     OW85565   4.764   6.455   2.282 -0.0216 -0.2694 -0.0092
27356SOL    HW185566   4.779   6.548   2.266 -0.1210 -0.0414  1.1324
27356SOL    HW285567   4.719   6.424   2.203 -1.7310  1.0919  0.3612
27357SOL     OW85568   2.226   9.335   3.423  0.0249 -0.1425  0.4537
27357SOL    HW185569   2.313   9.374   3.431  0.7998 -1.8249  0.6822
27357SOL    HW285570   2.166   9.403   3.454  1.3832  0.5031  1.7955
27358SOL     OW85571   4.353   4.509   1.489  0.0721 -0.5623 -0.4535
27358SOL    HW185572   4.373   4.596   1.524 -0.5954 -0.9905  1.0716
27358SOL    HW285573   4.432   4.457   1.508 -0.5627 -0.9867  1.1589
27359SOL     OW85574   7.904   4.473   0.588 -0.2966  0.1431 -0.2169
27359SOL    HW185575   7.911   4.429   0.503 -1.1558 -2.7387  1.0843
27359SOL    HW285576   7.920   4.404   0.652 -0.2239  2.1090  2.0170
27360SOL     OW85577   4.691   9.343   1.122 -0.3717 -0.2400 -0.2754
27360SOL    HW185578   4.750   9.316   1.193 -0.1580  0.3460 -0.2271
27360SOL    HW285579   4.654   9.426   1.152  0.1590  0.3019 -1.0970
27361SOL     OW85580   6.682   3.647   9.878  0.2713 -0.5663 -0.5617
27361SOL    HW185581   6.769   3.617   9.903 -0.1405 -2.2027 -0.9669
27361SOL    HW285582   6.684   3.649   9.782  1.4943  4.5955 -0.7173
27362SOL     OW85583   6.960   2.627   3.512 -0.0021 -0.5436  0.9673
27362SOL    HW185584   6.947   2.629   3.607  1.8480  1.6242  1.2635
27362SOL    HW285585   6.897   2.690   3.477  2.2514  2.1517  1.3499
27363SOL     OW85586   1.657   2.131   8.225  0.3838 -0.2056 -0.0973
27363SOL    HW185587   1.728   2.173   8.178 -0.8703  0.7689 -1.2142
27363SOL    HW285588   1.627   2.197   8.288 -0.2457 -0.1719 -0.4205
27364SOL     OW85589   5.769   1.934   9.204  0.4415  0.0904 -0.5274
27364SOL    HW185590   5.750   1.865   9.268 -0.4661 -0.0372 -0.9125
27364SOL    HW285591   5.811   2.003   9.256  0.2419 -0.2452  0.1015
27365SOL     OW85592   2.728   8.678   3.711  0.3209 -0.1881 -0.1269
27365SOL    HW185593   2.689   8.597   3.742  0.3977 -0.2413 -0.1712
27365SOL    HW285594   2.655   8.741   3.712  0.0617 -0.4701 -0.9005
27366SOL     OW85595   2.248   3.597   0.671 -0.2379  0.3067 -0.5989
27366SOL    HW185596   2.260   3.538   0.596  1.0294 -1.2055  0.7209
27366SOL    HW285597   2.298   3.556   0.742  0.2557  2.7197  0.5462
27367SOL     OW85598   8.897   0.176   7.176 -0.1941 -0.2711  0.3768
27367SOL    HW185599   8.964   0.204   7.113 -0.7572  0.0566 -0.0907
27367SOL    HW285600   8.909   0.082   7.184  1.1920 -0.0466  1.3262
27368SOL     OW85601   4.944   0.558   5.712  0.9347 -0.3498 -0.5924
27368SOL    HW185602   4.924   0.494   5.779 -0.1919  0.2253 -0.3655
27368SOL    HW285603   4.973   0.506   5.637  0.0042 -1.1338 -0.4258
27369SOL     OW85604   8.048   1.843   9.346 -0.0188 -0.3830 -0.2403
27369SOL    HW185605   8.005   1.928   9.352  0.2240 -0.2779 -0.0053
27369SOL    HW285606   8.071   1.835   9.253  1.2699  0.4551 -0.0159
27370SOL     OW85607   5.945   3.832   1.286 -0.1459 -0.1975 -0.2893
27370SOL    HW185608   5.907   3.918   1.265 -0.0496 -0.5532 -2.0698
27370SOL    HW285609   5.912   3.813   1.374 -2.0497  0.6537 -0.7576
27371SOL     OW85610   4.467   0.397  10.807  0.5162  0.1841  0.1172
27371SOL    HW185611   4.389   0.382  10.754  1.0547  2.1338 -1.3562
27371SOL    HW285612   4.433   0.430  10.891 -0.2822 -1.4566  0.4794
27372SOL     OW85613   2.829  10.690   0.178  0.2910 -0.7133 -0.0588
27372SOL    HW185614   2.858  10.632   0.107  0.3314 -0.6930 -0.0589
27372SOL    HW285615   2.766  10.638   0.228 -1.3476 -0.0604 -1.3296
27373SOL     OW85616   8.923   4.487   9.948 -0.0128  0.6904  0.3174
27373SOL    HW185617   8.970   4.405   9.967 -1.0227  0.3450  1.4931
27373SOL    HW285618   8.951   4.511   9.860  1.5725 -0.0415  0.5857
27374SOL     OW85619   9.309   1.671  10.839  0.0613 -0.9302  0.5628
27374SOL    HW185620   9.292   1.704  10.751  1.1852 -1.1745  0.2369
27374SOL    HW285621   9.313   1.749  10.894 -2.6301 -0.8617  0.8148
27375SOL     OW85622  10.986   7.594   4.036 -0.4149  0.1392 -0.0265
27375SOL    HW185623  11.063   7.543   4.063 -0.6519  0.2165  0.8383
27375SOL    HW285624  10.970   7.653   4.110 -2.1749 -0.8722  0.4459
27376SOL     OW85625   5.348   9.905   7.304  0.0004  0.3225 -0.3132
27376SOL    HW185626   5.305   9.969   7.361  1.7375  0.5924  0.7528
27376SOL    HW285627   5.280   9.841   7.285 -0.6356  0.1554  2.1660
27377SOL     OW85628   4.170   3.247   7.794 -0.1633 -0.1901 -0.1176
27377SOL    HW185629   4.241   3.305   7.767  0.3036 -1.0489 -0.7985
27377SOL    HW285630   4.163   3.183   7.722 -0.6097 -1.0203  0.6460
27378SOL     OW85631   5.073   0.999   1.157  0.2034 -0.1463  0.3097
27378SOL    HW185632   5.100   1.073   1.212 -2.0674  0.2339  1.0130
27378SOL    HW285633   5.100   0.921   1.207 -0.3656  0.2046  1.1750
27379SOL     OW85634   5.946   2.598  10.008  0.3164  0.2388 -0.1950
27379SOL    HW185635   5.877   2.559   9.954  0.0923  0.7920 -0.3096
27379SOL    HW285636   6.014   2.531  10.012 -0.5943 -0.6705  0.6593
27380SOL     OW85637   2.463   3.599   3.337 -0.1256 -0.1992  0.1258
27380SOL    HW185638   2.479   3.645   3.419 -1.3691 -1.2543  1.0170
27380SOL    HW285639   2.390   3.647   3.297 -0.3240 -0.3997  0.2434
27381SOL     OW85640   9.551   6.781  10.350  0.0046 -0.8552  0.1434
27381SOL    HW185641   9.618   6.834  10.306 -0.4648  0.3737  0.8463
27381SOL    HW285642   9.589   6.761  10.436 -0.9667  0.9649  1.0742
27382SOL     OW85643   5.318   9.778   6.069 -0.2272 -0.0611 -0.1668
27382SOL    HW185644   5.230   9.756   6.100  0.1499 -0.7709  0.4485
27382SOL    HW285645   5.360   9.693   6.055  0.7859  0.2439  0.8237
27383SOL     OW85646   8.786   8.284   0.923 -0.9451 -0.1603 -0.3379
27383SOL    HW185647   8.819   8.225   0.990 -1.0409  0.4429  0.2427
27383SOL    HW285648   8.701   8.313   0.955 -1.1896 -0.2037 -0.9238
27384SOL     OW85649   7.171   3.200   8.667  0.5464 -0.2135 -0.5617
27384SOL    HW185650   7.096   3.141   8.672  0.3449 -0.1467 -2.2168
27384SOL    HW285651   7.167   3.236   8.579  2.6502 -0.3849 -0.7785
27385SOL     OW85652   4.574   8.611   0.428 -0.2607  0.7626  0.6861
27385SOL    HW185653   4.614   8.528   0.403 -0.9709  0.4792  0.4488
27385SOL    HW285654   4.495   8.616   0.374 -1.4316  0.5092  2.3144
27386SOL     OW85655   5.532   8.642  10.628 -0.1882 -0.0537  0.0148
27386SOL    HW185656   5.576   8.565  10.592 -0.7923 -0.3878 -0.0334
27386SOL    HW285657   5.477   8.674  10.557 -0.0689  0.3274  0.0894
27387SOL     OW85658   6.322   4.540   7.255 -0.1804 -0.7179  0.3567
27387SOL    HW185659   6.361   4.580   7.332  0.8267  0.7499 -0.8501
27387SOL    HW285660   6.240   4.589   7.242 -0.3853 -1.0125  0.5238
27388SOL     OW85661   6.711   4.427   1.383 -0.4065  0.0503  0.1771
27388SOL    HW185662   6.756   4.510   1.400 -0.2043 -0.1707  0.7308
27388SOL    HW285663   6.691   4.430   1.289  0.7304  0.1662 -0.0738
27389SOL     OW85664   4.767   3.949   6.561 -0.1980  0.3496  0.1980
27389SOL    HW185665   4.831   3.999   6.612 -2.2273  2.3694  0.9333
27389SOL    HW285666   4.699   4.013   6.538 -1.8543 -1.6224 -0.7340
27390SOL     OW85667   8.941   1.948   6.011 -0.3730  0.2739 -0.5462
27390SOL    HW185668   9.025   1.993   6.021  0.3972 -1.0984 -0.5800
27390SOL    HW285669   8.932   1.934   5.917 -0.2416 -0.2723 -0.4839
27391SOL     OW85670   4.472   4.054   6.917 -0.3605 -0.3701  0.1860
27391SOL    HW185671   4.386   4.060   6.958 -0.8286 -2.0668 -0.4738
27391SOL    HW285672   4.461   4.096   6.831 -0.6387 -0.8779 -0.0325
27392SOL     OW85673   9.998   2.409   2.511  0.0885  0.4506 -0.3687
27392SOL    HW185674  10.008   2.314   2.503 -0.4355  0.3483  0.1298
27392SOL    HW285675   9.948   2.434   2.433  0.8380  0.4208 -0.8651
27393SOL     OW85676   8.831   1.541   8.672  0.8371  0.6740  0.0759
27393SOL    HW185677   8.897   1.480   8.703 -0.6474 -1.7292 -1.1354
27393SOL    HW285678   8.774   1.556   8.747  0.6054 -0.3681  0.1283
27394SOL     OW85679   8.135   4.628   7.280  0.4488  0.1456 -0.4962
27394SOL    HW185680   8.185   4.681   7.342 -0.1669 -0.5526  0.6193
27394SOL    HW285681   8.110   4.550   7.329 -1.4573  0.3245 -1.1049
27395SOL     OW85682  10.824   3.910   1.630 -0.1410  0.3232  0.0025
27395SOL    HW185683  10.916   3.924   1.654 -0.8206  0.4785  2.8706
27395SOL    HW285684  10.776   3.921   1.712 -2.8344  0.9841 -1.5509
27396SOL     OW85685   5.895  10.024  10.294  0.0458 -0.2057 -0.2127
27396SOL    HW185686   5.862  10.056  10.377 -0.8064  0.7055 -0.8828
27396SOL    HW285687   5.989  10.045  10.296  0.2128 -0.9612  0.8449
27397SOL     OW85688   0.808   2.270  10.515 -0.1996  0.0445 -0.4360
27397SOL    HW185689   0.861   2.292  10.592  0.1424 -1.9754 -0.0316
27397SOL    HW285690   0.856   2.306  10.441 -0.8271  2.5336  0.2923
27398SOL     OW85691   3.745   4.990   8.154  0.1379  0.4852  0.3497
27398SOL    HW185692   3.740   5.061   8.218  0.8132  1.0097 -0.1689
27398SOL    HW285693   3.805   5.022   8.086 -1.6010  0.5218 -1.2719
27399SOL     OW85694   9.391   9.885   9.423 -0.8245  0.1484 -0.1060
27399SOL    HW185695   9.444   9.938   9.483 -0.2716 -1.0538  0.5048
27399SOL    HW285696   9.423   9.907   9.336 -1.5474  1.8283  0.0167
27400SOL     OW85697   7.732   5.078   8.119 -0.1634 -0.2657  0.0423
27400SOL    HW185698   7.800   5.059   8.054  0.3750  1.1597  0.1552
27400SOL    HW285699   7.715   4.994   8.161  1.2279 -0.7340 -0.2917
27401SOL     OW85700   6.559   6.197   0.940  0.2267 -0.2040 -0.1464
27401SOL    HW185701   6.493   6.200   1.009  1.2030  0.2553  0.7904
27401SOL    HW285702   6.510   6.173   0.861 -1.1583  0.7846  0.3822
27402SOL     OW85703   6.920  10.982   1.066  0.0650  0.8247  0.1741
27402SOL    HW185704   6.987  11.047   1.088 -1.1738  1.9700  0.6825
27402SOL    HW285705   6.861  11.028   1.007  0.6188 -0.7014 -1.6845
27403SOL     OW85706   7.906   4.009   7.792 -0.0931 -0.0104 -0.1991
27403SOL    HW185707   7.979   4.046   7.741  1.1184 -2.1814 -0.1506
27403SOL    HW285708   7.830   4.060   7.764  0.8112  0.0624 -2.8990
27404SOL     OW85709   6.433   7.056   6.299 -0.2506 -0.1966 -0.2606
27404SOL    HW185710   6.412   6.966   6.276 -0.2922 -0.6289  1.3288
27404SOL    HW285711   6.513   7.050   6.352  0.3112  0.8037 -0.9552
27405SOL     OW85712   7.440   7.494   6.539 -0.5376  0.3633  0.6423
27405SOL    HW185713   7.416   7.548   6.463  0.9668  0.0527 -0.0802
27405SOL    HW285714   7.523   7.530   6.569 -0.1762 -0.7094  0.9703
27406SOL     OW85715   9.833   9.802   4.278  0.5555  0.0199 -0.0272
27406SOL    HW185716   9.913   9.760   4.310  1.2759  0.3728 -1.3075
27406SOL    HW285717   9.814   9.870   4.342  0.1845 -1.2905  1.3046
27407SOL     OW85718  10.385   6.869   9.924  0.1249  0.2103 -0.7000
27407SOL    HW185719  10.314   6.822   9.881 -0.8724  0.1125  0.9626
27407SOL    HW285720  10.460   6.809   9.920  0.1434  0.3185 -2.4684
27408SOL     OW85721   5.501   1.449   2.251 -0.4223 -0.1939 -0.0434
27408SOL    HW185722   5.411   1.447   2.283 -0.4617  1.0006 -0.0645
27408SOL    HW285723   5.555   1.453   2.330 -0.4332  0.3398 -0.0627
27409SOL     OW85724   3.634   4.502   1.363 -0.2055 -0.2405 -0.2257
27409SOL    HW185725   3.665   4.447   1.291 -0.3366 -0.4057 -0.1565
27409SOL    HW285726   3.649   4.449   1.442  0.4453  0.1528 -0.0750
27410SOL     OW85727   3.770   0.582   2.873  0.3856 -0.0599 -0.2093
27410SOL    HW185728   3.788   0.654   2.933  0.1639 -0.4741  0.3586
27410SOL    HW285729   3.677   0.563   2.885  0.5277 -0.6900 -0.0733
27411SOL     OW85730   9.620  10.945  10.856 -0.4339 -0.1669 -0.2941
27411SOL    HW185731   9.697  10.917  10.906 -0.4618 -0.4750 -0.4197
27411SOL    HW285732   9.551  10.951  10.922 -0.4406 -0.4523 -0.2728
27412SOL     OW85733   5.913   2.854   2.379 -0.1682 -0.4760  0.2700
27412SOL    HW185734   5.930   2.919   2.310  1.5391 -1.5971 -0.4282
27412SOL    HW285735   5.920   2.770   2.334 -2.0901 -1.1887  1.2068
27413SOL     OW85736   4.830   0.830   6.143 -0.7640  0.1297 -0.5905
27413SOL    HW185737   4.844   0.827   6.048  0.1498 -1.1832 -0.4437
27413SOL    HW285738   4.884   0.903   6.173 -1.1390  0.6210 -1.0684
27414SOL     OW85739   1.448   1.996   5.206  0.7229  0.5592  0.1802
27414SOL    HW185740   1.391   1.919   5.215 -0.6601  1.7270  2.2498
27414SOL    HW285741   1.537   1.961   5.208  0.1258 -1.0583  0.0039
27415SOL     OW85742   9.964  10.011   2.631  0.3533  0.1502  0.3031
27415SOL    HW185743  10.005   9.979   2.551 -1.1561  0.4021 -0.6062
27415SOL    HW285744   9.972  10.106   2.626  1.9887  0.1255  1.4518
27416SOL     OW85745   4.445   7.936   8.660  0.6339  0.3073  0.2711
27416SOL    HW185746   4.482   7.899   8.740 -0.9323  0.0163  0.9071
27416SOL    HW285747   4.504   7.906   8.591  1.1869 -0.7071  1.1458
27417SOL     OW85748   6.364   7.035   7.880  0.2724 -0.0279  0.3240
27417SOL    HW185749   6.383   7.028   7.973  0.8087  0.5457  0.2637
27417SOL    HW285750   6.396   7.122   7.855  1.0719 -0.5719 -0.6171
27418SOL     OW85751   2.501  10.802   3.354  0.1532  0.3957  0.1787
27418SOL    HW185752   2.494  10.837   3.265 -4.1904 -1.1669 -0.3654
27418SOL    HW285753   2.530  10.712   3.343  0.1343  0.3609  0.4028
27419SOL     OW85754   9.576   7.159  10.334 -0.7928  0.3271 -0.2036
27419SOL    HW185755   9.601   7.079  10.287  0.1804  0.0841  0.6832
27419SOL    HW285756   9.628   7.156  10.415 -0.9414  1.7270 -0.0380
27420SOL     OW85757   0.887  10.152   5.631 -0.0639  0.1303  0.2947
27420SOL    HW185758   0.966  10.114   5.593  1.5393  1.7988  1.7442
27420SOL    HW285759   0.871  10.100   5.710  0.3960  0.6162  0.7141
27421SOL     OW85760   7.773   1.705   1.100  0.1607 -0.4229 -0.2274
27421SOL    HW185761   7.752   1.793   1.070  0.5813 -0.4446 -0.5949
27421SOL    HW285762   7.802   1.716   1.190  2.8954  0.2025 -1.0817
27422SOL     OW85763   1.036   1.072  10.249 -0.0703 -0.5541  0.1422
27422SOL    HW185764   1.045   1.024  10.331 -0.7977  0.3284  0.7622
27422SOL    HW285765   1.067   1.161  10.270 -0.9644 -0.1186 -0.3320
27423SOL     OW85766   5.523   5.740  10.507  0.0660  0.4751  0.2786
27423SOL    HW185767   5.565   5.822  10.533 -0.1126  0.5260  0.4058
27423SOL    HW285768   5.510   5.749  10.412  0.3054  0.4744  0.2452
27424SOL     OW85769   5.767   5.018   4.471  0.2941  0.1038 -0.7055
27424SOL    HW185770   5.852   5.030   4.430  1.7162 -0.1578  1.9365
27424SOL    HW285771   5.716   5.094   4.445  1.6046  0.6789 -1.6834
27425SOL     OW85772   2.481   5.624   4.624 -0.0828  0.1864  0.1038
27425SOL    HW185773   2.403   5.572   4.605 -0.6557  0.9670  0.2987
27425SOL    HW285774   2.518   5.584   4.703 -0.2540 -0.2081 -0.0129
27426SOL     OW85775   1.852  10.053   1.664  0.1399 -0.3476 -0.1732
27426SOL    HW185776   1.895   9.967   1.668  0.0008 -0.3737  1.0212
27426SOL    HW285777   1.925  10.116   1.660  0.3726 -0.3704  2.2122
27427SOL     OW85778   0.585   6.734   8.028  0.4999 -0.1692 -0.2445
27427SOL    HW185779   0.606   6.643   8.006  1.5802 -0.4545  1.7029
27427SOL    HW285780   0.666   6.782   8.010  0.2957  0.1884 -0.2091
27428SOL     OW85781   0.276   4.569   8.427 -0.1904 -0.3358 -0.3673
27428SOL    HW185782   0.339   4.538   8.362  0.5509  0.1297  0.1170
27428SOL    HW285783   0.218   4.627   8.378 -1.8957 -2.7691 -1.3939
27429SOL     OW85784  10.957   8.659   7.878 -0.1513  0.4919  0.0760
27429SOL    HW185785  10.906   8.585   7.912  0.1085  1.0153  1.7250
27429SOL    HW285786  10.926   8.671   7.789 -0.2352 -1.5596 -0.2218
27430SOL     OW85787   2.165   9.416   6.314 -0.0934 -0.4551 -0.0461
27430SOL    HW185788   2.193   9.335   6.358 -0.9145 -0.5523  0.3117
27430SOL    HW285789   2.184   9.485   6.378 -1.2566 -0.5925  0.4673
27431SOL     OW85790   6.927  10.386  10.827  0.6078  0.5809  0.4746
27431SOL    HW185791   6.832  10.383  10.838  0.1059  2.2568 -2.3302
27431SOL    HW285792   6.953  10.296  10.807 -0.9061  0.5114 -1.4932
27432SOL     OW85793   0.124   0.200   1.580  0.2433  0.4599 -0.5962
27432SOL    HW185794   0.160   0.270   1.526  2.5060  0.2018  0.4691
27432SOL    HW285795   0.078   0.245   1.651 -1.4511  0.7943 -1.8329
27433SOL     OW85796   4.761   5.961   9.680 -0.3967  0.4503 -0.1792
27433SOL    HW185797   4.669   5.959   9.654  0.0548 -1.8192 -1.8482
27433SOL    HW285798   4.759   5.956   9.776 -2.0125 -0.6123 -0.2359
27434SOL     OW85799   7.238   1.894   9.832  0.0593  0.0955  0.3577
27434SOL    HW185800   7.231   1.972   9.887  1.9776  0.4196  0.2099
27434SOL    HW285801   7.233   1.927   9.743 -2.1090 -0.3312  0.2552
27435SOL     OW85802   0.695   6.380   4.009  0.4403  0.0146 -0.3767
27435SOL    HW185803   0.687   6.323   3.932  1.3244 -0.7589  0.0925
27435SOL    HW285804   0.702   6.468   3.972  0.4589 -0.3060 -1.1695
27436SOL     OW85805   7.235   6.190   0.427  0.1457  0.3970 -0.2557
27436SOL    HW185806   7.313   6.241   0.451 -0.3913  1.0899  0.0633
27436SOL    HW285807   7.217   6.217   0.336  0.1626  0.3866 -0.2622
27437SOL     OW85808   2.163   2.888   9.081  0.0221 -0.1773 -0.2866
27437SOL    HW185809   2.214   2.829   9.137 -1.4240 -2.0453 -0.8454
27437SOL    HW285810   2.207   2.883   8.995 -0.5295 -1.0696 -0.5304
27438SOL     OW85811   5.833   9.835   6.413 -0.0603  0.7155 -0.6382
27438SOL    HW185812   5.757   9.777   6.409  0.7930 -0.5580  0.7422
27438SOL    HW285813   5.801   9.912   6.461 -0.7148  0.5815 -0.8534
27439SOL     OW85814   6.444   5.318   2.227 -0.2690 -0.2210  0.7319
27439SOL    HW185815   6.496   5.275   2.160  0.3132  1.1039  0.3074
27439SOL    HW285816   6.457   5.264   2.306  1.8711  0.1337  0.6838
27440SOL     OW85817   9.036  10.721   4.929  0.2957 -0.1397 -0.4855
27440SOL    HW185818   9.022  10.627   4.936  0.8533 -0.2956 -1.3444
27440SOL    HW285819   9.010  10.743   4.839  1.1110  0.3510 -0.6123
27441SOL     OW85820   9.138   9.770   0.125  0.2909 -0.1519  0.1260
27441SOL    HW185821   9.176   9.701   0.069 -0.4912  0.7000 -1.5335
27441SOL    HW285822   9.068   9.726   0.172 -0.5105 -0.4415 -1.2668
27442SOL     OW85823   7.166   4.022   0.610  0.1171  0.3032 -0.1278
27442SOL    HW185824   7.073   4.004   0.596  0.1891  0.4188 -0.7871
27442SOL    HW285825   7.193   3.958   0.675 -0.2764 -0.1628 -0.4107
27443SOL     OW85826   4.243   4.487   4.959 -0.3942 -0.1875  0.1318
27443SOL    HW185827   4.220   4.562   4.905 -0.5974 -0.5384 -0.2778
27443SOL    HW285828   4.165   4.433   4.960  0.1845 -1.0898 -0.7735
27444SOL     OW85829   7.244  10.867   4.681  0.0560 -0.4785 -0.6188
27444SOL    HW185830   7.200  10.945   4.714 -1.2712 -1.2021 -0.6196
27444SOL    HW285831   7.195  10.842   4.603 -0.2618 -1.9467  0.0079
27445SOL     OW85832   8.703   0.542   4.830 -0.0268 -0.5607  0.7115
27445SOL    HW185833   8.682   0.612   4.891 -1.0916 -0.3560  0.1304
27445SOL    HW285834   8.643   0.471   4.853 -0.1919 -0.6134  0.1468
27446SOL     OW85835   7.521   1.347  10.867 -0.3370 -0.0948  0.5896
27446SOL    HW185836   7.560   1.331  10.781 -1.0218 -0.2716  0.3106
27446SOL    HW285837   7.597   1.359  10.925  0.1326  0.2494 -0.0715
27447SOL     OW85838   1.399   4.737  10.715  0.3510  0.0468  0.0858
27447SOL    HW185839   1.405   4.641  10.714 -3.2130 -0.2809 -0.2725
27447SOL    HW285840   1.457   4.765  10.644  0.0250 -1.9852 -1.0478
27448SOL     OW85841   2.586   5.493   1.111 -0.0793 -0.2875 -0.2366
27448SOL    HW185842   2.584   5.409   1.158 -2.1108 -0.2262 -0.1497
27448SOL    HW285843   2.544   5.474   1.027 -0.3456  0.5960 -0.3065
27449SOL     OW85844   6.597   8.370   1.169  0.3784  0.3614 -0.1691
27449SOL    HW185845   6.621   8.424   1.093  1.8621  0.9155  0.6564
27449SOL    HW285846   6.675   8.318   1.187 -0.0325  0.0821  0.8626
27450SOL     OW85847   6.024   9.237   7.414  0.1742 -0.1079  0.3868
27450SOL    HW185848   6.088   9.170   7.391 -0.7184 -0.9999  0.4259
27450SOL    HW285849   5.979   9.202   7.490 -0.0169  0.7459  0.6839
27451SOL     OW85850   0.565   2.129   5.761 -0.1075  0.1105 -0.0202
27451SOL    HW185851   0.615   2.197   5.807 -2.5397  1.6097  0.5608
27451SOL    HW285852   0.529   2.075   5.831 -2.5594  1.4930 -0.0863
27452SOL     OW85853  10.531   7.896   2.173 -0.1151 -0.7770 -0.5393
27452SOL    HW185854  10.574   7.975   2.206  0.8760 -0.9950 -1.2357
27452SOL    HW285855  10.569   7.824   2.224  0.3779 -0.9732 -1.1622
27453SOL     OW85856   6.984  10.580   0.570 -0.1382 -0.2085  0.4658
27453SOL    HW185857   6.936  10.573   0.487  1.3142  1.3727 -0.5847
27453SOL    HW285858   6.928  10.537   0.634 -2.9663  1.5507 -0.6663
27454SOL     OW85859   3.487   1.619   4.969 -0.2810 -0.3673 -0.5173
27454SOL    HW185860   3.540   1.566   4.910 -0.1499 -1.7528  0.7903
27454SOL    HW285861   3.505   1.709   4.942  1.1296 -0.8893 -1.4483
27455SOL     OW85862   6.863   4.856   4.742  0.0402 -0.0571 -0.0344
27455SOL    HW185863   6.893   4.875   4.831  1.4327  1.0258 -0.6955
27455SOL    HW285864   6.918   4.910   4.686 -0.1941 -1.4003 -1.6369
27456SOL     OW85865   4.336   5.342   5.518  0.3995 -0.3257  0.5182
27456SOL    HW185866   4.280   5.418   5.500 -0.5924 -1.1000  0.3121
27456SOL    HW285867   4.278   5.277   5.558  0.8130 -1.6708 -0.9774
27457SOL     OW85868   1.240  10.334   5.648  0.3558 -0.0691 -0.3706
27457SOL    HW185869   1.181  10.326   5.573  0.1144 -0.4215 -0.1456
27457SOL    HW285870   1.268  10.244   5.667 -0.2314 -0.0835  0.4710
27458SOL     OW85871   4.653   3.465   0.726  0.5769  0.2696 -0.2796
27458SOL    HW185872   4.599   3.459   0.805 -2.1555  0.2488 -2.0054
27458SOL    HW285873   4.606   3.524   0.668  2.2546 -0.0221 -2.0812
27459SOL     OW85874   5.815   4.026   2.364  0.1687 -0.0675 -0.0947
27459SOL    HW185875   5.843   4.007   2.453 -0.4759 -1.3998 -0.1619
27459SOL    HW285876   5.858   4.109   2.343 -1.1617  1.2924  2.1312
27460SOL     OW85877   1.722   2.833  10.271  0.2300 -0.7439 -0.2099
27460SOL    HW185878   1.729   2.922  10.304 -1.1256 -0.8499  0.4375
27460SOL    HW285879   1.740   2.840  10.178 -0.6531  0.3521 -0.3185
27461SOL     OW85880   3.019   2.830  10.246  0.2954 -0.0090  0.0303
27461SOL    HW185881   3.071   2.907  10.269  0.5329 -0.1335 -0.0817
27461SOL    HW285882   3.032   2.820  10.151  0.5965 -0.4238  0.1113
27462SOL     OW85883   1.934   4.824  10.256 -0.0070 -0.3435  0.4797
27462SOL    HW185884   1.968   4.912  10.241 -0.0196 -0.6516 -1.8600
27462SOL    HW285885   2.005   4.766  10.229 -0.6659 -1.0184  0.1543
27463SOL     OW85886  10.397   3.733   7.497  0.4625  0.3339  0.3705
27463SOL    HW185887  10.306   3.748   7.522  0.1717 -0.3780 -0.2150
27463SOL    HW285888  10.448   3.793   7.552 -0.3890  1.0375  0.3997
27464SOL     OW85889  10.507   6.153  11.001  0.2255 -0.1838 -0.4110
27464SOL    HW185890  10.520   6.083  11.065  1.6908  1.4373  1.1935
27464SOL    HW285891  10.448   6.214  11.045  0.3379  0.4199 -1.0798
27465SOL     OW85892   0.741   2.662   1.740 -0.0159  0.0343 -0.3032
27465SOL    HW185893   0.807   2.614   1.690  0.8858  2.1181 -1.2558
27465SOL    HW285894   0.693   2.712   1.673  0.0325  1.5106  0.7262
27466SOL     OW85895   8.036   1.560   1.395 -0.6710  0.0755 -0.0974
27466SOL    HW185896   7.951   1.516   1.384  0.0381 -1.3303 -0.2245
27466SOL    HW285897   8.051   1.558   1.490 -1.2037  1.2079  0.0285
27467SOL     OW85898   3.330   2.009   1.916  0.1062  0.3701  0.7532
27467SOL    HW185899   3.271   2.051   1.853 -1.0945 -1.4226  0.6058
27467SOL    HW285900   3.404   2.069   1.923  0.1411  0.8041 -2.1316
27468SOL     OW85901   9.646   7.050   6.263  0.3164  0.0304 -0.1951
27468SOL    HW185902   9.650   7.046   6.168 -0.9836  0.3414 -0.2785
27468SOL    HW285903   9.681   6.965   6.292  1.5694  0.2767 -0.8942
27469SOL     OW85904   7.604   6.975   4.111 -0.2148 -0.0671  0.2158
27469SOL    HW185905   7.526   6.965   4.056 -0.8759  0.5365  1.0202
27469SOL    HW285906   7.589   6.916   4.185  0.4198 -0.4616  0.0425
27470SOL     OW85907   0.397   8.528   8.063 -0.8219  0.0030 -0.2699
27470SOL    HW185908   0.391   8.452   8.006 -1.3654  1.1130 -1.7488
27470SOL    HW285909   0.306   8.547   8.087 -0.8224  0.9654 -0.9997
27471SOL     OW85910   0.088   3.952   1.644  0.5457 -0.5965 -0.1979
27471SOL    HW185911   0.109   4.021   1.706  0.0384 -1.0046  0.4426
27471SOL    HW285912   0.133   3.978   1.563 -1.0179  1.3816 -0.5175
27472SOL     OW85913   6.236   3.697   9.592  0.0329 -0.2188 -0.7291
27472SOL    HW185914   6.275   3.617   9.556  0.3048  0.2209 -1.4426
27472SOL    HW285915   6.141   3.685   9.582  0.0852 -0.3453 -1.0741
27473SOL     OW85916   7.360   6.685   3.800 -0.0657  0.2858  0.1458
27473SOL    HW185917   7.340   6.699   3.707 -0.3621  0.5358  0.2454
27473SOL    HW285918   7.415   6.761   3.823 -0.0908  0.2854  0.2053
27474SOL     OW85919   0.875  10.893   1.853  0.2052 -0.1433 -0.5576
27474SOL    HW185920   0.826  10.876   1.773 -0.7146  0.1153 -0.0636
27474SOL    HW285921   0.954  10.939   1.824 -0.5289  0.7197 -1.2328
27475SOL     OW85922   9.869   6.731   6.706 -0.3359 -0.2178  0.4884
27475SOL    HW185923   9.911   6.817   6.712  0.0787 -0.4885  1.6311
27475SOL    HW285924   9.899   6.697   6.622  2.7798 -0.8889  1.7389
27476SOL     OW85925   1.745   9.658   7.415 -0.4233 -0.1230 -0.1471
27476SOL    HW185926   1.777   9.619   7.334 -1.7866  1.6073 -1.6118
27476SOL    HW285927   1.823   9.698   7.454  0.1789 -0.6370 -0.7942
27477SOL     OW85928   9.267   5.205   3.488 -1.1745  0.4938 -0.0209
27477SOL    HW185929   9.208   5.204   3.564 -0.2067 -0.4451  0.7577
27477SOL    HW285930   9.229   5.142   3.427 -0.6067 -0.7213  0.8191
27478SOL     OW85931   0.971   3.648   5.920 -0.0940  0.2363  0.3345
27478SOL    HW185932   1.051   3.597   5.932 -0.1170  0.0547 -0.2202
27478SOL    HW285933   0.915   3.592   5.866 -0.8097  0.1491  1.1649
27479SOL     OW85934   0.813   5.483   2.057  0.0789  0.6010  0.3097
27479SOL    HW185935   0.877   5.422   2.019 -0.8465 -0.0600 -0.2447
27479SOL    HW285936   0.809   5.555   1.994  0.4507  0.7689  0.4728
27480SOL     OW85937   1.256  10.021   2.012 -0.3343  0.0846 -0.8456
27480SOL    HW185938   1.247   9.973   1.930 -0.9067 -1.9922  0.3452
27480SOL    HW285939   1.182   9.990   2.066  0.0442  1.3473  0.4761
27481SOL     OW85940   9.620   4.860   1.520  0.2218 -0.2107  0.5019
27481SOL    HW185941   9.527   4.880   1.507  0.3075  0.9531  1.5009
27481SOL    HW285942   9.645   4.811   1.442 -1.2099 -0.4795  0.1785
27482SOL     OW85943   9.832   9.229   1.802  0.2838 -0.4416  0.1581
27482SOL    HW185944   9.810   9.142   1.838  1.3019 -0.1883  1.4720
27482SOL    HW285945   9.908   9.213   1.746 -0.4082 -0.6056 -0.7501
27483SOL     OW85946   1.688   4.803   2.692  0.1576 -0.3353 -0.3405
27483SOL    HW185947   1.729   4.793   2.606  0.5530 -1.8149 -0.0011
27483SOL    HW285948   1.702   4.895   2.714  1.1346 -0.2305 -1.3113
27484SOL     OW85949   2.970   7.685   1.777  0.3758  0.6844 -0.3558
27484SOL    HW185950   3.009   7.678   1.690  0.2435 -1.4616 -0.2922
27484SOL    HW285951   2.879   7.656   1.766  0.8212 -1.3000  0.7652
27485SOL     OW85952   6.311   9.047  10.063 -0.4714  0.0735 -0.0097
27485SOL    HW185953   6.350   9.129  10.093 -1.2293  0.8777 -1.0910
27485SOL    HW285954   6.355   9.029   9.980 -1.0683 -0.0171 -0.3119
27486SOL     OW85955   7.295   4.279   6.594 -0.8814  0.4430 -0.6054
27486SOL    HW185956   7.286   4.213   6.662 -0.3618 -0.3701 -1.3085
27486SOL    HW285957   7.234   4.251   6.525 -1.0093  0.9563 -0.7027
27487SOL     OW85958   4.719   7.829   0.593  0.6531 -0.0919  0.8202
27487SOL    HW185959   4.773   7.788   0.525 -0.3585  0.0517 -0.1012
27487SOL    HW285960   4.765   7.910   0.615  0.7491  0.1003 -0.0501
27488SOL     OW85961   4.958   8.391   4.851 -0.3763 -0.7161 -0.3585
27488SOL    HW185962   4.919   8.334   4.917 -1.1779  0.4546  0.2152
27488SOL    HW285963   4.883   8.432   4.807  0.1692  0.9573  0.1981
27489SOL     OW85964  10.074   0.815   6.888  0.2587 -1.2150  0.2052
27489SOL    HW185965  10.073   0.883   6.955 -0.1877 -1.4087  0.4049
27489SOL    HW285966  10.154   0.765   6.905  2.4399  1.2400 -2.0187
27490SOL     OW85967   2.993   4.203   1.712 -0.1022 -0.2650 -0.0364
27490SOL    HW185968   3.082   4.171   1.725  0.3334  0.6922 -0.5412
27490SOL    HW285969   3.002   4.277   1.651 -1.1571  0.2388  0.3796
27491SOL     OW85970   4.174   9.230   5.137 -0.2772 -0.0969 -0.4055
27491SOL    HW185971   4.147   9.139   5.155 -0.7242  0.5066  2.5069
27491SOL    HW285972   4.225   9.224   5.056  1.7131 -3.3491  0.8630
27492SOL     OW85973   9.039   1.288   1.681  0.6429  0.6787  0.3788
27492SOL    HW185974   9.001   1.273   1.595  1.7346  0.8318 -0.1421
27492SOL    HW285975   9.132   1.270   1.670  0.6239 -0.5799  1.8324
27493SOL     OW85976   3.130  10.735   1.681 -0.0100 -0.4524 -0.3388
27493SOL    HW185977   3.216  10.701   1.657  1.0808  1.0610  1.2194
27493SOL    HW285978   3.111  10.694   1.766  0.5169  1.3607  0.6961
27494SOL     OW85979   3.546   3.620   2.346 -0.3003 -0.0693  0.0447
27494SOL    HW185980   3.487   3.685   2.381  1.1279  1.4576 -0.2512
27494SOL    HW285981   3.600   3.668   2.283 -0.3389 -1.9213 -1.4955
27495SOL     OW85982   1.389   2.386   7.664 -0.0187 -1.0551 -0.0006
27495SOL    HW185983   1.303   2.381   7.622 -0.4634 -1.4720  0.9344
27495SOL    HW285984   1.372   2.367   7.756  1.0713 -1.0793  0.2088
27496SOL     OW85985   9.814   2.948   9.408  0.4581 -0.0451  0.0588
27496SOL    HW185986   9.757   2.913   9.339  1.0699  0.2305 -0.6016
27496SOL    HW285987   9.884   2.883   9.415 -0.2708 -0.7408  1.3594
27497SOL     OW85988   4.360  10.413   1.433 -0.0382  0.2388 -0.0301
27497SOL    HW185989   4.322  10.397   1.519 -0.0436  2.7936  0.5329
27497SOL    HW285990   4.285  10.436   1.378  0.0696 -0.4512 -0.4687
27498SOL     OW85991   5.585   6.916   5.001 -0.7553  0.1369  0.9139
27498SOL    HW185992   5.569   6.904   5.094  2.1658 -1.7045  1.3096
27498SOL    HW285993   5.557   6.834   4.960 -0.0453  0.0887  0.5027
27499SOL     OW85994   9.337   9.145  10.086  0.1184  0.2027  0.1030
27499SOL    HW185995   9.263   9.153  10.146  0.8375  0.2626  1.0087
27499SOL    HW285996   9.367   9.235  10.073  0.6061  0.1004  0.4904
27500SOL     OW85997   4.305   5.926   0.481  0.3487  0.1227  0.4130
27500SOL    HW185998   4.349   5.900   0.400  1.3085 -0.2400  1.0417
27500SOL    HW285999   4.375   5.939   0.544 -0.3769  0.5920  1.1458
27501SOL     OW86000   7.461  10.923   9.462 -0.1751 -0.0761 -0.3403
27501SOL    HW186001   7.492  10.847   9.510  0.9900 -0.4644 -1.6612
27501SOL    HW286002   7.451  10.893   9.372  1.9365  1.7171 -1.2536
27502SOL     OW86003   6.551   3.025   6.932  0.1094  0.4876 -0.3281
27502SOL    HW186004   6.513   3.113   6.934 -1.1763 -0.0121 -1.2293
27502SOL    HW286005   6.623   3.031   6.869 -1.0710  0.5121 -1.7208
27503SOL     OW86006   3.528   0.834   5.745  0.4506  0.2379  0.0862
27503SOL    HW186007   3.562   0.760   5.696 -0.2138 -0.4462  0.6253
27503SOL    HW286008   3.473   0.881   5.682 -1.2734 -1.2427  0.4058
27504SOL     OW86009   6.706  10.487   6.162 -0.1875  0.7462  0.0753
27504SOL    HW186010   6.732  10.407   6.116  0.6953  0.5520  0.8831
27504SOL    HW286011   6.698  10.461   6.253  0.8099  1.7331  0.4597
27505SOL     OW86012   1.143   4.258   7.525  0.5512  0.2689 -0.3193
27505SOL    HW186013   1.194   4.334   7.497 -1.3551  1.6964 -0.0901
27505SOL    HW286014   1.169   4.243   7.616  0.3194  1.2007 -0.0932
27506SOL     OW86015   8.735   4.119   1.313  0.4195  0.3317 -0.3417
27506SOL    HW186016   8.700   4.130   1.401 -2.0122  0.6594 -1.2620
27506SOL    HW286017   8.818   4.073   1.325  0.1761  0.4255  2.0946
27507SOL     OW86018  10.705   3.104   5.634 -0.0918 -0.0537  0.3635
27507SOL    HW186019  10.615   3.074   5.623  0.0464 -0.5128  0.4724
27507SOL    HW286020  10.731   3.135   5.547  0.2115 -1.5064 -0.0944
27508SOL     OW86021   8.491   0.107   2.617 -0.3302 -0.0464  0.4772
27508SOL    HW186022   8.559   0.055   2.576 -1.0460 -1.1717  0.6647
27508SOL    HW286023   8.467   0.058   2.696 -0.3834  1.0432  1.1627
27509SOL     OW86024   7.067   6.704   9.914  0.2825 -0.2266  0.0491
27509SOL    HW186025   7.111   6.663   9.988  0.5457 -0.0718 -0.0180
27509SOL    HW286026   7.138   6.745   9.864  0.2429 -1.3294 -0.9324
27510SOL     OW86027   2.400   0.569   5.898 -0.1744  0.3956  0.6033
27510SOL    HW186028   2.310   0.535   5.900  0.4752 -1.3982  0.8153
27510SOL    HW286029   2.398   0.645   5.956 -2.2024  2.1790 -1.5873
27511SOL     OW86030   3.584   2.245   8.429 -0.2172 -0.3863  0.7847
27511SOL    HW186031   3.609   2.156   8.405 -0.1458  0.0899 -1.0216
27511SOL    HW286032   3.657   2.300   8.400 -0.5189  0.3301  1.3462
27512SOL     OW86033   3.684   3.570   0.713 -0.0291  0.2893  0.1823
27512SOL    HW186034   3.662   3.508   0.783  0.9317 -0.5038 -0.1818
27512SOL    HW286035   3.687   3.655   0.756 -1.2029  0.0657  0.7352
27513SOL     OW86036   3.677   1.774   6.374 -0.2423 -0.3938 -0.0820
27513SOL    HW186037   3.750   1.712   6.367 -0.0428 -0.4651  1.8872
27513SOL    HW286038   3.606   1.732   6.327  0.3679 -1.3711 -0.1667
27514SOL     OW86039   0.908   0.405   5.658  0.3194 -0.4671 -0.3066
27514SOL    HW186040   0.826   0.441   5.691  0.2844 -0.1442 -0.7330
27514SOL    HW286041   0.942   0.473   5.599  1.5582 -0.0136  0.8764
27515SOL     OW86042  10.909  10.949   3.863  0.3716 -0.2197 -0.2558
27515SOL    HW186043  10.983  10.997   3.826  0.9571 -1.5496 -0.8843
27515SOL    HW286044  10.832  10.996   3.832  0.9285  1.6829  1.1056
27516SOL     OW86045   4.996   5.838   0.485 -0.4940 -0.7580  0.2260
27516SOL    HW186046   5.023   5.873   0.400 -2.6446 -0.7693 -0.5232
27516SOL    HW286047   5.017   5.908   0.547 -0.7535  0.0850 -0.6139
27517SOL     OW86048   1.133   1.807   9.170 -0.6330  0.1952 -0.1955
27517SOL    HW186049   1.090   1.863   9.234  1.6818  0.4200  1.2667
27517SOL    HW286050   1.083   1.725   9.172 -0.9766  0.4119  1.4962
27518SOL     OW86051   6.114   0.767  10.573  0.2894  0.5250 -0.1124
27518SOL    HW186052   6.046   0.835  10.571 -0.9730 -0.6531 -3.1959
27518SOL    HW286053   6.192   0.812  10.541  0.9124  1.6904  2.7218
27519SOL     OW86054   8.413   2.896   3.848 -0.7738  0.0728  0.3728
27519SOL    HW186055   8.436   2.976   3.802 -0.0483 -0.5258 -0.3329
27519SOL    HW286056   8.457   2.904   3.933  0.1259  0.0026 -0.0658
27520SOL     OW86057   8.116   5.938   0.407 -0.4389  0.1145 -0.0348
27520SOL    HW186058   8.082   5.854   0.438  0.7911 -0.7740 -0.9975
27520SOL    HW286059   8.069   6.003   0.459 -0.8318 -1.1905  1.3224
27521SOL     OW86060   5.319   7.900   7.906  0.1877  0.1742 -0.1724
27521SOL    HW186061   5.281   7.984   7.882  0.5463  0.2686 -0.4102
27521SOL    HW286062   5.343   7.910   7.998 -1.9228 -0.4538  0.4927
27522SOL     OW86063   8.127   5.962  10.648  0.7326  0.7545 -0.4556
27522SOL    HW186064   8.083   6.004  10.573  0.2873 -2.5393 -2.2224
27522SOL    HW286065   8.056   5.942  10.709  0.8070  1.5010 -0.1032
27523SOL     OW86066   0.512   2.010   3.574 -0.2849  0.0382 -0.0204
27523SOL    HW186067   0.535   2.023   3.482  0.1517 -0.2057  0.0547
27523SOL    HW286068   0.430   1.959   3.570 -0.0708 -0.2923 -0.2720
27524SOL     OW86069   0.413   2.225   2.764 -0.1609  0.3707  0.3620
27524SOL    HW186070   0.366   2.256   2.687 -0.5278  0.0544  0.4528
27524SOL    HW286071   0.490   2.180   2.729 -0.2421  0.3699  0.1839
27525SOL     OW86072   8.280   1.742  10.121 -0.3439 -0.6287  0.3039
27525SOL    HW186073   8.239   1.802  10.183 -2.4575 -0.7867 -0.8362
27525SOL    HW286074   8.314   1.671  10.175  0.3447  0.5534  1.4858
27526SOL     OW86075   0.866   1.418   5.213 -0.5806  0.3030  0.1124
27526SOL    HW186076   0.895   1.494   5.164  1.1080 -0.2355  0.2295
27526SOL    HW286077   0.843   1.353   5.146  1.2943 -0.2734 -0.0175
27527SOL     OW86078   9.455   7.669   7.069 -0.0388  0.1128 -0.4697
27527SOL    HW186079   9.458   7.688   6.976 -0.6993 -0.8729 -0.7051
27527SOL    HW286080   9.431   7.753   7.109 -1.4808  0.1647 -1.3566
27528SOL     OW86081   2.871   1.837   0.448  0.5079  0.1293  0.4063
27528SOL    HW186082   2.801   1.772   0.439  0.4981  0.2347 -0.4033
27528SOL    HW286083   2.856   1.877   0.533  0.1049 -0.4602  0.6189
27529SOL     OW86084   3.936   6.034   8.640 -0.4641  0.2273  0.4767
27529SOL    HW186085   3.965   6.040   8.731 -0.5787 -2.1392  0.7386
27529SOL    HW286086   4.015   6.051   8.589 -0.1845  0.6400  1.0247
27530SOL     OW86087   7.232   7.392   7.127 -0.0875  0.0456  0.1508
27530SOL    HW186088   7.148   7.438   7.125  0.9585  2.0885 -1.0991
27530SOL    HW286089   7.251   7.379   7.220 -1.0897  0.9429  0.4950
27531SOL     OW86090   9.436   1.482   2.009 -0.0200  0.4441  0.4029
27531SOL    HW186091   9.423   1.576   2.018 -1.2349  0.5752 -1.9404
27531SOL    HW286092   9.521   1.473   1.966  0.4195  0.4082  1.2594
27532SOL     OW86093   0.818   4.234   7.579 -0.1491  0.2122  0.4837
27532SOL    HW186094   0.913   4.239   7.568  0.0188  2.4738  2.3684
27532SOL    HW286095   0.805   4.170   7.648 -0.0478 -0.2959  0.0438
27533SOL     OW86096   6.243   3.253   7.293 -0.4619 -0.2169  0.4134
27533SOL    HW186097   6.333   3.262   7.263 -0.5958  1.1467  0.3590
27533SOL    HW286098   6.189   3.280   7.219 -0.8585  0.7545  1.0354
27534SOL     OW86099  11.000   6.805   8.217  0.5557 -0.0538 -0.1558
27534SOL    HW186100  10.957   6.881   8.179 -1.5538 -2.0135 -2.0449
27534SOL    HW286101  11.030   6.755   8.141  0.8524 -1.6530  0.9612
27535SOL     OW86102   1.721   6.540   1.807  0.0485  0.0139 -0.5186
27535SOL    HW186103   1.737   6.470   1.743  2.2767  0.6700 -0.7935
27535SOL    HW286104   1.808   6.561   1.841 -0.6867  1.8917  0.3634
27536SOL     OW86105   4.848  10.721   8.662 -0.4501 -0.0740 -0.4081
27536SOL    HW186106   4.835  10.638   8.708  0.9264  0.0267  0.2110
27536SOL    HW286107   4.822  10.702   8.572 -1.6347 -0.7325  0.0428
27537SOL     OW86108   9.475   3.208   5.275 -0.9896  0.0172 -0.8457
27537SOL    HW186109   9.540   3.168   5.217 -0.4895  0.0289 -0.3080
27537SOL    HW286110   9.507   3.189   5.363 -0.9805  1.2143 -0.5763
27538SOL     OW86111   4.435   4.428   5.540 -0.5409  0.4919 -0.1296
27538SOL    HW186112   4.342   4.413   5.552 -0.2104 -1.3409  0.4533
27538SOL    HW286113   4.476   4.395   5.620  0.7021 -0.0498 -0.9421
27539SOL     OW86114   9.979   7.163   5.690 -0.2822 -0.5928 -0.2839
27539SOL    HW186115   9.938   7.149   5.775 -0.5005 -1.0431 -0.4562
27539SOL    HW286116  10.012   7.253   5.693 -2.2326  0.1821 -0.5224
27540SOL     OW86117   1.002   7.464   9.916  0.4750  0.0561  0.1554
27540SOL    HW186118   0.920   7.426   9.948 -1.2446  1.5538 -2.1417
27540SOL    HW286119   1.062   7.458   9.991 -1.8708 -0.6008  2.1269
27541SOL     OW86120   5.819   4.785   4.661 -0.2205 -0.1699  0.0913
27541SOL    HW186121   5.806   4.826   4.747  0.3780  0.3106 -0.0406
27541SOL    HW286122   5.802   4.855   4.598 -1.1781 -0.6554 -0.2135
27542SOL     OW86123   2.900   2.468   2.788 -0.5592 -0.4538  0.1722
27542SOL    HW186124   2.853   2.520   2.852 -0.5310 -0.2831  0.0538
27542SOL    HW286125   2.915   2.527   2.714 -0.2331 -0.5273  0.1758
27543SOL     OW86126   8.392   9.058   7.106 -0.2963 -0.0488  0.4237
27543SOL    HW186127   8.440   9.049   7.188 -1.0873 -1.3831  0.7661
27543SOL    HW286128   8.459   9.055   7.038  0.1676 -1.2199  0.9219
27544SOL     OW86129   3.411   6.166   6.576  0.0118  0.1017 -0.3267
27544SOL    HW186130   3.418   6.231   6.506  0.2090 -2.0264 -2.4619
27544SOL    HW286131   3.317   6.149   6.583  0.0879 -0.9547 -1.4375
27545SOL     OW86132   2.959  10.846   3.290 -0.1209 -0.3246 -0.4163
27545SOL    HW186133   2.956  10.752   3.273  2.2717 -0.3578 -1.1448
27545SOL    HW286134   3.044  10.873   3.253  0.9353  1.4552  2.9539
27546SOL     OW86135   6.089   3.404   6.034  0.2269 -0.3323  0.3553
27546SOL    HW186136   6.140   3.422   5.955  0.1735  0.5938  0.5122
27546SOL    HW286137   6.090   3.487   6.082 -0.3173 -0.6852  0.9940
27547SOL     OW86138   3.010   8.010   3.303 -0.3283 -0.0952  0.1251
27547SOL    HW186139   3.009   8.044   3.213  0.5816  0.5719  0.3472
27547SOL    HW286140   3.095   8.038   3.338 -0.8377  0.0052  1.3294
27548SOL     OW86141  10.894   3.086   8.786 -0.1133 -0.1259 -0.0851
27548SOL    HW186142  10.866   3.157   8.728  0.4862 -1.3073 -1.9077
27548SOL    HW286143  10.990   3.089   8.784 -0.0782 -0.0758  1.0184
27549SOL     OW86144   9.090   3.186   9.818  0.2124 -0.1126  0.2029
27549SOL    HW186145   9.054   3.273   9.807 -0.1192 -0.2974 -0.1968
27549SOL    HW286146   9.179   3.192   9.783  1.4057  0.8874  3.0584
27550SOL     OW86147   6.840   5.598   5.357 -0.4036  0.2787  0.3847
27550SOL    HW186148   6.936   5.602   5.358 -0.3133 -0.9919  1.9527
27550SOL    HW286149   6.813   5.689   5.348  0.9751  0.8410  1.4409
27551SOL     OW86150   6.433   6.949   1.014 -0.1418  0.2134 -0.7180
27551SOL    HW186151   6.527   6.933   1.023 -0.1824 -0.8344 -1.8412
27551SOL    HW286152   6.413   7.013   1.082  1.2402 -0.0968  0.0283
27552SOL     OW86153   1.557  10.257   5.210  0.1204 -0.0666 -0.6392
27552SOL    HW186154   1.561  10.274   5.304  2.2363 -1.3358 -0.4212
27552SOL    HW286155   1.619  10.320   5.172 -0.8291  0.5361 -1.2317
27553SOL     OW86156   6.942   2.385   7.827 -0.2134 -0.5271  0.2769
27553SOL    HW186157   6.883   2.429   7.888 -0.6013 -1.5918  0.6922
27553SOL    HW286158   7.029   2.397   7.865  0.3400  3.4154 -1.6918
27554SOL     OW86159   0.560   5.233   2.894 -0.0369 -0.2559  0.1151
27554SOL    HW186160   0.636   5.282   2.925  0.5103 -0.0268 -1.5355
27554SOL    HW286161   0.494   5.245   2.963 -0.0095  2.9725 -0.2626
27555SOL     OW86162   8.627   5.612   4.819  0.2570  0.2586  0.2233
27555SOL    HW186163   8.631   5.590   4.912 -0.0348  1.1022  0.4488
27555SOL    HW286164   8.545   5.662   4.810  0.0209 -0.2494 -0.5816
27556SOL     OW86165   4.148   8.954   5.188  0.4485 -0.3282  0.3848
27556SOL    HW186166   4.054   8.969   5.186  0.6356  0.7842 -0.3045
27556SOL    HW286167   4.157   8.866   5.226 -0.8052 -0.0039  1.4887
27557SOL     OW86168   5.643   8.964   2.266  0.1507 -0.4311  0.2933
27557SOL    HW186169   5.642   8.923   2.353  2.2617 -2.7957 -0.6611
27557SOL    HW286170   5.709   9.034   2.274 -1.1829  0.7888  1.0890
27558SOL     OW86171   5.000   0.175   9.553  0.0231 -0.2208  0.6709
27558SOL    HW186172   5.089   0.158   9.521 -0.7184 -1.5310 -0.8995
27558SOL    HW286173   4.959   0.088   9.555 -1.3800  0.4191  0.8454
27559SOL     OW86174   8.673   5.793   4.555 -0.6605 -0.0087  0.1093
27559SOL    HW186175   8.648   5.758   4.640  2.5593 -2.9349  0.0819
27559SOL    HW286176   8.614   5.749   4.493 -2.2250  1.2274  0.6626
27560SOL     OW86177  10.415   3.131   4.228  0.0961 -0.3143  0.0134
27560SOL    HW186178  10.381   3.099   4.312  0.6445 -0.3045  0.2431
27560SOL    HW286179  10.337   3.153   4.177 -0.2351  0.5626  0.8698
27561SOL     OW86180   2.830   5.363   0.862 -0.3705  0.4251  0.1709
27561SOL    HW186181   2.839   5.420   0.939  0.6982 -1.2487  1.3658
27561SOL    HW286182   2.751   5.311   0.880 -1.5804  1.7657 -1.1073
27562SOL     OW86183   8.907   3.025   0.295  0.4828 -0.0483 -0.3288
27562SOL    HW186184   8.905   2.960   0.364 -2.8234  0.0796 -0.1343
27562SOL    HW286185   8.876   3.106   0.336 -1.6057  0.0262 -1.8531
27563SOL     OW86186   4.041   9.243   2.460 -0.0185  0.2218 -0.3731
27563SOL    HW186187   4.033   9.338   2.473  0.4866  0.1320  0.6314
27563SOL    HW286188   3.979   9.205   2.522 -0.5966 -0.1022 -1.1331
27564SOL     OW86189   1.649   8.062   2.186 -0.3028 -0.2458  0.1913
27564SOL    HW186190   1.580   8.082   2.248  0.6728 -0.8578  1.5097
27564SOL    HW286191   1.711   8.135   2.195 -0.2675 -0.2236 -0.2184
27565SOL     OW86192   3.609   7.705   1.315 -0.1854 -0.4937 -0.0596
27565SOL    HW186193   3.572   7.637   1.371  1.7409  0.1936  2.2125
27565SOL    HW286194   3.692   7.728   1.356  1.2287  0.3354 -3.0650
27566SOL     OW86195   3.786   2.646   1.859  0.3112 -0.3397  0.0269
27566SOL    HW186196   3.724   2.652   1.933  1.3683  1.3325  0.8378
27566SOL    HW286197   3.810   2.554   1.856  0.1731 -0.4803  1.7627
27567SOL     OW86198  10.115   3.309   5.736  0.8495  0.2686 -0.0522
27567SOL    HW186199  10.091   3.232   5.685 -0.2490  0.6326 -0.1172
27567SOL    HW286200  10.186   3.350   5.687 -0.9406  1.2521 -1.9540
27568SOL     OW86201  10.840   8.967   1.305  0.0729  0.3472  0.2433
27568SOL    HW186202  10.876   8.944   1.390  1.9797 -0.7318 -0.7816
27568SOL    HW286203  10.815   8.883   1.265  0.1807  0.7296 -0.6635
27569SOL     OW86204   6.457   3.345   6.671  0.3755 -0.0217  0.0626
27569SOL    HW186205   6.495   3.310   6.591  0.3669 -2.3643  1.0011
27569SOL    HW286206   6.488   3.435   6.675  3.0616 -0.8202 -0.9153
27570SOL     OW86207   6.870   2.904   8.881 -0.2442 -0.6308  0.1182
27570SOL    HW186208   6.960   2.919   8.911 -1.0021  0.3983  2.0004
27570SOL    HW286209   6.853   2.978   8.822  0.6385 -1.7066 -1.5911
27571SOL     OW86210   6.843   7.508   8.290  0.2094  0.3172 -0.5153
27571SOL    HW186211   6.774   7.446   8.313 -0.3536 -0.3778 -3.6148
27571SOL    HW286212   6.895   7.463   8.223  0.3504  2.7556 -2.2063
27572SOL     OW86213   1.272   2.009   2.271 -0.0598 -0.3608 -0.3043
27572SOL    HW186214   1.252   2.092   2.315  2.6611 -0.0321  0.4990
27572SOL    HW286215   1.308   2.035   2.186 -0.6043 -0.8161 -0.6854
27573SOL     OW86216   3.991  10.901   7.707  0.5504 -0.0497  0.0114
27573SOL    HW186217   4.078  10.923   7.674  0.3732 -0.8363 -1.0243
27573SOL    HW286218   4.004  10.821   7.756  0.6287  0.5545  0.9960
27574SOL     OW86219   5.328   5.119   1.814 -0.4667 -0.3367  0.4374
27574SOL    HW186220   5.291   5.207   1.808 -0.8987 -0.3563  2.2519
27574SOL    HW286221   5.282   5.078   1.887  0.8604 -1.5026  0.6760
27575SOL     OW86222   6.062   9.860  10.998  0.2085 -0.0804  0.1193
27575SOL    HW186223   6.152   9.827  10.992  0.3404  0.3210 -0.1532
27575SOL    HW286224   6.051   9.883  11.090  0.8071  1.0328 -0.0720
27576SOL     OW86225   7.004   5.042   4.614  0.1747  0.4374 -0.2766
27576SOL    HW186226   6.993   5.106   4.684 -1.2386 -0.9625  0.8749
27576SOL    HW286227   6.924   5.050   4.561  0.3891  0.2387 -0.6375
27577SOL     OW86228   5.246   5.579   4.804 -0.0291 -0.1493  0.0431
27577SOL    HW186229   5.231   5.583   4.710 -0.3030 -0.4774  0.0708
27577SOL    HW286230   5.333   5.539   4.813 -0.7167 -1.7496 -0.0410
27578SOL     OW86231   2.908   6.911   7.834  0.3670 -0.2070  0.0840
27578SOL    HW186232   2.984   6.868   7.875 -0.1792 -0.6586  0.6439
27578SOL    HW286233   2.842   6.842   7.829 -0.3817  0.4571  0.5938
27579SOL     OW86234   8.950   2.224  10.609  0.2053  0.3590 -0.2646
27579SOL    HW186235   8.959   2.304  10.558 -2.2305  0.0257 -1.3367
27579SOL    HW286236   8.952   2.254  10.700 -0.0334  1.5708 -0.6371
27580SOL     OW86237   3.695   1.350   0.912 -0.3315  0.1224  0.1539
27580SOL    HW186238   3.697   1.445   0.905  0.4750  0.2207  1.3346
27580SOL    HW286239   3.614   1.331   0.959 -0.1175  0.2963  0.6018
27581SOL     OW86240   6.108  10.416  10.752  0.0170 -0.2563  0.3718
27581SOL    HW186241   6.138  10.359  10.682  1.6263  0.5320  0.3843
27581SOL    HW286242   6.103  10.503  10.713  0.4307  0.1041  1.0955
27582SOL     OW86243   1.755   7.989   8.448  0.5668  0.1294 -0.2500
27582SOL    HW186244   1.768   8.058   8.513  0.8005  0.8634 -1.0507
27582SOL    HW286245   1.842   7.976   8.410  0.5044 -0.5494 -0.1642
27583SOL     OW86246   8.547   3.757   7.527 -0.0117  0.0379  0.4432
27583SOL    HW186247   8.461   3.799   7.533 -0.1871 -0.4104  1.1366
27583SOL    HW286248   8.600   3.819   7.477 -0.9596 -0.0470 -0.6984
27584SOL     OW86249   0.276   5.296   8.401 -0.0175 -0.3349 -0.5365
27584SOL    HW186250   0.283   5.389   8.378  0.2315 -0.2134  0.0213
27584SOL    HW286251   0.316   5.289   8.488  0.4106 -1.0523 -0.7801
27585SOL     OW86252   1.735   8.113   9.493  0.0798 -0.0609  0.4650
27585SOL    HW186253   1.712   8.201   9.523 -0.2733 -0.1281  0.3907
27585SOL    HW286254   1.829   8.108   9.507 -0.1214 -0.2297  1.9475
27586SOL     OW86255   2.458   3.774   7.031 -0.7210  0.4938 -0.5640
27586SOL    HW186256   2.369   3.775   7.066 -0.1498 -0.5770  1.0784
27586SOL    HW286257   2.512   3.806   7.104  0.3650 -0.1881 -1.0424
27587SOL     OW86258  10.842   3.267   3.615 -0.0196 -0.0189  0.1601
27587SOL    HW186259  10.870   3.197   3.556 -0.3231 -0.4920  0.5671
27587SOL    HW286260  10.787   3.324   3.560 -0.8716 -0.8293  0.1352
27588SOL     OW86261   0.761   4.857   0.046  0.4264  0.0540  0.2428
27588SOL    HW186262   0.672   4.855   0.011  1.0190 -0.2951 -1.3260
27588SOL    HW286263   0.770   4.945   0.083 -0.1829  0.5142 -0.6556
27589SOL     OW86264   8.076   6.454   0.552  0.2826  0.4192  0.1109
27589SOL    HW186265   8.009   6.401   0.596 -0.3888  1.5333  0.4798
27589SOL    HW286266   8.119   6.393   0.492 -0.9514 -0.3772 -0.0077
27590SOL     OW86267   2.460   6.421  10.142 -0.2314  0.0458  0.6718
27590SOL    HW186268   2.544   6.390  10.176 -0.0022  2.2345  2.3291
27590SOL    HW286269   2.397   6.396  10.210 -0.5490  0.3788  0.4996
27591SOL     OW86270   6.409   1.729   3.116  0.2737  0.9102 -0.0796
27591SOL    HW186271   6.353   1.773   3.180  2.0206 -0.2223  2.3884
27591SOL    HW286272   6.368   1.644   3.101 -1.4240  2.0217 -2.4691
27592SOL     OW86273   8.498   4.264   6.101 -0.3242 -0.2522  0.1514
27592SOL    HW186274   8.527   4.314   6.025 -1.1474 -1.1064 -0.7520
27592SOL    HW286275   8.579   4.244   6.148  0.2955 -0.3624 -0.9177
27593SOL     OW86276   0.017   5.926   7.984 -0.1307  0.1465 -0.0013
27593SOL    HW186277   0.084   5.979   7.940 -1.6494  0.6427 -1.8503
27593SOL    HW286278   0.031   5.837   7.951 -0.2436  0.2101 -0.2215
27594SOL     OW86279   2.740   1.046   6.458 -0.7378 -0.1433  0.2353
27594SOL    HW186280   2.687   0.972   6.429 -1.0594  0.0238  0.3837
27594SOL    HW286281   2.710   1.119   6.403  2.6515 -0.9925 -3.1665
27595SOL     OW86282   6.742   6.491   3.110  0.3205  0.2840  0.0713
27595SOL    HW186283   6.749   6.577   3.152 -0.9235  0.5229 -0.1873
27595SOL    HW286284   6.754   6.429   3.182  2.1677  0.6256  0.1202
27596SOL     OW86285   0.910   2.458   6.702  0.5705 -0.4436  0.4216
27596SOL    HW186286   0.974   2.495   6.640 -0.3486  0.2855 -0.1215
27596SOL    HW286287   0.830   2.509   6.687 -0.0593 -1.1483  1.2871
27597SOL     OW86288   4.230   4.916   8.625 -0.1477 -0.2390 -0.0788
27597SOL    HW186289   4.302   4.891   8.567  0.2592 -1.1071  0.7898
27597SOL    HW286290   4.268   4.983   8.682 -0.5067  0.5077 -0.6991
27598SOL     OW86291   5.746   4.607   4.959  0.9995  0.1796 -0.3547
27598SOL    HW186292   5.796   4.684   4.935 -0.6943  1.1793 -0.8436
27598SOL    HW286293   5.718   4.569   4.875 -0.7656  0.8344 -0.0915
27599SOL     OW86294   1.656   9.273   0.447 -0.1058  0.1367 -0.2365
27599SOL    HW186295   1.639   9.232   0.363  0.0566 -0.6094  0.0917
27599SOL    HW286296   1.723   9.339   0.429 -0.5549  0.4472 -0.8079
27600SOL     OW86297   8.629   1.353  10.465  0.2705  0.0420  0.0415
27600SOL    HW186298   8.722   1.371  10.451  0.3233 -0.1784  0.1121
27600SOL    HW286299   8.622   1.334  10.558  0.2177 -0.3247 -0.0361
27601SOL     OW86300   6.243  10.958   4.755 -0.5870  0.8902 -0.1261
27601SOL    HW186301   6.300  10.953   4.678 -1.6717 -2.3099 -0.8768
27601SOL    HW286302   6.161  10.994   4.721 -1.7191 -2.2583 -1.0787
27602SOL     OW86303   5.003   5.092  10.483  0.0270  0.4014  0.0989
27602SOL    HW186304   5.053   5.161  10.440  0.4203  1.1953  1.7523
27602SOL    HW286305   5.037   5.011  10.445 -0.4624  1.0801 -1.8974
27603SOL     OW86306   5.276   6.738   7.048  0.0394 -0.2335  0.3050
27603SOL    HW186307   5.291   6.766   7.138 -1.3528 -1.4653  0.9702
27603SOL    HW286308   5.235   6.652   7.057  0.9594 -0.9245 -1.5443
27604SOL     OW86309   9.911   8.663   8.593  0.7565 -0.1434 -0.0278
27604SOL    HW186310   9.935   8.624   8.509 -1.4450 -1.3744 -0.1477
27604SOL    HW286311   9.960   8.613   8.658  0.1851 -1.1911 -0.3901
27605SOL     OW86312   2.719   1.694   4.359 -0.0757 -0.5156  0.6415
27605SOL    HW186313   2.730   1.662   4.449  0.0628 -2.0506  0.1070
27605SOL    HW286314   2.803   1.677   4.317 -0.6382 -1.3133 -0.2063
27606SOL     OW86315   3.670   4.735   0.747  0.6699 -0.7721 -0.1046
27606SOL    HW186316   3.656   4.643   0.726  0.5497 -0.4312 -1.5949
27606SOL    HW286317   3.765   4.747   0.744  0.6019 -0.4077 -2.0276
27607SOL     OW86318   5.122   0.154   8.753  0.0791  0.0651  0.2429
27607SOL    HW186319   5.112   0.215   8.827  1.5379  0.2399  0.3368
27607SOL    HW286320   5.053   0.179   8.692  0.6946  1.9148  0.2344
27608SOL     OW86321   1.327  10.744   4.476  0.0048 -0.2237 -0.3162
27608SOL    HW186322   1.321  10.776   4.566  0.7464  0.2362 -0.4264
27608SOL    HW286323   1.271  10.802   4.425  1.0952  0.7231 -0.4636
27609SOL     OW86324   1.552   5.881   4.327  0.4948  0.0012  0.0422
27609SOL    HW186325   1.587   5.970   4.315  0.4121  0.0155 -0.1066
27609SOL    HW286326   1.480   5.876   4.264  0.9659 -0.4222 -0.4828
27610SOL     OW86327   5.918   8.332   7.895 -1.0416  0.5082  0.0485
27610SOL    HW186328   5.907   8.327   7.990  0.5596  1.5957  0.3448
27610SOL    HW286329   5.886   8.420   7.872  0.0485  0.8707 -0.1498
27611SOL     OW86330   7.403   7.104   7.130  0.0078 -0.2492 -0.6534
27611SOL    HW186331   7.490   7.064   7.121  0.6928  1.0162  0.1118
27611SOL    HW286332   7.405   7.179   7.071  0.6676  1.7391  1.7646
27612SOL     OW86333   9.561   0.218   9.836  0.1314  0.1057  0.5773
27612SOL    HW186334   9.508   0.293   9.806 -0.8439 -0.3229  1.1992
27612SOL    HW286335   9.646   0.257   9.860  0.1406  0.7932 -0.4894
27613SOL     OW86336   7.715   9.629   5.414  0.0596  0.0640  0.3073
27613SOL    HW186337   7.655   9.633   5.339  0.4140 -0.6122 -0.0160
27613SOL    HW286338   7.792   9.585   5.380  0.9928  1.4333  0.5640
27614SOL     OW86339   2.487   1.516   5.453 -0.1328  0.4177 -0.0916
27614SOL    HW186340   2.426   1.585   5.429  0.9933  1.0527 -1.2790
27614SOL    HW286341   2.444   1.435   5.425 -0.4691  0.8455 -0.8582
27615SOL     OW86342  10.085   5.524   3.281 -0.4033 -0.1262 -0.0061
27615SOL    HW186343  10.101   5.585   3.354 -0.4201 -0.7811  0.5533
27615SOL    HW286344  10.151   5.456   3.292 -1.0707 -0.7787  0.0215
27616SOL     OW86345   0.875   1.238   3.273 -0.0961  0.4538  0.4715
27616SOL    HW186346   0.849   1.311   3.217 -0.7653 -0.4673 -0.4649
27616SOL    HW286347   0.939   1.276   3.333  0.9601  1.4195 -1.1649
27617SOL     OW86348   9.369   4.355   2.344  0.0057  0.0831 -0.4264
27617SOL    HW186349   9.343   4.424   2.283 -2.6151  1.8205  2.3757
27617SOL    HW286350   9.293   4.297   2.348  0.2136 -0.1300  0.9671
27618SOL     OW86351   9.251  10.254   4.298  0.3828 -0.3087 -0.2991
27618SOL    HW186352   9.165  10.240   4.337  1.3791 -0.7961  1.9171
27618SOL    HW286353   9.236  10.317   4.227 -1.7441 -0.2291  0.1620
27619SOL     OW86354   7.901   5.358   1.114  0.3172  0.4201  0.0005
27619SOL    HW186355   7.939   5.270   1.117  1.9879  1.0878 -0.6211
27619SOL    HW286356   7.932   5.401   1.193  0.0080  0.6413  0.0025
27620SOL     OW86357   6.421  10.214   5.901 -0.1355  0.1300  0.4063
27620SOL    HW186358   6.452  10.204   5.991  1.0755 -1.0375 -0.1125
27620SOL    HW286359   6.467  10.147   5.852 -1.7973 -0.1509 -0.8588
27621SOL     OW86360   0.879   4.083   8.858 -0.5092 -0.6325  0.5587
27621SOL    HW186361   0.924   4.095   8.775  1.1388  1.5855  1.6725
27621SOL    HW286362   0.801   4.138   8.852  0.1500  0.3532  0.8248
27622SOL     OW86363   1.661   5.532   8.971  0.2144 -0.3598  0.1334
27622SOL    HW186364   1.652   5.487   8.887 -1.9066  1.5910 -0.8027
27622SOL    HW286365   1.618   5.475   9.034 -2.1844  0.1080 -0.9768
27623SOL     OW86366  10.374  10.839   3.572 -0.0039  0.0563 -0.2787
27623SOL    HW186367  10.366  10.890   3.492  0.6769 -1.5879 -1.4661
27623SOL    HW286368  10.341  10.896   3.641  1.9357  2.5927 -1.2952
27624SOL     OW86369   0.965   6.853   3.621  0.0936 -0.1961  0.1993
27624SOL    HW186370   1.016   6.897   3.689  1.7580  0.5573 -1.4576
27624SOL    HW286371   0.891   6.911   3.605  0.5872  0.4440  0.2186
27625SOL     OW86372  10.136   1.918   7.789  0.7212  0.4510  0.5175
27625SOL    HW186373  10.170   1.902   7.701 -0.8381  1.2540 -0.2737
27625SOL    HW286374  10.209   1.958   7.836  1.8615 -0.7838 -0.1106
27626SOL     OW86375   2.043   7.821   6.268 -0.0692  0.4698 -0.4500
27626SOL    HW186376   2.105   7.829   6.196  0.3584  1.0067 -0.0243
27626SOL    HW286377   2.061   7.896   6.325 -1.5032  0.9776 -0.6284
27627SOL     OW86378   2.474   2.718   7.649  0.7183 -0.6394 -0.5675
27627SOL    HW186379   2.492   2.809   7.676 -4.0518 -0.5828  4.0485
27627SOL    HW286380   2.453   2.724   7.556  1.0915  2.8976 -0.5617
27628SOL     OW86381   0.246   8.507   2.436 -0.8016  0.0592 -0.7634
27628SOL    HW186382   0.314   8.468   2.490 -0.2730  1.5389 -0.3261
27628SOL    HW286383   0.164   8.475   2.474 -0.3816 -0.9729 -0.7039
27629SOL     OW86384   9.740   6.655   8.053 -0.0349  0.1543 -0.6374
27629SOL    HW186385   9.653   6.661   8.013 -0.7706 -1.5662  0.5831
27629SOL    HW286386   9.758   6.561   8.057  2.3965  0.5054 -1.8654
27630SOL     OW86387   4.283   9.481   7.166 -0.1447 -0.7307  0.0082
27630SOL    HW186388   4.216   9.413   7.176  0.1979 -1.0821 -0.0943
27630SOL    HW286389   4.306   9.479   7.073 -0.4693 -0.1530 -0.0898
27631SOL     OW86390   5.786   3.962   4.887 -0.5192  0.2147 -0.1523
27631SOL    HW186391   5.827   4.021   4.950  1.5365 -0.6268 -0.6176
27631SOL    HW286392   5.693   3.963   4.910  0.1478 -0.1424  3.0024
27632SOL     OW86393   0.882   5.626   7.458 -0.0908  0.4931 -0.6276
27632SOL    HW186394   0.872   5.708   7.410  1.9304  0.4499 -1.2221
27632SOL    HW286395   0.972   5.629   7.490 -0.6664 -0.5464  1.1838
27633SOL     OW86396   0.027   5.563   4.059 -0.0610  0.4890  0.1409
27633SOL    HW186397   0.113   5.594   4.090  1.4469 -1.7668 -1.4103
27633SOL    HW286398   0.018   5.602   3.972 -0.3856  0.3426  0.1110
27634SOL     OW86399   9.483   3.495  10.455  0.1504  0.0800  0.4432
27634SOL    HW186400   9.492   3.589  10.470 -0.3796  0.1913  0.1291
27634SOL    HW286401   9.413   3.468  10.514  0.4385 -0.1602  0.6779
27635SOL     OW86402   9.711   8.611   5.284 -0.3815  0.1240 -0.2484
27635SOL    HW186403   9.732   8.654   5.367 -0.2645  1.2301 -0.8232
27635SOL    HW286404   9.773   8.649   5.222 -0.8478 -0.2599 -0.9621
27636SOL     OW86405   0.949   6.841   2.223 -0.3336  0.1887  0.0029
27636SOL    HW186406   0.875   6.793   2.259  0.1911  0.2119  1.1460
27636SOL    HW286407   0.910   6.919   2.182 -1.1470 -0.9221 -1.4618
27637SOL     OW86408   9.920  10.286   3.705  0.1629  0.1698  0.3673
27637SOL    HW186409   9.913  10.381   3.714 -1.5031  0.5276 -2.9731
27637SOL    HW286410  10.010  10.271   3.675  0.1952  0.8093  0.1293
27638SOL     OW86411   8.359   2.094   8.780 -0.1391  0.0625  0.4735
27638SOL    HW186412   8.282   2.093   8.837 -1.4709  1.1620 -1.2116
27638SOL    HW286413   8.365   2.184   8.748  2.2615  0.1661  1.0405
27639SOL     OW86414   3.291  10.615   8.563  0.0886 -0.1438  0.0317
27639SOL    HW186415   3.326  10.702   8.577  1.7180 -0.6504 -0.6357
27639SOL    HW286416   3.293  10.604   8.468  0.9083 -1.2842  0.1631
27640SOL     OW86417   0.246   0.565   4.311 -0.2708  0.1175  0.3923
27640SOL    HW186418   0.310   0.529   4.372 -1.7504  0.2307  2.0866
27640SOL    HW286419   0.242   0.500   4.240  0.4653 -0.7170  1.0837
27641SOL     OW86420   0.058   5.307  10.228  0.4292  0.1383 -0.4336
27641SOL    HW186421   0.008   5.323  10.308  1.5460  1.1930  0.0790
27641SOL    HW286422   0.149   5.322  10.253  1.3343 -3.7764 -0.7976
27642SOL     OW86423   0.999  10.136   0.991 -0.1893 -0.4361 -0.4545
27642SOL    HW186424   0.931  10.189   1.033  1.0649 -0.3186  1.5313
27642SOL    HW286425   1.070  10.132   1.055 -0.2654 -4.6767 -0.3718
27643SOL     OW86426   9.918   4.988   6.161 -0.0877 -0.5309 -0.2225
27643SOL    HW186427  10.009   5.012   6.178  0.4417  0.2523 -3.5245
27643SOL    HW286428   9.867   5.058   6.202  0.9547  0.5531 -0.7171
27644SOL     OW86429   5.204  10.420  10.836 -0.1222  0.2011  0.0610
27644SOL    HW186430   5.277  10.453  10.783 -0.8121  0.5658 -0.6912
27644SOL    HW286431   5.244  10.357  10.896  1.3708  2.6585  1.8684
27645SOL     OW86432  10.231  10.745   1.864  0.2924  0.0437  0.1830
27645SOL    HW186433  10.320  10.780   1.870  0.5392 -0.4812 -0.3811
27645SOL    HW286434  10.175  10.823   1.869  0.8092  0.4478 -0.1994
27646SOL     OW86435   9.830   0.591   5.302  0.1707  0.6216  0.0668
27646SOL    HW186436   9.849   0.503   5.335  2.2016  0.5281 -1.1157
27646SOL    HW286437   9.739   0.587   5.274  0.2388 -1.1503 -0.0302
27647SOL     OW86438   6.593   5.182   8.825 -0.5137 -0.1795  0.2520
27647SOL    HW186439   6.556   5.163   8.738  3.4353 -0.6486 -1.5515
27647SOL    HW286440   6.583   5.276   8.835 -0.3187  0.0185 -1.1541
27648SOL     OW86441   4.767  10.970   5.114 -0.6225  0.3868  0.1784
27648SOL    HW186442   4.831  10.986   5.044 -0.0041 -0.7060  0.4767
27648SOL    HW286443   4.684  11.002   5.078  0.1835  2.5223  0.0579
27649SOL     OW86444  10.153   7.832   3.832 -0.0975  0.2195 -0.1479
27649SOL    HW186445  10.203   7.752   3.821 -1.9299 -0.9986  0.0121
27649SOL    HW286446  10.155   7.849   3.926 -0.6357 -0.2996 -0.0333
27650SOL     OW86447   2.432   7.316   7.931 -0.4661 -0.0001 -0.4427
27650SOL    HW186448   2.339   7.338   7.944 -0.5505 -0.5823  0.0458
27650SOL    HW286449   2.437   7.224   7.957  1.0225  1.0379  3.7043
27651SOL     OW86450   8.933   2.734   8.938  0.1283  0.4557  0.1578
27651SOL    HW186451   8.865   2.721   8.872 -1.1254  0.2760  1.4282
27651SOL    HW286452   9.010   2.690   8.902 -0.5788  0.1685 -1.0715
27652SOL     OW86453   5.701   5.317   0.054  0.1056  0.3100 -0.0768
27652SOL    HW186454   5.751   5.236   0.061 -2.3578 -1.5585 -2.1327
27652SOL    HW286455   5.733   5.358  -0.027 -1.0748 -0.5237 -1.0036
27653SOL     OW86456   7.781   7.770   7.969 -0.1674  0.7639 -0.2804
27653SOL    HW186457   7.733   7.689   7.985  1.4983  0.1713  2.3068
27653SOL    HW286458   7.872   7.743   7.964  0.1798  2.1045 -3.1208
27654SOL     OW86459   2.850   4.248   2.154 -0.0034 -0.3497  0.2253
27654SOL    HW186460   2.784   4.316   2.172  1.6980  1.2232  0.8046
27654SOL    HW286461   2.835   4.225   2.062 -2.7405 -1.6551  0.9004
27655SOL     OW86462   4.325   6.774   7.259 -0.2127 -0.3031 -0.4108
27655SOL    HW186463   4.297   6.853   7.212  0.1550  1.9110  2.7637
27655SOL    HW286464   4.418   6.789   7.277 -0.5131 -0.6646  1.6104
27656SOL     OW86465   2.010   2.981   1.659 -0.1288  0.5087 -0.2154
27656SOL    HW186466   1.976   3.045   1.722  1.2005 -0.3036  1.4253
27656SOL    HW286467   2.082   3.026   1.616  0.0044  0.5336  0.0298
27657SOL     OW86468   4.870   3.332   4.426  0.7982 -0.3140 -0.1443
27657SOL    HW186469   4.819   3.312   4.348  0.0609 -3.9066  1.0609
27657SOL    HW286470   4.961   3.319   4.400  0.7738  1.1596 -1.0314
27658SOL     OW86471  10.866   8.428   5.104  0.2103  0.0305 -0.0783
27658SOL    HW186472  10.909   8.429   5.189  0.8148  0.7205 -0.3801
27658SOL    HW286473  10.851   8.335   5.086  0.2244 -0.1291  0.7004
27659SOL     OW86474   7.667   7.211   5.563 -0.1648 -0.0149  0.3113
27659SOL    HW186475   7.648   7.304   5.553 -1.2101 -0.3050 -0.7014
27659SOL    HW286476   7.698   7.183   5.477  1.2066 -0.3888  0.9100
27660SOL     OW86477   6.549  10.461   4.828 -0.2500  0.1278 -0.3757
27660SOL    HW186478   6.635  10.470   4.787 -0.2420  2.0580 -0.0572
27660SOL    HW286479   6.492  10.432   4.757  0.6224 -1.1348 -0.6016
27661SOL     OW86480   7.520   0.759   7.662  0.0550 -0.7680 -0.7346
27661SOL    HW186481   7.573   0.759   7.742 -2.6746 -0.0217  1.2165
27661SOL    HW286482   7.563   0.824   7.606 -0.0841  1.7543  1.7956
27662SOL     OW86483   3.727   0.277   8.687 -0.4995 -0.4378 -0.2361
27662SOL    HW186484   3.704   0.370   8.685  1.0630 -0.0338 -1.9706
27662SOL    HW286485   3.646   0.233   8.715 -1.0922  1.4593  1.2113
27663SOL     OW86486   1.137   3.882   8.590  0.4610 -0.0537  0.0632
27663SOL    HW186487   1.199   3.818   8.626  1.4206 -0.1301 -1.5869
27663SOL    HW286488   1.173   3.903   8.503 -0.0805  2.3758  0.3474
27664SOL     OW86489   7.613   1.484   1.290 -0.5087 -0.1362  0.0676
27664SOL    HW186490   7.660   1.430   1.354  2.9851  1.2644 -1.0669
27664SOL    HW286491   7.656   1.466   1.207 -2.2725  1.0540 -1.1740
27665SOL     OW86492   3.761   1.168   4.779 -0.5722  0.1359 -0.1993
27665SOL    HW186493   3.840   1.191   4.829 -0.7136  0.2588 -0.0309
27665SOL    HW286494   3.752   1.073   4.792 -0.7846  0.2191  0.2671
27666SOL     OW86495   7.826  10.927  10.718 -0.3617 -0.2436 -0.3522
27666SOL    HW186496   7.889  10.920  10.790 -0.2442 -0.9608 -0.5093
27666SOL    HW286497   7.876  10.903  10.640 -0.0443  2.1530 -0.9582
27667SOL     OW86498   4.002   6.744   3.098 -0.0074  0.2671  0.0327
27667SOL    HW186499   4.051   6.785   3.027 -0.5290 -0.6269 -0.8763
27667SOL    HW286500   4.036   6.784   3.178  0.1820  1.7106 -0.7505
27668SOL     OW86501   3.764   6.263  10.714 -0.5000  0.9274  0.0043
27668SOL    HW186502   3.708   6.260  10.791  1.0861  1.7377  1.2447
27668SOL    HW286503   3.845   6.220  10.741 -0.8279 -1.2041 -2.0837
27669SOL     OW86504   0.780   4.782   1.117  0.5395 -0.0579  0.9335
27669SOL    HW186505   0.770   4.875   1.096 -0.3899  0.0015  1.5938
27669SOL    HW286506   0.754   4.737   1.036  1.7300  0.2546  0.3555
27670SOL     OW86507   8.292   4.945   5.911  0.3253  0.0110  0.1707
27670SOL    HW186508   8.199   4.930   5.894  0.7567 -2.5621 -0.2512
27670SOL    HW286509   8.326   4.981   5.829 -0.0836 -0.1220 -0.0592
27671SOL     OW86510   1.742   8.172   5.495  0.0210  0.5368  0.7512
27671SOL    HW186511   1.826   8.131   5.512 -0.8498 -1.1152  1.3316
27671SOL    HW286512   1.699   8.176   5.581 -0.2528  1.9303  0.5659
27672SOL     OW86513   1.701   2.357   9.164  0.5323  0.0344  0.6764
27672SOL    HW186514   1.712   2.295   9.092  2.1923 -0.6840  1.4836
27672SOL    HW286515   1.624   2.325   9.212 -0.9185  0.8316 -1.0195
27673SOL     OW86516   5.832   6.238   6.767  0.5664 -0.4724 -0.3225
27673SOL    HW186517   5.800   6.258   6.679  0.7299 -0.3555 -0.3578
27673SOL    HW286518   5.919   6.278   6.769 -0.0515  0.8897  0.4361
27674SOL     OW86519   6.992   2.157   8.086 -0.0460  0.1801  0.0577
27674SOL    HW186520   7.013   2.161   8.179 -0.1638  2.3126  0.0405
27674SOL    HW286521   7.072   2.185   8.042 -0.8179  1.9406 -0.3138
27675SOL     OW86522   1.067   8.574   6.961  0.1377  0.3531  0.0797
27675SOL    HW186523   1.105   8.557   7.047 -0.3470  1.7795  0.6004
27675SOL    HW286524   1.137   8.552   6.899  1.0958  0.9504  0.9203
27676SOL     OW86525   8.042   5.744   9.397 -0.6476 -0.4941  0.1967
27676SOL    HW186526   7.967   5.750   9.338  0.6476 -0.9950 -1.5908
27676SOL    HW286527   8.014   5.682   9.465 -0.3464 -4.4976 -2.9792
27677SOL     OW86528   2.710   8.032   6.200 -0.8468  0.0813  0.2060
27677SOL    HW186529   2.686   8.017   6.291 -0.1836  1.6029  0.6768
27677SOL    HW286530   2.780   8.098   6.204 -0.5220 -0.1061 -1.3840
27678SOL     OW86531   3.431   6.046   8.317  0.3815 -0.5226 -0.0719
27678SOL    HW186532   3.401   6.087   8.235 -0.7520 -1.0857  0.0468
27678SOL    HW286533   3.351   6.030   8.366  1.0183 -0.6788  0.9324
27679SOL     OW86534   3.349   6.795   1.637 -0.1613  0.0273  0.5742
27679SOL    HW186535   3.378   6.739   1.710 -0.6388  0.2871  0.9630
27679SOL    HW286536   3.409   6.773   1.566  1.2288  0.8086  1.4697
27680SOL     OW86537   2.052  10.034   3.693 -0.4257 -0.0139  0.2276
27680SOL    HW186538   2.079  10.051   3.603  0.0114  0.8184  0.5042
27680SOL    HW286539   2.083   9.945   3.711 -0.0328  0.0167 -0.2699
27681SOL     OW86540   1.686   9.788   8.760 -0.0646  0.2609  0.1038
27681SOL    HW186541   1.732   9.718   8.806  1.7947  1.3712  0.0259
27681SOL    HW286542   1.755   9.847   8.731 -1.3194  0.5143 -2.6245
27682SOL     OW86543   2.671   7.445  10.906 -0.3738  0.8567  0.1681
27682SOL    HW186544   2.649   7.536  10.927 -0.7889  0.5601  1.0625
27682SOL    HW286545   2.640   7.395  10.981 -1.2311 -0.1733 -0.8304
27683SOL     OW86546   2.461   8.707   8.632 -0.0914 -0.3871  0.2106
27683SOL    HW186547   2.483   8.689   8.724 -1.9950 -0.3376  0.7347
27683SOL    HW286548   2.386   8.766   8.638 -0.4805 -0.6918 -1.3852
27684SOL     OW86549   3.210   4.066   4.217 -0.2200  0.3595  0.3649
27684SOL    HW186550   3.225   3.991   4.159  1.9699  0.4493  0.7445
27684SOL    HW286551   3.180   4.135   4.158 -0.3564 -0.2295 -0.2787
27685SOL     OW86552   0.924   5.194   1.191  0.2380 -0.0755  0.5250
27685SOL    HW186553   1.006   5.191   1.141 -1.8116  0.2073 -3.1157
27685SOL    HW286554   0.909   5.288   1.205  0.8379 -0.1528  1.9193
27686SOL     OW86555   3.947   5.724   5.919 -0.4265 -0.1296 -0.2564
27686SOL    HW186556   3.887   5.787   5.881 -1.1592  0.8720  2.3651
27686SOL    HW286557   3.910   5.638   5.896 -2.0013  0.4561 -0.0241
27687SOL     OW86558   5.947   9.200   2.742 -0.0359 -0.0284  0.4755
27687SOL    HW186559   6.020   9.228   2.796  0.5618  1.5329 -1.0657
27687SOL    HW286560   5.988   9.149   2.672 -0.5357 -0.0152  0.1717
27688SOL     OW86561   8.169   7.968   4.222 -1.0162  0.2394  0.1355
27688SOL    HW186562   8.200   7.959   4.312 -0.0235 -0.5242 -0.2590
27688SOL    HW286563   8.147   7.879   4.195 -0.8482  0.3894 -0.5292
27689SOL     OW86564   5.028   2.858  10.873 -0.5048  0.5192  0.2948
27689SOL    HW186565   5.041   2.774  10.830  0.5170  1.4932 -1.4610
27689SOL    HW286566   4.990   2.914  10.805 -2.7868  1.0557  1.9138
27690SOL     OW86567  10.300   9.897   9.223 -0.0955  0.7441  0.0879
27690SOL    HW186568  10.360   9.882   9.296 -1.4393 -1.2456  0.8744
27690SOL    HW286569  10.213   9.903   9.264 -0.9245 -0.6807 -1.3092
27691SOL     OW86570   0.149   2.692   4.016  0.0022 -0.2637 -0.4608
27691SOL    HW186571   0.085   2.760   4.035  0.6224  0.7971 -1.9362
27691SOL    HW286572   0.218   2.737   3.968  1.2985 -1.6050  0.0638
27692SOL     OW86573   9.748   7.516   2.442 -0.1395  0.4367  0.2593
27692SOL    HW186574   9.661   7.494   2.410 -0.2952  0.8517  0.3946
27692SOL    HW286575   9.805   7.506   2.365 -0.1499 -0.7190  0.3847
27693SOL     OW86576   2.219  10.443   2.501  0.2031 -0.0729 -0.3790
27693SOL    HW186577   2.181  10.395   2.428  0.5217  1.7709 -1.8512
27693SOL    HW286578   2.292  10.388   2.532  0.0656 -0.8758 -1.4573
27694SOL     OW86579   3.550   1.498   9.276 -0.4352  0.4682 -0.0949
27694SOL    HW186580   3.606   1.516   9.200 -0.4250 -0.2663 -0.2679
27694SOL    HW286581   3.502   1.418   9.252 -0.6679  0.4147  0.5407
27695SOL     OW86582   7.534   5.403   7.336  0.2577  0.8497 -0.4304
27695SOL    HW186583   7.551   5.349   7.259 -0.2083 -0.1758  0.1737
27695SOL    HW286584   7.602   5.471   7.332  1.4316 -0.2871 -0.7243
27696SOL     OW86585   6.996   8.915   8.983  0.1265  0.1208 -0.3779
27696SOL    HW186586   6.962   8.906   9.072  0.2925 -0.4728 -0.3708
27696SOL    HW286587   7.064   8.983   8.990  1.4983 -1.2613  0.3614
27697SOL     OW86588   2.786   3.483   5.205 -0.2260  0.5251  0.1549
27697SOL    HW186589   2.775   3.575   5.180  1.2075  1.1133  1.5252
27697SOL    HW286590   2.719   3.467   5.271  0.5469  1.0992  1.1061
27698SOL     OW86591   3.621   8.023   9.614  0.0322  0.6325  0.3672
27698SOL    HW186592   3.577   7.939   9.599  1.3801 -0.0151 -0.2433
27698SOL    HW286593   3.633   8.060   9.526  1.5238  0.3120  0.3975
27699SOL     OW86594   5.409   1.593   1.725  0.2266 -0.1221  0.4562
27699SOL    HW186595   5.488   1.541   1.710  1.8860  2.9066 -2.7894
27699SOL    HW286596   5.353   1.574   1.649 -0.0860  1.1168  0.3461
27700SOL     OW86597   6.120   6.605   9.328  0.0707  0.4036 -0.1143
27700SOL    HW186598   6.061   6.552   9.275  1.6710  0.4442 -2.0730
27700SOL    HW286599   6.133   6.685   9.277  1.7495  0.4115  0.2568
27701SOL     OW86600  10.463   5.675   5.523  0.2212  0.1137 -0.2670
27701SOL    HW186601  10.379   5.700   5.484 -0.7802 -2.0830  0.3339
27701SOL    HW286602  10.454   5.698   5.615  0.3002 -0.0690 -0.2142
27702SOL     OW86603   7.857   9.434   4.841  0.3068 -0.2640  0.5666
27702SOL    HW186604   7.799   9.446   4.766 -1.2270 -2.0209  1.3966
27702SOL    HW286605   7.943   9.418   4.802 -0.3430 -0.5880 -0.8070
27703SOL     OW86606   2.170   5.112   7.938  0.1189  0.3092 -0.3213
27703SOL    HW186607   2.203   5.176   7.875  0.3834 -0.8221 -1.3688
27703SOL    HW286608   2.243   5.052   7.953 -0.5147 -0.4964 -0.3593
27704SOL     OW86609  10.329   5.308   5.584 -0.8354  0.5065  0.0179
27704SOL    HW186610  10.262   5.314   5.516 -1.0615  1.6474  0.3295
27704SOL    HW286611  10.288   5.344   5.662 -0.1059  0.5334  0.3997
27705SOL     OW86612   2.652   2.402   3.505 -0.4373 -0.7238  0.2713
27705SOL    HW186613   2.629   2.491   3.531  0.5657  0.5195 -2.6471
27705SOL    HW286614   2.636   2.400   3.411  1.8337 -2.8744 -0.1599
27706SOL     OW86615   8.478   4.012   7.872 -0.3253 -0.3942  0.6073
27706SOL    HW186616   8.536   4.033   7.944  1.7341  1.4244 -1.4115
27706SOL    HW286617   8.458   3.919   7.883  1.4300 -0.6202  2.4422
27707SOL     OW86618   3.861   6.094   7.046  0.3030 -0.0299  0.2558
27707SOL    HW186619   3.824   6.008   7.067  0.5962 -0.4393 -0.8332
27707SOL    HW286620   3.785   6.149   7.027  0.1672 -0.4717 -0.5342
27708SOL     OW86621   3.957   5.872   8.344 -0.2599  0.1252  0.2822
27708SOL    HW186622   4.027   5.912   8.292 -0.1571 -0.3652  0.0386
27708SOL    HW286623   3.903   5.945   8.373 -0.4526  0.3820 -0.7049
27709SOL     OW86624   4.898   3.268   4.144 -0.1503  0.2534 -0.1217
27709SOL    HW186625   4.943   3.187   4.166 -2.4110 -0.9206  0.5438
27709SOL    HW286626   4.941   3.300   4.065  1.5601 -0.9440  0.2871
27710SOL     OW86627   9.372   8.923   8.279  0.0768 -0.0437 -0.2175
27710SOL    HW186628   9.372   8.848   8.219  0.7801 -0.1990 -0.0322
27710SOL    HW286629   9.439   8.902   8.344  0.2885  0.7439 -0.1628
27711SOL     OW86630   5.748  10.175   7.479 -0.5865  0.5047 -0.5017
27711SOL    HW186631   5.675  10.113   7.465  0.4706 -0.8060 -0.3605
27711SOL    HW286632   5.825  10.120   7.487  0.3313  1.8418  0.1508
27712SOL     OW86633   5.213   0.079   4.621  0.4127 -0.2419  0.2963
27712SOL    HW186634   5.230   0.165   4.581  3.3028 -0.9875 -0.2896
27712SOL    HW286635   5.119   0.081   4.642  0.1591  2.6490 -0.6167
27713SOL     OW86636   3.068   9.875   4.917 -0.2059  0.2909 -0.1138
27713SOL    HW186637   3.015   9.899   4.841  2.1861  1.5870 -1.4993
27713SOL    HW286638   3.037   9.932   4.987 -0.2527  1.4799 -1.0655
27714SOL     OW86639   5.823   9.041   6.408 -0.1629 -0.0886  0.1209
27714SOL    HW186640   5.848   8.951   6.429 -0.0222  0.5074  2.7906
27714SOL    HW286641   5.779   9.033   6.323  0.0830 -2.6250  0.1361
27715SOL     OW86642   2.005   3.576   2.786 -0.0667 -0.0824  0.2588
27715SOL    HW186643   1.977   3.503   2.730  0.1017  0.2734 -0.2857
27715SOL    HW286644   1.925   3.625   2.804 -0.0130  0.1881 -0.2275
27716SOL     OW86645  10.650  10.933   4.672 -0.7263  0.2335 -0.4450
27716SOL    HW186646  10.684  10.892   4.593  0.4947  0.5666 -0.1174
27716SOL    HW286647  10.641  10.861   4.734  2.6798  0.4803  0.5735
27717SOL     OW86648   8.535   3.672   8.741 -0.0522  0.4816 -0.5097
27717SOL    HW186649   8.442   3.663   8.722 -0.6715  1.9445  1.5620
27717SOL    HW286650   8.558   3.760   8.710  0.6902  0.0981 -1.0917
27718SOL     OW86651   5.554   0.305   0.555 -0.3401  0.1315  0.5828
27718SOL    HW186652   5.536   0.390   0.516  1.4725  0.7743  1.0440
27718SOL    HW286653   5.548   0.243   0.482 -0.7721  0.7746  0.0650
27719SOL     OW86654   4.639  10.220   2.160  0.2417  1.2207  0.2678
27719SOL    HW186655   4.653  10.126   2.152 -1.1975  1.0477 -0.6415
27719SOL    HW286656   4.727  10.258   2.156  0.8923 -0.1078  1.2655
27720SOL     OW86657   6.626  10.060   6.706  0.4156 -0.2189 -0.0454
27720SOL    HW186658   6.615  10.155   6.697 -0.7683  0.0923  3.2205
27720SOL    HW286659   6.545  10.023   6.672 -0.0396  0.1513  0.5976
27721SOL     OW86660   1.516   2.869   6.726 -0.1867  0.2751  0.5328
27721SOL    HW186661   1.478   2.810   6.661  0.4143  0.0477  0.3788
27721SOL    HW286662   1.505   2.824   6.809 -0.0940  0.1291  0.4663
27722SOL     OW86663  10.777   4.747   7.671  0.5514 -1.0456 -0.2340
27722SOL    HW186664  10.687   4.737   7.641 -0.0199  0.1050  0.9883
27722SOL    HW286665  10.823   4.784   7.596 -0.1857 -0.8606 -0.6044
27723SOL     OW86666   4.292   0.157   5.914 -0.3341  0.2331  0.2495
27723SOL    HW186667   4.292   0.241   5.868  0.2153 -0.0602 -0.3074
27723SOL    HW286668   4.211   0.114   5.886  0.8528 -0.7354 -1.9821
27724SOL     OW86669   1.438  10.503   2.572 -0.1283 -0.1958 -0.1336
27724SOL    HW186670   1.370  10.570   2.569 -0.2486 -0.3488 -1.2688
27724SOL    HW286671   1.390  10.420   2.562  0.1676 -0.3505 -0.2862
27725SOL     OW86672   9.249   2.654  10.957  0.6530 -0.0389 -0.6691
27725SOL    HW186673   9.274   2.705  10.880 -0.5433 -0.5852 -1.4458
27725SOL    HW286674   9.310   2.580  10.958  0.7635  0.0485 -1.0086
27726SOL     OW86675   9.903   9.168  10.012 -0.4692  0.4394 -0.0726
27726SOL    HW186676   9.974   9.105  10.022 -0.0105  0.6471 -1.6867
27726SOL    HW286677   9.864   9.175  10.099  2.1374  1.1339  1.1145
27727SOL     OW86678  10.809   9.215   6.105  0.1257 -0.4177 -0.4194
27727SOL    HW186679  10.867   9.187   6.176  0.7056  1.4393 -0.0989
27727SOL    HW286680  10.833   9.307   6.090 -0.1928 -0.6616 -2.8103
27728SOL     OW86681   1.390   8.485   0.736 -0.2235 -0.1707  0.0200
27728SOL    HW186682   1.383   8.574   0.699 -0.4005 -0.0762  0.2781
27728SOL    HW286683   1.359   8.428   0.666 -0.3997 -0.0048 -0.0401
27729SOL     OW86684   2.546   2.715   7.062 -0.3233 -0.0930 -0.6066
27729SOL    HW186685   2.450   2.715   7.059 -0.3591 -0.7547  0.1536
27729SOL    HW286686   2.573   2.737   6.973 -1.1796 -0.9345 -1.0987
27730SOL     OW86687   4.426  10.202   8.963  0.1554 -0.3296  0.4222
27730SOL    HW186688   4.510  10.232   8.999  0.6271 -0.7307 -0.3125
27730SOL    HW286689   4.410  10.261   8.889  0.8977 -1.5894 -0.7936
27731SOL     OW86690   2.273   7.023  10.157 -0.2940 -0.0697 -0.5490
27731SOL    HW186691   2.328   6.950  10.186  0.0125  0.3043 -0.1842
27731SOL    HW286692   2.296   7.095  10.215  0.2001  0.6488 -1.6124
27732SOL     OW86693   5.920  10.470   0.830 -0.4708  0.2332 -0.5614
27732SOL    HW186694   5.972  10.529   0.885 -0.6643  2.2922 -2.4646
27732SOL    HW286695   5.860  10.527   0.783 -1.9784 -1.7131 -1.1457
27733SOL     OW86696  10.315   8.402   8.295  0.3256 -0.2913 -0.3358
27733SOL    HW186697  10.373   8.352   8.237  2.3308 -0.1671  1.4094
27733SOL    HW286698  10.292   8.340   8.364  1.1636  0.5679  0.7599
27734SOL     OW86699   5.541   2.005   6.387 -0.1506  0.3548  0.1040
27734SOL    HW186700   5.622   1.987   6.338 -0.6252 -2.4079  0.1434
27734SOL    HW286701   5.547   1.948   6.464 -1.8076  0.6196  0.4625
27735SOL     OW86702   3.663  10.449   5.619  0.1350 -0.2279  0.5924
27735SOL    HW186703   3.753  10.434   5.651  0.9092 -1.6376 -1.9889
27735SOL    HW286704   3.674  10.501   5.540 -1.4296  0.2237  0.6438
27736SOL     OW86705   3.377   9.631   9.202 -0.2159  0.2395  0.0082
27736SOL    HW186706   3.399   9.565   9.136 -0.4360  0.4856 -0.3112
27736SOL    HW286707   3.418   9.598   9.282  0.2179  0.0387 -0.2921
27737SOL     OW86708   0.672   3.187   5.939  0.2167  0.3577  0.0415
27737SOL    HW186709   0.650   3.277   5.917 -0.8068  0.8203  2.5627
27737SOL    HW286710   0.764   3.191   5.967  0.3351  0.5015 -0.3633
27738SOL     OW86711   9.657   5.645   0.590 -0.0734 -0.3387  0.0220
27738SOL    HW186712   9.679   5.659   0.498  1.7045 -0.0701  0.4483
27738SOL    HW286713   9.662   5.733   0.629  0.9696 -0.6703  0.6942
27739SOL     OW86714   4.091   5.775   1.886  0.5774  0.6652  0.6380
27739SOL    HW186715   4.011   5.723   1.873  0.6505  0.9283 -1.0559
27739SOL    HW286716   4.067   5.840   1.951 -0.3411  0.2102  0.7669
27740SOL     OW86717   1.337   4.960   7.593 -0.0669 -0.1319  0.3896
27740SOL    HW186718   1.347   4.919   7.507  0.9745  1.4620 -0.2984
27740SOL    HW286719   1.380   4.900   7.653  1.0410 -0.2947 -0.5232
27741SOL     OW86720   8.239   4.514   8.011  0.1462 -0.0406  0.4138
27741SOL    HW186721   8.216   4.512   7.918  0.5554  0.0217  0.3096
27741SOL    HW286722   8.332   4.533   8.012 -0.2514  2.1407  0.8940
27742SOL     OW86723   5.638   5.186   3.785 -0.8382 -0.0607 -0.0907
27742SOL    HW186724   5.731   5.173   3.802 -0.8634 -1.2365 -0.7851
27742SOL    HW286725   5.602   5.212   3.870 -0.2649 -1.8267  0.7309
27743SOL     OW86726   5.481   8.332   7.586  0.5292  0.2344  0.4204
27743SOL    HW186727   5.507   8.369   7.502 -0.1814  0.4939  0.3115
27743SOL    HW286728   5.386   8.340   7.588  0.6328  1.8765  2.0102
27744SOL     OW86729   5.285   4.000   7.959  0.8159  0.2735 -0.1944
27744SOL    HW186730   5.301   4.093   7.975  1.8043  0.1517 -0.4070
27744SOL    HW286731   5.195   3.985   7.989  0.9648  1.1012  0.6979
27745SOL     OW86732  10.743   3.096   6.453 -0.0423  0.1185  0.6862
27745SOL    HW186733  10.680   3.132   6.391 -0.9850 -0.2766  1.3762
27745SOL    HW286734  10.744   3.159   6.525 -0.4373 -0.3815  1.1406
27746SOL     OW86735   6.006   6.678  10.878 -0.0881 -0.2150 -0.4367
27746SOL    HW186736   6.012   6.774  10.871 -2.3440 -0.1087 -2.0754
27746SOL    HW286737   6.095   6.648  10.861  0.5305  1.5810 -0.6336
27747SOL     OW86738   9.152   4.746  10.388 -0.0839  0.3211  0.3220
27747SOL    HW186739   9.075   4.798  10.364  0.1189 -0.3132 -1.9428
27747SOL    HW286740   9.226   4.805  10.375  0.1024 -0.2984 -1.7040
27748SOL     OW86741   2.374   6.447   3.449  0.0178 -0.2833 -0.2773
27748SOL    HW186742   2.400   6.531   3.411  0.3259 -0.5791 -0.7176
27748SOL    HW286743   2.278   6.452   3.453  0.0058 -0.1059 -0.7544
27749SOL     OW86744   8.542   9.913   9.048  0.1008  0.5629  0.5415
27749SOL    HW186745   8.636   9.927   9.037  0.6642 -2.5720  0.3919
27749SOL    HW286746   8.506   9.922   8.960  0.6799 -0.4286  0.1782
27750SOL     OW86747   1.037   7.462   2.659 -0.7410 -0.1998 -0.3774
27750SOL    HW186748   1.035   7.446   2.754  0.4820 -0.3871 -0.3692
27750SOL    HW286749   0.945   7.470   2.634 -1.1481 -1.4343  0.6147
27751SOL     OW86750   4.443   0.123   6.567 -0.0366 -0.3838  0.0721
27751SOL    HW186751   4.445   0.214   6.596  1.3489  0.3190 -1.9674
27751SOL    HW286752   4.412   0.074   6.643  2.2908  1.3941  2.3745
27752SOL     OW86753   6.172   2.798   4.904 -0.5545  0.2390 -0.1700
27752SOL    HW186754   6.127   2.741   4.842 -0.9373 -1.0494  1.2427
27752SOL    HW286755   6.261   2.763   4.909 -0.7981 -0.2597  0.7230
27753SOL     OW86756   8.790   0.505   6.168  0.5920  0.5590  0.7947
27753SOL    HW186757   8.704   0.544   6.157  0.2201 -0.5192 -0.3658
27753SOL    HW286758   8.773   0.419   6.206  0.9523 -0.4113 -1.0949
27754SOL     OW86759   3.886   4.373   1.309  0.0801 -0.0103  0.3436
27754SOL    HW186760   3.881   4.449   1.252  0.5793 -0.3610 -0.1908
27754SOL    HW286761   3.890   4.298   1.249  3.2727 -0.2704  0.6767
27755SOL     OW86762  10.657   8.680   2.994  0.0964  0.0649 -0.3192
27755SOL    HW186763  10.717   8.651   2.925  0.6909 -0.6516  0.4694
27755SOL    HW286764  10.571   8.647   2.968 -0.4730  2.9657 -2.6042
27756SOL     OW86765   1.514   2.122   9.444  0.1400  0.2696 -0.3006
27756SOL    HW186766   1.479   2.182   9.378 -0.4275  0.6912  0.3699
27756SOL    HW286767   1.436   2.084   9.485  0.4820  0.1672  0.2649
27757SOL     OW86768   4.309   0.996   9.278  0.1571 -0.3119  0.5907
27757SOL    HW186769   4.365   1.074   9.274  0.9396 -0.9019 -0.9114
27757SOL    HW286770   4.229   1.026   9.321 -0.4075  1.9262 -1.7542
27758SOL     OW86771  10.977   3.732   1.153  0.4513  0.3864  0.0350
27758SOL    HW186772  10.885   3.754   1.168  0.7931  1.6296  0.5061
27758SOL    HW286773  11.024   3.778   1.223  1.5270  0.7472 -0.8903
27759SOL     OW86774   1.574   9.348   4.579 -0.4221 -0.1720  0.0780
27759SOL    HW186775   1.619   9.430   4.597 -1.2427 -0.0769  1.9616
27759SOL    HW286776   1.487   9.374   4.550  0.3155 -0.3716 -2.5585
27760SOL     OW86777   8.655  10.768   6.525  0.1282  0.2865  0.2529
27760SOL    HW186778   8.626  10.854   6.494 -1.5794 -0.9532 -1.8409
27760SOL    HW286779   8.715  10.736   6.458  0.5388 -0.2792  0.8741
27761SOL     OW86780  10.618   9.232  10.616  0.4330  0.3298 -0.0484
27761SOL    HW186781  10.577   9.297  10.673  2.2751  0.4770  1.1971
27761SOL    HW286782  10.562   9.155  10.624  0.2414  0.5869  1.4335
27762SOL     OW86783   6.418   7.558   2.322 -0.1685 -0.1786 -0.3882
27762SOL    HW186784   6.423   7.597   2.410  1.2876 -1.1786  0.0155
27762SOL    HW286785   6.466   7.475   2.330 -1.9032 -1.3481 -1.6006
27763SOL     OW86786   1.567   5.747   2.076  0.2690  0.0212 -0.3436
27763SOL    HW186787   1.516   5.757   2.157 -1.2214 -1.1052 -1.0763
27763SOL    HW286788   1.535   5.817   2.019 -0.8783 -0.9859 -0.9800
27764SOL     OW86789  10.787   6.610   5.746 -0.3404 -0.1529  0.2156
27764SOL    HW186790  10.714   6.556   5.775 -1.0906  0.3643 -0.6631
27764SOL    HW286791  10.864   6.571   5.788 -1.2942  0.3481  2.6238
27765SOL     OW86792   0.354   2.416   0.361  0.2357  0.3381  0.0599
27765SOL    HW186793   0.406   2.425   0.282  1.0459 -3.2662  0.0222
27765SOL    HW286794   0.269   2.386   0.331  1.3106 -3.6409  0.4734
27766SOL     OW86795   0.689   5.784   4.219  0.4404 -0.5348  0.2763
27766SOL    HW186796   0.678   5.697   4.257 -0.1297 -0.2073  0.8990
27766SOL    HW286797   0.615   5.834   4.253  0.7836  0.2035 -0.0393
27767SOL     OW86798   7.098   0.443   1.835 -0.1430 -0.6286  0.0717
27767SOL    HW186799   7.128   0.374   1.894  0.5487  1.1293  1.8574
27767SOL    HW286800   7.053   0.395   1.764 -0.1319 -2.8608  1.4678
27768SOL     OW86801   1.469   2.422   7.159  0.3377 -0.1804  0.0493
27768SOL    HW186802   1.402   2.476   7.117  1.6276  0.2337 -1.5597
27768SOL    HW286803   1.467   2.448   7.251 -1.6339 -0.1293  0.0413
27769SOL     OW86804   8.750   9.859   8.115 -0.1806 -0.2084 -0.1359
27769SOL    HW186805   8.844   9.844   8.127 -0.0921  0.1965 -0.2991
27769SOL    HW286806   8.715   9.774   8.089  0.3106 -0.1573 -1.0140
27770SOL     OW86807   8.223  10.321   0.318 -0.8460  0.5656  0.7243
27770SOL    HW186808   8.175  10.240   0.299  0.3309 -0.3105  1.3401
27770SOL    HW286809   8.172  10.390   0.275 -0.8946 -0.7179 -1.4230
27771SOL     OW86810   6.745   3.733   5.052  0.0423 -1.0207  0.0491
27771SOL    HW186811   6.690   3.766   5.123  1.6688 -1.7162  1.7050
27771SOL    HW286812   6.739   3.638   5.059  0.1349 -1.0999 -0.8414
27772SOL     OW86813   4.212   3.762   4.236 -0.2261  0.2980  0.4832
27772SOL    HW186814   4.238   3.843   4.193  1.7216 -1.3048 -1.6692
27772SOL    HW286815   4.191   3.702   4.164  1.6725 -2.0882  1.7342
27773SOL     OW86816   5.344  10.951   7.092 -0.4007 -0.1681 -0.3590
27773SOL    HW186817   5.359  10.886   7.160  0.1908  0.3017 -0.0244
27773SOL    HW286818   5.428  10.958   7.046  0.1740  1.7006  0.8215
27774SOL     OW86819   8.603   2.411   4.982 -0.0992  0.4542  0.3293
27774SOL    HW186820   8.530   2.350   4.983  0.2441  0.0296  0.1233
27774SOL    HW286821   8.585   2.470   4.910  0.1184 -0.1001 -0.1855
27775SOL     OW86822   2.134   6.843   2.729 -0.0698 -0.1014  0.4021
27775SOL    HW186823   2.193   6.861   2.801 -0.8811  0.0873  1.0381
27775SOL    HW286824   2.111   6.750   2.739 -0.5633  0.0481  0.6815
27776SOL     OW86825   3.126   5.193   0.715 -0.3266 -0.0861 -0.5713
27776SOL    HW186826   3.109   5.126   0.781 -1.2688  1.2630  0.6040
27776SOL    HW286827   3.040   5.229   0.695  0.0889  0.3361 -1.6957
27777SOL     OW86828   0.595   4.167   4.695  0.5470  0.0003  0.4132
27777SOL    HW186829   0.548   4.115   4.760  1.3687  0.6059  1.5095
27777SOL    HW286830   0.631   4.241   4.744  0.4850  0.9248 -0.8780
27778SOL     OW86831   8.754   9.581   0.599  0.5441 -0.1970 -0.0353
27778SOL    HW186832   8.720   9.665   0.569 -0.9578 -1.0762 -0.9289
27778SOL    HW286833   8.780   9.536   0.519 -1.0517 -1.5445  0.1369
27779SOL     OW86834   5.378   1.009   6.141 -0.6721 -0.4290 -0.1555
27779SOL    HW186835   5.334   0.983   6.222 -1.0882 -1.4958 -0.7052
27779SOL    HW286836   5.425   0.930   6.113 -0.6574 -0.1192 -1.0253
27780SOL     OW86837   8.262   1.080  10.951 -0.5325 -0.2059 -0.5898
27780SOL    HW186838   8.336   1.077  10.890 -0.0023  0.5061 -0.0061
27780SOL    HW286839   8.255   1.172  10.975  0.3617 -0.6526  1.7042
27781SOL     OW86840   9.438   3.496   1.407  0.4726  0.0674 -0.0366
27781SOL    HW186841   9.462   3.434   1.476 -3.1882 -3.4787 -1.5276
27781SOL    HW286842   9.386   3.563   1.452  0.0221 -0.9271  0.9634
27782SOL     OW86843   7.691   2.133   8.017  0.1840  1.2800  0.6025
27782SOL    HW186844   7.683   2.126   7.922  0.5538  0.5508  0.6196
27782SOL    HW286845   7.600   2.135   8.048  0.0611  1.5692  0.2351
27783SOL     OW86846   5.187   1.779   4.123 -0.2188  0.1502  0.3722
27783SOL    HW186847   5.250   1.733   4.178 -0.2581 -0.6591 -0.2403
27783SOL    HW286848   5.222   1.772   4.035 -1.1159 -0.2351  0.0352
27784SOL     OW86849   4.035   1.332  10.806 -0.7690 -0.3962  0.4475
27784SOL    HW186850   4.085   1.295  10.879  0.4947  1.2828  0.4827
27784SOL    HW286851   4.089   1.314  10.729 -0.9802 -0.1258  0.2381
27785SOL     OW86852   9.670   8.516   7.605 -0.6347 -0.5503 -0.1889
27785SOL    HW186853   9.711   8.439   7.566  0.6982 -0.3046  0.6464
27785SOL    HW286854   9.609   8.547   7.539  1.0955 -0.4894 -1.8259
27786SOL     OW86855   1.999   8.639   1.292 -0.3818 -0.5478  0.1495
27786SOL    HW186856   1.971   8.691   1.217 -1.2091 -1.2435 -0.0402
27786SOL    HW286857   2.088   8.671   1.311 -0.4713  0.2024 -0.5999
27787SOL     OW86858   5.811   6.819   8.960  0.3423  0.1625  0.4386
27787SOL    HW186859   5.867   6.885   8.920 -0.4048  0.6993  0.2442
27787SOL    HW286860   5.843   6.736   8.925  0.8301  0.4805  0.1111
27788SOL     OW86861   2.088   2.873  10.549  0.2077  0.0448  0.2776
27788SOL    HW186862   2.033   2.933  10.499 -1.1191  0.2013  1.8347
27788SOL    HW286863   2.034   2.796  10.563  0.7803 -0.2529  0.9030
27789SOL     OW86864   9.616   4.774   1.009  0.0302 -0.1836  0.0898
27789SOL    HW186865   9.644   4.687   1.034 -0.5716 -0.4445 -0.1126
27789SOL    HW286866   9.544   4.795   1.069  0.8903  0.6370  0.8662
27790SOL     OW86867   1.202   9.783   5.370 -0.0517 -0.7867  0.3442
27790SOL    HW186868   1.145   9.803   5.295 -0.8349 -0.9062  0.8920
27790SOL    HW286869   1.288   9.770   5.332 -0.1103  0.7209 -0.3650
27791SOL     OW86870   9.539  10.441   0.122  0.3490  0.4310 -0.4558
27791SOL    HW186871   9.565  10.522   0.165  0.8189  0.0953 -0.0934
27791SOL    HW286872   9.444  10.447   0.114  0.2846  0.6417  0.3612
27792SOL     OW86873   9.254   4.954   5.354  0.1487  0.3068 -1.0138
27792SOL    HW186874   9.172   5.002   5.346  0.2647  0.6734 -0.1638
27792SOL    HW286875   9.315   5.017   5.392  0.0783 -0.7261  0.9535
27793SOL     OW86876   8.257   8.843   1.163 -0.0334  0.0398 -0.2522
27793SOL    HW186877   8.163   8.847   1.146 -0.4963  0.6748  2.1709
27793SOL    HW286878   8.276   8.923   1.212  1.1317 -1.5596  2.0686
27794SOL     OW86879   3.239   8.015   1.372  0.3138 -0.1036  0.4242
27794SOL    HW186880   3.236   8.010   1.277 -0.0533  2.3048  0.2394
27794SOL    HW286881   3.151   7.987   1.400 -0.0117  0.4097 -0.0561
27795SOL     OW86882   2.497   0.188   8.571 -0.0653  0.2849 -0.2363
27795SOL    HW186883   2.541   0.207   8.489  2.0165  0.3504  0.8219
27795SOL    HW286884   2.563   0.141   8.623 -1.4746 -0.1881  1.2061
27796SOL     OW86885   9.878   8.334   7.044  0.0589  0.7145 -0.1007
27796SOL    HW186886   9.845   8.375   7.124  1.1688 -0.4677  1.0305
27796SOL    HW286887   9.884   8.405   6.981 -0.8930  1.6794  0.8508
27797SOL     OW86888   8.548   7.088   0.568 -0.0023 -0.2165 -0.0928
27797SOL    HW186889   8.552   7.106   0.662  1.2370 -2.7233  0.4162
27797SOL    HW286890   8.457   7.062   0.553 -0.4622  1.1594  0.1745
27798SOL     OW86891   4.129   1.622   3.201 -0.7194 -0.0717 -0.0218
27798SOL    HW186892   4.097   1.629   3.111  1.1380 -1.3173 -0.8458
27798SOL    HW286893   4.206   1.679   3.204  0.6489 -1.8359  0.0222
27799SOL     OW86894   1.953   8.622   1.558  0.1848 -0.0568  0.2360
27799SOL    HW186895   1.945   8.637   1.464 -0.4186  1.0139  0.4376
27799SOL    HW286896   1.867   8.645   1.594  0.5668  0.0651  1.1031
27800SOL     OW86897  10.904   6.006   8.251  0.1271 -0.2377  0.6356
27800SOL    HW186898  10.932   5.957   8.174 -0.6470 -0.9166  0.7775
27800SOL    HW286899  10.871   6.089   8.216 -2.3963 -1.4406 -0.0234
27801SOL     OW86900  10.292   4.054  10.797 -0.1340 -0.2740  0.3593
27801SOL    HW186901  10.375   4.099  10.786  0.1849 -0.9234  0.1026
27801SOL    HW286902  10.315   3.961  10.804 -0.6991 -0.3297  1.8251
27802SOL     OW86903   0.453   5.775   9.811 -0.3029  0.5449 -0.4948
27802SOL    HW186904   0.485   5.736   9.892  2.4018 -3.0984 -3.0048
27802SOL    HW286905   0.485   5.865   9.814  0.8076  0.1538  1.9214
27803SOL     OW86906   8.095   2.829   7.227 -0.0204 -0.6276 -0.0009
27803SOL    HW186907   8.060   2.881   7.299  0.3739 -0.0182 -0.2318
27803SOL    HW286908   8.155   2.767   7.268 -0.1398 -0.5868  0.2364
27804SOL     OW86909   9.729   7.664   4.394 -0.0314  0.6003  0.0937
27804SOL    HW186910   9.797   7.710   4.344  1.4316 -0.8231  0.6988
27804SOL    HW286911   9.713   7.721   4.470 -0.3744  1.5004 -0.6288
27805SOL     OW86912   4.890   4.709  10.583  0.3814 -0.5227  0.2692
27805SOL    HW186913   4.808   4.756  10.593 -0.4919 -1.4623 -1.9316
27805SOL    HW286914   4.888   4.641  10.652  0.1796  0.5626  1.3647
27806SOL     OW86915   8.764   4.945   4.560 -0.0921 -0.2116 -0.3888
27806SOL    HW186916   8.796   4.869   4.512  1.0941  0.6933 -1.0888
27806SOL    HW286917   8.743   4.912   4.647  1.5576 -1.1211 -0.3113
27807SOL     OW86918   5.590   4.652   5.352 -0.5290  0.1765 -0.0401
27807SOL    HW186919   5.559   4.654   5.261 -0.1242 -1.1455 -0.2271
27807SOL    HW286920   5.682   4.679   5.347 -0.3506 -0.4420 -0.0958
27808SOL     OW86921   3.279   1.686   4.315 -0.0968  0.1302 -0.2979
27808SOL    HW186922   3.362   1.696   4.362 -0.3453  0.7776  0.0033
27808SOL    HW286923   3.285   1.598   4.276  1.0295  0.4375 -0.8780
27809SOL     OW86924   7.936   2.081  10.349  0.1667 -0.1079  0.0127
27809SOL    HW186925   7.881   2.003  10.363  0.4645 -0.1290  1.1565
27809SOL    HW286926   7.942   2.089  10.254  1.7391 -2.6305 -0.1957
27810SOL     OW86927   1.235   0.375   4.892  0.0394 -0.0334 -0.4669
27810SOL    HW186928   1.159   0.329   4.928  0.9333 -0.6583  0.6788
27810SOL    HW286929   1.300   0.306   4.876  1.6233  0.8216  1.8037
27811SOL     OW86930  10.502   6.489   8.313 -0.2424  0.5559  0.6915
27811SOL    HW186931  10.513   6.409   8.364 -0.0862  1.5219  2.2654
27811SOL    HW286932  10.427   6.532   8.354 -0.5328  1.0517 -0.3488
27812SOL     OW86933   1.184   3.394   5.464 -0.0998 -0.0821 -0.6045
27812SOL    HW186934   1.118   3.435   5.408 -2.3631 -0.8185  1.3522
27812SOL    HW286935   1.189   3.451   5.542  0.1967 -1.0245  0.0848
27813SOL     OW86936  10.203   9.436  10.128  0.0280 -0.3500  0.5165
27813SOL    HW186937  10.188   9.359  10.183 -1.0235 -0.7148 -0.2438
27813SOL    HW286938  10.263   9.407  10.060  1.3149  0.0972  1.4277
27814SOL     OW86939   8.265   3.229   4.444  0.3186  0.4072 -0.0440
27814SOL    HW186940   8.295   3.296   4.505 -1.5947 -0.1096  1.5915
27814SOL    HW286941   8.296   3.147   4.482  0.3311  0.1628 -0.5661
27815SOL     OW86942   5.290   6.474   6.450  0.0522 -0.3218 -0.3043
27815SOL    HW186943   5.335   6.393   6.428 -0.8410 -0.1569 -3.1103
27815SOL    HW286944   5.226   6.448   6.517  2.0056 -1.1660  1.3576
27816SOL     OW86945   9.711   2.994   7.517 -0.4481  0.1763  0.2001
27816SOL    HW186946   9.793   3.043   7.515 -0.1458 -0.3277 -0.0260
27816SOL    HW286947   9.717   2.935   7.442 -0.9380  0.0092  0.2901
27817SOL     OW86948   7.711   2.299   0.537  0.0032 -0.1682  0.1165
27817SOL    HW186949   7.655   2.338   0.470 -1.4924 -0.9023  0.8949
27817SOL    HW286950   7.759   2.373   0.574  0.2150  0.3560 -1.1559
27818SOL     OW86951   1.811   8.589   7.917  0.3602 -0.4209 -0.1267
27818SOL    HW186952   1.773   8.618   8.000  0.3783 -2.3541  0.6169
27818SOL    HW286953   1.906   8.592   7.932  0.3783 -0.2278 -0.2780
27819SOL     OW86954   2.387   8.567   8.242 -0.6100  0.2406 -0.3789
27819SOL    HW186955   2.348   8.646   8.279 -0.2580 -0.0466  0.6361
27819SOL    HW286956   2.312   8.507   8.230 -0.9295  0.8321 -1.4863
27820SOL     OW86957   8.406   8.985   4.973 -0.1113  0.1418  0.4671
27820SOL    HW186958   8.377   8.925   5.042 -0.1169 -0.3156  0.0713
27820SOL    HW286959   8.331   8.991   4.914 -0.1301  0.5869  0.5279
27821SOL     OW86960   3.223   0.529   8.908 -0.2682 -0.6643  0.5011
27821SOL    HW186961   3.142   0.479   8.891 -0.6450 -0.7972  2.4742
27821SOL    HW286962   3.281   0.466   8.951  1.0266 -0.6374 -1.1203
27822SOL     OW86963   2.685   4.809   2.141 -0.5208  0.3287 -0.5206
27822SOL    HW186964   2.717   4.758   2.066 -2.1050  0.1371 -1.1286
27822SOL    HW286965   2.706   4.900   2.119 -0.5039  0.2214 -0.9711
27823SOL     OW86966   7.187   2.341   7.933  0.2270  0.1598  0.0748
27823SOL    HW186967   7.212   2.349   8.025 -0.1388  0.9259  0.1154
27823SOL    HW286968   7.269   2.344   7.886  0.3897  0.1855  0.3550
27824SOL     OW86969   1.741   8.944   7.180 -0.0113 -0.0417  0.4174
27824SOL    HW186970   1.798   8.957   7.105 -0.4556 -0.0076  0.0848
27824SOL    HW286971   1.692   8.864   7.160  0.3651 -0.4287  0.9850
27825SOL     OW86972   9.266   4.534   8.032 -0.0653 -0.9772  0.2281
27825SOL    HW186973   9.305   4.598   7.973  0.3143  0.8423  2.3305
27825SOL    HW286974   9.320   4.456   8.021  1.1760 -0.0724 -0.4150
27826SOL     OW86975   9.206   2.461   1.622 -0.3796  0.4996  0.2699
27826SOL    HW186976   9.117   2.498   1.615 -1.1099 -1.2498 -0.2212
27826SOL    HW286977   9.223   2.459   1.716 -1.0209  0.4947  0.3959
27827SOL     OW86978   2.552  10.671   1.900 -0.3258  0.4482 -0.0166
27827SOL    HW186979   2.557  10.673   1.996 -1.5539  1.0196  0.0576
27827SOL    HW286980   2.471  10.624   1.882  0.6187 -0.9262 -0.8246
27828SOL     OW86981   3.946   7.405   8.686 -0.3144 -0.0163  0.2714
27828SOL    HW186982   3.867   7.377   8.639 -1.6567  2.5143  0.8515
27828SOL    HW286983   3.955   7.342   8.758 -1.4064 -0.7216 -0.1793
27829SOL     OW86984  10.276   1.593   8.277  0.6808  0.7961  0.7176
27829SOL    HW186985  10.290   1.526   8.344 -0.5775 -0.2997 -0.0557
27829SOL    HW286986  10.184   1.583   8.252  1.0688  1.2702 -1.0556
27830SOL     OW86987   4.152   8.503   6.753 -0.2005 -0.1725  0.2357
27830SOL    HW186988   4.148   8.518   6.848  2.3443 -1.1545  0.6016
27830SOL    HW286989   4.219   8.565   6.723 -3.2294  2.4796 -1.5960
27831SOL     OW86990   2.055   5.531   9.928  0.5360 -0.1014 -0.0471
27831SOL    HW186991   1.966   5.502   9.910 -0.0014  2.0129 -1.2463
27831SOL    HW286992   2.050   5.572  10.014  0.3959 -0.2167 -0.0014
27832SOL     OW86993   9.637   3.127  10.899  0.4725 -0.3877  0.3305
27832SOL    HW186994   9.583   3.069  10.953 -0.8080  0.0795 -0.4006
27832SOL    HW286995   9.693   3.067  10.849 -0.7239 -1.0198 -0.3100
27833SOL     OW86996  10.890   9.900   3.389 -0.2912 -0.4430 -0.1465
27833SOL    HW186997  10.932   9.867   3.468  1.2290  1.2230 -0.1869
27833SOL    HW286998  10.932   9.985   3.374 -2.1435  0.2876 -1.4836
27834SOL     OW86999   6.815   9.678  10.656  0.5555 -0.1357  0.1210
27834SOL    HW187000   6.846   9.753  10.708  1.5260 -0.7130  0.3817
27834SOL    HW287001   6.725   9.665  10.687  0.7420  0.2386  0.8630
27835SOL     OW87002   3.510   8.383  10.616 -0.6887 -0.2540  0.0075
27835SOL    HW187003   3.489   8.435  10.538  1.7674 -0.6767 -1.0308
27835SOL    HW287004   3.457   8.304  10.607 -0.3813 -0.3352 -1.2933
27836SOL     OW87005   6.703   6.202   1.195  0.4910  0.0367  0.4448
27836SOL    HW187006   6.669   6.219   1.107 -1.6599  1.6238  1.4769
27836SOL    HW287007   6.655   6.124   1.224 -0.2445  0.6232  0.8597
27837SOL     OW87008   2.289   6.103   6.553 -0.8736  0.2193 -0.0194
27837SOL    HW187009   2.358   6.047   6.518 -1.5723  0.7974 -2.5653
27837SOL    HW287010   2.313   6.191   6.525 -1.4110  0.7692  1.1888
27838SOL     OW87011   0.644   6.627   3.839  0.1258  0.3889  0.9450
27838SOL    HW187012   0.628   6.720   3.821  0.8175  0.8833  2.7063
27838SOL    HW287013   0.676   6.592   3.756 -2.4407  1.1209 -0.4593
27839SOL     OW87014   3.257   9.282   2.939 -0.7538 -0.0454 -0.0777
27839SOL    HW187015   3.330   9.220   2.932 -0.9588 -0.1978 -0.8510
27839SOL    HW287016   3.295   9.358   2.984 -0.6041 -0.8751  1.2525
27840SOL     OW87017  10.896   5.838   9.476 -0.0867 -0.3902  0.1645
27840SOL    HW187018  10.864   5.851   9.387 -2.3586  1.3044  1.1404
27840SOL    HW287019  10.958   5.909   9.491 -1.6029  0.8704  0.7073
27841SOL     OW87020   6.595   1.364   9.993  0.0392  0.3589 -0.0241
27841SOL    HW187021   6.606   1.341   9.901  3.1553  0.1191  0.3008
27841SOL    HW287022   6.592   1.459   9.995  0.2034  0.3703 -0.3606
27842SOL     OW87023   5.422   3.115   5.734 -0.7524 -0.1547  0.2549
27842SOL    HW187024   5.375   3.198   5.742 -0.2375  0.0621  1.2605
27842SOL    HW287025   5.508   3.133   5.773 -0.5654 -1.0967  0.2906
27843SOL     OW87026   5.643   2.418   1.839 -0.2331 -0.1315  0.4892
27843SOL    HW187027   5.691   2.336   1.829 -0.1597  0.0274 -0.5570
27843SOL    HW287028   5.704   2.486   1.810 -0.3824  0.2845  1.1066
27844SOL     OW87029  10.725  10.760   1.832 -0.6649 -0.3722 -0.5406
27844SOL    HW187030  10.695  10.742   1.742 -0.6769  2.2723 -1.1573
27844SOL    HW287031  10.644  10.778   1.880 -0.5669 -0.4300 -0.3573
27845SOL     OW87032   8.067   1.259   4.541 -0.0315  0.0097  0.1906
27845SOL    HW187033   8.075   1.264   4.637  0.9511  0.2937  0.1091
27845SOL    HW287034   8.145   1.305   4.509  0.5742 -1.5763 -0.7348
27846SOL     OW87035   7.311   2.908   4.126 -0.2734  0.3169  0.3172
27846SOL    HW187036   7.388   2.920   4.183  0.5513 -1.0032 -0.4708
27846SOL    HW287037   7.331   2.961   4.049  0.2844 -0.7007 -0.2648
27847SOL     OW87038   6.956   3.562  10.966  0.3759 -0.0532 -0.1569
27847SOL    HW187039   6.963   3.487  10.907  1.8758 -0.3215  0.3170
27847SOL    HW287040   7.008   3.630  10.923  1.8320 -0.3809  1.0131
27848SOL     OW87041   6.648   8.920   5.114  0.3977 -0.0822 -0.5938
27848SOL    HW187042   6.708   8.923   5.039  2.7679  3.1307  1.1713
27848SOL    HW287043   6.561   8.929   5.075  1.3729 -0.4996 -3.0515
27849SOL     OW87044   1.385   5.944   8.667 -0.0291  0.1937 -0.3034
27849SOL    HW187045   1.328   5.908   8.599 -0.2944  0.9189 -0.4747
27849SOL    HW287046   1.366   6.037   8.667  0.7651  0.3624  0.0232
27850SOL     OW87047   9.853  10.414   9.097  0.4349 -0.3884 -0.1292
27850SOL    HW187048   9.773  10.388   9.143  0.8613  0.0543  0.9019
27850SOL    HW287049   9.898  10.332   9.076  1.1219 -0.5791  1.9018
27851SOL     OW87050   9.550   1.863   0.917 -0.1010 -0.6917  0.0761
27851SOL    HW187051   9.540   1.828   1.005  3.0581 -2.2865 -0.0463
27851SOL    HW287052   9.470   1.913   0.901 -2.2343 -3.0147  2.5869
27852SOL     OW87053   1.154   1.342  10.613 -1.0476 -0.0749  0.2318
27852SOL    HW187054   1.185   1.379  10.696  0.0983  2.1540 -1.1114
27852SOL    HW287055   1.213   1.377  10.547 -2.5080 -1.0129 -1.6736
27853SOL     OW87056   9.858   2.329   5.439 -0.2078  0.9247  0.1080
27853SOL    HW187057   9.839   2.241   5.406 -0.2075  0.3194  1.6185
27853SOL    HW287058   9.815   2.388   5.377 -2.9716 -0.2471  0.7277
27854SOL     OW87059   7.544   4.117   7.337 -0.1299  0.2546 -0.7145
27854SOL    HW187060   7.628   4.073   7.323 -0.0334 -0.3505  1.4344
27854SOL    HW287061   7.561   4.208   7.315  1.6143  0.4855  1.2536
27855SOL     OW87062   1.575   7.006   7.401  0.0482  0.1013 -0.2858
27855SOL    HW187063   1.522   7.027   7.477 -0.7968  1.6714 -1.2537
27855SOL    HW287064   1.638   6.941   7.432 -2.4363 -1.9231  0.9105
27856SOL     OW87065   2.115   3.281   4.800 -0.4780 -0.6849 -0.0926
27856SOL    HW187066   2.156   3.362   4.768  0.5704 -0.6228  1.3076
27856SOL    HW287067   2.033   3.275   4.751 -0.4557  1.0887 -0.4213
27857SOL     OW87068   6.569   2.161  10.228  0.3795  0.0659 -0.2436
27857SOL    HW187069   6.606   2.241  10.191  1.1926  0.3186  1.0553
27857SOL    HW287070   6.560   2.179  10.321  0.3997 -1.2932  0.0434
27858SOL     OW87071   8.347  10.494   9.687  0.3491  0.3883 -0.1526
27858SOL    HW187072   8.370  10.566   9.746 -0.8137 -1.5544  2.9933
27858SOL    HW287073   8.255  10.508   9.665  0.5417  0.6506 -0.7995
27859SOL     OW87074   4.624   7.075   4.608 -0.0205  0.0019  0.0276
27859SOL    HW187075   4.567   7.140   4.649 -0.2163  0.2026 -0.5584
27859SOL    HW287076   4.579   7.051   4.527 -1.6466 -3.2966  1.7102
27860SOL     OW87077   5.577   9.258   0.935 -0.0181 -0.1534 -0.1530
27860SOL    HW187078   5.611   9.276   0.847  0.7763 -0.9461 -0.0226
27860SOL    HW287079   5.572   9.345   0.976  0.1870  0.1619 -0.7703
27861SOL     OW87080   3.687   2.109   0.087  0.4917 -0.1070 -0.1247
27861SOL    HW187081   3.702   2.096   0.181  1.7572 -0.4789 -0.3554
27861SOL    HW287082   3.695   2.203   0.074 -0.1435 -0.0051  0.2135
27862SOL     OW87083   9.890   4.148   3.686  0.2099  0.2163  0.2472
27862SOL    HW187084   9.835   4.082   3.727  0.0679  0.2230  0.0722
27862SOL    HW287085   9.980   4.117   3.700  0.1139 -0.5579 -0.7282
27863SOL     OW87086  10.715   9.445   5.528  0.2321 -0.0802 -0.3158
27863SOL    HW187087  10.645   9.499   5.491  0.2549 -0.2061 -0.5411
27863SOL    HW287088  10.690   9.434   5.620  0.7627  1.2024  0.0023
27864SOL     OW87089   3.405   3.604   6.571  0.6710 -0.2379  0.0588
27864SOL    HW187090   3.376   3.625   6.660 -2.6858 -1.5889 -0.5819
27864SOL    HW287091   3.392   3.685   6.522 -0.0346 -0.2346  0.2463
27865SOL     OW87092   1.268   5.520   3.691 -0.1539 -0.0942 -0.2668
27865SOL    HW187093   1.215   5.554   3.619  0.7258  1.4818 -0.2206
27865SOL    HW287094   1.336   5.467   3.648  0.9216  1.5853 -0.7245
27866SOL     OW87095   2.797   0.666   5.566 -0.1739  0.1556  0.0250
27866SOL    HW187096   2.880   0.708   5.544 -0.8285  1.6429  0.2735
27866SOL    HW287097   2.777   0.698   5.654 -2.0319  1.5793 -0.8439
27867SOL     OW87098   7.525   6.956   9.190  0.1558  0.1921 -0.4178
27867SOL    HW187099   7.582   7.028   9.164  2.2353 -1.0056  0.6096
27867SOL    HW287100   7.583   6.880   9.195 -1.6918 -1.2535 -0.0520
27868SOL     OW87101  10.684   8.075   5.937 -0.0625 -0.2307  0.2856
27868SOL    HW187102  10.681   8.111   6.026 -2.8240  0.1555  0.1255
27868SOL    HW287103  10.616   8.008   5.937 -0.4708  0.1437 -1.6729
27869SOL     OW87104  10.748   6.885   1.722  0.6242 -0.6119 -0.3464
27869SOL    HW187105  10.754   6.921   1.811  0.5053 -0.7580 -0.2768
27869SOL    HW287106  10.832   6.906   1.681  1.2796 -1.8525  0.3020
27870SOL     OW87107   1.913   9.136   3.518  0.4864  0.4770 -0.1236
27870SOL    HW187108   1.931   9.181   3.600  0.5259 -0.6725  0.5164
27870SOL    HW287109   1.964   9.055   3.522 -1.3352 -0.7529 -0.1866
27871SOL     OW87110   3.856   6.462   8.276  0.2727 -0.5446  0.4169
27871SOL    HW187111   3.920   6.521   8.237 -1.1448  0.9599  0.2679
27871SOL    HW287112   3.802   6.433   8.202 -0.4494 -0.2148  0.8046
27872SOL     OW87113   7.351   0.516   6.620 -0.2240 -0.1706  0.0585
27872SOL    HW187114   7.297   0.593   6.602  0.9093  0.6336  0.0193
27872SOL    HW287115   7.323   0.487   6.706  0.3234  1.1558  0.7046
27873SOL     OW87116   8.898   8.499   2.688 -0.6951  0.5710  0.0955
27873SOL    HW187117   8.948   8.447   2.625  0.7526  3.0904 -0.9746
27873SOL    HW287118   8.816   8.519   2.642 -0.7703  0.1995  0.0636
27874SOL     OW87119  10.492   0.394   0.368  0.2913 -0.1576  0.3481
27874SOL    HW187120  10.555   0.461   0.396 -1.4164  1.8610 -0.4019
27874SOL    HW287121  10.411   0.418   0.412 -0.1470 -2.4015  0.8691
27875SOL     OW87122   2.135   5.208   8.371 -0.9571  0.1643 -0.1314
27875SOL    HW187123   2.123   5.283   8.428 -2.9162  1.0353 -1.5388
27875SOL    HW287124   2.053   5.159   8.379 -1.3560  0.3877 -2.2084
27876SOL     OW87125   8.415   4.259   5.222 -0.1898 -0.6939  0.2393
27876SOL    HW187126   8.322   4.277   5.239  0.2654  2.3477  0.1947
27876SOL    HW287127   8.452   4.345   5.204  2.7538 -1.7738  0.6697
27877SOL     OW87128  10.880   3.799   4.124 -0.0198  0.0340 -0.3202
27877SOL    HW187129  10.819   3.725   4.125  0.3093 -0.4456  4.2854
27877SOL    HW287130  10.827   3.874   4.152  0.9838 -0.0124  1.9106
27878SOL     OW87131   2.803   5.159   9.921  0.2404 -0.1532  0.1819
27878SOL    HW187132   2.841   5.086   9.971  1.6140  1.0959  1.0792
27878SOL    HW287133   2.857   5.164   9.842 -0.3549 -0.5742 -0.2613
27879SOL     OW87134   0.130   0.337   1.922 -0.2763 -0.3761  0.2548
27879SOL    HW187135   0.191   0.268   1.948 -0.1214  0.3175  1.8668
27879SOL    HW287136   0.126   0.396   1.998 -2.9462 -0.3967  0.2316
27880SOL     OW87137   2.793   9.327   9.584 -0.9468 -0.5506  0.4389
27880SOL    HW187138   2.757   9.240   9.563 -1.1422 -0.5587  0.7971
27880SOL    HW287139   2.876   9.308   9.627  1.3334 -0.5237 -3.4129
27881SOL     OW87140   9.022   5.618   5.817  0.1285 -0.2684 -1.1713
27881SOL    HW187141   9.086   5.685   5.793  1.1186  0.0088  1.7508
27881SOL    HW287142   8.937   5.661   5.809  0.6580  0.8896 -0.6818
27882SOL     OW87143  10.162   6.180   8.582 -0.0807  0.3385  0.3532
27882SOL    HW187144  10.176   6.150   8.492 -0.6331 -0.5836  0.5515
27882SOL    HW287145  10.240   6.151   8.629 -0.1747  0.0524  0.3386
27883SOL     OW87146   6.097   8.743  10.568 -0.1097  0.0512 -0.2458
27883SOL    HW187147   6.111   8.826  10.614 -1.1671 -1.4263  3.1241
27883SOL    HW287148   6.014   8.711  10.604  0.3014 -2.4815 -1.4046
27884SOL     OW87149  10.939   4.763   8.874  0.2503 -0.3888 -0.1853
27884SOL    HW187150  10.891   4.682   8.860 -0.9189  0.0635  0.9663
27884SOL    HW287151  11.030   4.736   8.887 -0.0770 -1.4844 -0.1002
27885SOL     OW87152   1.036   3.985   3.376 -0.2210  0.1901 -0.1791
27885SOL    HW187153   0.957   3.936   3.356  0.1158 -0.3730 -0.1689
27885SOL    HW287154   1.092   3.923   3.423  0.6589  0.2324 -1.1196
27886SOL     OW87155   8.932   2.421   0.993  0.1974  0.5197 -0.0154
27886SOL    HW187156   8.977   2.473   0.927  0.4980  0.2253 -0.0469
27886SOL    HW287157   8.876   2.484   1.040 -1.8764  0.3464 -2.0781
27887SOL     OW87158   1.963   7.846   7.408 -0.0378  0.3688 -0.4408
27887SOL    HW187159   1.924   7.806   7.330 -0.9002 -0.5618  0.4377
27887SOL    HW287160   1.898   7.909   7.438  0.5915  1.2224 -0.8559
27888SOL     OW87161   5.480   0.865   5.422  0.2362 -0.0815 -0.1358
27888SOL    HW187162   5.551   0.929   5.424  0.4337 -0.3099  0.8747
27888SOL    HW287163   5.415   0.902   5.362  0.0487  1.3767  0.9246
27889SOL     OW87164   5.449  10.919   0.128 -0.2672 -0.3186 -0.2926
27889SOL    HW187165   5.502  10.990   0.164 -2.8247  2.1003 -0.9875
27889SOL    HW287166   5.513  10.853   0.101  2.3404  2.2028 -0.7490
27890SOL     OW87167   2.002   0.956   3.500  0.2753 -0.0794 -0.3021
27890SOL    HW187168   2.073   1.004   3.542 -0.4474 -0.7087  1.7490
27890SOL    HW287169   1.955   1.022   3.449  0.6815  0.9190  0.5783
27891SOL     OW87170   7.780   6.529   3.468  0.1571 -0.5682 -0.6554
27891SOL    HW187171   7.736   6.506   3.550  0.8155 -1.4348 -0.5244
27891SOL    HW287172   7.783   6.624   3.467  0.9607 -0.5530  0.7864
27892SOL     OW87173   8.945   9.702   8.653  0.6076  0.1210  0.2065
27892SOL    HW187174   8.936   9.668   8.742  0.2031 -0.6548 -0.1216
27892SOL    HW287175   8.876   9.769   8.647 -0.4865 -0.9898 -0.0528
27893SOL     OW87176   3.331   2.367   6.399 -0.0779  0.0129  0.3323
27893SOL    HW187177   3.362   2.443   6.449  0.5055 -0.0612  0.0917
27893SOL    HW287178   3.287   2.405   6.323 -0.4762  0.1190  0.6153
27894SOL     OW87179   2.884   7.751   0.476  0.3213  0.1270  0.6663
27894SOL    HW187180   2.961   7.699   0.452  0.5640  0.1157  1.4286
27894SOL    HW287181   2.920   7.825   0.526 -0.0419  0.8793 -0.1615
27895SOL     OW87182   3.852   7.122   7.749  0.1885 -0.1025  0.3592
27895SOL    HW187183   3.772   7.073   7.731  1.8797 -2.9287 -0.1057
27895SOL    HW287184   3.894   7.130   7.664  2.4763 -2.8031  1.0634
27896SOL     OW87185   3.963   0.918   7.935 -0.5225  0.2610  0.6275
27896SOL    HW187186   3.890   0.861   7.911 -0.3551  0.2890  0.0427
27896SOL    HW287187   3.935   1.006   7.908  0.1816  0.1132 -0.6346
27897SOL     OW87188   4.239   7.696   5.524 -0.2987  0.2475  0.3661
27897SOL    HW187189   4.292   7.647   5.587 -4.3797 -2.1206  2.3568
27897SOL    HW287190   4.231   7.637   5.449 -0.4238  0.4583  0.2136
27898SOL     OW87191   8.295   5.453   3.885 -0.1064 -0.0495 -0.2081
27898SOL    HW187192   8.357   5.519   3.856 -0.8016 -0.1430 -2.0436
27898SOL    HW287193   8.348   5.373   3.894  0.5698  0.5319  1.1783
27899SOL     OW87194   8.965   1.841   7.436  0.0392 -0.0537 -0.2913
27899SOL    HW187195   8.935   1.873   7.521  0.8388 -0.2729  0.0838
27899SOL    HW287196   9.042   1.894   7.416  0.5670 -0.8107 -0.3047
27900SOL     OW87197   2.972   0.647   4.534 -0.2958  0.1537  0.0688
27900SOL    HW187198   2.882   0.676   4.519 -0.0159  0.4831 -1.0465
27900SOL    HW287199   2.963   0.555   4.559 -0.8990 -0.0394 -0.8158
27901SOL     OW87200   1.360   3.048   2.808 -0.4502 -0.1943 -0.3169
27901SOL    HW187201   1.345   3.066   2.901  1.5325 -0.2073  0.0401
27901SOL    HW287202   1.304   3.111   2.763  0.3088  1.4468  0.9110
27902SOL     OW87203   0.907   3.572   7.742  0.1012 -0.3839 -0.5215
27902SOL    HW187204   0.951   3.488   7.730 -0.3514 -0.6489 -0.3516
27902SOL    HW287205   0.815   3.554   7.721 -0.0487 -0.0014 -0.2064
27903SOL     OW87206   6.107   2.163   0.152  0.2183  0.6690  0.1943
27903SOL    HW187207   6.032   2.162   0.094  1.8589  2.2383 -2.1192
27903SOL    HW287208   6.181   2.185   0.096  1.8499  2.9052  2.9468
27904SOL     OW87209   9.153   5.411   7.313  0.5335  0.1487  0.5497
27904SOL    HW187210   9.096   5.488   7.302 -0.5937 -0.4689  1.7809
27904SOL    HW287211   9.147   5.390   7.406  0.7228 -1.5182  0.2166
27905SOL     OW87212  10.459   9.849   5.127 -0.2707 -0.4931 -0.1824
27905SOL    HW187213  10.469   9.865   5.033  0.8674 -2.6405 -0.4762
27905SOL    HW287214  10.381   9.793   5.133 -1.3881  1.0539  0.3683
27906SOL     OW87215   2.469   0.162   6.494  0.0878  0.8198  0.2060
27906SOL    HW187216   2.446   0.215   6.418 -1.3122 -0.0386 -0.0104
27906SOL    HW287217   2.495   0.077   6.458 -1.0894  0.2344  0.6836
27907SOL     OW87218   8.122   0.455   2.960 -0.0178 -0.2249 -0.0936
27907SOL    HW187219   8.071   0.498   2.892  0.5588 -0.8608 -0.9641
27907SOL    HW287220   8.163   0.526   3.009 -1.0992  0.2616  0.1189
27908SOL     OW87221   3.242   9.075   7.618 -0.5142 -0.3119 -0.2218
27908SOL    HW187222   3.300   9.149   7.638 -0.2580 -0.5622 -0.0189
27908SOL    HW287223   3.247   9.020   7.697  0.0618 -1.0346 -0.7506
27909SOL     OW87224   9.507   7.435   6.739 -0.5177 -0.5545  0.1898
27909SOL    HW187225   9.435   7.452   6.678  1.5162  0.3123 -2.1380
27909SOL    HW287226   9.533   7.522   6.771  1.1231 -0.5212 -1.0751
27910SOL     OW87227   9.157   3.595   5.173  0.6092 -0.5103  0.1067
27910SOL    HW187228   9.081   3.550   5.136  0.4245 -1.1389  1.1873
27910SOL    HW287229   9.192   3.532   5.237 -0.2252  1.2403  2.3936
27911SOL     OW87230   7.932   5.729   1.600  0.0445  0.4568 -0.4671
27911SOL    HW187231   7.875   5.802   1.624 -0.0346  0.3015 -0.1763
27911SOL    HW287232   8.000   5.768   1.546  0.9089  1.0432  0.9862
27912SOL     OW87233   1.964   5.902   0.765 -0.3606  0.0757 -0.0553
27912SOL    HW187234   2.020   5.969   0.805 -0.6049 -0.2519  0.8690
27912SOL    HW287235   1.979   5.910   0.671  0.0977  0.9982  0.0902
27913SOL     OW87236   6.579   7.096   9.624  0.4588  0.0138  0.3527
27913SOL    HW187237   6.488   7.080   9.649  0.5418  0.0138  0.6526
27913SOL    HW287238   6.581   7.189   9.600  0.1997 -0.1747 -0.4374
27914SOL     OW87239   8.283   0.771   9.068 -0.1244  0.1391  0.0230
27914SOL    HW187240   8.201   0.788   9.116  0.9022  1.7189  1.2997
27914SOL    HW287241   8.346   0.748   9.136  1.0879  1.2614 -0.6734
27915SOL     OW87242   2.582   5.173   1.994 -0.2013 -0.1072 -0.0029
27915SOL    HW187243   2.510   5.110   1.988 -0.5933  0.1282  1.6743
27915SOL    HW287244   2.633   5.159   1.914 -2.0178 -0.3739 -1.1759
27916SOL     OW87245   5.928   2.100   3.882 -0.2936 -0.7806  0.1261
27916SOL    HW187246   6.009   2.053   3.860 -0.6787 -3.1770  3.1739
27916SOL    HW287247   5.867   2.075   3.813  1.1273  0.0869 -1.5503
27917SOL     OW87248   2.337   8.405   3.726  0.1574  0.0568 -0.0945
27917SOL    HW187249   2.369   8.442   3.808 -0.8703 -2.1115  1.3909
27917SOL    HW287250   2.246   8.433   3.721  0.8276  2.1978 -1.8288
27918SOL     OW87251   5.222   8.713   1.472 -1.2159  0.0337 -0.4463
27918SOL    HW187252   5.255   8.783   1.527 -3.4586 -1.5641  3.2846
27918SOL    HW287253   5.298   8.657   1.455 -0.5419  0.2558  1.6607
27919SOL     OW87254   4.637  10.656  10.608 -0.0638 -0.5184  0.2304
27919SOL    HW187255   4.548  10.622  10.599 -0.5643  0.6771  0.4653
27919SOL    HW287256   4.660  10.686  10.520 -0.2263 -0.0888  0.3261
27920SOL     OW87257   6.769   0.254   5.461 -0.2920 -0.9170  0.1873
27920SOL    HW187258   6.808   0.277   5.546 -1.7464 -1.1923  0.9513
27920SOL    HW287259   6.743   0.163   5.471 -1.7558 -0.5463 -0.0337
27921SOL     OW87260   9.558   9.930   2.243 -0.1434  0.0252 -0.0854
27921SOL    HW187261   9.472   9.923   2.286 -0.2285 -0.2277 -0.2905
27921SOL    HW287262   9.539   9.918   2.150  0.3785 -2.3797  0.0526
27922SOL     OW87263   9.461   1.080   6.167 -0.1901 -0.0802  0.6693
27922SOL    HW187264   9.444   0.988   6.148  3.3502 -1.0485  1.3846
27922SOL    HW287265   9.442   1.089   6.261  1.9995 -0.9252  1.2671
27923SOL     OW87266   6.760   9.843   6.084  0.5358 -0.5739 -0.3047
27923SOL    HW187267   6.803   9.829   6.169  1.4909 -0.2735 -0.7359
27923SOL    HW287268   6.821   9.897   6.034  0.3502 -1.4198 -1.4823
27924SOL     OW87269   3.618   9.249   2.369  0.8335  0.1648 -0.6240
27924SOL    HW187270   3.665   9.220   2.291  0.1283 -1.2517 -0.5583
27924SOL    HW287271   3.563   9.174   2.393 -0.9053  1.4720 -0.2850
27925SOL     OW87272   6.888   9.368  10.658 -0.4954  0.6227 -0.0307
27925SOL    HW187273   6.914   9.452  10.695  0.2490  0.4458 -0.1431
27925SOL    HW287274   6.965   9.312  10.669 -0.7238  0.1824 -0.6399
27926SOL     OW87275   6.432   8.210   4.999  0.1594  0.2071  0.4925
27926SOL    HW187276   6.385   8.136   4.961  1.0592  0.1388 -0.5397
27926SOL    HW287277   6.449   8.184   5.089  0.1713 -0.7120  0.2346
27927SOL     OW87278  10.197   5.933   1.208 -0.2878 -0.1404 -0.0600
27927SOL    HW187279  10.251   6.003   1.171 -0.5880 -0.4665 -1.1473
27927SOL    HW287280  10.253   5.856   1.203 -0.6139 -0.3487 -0.5978
27928SOL     OW87281   0.200   9.125   0.809  0.0994 -0.1556 -0.0784
27928SOL    HW187282   0.279   9.081   0.777  0.8193  0.3728  0.9095
27928SOL    HW287283   0.130   9.092   0.753  0.7195 -2.0020  0.1448
27929SOL     OW87284   1.514   2.550   4.161 -0.2943 -0.1695  0.2449
27929SOL    HW187285   1.456   2.508   4.225  0.0546 -1.1369 -0.0531
27929SOL    HW287286   1.466   2.544   4.078  0.1664 -0.8484  0.0220
27930SOL     OW87287   5.701   3.367   8.708  0.2907 -0.3072 -0.1322
27930SOL    HW187288   5.652   3.299   8.662  1.6488 -0.9109 -0.7216
27930SOL    HW287289   5.792   3.339   8.703  0.7041  0.7519  1.0185
27931SOL     OW87290   3.513   6.300   8.432 -0.4318 -0.2826  0.7504
27931SOL    HW187291   3.447   6.305   8.363  1.5647 -1.0998 -1.3953
27931SOL    HW287292   3.514   6.387   8.472 -1.4488  0.3303 -0.5024
27932SOL     OW87293   0.693   4.797   3.334  0.3937 -0.3719  0.1578
27932SOL    HW187294   0.764   4.734   3.323 -0.4795 -1.1038 -1.7860
27932SOL    HW287295   0.633   4.779   3.261 -0.2190  2.2764 -0.1179
27933SOL     OW87296   5.734   1.901   6.182  0.1505 -0.3941 -0.0482
27933SOL    HW187297   5.809   1.860   6.226  0.6433 -0.0472 -0.5369
27933SOL    HW287298   5.774   1.965   6.123 -0.5536  0.0380 -0.0686
27934SOL     OW87299   6.214   6.176   1.371 -0.2679 -0.0412 -0.4669
27934SOL    HW187300   6.307   6.199   1.373 -0.1068 -0.7060  0.8196
27934SOL    HW287301   6.209   6.092   1.417 -1.6682  0.6094  0.6284
27935SOL     OW87302   4.396   5.758   6.670  0.2332  0.5215  0.0999
27935SOL    HW187303   4.411   5.670   6.706  0.3075  0.2626 -0.5442
27935SOL    HW287304   4.329   5.745   6.603  0.9163  0.7902 -0.6481
27936SOL     OW87305   0.967   1.461   2.303 -0.6169  0.1718 -0.0591
27936SOL    HW187306   1.050   1.415   2.289 -1.2695 -1.3589  0.8897
27936SOL    HW287307   0.990   1.534   2.361  0.3659  0.8562 -1.2699
27937SOL     OW87308   4.403   6.304   0.079 -0.7563 -0.3954 -0.0240
27937SOL    HW187309   4.336   6.341   0.022 -2.3054 -2.5269  0.3032
27937SOL    HW287310   4.404   6.362   0.156 -2.1025 -0.2442 -0.1042
27938SOL     OW87311   4.718   8.344   9.530  0.2108  0.3610 -0.3917
27938SOL    HW187312   4.745   8.374   9.617 -0.0990  2.2739 -0.9131
27938SOL    HW287313   4.709   8.249   9.539  3.3031  0.0671  0.8188
27939SOL     OW87314  10.360   8.151   1.807  0.3546  0.3487 -0.6706
27939SOL    HW187315  10.415   8.188   1.876  1.2602 -0.9665 -0.6557
27939SOL    HW287316  10.336   8.064   1.839 -0.1701  0.1679 -1.5165
27940SOL     OW87317   7.244   4.042  10.380 -0.2521 -0.1596  0.0476
27940SOL    HW187318   7.283   4.117  10.425 -0.0465  0.2024 -0.7241
27940SOL    HW287319   7.222   4.074  10.293 -0.1339 -1.0004 -0.3076
27941SOL     OW87320   7.860   2.855   8.630 -0.2798 -0.8307 -0.2770
27941SOL    HW187321   7.851   2.939   8.586 -0.4149 -1.1997 -0.9567
27941SOL    HW287322   7.890   2.878   8.718 -1.9913  0.0279  0.1139
27942SOL     OW87323   8.367   9.843   1.747 -0.3224  0.6022 -0.0188
27942SOL    HW187324   8.291   9.899   1.730 -0.4951  0.4948  0.3730
27942SOL    HW287325   8.427   9.898   1.797 -0.6811  0.3048  0.7414
27943SOL     OW87326   5.541   3.282   9.229  0.0227  0.0238 -0.0397
27943SOL    HW187327   5.461   3.310   9.185 -0.0662  0.5905  0.4585
27943SOL    HW287328   5.565   3.200   9.187 -0.4881  0.1590 -0.6019
27944SOL     OW87329   9.191   4.183   0.795  0.4115  0.0162 -0.1503
27944SOL    HW187330   9.244   4.260   0.774 -0.2901  1.0029  1.5046
27944SOL    HW287331   9.251   4.123   0.838  0.7415  0.0558 -0.5545
27945SOL     OW87332   1.270   6.102   4.985  0.1765  0.4099  0.3927
27945SOL    HW187333   1.185   6.108   5.029 -2.4509 -0.7840 -3.9187
27945SOL    HW287334   1.298   6.012   5.001 -0.5564  0.0975 -0.0325
27946SOL     OW87335   0.411   4.752   8.533 -0.3933 -0.5955 -0.5779
27946SOL    HW187336   0.337   4.783   8.586  0.8330 -2.3845  2.4864
27946SOL    HW287337   0.385   4.663   8.507 -0.4389 -0.1942 -1.9556
27947SOL     OW87338   3.527   1.244   7.045  0.3141 -0.2272  0.1786
27947SOL    HW187339   3.578   1.256   7.125 -1.9425 -0.8124  1.8129
27947SOL    HW287340   3.593   1.234   6.976  2.4046  3.5414  1.3346
27948SOL     OW87341   2.664   1.750  10.380 -0.2243 -0.0232  0.0583
27948SOL    HW187342   2.754   1.757  10.349 -0.6513  0.6344 -1.0952
27948SOL    HW287343   2.617   1.822  10.337 -1.2497 -0.1969  0.8328
27949SOL     OW87344   7.485   6.113   3.225  0.0749 -0.0311  0.1996
27949SOL    HW187345   7.483   6.018   3.213 -0.1802 -0.0090  0.0648
27949SOL    HW287346   7.396   6.137   3.249  0.4635 -0.0242  1.8120
27950SOL     OW87347   6.183   2.830   7.267  0.1653  0.3618 -0.0361
27950SOL    HW187348   6.175   2.833   7.172  1.2254 -1.1451 -0.2096
27950SOL    HW287349   6.129   2.755   7.293 -1.9432  2.0694  0.8352
27951SOL     OW87350   3.248   8.604   5.851 -0.1963  0.0605 -0.5147
27951SOL    HW187351   3.296   8.568   5.926 -0.1462  1.6215  0.2234
27951SOL    HW287352   3.315   8.646   5.797 -0.1787 -1.3308 -1.6632
27952SOL     OW87353   6.605   7.243  10.110 -0.7388 -0.2971  0.3679
27952SOL    HW187354   6.577   7.302  10.040 -1.2880 -0.8392  0.1181
27952SOL    HW287355   6.579   7.288  10.191 -1.1734 -0.1945  0.1781
27953SOL     OW87356   8.663   2.920   5.581  0.4743  0.1174  0.1701
27953SOL    HW187357   8.742   2.865   5.581  0.9624  0.8040  0.1522
27953SOL    HW287358   8.696   3.010   5.573 -0.3596  0.3513 -1.0046
27954SOL     OW87359   3.082   7.468   8.868  0.8007 -0.0126 -0.1059
27954SOL    HW187360   3.127   7.389   8.838 -0.2945 -0.5119 -0.4778
27954SOL    HW287361   3.025   7.492   8.795  0.2798  0.4637  0.4557
27955SOL     OW87362  10.432  10.892  10.564  0.1752  0.5643 -0.4313
27955SOL    HW187363  10.523  10.923  10.560  0.8845 -1.3412  0.0628
27955SOL    HW287364  10.414  10.879  10.657  0.5160 -2.0731 -0.6759
27956SOL     OW87365   6.232   4.715   7.018 -0.2105  0.4249 -0.0658
27956SOL    HW187366   6.193   4.730   7.104 -2.6898  1.4346 -1.2831
27956SOL    HW287367   6.196   4.631   6.990  0.8026 -0.0323 -0.0357
27957SOL     OW87368   0.754   0.926   7.109  0.3906 -0.0629  1.0517
27957SOL    HW187369   0.763   0.830   7.113  0.5547 -0.0923  0.2605
27957SOL    HW287370   0.713   0.942   7.024  1.5901  0.6466  0.5806
27958SOL     OW87371   2.159   7.924   9.357  0.2337  0.5407 -0.2724
27958SOL    HW187372   2.166   7.932   9.452 -2.3989 -0.7511  0.0964
27958SOL    HW287373   2.182   7.833   9.339  2.1571  1.1263 -1.1274
27959SOL     OW87374   7.107   4.005   3.525  0.0041  0.0967 -0.2416
27959SOL    HW187375   7.147   3.921   3.505  0.0605 -0.0414  0.4361
27959SOL    HW287376   7.086   4.043   3.439  0.4070 -0.3952 -0.5604
27960SOL     OW87377   4.808   5.349   6.294  0.5603  0.7019  0.0979
27960SOL    HW187378   4.736   5.360   6.356  1.9086  2.1015  1.4849
27960SOL    HW287379   4.772   5.291   6.226 -2.1650  2.0296  0.2562
27961SOL     OW87380   9.900   4.648   9.859 -0.1182 -1.3935 -0.2369
27961SOL    HW187381   9.890   4.570   9.914 -0.4223 -0.9071  0.4066
27961SOL    HW287382   9.964   4.702   9.906 -1.0446 -0.5722  0.1118
27962SOL     OW87383   4.267   2.840   0.711  0.3541 -0.3129 -0.1684
27962SOL    HW187384   4.277   2.782   0.787 -0.1467  0.4531  0.5048
27962SOL    HW287385   4.184   2.886   0.727  0.4340  0.1426 -0.9949
27963SOL     OW87386   4.208   1.816   7.059  0.3499  0.3826 -0.1847
27963SOL    HW187387   4.158   1.841   6.981  0.9123  1.3688 -0.2432
27963SOL    HW287388   4.206   1.893   7.115  2.3027  0.6887 -0.4604
27964SOL     OW87389   1.624   8.153   4.977 -0.0020 -0.2411  0.0400
27964SOL    HW187390   1.607   8.148   5.071  0.0428 -0.1170  0.0552
27964SOL    HW287391   1.544   8.191   4.940 -0.3381 -1.0465 -0.0738
27965SOL     OW87392   0.157   0.203   0.345  0.2417  0.8028  0.0548
27965SOL    HW187393   0.149   0.284   0.396  0.8792 -0.3815  2.1256
27965SOL    HW287394   0.223   0.151   0.391 -1.0788 -1.4600 -0.4505
27966SOL     OW87395   9.320   3.410   9.049 -0.3477  0.4923 -0.3922
27966SOL    HW187396   9.227   3.406   9.071 -0.0100 -0.2782  1.0495
27966SOL    HW287397   9.342   3.504   9.054 -1.3295  0.8508 -2.1719
27967SOL     OW87398   3.263   6.892  10.640 -0.2016  0.1130  0.2579
27967SOL    HW187399   3.214   6.837  10.579  0.1784  0.4198 -0.3395
27967SOL    HW287400   3.336   6.926  10.588  0.0314  0.5248  0.8389
27968SOL     OW87401   1.945   1.999   4.091 -0.0856 -0.4209  0.4431
27968SOL    HW187402   1.966   2.039   4.176 -1.1119 -0.7247  0.8505
27968SOL    HW287403   1.888   2.063   4.048 -1.5564 -1.3085  1.0083
27969SOL     OW87404   8.014   5.254   9.851  0.0368  0.4284 -0.4387
27969SOL    HW187405   7.990   5.277   9.762 -1.7169 -0.4978 -0.2481
27969SOL    HW287406   7.996   5.160   9.858  3.5852 -0.3880 -0.1426
27970SOL     OW87407   5.982   5.921   1.192 -0.2265 -0.0563 -0.2081
27970SOL    HW187408   5.892   5.944   1.216 -0.3678  0.1385 -0.8956
27970SOL    HW287409   6.027   5.910   1.275 -0.9027 -0.2071  0.1471
27971SOL     OW87410   6.800   7.746   0.235  0.3440  0.5689 -0.2228
27971SOL    HW187411   6.768   7.727   0.146 -0.0636  0.0370  0.0283
27971SOL    HW287412   6.888   7.707   0.238  0.8420  1.6119 -0.7606
27972SOL     OW87413   4.258   2.841  10.630 -0.1014  0.0616 -0.5902
27972SOL    HW187414   4.312   2.762  10.642  1.8677  1.6064  1.6508
27972SOL    HW287415   4.175   2.808  10.596  0.5288 -3.0209  0.4910
27973SOL     OW87416   6.312   0.804   5.834 -0.1264 -0.2413  0.0312
27973SOL    HW187417   6.227   0.810   5.789  0.4421 -1.7677 -1.3445
27973SOL    HW287418   6.319   0.712   5.860  1.6932 -0.4792 -1.1406
27974SOL     OW87419   4.080   1.692   6.561 -0.3024  0.3910  0.0263
27974SOL    HW187420   4.167   1.653   6.572 -1.1962 -1.9035 -0.4028
27974SOL    HW287421   4.055   1.667   6.471 -0.9057  2.1082 -0.3082
27975SOL     OW87422   2.409   9.258  10.255  0.1349  0.7256 -0.8449
27975SOL    HW187423   2.471   9.220  10.317  0.3989 -0.3050 -1.7035
27975SOL    HW287424   2.459   9.267  10.174 -1.1413 -1.4131 -1.9643
27976SOL     OW87425   6.386   3.749  10.847 -0.3412 -0.2151  0.1031
27976SOL    HW187426   6.363   3.682  10.782  3.2057  0.9654 -2.7239
27976SOL    HW287427   6.460   3.712  10.895 -1.3895 -0.0866  1.9267
27977SOL     OW87428   9.499   3.883   4.944  0.4476  0.1185  0.2567
27977SOL    HW187429   9.477   3.975   4.952 -1.1647 -0.1767 -0.4668
27977SOL    HW287430   9.558   3.866   5.017  0.8428  1.7324  0.3404
27978SOL     OW87431   8.553   1.947   5.655  0.3893 -0.1705  0.1590
27978SOL    HW187432   8.467   1.905   5.651 -0.1491  0.7811  1.1804
27978SOL    HW287433   8.615   1.875   5.650 -0.3789 -0.7724 -2.4513
27979SOL     OW87434   0.838   4.923   4.969  0.1848 -0.1861 -0.1725
27979SOL    HW187435   0.874   4.932   5.057 -0.3449 -0.4930  0.0824
27979SOL    HW287436   0.888   4.986   4.916  0.4671  0.0428  0.3534
27980SOL     OW87437   1.770   3.045   4.400  0.3703 -0.1041  0.2234
27980SOL    HW187438   1.767   2.974   4.336  1.5706 -1.9806  2.0963
27980SOL    HW287439   1.842   3.021   4.459 -0.3657  1.7458  1.9956
27981SOL     OW87440   2.780   9.495   8.100  0.2227  0.5128  0.6662
27981SOL    HW187441   2.815   9.411   8.070 -0.5942 -0.4943  2.3943
27981SOL    HW287442   2.725   9.473   8.175  3.9017  2.9641  4.5515
27982SOL     OW87443   0.636   1.238   2.235 -0.1619  0.2948  0.4660
27982SOL    HW187444   0.722   1.202   2.257 -0.0530  1.5906  2.4169
27982SOL    HW287445   0.645   1.332   2.251 -1.7146  0.5611 -0.1039
27983SOL     OW87446   2.694  10.889   1.803  0.7348 -0.1667 -0.2694
27983SOL    HW187447   2.725  10.914   1.890  0.9329  1.0668 -0.6702
27983SOL    HW287448   2.618  10.832   1.820  1.8808 -1.4749  0.7038
27984SOL     OW87449   8.838   5.933   3.004 -0.0285  0.4962 -0.3160
27984SOL    HW187450   8.845   5.849   2.957 -0.4862  0.0851  0.3266
27984SOL    HW287451   8.753   5.928   3.048  1.0581  0.1951  1.8508
27985SOL     OW87452   7.865   6.809   4.161  0.5341  0.3412  0.3639
27985SOL    HW187453   7.811   6.842   4.233  1.4000  1.4496  0.5505
27985SOL    HW287454   7.901   6.727   4.193  0.2622  0.4207  0.8835
27986SOL     OW87455   5.340   7.927  10.524  0.1534 -0.2808 -0.4935
27986SOL    HW187456   5.362   8.017  10.550  0.4610 -0.1831 -1.0776
27986SOL    HW287457   5.331   7.880  10.607 -0.7309  0.4505 -0.1559
27987SOL     OW87458   3.602   0.825   9.721 -0.3395 -0.0303  0.4762
27987SOL    HW187459   3.599   0.772   9.801 -0.1031 -2.1822 -0.8652
27987SOL    HW287460   3.695   0.849   9.714 -0.1925 -0.5805  0.4140
27988SOL     OW87461   3.328  10.250   1.744  0.6125  0.1327 -0.0582
27988SOL    HW187462   3.413  10.267   1.702  0.9927 -0.8433  0.3068
27988SOL    HW287463   3.274  10.213   1.674  0.7689 -0.0897 -0.0603
27989SOL     OW87464   1.235   4.915  10.084  0.3110  0.4413 -0.1105
27989SOL    HW187465   1.156   4.959  10.114 -0.2208 -0.3530 -0.3320
27989SOL    HW287466   1.240   4.835  10.136  1.7839  1.1704  0.9628
27990SOL     OW87467   6.134  10.771   4.437  0.4460  0.0335 -0.3168
27990SOL    HW187468   6.109  10.712   4.365 -0.4700  0.5474 -0.4302
27990SOL    HW287469   6.229  10.778   4.429  0.5513 -1.2214 -0.4572
27991SOL     OW87470   1.125   2.132   8.969  0.5700 -0.1211  0.2488
27991SOL    HW187471   1.076   2.121   9.050 -0.2389  2.5642  0.2456
27991SOL    HW287472   1.058   2.152   8.903  1.4006  0.1025 -0.5499
27992SOL     OW87473  10.322   3.407   3.803 -0.6290 -0.0770 -0.7058
27992SOL    HW187474  10.288   3.326   3.841 -1.3791  0.5157 -0.0842
27992SOL    HW287475  10.347   3.460   3.878  2.5364 -0.7908 -1.1117
27993SOL     OW87476   5.024   0.991  10.628  0.4790  0.7717  0.9131
27993SOL    HW187477   5.045   1.018  10.539  1.2350 -1.2235  0.4293
27993SOL    HW287478   4.949   0.932  10.618  0.5305  0.5793  1.5938
27994SOL     OW87479   7.727   8.398   4.265  0.2914  0.0892 -0.2644
27994SOL    HW187480   7.686   8.463   4.208  1.2041 -0.2922 -1.4025
27994SOL    HW287481   7.656   8.339   4.290 -0.0043 -0.2427 -1.7461
27995SOL     OW87482   4.179   0.469   7.810 -0.2234  0.9073 -0.3342
27995SOL    HW187483   4.085   0.470   7.828 -0.1714  0.6554 -0.0536
27995SOL    HW287484   4.218   0.516   7.882 -0.1454  1.1423 -0.5287
27996SOL     OW87485   4.667   8.180   9.037 -0.5551 -0.2210  0.3441
27996SOL    HW187486   4.644   8.229   8.958  0.4019 -0.1177  0.1128
27996SOL    HW287487   4.723   8.240   9.086  0.3235 -0.9446  0.2380
27997SOL     OW87488   5.103   8.403   4.148 -0.0363 -0.3608  0.2236
27997SOL    HW187489   5.023   8.453   4.133 -0.4679 -1.1253 -0.1200
27997SOL    HW287490   5.142   8.442   4.225 -0.3089  0.5633 -0.0922
27998SOL     OW87491   3.493   4.664   1.656  0.1085  0.2121 -0.3263
27998SOL    HW187492   3.495   4.570   1.670 -0.8446  0.6801  4.6411
27998SOL    HW287493   3.582   4.693   1.674 -0.6789  0.5928  3.8796
27999SOL     OW87494   8.591   0.331   1.449  0.2843 -0.2832 -0.2230
27999SOL    HW187495   8.595   0.348   1.543  0.7298 -2.6402  0.2563
27999SOL    HW287496   8.504   0.293   1.435  0.3488 -0.2648 -0.6890
28000SOL     OW87497   9.620   4.647   8.873 -0.4437  0.6513  0.4816
28000SOL    HW187498   9.656   4.683   8.792 -0.8243 -0.1368 -0.0483
28000SOL    HW287499   9.583   4.563   8.847 -0.3759  0.2915  1.5203
28001SOL     OW87500   3.033   2.797   1.952 -0.1777 -0.0599  0.0789
28001SOL    HW187501   2.998   2.774   1.866 -1.9464 -2.0614  1.2297
28001SOL    HW287502   3.036   2.892   1.952  0.5535 -0.0129 -2.4179
28002SOL     OW87503   3.819   3.944   6.895  0.2892 -0.2253 -0.1691
28002SOL    HW187504   3.854   4.033   6.898  0.3512 -0.2745  1.3828
28002SOL    HW287505   3.856   3.901   6.972 -2.2914 -0.5860  0.9719
28003SOL     OW87506   0.371   9.733   0.446 -0.1519 -0.0391 -0.1544
28003SOL    HW187507   0.405   9.812   0.405 -2.9819  2.1745  1.3605
28003SOL    HW287508   0.405   9.735   0.535  0.5414 -1.1221 -0.3707
28004SOL     OW87509  10.716   9.737   2.290  0.5526  0.4166  0.5754
28004SOL    HW187510  10.664   9.682   2.349  0.9887 -0.0691  0.5175
28004SOL    HW287511  10.656   9.806   2.262  0.2837  0.5601  1.4535
28005SOL     OW87512  10.726   6.669   7.161 -0.2384  0.1257  0.2646
28005SOL    HW187513  10.776   6.719   7.225 -1.0441 -0.6015  1.5091
28005SOL    HW287514  10.645   6.718   7.149 -0.7956 -0.5799  1.0726
28006SOL     OW87515   1.940   9.756   0.986 -0.1451 -0.0133  0.1140
28006SOL    HW187516   1.929   9.670   0.945 -0.9535  1.4627 -3.1042
28006SOL    HW287517   1.901   9.746   1.073  1.5051 -3.3367  0.6365
28007SOL     OW87518  10.573   3.704   2.759 -0.3161  0.2292 -0.3990
28007SOL    HW187519  10.617   3.732   2.679 -1.0795  0.7414 -0.6459
28007SOL    HW287520  10.605   3.763   2.826 -0.2015  0.2445 -0.4675
28008SOL     OW87521  10.056   3.134   9.270  0.0780 -0.1514  0.0589
28008SOL    HW187522  10.051   3.168   9.181 -0.0530 -1.0365 -0.2845
28008SOL    HW287523   9.996   3.189   9.321  0.5445  0.6917 -0.2748
28009SOL     OW87524   5.919   1.754  10.419 -0.0200  0.7027  0.0722
28009SOL    HW187525   5.869   1.785  10.494  1.1758  2.0026  0.3745
28009SOL    HW287526   5.912   1.824  10.354  1.1692  0.8202  0.0367
28010SOL     OW87527   2.555   8.661   9.743 -0.1499 -0.3275 -0.3892
28010SOL    HW187528   2.503   8.615   9.678  0.0180 -1.6444  0.3667
28010SOL    HW287529   2.532   8.620   9.826  0.3475  0.6623  0.2592
28011SOL     OW87530   0.974   2.313   4.850  0.0527 -0.2298  0.0031
28011SOL    HW187531   0.939   2.394   4.812  1.2789  0.3930  0.1624
28011SOL    HW287532   1.068   2.329   4.857 -0.0399 -0.4879  2.8910
28012SOL     OW87533   6.292   2.047   1.511  0.6461  0.3007  0.3352
28012SOL    HW187534   6.258   2.005   1.590  0.2124  0.1011  0.0466
28012SOL    HW287535   6.331   1.977   1.460 -1.1894 -0.0031 -0.7321
28013SOL     OW87536   7.249   8.730   7.444  0.1221 -0.8310  0.1816
28013SOL    HW187537   7.314   8.798   7.458 -0.7656  0.3922 -1.3651
28013SOL    HW287538   7.258   8.672   7.520  0.6851  1.1609  1.7025
28014SOL     OW87539   2.065   7.277   6.333  0.0078 -0.4991 -0.4762
28014SOL    HW187540   2.028   7.263   6.246 -0.1887  0.0238 -0.4770
28014SOL    HW287541   2.084   7.371   6.336  0.4734 -0.6012 -0.1350
28015SOL     OW87542   5.118   5.883   3.946  0.1799 -0.3915 -0.0792
28015SOL    HW187543   5.190   5.851   3.891  1.0847  1.8947 -0.3122
28015SOL    HW287544   5.043   5.888   3.887  0.7805  0.6899 -0.7776
28016SOL     OW87545   2.295   8.529   5.641 -0.0792 -0.2794 -0.1113
28016SOL    HW187546   2.251   8.476   5.574 -1.2609  1.6259 -0.9158
28016SOL    HW287547   2.225   8.558   5.698  0.5988  0.1338  0.5235
28017SOL     OW87548   2.979   7.844   3.700  0.2028  0.0570  0.4737
28017SOL    HW187549   2.960   7.832   3.794 -0.0587 -1.0518  0.2903
28017SOL    HW287550   2.922   7.916   3.674 -0.3796 -0.2069  0.9757
28018SOL     OW87551   6.545   2.680   3.333  0.4120  0.3905 -0.1732
28018SOL    HW187552   6.486   2.752   3.355 -0.6826  0.1192 -1.9869
28018SOL    HW287553   6.632   2.712   3.355  0.1621  3.0267 -2.5289
28019SOL     OW87554   5.782   4.277  10.272  0.5550  0.1268  0.2663
28019SOL    HW187555   5.767   4.300  10.180  0.4147  2.2549  0.7621
28019SOL    HW287556   5.749   4.353  10.321  0.6623 -0.9425  2.0800
28020SOL     OW87557  10.226   5.110  10.233  0.2076 -0.6656 -0.0071
28020SOL    HW187558  10.220   5.147  10.321  1.1831 -0.9803  0.2140
28020SOL    HW287559  10.318   5.123  10.208  0.3433 -2.0070 -0.3143
28021SOL     OW87560   3.948   7.283  10.912  0.0276  0.0801 -0.0854
28021SOL    HW187561   4.022   7.244  10.864 -0.0046 -0.0410 -0.0344
28021SOL    HW287562   3.964   7.260  11.004 -0.6756 -0.9194 -0.1985
28022SOL     OW87563   4.887   1.451   9.171 -0.5085  0.6128  0.0202
28022SOL    HW187564   4.808   1.427   9.122  0.5310 -1.5616 -0.7369
28022SOL    HW287565   4.950   1.476   9.103 -0.0590  0.8051  0.5017
28023SOL     OW87566   9.481   4.703   3.723 -0.1901 -0.2920 -0.1286
28023SOL    HW187567   9.444   4.639   3.663 -0.8007  1.5476 -1.8078
28023SOL    HW287568   9.566   4.727   3.684 -0.3879  0.5910 -0.0539
28024SOL     OW87569   5.583  10.149   5.747  0.2034  0.2508  0.4288
28024SOL    HW187570   5.506  10.152   5.690 -0.1116  0.6711  0.8612
28024SOL    HW287571   5.549  10.118   5.831  0.2676  1.5684  0.9643
28025SOL     OW87572   2.611   3.428   9.435 -0.7815 -0.5621  0.4435
28025SOL    HW187573   2.638   3.387   9.353 -1.6775 -0.3710  0.0388
28025SOL    HW287574   2.530   3.475   9.412 -0.2984  0.6377  1.1077
28026SOL     OW87575   2.560   0.470   3.030 -0.2110 -0.1242 -0.1621
28026SOL    HW187576   2.585   0.562   3.025 -0.1649  0.0381  2.0960
28026SOL    HW287577   2.467   0.471   3.052 -0.6649 -0.6749 -1.8931
28027SOL     OW87578   4.702   3.975   4.011 -0.2296 -0.0163  0.6802
28027SOL    HW187579   4.712   3.883   3.988  2.1683  0.4306 -0.4006
28027SOL    HW287580   4.785   4.015   3.984 -0.7333  2.2342  2.2214
28028SOL     OW87581   8.490   4.949   8.053 -0.2350  0.5877 -0.3512
28028SOL    HW187582   8.576   4.990   8.047  0.2473 -0.5603 -2.4892
28028SOL    HW287583   8.488   4.910   8.141  0.6237  2.2316  0.4401
28029SOL     OW87584   0.750   4.234   5.193  0.3027  0.3125 -0.3918
28029SOL    HW187585   0.704   4.157   5.159 -1.5516  0.0260  2.4370
28029SOL    HW287586   0.715   4.307   5.142 -0.3930 -0.3450 -0.8777
28030SOL     OW87587   4.059   2.678   5.154  0.5183  0.4368 -0.4489
28030SOL    HW187588   4.052   2.616   5.226  0.6042  0.7560 -0.1583
28030SOL    HW287589   4.119   2.637   5.092  0.2694  0.0618 -0.4405
28031SOL     OW87590   0.514   7.744   9.290 -0.3614  0.8133  0.0271
28031SOL    HW187591   0.590   7.801   9.304 -0.2297  0.0298  3.7190
28031SOL    HW287592   0.529   7.671   9.350 -3.5317  0.1372  0.1455
28032SOL     OW87593   1.778   7.442   3.071  0.2990  0.2468  0.3182
28032SOL    HW187594   1.834   7.379   3.115 -0.4390  0.0844  1.0525
28032SOL    HW287595   1.830   7.474   2.998  0.4022 -1.7926 -0.5542
28033SOL     OW87596   5.236   6.899   1.338  0.6064 -0.3982 -0.0173
28033SOL    HW187597   5.154   6.939   1.308  1.7382  2.0424 -0.0452
28033SOL    HW287598   5.236   6.912   1.433  0.2408 -1.8901  0.2146
28034SOL     OW87599   6.690   6.647   0.645 -0.0697  0.4123 -0.0010
28034SOL    HW187600   6.658   6.567   0.686  0.1734  1.2278  1.9155
28034SOL    HW287601   6.624   6.669   0.579 -0.1744 -1.2811 -0.4899
28035SOL     OW87602   7.439   3.701   2.029  0.0249  0.2957 -0.0029
28035SOL    HW187603   7.530   3.726   2.046 -0.2835  1.8659 -0.4969
28035SOL    HW287604   7.401   3.691   2.117 -0.0171  2.3857  0.2567
28036SOL     OW87605   3.353   0.165   6.125 -0.2319 -0.0237 -0.1338
28036SOL    HW187606   3.330   0.227   6.056 -1.4486 -2.3593 -1.9962
28036SOL    HW287607   3.270   0.148   6.170  0.4964  1.2478  1.8096
28037SOL     OW87608   0.249   6.916   6.091  0.2633 -0.0269 -0.2834
28037SOL    HW187609   0.329   6.865   6.077  0.8247  1.1003 -1.4351
28037SOL    HW287610   0.221   6.894   6.179  0.4434 -2.3429 -0.7485
28038SOL     OW87611   7.348   9.215   3.451 -0.5317 -0.1849 -0.0340
28038SOL    HW187612   7.283   9.228   3.382 -0.6278  0.5594  0.1869
28038SOL    HW287613   7.303   9.239   3.532 -0.7457 -2.0636  0.4416
28039SOL     OW87614   3.477   6.769   7.105 -0.0503 -0.2498  0.2752
28039SOL    HW187615   3.522   6.812   7.178 -3.0058  3.5768  0.1910
28039SOL    HW287616   3.407   6.719   7.147  0.0074 -0.4543  0.1304
28040SOL     OW87617   4.833   6.770   3.746 -0.0386  0.3099 -0.3402
28040SOL    HW187618   4.872   6.685   3.767  0.4374  0.0473 -2.1286
28040SOL    HW287619   4.908   6.830   3.740 -0.2698  0.6197 -0.1540
28041SOL     OW87620   2.398   5.626   6.178 -0.6140 -0.2066  0.3854
28041SOL    HW187621   2.414   5.707   6.130 -0.3012 -0.8365 -0.5986
28041SOL    HW287622   2.384   5.654   6.268  1.8832  0.7827  0.5547
28042SOL     OW87623   0.903  10.942   6.565  0.3609  0.1964  0.4163
28042SOL    HW187624   0.869  10.871   6.510 -0.3989  1.4175 -0.7373
28042SOL    HW287625   0.998  10.936   6.556  0.2573  0.2133 -0.8262
28043SOL     OW87626   5.370   0.326   6.015 -0.0860 -0.6878 -0.0042
28043SOL    HW187627   5.397   0.404   6.064  0.1317 -0.6088 -0.2448
28043SOL    HW287628   5.341   0.360   5.930  2.2071 -1.0384 -1.0005
28044SOL     OW87629   0.533   3.585   7.836  1.0643  0.7886  0.6852
28044SOL    HW187630   0.598   3.535   7.885  1.4194 -0.0133 -0.5536
28044SOL    HW287631   0.571   3.594   7.748 -0.1841  0.9218  0.1428
28045SOL     OW87632   4.604   5.237   5.410  0.1304  0.4658  0.4364
28045SOL    HW187633   4.674   5.205   5.467 -1.0979 -3.2856  0.0541
28045SOL    HW287634   4.541   5.278   5.471  0.1598 -0.9742  1.4845
28046SOL     OW87635   1.483   8.378   2.584 -0.7213 -0.0219  0.3300
28046SOL    HW187636   1.497   8.288   2.612 -2.0876 -0.0680  0.9734
28046SOL    HW287637   1.522   8.431   2.654 -0.0982 -0.1014  0.0514
28047SOL     OW87638   6.117   6.474   3.940  0.1842 -0.3443 -0.2834
28047SOL    HW187639   6.138   6.532   3.867  0.4244  1.3946  1.0958
28047SOL    HW287640   6.028   6.498   3.965  0.7527  0.3939  1.1306
28048SOL     OW87641   7.119   7.933   5.110 -0.1023 -0.3488 -0.5046
28048SOL    HW187642   7.084   7.941   5.199 -0.9522 -0.2264 -0.8395
28048SOL    HW287643   7.202   7.982   5.112 -0.2102 -0.1859  0.1698
28049SOL     OW87644   9.857   6.343   8.741  0.0855 -0.3652  0.4641
28049SOL    HW187645   9.921   6.400   8.784  0.1592  0.2998 -0.5057
28049SOL    HW287646   9.787   6.333   8.805  0.7218 -0.3492  1.1822
28050SOL     OW87647   2.266   8.331   5.934  0.0250  0.3305 -0.0413
28050SOL    HW187648   2.252   8.303   6.024 -0.6118 -1.0269 -0.5250
28050SOL    HW287649   2.234   8.257   5.881  1.3461  0.6533 -1.3591
28051SOL     OW87650   2.911   6.401   5.918  0.0082  0.4307 -0.4187
28051SOL    HW187651   2.989   6.407   5.973  0.7364  0.6443 -1.4532
28051SOL    HW287652   2.876   6.314   5.936  1.9031 -0.6832 -1.7627
28052SOL     OW87653   8.204   1.032   2.011  0.0569 -0.5286  0.6707
28052SOL    HW187654   8.124   1.020   2.062 -1.2251 -0.1593 -1.1641
28052SOL    HW287655   8.174   1.040   1.921  2.2551 -1.3891 -0.2015
28053SOL     OW87656   8.309   1.057   1.496  0.3732  0.2719  0.5617
28053SOL    HW187657   8.328   0.987   1.434  1.2432 -0.2129  1.3680
28053SOL    HW287658   8.393   1.101   1.510  0.2413  0.2346  1.5594
28054SOL     OW87659   1.016   8.488   3.612 -0.6557 -0.8841  0.6886
28054SOL    HW187660   0.942   8.503   3.672 -0.6995  0.4119  0.3504
28054SOL    HW287661   1.004   8.553   3.543 -0.3644 -2.0807 -0.5191
28055SOL     OW87662   3.490   1.078   3.647 -0.1125  0.3556  0.0595
28055SOL    HW187663   3.432   1.146   3.612  0.9019  0.2320 -2.0744
28055SOL    HW287664   3.443   0.996   3.634  0.4019  0.2692 -1.5463
28056SOL     OW87665   2.973   9.964   4.541 -0.1631  0.7586  0.0899
28056SOL    HW187666   2.914   9.976   4.467  0.2006  0.6738 -0.2221
28056SOL    HW287667   2.943   9.883   4.583  0.7759 -0.2443 -1.0931
28057SOL     OW87668   7.312   6.640   4.122 -0.2612  0.3398 -0.5917
28057SOL    HW187669   7.315   6.592   4.205  0.9662  1.5584  0.1153
28057SOL    HW287670   7.383   6.603   4.070 -2.7912 -2.4502 -2.3691
28058SOL     OW87671   1.026   9.345  10.864  0.4975  0.4727  0.2715
28058SOL    HW187672   1.033   9.255  10.898 -0.9396 -0.1630 -1.0043
28058SOL    HW287673   1.116   9.379  10.869  1.7494 -2.0787 -1.8804
28059SOL     OW87674   8.112   1.746   4.048  0.0142  0.0972 -0.5693
28059SOL    HW187675   8.092   1.735   4.141  0.6644 -1.9704 -0.6348
28059SOL    HW287676   8.028   1.765   4.008 -0.2685  1.0639  0.4287
28060SOL     OW87677   5.851   1.541   5.851  0.2978 -0.3053  0.4428
28060SOL    HW187678   5.851   1.621   5.903 -1.7555 -0.1257  0.2455
28060SOL    HW287679   5.927   1.549   5.794 -0.0673  1.7042  0.1769
28061SOL     OW87680   9.155   7.587   0.392  0.7018  0.3464 -0.1307
28061SOL    HW187681   9.100   7.592   0.471  0.8850 -1.5812  0.1683
28061SOL    HW287682   9.238   7.628   0.418 -0.5187  3.4652 -0.6376
28062SOL     OW87683   9.020   8.242   7.588 -0.3262 -0.4575 -0.3321
28062SOL    HW187684   9.111   8.215   7.581  0.6038  1.2663  2.8895
28062SOL    HW287685   8.978   8.174   7.641  0.3188  0.8542  2.0011
28063SOL     OW87686   2.546   2.344   2.903 -0.1054 -0.4875  0.0235
28063SOL    HW187687   2.592   2.423   2.932 -0.3984 -0.3639  0.1529
28063SOL    HW287688   2.457   2.354   2.936 -0.5646 -0.1527 -1.2648
28064SOL     OW87689   5.578   8.730   5.516  0.2574  0.6025 -0.4027
28064SOL    HW187690   5.599   8.815   5.478 -2.2246  1.0701 -0.9009
28064SOL    HW287691   5.545   8.750   5.604  1.3039 -0.0495  0.1717
28065SOL     OW87692   0.769   8.297   1.776  0.0324  0.3441  0.3047
28065SOL    HW187693   0.779   8.279   1.870  0.9706  1.5117  0.4514
28065SOL    HW287694   0.675   8.312   1.765 -0.0268  0.6815  1.1550
28066SOL     OW87695   3.017   0.492   2.459  0.3612  0.8382 -0.3132
28066SOL    HW187696   3.058   0.570   2.423  1.1763  1.4019  1.6917
28066SOL    HW287697   3.014   0.508   2.554 -0.8930 -0.8970 -0.0050
28067SOL     OW87698   1.642   6.617   7.124  0.0221  0.0434 -0.5917
28067SOL    HW187699   1.728   6.617   7.081  0.4982  0.8108  0.3185
28067SOL    HW287700   1.601   6.536   7.096 -0.0532  0.8891 -3.1659
28068SOL     OW87701   0.412   8.542   8.442  0.6515  0.0766  0.0384
28068SOL    HW187702   0.449   8.533   8.355  3.4515 -0.6584  1.1835
28068SOL    HW287703   0.428   8.457   8.484 -0.2793  0.5296  1.3971
28069SOL     OW87704   7.183   5.498   1.936 -0.0136 -0.3158 -0.1871
28069SOL    HW187705   7.112   5.462   1.989  2.1873 -3.8356  0.7288
28069SOL    HW287706   7.252   5.431   1.940  3.3478  2.7826 -1.1097
28070SOL     OW87707   4.484   4.791   9.757  0.1195  0.5272  0.8687
28070SOL    HW187708   4.557   4.835   9.802  1.7002 -0.6118 -0.4394
28070SOL    HW287709   4.501   4.698   9.770 -1.3106  0.2387  0.7899
28071SOL     OW87710   4.938   7.175   8.009 -0.2998 -0.2134  0.7801
28071SOL    HW187711   4.848   7.144   8.000 -0.8432  1.0166  1.6394
28071SOL    HW287712   4.947   7.241   7.941  0.3663 -1.1594 -0.0800
28072SOL     OW87713   1.522   9.028   6.435  0.2072 -1.1794  0.0719
28072SOL    HW187714   1.472   8.957   6.394  0.7047 -1.9332  0.7424
28072SOL    HW287715   1.467   9.058   6.507  0.2286 -1.2486  0.1173
28073SOL     OW87716   3.031   3.883   5.918  0.9579  0.2832 -0.3499
28073SOL    HW187717   3.056   3.911   5.829  0.6064  0.2468 -0.4622
28073SOL    HW287718   3.017   3.965   5.966  2.0252  0.3124 -0.0712
28074SOL     OW87719   7.648   7.121   4.423  0.4848  0.2559 -0.5427
28074SOL    HW187720   7.737   7.148   4.446  0.3428 -0.4105  0.9497
28074SOL    HW287721   7.658   7.030   4.394  0.1380 -0.3676  1.1673
28075SOL     OW87722  10.965   5.973   0.020  0.7105  0.1982  0.3111
28075SOL    HW187723  11.053   5.959   0.056  1.8738  0.1236 -2.2805
28075SOL    HW287724  10.919   6.023   0.087  2.0701 -1.3620  2.5605
28076SOL     OW87725   7.702   2.987   5.749 -0.0005 -0.1973 -0.6929
28076SOL    HW187726   7.759   3.063   5.765 -0.1179 -0.3571  0.5540
28076SOL    HW287727   7.653   3.011   5.670  1.4495  0.1299 -1.5511
28077SOL     OW87728   2.426   0.471   4.955  0.0739 -0.0417  0.0663
28077SOL    HW187729   2.352   0.421   4.919  0.4041  0.3148 -1.1576
28077SOL    HW287730   2.460   0.415   5.025 -0.5581 -0.7977 -0.2026
28078SOL     OW87731   3.751   2.640   3.094 -0.5047 -0.3614 -0.5411
28078SOL    HW187732   3.680   2.608   3.039 -0.2665  1.2049 -1.8292
28078SOL    HW287733   3.790   2.711   3.044 -0.3385  1.2257  1.6844
28079SOL     OW87734   1.013   6.725  10.107  0.1299 -0.1342 -0.1267
28079SOL    HW187735   0.925   6.710  10.074  0.4331 -1.3931 -0.4314
28079SOL    HW287736   1.002   6.790  10.177 -0.7112  1.4873 -1.6814
28080SOL     OW87737   1.019   6.637   4.413  0.3552 -0.9700  0.4179
28080SOL    HW187738   0.939   6.690   4.409 -0.0571 -1.6776 -1.1598
28080SOL    HW287739   1.087   6.700   4.436 -0.3186  0.0233 -0.2044
28081SOL     OW87740   1.943   6.972  10.725  0.5991 -0.5012 -0.4762
28081SOL    HW187741   1.989   6.999  10.645  0.2989 -1.7605 -1.1079
28081SOL    HW287742   1.884   6.902  10.696  0.4067 -0.9133  0.8337
28082SOL     OW87743   6.083  10.461   0.182  0.4398  0.4286 -0.7023
28082SOL    HW187744   6.137  10.407   0.240  0.5191  0.3846 -0.8157
28082SOL    HW287745   6.146  10.516   0.135  0.3452  0.7422 -0.4630
28083SOL     OW87746   8.635   7.840   3.514  0.4504  0.0788 -0.1348
28083SOL    HW187747   8.712   7.891   3.487  0.7995 -0.7345 -0.7245
28083SOL    HW287748   8.659   7.805   3.600  0.1736  0.9603  0.3164
28084SOL     OW87749   7.417   9.561   5.685 -0.2706  0.3964 -0.2490
28084SOL    HW187750   7.338   9.573   5.631  0.0553 -0.7434 -1.0292
28084SOL    HW287751   7.385   9.521   5.765 -0.5336  0.2546 -0.4228
28085SOL     OW87752   6.078   9.576   1.320  0.1624 -0.0406  0.0625
28085SOL    HW187753   6.052   9.567   1.412 -0.8990  1.5939 -0.0354
28085SOL    HW287754   6.161   9.625   1.324 -1.3385  2.6993  0.1346
28086SOL     OW87755  10.359   6.683   5.717  0.0582  0.4070  0.1811
28086SOL    HW187756  10.432   6.627   5.690  0.4812  1.3420 -0.6615
28086SOL    HW287757  10.281   6.630   5.701  0.4149  0.2672 -1.2023
28087SOL     OW87758   8.636   1.296   2.854 -0.5704 -0.1356  0.1808
28087SOL    HW187759   8.604   1.358   2.789  1.7324  0.5302 -0.4135
28087SOL    HW287760   8.557   1.256   2.891 -1.9912  0.6402 -1.8665
28088SOL     OW87761   4.115   7.033   3.622 -0.3008  0.2952 -0.5236
28088SOL    HW187762   4.200   7.000   3.650 -0.9811 -0.6262  0.5099
28088SOL    HW287763   4.135   7.114   3.575  1.1352  0.1294 -0.2291
28089SOL     OW87764   2.028   3.752   1.560 -0.0558 -0.1069 -0.5692
28089SOL    HW187765   2.072   3.834   1.584 -1.6940  0.6444 -0.0039
28089SOL    HW287766   1.996   3.767   1.471 -0.7087  0.0364 -0.3155
28090SOL     OW87767   2.597   3.607  11.002 -0.0042 -0.0450  0.3225
28090SOL    HW187768   2.594   3.565  10.916 -1.2766 -1.9396  1.2235
28090SOL    HW287769   2.624   3.697  10.984 -0.8382 -0.2121 -2.1245
28091SOL     OW87770  10.913   4.100  10.680  0.5280 -0.0868 -0.4617
28091SOL    HW187771  10.875   4.020  10.717  0.9114 -1.0613 -2.0840
28091SOL    HW287772  10.924   4.158  10.755 -0.0768 -1.4244  0.7065
28092SOL     OW87773  10.359   2.523   2.670  0.3750 -0.1733 -0.5259
28092SOL    HW187774  10.350   2.429   2.653  0.6900 -0.2385 -0.3324
28092SOL    HW287775  10.444   2.546   2.633  0.7281 -0.1607  0.2758
28093SOL     OW87776   3.634  10.887   3.384 -0.5918  0.2193 -0.0954
28093SOL    HW187777   3.639  10.810   3.328  1.1977  0.4811 -0.3780
28093SOL    HW287778   3.542  10.893   3.410 -1.4760  0.0509 -2.9003
28094SOL     OW87779  10.346   4.446   5.066 -0.6885 -0.0562 -0.5101
28094SOL    HW187780  10.423   4.496   5.039 -0.5284  0.6993  1.2217
28094SOL    HW287781  10.378   4.382   5.129 -1.4034  0.0027 -0.0670
28095SOL     OW87782   2.804   1.650   1.933 -0.5355 -0.1703 -0.0042
28095SOL    HW187783   2.833   1.677   1.846  1.7092  0.4597  0.8721
28095SOL    HW287784   2.810   1.554   1.931 -0.8048 -0.1780 -0.6294
28096SOL     OW87785   0.503   4.876   9.962  0.0523  0.6006  0.4649
28096SOL    HW187786   0.439   4.859   9.894 -0.5454  2.6938  0.4280
28096SOL    HW287787   0.508   4.794  10.012 -2.7694  0.3939  0.5658
28097SOL     OW87788   6.492  10.918   7.539 -0.1525 -1.1227  0.1563
28097SOL    HW187789   6.578  10.901   7.502  0.8306  0.9577  1.3068
28097SOL    HW287790   6.462  10.997   7.493 -1.6188 -1.9858 -0.4443
28098SOL     OW87791   5.250   5.674   5.201  0.0361  0.2522  0.1295
28098SOL    HW187792   5.230   5.589   5.240 -0.7494  0.4696  0.2186
28098SOL    HW287793   5.191   5.735   5.244 -0.7262  0.5363 -1.2392
28099SOL     OW87794   6.660   0.049   7.079  0.3629 -0.1470 -0.1489
28099SOL    HW187795   6.720   0.116   7.048  0.9439 -0.6149 -0.0457
28099SOL    HW287796   6.575   0.093   7.085  1.0971  1.1226  1.8128
28100SOL     OW87797   7.001   7.317   4.702 -0.1376 -0.5032 -0.2540
28100SOL    HW187798   6.996   7.245   4.764 -1.2951  0.8009  1.2566
28100SOL    HW287799   7.067   7.376   4.739 -0.1617 -0.1590 -0.7511
28101SOL     OW87800   3.441   5.819  10.200 -0.2163  0.1653 -0.0648
28101SOL    HW187801   3.354   5.785  10.182 -0.8495  1.0967  1.0469
28101SOL    HW287802   3.475   5.762  10.269  1.5555 -2.4040 -2.8155
28102SOL     OW87803  11.003   1.911   4.558  0.6868 -0.2607 -0.1891
28102SOL    HW187804  11.038   1.960   4.632  0.9331 -1.4149  0.4815
28102SOL    HW287805  10.973   1.978   4.496 -0.0462  0.7162  1.1928
28103SOL     OW87806   9.958   8.439   5.117 -0.1513  0.2824 -0.0170
28103SOL    HW187807   9.970   8.446   5.212 -0.5048 -0.4759  0.0854
28103SOL    HW287808   9.864   8.428   5.105 -0.0435 -0.2312 -0.4158
28104SOL     OW87809   5.067   4.105   6.169 -0.5453  0.2920 -0.8868
28104SOL    HW187810   5.007   4.039   6.132  0.8663 -0.5584 -1.7361
28104SOL    HW287811   5.148   4.057   6.186  0.5904  1.8309 -1.7238
28105SOL     OW87812   8.235   4.503   0.714 -0.3468  0.0310 -0.1364
28105SOL    HW187813   8.165   4.508   0.649  1.4300 -2.3423 -2.4680
28105SOL    HW287814   8.190   4.507   0.798 -2.9906  1.1437 -1.4706
28106SOL     OW87815   7.215   7.147   7.643 -0.9871  0.2362  0.6213
28106SOL    HW187816   7.124   7.178   7.640 -1.4489 -1.1409 -1.7925
28106SOL    HW287817   7.208   7.052   7.646  0.2851 -0.0277 -2.0337
28107SOL     OW87818   6.023   5.702   6.552  0.2962  0.3751  0.1712
28107SOL    HW187819   5.928   5.702   6.542  0.3434  0.5689 -0.3174
28107SOL    HW287820   6.038   5.693   6.646 -0.1929 -1.4844  0.1145
28108SOL     OW87821   6.288   3.083   9.730  0.1663 -0.3956 -0.1383
28108SOL    HW187822   6.266   3.081   9.823 -0.9630  0.6626 -0.3471
28108SOL    HW287823   6.379   3.112   9.727 -0.4043  1.6365  0.6002
28109SOL     OW87824   1.765   4.209   5.890 -0.4354  0.4502 -0.0904
28109SOL    HW187825   1.779   4.257   5.808 -0.5978 -1.2671 -1.1495
28109SOL    HW287826   1.697   4.259   5.935 -1.5252  0.5366 -1.7470
28110SOL     OW87827   3.517   2.028   9.122 -0.0340  0.4878  0.2196
28110SOL    HW187828   3.506   2.060   9.033 -1.3302 -1.3175 -0.3388
28110SOL    HW287829   3.547   2.104   9.172 -0.3349  1.8085 -1.5245
28111SOL     OW87830   7.796   2.610   3.343  0.0429 -0.2923 -0.3494
28111SOL    HW187831   7.752   2.612   3.258 -1.2027 -0.3901  0.2746
28111SOL    HW287832   7.770   2.692   3.385  2.0384  0.5818 -0.7112
28112SOL     OW87833  10.030   2.608   2.712 -0.0808 -0.2730  0.0098
28112SOL    HW187834  10.045   2.695   2.676  0.2856 -0.7974 -1.1592
28112SOL    HW287835  10.073   2.549   2.650  0.6448 -1.2143  1.3711
28113SOL     OW87836   4.072   1.916   6.109 -0.2950 -0.7021  0.3503
28113SOL    HW187837   3.978   1.897   6.110 -0.6993  1.0630  1.8502
28113SOL    HW287838   4.100   1.893   6.020 -2.0894 -1.4376 -0.0781
28114SOL     OW87839   2.733   9.162   8.626  0.0843  0.4261  0.7057
28114SOL    HW187840   2.683   9.164   8.707 -0.9323  0.5765  0.0826
28114SOL    HW287841   2.676   9.119   8.563  1.2397 -0.5844  0.3066
28115SOL     OW87842   3.358   1.801   2.463  0.0176 -0.3388  0.1330
28115SOL    HW187843   3.342   1.886   2.504  0.3271  0.1434 -0.7265
28115SOL    HW287844   3.271   1.760   2.458 -0.5253  0.9019 -1.5497
28116SOL     OW87845  10.826   6.044   3.004 -0.2475  0.3235  1.1456
28116SOL    HW187846  10.806   6.085   3.088 -1.8734  0.0287  0.9201
28116SOL    HW287847  10.769   5.968   2.999 -0.2008  0.3536 -0.2408
28117SOL     OW87848   5.670   9.689   9.370 -0.3250 -0.0523 -0.1971
28117SOL    HW187849   5.675   9.670   9.464 -2.3330 -0.9442 -0.2034
28117SOL    HW287850   5.736   9.632   9.331 -0.7991 -1.1704  0.5459
28118SOL     OW87851   2.174   3.295  10.843 -0.1743 -0.1285 -0.3968
28118SOL    HW187852   2.163   3.338  10.928 -0.3414  0.6901 -0.8226
28118SOL    HW287853   2.172   3.201  10.863 -0.5305  0.0534  0.4595
28119SOL     OW87854   8.528   6.211   5.118 -0.0357 -0.4810  0.2689
28119SOL    HW187855   8.575   6.174   5.043  0.6069 -1.1461  0.9805
28119SOL    HW287856   8.537   6.145   5.186  0.3588  0.6047  1.2954
28120SOL     OW87857   8.898   9.237   5.944  0.0190  0.5880  0.0387
28120SOL    HW187858   8.881   9.310   5.884 -1.0537  0.3366  0.0195
28120SOL    HW287859   8.829   9.245   6.010  1.3186  1.0045  1.3890
28121SOL     OW87860   7.904   7.047   6.424 -0.0933  0.0194  0.2399
28121SOL    HW187861   7.885   7.042   6.330  0.3731 -4.0866  0.1521
28121SOL    HW287862   7.832   6.999   6.465  0.1059  1.0944  1.9199
28122SOL     OW87863   3.378   8.717   0.455  0.0116 -0.0041  0.1778
28122SOL    HW187864   3.317   8.644   0.448  0.1515 -0.1253  0.2349
28122SOL    HW287865   3.461   8.684   0.419 -0.5268  0.8300 -2.0205
28123SOL     OW87866   1.258   5.037   4.007 -0.4548 -0.6801  0.2616
28123SOL    HW187867   1.214   5.034   3.922 -0.4044  0.1910  0.1955
28123SOL    HW287868   1.316   4.961   4.006  0.1245 -0.2606 -0.8224
28124SOL     OW87869   6.439   3.677   9.101  0.2673 -0.1116 -0.0865
28124SOL    HW187870   6.399   3.653   9.185  1.7626  1.5567  1.1964
28124SOL    HW287871   6.396   3.622   9.037 -1.0173 -1.3835  1.7716
28125SOL     OW87872   7.991   9.326   4.017 -0.4411  0.4472 -0.2151
28125SOL    HW187873   8.011   9.408   4.062 -0.0713  2.0095 -3.0400
28125SOL    HW287874   7.900   9.335   3.989 -0.9510 -0.8839  0.8620
28126SOL     OW87875   9.341   0.132   9.025  0.4351  0.4518  0.0431
28126SOL    HW187876   9.250   0.150   9.049 -0.6009 -1.0935 -2.3595
28126SOL    HW287877   9.380   0.219   9.013 -0.6443  1.1494  1.2627
28127SOL     OW87878   2.014  10.902   2.853 -0.5570 -0.2263 -0.3360
28127SOL    HW187879   1.964  10.866   2.780 -2.9620 -0.2562  1.2288
28127SOL    HW287880   1.996  10.842   2.926  0.9477  0.3711  0.5688
28128SOL     OW87881   7.651   8.782   6.702 -0.1961  0.2270  0.4945
28128SOL    HW187882   7.569   8.768   6.655  0.1002 -1.8898  0.4705
28128SOL    HW287883   7.712   8.813   6.635 -0.8787  1.5380  0.4547
28129SOL     OW87884   0.002   5.421   4.754  0.8222  0.2606 -0.1429
28129SOL    HW187885  -0.034   5.371   4.681  1.3472  0.3493 -0.4735
28129SOL    HW287886   0.089   5.448   4.723  0.6204  1.2260  0.0819
28130SOL     OW87887   7.364  10.977   3.253  0.0627  0.2035 -0.0255
28130SOL    HW187888   7.309  11.005   3.326  0.2545 -1.3522  0.7575
28130SOL    HW287889   7.353  11.045   3.187 -1.5659  0.7162  0.7278
28131SOL     OW87890   2.750   4.252   0.989  0.4441 -0.7276 -0.4207
28131SOL    HW187891   2.775   4.244   1.081 -1.0242 -1.6620 -0.0712
28131SOL    HW287892   2.833   4.260   0.942  1.3669 -2.7151  0.7512
28132SOL     OW87893   9.400   3.834   8.484 -0.5847 -0.5089 -0.6568
28132SOL    HW187894   9.413   3.739   8.476 -0.3125 -0.6035  0.6876
28132SOL    HW287895   9.420   3.853   8.575 -2.1401  0.6191 -0.5150
28133SOL     OW87896   3.562   6.337   8.107 -0.5061 -0.0744  0.2169
28133SOL    HW187897   3.479   6.355   8.150  1.3216  0.2748  4.0582
28133SOL    HW287898   3.564   6.242   8.097 -0.8520 -0.2186  1.3729
28134SOL     OW87899   4.347   6.063   2.150  0.2812  0.0282 -0.5279
28134SOL    HW187900   4.422   6.020   2.191  0.0358  0.8419  0.8629
28134SOL    HW287901   4.339   6.022   2.064  1.1207 -1.4420  0.0590
28135SOL     OW87902   3.246   6.434   3.424 -0.1793  0.2446 -0.3584
28135SOL    HW187903   3.186   6.498   3.385 -0.1828 -0.0525 -0.8514
28135SOL    HW287904   3.211   6.420   3.512 -0.4750  0.5360 -0.4264
28136SOL     OW87905   2.043   6.131   0.005 -0.0551 -0.5375 -0.2599
28136SOL    HW187906   2.067   6.058   0.063 -0.2133 -0.8985 -0.6453
28136SOL    HW287907   1.968   6.171   0.048  0.0531 -0.5787 -0.0276
28137SOL     OW87908   8.417   4.589   1.826  0.2401 -0.3572 -0.0548
28137SOL    HW187909   8.409   4.496   1.804  2.0555 -0.2073 -1.5852
28137SOL    HW287910   8.426   4.590   1.921 -1.4214 -1.5762  0.1698
28138SOL     OW87911   2.344   8.186   7.504 -0.3410  0.6075  0.1489
28138SOL    HW187912   2.280   8.115   7.507  0.5545 -0.2709 -0.5988
28138SOL    HW287913   2.315   8.247   7.571 -2.0420  0.3238 -0.2695
28139SOL     OW87914   8.391   2.546   1.007 -0.0252 -0.1151 -0.2718
28139SOL    HW187915   8.346   2.601   0.943 -0.3871 -0.1470 -0.0471
28139SOL    HW287916   8.327   2.478   1.030 -0.0289  0.1002  0.3872
28140SOL     OW87917   2.408   4.387   4.114 -0.2735 -0.1326  0.1201
28140SOL    HW187918   2.393   4.320   4.048  1.7141  0.3065 -0.8657
28140SOL    HW287919   2.455   4.342   4.184  1.0339  0.1598 -0.5285
28141SOL     OW87920   7.424   6.174   5.453 -0.1572 -0.3832 -0.6938
28141SOL    HW187921   7.512   6.160   5.486  0.4272  0.1246 -1.9849
28141SOL    HW287922   7.405   6.098   5.398 -0.8386 -0.8709  0.1940
28142SOL     OW87923  10.071   3.682   1.096 -0.5243 -0.1329  0.6120
28142SOL    HW187924   9.985   3.715   1.124 -0.5025  0.2560  0.2230
28142SOL    HW287925  10.094   3.735   1.020  0.0932 -0.1924  0.7512
28143SOL     OW87926   6.532   3.261   2.127  0.5732  0.6715 -0.0084
28143SOL    HW187927   6.555   3.253   2.220 -0.0645 -0.2411  0.0910
28143SOL    HW287928   6.615   3.250   2.081  0.8172  0.5721  0.4414
28144SOL     OW87929   5.054   3.319   3.924 -0.3360  0.6227  0.6103
28144SOL    HW187930   5.142   3.290   3.949 -1.0395 -1.1976  1.0764
28144SOL    HW287931   5.058   3.326   3.829  0.0414 -0.4314  0.5383
28145SOL     OW87932   0.383   7.442   0.309  0.0359 -0.2661 -0.6111
28145SOL    HW187933   0.294   7.438   0.344  0.1848  0.4690 -0.1334
28145SOL    HW287934   0.432   7.378   0.362  0.2134  0.6897  0.4078
28146SOL     OW87935   5.297   2.771   4.411  0.2183 -0.0581  0.2457
28146SOL    HW187936   5.297   2.864   4.430  0.7934  0.3280 -1.4647
28146SOL    HW287937   5.205   2.748   4.401  0.0837  0.3615  0.5132
28147SOL     OW87938   1.958   1.300   0.756  0.8072  0.3063 -0.6081
28147SOL    HW187939   1.935   1.228   0.815 -1.9254 -1.3532 -3.3969
28147SOL    HW287940   2.021   1.262   0.695  0.2015  0.6345 -1.4434
28148SOL     OW87941   0.782  10.273   1.048 -0.2072 -0.5721  0.3823
28148SOL    HW187942   0.725  10.337   1.091 -2.0831 -1.6984 -0.3396
28148SOL    HW287943   0.727  10.233   0.981  0.6336 -3.5327  1.3372
28149SOL     OW87944  10.745   5.292   8.396  0.0627 -0.3243  0.7394
28149SOL    HW187945  10.681   5.349   8.352  0.2461 -0.9106 -0.3050
28149SOL    HW287946  10.692   5.238   8.455 -0.2507  0.0855  0.8377
28150SOL     OW87947   4.908   6.989   5.096  1.0561  0.9040 -0.1610
28150SOL    HW187948   4.885   7.041   5.173 -0.5911  0.0749 -0.0517
28150SOL    HW287949   4.963   7.047   5.043  1.3756  1.8368  1.1502
28151SOL     OW87950   9.934   1.794   1.663 -0.2401  0.5443 -0.1109
28151SOL    HW187951  10.026   1.767   1.659 -0.4067  0.0940 -0.9605
28151SOL    HW287952   9.934   1.882   1.626 -0.7584 -1.0780 -4.4815
28152SOL     OW87953   1.544   6.479  10.643  0.3608  0.6670  0.2263
28152SOL    HW187954   1.492   6.557  10.622  1.0301  1.1658  0.3720
28152SOL    HW287955   1.581   6.452  10.560  0.0827  0.4707  0.1660
28153SOL     OW87956   1.962  10.613   2.819  0.7888 -0.2706  0.3708
28153SOL    HW187957   1.921  10.604   2.906 -0.9999 -2.7062 -0.6255
28153SOL    HW287958   1.932  10.537   2.770  1.5141  1.1611 -2.5206
28154SOL     OW87959   9.538   5.762   1.195  0.0433 -0.1044  0.3278
28154SOL    HW187960   9.540   5.701   1.269  0.8052 -0.0238  0.3808
28154SOL    HW287961   9.583   5.840   1.227 -0.0496  0.1142 -0.0679
28155SOL     OW87962   3.003   1.405   5.241  0.1444  0.2997  0.7375
28155SOL    HW187963   2.964   1.359   5.167  1.6339  1.1503 -0.6182
28155SOL    HW287964   2.976   1.496   5.230  0.2581  0.4086  1.3359
28156SOL     OW87965   5.526   0.468   1.640  0.2489 -0.1850  0.3081
28156SOL    HW187966   5.536   0.428   1.726  1.1311  0.7983  0.6821
28156SOL    HW287967   5.536   0.395   1.579  0.1292 -0.8098  1.0131
28157SOL     OW87968   2.517  10.838   4.345  0.0222  0.2281  0.3673
28157SOL    HW187969   2.540  10.929   4.366 -0.3217  0.7402 -1.2849
28157SOL    HW287970   2.524  10.792   4.428 -1.7332  2.1613  1.6904
28158SOL     OW87971   1.352  10.239   4.564 -0.0000 -0.1640  0.4221
28158SOL    HW187972   1.422  10.243   4.629 -0.6306 -0.0153  1.1044
28158SOL    HW287973   1.355  10.323   4.518 -0.8917  0.5898  1.6906
28159SOL     OW87974   0.024  10.290   4.651 -0.1525  0.1282 -0.0325
28159SOL    HW187975  -0.005  10.206   4.614 -1.3805 -0.3582  1.9134
28159SOL    HW287976   0.065  10.267   4.734  0.8428  1.3546 -0.1524
28160SOL     OW87977   8.196   3.464   7.803 -0.4858  0.0540 -0.1526
28160SOL    HW187978   8.141   3.516   7.744 -0.2760  1.1049  0.5535
28160SOL    HW287979   8.284   3.500   7.793  0.2055 -1.8685 -1.5598
28161SOL     OW87980   3.947   9.568   9.950  0.9425  0.4426 -0.0404
28161SOL    HW187981   3.925   9.523   9.868  0.1987 -0.6063  0.7066
28161SOL    HW287982   3.895   9.523  10.016  3.8563 -0.8573  1.5411
28162SOL     OW87983   3.365   3.467   5.038 -0.3724 -0.0262 -0.1789
28162SOL    HW187984   3.299   3.518   4.992  0.0218 -0.7395 -1.5648
28162SOL    HW287985   3.327   3.379   5.046 -0.0009 -0.1800 -0.0736
28163SOL     OW87986   7.406   6.222   3.922  0.0318  0.3784  0.0868
28163SOL    HW187987   7.336   6.156   3.926  0.2393  0.1028 -0.6873
28163SOL    HW287988   7.470   6.193   3.987  1.2703 -1.5469 -1.8541
28164SOL     OW87989   6.695   3.904   6.200 -0.0884 -0.0484  0.2526
28164SOL    HW187990   6.779   3.944   6.222  1.1494 -2.6965  0.7808
28164SOL    HW287991   6.710   3.862   6.115 -0.9402 -0.3330  0.2302
28165SOL     OW87992   7.196   9.358   6.491 -0.0715  0.0991 -0.1459
28165SOL    HW187993   7.232   9.273   6.467 -1.2248 -0.4645  0.0455
28165SOL    HW287994   7.182   9.352   6.586 -0.8383  0.2183 -0.2434
28166SOL     OW87995   6.274   3.628   2.850 -1.1253  0.8929  0.8234
28166SOL    HW187996   6.337   3.601   2.916 -1.0374  1.0769  0.8171
28166SOL    HW287997   6.307   3.592   2.768 -1.6402  0.0127  0.9899
28167SOL     OW87998   5.029   0.664   9.435 -0.4438 -0.2743  0.2776
28167SOL    HW187999   5.004   0.626   9.519  2.1497 -2.1753  0.3256
28167SOL    HW288000   5.117   0.699   9.450  0.7816 -2.1120 -1.9423
28168SOL     OW88001   2.467   3.082   7.303 -0.1436 -0.3181  0.4620
28168SOL    HW188002   2.391   3.082   7.361  0.1446  0.7710  0.8767
28168SOL    HW288003   2.530   3.141   7.346  0.3407 -0.0186 -0.6181
28169SOL     OW88004   9.868   8.944   2.233 -0.2485  0.0605 -0.7653
28169SOL    HW188005   9.841   8.883   2.301 -1.3162 -0.8913 -1.9777
28169SOL    HW288006   9.921   9.009   2.278 -0.5351 -0.7932  0.8756
28170SOL     OW88007   9.578   9.121   3.494 -0.5503 -0.4744 -0.2884
28170SOL    HW188008   9.518   9.064   3.445  0.4868 -0.1173 -2.0861
28170SOL    HW288009   9.645   9.062   3.528 -0.1132 -0.4940 -1.1545
28171SOL     OW88010   6.720   3.950   3.332  0.0790  0.0154  0.0886
28171SOL    HW188011   6.735   3.855   3.337  0.5987  0.1301  1.1433
28171SOL    HW288012   6.628   3.959   3.311 -0.2038 -0.7414  0.9376
28172SOL     OW88013   8.606   4.594   2.610  0.2382  0.0163 -0.5848
28172SOL    HW188014   8.670   4.638   2.554  1.6904 -0.3662  0.6799
28172SOL    HW288015   8.590   4.657   2.681  1.0603 -0.7875  0.3538
28173SOL     OW88016   5.246   1.379   1.172  0.2584 -0.4089 -0.6790
28173SOL    HW188017   5.158   1.362   1.206  0.3586  1.1098  0.4226
28173SOL    HW288018   5.271   1.296   1.131 -1.5757 -0.9561 -0.8110
28174SOL     OW88019   2.356   9.133   8.446 -0.1825 -0.1423 -0.1424
28174SOL    HW188020   2.336   9.077   8.521  3.4155  0.6912  1.6822
28174SOL    HW288021   2.444   9.107   8.419 -0.2048  1.5759 -2.2342
28175SOL     OW88022   8.356  10.193   6.885  0.5173 -0.3735  0.5450
28175SOL    HW188023   8.444  10.174   6.915  1.0828  0.7737 -0.2963
28175SOL    HW288024   8.368  10.231   6.798 -0.8972 -1.4816 -0.1747
28176SOL     OW88025  10.201   1.762   0.463  0.3436 -0.7504 -0.5552
28176SOL    HW188026  10.245   1.846   0.472 -2.2322  0.4802  2.0745
28176SOL    HW288027  10.136   1.776   0.394 -0.2512 -0.4763  0.0524
28177SOL     OW88028   5.464  10.173  10.402 -0.1803 -0.3404  0.0036
28177SOL    HW188029   5.530  10.117  10.442  0.1940 -0.3817 -0.6518
28177SOL    HW288030   5.480  10.166  10.308 -0.6403  0.2405 -0.1280
28178SOL     OW88031   2.802   5.854   9.860  0.4424 -0.1274 -0.0800
28178SOL    HW188032   2.896   5.852   9.843  0.4200  0.8268 -0.4022
28178SOL    HW288033   2.795   5.856   9.956  0.8184  1.0878 -0.0539
28179SOL     OW88034   3.153   5.382   9.617 -0.3404 -0.3391 -0.0767
28179SOL    HW188035   3.155   5.303   9.671  3.6526  0.0530  0.6646
28179SOL    HW288036   3.204   5.446   9.665 -0.7860  1.7045 -2.1184
28180SOL     OW88037   8.251   6.334  10.462 -0.6135  0.1991 -0.0793
28180SOL    HW188038   8.248   6.238  10.460 -0.7191  0.1949  0.1490
28180SOL    HW288039   8.220   6.362  10.376 -0.9376  0.0327 -0.0189
28181SOL     OW88040   3.959   9.866  10.526 -0.5662 -0.3486  0.0762
28181SOL    HW188041   3.911   9.938  10.568  0.4875  1.4046 -1.5573
28181SOL    HW288042   3.897   9.793  10.527 -2.0815  0.8763  0.8761
28182SOL     OW88043   9.732   9.251  10.215 -0.0588  0.2898  0.2592
28182SOL    HW188044   9.690   9.217  10.294 -2.6321  1.1428 -0.6463
28182SOL    HW288045   9.735   9.346  10.228 -0.9304  0.4764 -0.8477
28183SOL     OW88046   7.149   2.137   3.728  0.1216  0.1694 -0.2665
28183SOL    HW188047   7.083   2.182   3.675  2.0407  1.0793 -2.0443
28183SOL    HW288048   7.141   2.045   3.704 -1.2093  0.0910  0.4006
28184SOL     OW88049   3.100   5.961   5.532  0.1621  0.0047 -0.4207
28184SOL    HW188050   3.186   6.002   5.522  0.5705 -0.8650 -0.5059
28184SOL    HW288051   3.044   6.008   5.470 -0.0456  2.2113  1.3015
28185SOL     OW88052   7.820   5.369  10.178 -0.1683  0.3698  0.5609
28185SOL    HW188053   7.827   5.280  10.144 -0.1008  1.0564 -1.3722
28185SOL    HW288054   7.736   5.401  10.147  0.2398  1.3048  0.3663
28186SOL     OW88055   9.065   4.623   3.151 -0.1868  0.5667  0.4129
28186SOL    HW188056   9.149   4.643   3.108 -0.4692 -0.6248 -0.7537
28186SOL    HW288057   9.080   4.542   3.198 -0.8661 -0.0789 -0.4367
28187SOL     OW88058   6.660   5.915   8.956  0.1574 -0.8584  0.0051
28187SOL    HW188059   6.636   5.983   8.893 -1.4811 -0.5128  0.9348
28187SOL    HW288060   6.756   5.907   8.949  0.2255  0.6323 -1.0288
28188SOL     OW88061   7.180  10.871   6.781  0.2350  0.7315  0.0527
28188SOL    HW188062   7.207  10.805   6.717 -0.8256  2.4839 -2.3795
28188SOL    HW288063   7.236  10.946   6.764  0.3203  1.0622  1.6345
28189SOL     OW88064   6.054   1.914   6.548 -0.2318 -0.3254  0.3012
28189SOL    HW188065   5.968   1.956   6.541 -0.1293 -0.0715  0.5531
28189SOL    HW288066   6.045   1.854   6.622  0.2430  0.7699  1.2760
28190SOL     OW88067   3.254   6.272   8.549 -0.0787  0.4707  0.3072
28190SOL    HW188068   3.346   6.297   8.547 -0.4198  1.8640 -2.7968
28190SOL    HW288069   3.220   6.298   8.464 -3.4246  0.2197  1.4259
28191SOL     OW88070   5.774   5.218   6.579 -0.0279 -0.0713 -0.1629
28191SOL    HW188071   5.741   5.152   6.517 -1.5627 -1.8953  2.3630
28191SOL    HW288072   5.757   5.302   6.536  0.1562 -1.2214 -2.6936
28192SOL     OW88073   9.494   2.992   6.146 -0.7246  0.0266  0.7753
28192SOL    HW188074   9.532   2.943   6.219  2.4316 -0.1687 -0.8171
28192SOL    HW288075   9.509   2.937   6.069 -2.3917  0.9681 -0.2831
28193SOL     OW88076   2.877   7.299   6.443  0.3589 -0.1459  0.1490
28193SOL    HW188077   2.846   7.326   6.530 -0.7521 -0.2566 -0.2012
28193SOL    HW288078   2.831   7.357   6.382  2.2317  0.9388 -0.3241
28194SOL     OW88079  10.382   4.878   4.525  0.5505  0.2270  0.3177
28194SOL    HW188080  10.314   4.827   4.568 -0.3783  1.7872  0.7824
28194SOL    HW288081  10.427   4.815   4.468 -0.3919 -1.1265  1.0141
28195SOL     OW88082   8.982   2.522   5.283 -0.3640 -0.4269  0.0052
28195SOL    HW188083   9.043   2.458   5.318  0.9038 -0.5020 -2.1587
28195SOL    HW288084   8.901   2.472   5.268 -0.0818 -0.9872  0.3287
28196SOL     OW88085  10.607   5.286   6.577 -0.0424 -0.0300  0.5308
28196SOL    HW188086  10.653   5.363   6.543 -0.1266 -0.2331 -0.0682
28196SOL    HW288087  10.547   5.321   6.643 -1.6614  0.7392 -1.2497
28197SOL     OW88088  10.771   1.668   0.747  0.2606 -0.0702 -0.5621
28197SOL    HW188089  10.779   1.579   0.782  1.1571  0.5304  0.8324
28197SOL    HW288090  10.680   1.692   0.765 -0.1022 -0.8290 -1.3052
28198SOL     OW88091   3.455   2.004   8.135  0.7272 -0.1696  0.0013
28198SOL    HW188092   3.409   1.982   8.054 -1.0315 -1.5639  1.3123
28198SOL    HW288093   3.505   2.083   8.113 -0.8533  0.3500 -2.0201
28199SOL     OW88094   3.838   2.026  10.890  0.3725 -0.5745 -0.5357
28199SOL    HW188095   3.815   2.084  10.818  0.1822  0.8410  0.6325
28199SOL    HW288096   3.775   2.046  10.959  0.8812 -1.5139  0.2299
28200SOL     OW88097   4.404   7.167   5.030  0.1815 -0.2700 -0.2113
28200SOL    HW188098   4.493   7.197   5.052  0.7757 -1.5189 -0.7831
28200SOL    HW288099   4.355   7.247   5.015  0.5781  0.5501  2.4057
28201SOL     OW88100   0.279   9.957   4.487 -0.4143  0.5971 -0.4417
28201SOL    HW188101   0.201   9.934   4.538 -1.8414  1.5411 -2.0673
28201SOL    HW288102   0.299   9.878   4.437 -0.3259  0.3651 -0.0505
28202SOL     OW88103   5.133   0.748   5.057 -0.4745 -0.4107 -0.2668
28202SOL    HW188104   5.148   0.734   4.964  0.4852  1.4078 -0.4516
28202SOL    HW288105   5.143   0.662   5.097  0.8009 -0.9506 -1.6555
28203SOL     OW88106   2.300   8.828   1.862  0.2948  0.2770 -0.2030
28203SOL    HW188107   2.266   8.910   1.826  0.9364  0.6990  0.1382
28203SOL    HW288108   2.270   8.760   1.800 -0.5251  0.7183 -0.3049
28204SOL     OW88109   8.453   1.969   5.179 -0.4334  0.4078 -0.0865
28204SOL    HW188110   8.467   1.894   5.236 -1.0370  0.3969  0.0613
28204SOL    HW288111   8.373   1.947   5.130  0.1493  0.3595 -1.0363
28205SOL     OW88112   3.783   6.928   1.567 -0.0335  0.0705 -0.1630
28205SOL    HW188113   3.787   6.983   1.489  1.6523  1.1243  0.6033
28205SOL    HW288114   3.838   6.853   1.547 -0.7847 -0.4083 -0.4958
28206SOL     OW88115   9.730   2.999   0.788 -0.1294  0.0748 -0.0567
28206SOL    HW188116   9.650   2.999   0.736  0.1949  1.1612 -0.5902
28206SOL    HW288117   9.730   3.083   0.833 -1.0677 -1.3307  2.8568
28207SOL     OW88118  10.754   1.213   8.451 -0.0743 -0.3002 -0.3653
28207SOL    HW188119  10.768   1.121   8.473  0.6727  0.0875  0.8856
28207SOL    HW288120  10.793   1.261   8.524  0.2194  1.0301 -1.3655
28208SOL     OW88121   5.506   7.263   0.599  0.4763 -0.2093 -0.1447
28208SOL    HW188122   5.580   7.293   0.547  0.4176  1.3185  0.5863
28208SOL    HW288123   5.471   7.343   0.640 -0.2265 -1.1769  1.2503
28209SOL     OW88124  10.045  10.675   3.036  0.3195 -0.2144  0.4014
28209SOL    HW188125  10.123  10.672   2.980  1.4291  1.7108  1.7292
28209SOL    HW288126  10.041  10.588   3.076  1.0784 -0.7359 -0.6159
28210SOL     OW88127   6.597   9.970   5.193 -0.5578 -0.2095  0.2470
28210SOL    HW188128   6.533   9.926   5.249 -1.7666 -0.5676 -1.3169
28210SOL    HW288129   6.632   9.900   5.138 -0.2702  0.3160 -0.2489
28211SOL     OW88130  10.784   8.515   8.541  0.1144  0.0891  0.0129
28211SOL    HW188131  10.803   8.547   8.453 -1.1003 -1.2865 -0.7968
28211SOL    HW288132  10.710   8.567   8.571  0.9275  0.9974  0.5226
28212SOL     OW88133   2.722   6.995   4.327  0.1074 -0.3281 -0.2135
28212SOL    HW188134   2.782   6.974   4.398 -0.1902  0.8142  0.3902
28212SOL    HW288135   2.726   7.090   4.319  0.8162 -0.4778 -2.3305
28213SOL     OW88136   3.544   1.695   5.272 -0.3818 -0.2342 -0.1177
28213SOL    HW188137   3.582   1.775   5.235 -1.0951  0.0886 -0.1756
28213SOL    HW288138   3.565   1.627   5.208  2.3633 -0.6253  1.0771
28214SOL     OW88139   2.215  10.283   7.078  0.7862  0.0308  0.2060
28214SOL    HW188140   2.278  10.309   7.011  1.8247  1.2762  1.5809
28214SOL    HW288141   2.228  10.347   7.148 -1.9109  0.2175  0.6291
28215SOL     OW88142  10.685   5.655   2.641 -0.2718  0.4434  0.1476
28215SOL    HW188143  10.649   5.662   2.553 -2.1237  0.3682  0.8397
28215SOL    HW288144  10.611   5.675   2.699  0.5016 -0.8962  1.7100
28216SOL     OW88145   2.339   5.627   6.766  0.0278  0.0212 -0.0786
28216SOL    HW188146   2.399   5.701   6.780  0.4435 -0.6987  2.3891
28216SOL    HW288147   2.393   5.560   6.724  0.9403 -0.4859  1.7931
28217SOL     OW88148   6.360   2.652   9.196 -0.7223 -0.7408 -0.4393
28217SOL    HW188149   6.421   2.585   9.228  0.0147  0.6354  1.1878
28217SOL    HW288150   6.354   2.635   9.102 -0.3647 -2.9105 -0.1256
28218SOL     OW88151   0.107   9.084   3.524  0.4148  0.0935 -0.4706
28218SOL    HW188152   0.183   9.119   3.478 -1.0247  2.4486 -1.2220
28218SOL    HW288153   0.067   9.160   3.565 -1.5286 -1.0783 -0.0940
28219SOL     OW88154  10.035   9.606   7.517  0.6021 -0.8536  0.4374
28219SOL    HW188155  10.002   9.517   7.506 -3.7953  0.7129 -1.1957
28219SOL    HW288156   9.994   9.637   7.598 -0.7219  0.6799 -0.7722
28220SOL     OW88157   8.840   6.884   7.823 -0.0804 -0.0871  0.1134
28220SOL    HW188158   8.777   6.910   7.890 -1.5578  1.4531 -1.7277
28220SOL    HW288159   8.902   6.827   7.868 -0.3888  1.6580  2.9937
28221SOL     OW88160   4.488   2.195   9.199 -0.6267  0.0131  0.2318
28221SOL    HW188161   4.445   2.188   9.113 -0.3962  2.3742 -0.1461
28221SOL    HW288162   4.466   2.283   9.230 -0.3738 -0.6400  2.4479
28222SOL     OW88163   1.283   9.664   6.326 -0.2096  0.2694 -0.0680
28222SOL    HW188164   1.335   9.734   6.366  1.0614 -0.7692  0.1934
28222SOL    HW288165   1.282   9.595   6.393 -0.4710 -0.3946 -0.7492
28223SOL     OW88166   4.475   1.169  10.152  0.4926 -0.3512 -0.5027
28223SOL    HW188167   4.569   1.151  10.148  0.6051 -0.2887  1.0688
28223SOL    HW288168   4.467   1.261  10.130  0.8916 -0.1659  0.1035
28224SOL     OW88169   3.067   7.787   6.671  0.2746 -0.8681 -0.1595
28224SOL    HW188170   3.121   7.864   6.653 -0.1340 -0.7830 -1.0495
28224SOL    HW288171   3.091   7.725   6.602 -1.0102 -0.7032 -0.7706
28225SOL     OW88172   9.855   2.436   5.969 -0.1465 -0.0543  1.2310
28225SOL    HW188173   9.829   2.526   5.991 -0.8478  0.3079 -0.8152
28225SOL    HW288174   9.775   2.395   5.939  0.2971 -1.1879  1.5637
28226SOL     OW88175   8.070   1.379   4.787  0.5943 -0.0031 -0.0305
28226SOL    HW188176   8.099   1.390   4.878 -0.3027 -1.8992  0.5400
28226SOL    HW288177   8.010   1.453   4.772  0.8942  0.4401  0.8446
28227SOL     OW88178   6.448   2.066   3.733 -0.2235  0.0392 -0.3721
28227SOL    HW188179   6.405   2.150   3.719  0.0583  0.3094  0.3422
28227SOL    HW288180   6.542   2.087   3.734 -0.1638 -0.2551  0.0180
28228SOL     OW88181   7.749   7.797   6.865  0.2365  0.2215 -0.3431
28228SOL    HW188182   7.756   7.736   6.938  1.5147 -1.0883 -1.4906
28228SOL    HW288183   7.735   7.883   6.906  0.7761 -0.4942  1.4177
28229SOL     OW88184   1.853   8.032   6.534 -0.0755  0.4530  0.4205
28229SOL    HW188185   1.942   8.038   6.499 -0.2945 -0.6551 -0.3858
28229SOL    HW288186   1.864   7.996   6.622  0.3037  0.8702  0.5499
28230SOL     OW88187   8.427   5.203   7.525 -0.2557  0.0150 -0.3587
28230SOL    HW188188   8.459   5.273   7.469  0.5306  0.4348  0.5884
28230SOL    HW288189   8.437   5.124   7.472  0.0553  0.4496 -0.9645
28231SOL     OW88190   1.851   3.251   0.216 -0.2844 -0.0034  0.1223
28231SOL    HW188191   1.794   3.328   0.218 -0.8478 -0.4206  0.2030
28231SOL    HW288192   1.798   3.183   0.175 -0.9380 -1.2536  2.8065
28232SOL     OW88193   7.634   2.709   5.282  0.4317  0.1585  0.7227
28232SOL    HW188194   7.690   2.643   5.322  1.2616  0.6406  0.3834
28232SOL    HW288195   7.662   2.713   5.191 -0.8121 -0.2713  0.2943
28233SOL     OW88196   9.415   2.343   8.501 -0.3379  0.4949  0.0292
28233SOL    HW188197   9.334   2.298   8.524  0.7317 -0.7622  1.4963
28233SOL    HW288198   9.441   2.389   8.581  1.9540 -1.6120  0.6045
28234SOL     OW88199   0.293   4.304  10.487 -0.6007  0.5780  0.2141
28234SOL    HW188200   0.388   4.306  10.495 -0.5000  2.1808 -0.8551
28234SOL    HW288201   0.261   4.325  10.574 -0.0925 -2.7149  1.3164
28235SOL     OW88202   0.430   0.096   2.701 -0.4801  0.3362  0.2906
28235SOL    HW188203   0.418   0.025   2.764  1.5922  0.5076  0.9513
28235SOL    HW288204   0.519   0.084   2.667 -0.4339  2.0415 -0.3072
28236SOL     OW88205   6.001   8.885   6.145  0.2978  0.6995 -0.3860
28236SOL    HW188206   6.046   8.885   6.229 -1.1210 -1.2530  0.4475
28236SOL    HW288207   6.028   8.802   6.104 -0.8535  0.5086 -0.7841
28237SOL     OW88208   4.619   4.662  10.347  0.2746  0.4411 -0.1574
28237SOL    HW188209   4.636   4.572  10.374  0.8460  1.0406  1.6498
28237SOL    HW288210   4.670   4.673  10.267  3.2728  0.1939  1.5647
28238SOL     OW88211   1.137   0.975   6.386 -0.1853 -0.1373 -0.2379
28238SOL    HW188212   1.091   0.893   6.366 -0.1750 -0.9961  2.7532
28238SOL    HW288213   1.076   1.022   6.443  1.3942  0.0306  1.3929
28239SOL     OW88214  10.375   0.797   2.304  0.5682 -0.4519 -0.5373
28239SOL    HW188215  10.377   0.810   2.209  0.6359 -1.6932 -0.7290
28239SOL    HW288216  10.284   0.774   2.322  0.5326 -0.1104 -0.2816
28240SOL     OW88217   6.949   4.525   2.566  0.3089  0.1314  0.6771
28240SOL    HW188218   7.034   4.529   2.522 -0.2653  0.6799 -0.4222
28240SOL    HW288219   6.895   4.471   2.509 -0.5405  1.0842  0.5535
28241SOL     OW88220   6.475   8.623   2.046  0.1527 -0.6881  0.4308
28241SOL    HW188221   6.404   8.565   2.074  0.6516 -0.7051  1.7416
28241SOL    HW288222   6.527   8.637   2.125  1.0159  0.1741 -0.2624
28242SOL     OW88223   4.898   2.358   4.119 -0.6484 -0.5105 -0.9805
28242SOL    HW188224   4.917   2.335   4.028  0.1221 -0.0847 -0.9351
28242SOL    HW288225   4.847   2.439   4.112  0.3112  0.1012 -1.0081
28243SOL     OW88226   0.102   4.210   1.751 -0.1066 -0.0687 -0.5764
28243SOL    HW188227   0.135   4.295   1.779  0.7959 -0.0724 -1.5697
28243SOL    HW288228   0.058   4.227   1.668 -1.4531 -0.2965  0.0713
28244SOL     OW88229   1.088   3.421   6.753  0.4034  0.7429  0.5111
28244SOL    HW188230   1.019   3.410   6.819 -0.1639  3.0926  0.3895
28244SOL    HW288231   1.119   3.511   6.766  2.5436  0.1886 -0.3297
28245SOL     OW88232   2.619   6.007   1.413 -0.0513  0.0760  0.1762
28245SOL    HW188233   2.640   5.930   1.466  0.4235  0.0813  0.0007
28245SOL    HW288234   2.533   5.987   1.375 -0.1501 -0.1557  0.5187
28246SOL     OW88235   6.707   2.748   5.280 -0.5233 -0.3327 -0.4495
28246SOL    HW188236   6.708   2.700   5.197  0.1932 -0.4675 -0.3678
28246SOL    HW288237   6.620   2.733   5.316 -0.0525 -2.2624 -0.0275
28247SOL     OW88238   4.604   7.941  10.187  0.5002  0.4013 -0.6740
28247SOL    HW188239   4.601   8.036  10.180  0.9066  0.4170 -0.6787
28247SOL    HW288240   4.594   7.909  10.097  2.3305  0.5075 -0.9655
28248SOL     OW88241  10.890   2.611   3.830  0.0596 -0.6570  0.1128
28248SOL    HW188242  10.802   2.626   3.865 -0.2188 -0.4333 -0.6621
28248SOL    HW288243  10.928   2.544   3.887  0.0339  0.4730  1.5006
28249SOL     OW88244   0.602   2.915   0.214  0.5517  0.3303 -0.1216
28249SOL    HW188245   0.610   2.830   0.256 -0.2397  0.7680  0.9574
28249SOL    HW288246   0.652   2.974   0.270  0.3642  0.7271 -0.3700
28250SOL     OW88247   6.686   4.172   9.059 -0.1730 -0.2526 -0.2648
28250SOL    HW188248   6.763   4.116   9.061 -1.3345 -1.8878  0.7631
28250SOL    HW288249   6.660   4.179   9.151 -0.1175  1.9596 -0.3613
28251SOL     OW88250  10.313   5.582  10.662 -0.3508  0.1376 -0.1169
28251SOL    HW188251  10.323   5.568  10.756 -1.6397  0.9725  0.1737
28251SOL    HW288252  10.347   5.670  10.647  0.4550 -0.2407 -0.5563
28252SOL     OW88253   6.925   4.857   4.383  0.3001  0.2602 -0.5667
28252SOL    HW188254   6.982   4.883   4.310  0.7860  1.1834  0.1229
28252SOL    HW288255   6.864   4.931   4.392 -0.1008 -0.0941 -0.3828
28253SOL     OW88256   8.635   5.129   6.397 -0.2288  0.5870  0.0146
28253SOL    HW188257   8.671   5.093   6.478  0.2228  0.4323 -0.2519
28253SOL    HW288258   8.711   5.142   6.340 -0.6280 -0.0936 -0.6927
28254SOL     OW88259   2.627   6.853   1.547  0.4115 -0.3063  0.6764
28254SOL    HW188260   2.644   6.925   1.607 -0.6161  0.3212  0.2440
28254SOL    HW288261   2.688   6.784   1.574  5.4857  2.4313 -2.2455
28255SOL     OW88262   1.361  10.287   8.123 -0.1531  0.3507 -0.8229
28255SOL    HW188263   1.291  10.264   8.062 -0.2938 -1.3267 -0.0728
28255SOL    HW288264   1.316  10.325   8.198  0.0306  2.5742 -1.7430
28256SOL     OW88265   3.870   2.842   2.928  0.3451 -0.3563  0.1534
28256SOL    HW188266   3.848   2.805   2.842  2.2153 -0.6464 -0.2616
28256SOL    HW288267   3.914   2.924   2.908 -0.4495  0.2706  0.9207
28257SOL     OW88268   6.231   1.551   1.510 -0.1742  0.0140 -0.5396
28257SOL    HW188269   6.162   1.486   1.524 -0.3450  0.4304  0.6678
28257SOL    HW288270   6.257   1.578   1.598  1.2200  0.2000 -0.9750
28258SOL     OW88271   2.800   5.901   3.780 -0.0077  0.0446  0.0996
28258SOL    HW188272   2.773   5.986   3.815 -0.3515  0.0131 -0.0910
28258SOL    HW288273   2.867   5.870   3.841  1.5986  1.3624 -0.8992
28259SOL     OW88274   3.172  10.496   7.480 -0.2109  0.1711 -0.0539
28259SOL    HW188275   3.223  10.498   7.398  0.5486 -3.7245  0.1503
28259SOL    HW288276   3.221  10.553   7.539  1.1158  0.4299 -1.3228
28260SOL     OW88277   8.860   3.715   4.750  0.2825 -0.7080  0.3035
28260SOL    HW188278   8.930   3.656   4.777  1.9858  2.2466  3.0201
28260SOL    HW288279   8.803   3.723   4.827 -0.7844  0.0315 -0.5161
28261SOL     OW88280   3.017   1.647   4.987  0.4204  0.0461  0.6098
28261SOL    HW188281   3.034   1.605   4.903 -0.6641 -0.9914  0.8745
28261SOL    HW288282   3.099   1.690   5.010  0.1344  2.1658 -1.9531
28262SOL     OW88283   8.904   1.947   0.023  0.3141 -0.1662 -0.2804
28262SOL    HW188284   8.839   2.006   0.061  0.0406 -0.4618 -0.2887
28262SOL    HW288285   8.951   1.911   0.097  0.1171 -0.3570 -0.2481
28263SOL     OW88286   7.986   9.421   3.008 -0.4852  0.1284 -0.4367
28263SOL    HW188287   7.924   9.491   2.993 -1.7748  0.1056  3.7969
28263SOL    HW288288   8.039   9.450   3.082  0.7983 -2.2187 -0.3298
28264SOL     OW88289   5.331   1.911   2.157 -0.6084  0.1057 -0.2122
28264SOL    HW188290   5.421   1.899   2.187 -1.0431 -1.0854  0.7041
28264SOL    HW288291   5.330   1.877   2.067  0.0079  0.8127 -0.4940
28265SOL     OW88292   2.129  10.194   7.584 -0.1632  0.3786  0.2999
28265SOL    HW188293   2.122  10.287   7.560 -1.5710 -0.4644 -3.1266
28265SOL    HW288294   2.184  10.156   7.515 -0.1874 -1.4688  1.2659
28266SOL     OW88295   2.574   7.618   1.498  0.2966  0.5732 -0.0569
28266SOL    HW188296   2.498   7.671   1.522  0.2319 -0.1140  1.3132
28266SOL    HW288297   2.541   7.556   1.432 -0.3498  0.2442  0.5731
28267SOL     OW88298   4.042  10.095   6.358  0.2396  0.7881 -0.1475
28267SOL    HW188299   4.082  10.097   6.445  2.7195 -0.9457 -1.1253
28267SOL    HW288300   3.997  10.011   6.355  1.6035  0.0440 -1.0375
28268SOL     OW88301   6.644   4.435   7.741  0.3455  0.1799 -0.0809
28268SOL    HW188302   6.686   4.495   7.679  1.4514 -0.0766  0.3928
28268SOL    HW288303   6.698   4.356   7.738  0.1887  0.0248  0.9249
28269SOL     OW88304   5.512   1.967   4.090  0.3841  0.2798  0.2198
28269SOL    HW188305   5.458   1.905   4.139  1.5828 -0.3361  0.8116
28269SOL    HW288306   5.479   2.053   4.114  0.2349 -0.0544  1.2442
28270SOL     OW88307   8.541   3.473   8.426  0.1468  0.2453  0.2703
28270SOL    HW188308   8.597   3.423   8.484  2.2706  1.8724 -0.2623
28270SOL    HW288309   8.571   3.563   8.434 -1.2237  0.9237 -1.3995
28271SOL     OW88310   7.149   8.563   7.223 -0.6184  0.2218 -0.5267
28271SOL    HW188311   7.190   8.619   7.288  0.7883 -0.6379 -0.6395
28271SOL    HW288312   7.152   8.613   7.141 -0.0859  0.2978 -0.4619
28272SOL     OW88313   4.558   2.103   0.795 -0.1360 -0.7896 -0.1494
28272SOL    HW188314   4.626   2.037   0.811  0.5675 -0.6704 -2.2826
28272SOL    HW288315   4.600   2.187   0.813  0.4008 -0.7043 -1.6432
28273SOL     OW88316   5.686  10.156   6.978 -0.3363  0.2171 -0.2584
28273SOL    HW188317   5.779  10.142   6.961 -0.0316 -1.0749  2.0757
28273SOL    HW288318   5.643  10.078   6.942 -0.0870 -0.7934  1.5106
28274SOL     OW88319   3.668   3.365   1.325  0.3999  0.2657  0.3108
28274SOL    HW188320   3.738   3.430   1.320 -1.2925  2.2334  0.6492
28274SOL    HW288321   3.679   3.323   1.410 -0.9348  3.2202  2.0845
28275SOL     OW88322   8.496   4.604   7.532  0.0330 -0.2368 -0.0993
28275SOL    HW188323   8.550   4.608   7.453  0.7151  2.2620  0.3980
28275SOL    HW288324   8.554   4.636   7.601 -1.3923  0.2691  0.8906
28276SOL     OW88325   0.510   6.381   5.751  0.0549 -0.1639  0.2313
28276SOL    HW188326   0.444   6.394   5.684 -0.3372 -1.6439  0.3046
28276SOL    HW288327   0.462   6.390   5.834  0.4191  1.0585  0.3290
28277SOL     OW88328   5.409   0.551   8.033 -0.2213 -0.1547 -0.2234
28277SOL    HW188329   5.399   0.633   7.984  0.2006  0.6046  0.9130
28277SOL    HW288330   5.498   0.521   8.012 -0.6057 -0.6982 -1.1572
28278SOL     OW88331   6.807   5.900   7.346  0.4055  0.1828  0.3457
28278SOL    HW188332   6.773   5.872   7.261 -1.3886  1.1297  0.7168
28278SOL    HW288333   6.892   5.857   7.352  0.3665 -0.3002 -1.7076
28279SOL     OW88334   8.738   5.662   8.222  0.2735 -0.0917  0.2697
28279SOL    HW188335   8.812   5.646   8.163 -1.3118  0.6977 -2.0749
28279SOL    HW288336   8.740   5.589   8.284  2.1381 -0.8693 -0.6391
28280SOL     OW88337   8.635   0.896   9.149  0.3152 -0.2179 -0.6400
28280SOL    HW188338   8.571   0.965   9.133 -0.4707 -0.5886  0.7291
28280SOL    HW288339   8.637   0.888   9.244  3.3831  0.6954 -0.5113
28281SOL     OW88340   4.057  10.498   2.074  0.0117  0.5064 -0.2248
28281SOL    HW188341   4.121  10.524   2.139 -1.9138 -0.3810  2.1869
28281SOL    HW288342   4.092  10.417   2.035  1.1162  0.9754 -0.2378
28282SOL     OW88343   1.908   5.334   1.567  0.3462 -0.1557  0.4036
28282SOL    HW188344   1.890   5.332   1.473 -0.0191 -0.3181  0.4754
28282SOL    HW288345   1.982   5.394   1.576  0.4458 -0.2123  0.0022
28283SOL     OW88346   2.851   4.337   4.813 -0.7976  0.3851  0.3448
28283SOL    HW188347   2.921   4.293   4.764 -0.8822  0.9526 -0.2917
28283SOL    HW288348   2.789   4.366   4.746 -1.1541  0.7543  0.8259
28284SOL     OW88349   2.787   4.468   0.196  0.1592 -0.1886  0.0845
28284SOL    HW188350   2.764   4.409   0.124  0.0370 -2.0526  1.5716
28284SOL    HW288351   2.709   4.522   0.209  0.1548  0.1224 -1.0891
28285SOL     OW88352  10.866   2.688   4.738 -0.5542  0.0734 -0.2075
28285SOL    HW188353  10.810   2.612   4.721 -3.0712  1.9239 -0.8236
28285SOL    HW288354  10.909   2.705   4.654  2.4715 -2.3310  0.6597
28286SOL     OW88355   3.792   3.872   7.700  0.7135 -0.1733  0.0088
28286SOL    HW188356   3.729   3.945   7.708  0.9249 -0.0690  0.7465
28286SOL    HW288357   3.742   3.803   7.656  0.5622  0.4726 -0.8689
28287SOL     OW88358   6.309   7.508   3.744 -0.4535  0.3329  0.2151
28287SOL    HW188359   6.325   7.576   3.679 -0.2748 -0.4224 -0.5487
28287SOL    HW288360   6.396   7.477   3.769 -0.5644 -0.7740 -0.7044
28288SOL     OW88361   3.358   3.070   0.534  0.2646  0.4193  0.2583
28288SOL    HW188362   3.395   3.117   0.609 -0.2731  0.9365  0.2079
28288SOL    HW288363   3.417   2.995   0.521 -0.7147 -0.8638  2.4891
28289SOL     OW88364   1.361   9.211   9.411 -0.3780 -0.1467  0.1612
28289SOL    HW188365   1.424   9.273   9.376 -0.9444  0.4008  0.0901
28289SOL    HW288366   1.347   9.147   9.340 -1.9600  1.2792 -0.8854
28290SOL     OW88367   6.577   0.296   9.663  0.5877 -0.2415 -0.1552
28290SOL    HW188368   6.511   0.231   9.638 -0.6509  1.1230 -0.5743
28290SOL    HW288369   6.567   0.305   9.758  2.0805 -1.9911  0.2375
28291SOL     OW88370   3.768   1.364   6.492 -0.1533 -0.6808  0.3098
28291SOL    HW188371   3.855   1.333   6.467 -0.2378 -0.7504  0.0961
28291SOL    HW288372   3.726   1.288   6.532  0.2289 -0.3780  1.3124
28292SOL     OW88373   4.006   5.472   8.493 -0.3147 -0.0771 -0.7543
28292SOL    HW188374   3.935   5.536   8.486 -0.4036 -0.2232 -1.3011
28292SOL    HW288375   4.063   5.506   8.562 -1.6664 -0.6928  0.7377
28293SOL     OW88376   1.082   6.881   3.934 -0.5083  1.0201 -0.0075
28293SOL    HW188377   1.065   6.789   3.917 -0.6411  0.7228  1.5766
28293SOL    HW288378   1.150   6.905   3.870  1.0341 -0.7391  0.8602
28294SOL     OW88379   4.585  10.353   9.897  0.6252  0.2764  0.0027
28294SOL    HW188380   4.648  10.414   9.935  0.1229  1.2062 -0.6087
28294SOL    HW288381   4.589  10.276   9.953 -0.0893  1.5955  1.9617
28295SOL     OW88382   3.154   1.059   1.067  0.0269  0.5155  0.1493
28295SOL    HW188383   3.208   0.980   1.076  1.2107  1.4266  1.7827
28295SOL    HW288384   3.065   1.029   1.081  0.0678 -0.9755 -2.1912
28296SOL     OW88385   3.568   4.306   6.540  0.2942  0.0605  0.4790
28296SOL    HW188386   3.503   4.340   6.602  0.6177  0.4657  0.6006
28296SOL    HW288387   3.561   4.364   6.464  1.6312  1.1296  1.1299
28297SOL     OW88388   0.417   8.988   0.427 -0.2879 -0.6311 -0.2310
28297SOL    HW188389   0.410   9.065   0.370 -0.9910 -1.1409 -0.8504
28297SOL    HW288390   0.501   8.948   0.403  1.1788  1.1073  1.6212
28298SOL     OW88391   8.976   0.129   1.949  0.1347 -0.7186 -0.6283
28298SOL    HW188392   8.946   0.203   1.896  0.1835 -0.1221  0.1564
28298SOL    HW288393   8.995   0.167   2.035  0.6950 -1.5433 -0.3701
28299SOL     OW88394   6.723   8.419   5.970  0.9980 -0.2830  0.1221
28299SOL    HW188395   6.700   8.328   5.953  2.4747 -0.5816 -0.4304
28299SOL    HW288396   6.640   8.460   5.996 -0.0649 -1.3587 -1.3783
28300SOL     OW88397   6.482   9.880   7.323  0.0981  0.0812 -0.3804
28300SOL    HW188398   6.496   9.963   7.277  1.0208  0.2154  0.1176
28300SOL    HW288399   6.397   9.849   7.292  0.1361  0.7864 -1.2207
28301SOL     OW88400   3.538  10.647   3.895  0.3138 -0.0758  0.3765
28301SOL    HW188401   3.464  10.704   3.915  1.2060  1.8898 -1.4649
28301SOL    HW288402   3.615  10.695   3.926  1.1847  0.3495 -2.1974
28302SOL     OW88403   3.814   9.318   7.868  0.4498  0.3881  0.4196
28302SOL    HW188404   3.794   9.369   7.789 -1.9709 -1.8482 -0.5581
28302SOL    HW288405   3.766   9.363   7.938  0.8746  1.1836  0.2058
28303SOL     OW88406   3.115   0.547   6.248 -0.2887  0.0224 -0.0650
28303SOL    HW188407   3.156   0.626   6.285 -1.6608  0.3153  0.9133
28303SOL    HW288408   3.173   0.476   6.276 -0.9279  0.3064  2.2377
28304SOL     OW88409   8.265  10.900   1.438  0.2385 -0.1259  0.2579
28304SOL    HW188410   8.343  10.872   1.487  1.5396  0.7800 -1.2230
28304SOL    HW288411   8.299  10.940   1.358 -1.7590  0.3769 -0.4065
28305SOL     OW88412   1.983   2.471   1.722 -0.1297 -0.0695  0.3310
28305SOL    HW188413   1.981   2.422   1.640  1.1436 -0.1391  0.3265
28305SOL    HW288414   1.928   2.548   1.705 -0.2333 -0.3062 -0.4405
28306SOL     OW88415   8.814   7.567   3.542 -0.3470 -0.4769  0.5144
28306SOL    HW188416   8.881   7.626   3.509 -0.7635 -0.2405  0.0818
28306SOL    HW288417   8.837   7.553   3.634  1.0846 -1.4803  0.0463
28307SOL     OW88418   5.293   1.109   3.491 -0.0536 -0.1738 -0.0448
28307SOL    HW188419   5.253   1.197   3.489  0.1139 -0.0794  0.6500
28307SOL    HW288420   5.303   1.089   3.584  1.7539 -0.0918 -0.1936
28308SOL     OW88421   9.338   9.222   3.001 -0.5999  0.3307  0.9411
28308SOL    HW188422   9.371   9.217   2.911 -3.1452  2.0369 -0.2101
28308SOL    HW288423   9.361   9.311   3.030 -0.2879 -0.0135  1.7878
28309SOL     OW88424   4.414   2.700   8.275 -0.4800 -0.2076 -0.5084
28309SOL    HW188425   4.432   2.720   8.367 -1.8674 -2.2058  0.2744
28309SOL    HW288426   4.491   2.732   8.227  0.2860  0.8394  1.3445
28310SOL     OW88427   3.194   8.684   6.326 -0.4869 -0.3844  0.1434
28310SOL    HW188428   3.219   8.759   6.273 -0.3610 -1.1929 -0.9659
28310SOL    HW288429   3.192   8.718   6.416  0.5410  0.6879 -0.2164
28311SOL     OW88430   2.180   8.083   0.157 -0.1955  0.1125  0.2107
28311SOL    HW188431   2.273   8.064   0.148  0.0894 -0.4343  3.2086
28311SOL    HW288432   2.153   8.034   0.234 -3.2070 -0.3999 -1.0208
28312SOL     OW88433   2.449   4.869   3.869  0.6337  0.2227  0.5055
28312SOL    HW188434   2.466   4.817   3.947  0.7551 -1.5266 -0.6207
28312SOL    HW288435   2.493   4.821   3.798  0.5826  1.7813 -0.6279
28313SOL     OW88436   4.366   9.987   8.420 -0.4164  0.3088 -0.1202
28313SOL    HW188437   4.424  10.063   8.423 -0.2513  0.1625  1.7196
28313SOL    HW288438   4.424   9.915   8.396 -0.0781  0.3927  0.4017
28314SOL     OW88439   5.049   0.818   8.485 -0.2502 -0.1128  0.3541
28314SOL    HW188440   5.094   0.801   8.402  1.1393  0.4319  0.9758
28314SOL    HW288441   5.097   0.891   8.524 -1.0282 -0.2160  1.5415
28315SOL     OW88442   4.969   6.324   1.169 -0.0882 -0.5313 -0.3794
28315SOL    HW188443   4.970   6.386   1.241 -2.1189 -1.2707  0.3557
28315SOL    HW288444   4.941   6.241   1.209 -1.0055 -1.0294 -1.9373
28316SOL     OW88445   5.246   9.875   7.825 -0.4831  0.3810  0.3056
28316SOL    HW188446   5.169   9.892   7.771 -0.7297  0.8390  0.7919
28316SOL    HW288447   5.225   9.915   7.909 -0.0761 -0.2656  0.7236
28317SOL     OW88448   9.183   4.996   4.754 -0.1212  0.6592 -0.8289
28317SOL    HW188449   9.201   5.081   4.795 -0.7048  0.3835  0.0175
28317SOL    HW288450   9.099   4.968   4.791 -0.0332 -0.2012 -1.2473
28318SOL     OW88451   2.459   5.553   7.540  0.0079 -0.2228  0.2865
28318SOL    HW188452   2.510   5.601   7.604 -0.4076  0.3674  0.1800
28318SOL    HW288453   2.519   5.541   7.466  0.0111  0.4188  0.1816
28319SOL     OW88454  10.190   8.285   4.293 -0.0745  0.5795  0.7405
28319SOL    HW188455  10.232   8.290   4.207  0.3207 -2.8762  0.5727
28319SOL    HW288456  10.235   8.351   4.346  2.7846 -0.1372 -0.5766
28320SOL     OW88457   8.728   7.558   5.679  0.0807  0.4565 -0.1732
28320SOL    HW188458   8.772   7.581   5.597 -0.5751  0.4384 -0.5388
28320SOL    HW288459   8.762   7.472   5.702  0.8819  0.8193  0.0097
28321SOL     OW88460   9.701   6.800   1.916 -0.6323 -0.1391 -0.3286
28321SOL    HW188461   9.635   6.774   1.852 -1.4753 -0.7350  0.7472
28321SOL    HW288462   9.762   6.856   1.867 -1.5252 -0.1786 -1.5140
28322SOL     OW88463   5.334   8.066   9.293  0.1361 -0.0821 -0.2933
28322SOL    HW188464   5.358   8.113   9.373 -0.5989 -0.0633 -0.0692
28322SOL    HW288465   5.279   8.127   9.245  0.0257 -0.3374 -0.4932
28323SOL     OW88466   9.806  10.790   3.527  0.3048  0.1253 -0.3082
28323SOL    HW188467   9.779  10.789   3.619  0.6040  1.1398 -0.1988
28323SOL    HW288468   9.724  10.778   3.478  0.2360 -1.1676  0.0852
28324SOL     OW88469   9.973   4.854   0.983 -0.5642  0.2166 -0.3629
28324SOL    HW188470   9.971   4.942   1.022 -0.6453  0.5885 -1.1831
28324SOL    HW288471   9.948   4.796   1.055 -1.6582  0.9734 -0.0957
28325SOL     OW88472   0.913   7.254  10.730 -0.3410 -0.1147  0.2582
28325SOL    HW188473   0.919   7.323  10.796 -1.1098  0.3486 -0.1388
28325SOL    HW288474   0.892   7.175  10.780 -2.4183  0.5054  0.4687
28326SOL     OW88475   4.215   1.256   0.028 -0.2980 -0.4868  0.7149
28326SOL    HW188476   4.163   1.202   0.087  2.3628 -2.1168  1.7518
28326SOL    HW288477   4.257   1.321   0.085  0.1736 -0.3195  0.1894
28327SOL     OW88478   7.843   0.688   0.981 -0.0210 -0.0512 -0.0533
28327SOL    HW188479   7.777   0.755   0.963 -0.2233 -0.0435  0.7069
28327SOL    HW288480   7.835   0.670   1.074  1.4652  0.3997  0.1937
28328SOL     OW88481   4.774   1.115   8.657  0.1189 -0.5046 -0.1479
28328SOL    HW188482   4.846   1.121   8.719  0.3626 -0.3166 -0.4455
28328SOL    HW288483   4.807   1.156   8.577  0.6513 -2.7137 -1.1634
28329SOL     OW88484   2.800   6.392   2.815 -0.1539 -0.1476 -0.4537
28329SOL    HW188485   2.815   6.485   2.830 -2.1268  0.0604  0.4593
28329SOL    HW288486   2.723   6.388   2.760  1.0189 -1.2392 -2.1118
28330SOL     OW88487   9.833   8.813   6.026 -0.1454  0.2880 -0.2949
28330SOL    HW188488   9.886   8.849   5.954 -0.0075  0.7750  0.0458
28330SOL    HW288489   9.898   8.784   6.090 -0.2740 -0.0038 -0.2942
28331SOL     OW88490   6.104   7.569   2.653  0.1161 -0.1643  0.0270
28331SOL    HW188491   6.033   7.592   2.592 -0.0556  2.1636  1.0279
28331SOL    HW288492   6.070   7.592   2.739  0.7281 -2.5355  0.9974
28332SOL     OW88493   3.501   9.966   8.088 -0.4720  0.6437 -0.5014
28332SOL    HW188494   3.465   9.880   8.109 -1.9421  1.7296  1.7658
28332SOL    HW288495   3.552   9.951   8.008 -0.3037 -2.3935  0.0478
28333SOL     OW88496   4.261   1.605   0.925  0.6440 -0.6352  0.1642
28333SOL    HW188497   4.271   1.641   0.837  0.0116 -0.7606  0.0354
28333SOL    HW288498   4.295   1.515   0.918  1.6921 -0.2613  0.3469
28334SOL     OW88499   2.862   7.653   3.526 -0.5523 -0.0733  0.3389
28334SOL    HW188500   2.899   7.683   3.443  0.6506 -0.7864  0.5996
28334SOL    HW288501   2.873   7.728   3.585 -2.2227  0.7650 -0.3408
28335SOL     OW88502   4.189   9.429   2.701  0.0740  0.5804  0.3167
28335SOL    HW188503   4.168   9.522   2.713 -0.3787  0.5815 -0.4130
28335SOL    HW288504   4.241   9.426   2.621  0.2495  0.2276  0.4441
28336SOL     OW88505   8.731   8.538   4.881  0.1704 -0.0531  0.3403
28336SOL    HW188506   8.760   8.544   4.790  1.3806  0.3978  0.7321
28336SOL    HW288507   8.678   8.616   4.895 -1.8388 -1.1730 -0.5515
28337SOL     OW88508   6.863  10.737   5.003 -0.5853  0.3243  0.0914
28337SOL    HW188509   6.804  10.751   4.930 -0.8822  0.5687  0.3779
28337SOL    HW288510   6.844  10.808   5.064  1.5957  1.8155 -0.8190
28338SOL     OW88511   4.198   6.111   6.540 -0.2205 -0.2153 -0.1075
28338SOL    HW188512   4.196   6.046   6.610  0.9990 -0.4058 -0.2223
28338SOL    HW288513   4.276   6.163   6.559  0.5663 -0.7490 -1.7236
28339SOL     OW88514   1.628   5.057   3.905 -0.3958  0.2035  0.3636
28339SOL    HW188515   1.626   4.979   3.850 -1.0336  0.7439 -0.3973
28339SOL    HW288516   1.617   5.130   3.844  0.0729  0.8898  1.0735
28340SOL     OW88517   4.449   7.317   0.101 -0.3751  0.5178 -0.1929
28340SOL    HW188518   4.493   7.243   0.060 -0.8517  0.4331 -0.5574
28340SOL    HW288519   4.480   7.393   0.053 -0.7287  0.4439 -0.5462
28341SOL     OW88520   8.047  10.946   1.220  0.0670  0.3837 -0.0038
28341SOL    HW188521   7.961  10.987   1.209 -0.3694 -0.5878 -0.2925
28341SOL    HW288522   8.044  10.869   1.163  0.9830  0.1174  0.2977
28342SOL     OW88523   2.762   9.070   6.559 -0.3143  0.3473 -0.0144
28342SOL    HW188524   2.797   9.075   6.648 -2.1533 -0.2025  0.7845
28342SOL    HW288525   2.682   9.018   6.568 -0.4204  0.0989 -2.0339
28343SOL     OW88526   5.133   7.131   3.293  0.7206  0.6090 -0.4201
28343SOL    HW188527   5.055   7.156   3.343 -0.8189 -2.2301 -1.1732
28343SOL    HW288528   5.186   7.081   3.355 -0.2165 -1.1680 -0.9804
28344SOL     OW88529   2.272   4.124   6.539  0.2793 -0.6526 -0.9915
28344SOL    HW188530   2.313   4.209   6.525 -1.9072  0.6803  0.2249
28344SOL    HW288531   2.287   4.105   6.632 -1.0347 -0.5686 -0.7434
28345SOL     OW88532   9.940   3.886   6.725 -0.4497  0.1744 -0.1963
28345SOL    HW188533   9.922   3.980   6.722  1.5914  0.6102 -1.7550
28345SOL    HW288534   9.855   3.844   6.715 -1.2419  1.8853 -0.9529
28346SOL     OW88535   6.561   9.747   5.364  0.1141  0.2415  0.5967
28346SOL    HW188536   6.644   9.743   5.411  0.8980 -0.3449 -0.7755
28346SOL    HW288537   6.576   9.696   5.284 -0.7531  2.2190 -0.9175
28347SOL     OW88538   9.614   3.882   9.708 -0.2597  0.4515  0.6716
28347SOL    HW188539   9.633   3.823   9.781 -2.0619 -0.8524  0.1642
28347SOL    HW288540   9.669   3.850   9.636  0.1944  0.6157  0.9435
28348SOL     OW88541   2.451   8.382   2.314 -0.3339  0.8083 -0.7339
28348SOL    HW188542   2.477   8.363   2.224 -2.6828  0.3276 -1.3794
28348SOL    HW288543   2.425   8.298   2.351 -1.7953  1.3286 -0.4832
28349SOL     OW88544   0.603   6.699   6.831 -0.1046  0.6053  0.4283
28349SOL    HW188545   0.696   6.678   6.826  0.2043  1.3851  2.1192
28349SOL    HW288546   0.571   6.687   6.742  1.2474 -1.2931  0.1316
28350SOL     OW88547   2.928  10.650   4.317  0.2832 -0.5476 -0.8970
28350SOL    HW188548   3.001  10.696   4.277 -0.6088  0.4803 -1.3947
28350SOL    HW288549   2.851  10.678   4.267 -0.7232 -0.0864  0.8283
28351SOL     OW88550   2.256   8.586   4.306 -0.4564  0.2697 -0.2989
28351SOL    HW188551   2.284   8.637   4.381  1.5041 -0.8441 -0.2096
28351SOL    HW288552   2.211   8.648   4.249  1.5292  2.0194 -0.0443
28352SOL     OW88553   8.603   7.688   9.550 -0.0461  0.3078  0.2181
28352SOL    HW188554   8.631   7.763   9.602  0.1349  0.6481 -0.3679
28352SOL    HW288555   8.579   7.724   9.465  1.9936 -0.5263 -0.7636
28353SOL     OW88556   8.323  10.047   8.269 -0.0995  0.2339  0.0372
28353SOL    HW188557   8.268  10.090   8.203 -0.5227  0.6012  0.6201
28353SOL    HW288558   8.345   9.962   8.231  0.3223  0.7538 -0.9148
28354SOL     OW88559   5.525   1.268   0.903 -0.0370  0.3914  0.3130
28354SOL    HW188560   5.456   1.236   0.961 -1.0802  1.8443 -0.0725
28354SOL    HW288561   5.480   1.289   0.821  1.4333 -1.8127 -1.1612
28355SOL     OW88562   2.784  10.148   7.467  0.1758  0.1713 -0.4673
28355SOL    HW188563   2.794  10.083   7.398  2.6580 -0.9067  0.7579
28355SOL    HW288564   2.849  10.216   7.446 -0.0209  0.5332  0.0615
28356SOL     OW88565   2.929   2.133   1.209  0.6533  0.2473 -0.1639
28356SOL    HW188566   2.905   2.135   1.301 -3.0283  0.0697 -0.9817
28356SOL    HW288567   2.945   2.225   1.187  0.0808  0.4618  0.3079
28357SOL     OW88568   7.021   1.166   6.578  0.2098 -0.2142  0.0830
28357SOL    HW188569   6.967   1.128   6.647 -0.8306 -0.6722 -0.9628
28357SOL    HW288570   7.106   1.180   6.620 -0.2836 -0.8388  1.3477
28358SOL     OW88571   3.356   3.984   1.012  0.4051  0.6195 -0.3740
28358SOL    HW188572   3.267   3.995   0.978  0.7030 -0.1786 -1.5059
28358SOL    HW288573   3.405   3.946   0.938  1.2136 -0.7846  0.8284
28359SOL     OW88574   6.522   7.333   1.285  0.5470  0.4691 -0.6756
28359SOL    HW188575   6.534   7.318   1.191 -1.7699  0.8384 -1.0911
28359SOL    HW288576   6.427   7.337   1.297  0.7972  2.5669  1.3589
28360SOL     OW88577   6.985   1.093   0.467  0.1110  0.2976 -0.0280
28360SOL    HW188578   7.055   1.041   0.428  0.6122  0.5374  0.5344
28360SOL    HW288579   6.933   1.123   0.392  0.2269 -0.4185 -0.4022
28361SOL     OW88580   6.914   2.165   4.887 -0.1547  0.1998 -0.1688
28361SOL    HW188581   6.991   2.193   4.838  0.3100 -2.2740 -0.9865
28361SOL    HW288582   6.948   2.107   4.954 -1.1200  1.0162  1.0865
28362SOL     OW88583   5.916   7.652   5.410 -0.6661  0.1368  0.1549
28362SOL    HW188584   5.975   7.602   5.353  0.5444  0.2607  1.2476
28362SOL    HW288585   5.970   7.725   5.441  0.0522 -1.8338  4.3397
28363SOL     OW88586   5.837   0.045   1.423 -0.1041  0.4041  0.1830
28363SOL    HW188587   5.840   0.131   1.381 -1.0031  0.7608  0.8194
28363SOL    HW288588   5.846  -0.017   1.350 -1.3526  1.0139 -0.5186
28364SOL     OW88589   7.912   9.484   0.230 -0.0074 -0.1600  0.3205
28364SOL    HW188590   7.909   9.561   0.286 -0.3505 -0.6662  1.0037
28364SOL    HW288591   8.006   9.465   0.221  0.2116  1.4687 -1.4504
28365SOL     OW88592   4.823   8.961   7.292  0.2125  0.6748 -0.4248
28365SOL    HW188593   4.810   9.023   7.364  1.6103  0.5875 -0.0732
28365SOL    HW288594   4.780   8.881   7.322  1.3560  0.4274  0.6388
28366SOL     OW88595  11.005   6.543   1.317  0.1114 -0.0207 -0.4784
28366SOL    HW188596  10.977   6.579   1.401 -0.1211  1.4711 -1.1624
28366SOL    HW288597  11.089   6.501   1.336 -0.5208 -0.8043  0.7344
28367SOL     OW88598   3.390   7.324   8.948  0.1563 -0.0637 -0.0770
28367SOL    HW188599   3.474   7.278   8.952 -0.1901 -0.6173  1.4890
28367SOL    HW288600   3.326   7.256   8.928 -0.5571 -0.6783  3.6400
28368SOL     OW88601  10.058   2.711   7.233 -0.7512  0.5101 -0.1515
28368SOL    HW188602  10.022   2.720   7.145 -0.3871 -1.3019 -0.5375
28368SOL    HW288603   9.989   2.744   7.291 -1.1110  1.4438 -1.0906
28369SOL     OW88604   4.451   1.646   2.923  0.7938  0.4301  0.1992
28369SOL    HW188605   4.459   1.715   2.989 -1.1093  2.4967 -1.5866
28369SOL    HW288606   4.402   1.576   2.967  0.4258  1.3392  1.2690
28370SOL     OW88607   8.294   9.471   3.077 -0.5049 -0.2762 -0.0693
28370SOL    HW188608   8.356   9.401   3.056 -0.4573 -0.2199 -0.1207
28370SOL    HW288609   8.249   9.441   3.155 -0.3158 -0.2599  0.0487
28371SOL     OW88610   8.223  10.807   9.155  0.2119  0.3982  0.2621
28371SOL    HW188611   8.304  10.829   9.200  0.7288 -0.6090 -0.1381
28371SOL    HW288612   8.240  10.721   9.116 -0.2653  1.1200 -1.6761
28372SOL     OW88613   1.982   2.091  10.623 -0.1023 -0.5128  0.2620
28372SOL    HW188614   1.995   2.022  10.688  0.4210  0.9979  1.8339
28372SOL    HW288615   2.061   2.145  10.628 -0.4719  0.1897 -0.9548
28373SOL     OW88616   3.803  10.591   3.205  0.0776  0.2516  0.4068
28373SOL    HW188617   3.740  10.582   3.134  0.7186 -0.6746 -0.0641
28373SOL    HW288618   3.778  10.524   3.269  1.3911 -1.1148 -0.4347
28374SOL     OW88619   6.611   7.890   5.428 -0.1643  0.3203  1.0895
28374SOL    HW188620   6.576   7.860   5.344  1.4933  1.1837  0.0462
28374SOL    HW288621   6.554   7.849   5.493 -1.8624  0.0793 -0.4474
28375SOL     OW88622   1.260   6.139   0.142 -0.3283 -0.1275  0.3849
28375SOL    HW188623   1.341   6.107   0.180 -0.5024 -0.6691  0.3075
28375SOL    HW288624   1.212   6.060   0.118 -1.0784  0.1794  0.8456
28376SOL     OW88625   7.796  10.083   1.053 -0.3379 -0.4132 -0.2504
28376SOL    HW188626   7.756  10.163   1.088  0.6671 -0.3682  0.8705
28376SOL    HW288627   7.750  10.012   1.097 -0.8705 -0.4469 -0.8490
28377SOL     OW88628   5.475   4.307   3.774  0.0509 -0.6536  0.0587
28377SOL    HW188629   5.553   4.270   3.814 -0.6368 -1.3547  0.7759
28377SOL    HW288630   5.482   4.284   3.681  0.6607 -0.7618  0.1310
28378SOL     OW88631  10.364   1.656   2.487 -0.3360 -0.5184  0.3384
28378SOL    HW188632  10.286   1.623   2.444  0.1443  0.3253 -1.2433
28378SOL    HW288633  10.333   1.730   2.540 -0.6309 -0.2960 -0.1472
28379SOL     OW88634   5.689   4.216   8.617  0.3620  0.0958  0.0699
28379SOL    HW188635   5.684   4.185   8.527  0.8343  0.1046  0.0348
28379SOL    HW288636   5.726   4.141   8.665 -2.2636 -0.8553  0.7483
28380SOL     OW88637   9.296   3.954   2.465 -0.2471  0.0769 -0.3431
28380SOL    HW188638   9.334   3.870   2.493 -0.5158  0.2239  0.4813
28380SOL    HW288639   9.363   4.019   2.488  0.1590  0.0499 -1.4030
28381SOL     OW88640   0.096   6.349   8.272 -0.7513 -0.5219  0.2951
28381SOL    HW188641   0.021   6.386   8.319 -0.2899  1.1637 -0.2411
28381SOL    HW288642   0.075   6.361   8.180  0.3797  0.4713  0.1352
28382SOL     OW88643   6.492   1.871   2.211 -0.6187  0.0414 -0.0733
28382SOL    HW188644   6.465   1.929   2.282 -0.3968  0.2459 -0.1548
28382SOL    HW288645   6.563   1.918   2.167 -0.1701 -0.4585  0.1010
28383SOL     OW88646   4.519  10.196   1.482 -0.1884 -0.4459  0.2012
28383SOL    HW188647   4.446  10.254   1.461  0.1155 -0.2175 -0.2581
28383SOL    HW288648   4.565  10.185   1.399  0.4107 -0.4295  0.5273
28384SOL     OW88649   4.262   0.198   7.031 -0.0363  0.1856  0.2564
28384SOL    HW188650   4.298   0.259   6.967  0.9855 -0.0130  0.6185
28384SOL    HW288651   4.200   0.145   6.982 -0.5014  1.1251 -0.1870
28385SOL     OW88652   8.202   7.057   2.485 -0.3005  0.1076  0.6635
28385SOL    HW188653   8.265   7.050   2.556 -0.4387  1.5634  0.9794
28385SOL    HW288654   8.123   7.013   2.517 -0.3614  0.7506  1.4434
28386SOL     OW88655   4.647   0.130   0.401  0.1392  0.2533  0.6822
28386SOL    HW188656   4.588   0.147   0.327 -0.7609  0.2500  1.3735
28386SOL    HW288657   4.659   0.035   0.401  0.6242  0.3183  0.1763
28387SOL     OW88658   8.397   1.516   2.961  0.0504  0.5323 -0.0275
28387SOL    HW188659   8.463   1.535   3.028  0.8692  0.3551 -0.7652
28387SOL    HW288660   8.442   1.533   2.878 -0.8107  0.3240 -0.5480
28388SOL     OW88661   7.478  10.565   3.497  0.6963  0.6442  0.0940
28388SOL    HW188662   7.410  10.549   3.561  1.6178 -1.0288  0.7277
28388SOL    HW288663   7.560  10.542   3.542  1.5291  1.0420 -1.1457
28389SOL     OW88664   2.529   6.984   5.977  0.1995 -0.2347 -0.2351
28389SOL    HW188665   2.513   6.990   6.071 -1.5027 -2.5563 -0.2810
28389SOL    HW288666   2.455   7.027   5.937 -1.4951 -3.0583 -0.4243
28390SOL     OW88667   8.638  10.884   8.306 -0.1021  0.6449 -0.3351
28390SOL    HW188668   8.606  10.956   8.252  1.4442  1.1450 -0.6443
28390SOL    HW288669   8.627  10.806   8.252  0.3930  0.9888 -0.9539
28391SOL     OW88670   3.187   1.148   7.956 -0.3352  0.7104 -0.4660
28391SOL    HW188671   3.160   1.092   7.884  0.5329  0.0285 -0.2803
28391SOL    HW288672   3.241   1.092   8.012 -0.6232  1.3449  0.4812
28392SOL     OW88673   8.412   0.103   4.813  0.2262 -0.0496 -0.1680
28392SOL    HW188674   8.318   0.112   4.800  0.2728 -1.2584 -1.5109
28392SOL    HW288675   8.420   0.043   4.888 -0.0928 -0.9433 -0.8336
28393SOL     OW88676   0.531   6.689   5.483 -0.1934  0.3109 -0.7208
28393SOL    HW188677   0.436   6.695   5.481 -0.2459 -0.1074 -3.5010
28393SOL    HW288678   0.559   6.761   5.539 -2.1772 -1.6618  3.1249
28394SOL     OW88679   6.228   5.685   1.723  0.2681 -0.0619 -0.0318
28394SOL    HW188680   6.142   5.679   1.765 -0.0756 -0.0809 -0.7078
28394SOL    HW288681   6.237   5.602   1.675 -0.1416  0.6495 -1.4114
28395SOL     OW88682   4.429   0.156   8.592  0.0013  0.5511  0.0789
28395SOL    HW188683   4.401   0.248   8.594 -0.4411  0.4121  0.6252
28395SOL    HW288684   4.450   0.139   8.501 -2.2716  0.4968 -0.4948
28396SOL     OW88685   2.618   7.314   5.831  0.2181 -0.5189  0.2871
28396SOL    HW188686   2.695   7.371   5.840  1.4603 -1.9702 -0.7439
28396SOL    HW288687   2.586   7.304   5.920  0.3243  1.2701  0.5745
28397SOL     OW88688   4.676   1.581   8.715 -0.1443 -0.5126 -0.2352
28397SOL    HW188689   4.752   1.633   8.743 -0.3926 -1.7290  3.1816
28397SOL    HW288690   4.600   1.632   8.744 -0.4322 -1.7052  1.2270
28398SOL     OW88691   7.219   4.659   1.693 -0.2803 -0.5703 -0.0163
28398SOL    HW188692   7.305   4.668   1.733 -0.4080  0.1592  0.1151
28398SOL    HW288693   7.236   4.659   1.599 -0.2850  2.0711 -0.1053
28399SOL     OW88694   4.267   7.659   3.173  0.5756  0.1007 -0.0573
28399SOL    HW188695   4.345   7.702   3.208  0.5735  1.7331 -1.8828
28399SOL    HW288696   4.212   7.731   3.142 -0.8875 -1.0973 -0.3719
28400SOL     OW88697   9.751   1.737   2.603  0.3455  0.4143 -0.4028
28400SOL    HW188698   9.838   1.775   2.617  0.3165  0.8580 -1.4020
28400SOL    HW288699   9.765   1.666   2.541  0.2002 -0.4448  0.5090
28401SOL     OW88700   2.057   2.363   8.279  0.2612 -0.0326  0.5725
28401SOL    HW188701   2.138   2.333   8.321  0.3700 -1.5431 -0.6157
28401SOL    HW288702   2.053   2.457   8.299  1.0024 -0.4107  2.7218
28402SOL     OW88703   8.962   2.238   4.154  0.4455  0.5376  1.0022
28402SOL    HW188704   9.020   2.168   4.127 -0.4583  0.0770  0.1967
28402SOL    HW288705   8.931   2.277   4.072  0.3936  1.4312  1.4259
28403SOL     OW88706   3.109   0.180   3.976  0.3960 -0.7236 -0.3833
28403SOL    HW188707   3.074   0.092   3.985  1.4965 -1.1512 -0.1104
28403SOL    HW288708   3.135   0.187   3.884 -0.3449 -0.4147 -0.5798
28404SOL     OW88709   3.502   9.020   3.197  0.2242 -0.8446 -0.3217
28404SOL    HW188710   3.588   8.988   3.171  0.4839 -1.0374  0.7536
28404SOL    HW288711   3.514   9.114   3.213 -0.1034 -0.5644 -1.5573
28405SOL     OW88712   0.890   8.115   9.382  0.7852  0.1801 -0.1378
28405SOL    HW188713   0.983   8.138   9.388  1.2167 -0.4486 -2.7972
28405SOL    HW288714   0.879   8.043   9.445  1.7160  1.1897  1.2354
28406SOL     OW88715   9.200   9.060   6.926 -0.0208 -0.1037 -0.1340
28406SOL    HW188716   9.222   9.137   6.977  1.7372 -0.5489 -0.1726
28406SOL    HW288717   9.215   8.987   6.986  0.1322 -0.5194 -0.6727
28407SOL     OW88718  10.963   8.483   2.015 -0.0530  0.3217  0.7042
28407SOL    HW188719  10.907   8.523   2.082  0.7770 -2.4616  3.2768
28407SOL    HW288720  10.927   8.395   2.004  0.5671  0.3151 -1.7509
28408SOL     OW88721   9.407   0.384   2.118  0.0920 -0.3351  0.4622
28408SOL    HW188722   9.425   0.306   2.171 -0.4261 -0.2963  0.7041
28408SOL    HW288723   9.492   0.428   2.109  0.1748 -0.3176  1.2982
28409SOL     OW88724  10.782   8.417   9.657  0.2949 -0.1436  0.5506
28409SOL    HW188725  10.856   8.477   9.645 -0.0819  0.5412  1.5947
28409SOL    HW288726  10.733   8.424   9.575  2.0455 -1.6043 -0.7365
28410SOL     OW88727   7.624   2.523   0.004  0.5591 -0.1969  0.4038
28410SOL    HW188728   7.616   2.516  -0.091  1.4679 -1.2090  0.3855
28410SOL    HW288729   7.541   2.491   0.037  0.0647  0.5766 -0.0452
28411SOL     OW88730   3.168   0.506   0.382 -0.0710 -0.4486 -0.0113
28411SOL    HW188731   3.172   0.457   0.464 -0.9416  0.2374  0.4623
28411SOL    HW288732   3.207   0.448   0.317  0.9858 -0.8575  0.9524
28412SOL     OW88733   7.688   9.854   1.186  0.2482 -0.6191  0.2874
28412SOL    HW188734   7.702   9.762   1.210 -1.5679 -1.0956 -0.3297
28412SOL    HW288735   7.594   9.861   1.171  0.6224  0.7967 -1.8801
28413SOL     OW88736   6.554   7.243   9.271 -0.8208 -0.1531  0.2215
28413SOL    HW188737   6.570   7.294   9.351 -0.9430  0.0491  0.1195
28413SOL    HW288738   6.555   7.152   9.300 -1.1267 -0.0704  0.5020
28414SOL     OW88739   7.506  10.053   2.480  0.1138 -0.1951  0.4273
28414SOL    HW188740   7.583  10.100   2.446  0.4909 -1.7402 -0.9462
28414SOL    HW288741   7.432  10.110   2.457  0.6039  0.0155 -0.7317
28415SOL     OW88742   4.640   6.381   6.817 -0.3987  0.2203 -0.1837
28415SOL    HW188743   4.567   6.319   6.809 -0.3615 -0.0726  1.4088
28415SOL    HW288744   4.678   6.362   6.903 -1.0987  3.2313  0.9123
28416SOL     OW88745   5.871   5.566   7.858 -0.4016  0.1513  0.2664
28416SOL    HW188746   5.933   5.633   7.888  3.1697 -2.8168  0.3157
28416SOL    HW288747   5.871   5.575   7.763  0.4019  0.0012  0.2408
28417SOL     OW88748   8.134   2.503   7.432 -0.2214  0.1520 -0.2692
28417SOL    HW188749   8.079   2.463   7.365  0.9022 -0.7445 -0.6696
28417SOL    HW288750   8.075   2.513   7.508 -0.6537 -1.8686 -0.2916
28418SOL     OW88751   7.648   8.818   9.620 -0.4270 -0.5407 -0.9212
28418SOL    HW188752   7.697   8.821   9.538 -2.6805  1.1930 -2.3604
28418SOL    HW288753   7.607   8.905   9.626  0.2878 -0.3185  2.5019
28419SOL     OW88754  10.444   1.425   1.000  0.2759 -0.0168 -0.3837
28419SOL    HW188755  10.518   1.406   1.057  0.4549 -0.1730 -0.6685
28419SOL    HW288756  10.415   1.340   0.968 -0.5833 -0.0380  0.4172
28420SOL     OW88757   5.161   4.918   2.797 -0.6157 -0.1073  0.0047
28420SOL    HW188758   5.126   4.870   2.723 -2.4828 -0.4163  1.0381
28420SOL    HW288759   5.087   4.930   2.856  0.6838  0.6077  1.5840
28421SOL     OW88760   1.634   6.974   1.679  0.1755  0.0359  0.5844
28421SOL    HW188761   1.554   7.027   1.680  0.4639  0.4782  1.0867
28421SOL    HW288762   1.615   6.903   1.619 -0.5742  0.1758  0.6449
28422SOL     OW88763  10.466   7.523  10.138 -0.2905  0.1508  0.2960
28422SOL    HW188764  10.420   7.606  10.153 -0.6508  0.2292 -1.0960
28422SOL    HW288765  10.547   7.548  10.094 -0.1973 -0.2010  0.2658
28423SOL     OW88766   2.117   0.501   6.029 -0.1646  0.0025 -0.0381
28423SOL    HW188767   2.109   0.589   5.992 -0.5718 -0.1486 -0.3185
28423SOL    HW288768   2.100   0.443   5.955  0.2986 -0.3159  0.1010
28424SOL     OW88769   7.993   8.074   0.575 -0.6323 -0.0678  0.4431
28424SOL    HW188770   7.936   8.009   0.618  1.0913 -2.2173 -0.3123
28424SOL    HW288771   8.070   8.024   0.548 -0.1852  1.8487 -2.2369
28425SOL     OW88772  10.751   0.956   1.520 -0.4812 -0.6469  0.0448
28425SOL    HW188773  10.692   0.889   1.486 -0.3339 -0.2999 -0.9267
28425SOL    HW288774  10.838   0.928   1.490 -0.5082  0.3788 -1.0652
28426SOL     OW88775   5.933  10.461  10.960 -0.0077  0.2163 -0.2349
28426SOL    HW188776   5.990  10.432  10.888  0.5140 -0.3517  0.3914
28426SOL    HW288777   5.991  10.467  11.035 -0.6184  0.4785  0.2213
28427SOL     OW88778   6.187   5.799   0.283  0.4370 -0.2458  0.1425
28427SOL    HW188779   6.098   5.765   0.278 -0.6106  2.3572 -0.6884
28427SOL    HW288780   6.218   5.774   0.370 -1.9418  0.5957  1.3233
28428SOL     OW88781   9.230   1.305   2.797  0.0948  0.3926 -0.2996
28428SOL    HW188782   9.242   1.260   2.713 -0.3876  0.6060 -0.4818
28428SOL    HW288783   9.270   1.246   2.861 -1.5138 -0.8624 -0.3843
28429SOL     OW88784  10.277   6.441   9.531  0.2040  0.4293 -0.8858
28429SOL    HW188785  10.327   6.475   9.457 -0.7585  0.5246 -1.5086
28429SOL    HW288786  10.205   6.503   9.542 -0.7460 -0.6031 -1.0946
28430SOL     OW88787   3.394  10.788   7.220  0.7183  0.8420  0.0566
28430SOL    HW188788   3.307  10.756   7.243 -0.2607  2.7833 -0.7553
28430SOL    HW288789   3.427  10.726   7.155  1.5653 -2.0165  2.9296
28431SOL     OW88790   4.005   0.869   4.020  0.4784  0.0651  0.1789
28431SOL    HW188791   3.913   0.845   4.036  0.0988  2.0898  1.3774
28431SOL    HW288792   4.006   0.901   3.929  0.8409 -3.3692 -1.1787
28432SOL     OW88793   7.274   4.374   2.949 -0.9691 -1.1520  0.0868
28432SOL    HW188794   7.362   4.348   2.976 -0.7165 -1.0271 -0.5963
28432SOL    HW288795   7.276   4.470   2.946 -1.2640 -1.1285  0.5083
28433SOL     OW88796   9.660   3.790   5.145  0.1534  0.1962 -0.1262
28433SOL    HW188797   9.667   3.868   5.201 -0.2046  0.3402 -0.2768
28433SOL    HW288798   9.670   3.716   5.205  0.1850  0.3542  0.0646
28434SOL     OW88799   9.348   1.683   7.038  0.5553 -0.2254  0.2096
28434SOL    HW188800   9.286   1.753   7.058  0.4617 -0.5445  1.0914
28434SOL    HW288801   9.373   1.698   6.947 -0.2688  0.3299  0.0643
28435SOL     OW88802   6.955   7.328   3.206 -0.0185  0.3355 -0.2345
28435SOL    HW188803   6.888   7.395   3.189  0.7312  1.3346  0.6267
28435SOL    HW288804   7.006   7.324   3.125 -0.1442  0.7275 -0.3383
28436SOL     OW88805   7.994   1.789   6.357 -0.2111  0.5310  0.7955
28436SOL    HW188806   7.993   1.732   6.434 -0.4569  1.1805  1.2886
28436SOL    HW288807   7.922   1.851   6.372 -0.2545  0.6711  0.0479
28437SOL     OW88808   7.627   4.722   4.023 -0.0630 -0.5283  0.2753
28437SOL    HW188809   7.651   4.740   4.113 -0.0474 -2.0056  0.5950
28437SOL    HW288810   7.558   4.655   4.029 -0.5634 -0.1342 -0.7786
28438SOL     OW88811   8.615   8.597   3.706  0.3116  0.4517 -0.0088
28438SOL    HW188812   8.623   8.637   3.792  1.0904  0.6044 -0.1466
28438SOL    HW288813   8.666   8.654   3.648  0.2945  0.0179 -0.4549
28439SOL     OW88814   6.920   9.477   7.863 -0.2033 -0.0144 -0.4814
28439SOL    HW188815   6.921   9.423   7.942 -1.8106  2.3737  1.3018
28439SOL    HW288816   6.834   9.517   7.861  0.5090  1.6286 -2.3154
28440SOL     OW88817  10.041   0.274   5.748 -0.0095 -0.0688  0.5665
28440SOL    HW188818  10.000   0.189   5.731  3.0246 -1.4730 -0.6672
28440SOL    HW288819  10.102   0.257   5.820  1.6718  0.6222 -0.6298
28441SOL     OW88820   1.426   7.340   4.325 -0.4073  0.8870 -0.2926
28441SOL    HW188821   1.449   7.424   4.366 -0.8427  0.9241 -0.1178
28441SOL    HW288822   1.472   7.275   4.378  0.3200  1.0386 -0.7157
28442SOL     OW88823   7.643   8.832   4.272 -0.0839  0.5406  0.0459
28442SOL    HW188824   7.602   8.786   4.198  2.8696  3.8869 -4.1923
28442SOL    HW288825   7.588   8.908   4.286  0.3299  0.8627 -0.0510
28443SOL     OW88826   5.409   6.658  10.141  0.0453  0.2493  0.2194
28443SOL    HW188827   5.351   6.725  10.178 -1.2747 -1.7675  2.0810
28443SOL    HW288828   5.361   6.623  10.066  0.6586  1.2423 -0.6482
28444SOL     OW88829  10.190   5.129   8.634  0.0735  0.1376  0.1214
28444SOL    HW188830  10.197   5.037   8.660 -0.2560  0.0709 -0.0116
28444SOL    HW288831  10.181   5.126   8.539  0.6423  0.3417  0.0605
28445SOL     OW88832   6.280   4.309   0.658  0.0604 -0.4133  0.4207
28445SOL    HW188833   6.221   4.248   0.702 -1.0558  0.2507 -0.1233
28445SOL    HW288834   6.235   4.332   0.576  1.0843  0.0813 -0.0244
28446SOL     OW88835   9.872   9.406   4.856  0.4812  0.1010  0.5230
28446SOL    HW188836   9.966   9.392   4.868  0.7720 -1.1771 -2.3199
28446SOL    HW288837   9.849   9.347   4.784 -2.4134  0.7653  0.8033
28447SOL     OW88838   2.581   0.790   6.690  0.5236  0.3972 -0.1055
28447SOL    HW188839   2.580   0.710   6.638  0.3250 -0.1375  0.6966
28447SOL    HW288840   2.546   0.858   6.632 -0.5498 -0.3703 -0.3821
28448SOL     OW88841   2.692   9.869  10.389 -0.5322 -0.0339  0.0916
28448SOL    HW188842   2.754   9.814  10.340 -4.0481 -2.8866 -1.6638
28448SOL    HW288843   2.640   9.807  10.440 -3.4252  1.8256 -0.3673
28449SOL     OW88844   3.065   3.268   0.816  0.2208 -0.6160  0.3058
28449SOL    HW188845   3.068   3.303   0.727 -0.6259 -0.6343  0.2586
28449SOL    HW288846   3.134   3.315   0.863 -0.9673  1.2677  0.2799
28450SOL     OW88847   3.370   8.241   7.316  0.8880 -0.4440 -0.5311
28450SOL    HW188848   3.418   8.208   7.239  2.2241 -0.4304  0.2562
28450SOL    HW288849   3.438   8.250   7.383  0.2360  2.0672 -0.1150
28451SOL     OW88850   4.050   6.110   4.422  0.3861 -0.4177 -0.1923
28451SOL    HW188851   3.964   6.073   4.445  0.2267  0.6607  1.1244
28451SOL    HW288852   4.103   6.097   4.501  1.0934 -0.1111 -0.6131
28452SOL     OW88853  10.675   1.743   7.234  0.8000 -0.1097  0.2302
28452SOL    HW188854  10.771   1.738   7.236  0.9925  0.3294 -2.8676
28452SOL    HW288855  10.656   1.800   7.159 -1.8883 -3.8848 -2.2879
28453SOL     OW88856   7.890  10.184   2.125 -0.3656  0.6207  0.3906
28453SOL    HW188857   7.827  10.255   2.113  0.4476  1.3096  0.0500
28453SOL    HW288858   7.899  10.176   2.220  1.1511  2.4953  0.4698
28454SOL     OW88859   0.435  10.295   5.155  0.0864 -0.0722  0.2300
28454SOL    HW188860   0.422  10.202   5.173  0.3084 -0.4091 -1.1645
28454SOL    HW288861   0.530  10.305   5.148  0.0121 -0.5589 -3.1465
28455SOL     OW88862   2.809   2.969   2.095  0.1921  0.0539 -0.1985
28455SOL    HW188863   2.881   3.000   2.040  1.2355  0.4280  1.3017
28455SOL    HW288864   2.852   2.916   2.162 -0.9559  0.1718  0.6508
28456SOL     OW88865   8.176   2.372   2.907 -0.7038 -0.5544  0.0868
28456SOL    HW188866   8.094   2.399   2.950 -2.3723 -1.1405 -2.4987
28456SOL    HW288867   8.241   2.435   2.937 -2.3353  0.5989  1.4142
28457SOL     OW88868   6.608   0.993   5.273 -0.4003 -0.0421 -0.4169
28457SOL    HW188869   6.677   1.054   5.244  0.1654  0.1659  1.2436
28457SOL    HW288870   6.620   0.916   5.218  1.5070 -0.2022  0.1370
28458SOL     OW88871   9.806   1.675   3.738 -0.2130  0.0166  0.0441
28458SOL    HW188872   9.891   1.633   3.750 -0.1411  0.5858  1.9163
28458SOL    HW288873   9.825   1.769   3.744 -0.9997  0.1375  0.8073
28459SOL     OW88874   5.312   6.198   4.811  0.7821  0.5166 -0.4653
28459SOL    HW188875   5.273   6.157   4.888  1.4638  1.5031  0.4325
28459SOL    HW288876   5.393   6.148   4.796  0.1013 -0.3923 -1.2506
28460SOL     OW88877   9.426   9.810   5.550  0.2274 -0.1519 -0.1709
28460SOL    HW188878   9.394   9.754   5.622  0.5318 -0.8937 -0.5996
28460SOL    HW288879   9.491   9.756   5.505 -0.0956  0.2244 -1.1217
28461SOL     OW88880   9.973   7.966   5.980  0.4599  0.3023 -0.2843
28461SOL    HW188881   9.957   7.986   6.072 -1.0910 -0.8875 -0.2470
28461SOL    HW288882  10.022   7.883   5.982 -1.2840 -0.7798 -0.5091
28462SOL     OW88883  10.454   6.050   0.710  0.6940  0.1678 -0.0469
28462SOL    HW188884  10.395   6.105   0.659  1.7894  1.1128 -0.3399
28462SOL    HW288885  10.541   6.085   0.692  1.1425  0.4425  2.3501
28463SOL     OW88886   1.682   7.014   5.005 -0.2051 -0.2108 -0.0499
28463SOL    HW188887   1.755   6.986   5.061  1.1776  0.8241 -1.2800
28463SOL    HW288888   1.713   6.999   4.916 -1.3897  0.5425 -0.6036
28464SOL     OW88889   2.822   4.120   2.407  0.7669 -0.3364 -0.7552
28464SOL    HW188890   2.859   4.044   2.453 -0.1551  0.3263  1.1920
28464SOL    HW288891   2.898   4.175   2.387  1.2083 -0.5641  0.1975
28465SOL     OW88892   3.616   3.325   9.445  0.3558  0.2777  0.4491
28465SOL    HW188893   3.664   3.405   9.421  1.5527 -0.7204 -0.6086
28465SOL    HW288894   3.638   3.262   9.377 -0.3755 -1.0482  1.3882
28466SOL     OW88895   8.724   3.918   1.569 -0.1415  0.3746 -0.0891
28466SOL    HW188896   8.630   3.935   1.566 -0.1728  0.3833  0.6756
28466SOL    HW288897   8.740   3.862   1.493 -0.7501  0.4285 -0.2673
28467SOL     OW88898   6.452   6.654   1.777 -0.3071 -0.0349  0.0535
28467SOL    HW188899   6.469   6.647   1.871  1.5689  0.7555 -0.1722
28467SOL    HW288900   6.462   6.747   1.757  1.5885 -0.4548 -1.2674
28468SOL     OW88901   2.162   9.129  10.160  0.0256 -0.0724 -0.4237
28468SOL    HW188902   2.209   9.210  10.179  1.0384 -0.7875  0.1889
28468SOL    HW288903   2.082   9.135  10.212  0.4812  0.1734  0.2623
28469SOL     OW88904   0.011   4.374   0.536 -0.1742 -0.4073 -0.0055
28469SOL    HW188905   0.058   4.291   0.543  0.5906 -0.0352 -0.6256
28469SOL    HW288906  -0.040   4.366   0.456 -0.4618 -0.4447  0.1766
28470SOL     OW88907   7.440   3.636   7.630 -0.6112  0.4241 -0.1098
28470SOL    HW188908   7.372   3.653   7.695 -0.4480 -2.4377  0.9936
28470SOL    HW288909   7.483   3.720   7.616 -1.7759  1.4833  2.1929
28471SOL     OW88910   8.458  10.430   1.506  0.0898 -0.3709  0.4433
28471SOL    HW188911   8.485  10.486   1.434 -1.2235  0.0210  0.2349
28471SOL    HW288912   8.363  10.444   1.514 -0.0634 -1.6178  1.1880
28472SOL     OW88913   9.985   9.124   3.169  0.2074  0.4866 -0.2930
28472SOL    HW188914   9.966   9.043   3.217  1.3901  0.4819  0.2061
28472SOL    HW288915  10.078   9.139   3.183  0.2571  1.3243 -1.3353
28473SOL     OW88916   9.170   4.973   3.941  0.2002  0.6833  0.2346
28473SOL    HW188917   9.163   5.061   3.978  1.6111  1.9744 -2.3430
28473SOL    HW288918   9.096   4.967   3.881  0.9614  0.7326 -0.7265
28474SOL     OW88919   7.839   8.212   1.831 -0.5372  0.3203 -0.2823
28474SOL    HW188920   7.812   8.249   1.747 -1.2109 -0.0385 -0.2329
28474SOL    HW288921   7.934   8.222   1.833 -0.6857  1.9743 -0.3069
28475SOL     OW88922  10.962   7.004  10.205 -0.4814 -0.0141  0.1489
28475SOL    HW188923  10.905   7.081  10.198 -0.7843 -0.3230 -1.0917
28475SOL    HW288924  10.915   6.936  10.157  0.3269 -0.6499  0.2475
28476SOL     OW88925   0.106   6.428   7.398 -0.0106  0.4462 -0.3143
28476SOL    HW188926   0.088   6.460   7.309 -0.3370  0.9500 -0.0745
28476SOL    HW288927   0.038   6.470   7.452  0.5622  0.6325  0.2701
28477SOL     OW88928   6.892   6.721  10.918 -0.4109 -0.1420  0.0538
28477SOL    HW188929   6.896   6.817  10.917  0.3973 -0.1087  1.7198
28477SOL    HW288930   6.887   6.699  11.011  1.7515 -1.7560 -0.1338
28478SOL     OW88931   5.008   6.160   3.622 -0.0419 -0.2358  0.2193
28478SOL    HW188932   5.007   6.064   3.630  1.2442 -0.5768 -2.5990
28478SOL    HW288933   5.057   6.190   3.699  0.6201 -1.9428  0.5022
28479SOL     OW88934   5.664   1.464   0.708 -0.1769 -0.3213 -0.4755
28479SOL    HW188935   5.657   1.393   0.771 -0.8553 -0.0171 -0.2016
28479SOL    HW288936   5.660   1.544   0.760 -1.4155 -0.0542 -0.9441
28480SOL     OW88937   7.131   2.933   2.728  0.0683  0.6672  0.2776
28480SOL    HW188938   7.120   2.918   2.822 -1.2066 -1.3723 -0.1346
28480SOL    HW288939   7.113   3.027   2.717  2.0524  1.3761  2.2508
28481SOL     OW88940   4.236   0.557   9.221  0.2036 -0.1288 -0.0103
28481SOL    HW188941   4.303   0.490   9.207  0.4016 -0.1817  1.1110
28481SOL    HW288942   4.284   0.633   9.252 -0.2976 -0.3697  1.4371
28482SOL     OW88943   5.727   5.510   1.835  0.7949 -0.2967  0.3432
28482SOL    HW188944   5.655   5.542   1.891  0.8613  0.1646  0.1714
28482SOL    HW288945   5.709   5.417   1.825  0.5952 -0.3234  0.8635
28483SOL     OW88946  10.061   4.738   8.141  0.0715 -0.4935  0.2492
28483SOL    HW188947   9.975   4.701   8.161  0.2590 -1.3449 -0.4364
28483SOL    HW288948  10.123   4.667   8.158  0.9209  0.7241  2.7745
28484SOL     OW88949   5.400   8.699   0.145 -0.1500 -0.2398  0.1656
28484SOL    HW188950   5.440   8.784   0.160 -1.3794  0.4513 -0.2779
28484SOL    HW288951   5.341   8.687   0.220 -0.5053 -0.3551 -0.1260
28485SOL     OW88952   9.176   3.711   4.616 -0.5944  0.3647  0.5863
28485SOL    HW188953   9.167   3.767   4.693 -2.6250  1.2323 -0.2131
28485SOL    HW288954   9.118   3.750   4.551 -0.4216 -1.4551 -0.7359
28486SOL     OW88955   3.897   4.860   0.470  0.5351  0.2251  0.3525
28486SOL    HW188956   3.873   4.939   0.519  0.8313 -0.5538  1.8116
28486SOL    HW288957   3.814   4.815   0.455  0.4937  0.2050  0.6286
28487SOL     OW88958   5.671   1.513  10.856  0.5904  0.0124  0.0412
28487SOL    HW188959   5.754   1.496  10.811 -0.1547  1.5409 -2.1208
28487SOL    HW288960   5.674   1.458  10.934  3.5727 -0.0469 -0.0025
28488SOL     OW88961  10.745   1.861   2.294  0.0571  0.0518  0.0860
28488SOL    HW188962  10.718   1.890   2.380  0.6078 -2.2884  1.1410
28488SOL    HW288963  10.839   1.881   2.290  0.3067 -0.9481  0.5755
28489SOL     OW88964   0.705  10.258   2.380 -0.7654  0.4351 -0.0200
28489SOL    HW188965   0.626  10.214   2.413 -0.7817  1.0701  0.8074
28489SOL    HW288966   0.746  10.193   2.323  0.1689 -1.3687  2.5070
28490SOL     OW88967   7.715   3.088   3.298  0.5744 -0.5169  0.0354
28490SOL    HW188968   7.798   3.114   3.337  0.7508 -1.5470  0.3995
28490SOL    HW288969   7.652   3.091   3.370  0.1105  1.0015 -0.4077
28491SOL     OW88970   3.161   1.506  10.978 -0.0575  0.0002  0.5464
28491SOL    HW188971   3.238   1.560  10.996  0.1522 -0.2460  0.3920
28491SOL    HW288972   3.146   1.517  10.884  1.3902 -2.0213  0.0044
28492SOL     OW88973   4.126   9.538  10.541 -0.2097 -0.4349  0.4817
28492SOL    HW188974   4.140   9.454  10.585 -0.1176  0.6575  2.6334
28492SOL    HW288975   4.211   9.582  10.545 -0.4371  0.0548  0.0100
28493SOL     OW88976   4.971   5.770   8.904  0.1470  0.0829  0.0337
28493SOL    HW188977   4.899   5.722   8.863 -0.2325  0.1681  0.5883
28493SOL    HW288978   5.029   5.793   8.832  1.2304 -2.6697 -0.0772
28494SOL     OW88979   1.492   5.364   0.417  0.0214 -0.3321  0.0450
28494SOL    HW188980   1.494   5.348   0.323  0.4009 -0.1332  0.0196
28494SOL    HW288981   1.400   5.352   0.441 -0.1122 -0.1913 -0.3847
28495SOL     OW88982   2.568   6.597   7.598  0.5999  0.3054  0.2244
28495SOL    HW188983   2.532   6.676   7.557  0.3100  1.9204  3.3418
28495SOL    HW288984   2.505   6.528   7.577 -0.5245  1.4799 -0.3653
28496SOL     OW88985   2.907   8.824   2.404 -0.3177  0.2163 -0.0389
28496SOL    HW188986   2.876   8.915   2.409  0.7699  0.6091 -0.2077
28496SOL    HW288987   2.966   8.815   2.478  0.6333  0.0745 -0.7949
28497SOL     OW88988   1.563   6.853   9.848 -0.1878 -0.2117  0.3242
28497SOL    HW188989   1.625   6.817   9.911  0.6391 -2.6816 -1.7591
28497SOL    HW288990   1.598   6.830   9.762 -3.1246 -0.2473 -1.0151
28498SOL     OW88991   6.464   9.569   3.758 -0.1652 -0.0220 -0.3726
28498SOL    HW188992   6.389   9.573   3.817  0.7103 -1.0666  0.8802
28498SOL    HW288993   6.508   9.488   3.781  1.3239  0.5349 -1.1107
28499SOL     OW88994   8.663   4.255   6.331  0.5100 -0.9990  0.4707
28499SOL    HW188995   8.576   4.230   6.360  0.0852 -0.7036 -0.5127
28499SOL    HW288996   8.697   4.310   6.402 -0.0784 -1.1625  0.8845
28500SOL     OW88997   2.260   4.508   6.260 -0.3569 -0.2599 -0.4621
28500SOL    HW188998   2.262   4.418   6.228  1.9125  0.3166 -2.2217
28500SOL    HW288999   2.343   4.518   6.308  0.3934  1.3604 -1.9473
28501SOL     OW89000   7.307   5.491   9.820  0.1923 -0.6743 -0.2926
28501SOL    HW189001   7.400   5.498   9.797 -0.1115 -0.9329 -1.6787
28501SOL    HW289002   7.270   5.434   9.753 -1.0015 -0.4837  0.1841
28502SOL     OW89003   8.665   8.831   0.670 -0.5157  0.0311 -0.1603
28502SOL    HW189004   8.667   8.838   0.575  0.2295  1.7832 -0.0496
28502SOL    HW289005   8.727   8.761   0.690 -1.0206 -0.6674 -0.9648
28503SOL     OW89006   8.193   6.608   1.815  0.3250  0.1188  0.4465
28503SOL    HW189007   8.213   6.544   1.747 -0.4788  0.2336  0.0903
28503SOL    HW289008   8.263   6.597   1.880  1.2154  0.1593 -0.4934
28504SOL     OW89009   2.264   9.897   8.249  0.2827 -0.5763  0.3526
28504SOL    HW189010   2.223   9.918   8.165  1.0746 -0.4095  0.0015
28504SOL    HW289011   2.335   9.837   8.226  0.1484 -0.9804  0.9745
28505SOL     OW89012   8.821   5.818   3.323 -0.6306 -0.3389 -0.1550
28505SOL    HW189013   8.880   5.761   3.371  1.1168  1.3518 -0.2167
28505SOL    HW289014   8.818   5.780   3.235  1.5449  0.3418 -0.5616
28506SOL     OW89015   2.009   1.320   5.290  0.2482  0.0233  0.2008
28506SOL    HW189016   1.982   1.410   5.267 -2.1286 -0.3795  1.0579
28506SOL    HW289017   1.940   1.265   5.252  1.5946 -1.4562 -0.1780
28507SOL     OW89018  10.311   2.719   9.776 -0.5705  0.3784  0.4077
28507SOL    HW189019  10.309   2.809   9.745  0.9130  0.5320  0.6822
28507SOL    HW289020  10.363   2.722   9.856 -1.2676 -0.5912  0.9304
28508SOL     OW89021   8.417   7.490   5.783  0.1581  0.1734 -0.0073
28508SOL    HW189022   8.393   7.580   5.765  0.3232  0.1975 -0.1148
28508SOL    HW289023   8.474   7.465   5.710 -0.3681 -0.2120 -0.3000
28509SOL     OW89024   4.294  10.298   2.896 -0.3945  0.7308  0.1513
28509SOL    HW189025   4.207  10.312   2.932 -1.3519  1.0074 -2.0904
28509SOL    HW289026   4.316  10.380   2.852  1.0736  0.7124  0.7820
28510SOL     OW89027   9.009   0.248   4.666  0.0651  0.1155 -0.0539
28510SOL    HW189028   9.062   0.276   4.592  0.6833 -1.6901 -0.3352
28510SOL    HW289029   9.048   0.166   4.694 -0.2598  0.6526  2.1901
28511SOL     OW89030   3.863   9.060   6.730  0.4327  0.1023  0.3456
28511SOL    HW189031   3.827   8.992   6.786  0.0272  0.0428  0.0119
28511SOL    HW289032   3.789   9.116   6.708  0.4930 -0.1302 -0.4950
28512SOL     OW89033   4.105   6.466   6.211  0.1237  0.0518  0.1934
28512SOL    HW189034   4.091   6.385   6.259  1.1677 -0.3200 -0.0863
28512SOL    HW289035   4.132   6.530   6.277 -1.7049  0.4856  0.5720
28513SOL     OW89036   7.581   8.617   3.850  0.4405  0.4364 -0.3220
28513SOL    HW189037   7.515   8.577   3.794  1.2669 -1.1573 -0.2026
28513SOL    HW289038   7.662   8.612   3.800  0.6731  1.5538 -0.0979
28514SOL     OW89039   6.215   0.439   5.563 -0.0215  0.2641 -0.1455
28514SOL    HW189040   6.139   0.460   5.618  0.1495 -0.4647  0.3873
28514SOL    HW289041   6.286   0.421   5.625 -0.2953 -2.4156 -0.4515
28515SOL     OW89042   0.219   7.769   2.647 -0.6260 -0.1618  0.1937
28515SOL    HW189043   0.221   7.682   2.686  0.7747 -0.5349 -0.6244
28515SOL    HW289044   0.144   7.812   2.687 -0.8465 -1.4547  1.2278
28516SOL     OW89045  10.261   7.449   9.533  0.3076  0.1224  0.0269
28516SOL    HW189046  10.326   7.509   9.570  1.2601 -0.8417 -0.0199
28516SOL    HW289047  10.271   7.460   9.438 -0.0128  0.3921  0.0222
28517SOL     OW89048   4.762   5.964   1.995 -0.5954  0.1120  0.1181
28517SOL    HW189049   4.791   6.054   1.985 -2.0731  0.5806 -0.1593
28517SOL    HW289050   4.841   5.912   1.979  0.1096  1.3177 -0.5113
28518SOL     OW89051  10.204   7.399   2.865  0.1316 -0.0765 -0.5413
28518SOL    HW189052  10.216   7.371   2.956  0.6354 -1.0033 -0.8765
28518SOL    HW289053  10.110   7.417   2.858 -0.1959 -1.5232 -0.2382
28519SOL     OW89054   4.749   1.680   9.275  0.2942 -0.0369 -0.0389
28519SOL    HW189055   4.709   1.728   9.202  0.2996 -0.2861 -0.2068
28519SOL    HW289056   4.799   1.610   9.233 -1.4553 -1.5474  0.2679
28520SOL     OW89057   5.915   2.546   9.260  0.4821 -0.8394  0.1347
28520SOL    HW189058   5.839   2.498   9.293  1.4845 -2.1535  0.5773
28520SOL    HW289059   5.932   2.613   9.327  0.3284 -1.1922  0.5310
28521SOL     OW89060   4.594   2.226   9.875 -0.3787  0.6544  0.3878
28521SOL    HW189061   4.604   2.168   9.800  0.4813  0.1464  0.8763
28521SOL    HW289062   4.627   2.175   9.949  0.9093  1.9459  0.7584
28522SOL     OW89063   0.852   9.473   3.153 -0.3973  0.3000 -0.0453
28522SOL    HW189064   0.786   9.418   3.194 -0.0347 -1.4330 -1.6705
28522SOL    HW289065   0.870   9.541   3.218 -0.9325 -1.4250  2.0214
28523SOL     OW89066   3.313   0.366   7.315 -0.4654  0.5156  0.0519
28523SOL    HW189067   3.227   0.361   7.356 -0.8335 -0.4802 -0.7919
28523SOL    HW289068   3.344   0.276   7.314 -0.0287  0.6673 -0.9211
28524SOL     OW89069   8.568   6.223   6.558  0.0061  0.4268  0.5945
28524SOL    HW189070   8.490   6.248   6.608  0.4025  0.0839  1.4072
28524SOL    HW289071   8.536   6.207   6.469 -0.9953 -0.4873  1.1016
28525SOL     OW89072   5.987   5.431   1.104  0.6203  0.4313  0.4488
28525SOL    HW189073   5.900   5.421   1.144 -0.6847  2.0185 -1.7268
28525SOL    HW289074   5.982   5.515   1.058  3.3060  0.5100  0.1494
28526SOL     OW89075   1.611   2.760   6.958  0.3496 -0.3301 -0.3212
28526SOL    HW189076   1.554   2.684   6.972 -0.1170  0.2285  1.0722
28526SOL    HW289077   1.693   2.723   6.927 -0.0680 -1.3590 -0.2599
28527SOL     OW89078   9.123   8.657   8.961  0.1980  0.2834  0.0771
28527SOL    HW189079   9.055   8.715   8.995 -1.2523 -0.9928 -0.4629
28527SOL    HW289080   9.074   8.588   8.915  1.8691 -0.8087 -0.1666
28528SOL     OW89081   2.908   7.273   1.781 -0.1316 -0.0919 -0.2004
28528SOL    HW189082   2.972   7.206   1.756 -0.6435 -0.6436 -0.0478
28528SOL    HW289083   2.937   7.352   1.735  1.5151  0.0643  1.0087
28529SOL     OW89084   8.972   0.712  10.557 -0.2673  0.1632  0.3430
28529SOL    HW189085   8.987   0.623  10.588  1.4091  0.2239 -0.1746
28529SOL    HW289086   9.059   0.743  10.531 -1.3410  0.3933 -3.6379
28530SOL     OW89087   7.433   7.051   2.598 -0.0778 -0.0538  0.4594
28530SOL    HW189088   7.477   7.107   2.535 -0.2012 -2.6402 -2.1528
28530SOL    HW289089   7.349   7.030   2.557  0.4065 -2.9423  0.7059
28531SOL     OW89090   0.521   2.255   7.256 -0.3391  0.3197 -0.2795
28531SOL    HW189091   0.596   2.296   7.212 -0.4804 -0.5529 -1.3559
28531SOL    HW289092   0.449   2.264   7.193 -0.6654 -0.5147 -0.0290
28532SOL     OW89093   2.991   6.561   7.820  0.4400 -0.5125  0.0707
28532SOL    HW189094   2.932   6.636   7.812 -0.0970 -1.0307 -1.2807
28532SOL    HW289095   2.974   6.526   7.907  0.2671  0.5855  0.4876
28533SOL     OW89096   4.664   1.106   1.374 -0.1931  0.4432  0.1367
28533SOL    HW189097   4.719   1.183   1.389 -1.5858  1.5087 -0.1089
28533SOL    HW289098   4.654   1.067   1.461 -0.1598  1.0040  0.3957
28534SOL     OW89099   4.681   1.726   1.242  0.1417  0.3613  0.2754
28534SOL    HW189100   4.607   1.765   1.195  1.3627  1.0098 -1.1861
28534SOL    HW289101   4.739   1.694   1.174  1.2829 -0.0240  1.3873
28535SOL     OW89102   0.296   2.753   3.562 -0.1510 -0.4787 -0.4515
28535SOL    HW189103   0.281   2.658   3.564 -1.1121 -0.3465 -0.8470
28535SOL    HW289104   0.219   2.788   3.518  0.5862  0.4172 -1.0643
28536SOL     OW89105   4.615   0.971   7.064 -0.5404  0.5111  0.4227
28536SOL    HW189106   4.637   1.029   6.991 -2.8649 -1.2716 -1.8549
28536SOL    HW289107   4.555   1.021   7.118 -0.7622  0.9931 -0.2665
28537SOL     OW89108   7.905   5.988  10.077 -0.1919  0.1990  0.1462
28537SOL    HW189109   8.000   5.976  10.077 -0.2257 -0.0910  0.5387
28537SOL    HW289110   7.881   5.984   9.984  0.3462  1.7032 -0.0918
28538SOL     OW89111   9.783   9.318   1.516 -0.0974  0.4245 -0.0457
28538SOL    HW189112   9.763   9.225   1.529 -1.5338  0.7177  0.0393
28538SOL    HW289113   9.830   9.321   1.432  1.0718 -0.4934  0.5502
28539SOL     OW89114   8.214   3.235   6.712  0.2757 -0.1307 -0.0096
28539SOL    HW189115   8.211   3.269   6.623 -1.4334  2.7264  1.0245
28539SOL    HW289116   8.295   3.271   6.749 -0.4964  1.2103  0.4445
28540SOL     OW89117   1.863   5.500   4.784 -0.3884  0.2913 -0.1572
28540SOL    HW189118   1.901   5.584   4.809 -1.7233  0.1752  2.7564
28540SOL    HW289119   1.769   5.512   4.795 -0.5993 -1.6150  0.5941
28541SOL     OW89120  10.162   9.020   3.555  0.0961  0.1000 -0.3334
28541SOL    HW189121  10.111   9.015   3.636  0.9194  0.2325  0.1952
28541SOL    HW289122  10.239   8.966   3.572  0.9615  1.2441 -0.5194
28542SOL     OW89123   4.242   4.385   5.939 -0.7223 -0.1457  0.1001
28542SOL    HW189124   4.313   4.358   5.881 -0.4972 -0.0684  0.3368
28542SOL    HW289125   4.187   4.442   5.885 -0.6017 -0.2018 -0.0832
28543SOL     OW89126   4.144   1.208   7.621  0.1167 -0.1075 -0.0592
28543SOL    HW189127   4.151   1.211   7.716 -0.6671 -0.6713  0.0228
28543SOL    HW289128   4.054   1.178   7.604  0.3804 -0.4100 -0.9717
28544SOL     OW89129   8.560  10.152   4.457 -0.1725  0.4428  0.0699
28544SOL    HW189130   8.551  10.057   4.466  4.0475 -0.0034  2.1801
28544SOL    HW289131   8.601  10.165   4.371 -0.2613  0.3244  0.0100
28545SOL     OW89132   5.727   3.289   5.234  0.1285  0.7840 -0.5295
28545SOL    HW189133   5.640   3.269   5.200  0.4020  2.6257 -2.4557
28545SOL    HW289134   5.785   3.283   5.158  1.9109 -1.3545  0.8830
28546SOL     OW89135   1.255   5.917   3.546  0.0384  1.2438 -0.1543
28546SOL    HW189136   1.331   5.974   3.562 -0.3885  1.3192  1.9156
28546SOL    HW289137   1.191   5.945   3.611 -2.3692  2.1191 -2.6855
28547SOL     OW89138   1.761   1.309   0.472 -0.2958  0.1613  0.0037
28547SOL    HW189139   1.852   1.313   0.441 -0.3167  0.6230 -0.0043
28547SOL    HW289140   1.713   1.366   0.413 -0.4325  0.6250  0.5481
28548SOL     OW89141   2.712   3.161   0.023 -0.1249 -0.2294 -0.2261
28548SOL    HW189142   2.749   3.134   0.107 -0.0048  0.5939 -0.0031
28548SOL    HW289143   2.619   3.175   0.040 -0.2920 -0.9627 -0.4638
28549SOL     OW89144   4.290   0.142   1.512  0.0951 -0.5097  0.6908
28549SOL    HW189145   4.341   0.116   1.435 -0.3303  1.3800 -0.2776
28549SOL    HW289146   4.251   0.061   1.543 -0.3499 -1.2130 -1.5511
28550SOL     OW89147   4.184   5.975   4.178  0.7608  0.3665  0.2551
28550SOL    HW189148   4.146   6.023   4.252 -1.9741  0.2761 -0.9810
28550SOL    HW289149   4.235   6.041   4.131 -1.4174  1.6943 -0.3805
28551SOL     OW89150   3.938   1.527   4.086 -0.1651 -0.3551  0.1949
28551SOL    HW189151   4.008   1.544   4.148  0.0883 -1.6142  0.2720
28551SOL    HW289152   3.903   1.442   4.111 -0.6066 -0.5069 -0.8806
28552SOL     OW89153  10.451   6.959   6.690  0.1855 -0.0748  0.3526
28552SOL    HW189154  10.361   6.932   6.708  0.3232 -0.2048  0.8612
28552SOL    HW289155  10.451   6.982   6.597 -0.1588 -0.9353  0.1306
28553SOL     OW89156   5.449  10.038   7.792 -0.5787 -0.1247  0.9278
28553SOL    HW189157   5.405  10.121   7.812 -0.2332  0.4941 -0.6912
28553SOL    HW289158   5.379   9.973   7.792 -0.8272  0.1182  2.4067
28554SOL     OW89159   5.877   2.469   0.879  0.8428  0.3118  0.4786
28554SOL    HW189160   5.812   2.463   0.949 -1.1830  0.2591 -1.3253
28554SOL    HW289161   5.900   2.562   0.875 -0.1938  0.5617  0.2075
28555SOL     OW89162   2.663   5.219   3.196 -0.3163  0.2351 -0.2938
28555SOL    HW189163   2.692   5.232   3.286 -1.9866  0.3578  0.2701
28555SOL    HW289164   2.569   5.241   3.198 -1.0694 -2.5166 -1.4380
28556SOL     OW89165   5.493   6.556   4.044 -0.0037  0.0022 -0.1727
28556SOL    HW189166   5.507   6.649   4.025 -0.6968  0.2480  0.5022
28556SOL    HW289167   5.489   6.515   3.957 -0.5682  0.7303 -0.5026
28557SOL     OW89168   5.530   1.595   7.515 -0.1958  0.0295  0.0539
28557SOL    HW189169   5.515   1.511   7.471  0.5389  0.3363 -0.7944
28557SOL    HW289170   5.625   1.603   7.520 -0.2269 -0.2589  2.2326
28558SOL     OW89171   1.559  10.547   4.052 -0.3696  0.3572  0.6298
28558SOL    HW189172   1.603  10.497   3.983 -1.8504 -3.8706  2.4452
28558SOL    HW289173   1.620  10.545   4.126 -1.5256 -1.4254  1.6188
28559SOL     OW89174   3.672   5.391   8.971 -0.0990 -0.1584 -0.4832
28559SOL    HW189175   3.741   5.325   8.979 -0.5363 -0.4757  0.9023
28559SOL    HW289176   3.718   5.472   8.952  0.4092 -0.9403 -3.0096
28560SOL     OW89177   9.159  10.003  10.481 -0.0025 -0.0044 -0.4268
28560SOL    HW189178   9.232  10.038  10.532 -1.9696  1.8400  1.3146
28560SOL    HW289179   9.138  10.072  10.419 -0.8486 -0.1153 -0.2699
28561SOL     OW89180   9.913   9.700   8.396 -0.5265 -0.7974 -0.6944
28561SOL    HW189181   9.833   9.724   8.441 -0.6450 -2.1980 -0.1011
28561SOL    HW289182   9.983   9.734   8.453 -0.6894 -0.5387 -0.6465
28562SOL     OW89183   4.586   4.240   0.823 -0.1355 -0.4249  0.4636
28562SOL    HW189184   4.524   4.258   0.894  1.0087  1.1315  1.1337
28562SOL    HW289185   4.670   4.227   0.867  1.1843  3.1681 -0.5768
28563SOL     OW89186  10.275   4.830   6.145 -0.0246  0.1569  0.4605
28563SOL    HW189187  10.319   4.818   6.061 -2.1526  1.2476 -0.8984
28563SOL    HW289188  10.290   4.748   6.192  2.5728  0.1115 -0.2564
28564SOL     OW89189   6.652   2.109   1.741 -0.0266 -0.1190 -0.5527
28564SOL    HW189190   6.673   2.180   1.680 -0.6238  0.0821 -0.5281
28564SOL    HW289191   6.737   2.076   1.769  0.3283  1.8516  0.9252
28565SOL     OW89192   2.500  10.190   2.834  0.5720 -0.2704 -0.4814
28565SOL    HW189193   2.427  10.226   2.784 -0.9699 -3.4177 -0.7848
28565SOL    HW289194   2.473  10.200   2.926 -0.3470 -1.5056 -0.5962
28566SOL     OW89195   6.716  10.049  10.662  0.4737 -0.3176  0.0369
28566SOL    HW189196   6.639  10.086  10.704  1.2697  2.0870 -0.4885
28566SOL    HW289197   6.682   9.980  10.605 -1.1521 -0.0559  0.6542
28567SOL     OW89198   1.933   1.578   0.726  0.0473 -0.2344  0.0188
28567SOL    HW189199   1.965   1.592   0.636 -0.7508  1.0175 -0.1032
28567SOL    HW289200   1.926   1.483   0.735  1.5962 -0.4417 -0.7128
28568SOL     OW89201   9.948   2.412   9.932 -0.4564 -0.1360 -0.5464
28568SOL    HW189202  10.001   2.481   9.893 -0.5468 -0.2540 -0.8809
28568SOL    HW289203  10.005   2.372   9.998 -0.1221 -0.2838 -0.9226
28569SOL     OW89204   5.260   4.339   9.186 -0.2057 -0.5280  0.2400
28569SOL    HW189205   5.329   4.352   9.120  0.0550 -1.4675  0.3197
28569SOL    HW289206   5.179   4.336   9.135 -0.1296 -0.0908  0.0834
28570SOL     OW89207   3.481   6.168   3.703 -0.1554  0.0827 -0.6683
28570SOL    HW189208   3.414   6.139   3.640  0.0959  2.0991 -1.9569
28570SOL    HW289209   3.564   6.158   3.656  0.0914  1.0751 -0.4700
28571SOL     OW89210   5.644   3.678   6.368  0.5336  0.7784 -0.0998
28571SOL    HW189211   5.691   3.734   6.430  0.7718  1.4698 -0.8884
28571SOL    HW289212   5.712   3.649   6.307  0.2163  0.4635 -0.3019
28572SOL     OW89213   0.749   8.473   3.363  0.3903 -0.3441 -0.1537
28572SOL    HW189214   0.691   8.527   3.416 -0.8106  0.1070 -1.8389
28572SOL    HW289215   0.835   8.515   3.371  0.0483  0.2358  0.6654
28573SOL     OW89216   3.165   5.063   1.958 -0.2578 -0.3232  0.8362
28573SOL    HW189217   3.231   5.132   1.965 -0.6232  0.0310  0.8391
28573SOL    HW289218   3.113   5.071   2.038 -0.1604 -0.7559  0.9467
28574SOL     OW89219   6.614   7.003   6.007  0.1694  0.2630  0.5060
28574SOL    HW189220   6.532   6.955   6.017  0.0104  0.4503  0.0928
28574SOL    HW289221   6.588   7.094   5.997  0.3491  0.1623 -1.0088
28575SOL     OW89222   1.029  10.638   1.213  0.0529 -0.6339 -0.2372
28575SOL    HW189223   0.953  10.636   1.272 -1.0696 -0.6913 -1.6181
28575SOL    HW289224   1.093  10.693   1.257 -0.7277 -0.7137  1.0379
28576SOL     OW89225  10.149   1.004   0.852 -0.2380  0.0574 -0.1441
28576SOL    HW189226  10.125   0.942   0.921  0.3732 -1.5122 -1.2804
28576SOL    HW289227  10.074   1.004   0.793 -0.1496  0.2506 -0.2564
28577SOL     OW89228   5.348   5.572  10.806 -0.2830  0.0690 -0.0169
28577SOL    HW189229   5.310   5.527  10.882 -1.0527  0.5720 -0.0875
28577SOL    HW289230   5.274   5.618  10.767 -0.3637 -1.8720 -2.3206
28578SOL     OW89231   4.961   6.673   5.773 -0.1815 -0.3268  0.6499
28578SOL    HW189232   4.881   6.621   5.784  1.0015 -2.0901  1.3077
28578SOL    HW289233   4.961   6.732   5.848 -0.5511 -0.7754  1.0152
28579SOL     OW89234   8.335   9.574   6.295  0.2727  0.1903 -0.0726
28579SOL    HW189235   8.414   9.627   6.288  0.0764  0.4117 -0.6948
28579SOL    HW289236   8.265   9.631   6.265 -0.1259 -0.0202  0.4289
28580SOL     OW89237   1.988   2.386  10.043 -0.3267 -0.3634  0.0387
28580SOL    HW189238   1.962   2.303  10.082 -0.8245 -0.2565 -0.0607
28580SOL    HW289239   1.988   2.448  10.117  1.8258 -0.8107  0.4864
28581SOL     OW89240   3.331  10.121   5.030 -0.1584 -0.1392 -1.1957
28581SOL    HW189241   3.270  10.115   5.103 -0.0609 -0.6454 -1.1453
28581SOL    HW289242   3.282  10.163   4.960 -0.9382 -1.5395 -1.5285
28582SOL     OW89243   5.969   0.076   2.726  0.2997 -0.4099  0.6759
28582SOL    HW189244   5.905   0.096   2.658  0.4704  1.8598  1.1149
28582SOL    HW289245   5.982  -0.019   2.719 -2.3853 -0.8163 -0.0372
28583SOL     OW89246   6.739   0.851   5.888  0.5132  0.2385  0.7345
28583SOL    HW189247   6.736   0.763   5.927  0.3409 -0.2128 -0.2604
28583SOL    HW289248   6.812   0.847   5.827  0.3944  0.7298  0.5594
28584SOL     OW89249   9.920   5.169   3.213  0.4225 -0.0889  0.4142
28584SOL    HW189250   9.986   5.228   3.176 -1.3189 -0.0396 -3.0397
28584SOL    HW289251   9.952   5.081   3.193  0.3230 -0.1174  0.3780
28585SOL     OW89252   1.180   3.578   2.486  0.1533 -0.4456 -0.4707
28585SOL    HW189253   1.124   3.650   2.514  0.6342  0.2401 -1.2054
28585SOL    HW289254   1.120   3.510   2.456 -0.3171  0.8362 -2.6259
28586SOL     OW89255   8.654   2.602  10.898  0.3479 -0.5663  0.2023
28586SOL    HW189256   8.570   2.574  10.862 -0.3932  0.8217  0.7713
28586SOL    HW289257   8.637   2.689  10.934  2.2571  0.1834 -0.5420
28587SOL     OW89258  10.843   9.949   0.075  0.2459  0.4347  0.3318
28587SOL    HW189259  10.873   9.960   0.165  1.2984 -0.4040  0.0982
28587SOL    HW289260  10.878  10.025   0.029  1.2101 -0.0339  0.2715
28588SOL     OW89261   9.126   3.209   4.022  0.2770  0.0320 -0.3779
28588SOL    HW189262   9.118   3.241   3.932 -0.0214 -0.0311 -0.3762
28588SOL    HW289263   9.195   3.263   4.061  1.2315 -0.7169 -0.9824
28589SOL     OW89264   3.047   8.001   9.792 -0.2661 -0.2819  0.2310
28589SOL    HW189265   3.050   7.907   9.811  0.5854 -0.8986 -2.4587
28589SOL    HW289266   2.983   8.008   9.721  1.4459  0.7549 -1.3006
28590SOL     OW89267   4.938   8.885   1.797 -0.4494 -0.3315 -0.3937
28590SOL    HW189268   4.962   8.793   1.790 -2.0078 -0.8085  0.0481
28590SOL    HW289269   4.888   8.891   1.879 -0.7027  0.8198 -0.6120
28591SOL     OW89270   0.524   3.283   2.133 -0.0818 -0.4361  0.1430
28591SOL    HW189271   0.614   3.313   2.122 -0.0750  0.5317  2.2031
28591SOL    HW289272   0.521   3.197   2.090  1.8351 -0.5182  0.0959
28592SOL     OW89273   0.807  10.677   9.679  0.2017 -0.1898 -0.1730
28592SOL    HW189274   0.809  10.759   9.630 -2.6999  0.6608  0.9107
28592SOL    HW289275   0.777  10.612   9.615  0.3232  0.0519 -0.4786
28593SOL     OW89276   1.123  10.223   0.215 -0.5010  0.6182 -0.5842
28593SOL    HW189277   1.201  10.238   0.161 -0.2092 -0.1486 -0.3790
28593SOL    HW289278   1.073  10.157   0.167 -1.0657  1.1484 -0.7445
28594SOL     OW89279   7.848   5.876   9.813 -0.6107  0.0284 -0.0015
28594SOL    HW189280   7.764   5.846   9.848 -1.1623  1.3977 -0.0858
28594SOL    HW289281   7.836   5.873   9.718 -0.5103  0.0715 -0.0155
28595SOL     OW89282   5.660   6.788   1.801 -0.3379  0.0464  0.4333
28595SOL    HW189283   5.638   6.858   1.740  1.9521  0.3430 -0.1439
28595SOL    HW289284   5.737   6.746   1.763 -0.2538 -1.2813  1.9564
28596SOL     OW89285   1.497   0.493   3.424 -0.2108  0.4408 -0.0271
28596SOL    HW189286   1.504   0.407   3.383 -1.0724 -0.2935  1.2793
28596SOL    HW289287   1.545   0.484   3.507  3.1068  2.4304 -1.5383
28597SOL     OW89288   4.092   6.745   7.466 -0.2073 -0.0665 -0.1445
28597SOL    HW189289   4.068   6.652   7.466 -0.0649 -0.1772  2.1382
28597SOL    HW289290   4.179   6.747   7.425  1.8244 -1.7215  3.5135
28598SOL     OW89291   0.599   1.313   1.622 -0.5053  0.2074 -0.0905
28598SOL    HW189292   0.688   1.278   1.630 -0.5670 -0.3993 -1.6571
28598SOL    HW289293   0.543   1.239   1.644 -0.6236  0.2085 -0.3883
28599SOL     OW89294   6.985   8.626   1.376  0.2303 -0.5659  0.5302
28599SOL    HW189295   6.918   8.594   1.316  0.4872  0.9752 -0.6511
28599SOL    HW289296   6.948   8.614   1.463 -1.3704 -0.2352 -0.0693
28600SOL     OW89297   1.496   2.016   5.631 -0.1620  0.4210 -0.3981
28600SOL    HW189298   1.462   1.944   5.578 -0.5733 -0.2480  0.7376
28600SOL    HW289299   1.429   2.084   5.625 -0.3638  0.2161 -0.4524
28601SOL     OW89300   4.989   1.478   3.304 -0.0366 -0.0949 -0.2739
28601SOL    HW189301   5.052   1.510   3.240  0.7045  0.9607  0.9432
28601SOL    HW289302   5.012   1.522   3.386 -0.1473 -2.3221  1.0637
28602SOL     OW89303  10.031   4.956   8.457  0.3424  0.8217  0.8179
28602SOL    HW189304  10.108   4.945   8.401  0.3407  2.5207  0.4274
28602SOL    HW289305  10.025   4.874   8.507  0.8086 -0.4294 -1.0773
28603SOL     OW89306  10.314   3.336  10.182 -0.0936 -0.2007  0.5083
28603SOL    HW189307  10.367   3.351  10.104 -0.2003 -0.7123  0.3326
28603SOL    HW289308  10.345   3.401  10.245  0.6054 -0.3644  0.3398
28604SOL     OW89309   4.233   9.686   7.316  0.3260 -0.1274  0.2314
28604SOL    HW189310   4.285   9.627   7.261  1.6221  0.9169  0.2892
28604SOL    HW289311   4.149   9.694   7.270  0.8243 -0.5011 -0.7655
28605SOL     OW89312   2.226   5.176   1.154 -0.1515  0.2520 -0.4630
28605SOL    HW189313   2.205   5.253   1.207  1.0738  1.3833 -1.5425
28605SOL    HW289314   2.299   5.135   1.199 -2.1765 -1.6432  1.3376
28606SOL     OW89315   5.894   7.043   5.886  0.2445  0.0388 -0.6580
28606SOL    HW189316   5.816   7.094   5.907  0.0823 -0.6345  0.4415
28606SOL    HW289317   5.901   6.978   5.957  0.9746 -0.8580 -1.5192
28607SOL     OW89318   6.121   1.265   5.099 -0.0018 -0.2667  0.1053
28607SOL    HW189319   6.139   1.173   5.079 -0.2569 -0.0565 -1.1400
28607SOL    HW289320   6.194   1.292   5.154 -0.9894 -1.7825  2.3315
28608SOL     OW89321   6.623   3.141   3.725  0.1875  0.2667 -0.3016
28608SOL    HW189322   6.637   3.098   3.810  0.2899 -0.3779 -0.6403
28608SOL    HW289323   6.561   3.212   3.744 -0.4882 -0.4229  0.1569
28609SOL     OW89324   9.913   1.240   6.268  0.2670  0.0959  0.3927
28609SOL    HW189325   9.857   1.162   6.261  0.9466 -0.6108  2.2720
28609SOL    HW289326   9.993   1.216   6.221 -0.0355  0.1926 -0.1895
28610SOL     OW89327   5.707   7.615   1.274 -0.1874 -0.1313  0.2426
28610SOL    HW189328   5.653   7.678   1.323  0.0612 -0.1508  0.5446
28610SOL    HW289329   5.797   7.643   1.290 -0.1272  0.3172 -0.8254
28611SOL     OW89330   3.060   3.052   5.148 -0.4477  0.1993 -0.3979
28611SOL    HW189331   3.011   3.076   5.226 -2.1806 -0.4926 -1.2188
28611SOL    HW289332   2.997   3.003   5.094  1.2248 -0.9700 -1.3943
28612SOL     OW89333  10.487   8.522   3.890  0.3035 -0.0716  0.0057
28612SOL    HW189334  10.578   8.499   3.868  1.0839  0.9658  1.9510
28612SOL    HW289335  10.476   8.611   3.856 -0.4887 -0.7006 -1.4751
28613SOL     OW89336   8.934   0.277   3.948  0.2680  0.1093  0.9308
28613SOL    HW189337   8.865   0.341   3.929 -0.4456 -0.8405  0.2427
28613SOL    HW289338   8.912   0.245   4.036 -0.4741 -0.5380  0.5265
28614SOL     OW89339   5.886   4.625   6.902  0.7383  0.5366  0.3942
28614SOL    HW189340   5.886   4.691   6.971  0.1645  1.8861 -0.8547
28614SOL    HW289341   5.975   4.592   6.901  2.0182  3.7033 -1.1524
28615SOL     OW89342   1.825   4.029   0.023  0.2928 -0.2994  0.2154
28615SOL    HW189343   1.913   4.066   0.034  0.0761 -0.1916  1.7601
28615SOL    HW289344   1.783   4.042   0.108 -0.3208 -2.6674  0.3364
28616SOL     OW89345   8.139   6.910   8.328  0.0412 -0.4983  0.3082
28616SOL    HW189346   8.081   6.895   8.253 -0.4792  0.2921  0.5413
28616SOL    HW289347   8.215   6.954   8.291 -0.1578 -0.2242  0.2245
28617SOL     OW89348   8.432   8.963   5.465  0.2243  0.1529 -0.2166
28617SOL    HW189349   8.453   8.880   5.508  0.6911  1.0785  1.4022
28617SOL    HW289350   8.430   9.027   5.535  0.1757  1.5843 -1.4718
28618SOL     OW89351   7.923   5.526   4.095  0.2172  0.5610  0.8823
28618SOL    HW189352   7.847   5.532   4.153  0.7800  1.1149  1.5784
28618SOL    HW289353   7.892   5.563   4.012 -0.2719  0.8076  1.1667
28619SOL     OW89354   0.403   4.101   3.500 -0.1657 -0.0371  0.4228
28619SOL    HW189355   0.468   4.134   3.561 -0.6926 -1.3812  1.7465
28619SOL    HW289356   0.448   4.032   3.451  0.2062  0.9259 -0.6575
28620SOL     OW89357   4.302   8.862   3.323 -0.3664 -0.3083  0.3893
28620SOL    HW189358   4.393   8.835   3.313 -0.4780 -0.1429 -1.4932
28620SOL    HW289359   4.253   8.780   3.332  0.0437 -0.3631  2.7586
28621SOL     OW89360   9.929   4.783   7.893 -0.3142 -0.1611  0.2855
28621SOL    HW189361   9.998   4.739   7.843  0.3645  1.0310  0.1209
28621SOL    HW289362   9.961   4.783   7.983 -0.5386 -0.4255  0.3656
28622SOL     OW89363   1.046   4.595   5.816 -0.0278  0.4057  0.4493
28622SOL    HW189364   1.134   4.558   5.826  0.6416  1.7285 -0.2222
28622SOL    HW289365   0.990   4.519   5.800  1.1493 -0.3936 -0.0634
28623SOL     OW89366   9.601   9.804   7.770  0.0123 -0.0623 -0.3123
28623SOL    HW189367   9.535   9.794   7.701  0.7310  0.6342 -1.1228
28623SOL    HW289368   9.551   9.833   7.847 -0.7453 -0.4385 -0.6461
28624SOL     OW89369   8.560   8.270   9.458 -0.0614  0.2595 -0.1174
28624SOL    HW189370   8.518   8.258   9.372  0.7671  2.0591 -0.8423
28624SOL    HW289371   8.582   8.182   9.487 -1.6435 -0.5104 -1.0756
28625SOL     OW89372   7.829   7.010   9.856  0.3526 -0.0711 -0.2253
28625SOL    HW189373   7.917   7.033   9.829  1.4277 -3.3544  0.0616
28625SOL    HW289374   7.840   6.967   9.941 -1.5059 -0.6111 -0.2148
28626SOL     OW89375   9.490   4.281   3.545 -0.5610  0.1419  0.5475
28626SOL    HW189376   9.464   4.321   3.628 -0.1763  0.3770  0.5568
28626SOL    HW289377   9.566   4.331   3.516 -0.4662 -0.1721  0.2367
28627SOL     OW89378   5.367   7.492   1.223 -0.0537  0.1257 -0.0012
28627SOL    HW189379   5.303   7.466   1.289 -0.3367  0.8444  0.0177
28627SOL    HW289380   5.375   7.587   1.233  0.7040  0.0959 -0.2840
28628SOL     OW89381   5.740   6.335   7.023 -0.0802 -0.3065  0.2936
28628SOL    HW189382   5.767   6.311   6.935  1.1200  0.5172  0.4084
28628SOL    HW289383   5.811   6.302   7.079  0.4917  1.4687  0.6664
28629SOL     OW89384   9.537   7.426   0.477 -0.3655 -0.2584 -0.1505
28629SOL    HW189385   9.492   7.342   0.472 -1.2503  0.1664  0.2795
28629SOL    HW289386   9.629   7.406   0.460 -0.3669 -1.4828  1.0821
28630SOL     OW89387   2.672   6.770   4.896  0.5416 -0.1494 -0.0146
28630SOL    HW189388   2.742   6.707   4.884  0.5301  0.2580 -2.8091
28630SOL    HW289389   2.684   6.834   4.826 -1.9544  0.5610  0.0959
28631SOL     OW89390  10.289   9.489   9.752 -0.1095  0.3011  0.2590
28631SOL    HW189391  10.275   9.560   9.814 -0.6928 -0.4458  1.0203
28631SOL    HW289392  10.206   9.441   9.752 -0.1544  0.3373 -1.1890
28632SOL     OW89393   2.712   3.022   5.762 -0.1223  0.0715 -0.6942
28632SOL    HW189394   2.627   3.026   5.717  0.2942  0.9194 -1.4582
28632SOL    HW289395   2.700   3.075   5.841 -0.3767 -0.0315 -0.6617
28633SOL     OW89396   3.211   5.687  10.148 -0.0455 -0.1959  0.1697
28633SOL    HW189397   3.127   5.709  10.188  0.3094 -0.5543  1.1587
28633SOL    HW289398   3.188   5.647  10.064 -0.8122  0.6753 -0.0485
28634SOL     OW89399   7.666  10.640   7.582 -0.3554  0.0423 -0.1750
28634SOL    HW189400   7.639  10.676   7.667 -1.0612  0.6852 -0.6517
28634SOL    HW289401   7.608  10.565   7.568  0.6506 -0.8801  0.5035
28635SOL     OW89402   5.455   7.430   0.207  0.2210 -0.3386  0.2701
28635SOL    HW189403   5.423   7.483   0.280 -2.7400 -2.7771  0.9346
28635SOL    HW289404   5.393   7.358   0.200  1.4344 -1.2801 -3.4911
28636SOL     OW89405   0.107   1.441   6.836  0.1126  0.5059  0.1882
28636SOL    HW189406   0.158   1.521   6.821  1.3276 -0.3086 -0.1928
28636SOL    HW289407   0.121   1.389   6.757 -0.0782 -0.3868  0.7364
28637SOL     OW89408   8.716   9.975   8.360  0.2158 -0.3332  0.4929
28637SOL    HW189409   8.797   9.990   8.311  0.4540  0.0012  0.9806
28637SOL    HW289410   8.673   9.903   8.314  1.4678 -1.4714  1.0370
28638SOL     OW89411   0.535   4.955   9.577 -0.0317  0.3727 -1.0035
28638SOL    HW189412   0.600   5.011   9.620  0.1481 -1.4724  1.3336
28638SOL    HW289413   0.452   4.982   9.615 -0.1626  0.1991 -1.1659
28639SOL     OW89414   6.954   3.430   6.684  0.7139  0.4763 -0.4559
28639SOL    HW189415   6.964   3.388   6.599  0.6541  0.9514 -0.6999
28639SOL    HW289416   6.937   3.522   6.664 -0.3039  0.4152  0.0340
28640SOL     OW89417   7.358   3.376   1.477  0.2929  0.3096 -0.1518
28640SOL    HW189418   7.357   3.449   1.415 -1.9669  0.0672 -0.4859
28640SOL    HW289419   7.390   3.302   1.427  0.7348  0.6444 -0.3629
28641SOL     OW89420   9.699   5.701   9.455 -0.6025 -0.0724  0.5169
28641SOL    HW189421   9.607   5.706   9.481 -1.2849 -0.6799 -1.5721
28641SOL    HW289422   9.724   5.610   9.475 -0.4476  0.0741  1.0220
28642SOL     OW89423   5.942   7.252   2.839 -0.8129  0.3800  0.1444
28642SOL    HW189424   5.899   7.330   2.804  1.4193  0.7972 -1.9111
28642SOL    HW289425   5.999   7.286   2.908  0.4410  0.6864 -1.0021
28643SOL     OW89426   2.445   0.448   8.573  0.0618  0.2671 -0.1898
28643SOL    HW189427   2.420   0.366   8.531 -2.0757  0.4829  0.4988
28643SOL    HW289428   2.510   0.423   8.638  2.0060 -0.3350 -2.2649
28644SOL     OW89429   6.810   3.499   4.509  0.0953  0.6758 -0.0668
28644SOL    HW189430   6.738   3.497   4.571  0.7636 -1.4182  0.7117
28644SOL    HW289431   6.887   3.518   4.562  0.6586 -1.0301 -0.2249
28645SOL     OW89432   6.271   6.222   0.522 -0.1186 -0.5970 -0.0832
28645SOL    HW189433   6.278   6.177   0.438  0.2374  0.4341 -0.6194
28645SOL    HW289434   6.326   6.300   0.513  1.8911 -1.6577  1.9174
28646SOL     OW89435   4.929   8.279   8.884  0.2485  0.1607  0.2141
28646SOL    HW189436   5.005   8.254   8.832  0.0171  0.1951 -0.1459
28646SOL    HW289437   4.917   8.372   8.866 -0.6899 -0.1313 -0.8085
28647SOL     OW89438   0.166   3.931   2.437 -0.0726 -0.0595 -0.3361
28647SOL    HW189439   0.207   3.977   2.510  0.6965 -0.9822 -0.1653
28647SOL    HW289440   0.094   3.988   2.410 -0.4370  0.2524  1.2144
28648SOL     OW89441   2.873   6.507   8.959 -0.4145 -0.0610  0.4692
28648SOL    HW189442   2.843   6.592   8.927  1.0139  1.4866  2.9203
28648SOL    HW289443   2.950   6.487   8.905 -1.1625 -0.2096 -0.5834
28649SOL     OW89444   8.458   9.674   3.134 -0.0360 -0.6662 -0.3177
28649SOL    HW189445   8.398   9.605   3.103 -0.5300 -0.4397  0.1074
28649SOL    HW289446   8.525   9.680   3.066 -2.1009  1.1275 -2.3564
28650SOL     OW89447   9.258   5.346  10.270 -0.3976  0.0304 -0.2112
28650SOL    HW189448   9.334   5.296  10.240 -0.9504 -1.8475  1.2878
28650SOL    HW289449   9.187   5.282  10.273 -1.6304  1.3544  0.0284
28651SOL     OW89450   3.110   4.292   7.617 -0.7016  0.6777 -0.4133
28651SOL    HW189451   3.116   4.240   7.697  0.1023  2.5965  0.8510
28651SOL    HW289452   3.017   4.294   7.597 -0.8527 -0.3566  0.0984
28652SOL     OW89453   1.768   3.340   4.331 -0.1883  0.4065  0.3126
28652SOL    HW189454   1.863   3.333   4.318 -0.6181 -1.1688 -2.7976
28652SOL    HW289455   1.743   3.256   4.370 -0.4557  0.3227 -0.0355
28653SOL     OW89456   8.791   7.914   1.316 -0.5604 -0.5773 -0.6770
28653SOL    HW189457   8.848   7.839   1.301  2.3863  1.5096 -0.6739
28653SOL    HW289458   8.810   7.974   1.244 -1.4010  0.9966  0.3529
28654SOL     OW89459   9.567   0.234   1.783 -0.0821 -0.5606  0.3856
28654SOL    HW189460   9.566   0.155   1.728  0.5368 -1.0184  1.0081
28654SOL    HW289461   9.597   0.202   1.869 -0.6427  0.2104  0.8720
28655SOL     OW89462   8.737   8.965   8.495 -0.2882 -0.1384  0.2579
28655SOL    HW189463   8.705   8.997   8.579  0.5993 -1.1836  1.0346
28655SOL    HW289464   8.734   9.041   8.437 -0.6017  0.6899  1.3311
28656SOL     OW89465   8.015   5.943   4.976  0.7269  0.1433 -0.2700
28656SOL    HW189466   8.110   5.957   4.976  0.9391 -0.7744  2.1662
28656SOL    HW289467   8.001   5.872   5.038 -1.4625 -0.8435 -1.7388
28657SOL     OW89468   5.816   5.271   4.903  0.4729  1.0812 -0.4535
28657SOL    HW189469   5.873   5.295   4.830 -0.2686  0.1732 -1.3758
28657SOL    HW289470   5.779   5.187   4.876 -0.9635  1.4485  0.3107
28658SOL     OW89471   4.777   5.305   2.323  0.7880 -0.3794  0.3624
28658SOL    HW189472   4.856   5.311   2.269  0.5434 -0.0289  0.0370
28658SOL    HW289473   4.710   5.352   2.273  0.5459 -0.0916  0.9506
28659SOL     OW89474   0.069   7.066  11.005 -0.0697 -0.0638 -0.4044
28659SOL    HW189475   0.021   7.122  11.066 -2.4107 -1.3053 -0.9746
28659SOL    HW289476   0.156   7.057  11.044 -0.1278  2.5916  0.5142
28660SOL     OW89477   8.596   3.788   8.162 -0.1591 -0.1317 -0.0917
28660SOL    HW189478   8.515   3.745   8.187  0.0950 -0.3210  0.4191
28660SOL    HW289479   8.635   3.730   8.097  0.6873 -1.2430  1.3367
28661SOL     OW89480   6.431   7.385   4.468  0.1706  0.7615  0.4760
28661SOL    HW189481   6.397   7.367   4.555 -0.5432  0.0999  0.0707
28661SOL    HW289482   6.354   7.384   4.411  0.7806 -0.2001 -0.3823
28662SOL     OW89483   4.587   8.931   6.025  0.2182  0.6467  0.2511
28662SOL    HW189484   4.571   9.025   6.017 -1.0466  0.3336 -1.5870
28662SOL    HW289485   4.502   8.891   6.011  1.2474 -0.8770 -2.4201
28663SOL     OW89486  10.500   5.396   1.829  0.4145  0.2805 -0.0131
28663SOL    HW189487  10.497   5.449   1.749  2.7526  1.3902  0.5285
28663SOL    HW289488  10.476   5.308   1.800 -0.4776  0.9755 -1.5724
28664SOL     OW89489   9.845   6.340   6.844 -0.0904 -0.2658  0.4529
28664SOL    HW189490   9.882   6.260   6.807  0.6576  0.6349 -0.8557
28664SOL    HW289491   9.921   6.390   6.874 -0.3564  0.8185 -0.6005
28665SOL     OW89492   7.635   1.201   6.766 -0.0118  0.4156 -0.3000
28665SOL    HW189493   7.572   1.228   6.833 -0.5788  2.3536 -1.5144
28665SOL    HW289494   7.718   1.193   6.813 -0.4672  1.3129  0.7150
28666SOL     OW89495   3.230   0.773   0.307  0.4271 -0.4086 -0.4354
28666SOL    HW189496   3.276   0.815   0.380 -3.0862  2.6345  0.3038
28666SOL    HW289497   3.196   0.692   0.343  0.0175  0.3285  0.9069
28667SOL     OW89498   6.172   6.949   4.728  0.0904 -0.1188 -0.3617
28667SOL    HW189499   6.078   6.954   4.745 -0.4330  1.4340 -3.1758
28667SOL    HW289500   6.210   6.928   4.813 -2.6948  0.3548  1.1200
28668SOL     OW89501   8.774   0.045   0.127  0.8242 -0.2141  0.0165
28668SOL    HW189502   8.770  -0.019   0.056  0.1568 -0.5652  0.3646
28668SOL    HW289503   8.778   0.129   0.082  2.6504 -0.5107 -0.4619
28669SOL     OW89504   4.367   8.026   0.972 -0.1728  0.2449  0.1822
28669SOL    HW189505   4.368   8.085   1.047  0.0003  1.5711 -0.8306
28669SOL    HW289506   4.377   7.938   1.010 -1.1879  0.7820  1.7761
28670SOL     OW89507   7.832   4.093  10.670  0.1579 -0.2572 -0.4965
28670SOL    HW189508   7.776   4.064  10.597 -1.7074  1.9731 -0.0809
28670SOL    HW289509   7.770   4.123  10.736  1.8337 -1.3164  1.6570
28671SOL     OW89510   3.665   4.997   2.642  0.0022 -0.4157  0.4312
28671SOL    HW189511   3.637   5.087   2.657  0.3874 -0.4468  1.3955
28671SOL    HW289512   3.695   4.995   2.551 -0.3640  0.3298  0.2939
28672SOL     OW89513   9.162   8.932   5.261 -0.3957 -0.3305 -1.0022
28672SOL    HW189514   9.242   8.985   5.262 -0.1697 -0.6632 -1.3175
28672SOL    HW289515   9.190   8.846   5.294 -0.8334 -0.1546 -0.1533
28673SOL     OW89516   2.402   7.686   9.442  1.2137  0.3359  0.4212
28673SOL    HW189517   2.492   7.660   9.463  1.5718  0.8485 -0.4521
28673SOL    HW289518   2.390   7.769   9.487  0.2457 -0.9798  2.7728
28674SOL     OW89519   7.555   8.297   8.623 -0.4145 -0.2084 -0.6913
28674SOL    HW189520   7.553   8.255   8.537  0.4005 -1.4174 -0.1439
28674SOL    HW289521   7.606   8.238   8.678 -0.1340  0.9919  0.4002
28675SOL     OW89522   3.170   7.977   1.090 -0.1888 -0.5033 -0.7016
28675SOL    HW189523   3.092   8.014   1.047 -0.6305 -2.6398 -1.8723
28675SOL    HW289524   3.239   8.041   1.075 -1.7200  1.5851  0.5900
28676SOL     OW89525  10.077  10.313   9.459 -0.4246  0.2565  0.1075
28676SOL    HW189526  10.096  10.278   9.546 -0.2306 -0.0881 -0.0727
28676SOL    HW289527  10.049  10.237   9.408  0.4915  0.2650 -0.4318
28677SOL     OW89528   2.613   2.567   8.783  0.0273  0.8585 -0.2398
28677SOL    HW189529   2.697   2.602   8.813  0.1782 -0.2208  0.6527
28677SOL    HW289530   2.590   2.500   8.848 -1.9907  1.7670  0.0393
28678SOL     OW89531   9.620   0.949   3.550 -0.2595 -0.0400 -0.4438
28678SOL    HW189532   9.689   0.899   3.593 -0.6789 -0.0408  0.2458
28678SOL    HW289533   9.614   0.912   3.462  1.8821  1.1555 -1.1872
28679SOL     OW89534   9.001   6.636   3.117  0.1845  0.4687  0.2175
28679SOL    HW189535   9.085   6.672   3.090 -0.0291  3.7730  3.2022
28679SOL    HW289536   9.020   6.589   3.199 -0.7440  0.5988  0.5176
28680SOL     OW89537   1.948   5.826   4.820  0.0251  0.6060  0.0392
28680SOL    HW189538   1.881   5.875   4.772 -0.9953 -1.4220 -0.7184
28680SOL    HW289539   2.029   5.839   4.770  0.4794  3.7087  1.3829
28681SOL     OW89540   4.193   1.154   2.566 -0.0350  0.1418 -0.2348
28681SOL    HW189541   4.266   1.141   2.505  2.0624  2.6489  1.5218
28681SOL    HW289542   4.212   1.096   2.639 -1.6328 -1.5872 -1.1114
28682SOL     OW89543  10.394   9.403   5.900 -0.1002  0.1060 -0.1073
28682SOL    HW189544  10.351   9.326   5.937  0.8716  0.0436  0.9347
28682SOL    HW289545  10.481   9.373   5.876  0.0664  0.7260 -0.2918
28683SOL     OW89546   9.503   6.795   9.651 -0.5202 -0.0041 -0.6965
28683SOL    HW189547   9.424   6.827   9.694 -0.6311 -1.1484 -0.0257
28683SOL    HW289548   9.475   6.773   9.563 -0.7444  0.4158 -0.7352
28684SOL     OW89549   8.733   4.350   8.099 -0.1067  0.0889  0.6299
28684SOL    HW189550   8.802   4.414   8.117  0.7792 -0.0197 -2.0147
28684SOL    HW289551   8.768   4.296   8.028 -2.9420  0.0992 -0.9240
28685SOL     OW89552   0.216   0.539   6.296  0.1338  1.1466 -0.6468
28685SOL    HW189553   0.149   0.592   6.339 -0.3697  0.5572 -0.6909
28685SOL    HW289554   0.270   0.506   6.368 -0.3363  0.6688 -0.4993
28686SOL     OW89555   5.670  10.744   3.826  0.2759 -0.0736 -0.1950
28686SOL    HW189556   5.659  10.667   3.881  1.8625 -0.7920 -0.8071
28686SOL    HW289557   5.670  10.710   3.736 -3.3025  1.1856 -0.8416
28687SOL     OW89558  10.125  10.048   3.245 -0.2899 -0.2276 -0.0635
28687SOL    HW189559  10.139   9.987   3.317 -1.9065 -0.1650  0.3293
28687SOL    HW289560  10.054  10.105   3.274  2.6408  3.4399  0.5709
28688SOL     OW89561   6.747   2.071   7.958 -0.1449 -0.3703  0.9188
28688SOL    HW189562   6.834   2.058   7.994 -0.0442  1.7442  1.5532
28688SOL    HW289563   6.701   2.124   8.024 -1.1221  0.5477 -0.4496
28689SOL     OW89564   7.774   0.940   3.960  0.4172 -0.0998  0.5315
28689SOL    HW189565   7.809   0.989   3.886  1.6456 -0.9878  0.4782
28689SOL    HW289566   7.746   1.007   4.022 -2.2595  0.7078 -1.3801
28690SOL     OW89567  10.891   9.455  10.420 -0.0146 -0.2221 -0.6059
28690SOL    HW189568  10.825   9.520  10.397 -0.1136  0.1696  0.7541
28690SOL    HW289569  10.904   9.464  10.514  2.0861 -0.1847 -0.8361
28691SOL     OW89570   7.004   0.790   9.020 -0.1028  0.0978 -0.2613
28691SOL    HW189571   7.090   0.756   9.046  0.1622 -0.5928 -1.9399
28691SOL    HW289572   6.945   0.761   9.090  0.4729 -2.1783 -0.6324
28692SOL     OW89573  10.622  10.348   5.023  0.7359  0.4008 -0.2459
28692SOL    HW189574  10.662  10.316   4.942  4.2525  1.5828  0.8852
28692SOL    HW289575  10.664  10.432   5.040 -0.1986  0.4040  2.5975
28693SOL     OW89576   7.351   8.661   2.223  0.5387  0.4636  0.0825
28693SOL    HW189577   7.347   8.716   2.301  0.6324  0.5852  0.0013
28693SOL    HW289578   7.421   8.699   2.170  0.6254  0.2490  0.0404
28694SOL     OW89579   2.203  10.183   4.678  0.0833 -0.0771  0.2707
28694SOL    HW189580   2.147  10.139   4.614  0.2015  0.0068  0.1099
28694SOL    HW289581   2.213  10.119   4.749  0.8569 -0.6014 -0.2940
28695SOL     OW89582  10.286   6.814  10.352  0.1053  0.2306  0.6296
28695SOL    HW189583  10.308   6.896  10.308 -1.1556  1.4114  2.0871
28695SOL    HW289584  10.239   6.763  10.286  1.2402  0.4802 -0.4123
28696SOL     OW89585  10.208   2.779   4.245  0.4140 -0.3335 -0.3404
28696SOL    HW189586  10.162   2.837   4.306  0.2829  1.0534 -1.6722
28696SOL    HW289587  10.181   2.691   4.269 -0.5262  0.2522  0.8479
28697SOL     OW89588   8.664   7.300   3.175  0.1832  0.4362  0.1903
28697SOL    HW189589   8.637   7.390   3.157 -0.8111 -0.0273 -0.7083
28697SOL    HW289590   8.724   7.308   3.250 -1.3773  1.6538  1.3818
28698SOL     OW89591   4.027   7.560   0.326 -0.5432 -0.2553  0.2089
28698SOL    HW189592   3.962   7.491   0.318 -0.6683 -0.2070  0.7361
28698SOL    HW289593   4.085   7.530   0.397 -0.0913 -0.2195 -0.1410
28699SOL     OW89594   2.943   0.670   6.074 -0.2046  0.0114 -0.0753
28699SOL    HW189595   3.003   0.629   6.136 -1.5866  0.1247  1.4122
28699SOL    HW289596   2.856   0.657   6.112 -0.9837  1.3723 -1.2604
28700SOL     OW89597   6.216   9.480   8.905 -0.2070  0.4754  0.4986
28700SOL    HW189598   6.287   9.472   8.842 -0.6423  0.7594 -0.0356
28700SOL    HW289599   6.190   9.572   8.901  1.4333  1.1393  2.9326
28701SOL     OW89600   1.644   1.251   2.538 -0.1664 -0.8533 -0.1064
28701SOL    HW189601   1.607   1.208   2.615 -1.0941 -2.2847 -1.2988
28701SOL    HW289602   1.700   1.184   2.498 -0.0565 -0.2855 -0.9293
28702SOL     OW89603   1.863   7.156   9.315 -0.4835 -0.4694  0.2425
28702SOL    HW189604   1.861   7.197   9.401  0.6778 -0.5888  0.3488
28702SOL    HW289605   1.866   7.230   9.253 -0.2198 -0.3785  0.3596
28703SOL     OW89606   1.824   8.918   3.341  1.3190  0.5613  0.3204
28703SOL    HW189607   1.899   8.858   3.346  0.8061 -0.0776  0.6587
28703SOL    HW289608   1.861   9.001   3.312  1.9961 -0.0197 -0.5439
28704SOL     OW89609   7.136   3.186   2.673 -0.6049 -0.4787 -0.2530
28704SOL    HW189610   7.092   3.251   2.726  0.8745 -0.6432  1.2662
28704SOL    HW289611   7.196   3.236   2.618 -1.0031 -0.4216 -0.6406
28705SOL     OW89612   0.233  10.733   0.990 -0.3151  0.0279 -1.0785
28705SOL    HW189613   0.137  10.731   0.987 -0.5458 -0.8214  2.5858
28705SOL    HW289614   0.259  10.641   0.994  0.5279  0.2833 -0.3682
28706SOL     OW89615   3.005   9.486   4.718 -0.3044 -0.5247 -0.2962
28706SOL    HW189616   2.989   9.405   4.767 -0.8448 -0.2874 -0.0772
28706SOL    HW289617   3.001   9.459   4.626  0.0080 -0.8389 -0.2214
28707SOL     OW89618   8.380   0.599   9.788 -0.6776  0.2360  0.0295
28707SOL    HW189619   8.390   0.608   9.883  0.1644  0.8603 -0.0976
28707SOL    HW289620   8.402   0.686   9.755  1.0241 -0.4916 -0.8659
28708SOL     OW89621   7.720   6.580   9.670  0.3858  0.1000 -0.1814
28708SOL    HW189622   7.631   6.578   9.633  1.0218  1.7351 -1.9568
28708SOL    HW289623   7.716   6.647   9.738  0.1613 -0.1646  0.0710
28709SOL     OW89624   5.995   3.024   2.165 -0.1597 -0.2648 -0.3903
28709SOL    HW189625   6.058   3.085   2.203 -0.2406 -0.3921 -0.0484
28709SOL    HW289626   5.950   3.074   2.097  0.0297 -0.0556 -0.3623
28710SOL     OW89627  10.211   3.781   5.781  0.3459  0.0088  0.2250
28710SOL    HW189628  10.271   3.723   5.734  0.4371 -0.5100  0.9613
28710SOL    HW289629  10.265   3.821   5.849  0.1463  0.5206  0.0885
28711SOL     OW89630   0.919   6.041   4.547  0.1309 -0.7547 -0.0679
28711SOL    HW189631   0.930   6.037   4.642 -2.3318  0.1874  0.3286
28711SOL    HW289632   0.999   6.082   4.516  1.5219 -2.1727  1.4386
28712SOL     OW89633   9.416   9.231   9.686  0.4587  0.4005 -0.3107
28712SOL    HW189634   9.481   9.197   9.748  1.6932  0.3692 -1.5728
28712SOL    HW289635   9.463   9.297   9.635 -0.5746  0.5630 -1.0856
28713SOL     OW89636   0.219   9.936   0.134 -0.0451 -0.7206 -0.0450
28713SOL    HW189637   0.257   9.964   0.217 -0.0615  2.1025 -0.8952
28713SOL    HW289638   0.134   9.898   0.158 -0.0337  0.0180  1.2374
28714SOL     OW89639   9.830   9.524  10.399  0.2627  0.1683 -0.3624
28714SOL    HW189640   9.830   9.617  10.373 -0.5453 -0.1093 -1.4689
28714SOL    HW289641   9.896   9.518  10.467  1.8915  1.1557 -1.7525
28715SOL     OW89642   7.937   0.825   1.884  0.1356 -0.3624  0.2903
28715SOL    HW189643   7.931   0.862   1.972  0.5826 -0.8526  0.5262
28715SOL    HW289644   7.956   0.733   1.897 -1.7754 -0.9008 -0.2732
28716SOL     OW89645   0.247   2.095   0.863  0.0130 -0.3365 -0.2908
28716SOL    HW189646   0.326   2.058   0.824  1.4737  0.6252  1.5377
28716SOL    HW289647   0.224   2.169   0.806 -0.9701 -1.9504 -2.0947
28717SOL     OW89648   8.325   3.974  10.117  0.2547  0.0716  0.1933
28717SOL    HW189649   8.374   4.043  10.161 -0.8579  2.0768 -1.5499
28717SOL    HW289650   8.240   4.014  10.097 -1.6978 -2.8348  1.9176
28718SOL     OW89651   7.104  10.379   8.296  0.0687  0.0910 -0.1231
28718SOL    HW189652   7.166  10.412   8.361 -0.1457  0.0596  0.0980
28718SOL    HW289653   7.122  10.285   8.292  0.4751  0.1813 -0.5351
28719SOL     OW89654   3.347  10.335   5.411  0.4781 -0.1856 -0.5472
28719SOL    HW189655   3.359  10.406   5.348 -1.9735  0.5594 -0.2623
28719SOL    HW289656   3.389  10.368   5.491 -0.5651  0.9711 -0.4386
28720SOL     OW89657   0.637  10.029   1.650  0.2612 -0.4275  0.5309
28720SOL    HW189658   0.606  10.119   1.642  0.3994 -0.4068  0.1997
28720SOL    HW289659   0.610  10.002   1.738  1.1969  0.3178  1.0684
28721SOL     OW89660   7.477   1.323   2.100  0.3258  0.4329  0.0208
28721SOL    HW189661   7.415   1.281   2.160  2.0141  0.0473  1.5993
28721SOL    HW289662   7.422   1.364   2.033 -1.5593 -0.7658  0.7532
28722SOL     OW89663   4.348   1.038   5.441  0.2007 -0.6800  0.1314
28722SOL    HW189664   4.386   1.118   5.477  0.3273 -0.6700 -0.0241
28722SOL    HW289665   4.411   1.008   5.376 -0.6872  0.0654 -1.0909
28723SOL     OW89666   4.179   5.258   6.273 -0.1352  0.0416 -0.1717
28723SOL    HW189667   4.256   5.217   6.313  0.1688  1.0592  0.3146
28723SOL    HW289668   4.186   5.350   6.296  0.2120  0.7434 -2.8246
28724SOL     OW89669   5.229   6.997   3.519  0.3658  0.0584 -0.3777
28724SOL    HW189670   5.310   7.027   3.560 -0.1579  0.3530  0.4679
28724SOL    HW289671   5.163   7.003   3.588 -0.0572 -1.7047 -0.5914
28725SOL     OW89672   5.602   8.084   8.058  0.0951  0.2883  0.5951
28725SOL    HW189673   5.579   7.998   8.023 -0.6515  0.8201 -0.2644
28725SOL    HW289674   5.606   8.141   7.981 -0.9536  1.3584  1.3042
28726SOL     OW89675   1.824   6.832   0.631 -0.1672 -0.2106  0.3129
28726SOL    HW189676   1.870   6.876   0.559  0.8246  2.7205  2.5632
28726SOL    HW289677   1.736   6.817   0.597  0.7452 -0.6046 -2.0882
28727SOL     OW89678   4.545   5.278   2.846 -0.3518  0.1367 -0.1146
28727SOL    HW189679   4.481   5.207   2.852  1.2400 -1.4302 -0.9252
28727SOL    HW289680   4.580   5.271   2.758  0.5896  1.3030  0.1441
28728SOL     OW89681   7.987   1.320   6.601  0.0010  0.3372  0.0874
28728SOL    HW189682   8.032   1.285   6.678 -1.0472  0.0415  0.5977
28728SOL    HW289683   7.900   1.344   6.634 -0.1442  1.0732 -0.8108
28729SOL     OW89684   0.834   0.586   6.821 -0.0662 -0.2856  0.1411
28729SOL    HW189685   0.766   0.648   6.848  0.5749 -0.2995  1.9110
28729SOL    HW289686   0.868   0.550   6.903  1.3376 -1.0852 -0.7440
28730SOL     OW89687   2.554   9.300  10.025  0.2654 -0.0526  0.4840
28730SOL    HW189688   2.511   9.351   9.956 -0.7223  0.7082  1.6376
28730SOL    HW289689   2.640   9.279   9.988 -0.5763 -0.5117 -1.3698
28731SOL     OW89690   6.588   8.608   3.333  0.0817  0.7052 -0.5560
28731SOL    HW189691   6.681   8.614   3.309  0.1804 -0.7854 -0.6754
28731SOL    HW289692   6.542   8.606   3.250  0.1931 -1.4122 -0.6211
28732SOL     OW89693  10.672   0.849   2.603  0.1474 -0.1989 -0.2100
28732SOL    HW189694  10.578   0.843   2.586  0.3231  0.3766 -1.4187
28732SOL    HW289695  10.680   0.824   2.695 -1.1278 -0.7578 -0.2201
28733SOL     OW89696   6.052   0.833   1.388 -0.0200 -0.1583 -0.4643
28733SOL    HW189697   6.068   0.915   1.434 -0.3711 -0.3659  0.0380
28733SOL    HW289698   6.043   0.859   1.296  0.6074  0.2672 -0.4105
28734SOL     OW89699   9.736   6.622   2.586 -0.3304 -0.0937  0.0195
28734SOL    HW189700   9.777   6.545   2.624 -0.8619  0.2675  1.3959
28734SOL    HW289701   9.681   6.588   2.515 -1.2545 -1.1093  1.1795
28735SOL     OW89702   0.924   9.495   6.279 -0.2527 -0.1631 -0.3775
28735SOL    HW189703   0.852   9.558   6.269  0.4490  1.3102  2.6081
28735SOL    HW289704   0.905   9.450   6.362  2.4660  0.6963  0.8284
28736SOL     OW89705   2.894   4.813   0.860 -0.1302  0.2060  0.0577
28736SOL    HW189706   2.857   4.851   0.780  0.7133  0.9462 -0.0053
28736SOL    HW289707   2.838   4.738   0.879 -1.1123  0.7658 -0.5130
28737SOL     OW89708   2.945  10.781   2.371  0.3221  0.2415 -0.8350
28737SOL    HW189709   2.993  10.857   2.404 -1.6042  0.9828  0.3600
28737SOL    HW289710   2.855  10.811   2.363 -0.8512 -2.3461  1.2872
28738SOL     OW89711   8.563   7.363  10.432  0.4026 -0.6257 -0.2958
28738SOL    HW189712   8.483   7.326  10.395  0.0037  0.5953 -0.7328
28738SOL    HW289713   8.631   7.344  10.367 -0.0010  0.2315 -1.0037
28739SOL     OW89714   3.870   2.500   4.897  0.5195  0.1495 -0.0360
28739SOL    HW189715   3.953   2.477   4.939  0.9953  1.4412 -0.2227
28739SOL    HW289716   3.878   2.465   4.808  1.7301  1.9578 -0.6963
28740SOL     OW89717   8.765   3.829   2.086  0.2315 -0.4679  0.8632
28740SOL    HW189718   8.835   3.774   2.121 -0.9965 -1.1710  2.3383
28740SOL    HW289719   8.786   3.918   2.117  0.9264 -0.5222  0.5498
28741SOL     OW89720   1.178   0.909   0.861  0.0675 -0.2508 -0.2767
28741SOL    HW189721   1.176   0.938   0.952 -0.9987  0.5550 -0.5290
28741SOL    HW289722   1.225   0.979   0.815 -0.8727  0.1992 -0.5919
28742SOL     OW89723   5.307   9.283   3.714 -0.7407 -0.1198 -0.5738
28742SOL    HW189724   5.233   9.232   3.746 -0.0385 -0.8833 -0.1172
28742SOL    HW289725   5.322   9.349   3.782  0.4449 -1.4397  0.5346
28743SOL     OW89726  10.531   4.776   5.713 -0.2417  0.2385 -0.2691
28743SOL    HW189727  10.525   4.737   5.800  0.1603 -1.2819 -0.8917
28743SOL    HW289728  10.602   4.728   5.670  0.2262  1.6220 -1.1209
28744SOL     OW89729   0.054   3.666   1.621 -0.3061 -0.3678 -0.2058
28744SOL    HW189730   0.072   3.760   1.608 -0.1270 -0.4795 -0.8403
28744SOL    HW289731  -0.018   3.647   1.561  1.4745 -1.2186 -2.2100
28745SOL     OW89732   6.954   0.194   5.819  0.0948  0.2522  0.4628
28745SOL    HW189733   6.969   0.271   5.763 -1.0395  2.1028  2.5596
28745SOL    HW289734   7.011   0.208   5.894 -0.9178 -0.4065  1.3795
28746SOL     OW89735   4.403   0.680   2.398 -0.0584 -0.2089 -0.2936
28746SOL    HW189736   4.353   0.759   2.378 -0.8809 -0.3992  0.8919
28746SOL    HW289737   4.353   0.609   2.359  0.7662 -0.1629 -1.5006
28747SOL     OW89738   8.767   2.986   6.161 -0.2302 -0.0002  0.2789
28747SOL    HW189739   8.822   3.063   6.179 -1.2232  1.0627 -1.0126
28747SOL    HW289740   8.707   2.983   6.235 -1.6723  1.9078 -0.7186
28748SOL     OW89741   8.705   2.914   1.934  0.4461 -0.1251  0.0627
28748SOL    HW189742   8.719   2.884   2.024  1.6754  1.6521  0.5114
28748SOL    HW289743   8.789   2.899   1.890 -0.0412 -0.6627 -0.7108
28749SOL     OW89744   5.729   3.514   6.141  0.6364 -0.3243 -0.4477
28749SOL    HW189745   5.801   3.452   6.147 -0.4020 -1.3962  2.1344
28749SOL    HW289746   5.656   3.462   6.106  0.6526  0.3779 -1.5975
28750SOL     OW89747   6.948   6.575   2.542  0.2138  0.6082 -0.2078
28750SOL    HW189748   6.888   6.506   2.512  0.9773 -0.1465 -0.0306
28750SOL    HW289749   7.007   6.530   2.602  2.0916  0.9204 -1.7261
28751SOL     OW89750   0.628   4.610   3.023 -0.4603  0.2414  0.1975
28751SOL    HW189751   0.664   4.553   3.091 -1.8570  0.3096  1.0138
28751SOL    HW289752   0.557   4.558   2.984 -0.6027  0.7626 -0.2466
28752SOL     OW89753  10.091   5.518  10.525 -0.5788 -0.2300  0.3282
28752SOL    HW189754  10.046   5.474  10.597 -0.0337 -2.4338 -0.5875
28752SOL    HW289755  10.162   5.566  10.567 -1.2909 -0.0847  1.4012
28753SOL     OW89756   0.372   7.918   0.070 -0.8466 -0.0392  0.2396
28753SOL    HW189757   0.422   7.997   0.051 -1.5421  0.9877  2.3170
28753SOL    HW289758   0.289   7.930   0.024 -0.3455 -0.3471 -0.7698
28754SOL     OW89759   7.199   0.885   5.898 -0.3019 -0.4686  0.1680
28754SOL    HW189760   7.210   0.923   5.811  0.4387 -0.2500  0.3492
28754SOL    HW289761   7.271   0.824   5.907 -0.3529 -0.4647  0.6429
28755SOL     OW89762   7.146   5.675   2.244  0.0870 -0.5912 -0.0282
28755SOL    HW189763   7.129   5.753   2.191  1.0872 -1.2690 -1.4062
28755SOL    HW289764   7.091   5.607   2.205  2.0157 -1.5092 -1.2922
28756SOL     OW89765   8.191   9.681   2.874  0.0120  0.0094  0.0099
28756SOL    HW189766   8.127   9.627   2.828  0.2855  0.9313 -1.5080
28756SOL    HW289767   8.256   9.618   2.906 -0.3759 -0.7004 -0.5603
28757SOL     OW89768   7.908   0.011   0.640  0.7899 -0.1120 -0.0574
28757SOL    HW189769   7.841   0.066   0.680 -0.6369 -0.5552 -1.6865
28757SOL    HW289770   7.960  -0.022   0.713 -0.2225  0.9645  1.1877
28758SOL     OW89771   6.224   6.894   6.909  0.1831  0.2132 -0.1299
28758SOL    HW189772   6.194   6.816   6.956 -2.1752  1.1659  0.0789
28758SOL    HW289773   6.251   6.860   6.823 -0.4699 -0.8755  0.0723
28759SOL     OW89774   6.893  10.507   8.848 -0.2723 -0.1768 -0.8708
28759SOL    HW189775   6.901  10.509   8.943  1.7109  0.9608 -1.0055
28759SOL    HW289776   6.879  10.414   8.827  1.9006 -0.8768  0.4033
28760SOL     OW89777   0.004   6.533   7.142  0.1334  0.4038 -0.5331
28760SOL    HW189778  -0.075   6.530   7.089 -0.6569 -0.7884  0.6423
28760SOL    HW289779   0.011   6.624   7.170 -0.2444  0.7292 -1.4550
28761SOL     OW89780   6.949   6.363   9.527  0.0776 -0.1677  0.8156
28761SOL    HW189781   6.964   6.278   9.568  1.3346 -1.5570 -2.1997
28761SOL    HW289782   6.999   6.425   9.580  0.2794 -1.5431  2.2788
28762SOL     OW89783   4.836   6.266   2.928  0.3542  0.3424 -0.0332
28762SOL    HW189784   4.863   6.251   3.018 -3.3606 -2.6483  0.8671
28762SOL    HW289785   4.834   6.178   2.889  0.2852  1.3670 -2.5484
28763SOL     OW89786   3.596   1.986   3.910 -0.2291 -0.5190  0.4831
28763SOL    HW189787   3.573   2.053   3.846  0.1223  0.9068  1.8205
28763SOL    HW289788   3.513   1.945   3.934 -0.4745 -0.3965 -0.1402
28764SOL     OW89789   4.420   7.828   4.091  0.3376 -0.7799  0.5172
28764SOL    HW189790   4.395   7.745   4.131 -0.3065 -1.1811 -0.6572
28764SOL    HW289791   4.388   7.894   4.151  1.8931 -1.3625  2.0566
28765SOL     OW89792   3.498   5.931   9.584  0.2274 -0.2881  0.0187
28765SOL    HW189793   3.540   5.962   9.504 -1.1252 -0.6733 -0.8778
28765SOL    HW289794   3.480   5.838   9.568 -0.0105 -0.3877  0.7888
28766SOL     OW89795   4.470   5.386   0.588  0.1349  0.3364 -0.2564
28766SOL    HW189796   4.434   5.422   0.507  3.2419 -0.7705 -2.2965
28766SOL    HW289797   4.556   5.426   0.596  0.3060 -0.3627  2.0067
28767SOL     OW89798   2.687   3.853   2.012 -0.6584  0.0295  0.0949
28767SOL    HW189799   2.764   3.907   2.026 -1.5161  1.4272 -0.4121
28767SOL    HW289800   2.710   3.799   1.936 -1.0723  2.3066 -1.7736
28768SOL     OW89801   9.353   8.220   5.632  0.0681  0.5820 -0.2939
28768SOL    HW189802   9.440   8.251   5.606  1.3714 -1.6500  1.0821
28768SOL    HW289803   9.358   8.212   5.727 -0.8873 -1.5526 -0.3604
28769SOL     OW89804   2.957   8.032   2.378  0.2490  0.1875 -0.4208
28769SOL    HW189805   2.968   7.978   2.300  0.9463 -0.0380 -0.1720
28769SOL    HW289806   2.946   8.121   2.344  1.7312  0.2671 -0.7465
28770SOL     OW89807   5.266   3.893   1.945  0.0627  0.5778 -0.3033
28770SOL    HW189808   5.215   3.814   1.930 -0.2858  0.9858 -1.3501
28770SOL    HW289809   5.303   3.882   2.033 -0.0920 -0.6732 -0.3838
28771SOL     OW89810   8.936   1.838   3.104  0.3909 -0.3327 -0.2845
28771SOL    HW189811   8.930   1.763   3.044  0.7166  0.3985 -1.2550
28771SOL    HW289812   8.861   1.827   3.164  1.0972 -2.0541  0.3447
28772SOL     OW89813   3.032   3.371   5.238 -0.3282 -0.0275  0.1589
28772SOL    HW189814   2.949   3.391   5.196 -0.9961 -0.2679  1.3191
28772SOL    HW289815   3.011   3.302   5.301  0.5978  0.4245  0.9883
28773SOL     OW89816   5.474   5.387   2.055 -0.1594 -0.4101 -0.0050
28773SOL    HW189817   5.512   5.303   2.079  0.8131 -0.2315 -0.8371
28773SOL    HW289818   5.480   5.390   1.960  1.6542  1.3956  0.0848
28774SOL     OW89819   5.723   8.818   8.257  0.6087 -0.1292  0.2473
28774SOL    HW189820   5.674   8.737   8.270 -0.3963  0.5733  0.9670
28774SOL    HW289821   5.814   8.794   8.278  0.7878 -1.6478 -1.8882
28775SOL     OW89822  10.448   9.267   9.792 -0.5450  0.2960 -0.5050
28775SOL    HW189823  10.396   9.347   9.786 -2.4716 -0.7627  0.8712
28775SOL    HW289824  10.449   9.246   9.886 -3.1175 -3.1128 -1.0563
28776SOL     OW89825   3.162   8.805   8.695 -0.5208 -0.2922  0.0991
28776SOL    HW189826   3.200   8.766   8.774 -1.0399  0.9386  0.9818
28776SOL    HW289827   3.073   8.769   8.691 -0.4362 -0.4929 -0.0441
28777SOL     OW89828   4.062   1.606   6.863  0.2210 -0.5379  0.5057
28777SOL    HW189829   4.088   1.622   6.772 -0.4258  0.0724  0.4198
28777SOL    HW289830   4.028   1.516   6.863  0.0820 -0.4882  0.1081
28778SOL     OW89831   0.635   3.063   6.582  0.4518 -0.2798  0.1005
28778SOL    HW189832   0.566   3.086   6.644 -0.0198 -1.7166  0.1353
28778SOL    HW289833   0.694   3.007   6.631  1.4735  0.6398 -0.0414
28779SOL     OW89834   9.275   2.063   6.745  0.2949 -0.4917 -0.1703
28779SOL    HW189835   9.285   2.062   6.650 -2.2662 -3.2876 -0.5391
28779SOL    HW289836   9.208   2.130   6.762 -0.9487 -1.5971 -0.6148
28780SOL     OW89837   2.369   2.308   3.432  0.2923 -0.1940 -0.5074
28780SOL    HW189838   2.464   2.316   3.431  0.1510  2.1089 -2.2048
28780SOL    HW289839   2.349   2.252   3.357  0.2687 -0.5660 -0.2303
28781SOL     OW89840   1.712   5.959   5.506  0.0141 -0.2741  0.4538
28781SOL    HW189841   1.718   6.054   5.516 -0.2209 -0.2846  0.7129
28781SOL    HW289842   1.802   5.928   5.513  0.1565 -0.0190 -0.1963
28782SOL     OW89843   2.152  10.827   6.192 -0.4932  0.0982  0.4023
28782SOL    HW189844   2.157  10.909   6.143  3.9966 -0.0708  0.1253
28782SOL    HW289845   2.185  10.761   6.131  2.6853 -0.5907  2.6257
28783SOL     OW89846   1.896   3.541   3.479 -0.2168  0.4419 -0.3088
28783SOL    HW189847   1.905   3.492   3.561 -0.0701  0.3288 -0.3928
28783SOL    HW289848   1.803   3.563   3.474  0.0296  1.8491  0.6996
28784SOL     OW89849   2.956   5.905   6.392  0.3566  0.2391  0.2451
28784SOL    HW189850   2.951   5.837   6.325  1.0367 -0.7135  1.1326
28784SOL    HW289851   3.010   5.867   6.461  0.7261  1.6744  0.7831
28785SOL     OW89852   4.443   2.910   0.533  0.3492  0.0979 -0.2038
28785SOL    HW189853   4.500   2.833   0.533 -0.6648 -0.6797 -0.4964
28785SOL    HW289854   4.376   2.891   0.599  1.1473  1.5789  1.0851
28786SOL     OW89855   9.602   4.347   9.775 -0.0018 -0.0671 -0.8736
28786SOL    HW189856   9.680   4.293   9.768  0.4239  0.4832 -0.4875
28786SOL    HW289857   9.529   4.286   9.765  0.4483 -0.8225  0.2299
28787SOL     OW89858   3.302   1.713   1.609  0.3530 -0.3543  0.4824
28787SOL    HW189859   3.391   1.703   1.640  1.0786 -1.8757 -1.8184
28787SOL    HW289860   3.251   1.650   1.661  0.2486  1.4319  2.7262
28788SOL     OW89861  10.717   9.108   6.787  0.1530 -0.0089 -0.3491
28788SOL    HW189862  10.773   9.043   6.830  1.1816  1.0908  0.0189
28788SOL    HW289863  10.748   9.192   6.820 -1.0335  0.6936 -0.9629
28789SOL     OW89864   7.182   8.331   2.585 -0.5235 -0.3802 -0.2942
28789SOL    HW189865   7.120   8.403   2.593  0.6954  0.7305 -0.4979
28789SOL    HW289866   7.162   8.290   2.501  1.7875  2.7869 -2.6539
28790SOL     OW89867   5.344   9.062   4.886  0.0984 -0.7555 -0.0335
28790SOL    HW189868   5.322   8.970   4.899 -1.9612 -0.4615 -0.9705
28790SOL    HW289869   5.392   9.087   4.964 -1.7717 -1.9165  1.5708
28791SOL     OW89870   4.175   7.832   8.733 -0.1209  0.0055  0.2806
28791SOL    HW189871   4.098   7.877   8.697 -0.2512  0.1830  0.7690
28791SOL    HW289872   4.238   7.902   8.747  0.0452 -0.1083  0.0945
28792SOL     OW89873   5.129   0.822   5.528  0.0232  0.3074 -0.4685
28792SOL    HW189874   5.157   0.908   5.495 -0.7817  0.3773 -0.9741
28792SOL    HW289875   5.102   0.774   5.450  0.8465 -0.5609 -0.2375
28793SOL     OW89876   9.392   0.234   3.427 -0.7495 -0.4437 -0.2316
28793SOL    HW189877   9.379   0.262   3.336  1.3071  0.7211 -0.2175
28793SOL    HW289878   9.471   0.181   3.425 -1.1863 -1.1663  0.7594
28794SOL     OW89879   8.058  10.880   0.214 -0.5809  0.0339 -0.1357
28794SOL    HW189880   8.085  10.795   0.178  1.2598  0.6912 -0.4291
28794SOL    HW289881   8.034  10.861   0.304 -0.3183 -0.8279 -0.2366
28795SOL     OW89882   7.872   5.086   6.156 -0.0999  0.5014 -0.4669
28795SOL    HW189883   7.837   5.060   6.241  0.7178 -0.4117 -0.3960
28795SOL    HW289884   7.794   5.108   6.104 -0.5862  1.4831  0.6276
28796SOL     OW89885   9.365   2.918   7.475 -0.6365  0.0046  0.0519
28796SOL    HW189886   9.435   2.977   7.448 -0.4871  0.0334  0.4980
28796SOL    HW289887   9.308   2.973   7.529  0.4831 -0.6901  2.0438
28797SOL     OW89888   2.751  10.047   7.935  0.5555 -0.0415  0.4543
28797SOL    HW189889   2.659  10.069   7.919  0.3225 -0.1085  1.6736
28797SOL    HW289890   2.780  10.005   7.854 -0.5810 -0.3265  0.1882
28798SOL     OW89891   8.869   0.951  10.071 -0.3270 -0.1986  0.8134
28798SOL    HW189892   8.869   0.869  10.120 -0.5481 -0.3177  0.6204
28798SOL    HW289893   8.801   1.004  10.112 -1.1190 -0.6326  0.1033
28799SOL     OW89894   2.079   6.259   1.419 -0.8232  0.5959 -0.3496
28799SOL    HW189895   2.135   6.280   1.345  0.3118  0.2335  0.3750
28799SOL    HW289896   2.073   6.163   1.419 -0.8882  0.5968 -0.0379
28800SOL     OW89897   6.545  10.448   3.138 -0.3424 -0.3542  0.2149
28800SOL    HW189898   6.467  10.396   3.158 -1.0852  0.4308 -0.5754
28800SOL    HW289899   6.512  10.526   3.094  0.8629  0.1846  0.2224
28801SOL     OW89900   6.861   5.394  10.736 -0.5591 -0.1809 -0.1583
28801SOL    HW189901   6.858   5.489  10.745 -1.5765 -0.2213  0.0576
28801SOL    HW289902   6.789   5.362  10.791 -2.5749 -0.8743 -2.9997
28802SOL     OW89903   9.729   2.790   3.274  0.5287  0.3220 -0.1822
28802SOL    HW189904   9.664   2.754   3.214 -0.0372  1.2811 -0.1619
28802SOL    HW289905   9.773   2.714   3.310 -0.8280 -0.3743  0.0707
28803SOL     OW89906   4.229   5.769   5.894  0.0509 -0.3283 -0.6158
28803SOL    HW189907   4.266   5.686   5.863  1.0884  0.1688 -0.7621
28803SOL    HW289908   4.135   5.753   5.898  0.2108 -1.4394 -0.8631
28804SOL     OW89909   9.417   1.536   0.406  0.2949  0.7533  0.7949
28804SOL    HW189910   9.413   1.449   0.367 -1.1099  1.8318 -1.6762
28804SOL    HW289911   9.346   1.535   0.471 -0.4064  0.3624  0.0461
28805SOL     OW89912   0.844   6.393   5.577 -0.2705 -0.4886  0.2751
28805SOL    HW189913   0.754   6.406   5.545 -0.0258  0.6858 -0.0006
28805SOL    HW289914   0.840   6.415   5.670 -0.3771 -1.0076  0.3979
28806SOL     OW89915   5.166   6.070   3.219  0.6013  0.3467 -0.4521
28806SOL    HW189916   5.256   6.102   3.226  0.6962  0.2638 -1.2112
28806SOL    HW289917   5.169   5.981   3.252  0.8742  0.2267 -0.7905
28807SOL     OW89918   1.181   5.205   7.225  0.2639 -0.6388 -0.0851
28807SOL    HW189919   1.112   5.265   7.252  0.8692 -0.0146  0.1214
28807SOL    HW289920   1.157   5.121   7.264  0.7637  0.0783  1.8898
28808SOL     OW89921   6.891   8.436   6.518 -0.0471  0.4996  0.9425
28808SOL    HW189922   6.798   8.451   6.535 -0.3026 -1.4171  1.4893
28808SOL    HW289923   6.904   8.461   6.427 -1.1821  0.4537  0.7618
28809SOL     OW89924   9.479   1.339   3.618 -0.2918  0.5565 -0.6301
28809SOL    HW189925   9.527   1.349   3.536 -0.7383 -0.3360 -1.0180
28809SOL    HW289926   9.546   1.319   3.683 -0.0920 -0.4073 -1.1163
28810SOL     OW89927   7.704   4.596   5.082  0.3814  0.3188 -0.5135
28810SOL    HW189928   7.766   4.523   5.081 -0.8369 -0.7480 -0.9000
28810SOL    HW289929   7.619   4.556   5.063 -0.7391  1.4554  1.6279
28811SOL     OW89930  10.082   5.810  10.754 -0.0606 -0.3348 -0.7820
28811SOL    HW189931  10.109   5.895  10.789  0.2133 -0.7802  0.1002
28811SOL    HW289932  10.104   5.815  10.661 -0.1666  0.6077 -0.7715
28812SOL     OW89933   7.217   6.555   9.203 -0.5589  0.2903 -0.0739
28812SOL    HW189934   7.202   6.630   9.261 -1.5775  0.3491 -0.3942
28812SOL    HW289935   7.153   6.490   9.232 -0.0882 -0.2337 -0.1951
28813SOL     OW89936   3.080   8.168   5.655  0.2414 -0.3701 -0.1326
28813SOL    HW189937   3.055   8.243   5.600 -0.5185 -0.9624 -0.6135
28813SOL    HW289938   3.166   8.191   5.689 -1.7834  3.0166  3.6740
28814SOL     OW89939   2.290   8.765   8.365  0.2645 -0.0525  0.0811
28814SOL    HW189940   2.228   8.787   8.435  0.4839 -0.2610  0.3427
28814SOL    HW289941   2.376   8.776   8.405  0.5183  2.7547 -0.9815
28815SOL     OW89942   8.989   9.874   2.642  0.1420 -0.5409  0.1802
28815SOL    HW189943   8.976   9.839   2.553 -0.6922 -0.1670  0.1496
28815SOL    HW289944   9.076   9.843   2.667  0.3119 -0.8015 -0.7007
28816SOL     OW89945   7.210  10.189   3.791  0.0036 -0.2455 -0.2089
28816SOL    HW189946   7.173  10.169   3.877 -0.2372  0.5129 -0.1285
28816SOL    HW289947   7.136  10.217   3.738  0.4128  1.1176 -0.1016
28817SOL     OW89948   7.091   3.433   2.864  0.0207 -0.3969 -0.2311
28817SOL    HW189949   7.061   3.495   2.797 -0.7699  1.2049  1.5399
28817SOL    HW289950   7.016   3.420   2.921  0.9694 -0.9111  0.9461
28818SOL     OW89951   5.605   9.317  10.030  0.2439 -0.2304 -0.3121
28818SOL    HW189952   5.642   9.236  10.064  1.5573  0.2329 -0.5924
28818SOL    HW289953   5.524   9.329  10.080  0.5900 -1.1311  0.4919
28819SOL     OW89954   4.370  10.743   9.489  0.0301  1.0908 -0.2289
28819SOL    HW189955   4.356  10.681   9.561 -0.3212  0.6874 -0.6360
28819SOL    HW289956   4.454  10.784   9.509  0.3566  0.3537 -0.0348
28820SOL     OW89957   5.388   6.431   4.678 -0.3644  0.2334 -0.3610
28820SOL    HW189958   5.372   6.348   4.722  0.2385 -0.8376 -2.0492
28820SOL    HW289959   5.434   6.485   4.743 -1.3848 -0.4741  0.9869
28821SOL     OW89960   5.838   5.633   2.436 -0.5681  0.2736 -0.6831
28821SOL    HW189961   5.833   5.592   2.349 -0.3949 -2.2329  0.3966
28821SOL    HW289962   5.899   5.706   2.425  2.3650 -2.1433 -1.9793
28822SOL     OW89963   1.442   7.094   1.928 -0.9318 -0.4067  0.0430
28822SOL    HW189964   1.379   7.166   1.938 -0.1420  0.1966  0.8789
28822SOL    HW289965   1.527   7.138   1.922 -0.4613 -1.2628  0.2878
28823SOL     OW89966   7.788   7.110   2.936  0.5361 -0.5553  0.6818
28823SOL    HW189967   7.787   7.204   2.917 -0.2276 -0.6094  0.4387
28823SOL    HW289968   7.830   7.104   3.022  1.9067 -0.1159  0.0851
28824SOL     OW89969   8.584   5.167   1.104 -0.1793  0.2148  0.9552
28824SOL    HW189970   8.611   5.202   1.020 -2.2035  1.2055  0.6498
28824SOL    HW289971   8.663   5.169   1.158  0.9466  0.3617 -0.6468
28825SOL     OW89972   0.048   9.435   2.852  0.4702  0.0097 -0.2579
28825SOL    HW189973   0.074   9.527   2.856 -0.1180  0.2780 -1.7453
28825SOL    HW289974   0.009   9.417   2.938  0.4548  1.1898 -0.0029
28826SOL     OW89975   5.120   0.973   9.247 -0.3503 -0.7723 -0.3237
28826SOL    HW189976   5.164   1.057   9.238 -0.9600 -0.2163  1.3992
28826SOL    HW289977   5.188   0.908   9.229  0.1452  0.0712 -1.6208
28827SOL     OW89978   0.414   4.731   3.287  0.3559  0.4453  0.0755
28827SOL    HW189979   0.380   4.664   3.228  0.8816 -0.0598  0.3383
28827SOL    HW289980   0.366   4.718   3.369 -0.8766  1.5933 -0.4320
28828SOL     OW89981   1.753   9.478   3.265 -0.7792  0.2583  0.4065
28828SOL    HW189982   1.747   9.563   3.309 -0.4663  0.4260  0.1295
28828SOL    HW289983   1.782   9.499   3.177 -2.9707  0.0920 -0.4227
28829SOL     OW89984   9.950   1.881   4.869  0.1882 -0.0418  0.3887
28829SOL    HW189985  10.031   1.873   4.920  0.4890  1.3041  0.1692
28829SOL    HW289986   9.976   1.923   4.788 -0.5273 -0.8641 -0.2879
28830SOL     OW89987   5.151   7.568   7.257 -0.3763 -0.8631 -0.0465
28830SOL    HW189988   5.082   7.587   7.193 -0.5237 -0.6679  0.1677
28830SOL    HW289989   5.227   7.618   7.227 -0.3709 -0.9686 -0.2064
28831SOL     OW89990   1.724   1.993   2.467  0.2176  0.2064 -0.3517
28831SOL    HW189991   1.801   1.936   2.474 -0.2666 -0.2991  1.4096
28831SOL    HW289992   1.663   1.959   2.533 -1.3914  0.8107 -1.4677
28832SOL     OW89993   0.102   8.387   5.971  0.3223  0.2308  0.0744
28832SOL    HW189994   0.040   8.349   5.908  1.0476 -1.6534  0.4316
28832SOL    HW289995   0.169   8.320   5.982  0.2595  0.5021  2.8049
28833SOL     OW89996   7.750   4.307   6.061 -0.3225 -0.8784  0.1057
28833SOL    HW189997   7.769   4.278   5.972  0.7612  1.0915 -0.3781
28833SOL    HW289998   7.835   4.305   6.105 -0.1749  1.3979  0.0355
28834SOL     OW89999   4.081   4.984  10.710 -0.6466 -0.4708  0.3063
28834SOL    HW190000   3.991   5.008  10.691  0.0563  2.0073 -0.2063
28834SOL    HW290001   4.076   4.936  10.793 -2.5549 -1.7480 -0.4837
28835SOL     OW90002   1.807   8.576   7.252  0.4283 -0.5065  0.2379
28835SOL    HW190003   1.812   8.526   7.171 -0.9230  1.5117 -1.1924
28835SOL    HW290004   1.866   8.651   7.237 -2.0676  1.4941 -0.2170
28836SOL     OW90005   2.113   6.848   7.941 -0.3597 -0.2524 -0.5465
28836SOL    HW190006   2.178   6.786   7.907 -2.7500 -2.3879 -1.5781
28836SOL    HW290007   2.067   6.800   8.010 -1.2984  0.9181 -0.3192
28837SOL     OW90008   1.718   5.127   3.463  1.0403  0.6452 -0.1596
28837SOL    HW190009   1.796   5.129   3.518  0.9417  0.7315 -0.0235
28837SOL    HW290010   1.658   5.068   3.509  0.7311  1.1788  0.1286
28838SOL     OW90011   8.221   6.303   1.153 -0.0648 -0.0461 -0.5402
28838SOL    HW190012   8.284   6.367   1.118  2.0559 -1.0083  1.2265
28838SOL    HW290013   8.242   6.222   1.108 -2.7717  0.3623 -2.8009
28839SOL     OW90014   5.662   4.887  10.563 -0.9514  0.0427 -0.5448
28839SOL    HW190015   5.729   4.819  10.573  0.9640  1.9159  0.3648
28839SOL    HW290016   5.585   4.852  10.608  0.6231 -0.7285  1.7536
28840SOL     OW90017   8.734   9.784   1.063  0.1233  0.1606  0.0399
28840SOL    HW190018   8.745   9.821   1.150 -2.2606 -0.6749  0.7767
28840SOL    HW290019   8.668   9.840   1.021  0.2644 -0.2270 -0.7224
28841SOL     OW90020   3.915   0.211   7.559 -0.6393 -0.2049 -0.0851
28841SOL    HW190021   3.902   0.130   7.608 -0.6727 -0.5583 -0.6700
28841SOL    HW290022   3.881   0.279   7.617 -0.3746 -0.5744  0.5186
28842SOL     OW90023   3.684   2.729   3.784  0.1893  0.1319 -0.6060
28842SOL    HW190024   3.608   2.718   3.840  0.8667 -0.0018  0.3036
28842SOL    HW290025   3.687   2.649   3.732  1.0866 -0.9958  1.0832
28843SOL     OW90026  10.450   6.279  10.393 -0.2380 -0.1465 -0.1180
28843SOL    HW190027  10.429   6.188  10.371  0.9475 -0.4502 -0.0323
28843SOL    HW290028  10.400   6.330  10.329  0.4431 -0.9083 -1.2966
28844SOL     OW90029   7.503   4.077   7.902 -0.0990 -0.0336 -0.1653
28844SOL    HW190030   7.538   4.029   7.978  0.1048  0.3384 -0.0167
28844SOL    HW290031   7.579   4.089   7.845 -0.2287 -0.2124 -0.3746
28845SOL     OW90032  10.572   1.706   4.993 -0.1277 -0.1068 -0.1129
28845SOL    HW190033  10.609   1.619   5.009 -2.8278 -1.1306  1.3792
28845SOL    HW290034  10.572   1.715   4.898  0.5400 -1.5979 -0.2871
28846SOL     OW90035   4.222  10.755   9.947 -0.0317 -0.3238  0.9948
28846SOL    HW190036   4.285  10.687   9.926 -0.5419 -0.1591 -1.2932
28846SOL    HW290037   4.165  10.760   9.870 -1.1519  1.4030  1.8691
28847SOL     OW90038   3.221   5.074   5.941 -0.4465  0.2255  0.1650
28847SOL    HW190039   3.192   5.104   6.027  0.3559 -0.6449  0.7580
28847SOL    HW290040   3.316   5.066   5.948 -0.3611  0.2444 -0.8348
28848SOL     OW90041   2.694   8.425   8.357  0.8750  0.6378  0.0650
28848SOL    HW190042   2.749   8.467   8.291  1.8028 -0.2525  0.2516
28848SOL    HW290043   2.705   8.331   8.341 -0.6674  0.4243  0.0518
28849SOL     OW90044   7.305   8.505   1.626 -0.0532  0.0069 -0.5853
28849SOL    HW190045   7.215   8.527   1.651 -0.1501  0.4813 -1.3086
28849SOL    HW290046   7.314   8.540   1.537  0.8287 -0.0896 -0.5423
28850SOL     OW90047   4.893   7.847   5.294  0.3126 -0.3138  0.1734
28850SOL    HW190048   4.892   7.942   5.295  0.8373 -0.2061 -2.2622
28850SOL    HW290049   4.855   7.823   5.209  1.0497 -2.2342  0.3204
28851SOL     OW90050   8.638   9.006   7.231 -0.7552  0.1009 -0.2374
28851SOL    HW190051   8.662   8.918   7.203 -0.6872 -0.3864  1.2342
28851SOL    HW290052   8.612   8.995   7.323  1.7162  1.9885  0.8077
28852SOL     OW90053   4.142   1.963  10.884 -0.1789  0.3840  0.3839
28852SOL    HW190054   4.140   1.890  10.946  1.3610  1.0060  1.2332
28852SOL    HW290055   4.051   1.992  10.878 -0.5771 -0.6122  1.2457
28853SOL     OW90056   7.868   9.284   0.036 -0.2078 -0.0602 -0.0731
28853SOL    HW190057   7.874   9.325   0.122 -0.7410 -0.8542  0.3537
28853SOL    HW290058   7.878   9.357  -0.026  0.5496  0.4630  0.6507
28854SOL     OW90059  10.479   7.881   7.050 -0.2103 -0.2735 -0.2642
28854SOL    HW190060  10.384   7.884   7.052 -0.1806  0.5065  1.3246
28854SOL    HW290061  10.507   7.973   7.056  0.6101 -0.6019  2.2071
28855SOL     OW90062   7.422   8.942   3.744  0.5904 -0.4251 -0.2486
28855SOL    HW190063   7.455   9.030   3.729 -0.8114  0.2211  0.2263
28855SOL    HW290064   7.482   8.904   3.808 -0.2224  1.1792  1.6051
28856SOL     OW90065   5.706   1.043   0.602  0.2761 -0.2551 -0.8621
28856SOL    HW190066   5.780   0.990   0.571  1.4357  1.8688 -2.0082
28856SOL    HW290067   5.712   1.040   0.697  0.9571 -1.2760 -0.9195
28857SOL     OW90068   1.315   4.516   5.849 -0.1220  0.2149  0.2196
28857SOL    HW190069   1.332   4.435   5.801 -1.0677  1.1538 -1.8225
28857SOL    HW290070   1.300   4.488   5.940  1.8127 -1.6272  0.0455
28858SOL     OW90071   6.525   6.504  10.130  0.1151 -0.4091 -0.6152
28858SOL    HW190072   6.441   6.472  10.098  0.2470 -0.7189 -0.6576
28858SOL    HW290073   6.556   6.563  10.061 -0.9143  1.1795  0.2135
28859SOL     OW90074   0.674   8.648   0.092 -0.5013 -0.1841  0.0172
28859SOL    HW190075   0.638   8.733   0.069 -0.7012 -0.0467  0.7996
28859SOL    HW290076   0.695   8.607   0.009  0.2933  0.9195 -0.3472
28860SOL     OW90077   1.985   3.170   2.195 -0.1776  0.4090  0.4956
28860SOL    HW190078   1.973   3.142   2.286  0.7704  1.6859  1.0506
28860SOL    HW290079   2.004   3.263   2.201 -1.4482  0.8178 -1.1436
28861SOL     OW90080   5.306   5.101   8.975  0.2795  0.3555  0.5247
28861SOL    HW190081   5.214   5.127   8.971  0.9751  2.8963 -0.6755
28861SOL    HW290082   5.325   5.063   8.889  1.0257  2.6645 -0.4240
28862SOL     OW90083   5.746   5.317   9.453  0.1432 -0.1841  0.0982
28862SOL    HW190084   5.798   5.238   9.437  1.8815  0.6753  1.1691
28862SOL    HW290085   5.744   5.324   9.549 -0.8868  0.5185  0.0378
28863SOL     OW90086   3.278   1.791   2.099 -0.2983  0.1689  0.3372
28863SOL    HW190087   3.295   1.858   2.033  0.1350 -0.5719 -0.3119
28863SOL    HW290088   3.193   1.815   2.136 -1.4333 -0.4130 -1.7535
28864SOL     OW90089  10.515   6.700   7.657 -0.0213 -0.4440  0.4033
28864SOL    HW190090  10.444   6.670   7.715 -0.3644 -0.7384 -0.1588
28864SOL    HW290091  10.470   6.750   7.588  0.0814 -2.2981 -1.0784
28865SOL     OW90092   8.913   5.454   2.434 -0.1492 -0.2035  0.7763
28865SOL    HW190093   8.942   5.362   2.440 -1.1374 -0.5902 -0.1212
28865SOL    HW290094   8.829   5.455   2.480  0.2987  0.4685  1.5971
28866SOL     OW90095   3.477  10.806   7.489 -0.1332  0.0099 -0.4024
28866SOL    HW190096   3.433  10.853   7.419 -1.3362 -0.6994 -0.1516
28866SOL    HW290097   3.514  10.728   7.447 -1.6956 -0.9283 -0.1259
28867SOL     OW90098  10.749   3.174   0.597 -0.2031  0.1634  0.0058
28867SOL    HW190099  10.742   3.242   0.530  0.3732  0.4000  0.1810
28867SOL    HW290100  10.839   3.143   0.591 -0.4991 -0.7084 -0.1827
28868SOL     OW90101   4.482   1.699   5.164  0.2471 -0.1692  0.0637
28868SOL    HW190102   4.577   1.701   5.175  0.1856  0.9846  0.4273
28868SOL    HW290103   4.466   1.751   5.086 -0.1305  0.0509  0.2874
28869SOL     OW90104   1.749   4.092   8.025 -0.4330  0.0187 -0.0203
28869SOL    HW190105   1.727   4.076   7.933  2.0586  0.4843 -0.7826
28869SOL    HW290106   1.715   4.180   8.043  0.7583  0.7484 -1.1576
28870SOL     OW90107   9.992   0.404  10.850  0.2814  0.2666  0.2350
28870SOL    HW190108  10.014   0.468  10.783  1.5278 -1.4728 -1.1162
28870SOL    HW290109   9.934   0.342  10.805  3.0621 -2.3040 -0.1205
28871SOL     OW90110   3.611   0.673   6.364 -0.1472  0.2999 -0.4243
28871SOL    HW190111   3.626   0.633   6.450  0.3986  0.0194 -0.6496
28871SOL    HW290112   3.578   0.761   6.384  1.1196  0.6850  0.0895
28872SOL     OW90113   9.765   9.132   5.181 -0.8493 -0.4140 -0.2629
28872SOL    HW190114   9.804   9.217   5.160 -0.4791 -0.2933  0.8830
28872SOL    HW290115   9.819   9.097   5.252 -0.7093 -1.8223 -1.0247
28873SOL     OW90116   8.521   8.057   3.697 -0.0348 -0.3889  0.6554
28873SOL    HW190117   8.572   8.053   3.778 -1.3560 -0.5517  1.5142
28873SOL    HW290118   8.525   7.968   3.662  0.4320 -0.3521  0.6167
28874SOL     OW90119   0.801   6.717   5.396 -0.0052  0.0280  0.2622
28874SOL    HW190120   0.712   6.707   5.428 -0.1150  1.5914  0.4929
28874SOL    HW290121   0.853   6.739   5.473  0.7515 -1.6271  0.2672
28875SOL     OW90122   1.717  10.379   3.894 -0.6265 -0.0382 -0.9138
28875SOL    HW190123   1.812  10.391   3.891 -0.3581 -1.9432 -1.0571
28875SOL    HW290124   1.704  10.285   3.882 -2.4948  0.0655 -0.0563
28876SOL     OW90125   1.861   4.388   9.945 -0.0662  0.2479 -0.0796
28876SOL    HW190126   1.806   4.407   9.869 -0.5843 -0.7281  0.0387
28876SOL    HW290127   1.945   4.430   9.924 -0.8245  1.7169 -0.2746
28877SOL     OW90128  10.689   9.353   1.991  0.0992 -0.4181  0.1454
28877SOL    HW190129  10.742   9.281   1.956  0.0778 -0.6475  0.5819
28877SOL    HW290130  10.748   9.402   2.047  0.3184  0.3525 -0.7299
28878SOL     OW90131   9.659   2.176   0.881 -0.0883 -0.4426 -0.9243
28878SOL    HW190132   9.702   2.204   0.800  2.4232 -0.2056  0.3785
28878SOL    HW290133   9.679   2.083   0.887  0.6008 -0.2553 -0.1237
28879SOL     OW90134   3.363   2.850   7.284 -0.6558 -0.2746 -0.7656
28879SOL    HW190135   3.365   2.944   7.268 -0.4219 -0.3188 -1.0012
28879SOL    HW290136   3.363   2.810   7.197 -0.2085 -0.5009 -0.6682
28880SOL     OW90137   0.572   7.016   6.539  0.2076  0.4669 -0.5563
28880SOL    HW190138   0.587   6.930   6.501 -0.8126  0.8527 -1.9361
28880SOL    HW290139   0.493   7.006   6.592 -0.2439  0.6536 -1.1733
28881SOL     OW90140   1.001   5.073   4.806 -0.1251 -0.0339  0.0276
28881SOL    HW190141   1.015   5.151   4.859  0.3563 -0.8761  1.1907
28881SOL    HW290142   1.071   5.013   4.833  0.9553 -0.0441 -2.5184
28882SOL     OW90143   8.797   3.792   1.342  0.2810  0.2239 -0.4692
28882SOL    HW190144   8.723   3.800   1.282 -0.5828 -0.4374  0.4732
28882SOL    HW290145   8.805   3.698   1.359 -0.3745  0.4864  1.4934
28883SOL     OW90146   5.916   8.059   4.229  0.1540 -0.1519 -0.4323
28883SOL    HW190147   5.834   8.088   4.268 -0.1060  0.3339 -1.3210
28883SOL    HW290148   5.893   7.978   4.183 -0.3901  1.1344 -2.5961
28884SOL     OW90149  10.920   8.275   8.460  0.1511  0.3453  0.7281
28884SOL    HW190150  10.864   8.351   8.479  1.0627  1.0186  0.8198
28884SOL    HW290151  10.975   8.267   8.537 -1.1914 -1.6208  1.5599
28885SOL     OW90152   4.010   7.518  10.668 -0.0021  0.1390 -0.2405
28885SOL    HW190153   4.042   7.449  10.609 -0.6087 -0.5397  0.2087
28885SOL    HW290154   4.022   7.482  10.755  0.5836  1.0117  0.0501
28886SOL     OW90155   5.256   6.842   7.295 -0.3840 -0.1765  0.5799
28886SOL    HW190156   5.163   6.840   7.272  0.0450 -1.3519 -1.2853
28886SOL    HW290157   5.272   6.932   7.323 -2.4331 -0.3637  2.6994
28887SOL     OW90158   8.342   0.421  10.358  0.0457  0.3737 -0.0335
28887SOL    HW190159   8.386   0.442  10.441  0.1078 -0.7845  0.2536
28887SOL    HW290160   8.267   0.480  10.354 -0.3819 -0.0472  1.2238
28888SOL     OW90161   1.430   1.935   4.778  0.5314 -0.3345 -0.2334
28888SOL    HW190162   1.478   2.012   4.749  0.9340 -0.2886  0.5439
28888SOL    HW290163   1.370   1.968   4.846 -1.1592 -0.2478 -1.6875
28889SOL     OW90164   3.113  10.280  10.459 -0.3795  0.3426  0.1429
28889SOL    HW190165   3.183  10.294  10.523 -0.7240 -0.9847  0.8347
28889SOL    HW290166   3.156  10.289  10.374  0.7538 -0.9070  0.5516
28890SOL     OW90167   2.849   8.920   3.820  0.2464  0.1771  0.0733
28890SOL    HW190168   2.875   8.829   3.836  1.1989  0.4559  0.1863
28890SOL    HW290169   2.781   8.914   3.753  0.4599 -0.6021 -0.0881
28891SOL     OW90170   3.569  10.005   2.098 -0.1377 -0.0182  0.1041
28891SOL    HW190171   3.656  10.002   2.138  0.1148  0.2118 -0.4112
28891SOL    HW290172   3.550   9.915   2.074  0.0566 -0.0416  0.0299
28892SOL     OW90173   6.096   9.479   6.381  0.0323  0.1562 -0.2167
28892SOL    HW190174   6.074   9.493   6.474 -0.2329 -2.4632  0.1877
28892SOL    HW290175   6.072   9.388   6.364 -0.6209  0.7764 -3.0986
28893SOL     OW90176   7.936   1.995   5.556 -0.2816 -0.2747 -0.3487
28893SOL    HW190177   7.941   2.067   5.618  0.0292  0.2395 -0.9617
28893SOL    HW290178   7.860   1.944   5.585 -1.0767  0.8118 -0.4424
28894SOL     OW90179  10.510   8.630  10.092 -0.4113 -0.7004 -0.5849
28894SOL    HW190180  10.548   8.575  10.161 -0.0576 -0.9080 -0.9390
28894SOL    HW290181  10.563   8.611  10.014 -0.7283 -0.3773 -0.8847
28895SOL     OW90182   3.164   6.419   5.423 -0.1903 -1.2255  0.0799
28895SOL    HW190183   3.234   6.410   5.358 -0.1319  0.4911 -0.1356
28895SOL    HW290184   3.185   6.500   5.469 -2.8609  0.2166 -1.0537
28896SOL     OW90185   8.270   6.846   9.757  0.4168  0.6696  0.7736
28896SOL    HW190186   8.330   6.844   9.683 -0.7313  0.0290 -0.1600
28896SOL    HW290187   8.208   6.916   9.737  0.7165  1.2049  1.6431
28897SOL     OW90188   6.400   1.635   5.214  0.0310  0.3889  0.6429
28897SOL    HW190189   6.324   1.580   5.235 -0.5479  1.2504  0.8813
28897SOL    HW290190   6.424   1.610   5.125  1.0022 -1.6032  1.4110
28898SOL     OW90191   6.216   7.314   5.080  0.2992 -0.8771  0.0800
28898SOL    HW190192   6.139   7.266   5.050 -0.2381 -1.6578  2.5223
28898SOL    HW290193   6.277   7.246   5.108  0.0716 -0.2327  2.2990
28899SOL     OW90194   7.810   1.745   1.378 -0.0887  0.4381 -0.0171
28899SOL    HW190195   7.753   1.672   1.403  0.1368  0.1818 -0.2332
28899SOL    HW290196   7.899   1.710   1.389  0.0265  0.7881  0.1898
28900SOL     OW90197   4.477   7.402   1.800  0.6499 -0.0631 -0.7852
28900SOL    HW190198   4.560   7.356   1.789 -0.1403 -2.0127  0.8402
28900SOL    HW290199   4.412   7.333   1.811 -1.2424  1.4158 -2.0476
28901SOL     OW90200   1.128   8.187   5.648 -0.3175 -0.2582 -0.1400
28901SOL    HW190201   1.157   8.119   5.587 -1.0154 -1.4136  0.7579
28901SOL    HW290202   1.032   8.185   5.641 -0.4003 -0.2496  0.7916
28902SOL     OW90203   5.913   1.745   5.476  0.7892 -0.0480 -0.2921
28902SOL    HW190204   5.959   1.791   5.406  0.8628  1.2608  0.5912
28902SOL    HW290205   5.981   1.725   5.540  0.9813 -2.4421 -1.1266
28903SOL     OW90206   6.056   0.627   0.301 -0.0118  0.4256  0.0628
28903SOL    HW190207   6.124   0.690   0.278  0.5864 -0.7752 -1.6738
28903SOL    HW290208   6.083   0.546   0.257 -0.0286 -1.4850  3.2405
28904SOL     OW90209   1.488   1.050   5.288  0.1203  0.1202 -0.1402
28904SOL    HW190210   1.404   1.004   5.298  0.0510 -0.4526 -2.7080
28904SOL    HW290211   1.465   1.133   5.246  0.5812  1.2647  1.7652
28905SOL     OW90212   7.238   9.501   7.612 -0.1412  0.4136 -0.1254
28905SOL    HW190213   7.278   9.585   7.593 -0.0652  1.6392  4.2298
28905SOL    HW290214   7.311   9.446   7.642 -0.4756 -0.5386 -1.0068
28906SOL     OW90215   5.728   6.773   3.003 -0.3579  0.0421 -0.1528
28906SOL    HW190216   5.789   6.833   3.046  0.8951 -0.2892 -1.3979
28906SOL    HW290217   5.719   6.700   3.065  0.3349  0.2069  0.1554
28907SOL     OW90218   2.313   2.329   8.758 -0.4133 -0.2865  0.0109
28907SOL    HW190219   2.385   2.284   8.714 -0.7344 -1.4491  0.6147
28907SOL    HW290220   2.353   2.407   8.796  0.9282 -1.6471  1.6197
28908SOL     OW90221   2.643   8.114   8.305  0.1764  0.5984  0.0794
28908SOL    HW190222   2.652   8.104   8.210 -0.7504  1.5368 -0.1264
28908SOL    HW290223   2.551   8.135   8.318  0.2799  0.3867  1.2054
28909SOL     OW90224   7.785   5.553   3.241  0.2609 -0.8503  0.2611
28909SOL    HW190225   7.707   5.498   3.251 -1.4609  1.2778 -0.7315
28909SOL    HW290226   7.816   5.534   3.153 -0.5228 -0.0394 -0.2020
28910SOL     OW90227   5.476  10.333  10.937  0.2645  0.2441 -0.0025
28910SOL    HW190228   5.558  10.309  10.979 -0.2629 -0.7527  0.4993
28910SOL    HW290229   5.470  10.428  10.948  0.5966  0.1307  1.3592
28911SOL     OW90230   2.812   6.694   0.731  0.1044 -0.0774 -0.5093
28911SOL    HW190231   2.787   6.602   0.736  1.3844 -0.4693 -0.7986
28911SOL    HW290232   2.852   6.703   0.644  2.2448  0.1096  0.4392
28912SOL     OW90233   7.534   4.418   9.783 -0.3607  0.1677 -0.0840
28912SOL    HW190234   7.590   4.449   9.854 -0.4817  1.3941 -0.4992
28912SOL    HW290235   7.564   4.466   9.706 -1.6004  0.4125 -0.4334
28913SOL     OW90236   6.922   0.313   4.646  0.3902  0.1792 -0.0604
28913SOL    HW190237   6.839   0.351   4.617  0.1786 -0.8904 -0.9286
28913SOL    HW290238   6.967   0.289   4.565  0.4454 -1.5566  0.4546
28914SOL     OW90239   1.660   2.419   8.089 -0.3798 -0.0403 -0.4074
28914SOL    HW190240   1.623   2.381   8.168  0.9916 -0.0748  0.2439
28914SOL    HW290241   1.669   2.512   8.110  1.6294 -0.3202  0.1873
28915SOL     OW90242   7.582   1.434   4.626  0.3125 -0.5023  0.0092
28915SOL    HW190243   7.541   1.348   4.638  0.6825 -0.6811  0.0042
28915SOL    HW290244   7.676   1.415   4.619  0.2285 -0.3159 -2.1655
28916SOL     OW90245   1.185   1.282   2.582 -0.0579 -0.0701  0.1081
28916SOL    HW190246   1.211   1.369   2.612 -0.6666  0.0697  0.2506
28916SOL    HW290247   1.197   1.284   2.487 -0.6035  0.3660  0.0412
28917SOL     OW90248   0.399   1.578   3.050 -0.4591  0.1757  1.0672
28917SOL    HW190249   0.454   1.500   3.059 -1.1225 -0.4028  0.3475
28917SOL    HW290250   0.313   1.543   3.024 -0.2834  1.2505 -1.1626
28918SOL     OW90251   2.152   2.029   3.503 -0.4510  0.0742 -0.0534
28918SOL    HW190252   2.110   2.105   3.543 -1.2096 -0.3444 -0.0202
28918SOL    HW290253   2.169   2.056   3.413 -0.5369  0.3555  0.0129
28919SOL     OW90254   7.795   2.475   1.369  0.2933 -0.9930  0.1347
28919SOL    HW190255   7.804   2.482   1.464 -5.9901  0.6195  1.0405
28919SOL    HW290256   7.799   2.565   1.337  1.0165 -1.4033 -1.0024
28920SOL     OW90257   2.617   8.732   2.629 -0.5239 -0.5853  0.1289
28920SOL    HW190258   2.625   8.827   2.622 -0.5218 -0.6545 -1.1442
28920SOL    HW290259   2.573   8.706   2.548 -1.0449 -1.6119  0.7330
28921SOL     OW90260   7.066   8.844   5.044 -0.3613 -0.1743  0.5260
28921SOL    HW190261   7.140   8.868   4.988 -0.3959 -2.3061 -0.5451
28921SOL    HW290262   7.095   8.765   5.089 -1.7472 -0.7073  0.5409
28922SOL     OW90263  10.524   3.624   9.072  0.5739 -0.0373  0.1086
28922SOL    HW190264  10.612   3.608   9.107  0.3234  0.0116  0.7811
28922SOL    HW290265  10.474   3.654   9.148  0.5245  2.0689 -0.6932
28923SOL     OW90266   1.939   4.168   4.507 -0.1406  0.1357  0.3854
28923SOL    HW190267   1.978   4.090   4.549 -2.2555  0.2717  2.8882
28923SOL    HW290268   1.854   4.137   4.476  0.1564  0.8239 -1.1549
28924SOL     OW90269   5.131   3.931   0.743  0.8570 -0.4546 -0.5641
28924SOL    HW190270   5.100   4.009   0.697  2.4710  2.1947  2.4335
28924SOL    HW290271   5.057   3.870   0.740 -2.2022  2.8855  0.5430
28925SOL     OW90272   3.879   5.202   6.259 -0.4844 -0.0408 -0.0657
28925SOL    HW190273   3.974   5.201   6.272 -0.7043 -0.0903  1.7635
28925SOL    HW290274   3.852   5.287   6.294 -0.8990  0.9833 -2.6624
28926SOL     OW90275   2.519   4.694  10.522 -0.3966  0.5258  0.2765
28926SOL    HW190276   2.576   4.740  10.460 -0.3532  0.6834  0.4312
28926SOL    HW290277   2.453   4.760  10.547 -0.1321  0.6134  0.7611
28927SOL     OW90278   9.794   4.374   8.359  0.1509  0.2371  0.0062
28927SOL    HW190279   9.790   4.322   8.279 -0.1680  1.1290 -0.5769
28927SOL    HW290280   9.708   4.364   8.399  0.2591 -0.0857  0.1589
28928SOL     OW90281   9.496  10.504   5.303 -0.3061  0.5017  0.0279
28928SOL    HW190282   9.543  10.586   5.318  1.2467 -0.1793 -0.9166
28928SOL    HW290283   9.499  10.491   5.209  0.1566 -1.0110  0.2216
28929SOL     OW90284   5.243  10.603   8.719 -0.3194  0.0390  0.0973
28929SOL    HW190285   5.306  10.664   8.758  0.3618 -0.5007 -0.1387
28929SOL    HW290286   5.206  10.651   8.645  0.3304  0.1201 -0.1886
28930SOL     OW90287   9.384   6.858   3.994 -0.1765  0.0542 -0.6251
28930SOL    HW190288   9.474   6.849   4.025 -0.8007 -0.5844  1.1069
28930SOL    HW290289   9.331   6.812   4.060 -1.7536  0.2644 -1.6992
28931SOL     OW90290   4.791   9.587   4.690  0.4679 -0.2423  0.2028
28931SOL    HW190291   4.698   9.602   4.706  0.1350  0.3086 -1.9890
28931SOL    HW290292   4.835   9.651   4.747 -0.6137  1.3523 -0.6756
28932SOL     OW90293   8.726   6.960   2.802  0.1474 -0.3983 -0.2140
28932SOL    HW190294   8.690   6.957   2.891 -0.6705  4.0064 -0.1590
28932SOL    HW290295   8.820   6.974   2.815 -0.0119  0.5314  0.0119
28933SOL     OW90296   9.027   6.115   8.432  0.1368 -0.1101  1.0499
28933SOL    HW190297   8.952   6.171   8.451 -0.9712 -1.4927  0.8894
28933SOL    HW290298   8.989   6.033   8.399  1.7032 -0.9422  1.1972
28934SOL     OW90299   7.850   0.412   0.358  0.2793 -0.0837 -0.2735
28934SOL    HW190300   7.851   0.324   0.322 -0.0089  0.5181 -1.8249
28934SOL    HW290301   7.764   0.448   0.333  0.0310  0.3457  1.1003
28935SOL     OW90302   2.665   8.594   4.293  0.3360 -0.4209 -0.1363
28935SOL    HW190303   2.735   8.542   4.332 -0.5190  0.3847  2.7668
28935SOL    HW290304   2.599   8.529   4.267  0.4549 -0.9933  0.9055
28936SOL     OW90305   1.057   8.756   9.583 -0.2911 -0.3857 -0.5174
28936SOL    HW190306   1.011   8.785   9.504 -0.0849 -0.8421 -0.8118
28936SOL    HW290307   1.009   8.679   9.613 -1.1738  0.5536  0.5880
28937SOL     OW90308   4.812   5.412   0.261  0.3022  0.0670  0.1206
28937SOL    HW190309   4.719   5.391   0.254  0.7894 -1.8271 -1.7718
28937SOL    HW290310   4.836   5.445   0.175  1.3195  1.0283  0.7351
28938SOL     OW90311   8.263   4.378   6.224  0.5187 -0.1728 -0.3302
28938SOL    HW190312   8.335   4.327   6.187  0.3097  0.6366 -1.9512
28938SOL    HW290313   8.271   4.464   6.183  0.3684  0.8568  1.7174
28939SOL     OW90314   8.302   1.570   1.290 -0.4663  0.1584  0.0935
28939SOL    HW190315   8.207   1.560   1.300 -0.4123 -0.4801  0.0165
28939SOL    HW290316   8.339   1.531   1.369 -0.2508 -0.1946 -0.1731
28940SOL     OW90317   0.351   4.333   4.808  0.0222  1.1444  0.0941
28940SOL    HW190318   0.408   4.287   4.870 -1.0327  0.2932  0.4534
28940SOL    HW290319   0.331   4.417   4.851  2.6424  2.4086 -0.9299
28941SOL     OW90320   5.156   9.330   4.063 -0.1797  0.7206  0.3170
28941SOL    HW190321   5.077   9.318   4.010 -0.4358  0.8408  0.6660
28941SOL    HW290322   5.199   9.407   4.025  0.2553  0.1049 -0.4568
28942SOL     OW90323   4.116   7.509   6.120  0.2147 -0.5617 -0.3603
28942SOL    HW190324   4.158   7.595   6.119  0.9111 -0.8933 -1.9172
28942SOL    HW290325   4.150   7.467   6.199 -0.1913  0.5896  0.4629
28943SOL     OW90326   4.390   1.144  10.847 -0.0246  0.4702 -0.5387
28943SOL    HW190327   4.337   1.191  10.912 -0.2322 -0.6619  0.1241
28943SOL    HW290328   4.352   1.170  10.763 -1.0909  0.3546 -0.1115
28944SOL     OW90329   6.852   5.744   2.002 -0.0739 -0.4798  0.6357
28944SOL    HW190330   6.761   5.728   1.978 -0.4240  1.5931  0.3240
28944SOL    HW290331   6.846   5.797   2.081  0.8741 -0.6138  0.8058
28945SOL     OW90332   5.337   8.897   6.049  0.1482 -0.0730 -0.6011
28945SOL    HW190333   5.343   8.938   5.962 -0.5440  2.0799  0.3113
28945SOL    HW290334   5.388   8.954   6.106  2.4266 -2.5924  0.1298
28946SOL     OW90335   6.462  10.359   0.656 -0.2813  0.1881  0.3470
28946SOL    HW190336   6.414  10.284   0.621  1.3285 -0.8429  0.2410
28946SOL    HW290337   6.554  10.336   0.644  0.2683  2.5917 -0.5270
28947SOL     OW90338  10.812   8.126   9.676 -0.0318  0.5563 -0.2205
28947SOL    HW190339  10.738   8.079   9.714  1.4969  0.9690  3.8355
28947SOL    HW290340  10.778   8.213   9.655 -0.9403  0.4524  0.7438
28948SOL     OW90341   8.980   1.851   8.102 -0.0203 -0.0570  0.2900
28948SOL    HW190342   8.917   1.876   8.035 -0.1620  0.2049  0.5216
28948SOL    HW290343   8.954   1.900   8.180 -1.2801 -2.0789  1.2349
28949SOL     OW90344   8.001   8.195   4.376  0.4569 -0.4362 -0.2862
28949SOL    HW190345   8.096   8.206   4.380  0.5150 -1.0705  0.2193
28949SOL    HW290346   7.967   8.257   4.441  0.6028 -1.0650  0.4003
28950SOL     OW90347   9.837   0.152   0.148  0.1164 -0.4853  0.0544
28950SOL    HW190348   9.847   0.242   0.116 -0.4525 -0.2549  0.4935
28950SOL    HW290349   9.923   0.112   0.136  0.5704  0.3259  0.4784
28951SOL     OW90350   8.556   6.750   2.676 -0.0211 -0.1625  0.1820
28951SOL    HW190351   8.605   6.668   2.674 -0.5145 -0.4600  0.1471
28951SOL    HW290352   8.621   6.817   2.695  0.2116 -0.6984  1.3460
28952SOL     OW90353   7.910   3.484   0.003  0.0905  0.0168 -0.0608
28952SOL    HW190354   7.885   3.574  -0.016  1.3592  0.6459  1.0585
28952SOL    HW290355   8.006   3.484  -0.002  0.1582 -1.0253  0.8987
28953SOL     OW90356   3.112   9.808   7.701  0.3508 -0.5461  0.1326
28953SOL    HW190357   3.162   9.812   7.782  0.2820  0.9296  0.1240
28953SOL    HW290358   3.100   9.714   7.685 -0.3639 -0.8673  2.2556
28954SOL     OW90359   9.459   1.315   1.325 -0.3328  0.0612 -0.1761
28954SOL    HW190360   9.375   1.269   1.334 -1.3669  1.9955  0.5121
28954SOL    HW290361   9.501   1.306   1.410 -0.4847  0.2921 -0.0764
28955SOL     OW90362   8.671   2.064   9.892  0.3107  0.5881 -0.2419
28955SOL    HW190363   8.600   2.014   9.933  0.3417  1.1621  0.5316
28955SOL    HW290364   8.695   2.012   9.815 -0.8442  0.3141 -0.4361
28956SOL     OW90365   6.117   9.955   2.337  0.3044 -0.3972  0.6139
28956SOL    HW190366   6.029   9.919   2.327 -0.0846  0.0494  2.2077
28956SOL    HW290367   6.123   9.978   2.429  1.8891  0.1361  0.3986
28957SOL     OW90368   7.649   0.404   8.121  0.2406  0.3851  0.2236
28957SOL    HW190369   7.590   0.332   8.143  0.1219  0.7901  1.2801
28957SOL    HW290370   7.608   0.446   8.045 -0.2559  0.0035  0.2729
28958SOL     OW90371   6.071   1.192   3.395 -0.1011 -0.3258  0.3994
28958SOL    HW190372   5.989   1.182   3.442 -0.0051 -0.1964  0.5973
28958SOL    HW290373   6.134   1.141   3.446 -0.3400 -1.5461 -0.4992
28959SOL     OW90374   1.577   1.203   5.535 -0.7433 -0.1725 -0.2497
28959SOL    HW190375   1.565   1.294   5.507  1.4226 -0.0959 -1.0989
28959SOL    HW290376   1.569   1.152   5.455 -3.3361 -0.9617  0.4139
28960SOL     OW90377   7.141   1.636   7.729 -0.2142 -0.2053 -0.3156
28960SOL    HW190378   7.127   1.694   7.804  2.1393 -2.4544  2.0250
28960SOL    HW290379   7.234   1.645   7.709 -0.2399 -1.6748 -1.2036
28961SOL     OW90380  10.698   9.341   7.937 -0.5196  0.3377  0.3049
28961SOL    HW190381  10.615   9.375   7.905 -0.2526  0.2318 -0.5227
28961SOL    HW290382  10.730   9.408   7.997 -1.6379 -0.0475  1.3712
28962SOL     OW90383   5.145   3.103   5.859  0.0627  0.1956 -0.0813
28962SOL    HW190384   5.063   3.096   5.811  0.4461 -1.2568 -0.5926
28962SOL    HW290385   5.158   3.016   5.898  1.5075  0.2775 -0.2955
28963SOL     OW90386   4.629   0.245  10.492 -0.9931  0.1476  0.4242
28963SOL    HW190387   4.633   0.203  10.406 -1.1070 -0.0169  0.5004
28963SOL    HW290388   4.712   0.221  10.534 -0.3182  1.3471 -0.1586
28964SOL     OW90389   8.299  10.004   7.842  0.0796  0.3364  0.0462
28964SOL    HW190390   8.311   9.936   7.776 -1.9842  1.5733 -1.7481
28964SOL    HW290391   8.387  10.036   7.860  0.7226  0.0147 -2.2168
28965SOL     OW90392   8.917   2.354   8.779 -0.1352 -0.4622  0.4381
28965SOL    HW190393   8.840   2.409   8.794 -1.1458 -1.2216 -1.6725
28965SOL    HW290394   8.891   2.267   8.809 -0.4956 -0.9369 -1.1657
28966SOL     OW90395   3.119   6.404   7.355 -0.1409 -0.4427 -0.2107
28966SOL    HW190396   3.027   6.417   7.334 -0.5688 -0.6367  1.3745
28966SOL    HW290397   3.125   6.426   7.448  1.6288  0.5798 -0.5228
28967SOL     OW90398   6.769   8.734   4.115 -0.4056  0.1071 -0.3473
28967SOL    HW190399   6.767   8.709   4.208 -1.0546 -0.3161 -0.4741
28967SOL    HW290400   6.817   8.663   4.073  0.0087  0.3669 -0.3196
28968SOL     OW90401   2.818   4.039   3.976  0.1028  0.7001 -0.1154
28968SOL    HW190402   2.802   4.048   3.882  0.4824  0.1957 -0.2287
28968SOL    HW290403   2.887   4.103   3.995  2.5554 -1.5671 -0.8581
28969SOL     OW90404   2.993   2.846   0.769  0.2243 -0.2175 -0.1241
28969SOL    HW190405   2.965   2.937   0.777 -1.3895 -0.7717  1.0603
28969SOL    HW290406   2.917   2.800   0.734  0.7167 -1.2691  0.1501
28970SOL     OW90407   4.901   0.490   8.038 -0.1320  0.3174 -0.0540
28970SOL    HW190408   4.808   0.506   8.022 -0.6779 -1.2736  1.2360
28970SOL    HW290409   4.903   0.407   8.085  1.8859  0.7893  0.7930
28971SOL     OW90410  10.732   4.307   9.766  0.3308  0.0864  0.5961
28971SOL    HW190411  10.664   4.326   9.831  0.4337 -0.9818  1.0395
28971SOL    HW290412  10.759   4.393   9.735 -1.6389  0.5378 -0.0379
28972SOL     OW90413   0.916   7.108   6.920  0.5464 -0.1955  0.0232
28972SOL    HW190414   0.943   7.053   6.994  2.4710  1.6042  0.7937
28972SOL    HW290415   0.864   7.178   6.961  1.6586  0.8369 -0.2643
28973SOL     OW90416   7.367   1.691   8.921  0.3682  0.0680  0.1822
28973SOL    HW190417   7.307   1.616   8.918  1.1331 -0.5927  1.0819
28973SOL    HW290418   7.406   1.694   8.834  0.7421 -0.9208  0.3103
28974SOL     OW90419   2.879   7.996   9.571 -0.0415  0.0486  0.1754
28974SOL    HW190420   2.921   7.982   9.486  0.3051 -1.2302  0.5402
28974SOL    HW290421   2.786   8.011   9.550 -0.5306 -2.9860 -0.3357
28975SOL     OW90422   8.597   2.650  10.552 -0.2686  0.2691  0.2620
28975SOL    HW190423   8.533   2.694  10.609  0.2618  2.4606 -0.7285
28975SOL    HW290424   8.675   2.705  10.557 -0.0381  0.2512 -2.1855
28976SOL     OW90425   5.705   6.773   4.586  0.3697 -0.1759 -0.0831
28976SOL    HW190426   5.731   6.859   4.554 -1.4702  1.1073  1.6054
28976SOL    HW290427   5.707   6.717   4.509  0.7621  1.5881 -1.4219
28977SOL     OW90428   8.868   9.463   3.813  0.8246  0.1297 -0.2684
28977SOL    HW190429   8.921   9.396   3.770 -1.2322 -1.6615 -0.1755
28977SOL    HW290430   8.857   9.431   3.903  0.2445  0.8442 -0.0729
28978SOL     OW90431   3.468  10.485   4.221 -0.0599  0.4328  0.0962
28978SOL    HW190432   3.507  10.412   4.172  1.1388  1.6844 -0.9215
28978SOL    HW290433   3.501  10.563   4.176 -1.1069  1.6067  1.3008
28979SOL     OW90434   2.698   5.908   0.605 -0.3852 -0.6539 -0.0275
28979SOL    HW190435   2.685   6.002   0.608 -0.0562 -0.6241  0.6003
28979SOL    HW290436   2.643   5.874   0.676 -1.5884 -1.0689 -1.1247
28980SOL     OW90437   3.201   1.435   8.535 -0.1210  0.4710  0.2777
28980SOL    HW190438   3.268   1.444   8.602  0.8657 -0.4641 -0.5540
28980SOL    HW290439   3.118   1.439   8.583  0.5086  1.5152  1.3332
28981SOL     OW90440   0.361   2.853   4.175 -0.0103 -1.3516  0.0664
28981SOL    HW190441   0.311   2.863   4.256  2.0438 -0.9052  1.3540
28981SOL    HW290442   0.315   2.910   4.112  0.3144  1.1527  1.9095
28982SOL     OW90443   0.625   3.338   8.809 -0.3407  0.3084 -0.0375
28982SOL    HW190444   0.565   3.406   8.841 -0.7141  0.8250 -1.7381
28982SOL    HW290445   0.569   3.262   8.794  0.0349 -0.3316  1.6167
28983SOL     OW90446  10.649   8.627   5.083  0.0612 -0.2334 -0.3821
28983SOL    HW190447  10.664   8.720   5.069  1.5257 -0.2361  0.8766
28983SOL    HW290448  10.730   8.585   5.055  0.2745 -0.8847  1.1265
28984SOL     OW90449  10.063   8.752   2.103 -0.6757  0.6266 -0.1070
28984SOL    HW190450  10.076   8.708   2.187 -3.0838  1.1243  0.6012
28984SOL    HW290451  10.135   8.720   2.048  0.2425 -0.6775  1.7420
28985SOL     OW90452  10.862   7.893   0.049 -0.7021 -0.4228  0.2881
28985SOL    HW190453  10.912   7.868   0.127  0.7699 -0.2501 -0.5587
28985SOL    HW290454  10.838   7.810   0.008 -1.7850 -0.5216  1.0872
28986SOL     OW90455   4.864   1.791   7.849  0.1265 -0.2874 -0.8860
28986SOL    HW190456   4.849   1.835   7.933  1.8129  0.8580 -1.1460
28986SOL    HW290457   4.782   1.745   7.831 -0.8984  0.9288  0.5027
28987SOL     OW90458   8.357   6.318   6.126 -0.2447  0.1867 -0.1305
28987SOL    HW190459   8.268   6.310   6.158 -0.7968  2.5362 -0.8710
28987SOL    HW290460   8.347   6.339   6.033  1.0858  0.3152 -0.2662
28988SOL     OW90461   7.434   4.705  10.086 -0.1261  0.4231 -0.1047
28988SOL    HW190462   7.353   4.752  10.108  0.1212  0.8528 -0.0989
28988SOL    HW290463   7.468   4.675  10.170 -1.3385 -1.5626 -0.2606
28989SOL     OW90464   6.796   1.126   7.370  0.4230  0.3979 -0.2249
28989SOL    HW190465   6.835   1.130   7.458  0.3051  1.5854 -0.2136
28989SOL    HW290466   6.785   1.217   7.345  2.6014  0.1471 -2.4453
28990SOL     OW90467   5.017   1.327   8.280 -0.4279 -0.2384  0.3529
28990SOL    HW190468   5.035   1.263   8.211  1.0599 -0.7397  1.1512
28990SOL    HW290469   4.942   1.292   8.328 -0.4185 -0.7327  0.0057
28991SOL     OW90470   8.507  10.361  10.900  0.3959 -0.2021  0.0795
28991SOL    HW190471   8.559  10.301  10.954  1.7570  0.2846 -0.6338
28991SOL    HW290472   8.513  10.445  10.945  1.8319  0.2901 -0.9484
28992SOL     OW90473   4.046   5.785   0.788  0.0339 -0.1630 -0.3380
28992SOL    HW190474   4.128   5.741   0.766 -0.7400 -1.2557 -1.0853
28992SOL    HW290475   3.977   5.728   0.754 -1.0539  0.6855  0.3644
28993SOL     OW90476   4.364   9.616   3.649  0.4964  0.1754 -0.0277
28993SOL    HW190477   4.340   9.632   3.741  0.3153  1.8688 -0.3445
28993SOL    HW290478   4.280   9.600   3.605  0.6065 -0.9281  0.1286
28994SOL     OW90479   9.130   1.026   5.222 -0.0244  0.6626  0.0119
28994SOL    HW190480   9.108   0.991   5.135  1.6594 -0.7048  0.0541
28994SOL    HW290481   9.108   1.118   5.217  0.3713  0.7121 -2.0415
28995SOL     OW90482   4.392   1.101   3.642 -0.0299  0.0785  0.1951
28995SOL    HW190483   4.416   1.010   3.660  0.2425 -0.0490 -0.7173
28995SOL    HW290484   4.473   1.150   3.655  0.3257 -0.0969 -1.1347
28996SOL     OW90485   8.626   8.798   2.341  0.2152 -0.2557 -0.0700
28996SOL    HW190486   8.630   8.869   2.405  0.4921  1.3981 -1.8046
28996SOL    HW290487   8.595   8.722   2.390 -1.8298  1.4931  1.5313
28997SOL     OW90488  10.306   0.784   1.193  0.2428  0.2790 -0.3257
28997SOL    HW190489  10.283   0.828   1.275 -0.4887 -1.1416  0.2694
28997SOL    HW290490  10.222   0.760   1.154  0.5652 -1.7300  0.0588
28998SOL     OW90491   4.588  10.628   8.165 -0.1076  0.3937  1.5098
28998SOL    HW190492   4.509  10.579   8.142  0.5547 -0.1513  0.2708
28998SOL    HW290493   4.658  10.563   8.158  0.5700  1.1064  1.5937
28999SOL     OW90494   6.460  10.535   0.011 -0.0094  0.4088 -0.3337
28999SOL    HW190495   6.512  10.612  -0.011 -1.3045  1.7281  0.9621
28999SOL    HW290496   6.420  10.556   0.095 -0.1186 -1.8626  0.2639
29000SOL     OW90497   6.042   0.548   6.652 -0.3434  0.6449  0.0110
29000SOL    HW190498   6.091   0.468   6.636  0.3257  0.6682  1.7833
29000SOL    HW290499   5.978   0.551   6.581 -0.3301 -1.4084 -0.1445
29001SOL     OW90500   4.797  10.468   6.943 -0.2171  0.0836 -0.7261
29001SOL    HW190501   4.858  10.395   6.940  0.9629  1.0567 -3.2165
29001SOL    HW290502   4.776  10.479   7.036  1.4895 -1.8128 -0.0608
29002SOL     OW90503   8.721   7.140   8.769  0.4087 -0.0754  0.3734
29002SOL    HW190504   8.639   7.127   8.721  0.2735 -3.0001  1.2085
29002SOL    HW290505   8.720   7.233   8.793 -2.0497  0.2625 -0.6912
29003SOL     OW90506   1.925   9.205  10.330  0.4573  0.1166  0.1367
29003SOL    HW190507   1.850   9.264  10.341  0.1686 -0.4886  1.6810
29003SOL    HW290508   1.886   9.121  10.305  0.8794  0.5655 -2.2371
29004SOL     OW90509   7.898   2.497  11.009 -0.4845 -0.2242  0.1256
29004SOL    HW190510   7.804   2.480  11.003 -0.5464 -0.3072  1.2923
29004SOL    HW290511   7.925   2.458  11.091  0.4147  0.5308  0.2062
29005SOL     OW90512   8.706   0.247   9.200 -0.0046 -0.3837  0.5189
29005SOL    HW190513   8.788   0.296   9.190 -1.1464  1.4605 -0.2503
29005SOL    HW290514   8.692   0.242   9.295  1.8988 -2.3639  0.7626
29006SOL     OW90515   8.023   5.137   7.657 -0.3938  0.8061 -0.6139
29006SOL    HW190516   8.059   5.181   7.579 -2.1258  1.3299 -1.1532
29006SOL    HW290517   7.928   5.146   7.648 -0.7184 -1.0805  0.4306
29007SOL     OW90518  10.850   5.938  10.476 -0.0102  0.0390  1.0787
29007SOL    HW190519  10.910   5.919  10.548 -1.0736  0.4302  2.0912
29007SOL    HW290520  10.812   6.023  10.497 -1.1009 -0.3050  0.5973
29008SOL     OW90521   8.247   8.240   4.484 -0.6582  0.5517 -0.9053
29008SOL    HW190522   8.328   8.287   4.504 -0.5332  0.3287 -0.8903
29008SOL    HW290523   8.241   8.173   4.551 -0.0890 -0.3875 -1.7710
29009SOL     OW90524   2.397   3.813   4.860  0.4186 -0.1830  0.2417
29009SOL    HW190525   2.431   3.840   4.775 -1.1971 -0.5700 -0.5790
29009SOL    HW290526   2.337   3.883   4.885 -0.4198 -0.8786  0.2216
29010SOL     OW90527   0.096   2.879   1.030  0.5324 -0.2237 -0.0105
29010SOL    HW190528   0.039   2.891   0.954 -0.1815  2.7540  0.8676
29010SOL    HW290529   0.050   2.922   1.102  1.3279 -2.6689  2.1292
29011SOL     OW90530   2.918   1.866  10.260  0.1035  0.3107  0.3231
29011SOL    HW190531   2.904   1.898  10.171  2.7797 -1.0609 -0.6852
29011SOL    HW290532   2.901   1.942  10.315 -3.0537  0.8355 -1.1487
29012SOL     OW90533   4.683   4.435  10.918  0.1248 -0.1190  0.0819
29012SOL    HW190534   4.709   4.368  10.981  0.3979 -1.6361 -1.5800
29012SOL    HW290535   4.609   4.396  10.871  0.1564  0.8219 -0.7769
29013SOL     OW90536   1.890   9.013   3.884  0.0075  0.1841 -0.0306
29013SOL    HW190537   1.970   8.974   3.847 -1.2034 -1.6375 -0.8468
29013SOL    HW290538   1.909   9.107   3.887  1.6894 -0.0536 -1.4679
29014SOL     OW90539   6.709   8.520   7.509 -0.0352  0.1307  0.3235
29014SOL    HW190540   6.705   8.455   7.439 -0.8646  1.8699 -1.3386
29014SOL    HW290541   6.619   8.527   7.541 -0.5133  2.2266 -1.2908
29015SOL     OW90542  10.141   6.733   1.327  0.4664  0.4450 -0.3974
29015SOL    HW190543  10.147   6.803   1.262 -1.0929  1.3681  0.3868
29015SOL    HW290544  10.228   6.692   1.327  1.2213  1.9616 -1.3280
29016SOL     OW90545   2.575   3.403   3.903 -0.1580  0.6008 -0.7427
29016SOL    HW190546   2.647   3.389   3.842 -0.8326 -0.7050 -1.2846
29016SOL    HW290547   2.497   3.413   3.848 -0.8243 -0.8670 -0.1417
29017SOL     OW90548   7.609   5.172   7.913 -0.4028 -0.0541 -0.0919
29017SOL    HW190549   7.647   5.160   8.000  0.8715  0.4875 -0.5421
29017SOL    HW290550   7.515   5.163   7.926 -0.1836 -0.6867  1.2122
29018SOL     OW90551   4.513   5.772   9.285  0.1786  0.0008 -0.7139
29018SOL    HW190552   4.552   5.858   9.272  0.2441  0.3254  1.3262
29018SOL    HW290553   4.581   5.710   9.259  1.1960  0.5655  0.5348
29019SOL     OW90554   5.217   9.871   9.477 -0.2418 -0.2677 -0.1364
29019SOL    HW190555   5.260   9.790   9.505 -0.2202 -0.0501  0.4770
29019SOL    HW290556   5.265   9.898   9.399 -0.3147 -0.8998 -0.4081
29020SOL     OW90557   9.564   7.663  10.254 -0.8521  0.4844 -0.2330
29020SOL    HW190558   9.546   7.695  10.342 -0.1693 -1.1477  0.5329
29020SOL    HW290559   9.478   7.656  10.213 -1.1365  1.7359  0.1120
29021SOL     OW90560   2.832   3.412   3.337  0.1390  0.1790  0.5373
29021SOL    HW190561   2.830   3.507   3.327  0.3454  0.0637 -0.7815
29021SOL    HW290562   2.751   3.382   3.296  0.6843 -0.2864 -0.2458
29022SOL     OW90563   8.617   8.738   8.050 -0.1193 -0.3514  0.6133
29022SOL    HW190564   8.683   8.713   7.985  0.3093  0.6429  0.6387
29022SOL    HW290565   8.667   8.745   8.132 -0.7394 -2.0724  1.1834
29023SOL     OW90566   2.074   9.430   7.062  0.0399 -0.1535 -0.9087
29023SOL    HW190567   2.081   9.339   7.091 -2.4405 -0.7292 -1.9443
29023SOL    HW290568   1.997   9.433   7.006 -0.1584  2.6807 -0.6580
29024SOL     OW90569   0.237   4.439   7.701 -0.3546  1.0489  0.5963
29024SOL    HW190570   0.298   4.509   7.680 -0.1646  1.1909  1.6068
29024SOL    HW290571   0.272   4.362   7.655  0.5790  1.1301  1.1539
29025SOL     OW90572   2.060  10.540   6.983 -0.5088  0.3269 -0.3054
29025SOL    HW190573   2.010  10.460   7.001  0.5949 -0.5194 -0.8574
29025SOL    HW290574   2.152  10.511   6.983  0.1703  2.1041  2.2341
29026SOL     OW90575   3.517   6.690   2.784 -0.4014  0.2226 -0.0034
29026SOL    HW190576   3.580   6.704   2.855 -0.1771  0.7479 -0.2990
29026SOL    HW290577   3.431   6.697   2.826 -0.2785  1.0390  0.1383
29027SOL     OW90578   6.097   4.828  10.077  0.2515  0.0478 -0.4097
29027SOL    HW190579   6.169   4.793  10.129  0.5391 -0.2455 -0.9918
29027SOL    HW290580   6.122   4.808   9.986 -1.2222 -1.3492 -0.5545
29028SOL     OW90581  10.820  10.259   0.339  0.3901 -0.1104  0.3897
29028SOL    HW190582  10.891  10.195   0.336  0.2416 -0.3277  1.1065
29028SOL    HW290583  10.740  10.205   0.333  0.2744  0.0667  0.3357
29029SOL     OW90584   3.213  10.605   4.748  0.4372 -0.2956  0.4295
29029SOL    HW190585   3.175  10.653   4.674 -0.8388 -1.9744 -0.0682
29029SOL    HW290586   3.300  10.578   4.718  1.4768  2.1836  0.9677
29030SOL     OW90587   7.096   5.596   0.475 -0.2877 -0.1003 -0.0202
29030SOL    HW190588   7.058   5.508   0.476 -0.8093  0.1126  1.1127
29030SOL    HW290589   7.176   5.588   0.527 -0.2742  0.0623 -0.0158
29031SOL     OW90590   5.800   0.473   5.085  0.4439  0.5391  0.1776
29031SOL    HW190591   5.744   0.518   5.149  0.9633  0.3294  0.7879
29031SOL    HW290592   5.817   0.540   5.019 -3.0049 -0.2036 -1.6910
29032SOL     OW90593   8.000   5.276   6.013  0.2863 -0.1826 -0.0662
29032SOL    HW190594   7.974   5.197   6.062 -0.8267  1.2199  1.7611
29032SOL    HW290595   7.918   5.310   5.978  0.1256  2.0119  2.1690
29033SOL     OW90596   8.501   1.827  10.872 -0.4293  0.2842 -0.1433
29033SOL    HW190597   8.409   1.844  10.851 -0.0022  0.4345 -2.1589
29033SOL    HW290598   8.537   1.912  10.897 -0.3438  0.7005 -1.5882
29034SOL     OW90599   2.316   4.127   3.307  0.6049  0.0325 -0.3053
29034SOL    HW190600   2.241   4.128   3.248  1.2468  1.1282 -1.1278
29034SOL    HW290601   2.383   4.179   3.263  1.4847 -0.0302  0.8956
29035SOL     OW90602   8.460   9.680   0.344 -0.1829  0.1103 -0.2072
29035SOL    HW190603   8.390   9.744   0.328  0.7403  1.3592  0.5519
29035SOL    HW290604   8.513   9.720   0.413  1.1815 -0.8821 -0.6483
29036SOL     OW90605   1.256   5.071   3.032 -0.1867 -0.2699 -0.3358
29036SOL    HW190606   1.224   5.152   2.993 -0.6918  0.3649  1.2839
29036SOL    HW290607   1.346   5.091   3.059 -0.7531  0.2809  1.3200
29037SOL     OW90608   3.459   9.973   8.786 -0.1775  0.0933  0.2869
29037SOL    HW190609   3.507  10.017   8.856  0.1593 -1.0158  0.7670
29037SOL    HW290610   3.443   9.885   8.819  2.0624 -1.2788 -1.8879
29038SOL     OW90611   8.821   9.388   4.090  0.3375 -0.1207  0.1953
29038SOL    HW190612   8.855   9.474   4.117 -0.3094 -0.0027  0.6482
29038SOL    HW290613   8.737   9.407   4.050  0.1621 -0.5521  0.3525
29039SOL     OW90614   7.835   3.083   1.133 -0.4884  0.0913  0.2972
29039SOL    HW190615   7.850   2.996   1.170  2.2220  0.7181  0.8753
29039SOL    HW290616   7.856   3.143   1.205 -2.0523  1.2744 -0.1703
29040SOL     OW90617   5.334   9.241   9.008 -0.4825  0.0735 -0.1663
29040SOL    HW190618   5.365   9.330   9.026 -0.8538  0.0356  0.6971
29040SOL    HW290619   5.413   9.192   8.987 -0.1721  0.4083  0.2036
29041SOL     OW90620   3.316   9.912   1.736  0.3739  0.1363  0.2342
29041SOL    HW190621   3.228   9.924   1.771  0.0403 -1.6238  0.0589
29041SOL    HW290622   3.303   9.897   1.642  1.0286  1.6177 -0.1358
29042SOL     OW90623   5.996   5.989   4.549 -0.3927 -0.6909 -0.4804
29042SOL    HW190624   6.020   6.044   4.624 -1.8904  0.1284 -0.5592
29042SOL    HW290625   5.910   6.023   4.522  0.1346 -0.9525 -2.5838
29043SOL     OW90626  10.949   8.622   9.971 -0.3656  1.2197 -0.4963
29043SOL    HW190627  10.948   8.675  10.050 -1.2992  0.0634  0.3043
29043SOL    HW290628  10.903   8.542   9.995  0.8744  0.0913 -1.7001
29044SOL     OW90629   8.184   7.271   2.245 -0.3097  0.1075 -0.1421
29044SOL    HW190630   8.137   7.215   2.307 -0.3064  0.2320 -0.0251
29044SOL    HW290631   8.275   7.269   2.274  0.0597 -1.3581 -1.2753
29045SOL     OW90632   6.453   3.885  10.470 -0.1644  0.3827  0.1295
29045SOL    HW190633   6.502   3.953  10.423  0.7502  0.2060  0.8052
29045SOL    HW290634   6.462   3.909  10.562 -0.5063 -0.2214  0.3186
29046SOL     OW90635   0.078   5.974   2.987  0.4231 -0.1288 -0.3731
29046SOL    HW190636   0.065   5.880   2.976  1.3016 -0.1537 -1.3940
29046SOL    HW290637  -0.008   6.013   2.973 -0.1467 -0.8370  1.0043
29047SOL     OW90638   3.102   3.914  10.479 -0.2951  0.7477 -0.3202
29047SOL    HW190639   3.063   3.905  10.392 -1.5874  1.3308  0.1684
29047SOL    HW290640   3.086   4.005  10.503 -0.2247  0.5132  0.6466
29048SOL     OW90641  10.501   3.846   4.286  0.0683 -0.3904  0.2946
29048SOL    HW190642  10.409   3.872   4.292  0.2807  0.2540  0.8997
29048SOL    HW290643  10.512   3.820   4.195  0.0547  2.5550 -0.6446
29049SOL     OW90644  10.893   4.190   5.803  0.8820  0.8599 -0.7965
29049SOL    HW190645  10.868   4.262   5.746  0.5539 -0.5994 -2.6030
29049SOL    HW290646  10.940   4.129   5.745 -1.0427 -1.5636 -0.0064
29050SOL     OW90647  10.569   5.138   9.636  0.3483 -0.7127 -0.4730
29050SOL    HW190648  10.644   5.160   9.582  0.4292 -0.1854 -0.1528
29050SOL    HW290649  10.493   5.166   9.585  0.4273 -0.1599 -0.3017
29051SOL     OW90650   1.815   5.546   0.219  0.5453 -0.1622  0.0597
29051SOL    HW190651   1.875   5.472   0.210  0.4188 -0.1519 -1.0074
29051SOL    HW290652   1.838   5.586   0.303  1.3092 -0.7884  0.1582
29052SOL     OW90653   7.724  10.102   5.381 -0.0844 -0.1645  0.3635
29052SOL    HW190654   7.704  10.166   5.313  2.9907 -0.7246 -1.2501
29052SOL    HW290655   7.703  10.147   5.463 -0.6452  1.8392 -0.8061
29053SOL     OW90656   5.948   2.936  10.961 -0.4706 -0.4503 -0.2902
29053SOL    HW190657   5.966   2.988  11.039 -1.5267  0.7238 -0.7895
29053SOL    HW290658   5.858   2.959  10.938 -0.3131 -1.0832 -1.6184
29054SOL     OW90659   3.480   0.807   7.042  0.6670  0.5514 -0.8947
29054SOL    HW190660   3.576   0.813   7.039  0.7953 -0.0468  0.7561
29054SOL    HW290661   3.452   0.896   7.064  1.0994  0.1333  1.7000
29055SOL     OW90662   1.775   2.137   3.519  0.1659 -0.2118  0.4863
29055SOL    HW190663   1.827   2.215   3.501 -1.9072  0.7769 -2.0109
29055SOL    HW290664   1.810   2.070   3.460  1.1695 -0.8441  1.7617
29056SOL     OW90665   1.448   9.074  10.260 -0.4309 -0.3309 -0.7148
29056SOL    HW190666   1.500   9.112  10.190 -0.7674 -0.3642 -0.9873
29056SOL    HW290667   1.408   8.996  10.221 -0.2968 -0.5798 -0.3645
29057SOL     OW90668   2.166   2.285  10.384 -0.6315 -0.3036 -0.2442
29057SOL    HW190669   2.202   2.372  10.405 -2.6514  0.6514 -0.5580
29057SOL    HW290670   2.101   2.270  10.453 -0.2085 -1.6527 -0.1230
29058SOL     OW90671   0.672  10.591   0.420 -0.3357 -0.2845  0.1243
29058SOL    HW190672   0.718  10.640   0.488  0.9022 -0.9413 -0.2186
29058SOL    HW290673   0.628  10.520   0.466  2.4793 -2.2209  0.0757
29059SOL     OW90674  10.736  10.593   3.430 -0.0744  0.3236  0.0168
29059SOL    HW190675  10.740  10.656   3.502  0.9906  1.4295 -0.9825
29059SOL    HW290676  10.650  10.608   3.391 -0.9550 -0.7547  1.4186
29060SOL     OW90677   6.900   7.236   1.447 -0.5620 -0.2341  0.1509
29060SOL    HW190678   6.816   7.281   1.453 -1.4420 -1.8855  0.6848
29060SOL    HW290679   6.900   7.196   1.360 -0.5243 -0.6266  0.3317
29061SOL     OW90680   4.687   8.047   0.999  0.4562 -0.0514 -0.1168
29061SOL    HW190681   4.655   8.134   1.021  1.7625  0.2537  0.6440
29061SOL    HW290682   4.775   8.043   1.036 -0.6045 -2.7500  2.5389
29062SOL     OW90683   1.221   1.875   4.274 -0.1951 -0.2148 -0.0637
29062SOL    HW190684   1.240   1.875   4.368 -0.3037 -0.4546 -0.0401
29062SOL    HW290685   1.128   1.854   4.268 -0.2273 -0.0281 -0.2191
29063SOL     OW90686  10.247   0.589   1.489 -0.9054  0.0779  0.2311
29063SOL    HW190687  10.341   0.575   1.493 -0.7132  0.7360 -1.3020
29063SOL    HW290688  10.237   0.682   1.467 -1.8616 -0.3445 -1.2382
29064SOL     OW90689   3.803   6.700   7.947 -0.1141 -0.3086  0.6588
29064SOL    HW190690   3.788   6.731   7.858 -0.9948 -1.5695  0.3489
29064SOL    HW290691   3.716   6.686   7.983  0.2214  0.7991  1.9567
29065SOL     OW90692   4.561   2.429   8.157 -0.3412  0.0577 -0.0590
29065SOL    HW190693   4.483   2.484   8.170  0.0225  0.2673  1.3373
29065SOL    HW290694   4.614   2.444   8.235 -0.9411 -3.5128  1.1887
29066SOL     OW90695   1.476   1.042   9.216 -0.4838 -0.5547 -0.2060
29066SOL    HW190696   1.409   1.107   9.196 -0.5393 -1.2985 -2.9483
29066SOL    HW290697   1.474   1.033   9.311 -1.7557  2.0424  0.0969
29067SOL     OW90698   9.825   6.330   3.220  1.0327  0.0940 -0.7865
29067SOL    HW190699   9.843   6.348   3.313  1.9833  1.5719 -1.2119
29067SOL    HW290700   9.784   6.244   3.219 -0.7719  0.8482  1.1941
29068SOL     OW90701   7.483   5.991   6.329 -0.1748 -0.1462  0.7491
29068SOL    HW190702   7.534   6.028   6.402  0.0286 -0.0331  0.5534
29068SOL    HW290703   7.438   6.066   6.291  0.3860 -0.0619  0.2337
29069SOL     OW90704   6.650  10.641   1.501 -0.2080 -0.0643 -0.9854
29069SOL    HW190705   6.621  10.569   1.557  0.8006 -0.7801 -1.3663
29069SOL    HW290706   6.611  10.622   1.416  0.2912 -0.3088 -1.1577
29070SOL     OW90707   7.412   1.519   9.231 -0.1108 -0.3030  0.1758
29070SOL    HW190708   7.382   1.516   9.322 -1.1071 -1.2104 -0.1632
29070SOL    HW290709   7.347   1.572   9.186  1.1953  1.4516  0.2425
29071SOL     OW90710   1.649  10.978  10.988  0.4754 -0.5127  0.1527
29071SOL    HW190711   1.642  11.073  10.975 -0.1333 -0.8936 -2.9834
29071SOL    HW290712   1.720  10.968  11.051  0.5973  2.0109  0.5327
29072SOL     OW90713   0.293   3.260   5.903  0.1953 -0.1474  0.3926
29072SOL    HW190714   0.266   3.274   5.993 -0.7591  1.2004 -0.0776
29072SOL    HW290715   0.212   3.241   5.856  0.6148 -0.3313 -0.2731
29073SOL     OW90716   0.178   0.294   0.054 -0.1876 -0.5298  0.3654
29073SOL    HW190717   0.137   0.379   0.040 -0.7219 -1.0451 -1.4604
29073SOL    HW290718   0.139   0.262   0.135 -1.1144  0.3098  0.2749
29074SOL     OW90719   1.199   0.039   1.385 -0.0700 -0.6420 -0.2007
29074SOL    HW190720   1.220   0.131   1.371 -3.2000  0.0461 -0.9629
29074SOL    HW290721   1.185   0.031   1.479  2.2494 -0.8944  0.1802
29075SOL     OW90722   3.440   0.909   0.493  0.0632  0.2952 -0.8740
29075SOL    HW190723   3.376   0.958   0.545  0.1463  1.1107 -1.5198
29075SOL    HW290724   3.512   0.891   0.554 -0.4654 -0.0222 -0.3304
29076SOL     OW90725   7.176  10.538   5.403  0.1346  0.4304  0.2850
29076SOL    HW190726   7.195  10.584   5.321  0.5550 -0.1258  0.0602
29076SOL    HW290727   7.253  10.483   5.418 -0.7119 -0.8758  0.0672
29077SOL     OW90728   2.722   6.725   1.082 -0.3346 -0.0968 -0.6342
29077SOL    HW190729   2.811   6.711   1.052 -0.3698 -0.1448 -0.7167
29077SOL    HW290730   2.708   6.660   1.151 -0.5275 -0.5307 -1.0781
29078SOL     OW90731   4.866   2.613   6.300 -0.2896 -0.0941  0.3543
29078SOL    HW190732   4.902   2.670   6.232 -1.1879  0.7096  0.5182
29078SOL    HW290733   4.776   2.596   6.271  0.0472 -1.6854  0.1698
29079SOL     OW90734   6.765   2.725   6.751 -1.1308 -0.0544  0.2099
29079SOL    HW190735   6.802   2.779   6.681  1.7317 -1.0481  0.8280
29079SOL    HW290736   6.738   2.788   6.818 -2.3071  0.8021 -1.0076
29080SOL     OW90737   5.023   2.982   1.882 -0.1111  0.0471  0.4372
29080SOL    HW190738   4.975   2.915   1.930 -1.5650  1.3521  0.8812
29080SOL    HW290739   5.006   2.963   1.790 -1.0415  0.1543  0.5776
29081SOL     OW90740   8.963   8.834   5.085 -0.6173  0.0616 -0.1555
29081SOL    HW190741   8.958   8.877   5.000  2.3299 -0.0584 -0.4792
29081SOL    HW290742   9.038   8.874   5.128  0.0641 -2.2424  0.9724
29082SOL     OW90743   7.790   9.205   2.453 -0.1632 -0.1286 -0.3638
29082SOL    HW190744   7.785   9.142   2.382  1.7871 -0.8893  0.1076
29082SOL    HW290745   7.882   9.205   2.479 -0.4574  1.5507  0.8936
29083SOL     OW90746   1.458   5.662   0.882 -0.4050 -0.1837 -0.6139
29083SOL    HW190747   1.479   5.642   0.791 -2.8361  2.1843 -1.8177
29083SOL    HW290748   1.502   5.745   0.900  0.9961 -1.1589  0.8494
29084SOL     OW90749   6.549   9.151   4.078 -0.0239 -0.2425  0.3168
29084SOL    HW190750   6.594   9.075   4.042  0.7216  0.6459 -0.7050
29084SOL    HW290751   6.490   9.115   4.145  2.2361 -1.4573  1.7802
29085SOL     OW90752   8.449   8.446   9.972 -0.0033 -0.1541 -0.0100
29085SOL    HW190753   8.473   8.391   9.897 -0.7892  0.5654 -0.8025
29085SOL    HW290754   8.533   8.473  10.009  0.3954 -1.3911  0.0295
29086SOL     OW90755   5.461   5.419   1.557 -0.0363 -0.5648  0.2201
29086SOL    HW190756   5.430   5.455   1.474  0.6345  1.4953  0.7950
29086SOL    HW290757   5.552   5.446   1.563 -0.4555  0.6970  2.2663
29087SOL     OW90758   0.587   5.399   7.078 -0.4209  0.3109  0.5217
29087SOL    HW190759   0.657   5.343   7.111 -1.3953 -0.8554  0.6929
29087SOL    HW290760   0.567   5.365   6.991 -0.5997  0.7880  0.3732
29088SOL     OW90761   5.392   7.110   0.933 -0.8338  0.0963  0.2541
29088SOL    HW190762   5.451   7.093   0.860 -0.6062  0.0843  0.4390
29088SOL    HW290763   5.341   7.030   0.942 -0.6980  0.0106  0.2610
29089SOL     OW90764  10.370   1.418   6.847 -0.0582  0.1243 -0.1758
29089SOL    HW190765  10.361   1.509   6.873  2.3860 -0.0177  1.4536
29089SOL    HW290766  10.364   1.368   6.929  1.4367 -0.9093 -0.6510
29090SOL     OW90767  10.643   1.621  10.754 -0.4965  0.2920 -0.2932
29090SOL    HW190768  10.727   1.665  10.744 -0.6350  0.6073 -0.0569
29090SOL    HW290769  10.580   1.691  10.771 -0.5947 -0.0517  0.8412
29091SOL     OW90770   7.735   9.444   3.963 -0.0559  0.1125  0.3317
29091SOL    HW190771   7.706   9.485   4.045 -1.4917  0.7361 -0.4480
29091SOL    HW290772   7.770   9.517   3.912 -0.2272 -0.0807 -0.0597
29092SOL     OW90773   2.866   4.007   5.312  0.1334  0.4381  0.7741
29092SOL    HW190774   2.798   4.066   5.279  1.1511  0.3275 -1.7690
29092SOL    HW290775   2.886   4.040   5.400 -1.5518  1.8979  0.6568
29093SOL     OW90776   2.977   1.477   9.270 -0.1698 -0.7166  0.2884
29093SOL    HW190777   2.908   1.543   9.268 -0.1840 -0.7279  0.4037
29093SOL    HW290778   3.019   1.488   9.355  0.1577 -0.5153  0.1030
29094SOL     OW90779   1.618   2.855   9.095  0.4604 -0.3001  0.2998
29094SOL    HW190780   1.614   2.907   9.175  0.3450  0.4086 -0.1584
29094SOL    HW290781   1.707   2.867   9.063 -0.5243  2.5841 -1.7161
29095SOL     OW90782   2.537   9.517   4.244 -0.5174 -0.2071  0.0787
29095SOL    HW190783   2.492   9.527   4.328  0.2734  0.0508  0.4847
29095SOL    HW290784   2.573   9.428   4.246  1.5762  0.5779  1.0992
29096SOL     OW90785   4.713   5.802  10.223  0.1289  0.0778 -0.6388
29096SOL    HW190786   4.739   5.766  10.308 -0.6382  0.2973 -0.3034
29096SOL    HW290787   4.668   5.884  10.245  0.8155  0.6547 -1.3237
29097SOL     OW90788   4.160   7.019   8.851  0.0674 -0.4292 -0.2313
29097SOL    HW190789   4.087   7.074   8.821 -0.3044 -0.5911  0.3534
29097SOL    HW290790   4.224   7.080   8.887 -0.5753 -0.3997  0.8997
29098SOL     OW90791   0.662   1.338   7.399 -0.4211  0.1265  0.4662
29098SOL    HW190792   0.671   1.381   7.314  3.2498 -0.2482  0.5405
29098SOL    HW290793   0.632   1.250   7.379 -3.8907  1.2399  0.0234
29099SOL     OW90794   8.431   4.258   4.159 -0.4382  0.1110  0.1856
29099SOL    HW190795   8.401   4.348   4.157 -1.1835 -0.1032  1.0437
29099SOL    HW290796   8.389   4.220   4.237  0.4278 -0.7719  0.2475
29100SOL     OW90797   1.376   2.722   9.089  0.0478  0.5348  0.2148
29100SOL    HW190798   1.313   2.794   9.094  0.7553  1.2247 -0.6311
29100SOL    HW290799   1.461   2.763   9.101  0.3311 -0.8023  5.3449
29101SOL     OW90800   9.015   8.586   9.666  0.2765  0.3899  0.7867
29101SOL    HW190801   9.110   8.584   9.671  0.4480 -1.4269 -1.4932
29101SOL    HW290802   8.995   8.673   9.630  1.3192 -0.1462 -1.2413
29102SOL     OW90803   1.606   5.761   5.081 -0.4851  0.7581  0.1102
29102SOL    HW190804   1.598   5.856   5.085 -0.6963  0.7392  0.1558
29102SOL    HW290805   1.666   5.745   5.008  0.6834  0.9798  0.9910
29103SOL     OW90806   9.961   5.377  10.696  0.0620 -0.2582  0.1705
29103SOL    HW190807  10.022   5.326  10.749  0.0845 -0.9303 -0.4754
29103SOL    HW290808   9.885   5.320  10.686 -1.9274  1.5829  3.2570
29104SOL     OW90809   9.056   0.418   5.741 -0.0078  0.3349 -0.8576
29104SOL    HW190810   9.084   0.510   5.744  0.6851  0.2258 -2.5997
29104SOL    HW290811   8.970   0.418   5.782  0.4632  1.5610  0.2032
29105SOL     OW90812   8.222   4.234   4.360  0.2769 -0.6042 -0.3668
29105SOL    HW190813   8.154   4.204   4.421 -0.7785  0.3488 -1.0527
29105SOL    HW290814   8.181   4.230   4.274  1.7249 -1.8538 -1.0551
29106SOL     OW90815   8.077   3.842   7.111 -0.1684 -0.5781 -0.0716
29106SOL    HW190816   8.106   3.906   7.047 -0.2919 -1.9922 -1.6095
29106SOL    HW290817   8.104   3.878   7.196 -1.6640  2.2729 -0.6725
29107SOL     OW90818   2.387   5.930   9.492 -0.1487  0.0619 -0.1823
29107SOL    HW190819   2.377   6.025   9.491  0.3787  0.1583  1.2214
29107SOL    HW290820   2.461   5.914   9.550 -0.9652 -1.2701  0.5554
29108SOL     OW90821   6.776   8.483   4.500 -0.5451  0.2948  0.1271
29108SOL    HW190822   6.779   8.391   4.473  1.4034  0.3539  0.0183
29108SOL    HW290823   6.783   8.480   4.595  0.6007  0.3381  0.0594
29109SOL     OW90824   5.853  10.459   0.340  0.0007  0.3296  0.1442
29109SOL    HW190825   5.918  10.482   0.274  1.1808 -0.0116  1.1452
29109SOL    HW290826   5.860  10.528   0.406 -1.3563  0.8188 -0.1882
29110SOL     OW90827  10.868   3.195   1.117  0.1232  0.9489  0.1261
29110SOL    HW190828  10.829   3.264   1.063 -0.1684  0.1375 -0.7179
29110SOL    HW290829  10.923   3.242   1.180 -1.3744  2.0560  0.6624
29111SOL     OW90830   1.633   6.171   0.734 -0.6232 -0.1687 -0.8873
29111SOL    HW190831   1.653   6.264   0.741 -0.1734 -0.2485 -1.0454
29111SOL    HW290832   1.662   6.146   0.646  0.7320 -0.7878 -0.3109
29112SOL     OW90833   3.101   2.186   3.639 -0.4904 -0.1883 -0.6337
29112SOL    HW190834   3.035   2.253   3.626 -1.2991 -0.8959 -0.2941
29112SOL    HW290835   3.097   2.132   3.561 -4.3211 -3.5603  1.4745
29113SOL     OW90836   2.244   7.409  10.772  0.4798  0.3265  0.0052
29113SOL    HW190837   2.203   7.409  10.859  0.1225 -0.8999 -0.1454
29113SOL    HW290838   2.327   7.456  10.784  0.9764 -0.8359  1.2781
29114SOL     OW90839   7.596   2.144   4.211  0.6251 -0.1717 -0.2275
29114SOL    HW190840   7.583   2.053   4.185 -0.2706 -0.1137 -0.0362
29114SOL    HW290841   7.685   2.165   4.184  0.7285 -1.0085 -0.5579
29115SOL     OW90842   7.170   4.182  10.094  0.1092  0.1595 -0.5448
29115SOL    HW190843   7.077   4.162  10.101  0.2117 -0.3119 -0.4982
29115SOL    HW290844   7.174   4.277  10.082 -0.3307  0.3121  0.4405
29116SOL     OW90845   0.115   6.764   8.454  0.7751 -0.0029  0.4089
29116SOL    HW190846   0.043   6.783   8.514  1.4895  0.6998  1.0789
29116SOL    HW290847   0.075   6.760   8.368 -0.0043  0.8009  0.7207
29117SOL     OW90848   8.495  10.125   1.947 -0.0563 -0.4153  0.7378
29117SOL    HW190849   8.561  10.083   1.892 -1.0697 -1.7456  0.4985
29117SOL    HW290850   8.429  10.157   1.885  0.5528  1.3575  0.9321
29118SOL     OW90851   3.992   5.622   6.175  0.1920  0.3485  0.5029
29118SOL    HW190852   3.913   5.643   6.224  0.6282  0.0684  1.3459
29118SOL    HW290853   3.970   5.642   6.084 -0.9661 -0.0923  0.6704
29119SOL     OW90854   0.329   5.361   9.013 -0.5017 -0.6187 -0.1951
29119SOL    HW190855   0.325   5.340   9.106  0.2550 -2.7577 -0.5879
29119SOL    HW290856   0.260   5.308   8.973 -1.8656  1.4545 -0.7134
29120SOL     OW90857   8.020   9.815   4.169 -0.0900  0.7745  0.0770
29120SOL    HW190858   8.081   9.865   4.224  0.6872  0.4323 -0.4542
29120SOL    HW290859   7.949   9.877   4.150 -0.5108  0.8300  1.6480
29121SOL     OW90860   3.868   8.556   7.935  0.0741 -0.6567 -0.3060
29121SOL    HW190861   3.897   8.562   8.026  0.5186  1.5406 -0.5224
29121SOL    HW290862   3.935   8.503   7.892  1.1239  0.2160  0.2120
29122SOL     OW90863   7.834   7.650  10.125 -0.3848 -0.2077 -0.1697
29122SOL    HW190864   7.742   7.650  10.098 -0.6379  0.1946  0.6551
29122SOL    HW290865   7.869   7.734  10.092  0.0713 -0.9515 -1.6749
29123SOL     OW90866  10.015   9.809   9.076 -0.7248  0.4211 -0.0757
29123SOL    HW190867   9.933   9.763   9.091 -1.2719  1.5606  0.6201
29123SOL    HW290868   9.989   9.900   9.061  0.3060  0.5084 -1.5063
29124SOL     OW90869   3.525   3.577   6.255  0.1677  0.3545 -0.4985
29124SOL    HW190870   3.493   3.654   6.302  0.1204  0.9770 -1.5175
29124SOL    HW290871   3.583   3.613   6.188 -0.5418 -0.4216 -1.5514
29125SOL     OW90872  10.527   8.437  10.544 -0.2036 -0.0777 -0.3120
29125SOL    HW190873  10.444   8.394  10.566  0.3105 -0.7767  0.3091
29125SOL    HW290874  10.544   8.497  10.617 -0.1238  0.0116 -0.4035
29126SOL     OW90875   7.401   1.916   5.668  0.0162 -0.4585  0.3480
29126SOL    HW190876   7.425   1.882   5.754 -0.3418  1.4563  1.2453
29126SOL    HW290877   7.467   1.982   5.647 -0.4189 -0.2474 -0.4307
29127SOL     OW90878   2.540   4.996   0.067  0.4186 -0.2852  0.3206
29127SOL    HW190879   2.529   4.903   0.050  0.8423 -0.2022 -0.4386
29127SOL    HW290880   2.483   5.013   0.142  0.0730 -1.0805  0.2531
29128SOL     OW90881   0.031   9.091   3.948 -0.3163 -0.1634 -0.5368
29128SOL    HW190882   0.018   9.117   4.040  0.0915 -1.0523 -0.2229
29128SOL    HW290883   0.114   9.131   3.923  0.1394 -0.8438 -0.1577
29129SOL     OW90884   2.959  10.232   6.661  0.0731  0.3832  0.1127
29129SOL    HW190885   2.928  10.206   6.574 -0.8654  1.7199  0.0204
29129SOL    HW290886   3.018  10.306   6.645  1.2908 -0.4670  0.5055
29130SOL     OW90887   9.009   4.844   2.275 -0.3687  0.0653  0.0224
29130SOL    HW190888   9.035   4.849   2.367 -0.3985 -0.6200  0.0714
29130SOL    HW290889   8.939   4.908   2.267 -0.5072 -0.0174  0.5265
29131SOL     OW90890   5.422   8.627   4.124 -0.5620 -0.4569  0.0089
29131SOL    HW190891   5.361   8.700   4.119 -0.5326 -0.3241  1.3329
29131SOL    HW290892   5.406   8.587   4.210 -0.5308 -1.9688 -0.6576
29132SOL     OW90893   7.102   3.294   8.421 -0.4682 -0.8677 -0.4511
29132SOL    HW190894   7.053   3.371   8.394  0.5841 -0.4326 -1.1915
29132SOL    HW290895   7.151   3.268   8.343  1.5805 -0.4278  0.6142
29133SOL     OW90896   2.878   8.326  10.440 -0.2496  0.1836  0.3411
29133SOL    HW190897   2.887   8.278  10.523 -0.3922 -0.1519  0.1595
29133SOL    HW290898   2.964   8.318  10.399 -0.4085 -0.3074  0.0983
29134SOL     OW90899   1.053   9.220   5.866  0.2636 -0.1567  0.0165
29134SOL    HW190900   0.984   9.201   5.802  0.1321 -0.8091  0.3404
29134SOL    HW290901   1.069   9.136   5.909 -0.3581  0.4800  1.5429
29135SOL     OW90902   2.037   7.852   2.761 -0.7690  0.2950 -0.0074
29135SOL    HW190903   2.070   7.792   2.694 -0.7489  1.7065 -1.3169
29135SOL    HW290904   2.004   7.927   2.712 -1.1880  1.1822  1.5571
29136SOL     OW90905   4.266   8.290   4.005 -0.2514  0.2930  0.0668
29136SOL    HW190906   4.299   8.201   3.993  0.2563  0.6749 -1.5423
29136SOL    HW290907   4.229   8.289   4.094  0.5091 -1.2655  0.4126
29137SOL     OW90908   8.938  10.647   8.931  0.1727  0.0452 -0.6603
29137SOL    HW190909   8.947  10.559   8.968 -1.7486 -0.1885 -0.6342
29137SOL    HW290910   9.016  10.694   8.960  0.8232 -1.3930  0.0268
29138SOL     OW90911   2.319   3.470   3.831  0.2447  0.1246  0.2709
29138SOL    HW190912   2.318   3.433   3.743  1.0879  1.5391 -0.3746
29138SOL    HW290913   2.237   3.519   3.837 -1.4276 -2.5969  1.5384
29139SOL     OW90914   9.514   5.000   9.224  0.5264 -0.2921 -0.2138
29139SOL    HW190915   9.492   4.934   9.290 -0.0160 -1.0469 -1.1000
29139SOL    HW290916   9.609   4.994   9.214  0.6642  0.1221  0.7754
29140SOL     OW90917   2.087   7.527   0.172 -0.4215 -0.3841  0.3441
29140SOL    HW190918   2.163   7.490   0.129  0.5264 -0.7007  2.1805
29140SOL    HW290919   2.116   7.613   0.203 -0.7600 -0.5471  1.1459
29141SOL     OW90920   8.179   0.800  10.016  0.0226 -0.3618 -0.3766
29141SOL    HW190921   8.252   0.748  10.051  0.4562  0.9714  0.8088
29141SOL    HW290922   8.127   0.738   9.965  0.0505 -2.1453  1.6390
29142SOL     OW90923   1.721   8.817   2.021 -0.2365 -0.6359  0.2471
29142SOL    HW190924   1.734   8.764   2.100 -0.5574 -1.0929 -0.0043
29142SOL    HW290925   1.643   8.780   1.980  0.7249 -1.3242 -1.0226
29143SOL     OW90926   0.805   7.610   4.607  0.0884  0.5381  0.0078
29143SOL    HW190927   0.732   7.651   4.652 -0.2309  0.6373 -0.6000
29143SOL    HW290928   0.824   7.667   4.533  1.6068  1.1889  0.8574
29144SOL     OW90929  10.792   7.056   5.025 -0.1633  0.3870  0.1513
29144SOL    HW190930  10.765   7.147   5.016  1.1317  1.0048  2.0958
29144SOL    HW290931  10.849   7.040   4.950  0.6077  1.5596  0.4742
29145SOL     OW90932   4.438   6.335   7.929  0.5971  0.0745 -0.0283
29145SOL    HW190933   4.356   6.358   7.973  0.8955  0.5441  0.2915
29145SOL    HW290934   4.417   6.339   7.836  0.2565  0.2064  0.0517
29146SOL     OW90935   2.534   5.488   4.859 -0.3427  0.0349  0.0953
29146SOL    HW190936   2.626   5.481   4.886 -0.2419 -0.1279 -0.2758
29146SOL    HW290937   2.494   5.545   4.924 -0.0466 -0.1361  0.4334
29147SOL     OW90938   8.872   4.150   4.656  0.3989  0.0338  0.3712
29147SOL    HW190939   8.820   4.179   4.731 -0.5106 -0.4734 -0.0513
29147SOL    HW290940   8.847   4.209   4.585  0.7289  0.0598  0.2751
29148SOL     OW90941   2.274   4.329   3.062  0.2978  0.3631 -0.6988
29148SOL    HW190942   2.323   4.312   2.982  0.0747 -0.9143 -0.5905
29148SOL    HW290943   2.341   4.354   3.126  0.5183  1.0156 -1.1780
29149SOL     OW90944   4.147  10.227   6.595  0.1520  0.2534  0.2549
29149SOL    HW190945   4.070  10.275   6.627  1.9346  1.6834  2.7796
29149SOL    HW290946   4.212  10.296   6.578  1.0192 -0.9382 -1.5552
29150SOL     OW90947   7.346   2.105   8.471 -0.1246 -0.1349  0.6708
29150SOL    HW190948   7.326   2.027   8.522 -1.0504  0.1904  0.8187
29150SOL    HW290949   7.311   2.177   8.524  0.7258  0.3881  0.5441
29151SOL     OW90950   2.650   2.145   9.471 -0.1558 -0.0838 -0.4324
29151SOL    HW190951   2.609   2.126   9.387 -0.0678  0.0434 -0.5042
29151SOL    HW290952   2.734   2.185   9.448 -0.4278  0.5847 -0.2821
29152SOL     OW90953   8.921   8.126   7.979 -0.3088 -0.2984  0.1156
29152SOL    HW190954   8.966   8.085   7.905  0.9436 -0.4290  0.9241
29152SOL    HW290955   8.944   8.071   8.055 -2.4462 -0.8088  0.4679
29153SOL     OW90956   1.547   3.431   8.861 -0.3072 -0.2626 -0.2958
29153SOL    HW190957   1.556   3.337   8.875 -0.2796 -0.2963 -0.5326
29153SOL    HW290958   1.624   3.469   8.903 -0.6895 -0.2806  0.4375
29154SOL     OW90959   2.027   8.616   2.097  0.4809 -0.1688 -0.2475
29154SOL    HW190960   1.981   8.579   2.022  0.0776  1.1608 -0.6828
29154SOL    HW290961   2.098   8.554   2.115  0.7949 -0.3372 -1.9262
29155SOL     OW90962   8.782   5.907   5.292  0.1203  0.0555  0.8195
29155SOL    HW190963   8.850   5.942   5.235  0.3924 -2.0816 -0.2267
29155SOL    HW290964   8.701   5.942   5.256  0.2632 -1.4200 -1.0822
29156SOL     OW90965   8.443   1.529   6.225  0.2980  0.5391  0.1961
29156SOL    HW190966   8.474   1.495   6.309  0.6753  1.9942  0.6673
29156SOL    HW290967   8.381   1.599   6.248 -1.3827 -0.5660 -0.7451
29157SOL     OW90968   2.303   8.119   3.758 -0.3778 -0.0132 -0.2658
29157SOL    HW190969   2.299   8.199   3.704  1.1064  0.9454  0.9579
29157SOL    HW290970   2.384   8.128   3.808  0.9511 -3.2994 -1.5649
29158SOL     OW90971   4.042   2.829   6.270 -0.6428 -0.3729  0.6760
29158SOL    HW190972   4.074   2.847   6.182 -0.4149 -4.1025 -0.1799
29158SOL    HW290973   4.116   2.787   6.315 -1.7409 -1.5544  1.4663
29159SOL     OW90974  10.471   3.460   1.864 -0.0221 -0.0300  0.2657
29159SOL    HW190975  10.539   3.466   1.796  0.9577  1.2535  1.2931
29159SOL    HW290976  10.502   3.391   1.923  0.8409  1.0527  1.1407
29160SOL     OW90977  10.803   8.434   0.740 -0.4273 -0.1563 -0.2072
29160SOL    HW190978  10.757   8.378   0.678  0.4837 -0.1772 -0.8947
29160SOL    HW290979  10.741   8.504   0.761 -0.6381  0.0242 -1.3952
29161SOL     OW90980   7.650   5.800   2.507 -0.4357  0.4122 -0.1099
29161SOL    HW190981   7.610   5.880   2.473 -0.8897  0.0022 -0.5671
29161SOL    HW290982   7.600   5.729   2.466  1.2261 -0.1394 -1.3368
29162SOL     OW90983   5.725   4.030   4.452 -0.6811 -0.0114  0.4493
29162SOL    HW190984   5.800   3.992   4.498 -1.1194 -1.7399 -0.1913
29162SOL    HW290985   5.692   3.959   4.397 -2.3946  0.9179  0.2099
29163SOL     OW90986   6.978   9.238   6.683 -0.4209 -0.1390  0.3227
29163SOL    HW190987   7.019   9.181   6.618  0.0635 -0.1148  0.5981
29163SOL    HW290988   6.895   9.196   6.703 -1.5477  0.9023 -1.8105
29164SOL     OW90989   9.634   5.084   7.235 -0.0871 -0.3247 -0.0133
29164SOL    HW190990   9.702   5.114   7.295 -0.1055  0.1683 -0.2322
29164SOL    HW290991   9.635   5.149   7.164 -0.2325 -0.7589 -0.4168
29165SOL     OW90992   4.045   5.048   0.132 -0.2907 -0.9626 -0.3037
29165SOL    HW190993   3.958   5.088   0.143  0.5209  0.5014  1.1048
29165SOL    HW290994   4.075   5.082   0.048  0.1073  0.9536  0.5668
29166SOL     OW90995   7.004   7.409   6.662 -0.2421  0.0051 -0.2844
29166SOL    HW190996   7.039   7.497   6.655  0.3323 -0.2800 -1.1716
29166SOL    HW290997   6.935   7.405   6.596 -0.5313 -0.1016  0.0159
29167SOL     OW90998   9.721   7.696   2.653  0.1837 -0.0520 -0.0636
29167SOL    HW190999   9.810   7.686   2.687  0.0363 -0.0613  0.3176
29167SOL    HW291000   9.705   7.615   2.605  0.2601 -0.1910  0.1433
29168SOL     OW91001   3.694   9.318   1.163  0.0201 -0.2718 -0.3006
29168SOL    HW191002   3.753   9.390   1.186 -0.5407  0.6968 -1.8009
29168SOL    HW291003   3.739   9.273   1.092 -0.8364  0.2235 -1.1717
29169SOL     OW91004   5.466   1.943   3.148 -0.5469 -0.6492 -0.2059
29169SOL    HW191005   5.375   1.956   3.177  0.6239  0.8218  3.2463
29169SOL    HW291006   5.474   1.847   3.141 -2.2538 -0.8295 -0.3308
29170SOL     OW91007   5.432   2.650   6.784 -0.2348  0.1406 -0.4263
29170SOL    HW191008   5.468   2.596   6.713 -1.8841  0.7114 -1.7660
29170SOL    HW291009   5.373   2.591   6.832 -1.4423  0.4841 -1.4224
29171SOL     OW91010   7.351  10.290   4.819  0.8183  0.1334  0.0857
29171SOL    HW191011   7.434  10.270   4.775  2.1467 -0.0605  2.4670
29171SOL    HW291012   7.343  10.385   4.813 -0.0108 -0.0322 -2.1138
29172SOL     OW91013   4.808   5.761   4.245  0.2828  0.2456 -0.1614
29172SOL    HW191014   4.809   5.835   4.184  0.4326  1.0296  0.7660
29172SOL    HW291015   4.771   5.797   4.326 -1.4314 -1.1854 -0.2626
29173SOL     OW91016   6.561   5.452   0.210 -0.3016 -0.1067 -0.2583
29173SOL    HW191017   6.581   5.507   0.285 -0.7635  0.7162 -0.7225
29173SOL    HW291018   6.466   5.455   0.202 -0.5329 -2.4673  0.8073
29174SOL     OW91019   4.506   8.516   5.698 -0.4271  0.0518 -0.0249
29174SOL    HW191020   4.418   8.549   5.717 -0.7439 -0.2007 -1.0022
29174SOL    HW291021   4.554   8.526   5.781 -1.9270 -1.6187  1.1176
29175SOL     OW91022   3.281   0.633   6.739 -0.5862 -0.5399  0.4506
29175SOL    HW191023   3.348   0.592   6.794  0.9944  1.7311  0.3687
29175SOL    HW291024   3.245   0.561   6.688  1.7422 -1.9120  0.5778
29176SOL     OW91025   1.341   8.467   1.248  0.4074  0.6828  0.0361
29176SOL    HW191026   1.320   8.389   1.197  2.0748  0.7514 -0.8390
29176SOL    HW291027   1.279   8.533   1.218  1.1463  0.6326 -1.7310
29177SOL     OW91028   9.709   0.494   9.125 -0.2396 -0.2459 -0.5815
29177SOL    HW191029   9.752   0.525   9.205  0.2245 -1.3385 -0.3950
29177SOL    HW291030   9.751   0.544   9.055  0.0583 -0.0075 -0.2383
29178SOL     OW91031  10.865   5.537   1.783 -0.0268 -0.5468  0.1142
29178SOL    HW191032  10.908   5.569   1.862 -1.8696 -1.8636  1.7112
29178SOL    HW291033  10.779   5.578   1.784 -0.8670 -2.2437 -0.0325
29179SOL     OW91034   8.491   7.720   0.516 -0.2022 -0.2936  0.0261
29179SOL    HW191035   8.497   7.643   0.572  0.4815  0.4550  0.9992
29179SOL    HW291036   8.475   7.793   0.576  0.4908  0.5191 -0.7493
29180SOL     OW91037   3.712   4.822   9.794  0.4221 -0.4351  0.1887
29180SOL    HW191038   3.755   4.736   9.790  0.3552 -0.5112  0.9350
29180SOL    HW291039   3.726   4.860   9.707  1.5578 -0.6704  0.2527
29181SOL     OW91040   9.025   8.638   7.331  0.4274 -0.2086 -0.1484
29181SOL    HW191041   8.961   8.688   7.382 -1.0081  1.2125 -3.1061
29181SOL    HW291042   8.981   8.554   7.314 -0.1730  0.2626 -1.0469
29182SOL     OW91043   2.940   9.091   1.158  0.1207  0.0668  0.2689
29182SOL    HW191044   2.956   9.150   1.232 -0.4974  0.7972 -0.1723
29182SOL    HW291045   2.975   9.007   1.187  0.9125  0.6185  0.9509
29183SOL     OW91046   0.639   3.618   4.778 -0.7208  0.4002 -0.4864
29183SOL    HW191047   0.663   3.711   4.782  1.4123 -0.1258  2.2280
29183SOL    HW291048   0.600   3.600   4.863  1.4324 -1.7134  0.1620
29184SOL     OW91049   1.140  10.842   2.361 -0.7878 -0.1894  0.1255
29184SOL    HW191050   1.116  10.830   2.269  2.2568  1.2906 -0.9925
29184SOL    HW291051   1.221  10.792   2.371 -1.7779 -1.4835  2.4642
29185SOL     OW91052   6.485   2.385   0.096  0.3320 -0.0096  0.5912
29185SOL    HW191053   6.460   2.464   0.048  1.4751 -0.8224 -1.4535
29185SOL    HW291054   6.416   2.322   0.075  0.1597  0.0162  1.0739
29186SOL     OW91055   9.254   8.433   3.188  0.0228  0.0733 -0.1571
29186SOL    HW191056   9.169   8.473   3.205 -0.0414  0.5504 -1.4843
29186SOL    HW291057   9.258   8.358   3.247 -0.8763  0.6434  0.6447
29187SOL     OW91058   9.105   4.916   5.627  0.0267  0.3985 -0.0089
29187SOL    HW191059   9.164   4.866   5.684  0.9522  4.1385  2.7734
29187SOL    HW291060   9.148   4.916   5.542  0.6572 -2.2403  0.2324
29188SOL     OW91061   1.515   3.919   5.262  0.1323 -0.0673 -0.1708
29188SOL    HW191062   1.509   4.014   5.254 -0.2913 -0.0215  0.6088
29188SOL    HW291063   1.447   3.896   5.325  1.5191 -0.6763  1.1553
29189SOL     OW91064   6.317  10.751   8.981 -0.3497 -0.0095  0.6792
29189SOL    HW191065   6.335  10.732   8.889 -0.2844  1.0698  0.4511
29189SOL    HW291066   6.278  10.671   9.015 -0.9407 -0.2178 -0.4401
29190SOL     OW91067   9.123   6.166   9.734 -0.0972 -0.4468 -0.0621
29190SOL    HW191068   9.095   6.248   9.774 -0.9194 -0.3971 -0.7121
29190SOL    HW291069   9.104   6.099   9.799  0.6316 -0.1321  0.4957
29191SOL     OW91070   1.978   7.736   1.396 -0.1829  0.0612 -0.2384
29191SOL    HW191071   2.047   7.762   1.334 -0.3019  0.9628 -0.0032
29191SOL    HW291072   1.954   7.648   1.368  0.1784  0.2258 -1.1179
29192SOL     OW91073   5.539   2.136   3.835  0.0079 -0.3901  0.5481
29192SOL    HW191074   5.572   2.060   3.788 -0.3818 -0.9982  1.2307
29192SOL    HW291075   5.576   2.128   3.923  1.1658  1.0157  0.2139
29193SOL     OW91076   8.346   3.964   0.657 -0.0586  0.0600 -0.2662
29193SOL    HW191077   8.392   4.005   0.583  0.8305 -0.3037  0.0702
29193SOL    HW291078   8.267   3.926   0.618  0.7275 -0.7032 -1.1627
29194SOL     OW91079   1.533   9.000   3.765  0.1470 -0.0901  0.6415
29194SOL    HW191080   1.545   8.956   3.682  0.8422 -1.4400  1.4231
29194SOL    HW291081   1.606   9.062   3.771 -1.4138  2.0492 -0.9318
29195SOL     OW91082   3.726   4.455   3.671  0.0455  0.4694  0.3510
29195SOL    HW191083   3.768   4.535   3.704  0.7769  0.6682 -0.9925
29195SOL    HW291084   3.646   4.486   3.630 -0.0651  0.4150  0.5258
29196SOL     OW91085   5.579   4.376  10.594  0.5127 -0.0545 -0.3006
29196SOL    HW191086   5.652   4.375  10.656 -0.4571  0.2957  0.8869
29196SOL    HW291087   5.545   4.287  10.594  0.1870  0.0646  0.0920
29197SOL     OW91088   0.938   5.552  10.452  0.0670 -0.1763  0.7356
29197SOL    HW191089   0.974   5.598  10.528  0.6319  0.8194 -0.0945
29197SOL    HW291090   0.903   5.470  10.487  0.1856  0.3225  2.0778
29198SOL     OW91091  10.101   7.644   1.328 -0.0512 -0.0434 -0.3777
29198SOL    HW191092  10.185   7.597   1.333 -0.0608  0.0258  0.5855
29198SOL    HW291093  10.110   7.701   1.252  0.3945 -0.7710 -0.8829
29199SOL     OW91094   7.961   0.024  10.147  0.1849  1.3793 -0.1243
29199SOL    HW191095   7.953   0.107  10.100  2.1519 -0.5207 -4.2803
29199SOL    HW291096   7.873  -0.012  10.148 -0.1479  2.1184 -1.1878
29200SOL     OW91097   2.175   9.011   3.746  0.3316 -0.2615 -0.0098
29200SOL    HW191098   2.246   9.032   3.686 -0.4778 -0.9518 -1.2502
29200SOL    HW291099   2.128   9.093   3.757  1.0249  0.0843  0.4343
29201SOL     OW91100   4.337   3.267   3.007  0.3095  0.2643 -0.2935
29201SOL    HW191101   4.296   3.340   2.961 -1.0420  0.1364  0.6396
29201SOL    HW291102   4.316   3.190   2.955 -2.5325 -0.0975  1.1924
29202SOL     OW91103   2.859   3.941   0.570 -0.4063 -0.2788  0.5413
29202SOL    HW191104   2.943   3.981   0.552 -0.9792  0.6536 -0.1300
29202SOL    HW291105   2.824   3.990   0.645 -0.3280 -0.7148  0.8698
29203SOL     OW91106   6.938   8.930   3.077 -0.0010 -0.1537 -0.0610
29203SOL    HW191107   6.889   8.885   3.009 -1.5352  1.6331 -0.2028
29203SOL    HW291108   7.027   8.937   3.042 -0.5605 -0.0175 -1.5091
29204SOL     OW91109   3.306   2.402   7.050 -0.3950  0.5729 -0.3865
29204SOL    HW191110   3.341   2.313   7.053 -0.2065  0.6149 -1.0659
29204SOL    HW291111   3.372   2.455   7.095  0.5316  0.6727 -1.7756
29205SOL     OW91112   5.591   9.593   0.200 -0.0303  0.1920  0.0362
29205SOL    HW191113   5.572   9.501   0.183  2.5840 -0.4104 -0.0090
29205SOL    HW291114   5.524   9.641   0.151 -0.2092 -1.6538 -1.6445
29206SOL     OW91115   1.797   1.517   9.886  0.1014 -0.3501 -0.5496
29206SOL    HW191116   1.781   1.490   9.796  0.2592 -1.0012 -0.3913
29206SOL    HW291117   1.824   1.608   9.880 -1.2489  0.0429 -1.0325
29207SOL     OW91118   9.475   0.980   2.298  0.0633 -0.5280  0.3418
29207SOL    HW191119   9.534   0.943   2.233 -0.8929  1.2966 -1.6835
29207SOL    HW291120   9.389   0.978   2.256 -0.2997  2.3996  0.7322
29208SOL     OW91121  10.482   6.243   0.275  0.1566  0.6287 -0.0332
29208SOL    HW191122  10.500   6.285   0.359 -0.3649  0.4540  0.1709
29208SOL    HW291123  10.529   6.160   0.279  0.2353  0.6770  0.0346
29209SOL     OW91124   7.146   2.479   0.007 -0.0779  0.2194  0.1329
29209SOL    HW191125   7.087   2.438   0.070 -0.2616 -0.3930 -0.4326
29209SOL    HW291126   7.230   2.483   0.052 -0.6524  1.6287  1.1683
29210SOL     OW91127   0.419   8.844   1.967  0.1421 -0.4348  0.5269
29210SOL    HW191128   0.360   8.906   1.924  0.2294  1.3064  2.7166
29210SOL    HW291129   0.432   8.880   2.055  2.7747 -1.8844  0.8517
29211SOL     OW91130   9.530   0.643   8.237 -0.4357 -0.1040  0.0372
29211SOL    HW191131   9.516   0.720   8.292  0.6963 -0.2709  0.5865
29211SOL    HW291132   9.492   0.667   8.153 -2.1624  0.1740  0.8534
29212SOL     OW91133  10.727   5.214   5.814 -0.4059 -0.3641  0.3813
29212SOL    HW191134  10.731   5.129   5.769 -0.8470 -0.8514  1.2356
29212SOL    HW291135  10.654   5.259   5.772  1.7226  0.9313 -2.2619
29213SOL     OW91136   8.873   9.104   4.147 -0.3493  0.1826  0.6663
29213SOL    HW191137   8.845   9.190   4.116  1.0840  0.5491  0.3397
29213SOL    HW291138   8.844   9.101   4.238 -0.3296  1.0427  0.7080
29214SOL     OW91139   8.899   6.551   8.446  0.4783 -0.2933 -0.3583
29214SOL    HW191140   8.920   6.643   8.462 -1.4621  0.3193 -0.9998
29214SOL    HW291141   8.841   6.527   8.518  1.5786 -1.2656  0.2249
29215SOL     OW91142   6.650   7.115   3.163 -0.4142 -0.3521 -0.0438
29215SOL    HW191143   6.717   7.086   3.101 -2.0547 -0.0392 -2.0693
29215SOL    HW291144   6.648   7.047   3.230  2.7263  0.2152  0.7989
29216SOL     OW91145   6.335   0.143   7.469  0.1323  0.2916  0.7371
29216SOL    HW191146   6.334   0.211   7.402  0.2888  0.4757  0.9227
29216SOL    HW291147   6.244   0.139   7.500 -0.1803 -0.5174 -0.2110
29217SOL     OW91148   8.397   0.522   1.891  0.2280 -0.2145 -0.2343
29217SOL    HW191149   8.444   0.439   1.878  1.1457 -0.0183  1.5563
29217SOL    HW291150   8.323   0.498   1.947 -2.5901 -0.7056 -3.7084
29218SOL     OW91151   5.378   5.661   7.940 -0.1824  0.2089 -0.3264
29218SOL    HW191152   5.380   5.756   7.930  1.0679  0.2765  0.3265
29218SOL    HW291153   5.338   5.646   8.025  1.8690  0.3012  0.7138
29219SOL     OW91154   8.783   4.657   9.609  0.2388 -0.4622 -0.2671
29219SOL    HW191155   8.710   4.596   9.613  0.2797 -0.5462 -0.7220
29219SOL    HW291156   8.743   4.740   9.582  0.4117 -0.6893 -1.2479
29220SOL     OW91157   0.193   4.463   1.805  0.1634  0.4941 -0.3000
29220SOL    HW191158   0.270   4.492   1.757 -0.5372  0.1121 -1.6906
29220SOL    HW291159   0.216   4.477   1.897  1.4280  1.5074 -0.7354
29221SOL     OW91160   5.776   1.684   3.177 -1.1123  0.1646 -0.2601
29221SOL    HW191161   5.771   1.610   3.116  0.6756  0.3675 -0.7201
29221SOL    HW291162   5.847   1.739   3.142 -0.1027  0.3633  1.9020
29222SOL     OW91163   7.011   3.849   9.526 -0.5314 -0.3916 -0.2721
29222SOL    HW191164   6.969   3.925   9.486  0.8466 -0.1509 -1.3398
29222SOL    HW291165   7.033   3.877   9.615 -3.0027 -0.6987  0.5264
29223SOL     OW91166   4.658   3.362   4.083  0.4804 -0.3217 -0.1323
29223SOL    HW191167   4.737   3.309   4.091 -0.1259 -1.3542 -0.7242
29223SOL    HW291168   4.607   3.341   4.160  0.8392  0.4779  0.3396
29224SOL     OW91169   1.315   3.751   0.166  0.2290  0.1754  0.8815
29224SOL    HW191170   1.354   3.831   0.201  0.2374  1.4914 -1.8575
29224SOL    HW291171   1.383   3.685   0.175  2.0964  1.6863 -1.0010
29225SOL     OW91172   5.858   9.599   2.868 -0.5349  0.1449  0.4755
29225SOL    HW191173   5.799   9.528   2.845  1.0328 -1.1724  0.2850
29225SOL    HW291174   5.893   9.575   2.954 -1.6571  1.8643  1.4679
29226SOL     OW91175   8.394   7.511   9.060 -0.1614  0.1271 -0.2758
29226SOL    HW191176   8.333   7.453   9.013 -0.1075 -0.4335  0.3328
29226SOL    HW291177   8.358   7.518   9.148 -0.3180  1.2696 -0.4264
29227SOL     OW91178   8.697   7.436   2.593  0.1970 -0.0880  0.0123
29227SOL    HW191179   8.662   7.353   2.625  0.4684 -0.6009 -0.9972
29227SOL    HW291180   8.791   7.429   2.606  0.2873 -0.2069 -0.6524
29228SOL     OW91181   9.692   3.562   1.402  0.6298  0.0019  0.4942
29228SOL    HW191182   9.601   3.534   1.387  0.2714  1.3521  0.0023
29228SOL    HW291183   9.685   3.636   1.462  1.0970  2.0655 -1.8113
29229SOL     OW91184   3.452   1.314   9.898 -0.4596 -0.5717  0.7241
29229SOL    HW191185   3.461   1.398   9.943  0.0184 -0.3945  0.3053
29229SOL    HW291186   3.541   1.291   9.871 -0.6978 -0.8119  0.1268
29230SOL     OW91187   5.221  10.747   8.467 -0.0818  1.0864 -0.0763
29230SOL    HW191188   5.247  10.675   8.409  1.5976  0.8314  0.9289
29230SOL    HW291189   5.184  10.813   8.408 -0.4184 -0.0349 -1.1708
29231SOL     OW91190   2.530   0.884   6.393  0.4898  0.0054 -0.0138
29231SOL    HW191191   2.514   0.794   6.421  1.1497 -0.1116  0.0176
29231SOL    HW291192   2.546   0.878   6.299 -3.4224  0.6125 -0.8810
29232SOL     OW91193  10.975   7.227   8.296 -0.4008 -0.2878  0.7023
29232SOL    HW191194  10.921   7.158   8.258  1.9862 -0.9015 -1.8865
29232SOL    HW291195  10.966   7.301   8.236 -1.8120  1.2416  2.6845
29233SOL     OW91196   5.672   4.086  10.144  0.1899 -0.6872  0.2786
29233SOL    HW191197   5.583   4.061  10.168 -0.5076  0.5186 -0.9230
29233SOL    HW291198   5.699   4.146  10.213  0.3920 -1.6333  1.0537
29234SOL     OW91199   7.490   0.249   2.931 -0.4839 -0.1033 -0.5101
29234SOL    HW191200   7.419   0.207   2.980  1.5419 -0.9427  1.9109
29234SOL    HW291201   7.497   0.337   2.969  1.3842 -0.9058  1.1734
29235SOL     OW91202   8.097   6.310   8.588  0.0162 -0.5863 -0.1753
29235SOL    HW191203   8.166   6.344   8.531  0.2758 -0.9286 -0.0685
29235SOL    HW291204   8.100   6.367   8.666 -1.6636  1.1632 -1.3092
29236SOL     OW91205   7.791   2.299   9.155  0.1422  0.4757  0.5584
29236SOL    HW191206   7.801   2.392   9.174 -0.2528  0.5842  0.2664
29236SOL    HW291207   7.801   2.293   9.060  1.9900 -0.0385  0.7476
29237SOL     OW91208  10.235   4.979   6.885 -0.6005  0.1583  0.4008
29237SOL    HW191209  10.310   4.966   6.943  1.2192  3.1704 -1.0200
29237SOL    HW291210  10.258   4.933   6.804 -0.5010  0.6171  0.1614
29238SOL     OW91211   4.345   6.337   2.470  0.2837  0.5639 -0.2468
29238SOL    HW191212   4.403   6.312   2.398 -0.0867  2.0653 -1.1272
29238SOL    HW291213   4.386   6.300   2.548  1.7928  0.5893 -0.9805
29239SOL     OW91214   2.203  10.405   8.255  0.1527  0.1164 -0.0409
29239SOL    HW191215   2.125  10.355   8.232  1.2535 -2.6203  1.5748
29239SOL    HW291216   2.226  10.452   8.175 -0.6090 -2.5997 -2.0202
29240SOL     OW91217   9.647   6.341   3.602 -0.2294  0.4310  0.3674
29240SOL    HW191218   9.599   6.305   3.527 -0.1211  0.9415  0.0521
29240SOL    HW291219   9.579   6.360   3.666 -0.3541  0.2827  0.2827
29241SOL     OW91220   9.467   9.326   5.164 -0.3170  1.1055  0.0940
29241SOL    HW191221   9.426   9.410   5.182 -0.1441  0.9221  1.4358
29241SOL    HW291222   9.561   9.345   5.162 -0.2522  0.8800  0.8235
29242SOL     OW91223   5.391   5.209   0.463 -0.6937 -0.0261 -0.6068
29242SOL    HW191224   5.487   5.206   0.457 -0.6668 -0.8487  0.0359
29242SOL    HW291225   5.363   5.239   0.377  0.1145 -0.4446 -1.0282
29243SOL     OW91226   9.857   9.549   6.602  0.0628 -0.1058 -0.1196
29243SOL    HW191227   9.816   9.527   6.686 -0.4274  0.8178 -0.1041
29243SOL    HW291228   9.785   9.547   6.539 -0.3639  2.8414  0.1292
29244SOL     OW91229   8.034   0.642  10.670  0.0199  0.2511  0.0727
29244SOL    HW191230   8.077   0.679  10.747 -0.2896 -1.2255  0.9908
29244SOL    HW291231   8.059   0.550  10.669 -0.9972 -0.0459 -0.8847
29245SOL     OW91232   3.673   7.287   5.552 -0.6587  0.3721 -0.1768
29245SOL    HW191233   3.742   7.274   5.616 -1.0057 -0.7897 -0.0231
29245SOL    HW291234   3.715   7.336   5.481 -0.4729  2.4132  1.2377
29246SOL     OW91235   2.537  10.145   5.318 -0.4296  0.1272  0.7448
29246SOL    HW191236   2.619  10.097   5.329 -0.7393 -0.7120 -0.4272
29246SOL    HW291237   2.564  10.235   5.302  0.3448 -0.3795 -0.9864
29247SOL     OW91238   7.717   4.688   7.358 -0.2494 -0.3746  0.2305
29247SOL    HW191239   7.695   4.766   7.411  0.4870 -0.8111  1.2137
29247SOL    HW291240   7.805   4.664   7.387 -0.3428 -1.3866 -0.3013
29248SOL     OW91241   2.874   0.422   0.633  0.1277 -0.2214  0.0282
29248SOL    HW191242   2.934   0.347   0.636  0.3551 -0.1448 -1.6672
29248SOL    HW291243   2.931   0.499   0.635  0.3650 -0.1350 -3.6849
29249SOL     OW91244   5.718   9.200   5.086  0.5802 -0.3013  0.2241
29249SOL    HW191245   5.813   9.202   5.086  0.6110 -1.1906 -0.0284
29249SOL    HW291246   5.694   9.169   4.999  0.0752 -0.3778  0.3838
29250SOL     OW91247  10.351   5.947   7.083  0.3093  0.5345 -0.1315
29250SOL    HW191248  10.427   5.960   7.139  0.9940 -0.9916 -0.6565
29250SOL    HW291249  10.292   5.892   7.134 -0.4097  1.5946  0.2181
29251SOL     OW91250   9.037   6.740   8.980 -0.2637  0.6076 -0.0058
29251SOL    HW191251   9.079   6.792   9.049 -1.3804 -0.4532  1.5484
29251SOL    HW291252   9.055   6.788   8.900  0.5947  2.2142  1.0842
29252SOL     OW91253   9.781   1.900   0.285 -0.5376 -0.0703  0.4744
29252SOL    HW191254   9.788   1.816   0.240 -0.7768  0.5604 -0.7981
29252SOL    HW291255   9.778   1.878   0.378  1.4054 -1.3514  0.2854
29253SOL     OW91256   8.045   7.509  10.161 -0.4617  0.7382  0.5062
29253SOL    HW191257   8.087   7.551  10.086 -2.3539  0.5757 -0.7083
29253SOL    HW291258   7.962   7.555  10.171 -2.3121 -2.1032 -0.4369
29254SOL     OW91259   6.408  10.297   2.084  0.0647  0.0957 -0.1098
29254SOL    HW191260   6.325  10.316   2.127 -0.3904  1.1350 -1.3864
29254SOL    HW291261   6.400  10.206   2.056 -1.7433  0.8696 -2.4464
29255SOL     OW91262   7.581   0.617  10.360  0.2611 -0.2305  0.5419
29255SOL    HW191263   7.607   0.525  10.353 -2.6016 -1.1161  0.0432
29255SOL    HW291264   7.632   0.652  10.432  2.0083 -1.9751  0.2139
29256SOL     OW91265   5.406   3.964  10.110 -0.7247 -0.3187 -0.2209
29256SOL    HW191266   5.315   3.968  10.138 -1.5039  1.9676 -2.6700
29256SOL    HW291267   5.402   3.929  10.021  0.6937  0.4182 -0.6093
29257SOL     OW91268   1.298   7.019   9.599  0.0605 -0.1316  0.3567
29257SOL    HW191269   1.353   6.976   9.534 -0.6667 -2.3680  1.1313
29257SOL    HW291270   1.348   7.095   9.627  2.1924 -1.3870  0.1284
29258SOL     OW91271   4.517   7.281   6.503  0.7146  0.0445  0.0203
29258SOL    HW191272   4.514   7.253   6.412 -3.3183  1.4149 -0.4658
29258SOL    HW291273   4.513   7.199   6.553  0.7014 -0.6350 -1.0590
29259SOL     OW91274   6.510   8.703   4.030  0.1086  0.0589  1.1531
29259SOL    HW191275   6.510   8.610   4.054  2.6214 -0.0777  0.8610
29259SOL    HW291276   6.600   8.732   4.044 -0.4826  2.3224  0.6800
29260SOL     OW91277   2.663   3.958   1.577  0.0725  0.1119 -0.2821
29260SOL    HW191278   2.666   3.920   1.489 -1.0448  0.0307 -0.2928
29260SOL    HW291279   2.705   4.044   1.567  0.5550 -0.1676 -0.7423
29261SOL     OW91280   8.839   6.879   2.322 -0.8385  0.1742 -0.2771
29261SOL    HW191281   8.755   6.839   2.344 -1.0644 -0.1044 -1.5719
29261SOL    HW291282   8.821   6.973   2.323 -0.7839  0.1921  0.8667
29262SOL     OW91283   4.135   8.369   9.850 -0.5100 -0.1364  0.4946
29262SOL    HW191284   4.177   8.430   9.909 -1.2950 -0.0967  1.0287
29262SOL    HW291285   4.044   8.399   9.844 -0.5513 -0.3924 -0.3873
29263SOL     OW91286   0.466   6.539   8.846  0.5501 -0.3256 -0.2218
29263SOL    HW191287   0.509   6.596   8.910  2.5011 -0.8651 -0.9749
29263SOL    HW291288   0.379   6.523   8.883  1.4359 -0.2597  2.0909
29264SOL     OW91289   6.990   2.415   9.869  0.0980  0.5334  0.4543
29264SOL    HW191290   7.058   2.481   9.885 -0.7719  0.9560  2.7537
29264SOL    HW291291   6.995   2.357   9.945  0.8317 -2.1152 -1.5006
29265SOL     OW91292  10.081   8.982   4.438 -0.1878 -0.0865  0.0093
29265SOL    HW191293  10.045   9.069   4.419 -0.3652 -0.2711 -0.5239
29265SOL    HW291294  10.011   8.921   4.414 -0.5004 -0.3377  1.4739
29266SOL     OW91295   5.297   0.041   3.699 -0.1215 -0.2288 -0.0061
29266SOL    HW191296   5.279  -0.033   3.756 -3.2324 -1.6117 -2.4593
29266SOL    HW291297   5.297   0.117   3.758 -0.4661 -1.8119  2.1507
29267SOL     OW91298   0.031   2.759   7.159  0.2185  0.1431 -0.8086
29267SOL    HW191299  -0.057   2.795   7.145  0.5948  1.2797 -0.3649
29267SOL    HW291300   0.030   2.729   7.250  1.4030  3.6478  0.5124
29268SOL     OW91301  10.506   4.437   6.869  0.1938 -0.1293  0.5283
29268SOL    HW191302  10.520   4.343   6.856 -2.0072 -0.3869 -0.3647
29268SOL    HW291303  10.496   4.447   6.963  1.1807 -0.6382  0.7084
29269SOL     OW91304  10.506   6.190   7.365  0.0526 -0.0829  0.1654
29269SOL    HW191305  10.436   6.204   7.428 -1.5369 -0.3824 -1.4356
29269SOL    HW291306  10.584   6.228   7.406 -0.4758 -1.8601  3.0261
29270SOL     OW91307   4.543   4.199   3.934  0.0884  0.3578  0.2283
29270SOL    HW191308   4.604   4.127   3.952  0.0823  0.6087  1.3160
29270SOL    HW291309   4.539   4.204   3.839  1.4322  0.0455  0.1384
29271SOL     OW91310   1.024   9.314   6.709  0.1292  0.2630 -0.3430
29271SOL    HW191311   0.991   9.336   6.797 -0.6699  2.0937 -1.0478
29271SOL    HW291312   1.110   9.275   6.725  0.3858  1.3761  1.2160
29272SOL     OW91313   3.350   2.413   1.275  0.0557 -0.0689  0.0369
29272SOL    HW191314   3.389   2.499   1.295 -1.6174  0.7274  0.0336
29272SOL    HW291315   3.424   2.360   1.247  1.1350  1.4011 -0.0597
29273SOL     OW91316   4.260   9.839   7.719 -0.7561  0.7337 -0.2066
29273SOL    HW191317   4.236   9.886   7.799 -0.7992 -1.4230  1.1191
29273SOL    HW291318   4.223   9.752   7.730  1.7492 -0.5652 -1.2309
29274SOL     OW91319   7.851  10.877   6.195  1.1148  0.3209 -0.7610
29274SOL    HW191320   7.874  10.968   6.177 -0.3391  1.0705  0.9041
29274SOL    HW291321   7.762  10.868   6.160  0.5667  0.0861  0.6390
29275SOL     OW91322  10.309   3.442   6.631 -0.8198 -0.3931  0.1964
29275SOL    HW191323  10.369   3.514   6.612 -1.8002  0.1735 -0.9321
29275SOL    HW291324  10.222   3.476   6.609 -1.6377 -1.0535  2.1678
29276SOL     OW91325   8.559   3.661  10.622  0.5494  0.2324 -0.3191
29276SOL    HW191326   8.527   3.619  10.701  0.0420  0.3765 -0.4446
29276SOL    HW291327   8.529   3.605  10.551 -0.4510  0.9707 -0.5144
29277SOL     OW91328   8.613   3.770   9.629 -0.0804 -0.3589 -0.3216
29277SOL    HW191329   8.657   3.773   9.544 -0.6956  0.3990 -0.6198
29277SOL    HW291330   8.535   3.716   9.613 -0.5758  0.3786 -0.4244
29278SOL     OW91331   1.420   6.208   6.164  0.2618 -0.0251 -0.2928
29278SOL    HW191332   1.502   6.188   6.210 -0.0847  3.3189  2.2250
29278SOL    HW291333   1.354   6.157   6.211  0.5157 -0.2592 -0.1850
29279SOL     OW91334   5.709   1.156   6.955  0.0689  0.7746 -0.2478
29279SOL    HW191335   5.707   1.209   7.034 -0.3802 -0.0199  0.2821
29279SOL    HW291336   5.628   1.104   6.957  0.2009  0.5063 -1.0584
29280SOL     OW91337   4.921  10.136   3.262  0.3648 -0.2600  0.6040
29280SOL    HW191338   4.862  10.128   3.187  2.8839  0.5347 -1.5779
29280SOL    HW291339   4.915  10.228   3.288 -0.1998 -0.4434  1.1471
29281SOL     OW91340   7.490   5.590   8.353  0.0625  0.2936  0.2596
29281SOL    HW191341   7.426   5.583   8.282  1.4671  0.0715 -1.0259
29281SOL    HW291342   7.437   5.611   8.430 -1.5246  0.4255 -0.8109
29282SOL     OW91343   4.872   9.604   6.436  0.1059  0.6896  0.3336
29282SOL    HW191344   4.922   9.523   6.445 -0.4366  0.0961 -1.4548
29282SOL    HW291345   4.938   9.672   6.427  0.5757  0.3267  0.9658
29283SOL     OW91346   9.939   6.385   2.629 -0.0960 -0.3957  0.2094
29283SOL    HW191347  10.021   6.341   2.607  0.3097  0.3784  0.1393
29283SOL    HW291348   9.902   6.331   2.699  1.1805  0.0040  1.2562
29284SOL     OW91349   3.938  10.570   2.846 -0.5223 -0.0420 -0.2202
29284SOL    HW191350   3.915  10.600   2.758  0.2660  2.4361  0.3289
29284SOL    HW291351   3.863  10.595   2.900 -0.4011 -0.2623  0.0497
29285SOL     OW91352   4.114   8.102   5.462  0.3741 -0.1058  0.0239
29285SOL    HW191353   4.088   8.141   5.379 -0.0562 -2.7687 -1.1965
29285SOL    HW291354   4.031   8.087   5.509  0.4913  0.0358  0.2769
29286SOL     OW91355   5.070   3.958   4.854  0.1268 -0.4129  0.3072
29286SOL    HW191356   5.123   3.944   4.775  0.1429 -0.8492  0.3952
29286SOL    HW291357   5.133   3.964   4.925  0.1221  0.1307  0.2718
29287SOL     OW91358   4.168   5.122   2.685 -0.4899 -0.4847 -0.1203
29287SOL    HW191359   4.205   5.076   2.760  0.9013 -2.2228 -1.7671
29287SOL    HW291360   4.088   5.073   2.663 -0.1661 -0.8143 -0.5772
29288SOL     OW91361   2.925   5.668   8.439  0.8965 -0.3065  0.2472
29288SOL    HW191362   2.918   5.760   8.413  0.6187 -0.5961 -0.7339
29288SOL    HW291363   2.847   5.626   8.402  1.5462 -1.1372 -0.2193
29289SOL     OW91364   8.965   1.126   2.416 -0.3203 -0.1000 -0.2641
29289SOL    HW191365   8.985   1.211   2.378  1.4808 -0.2519  0.2559
29289SOL    HW291366   8.944   1.145   2.507  2.3568 -0.3393  0.4991
29290SOL     OW91367   5.974   5.018   2.130  0.4453 -0.4119 -0.3376
29290SOL    HW191368   6.034   5.092   2.127  0.9982 -0.5980  2.8460
29290SOL    HW291369   6.031   4.941   2.131 -0.0387 -0.7994 -1.2488
29291SOL     OW91370   0.755   2.566   7.842 -0.3510  0.2452  1.2636
29291SOL    HW191371   0.754   2.592   7.934  0.6800 -0.0934  1.3888
29291SOL    HW291372   0.843   2.589   7.812 -0.9733  1.1808  0.1078
29292SOL     OW91373   7.131   6.771   9.409  0.6095  0.7867  0.2324
29292SOL    HW191374   7.160   6.847   9.357  1.0809  0.6653  0.3136
29292SOL    HW291375   7.035   6.776   9.407  0.5676  0.1433 -1.6156
29293SOL     OW91376   7.667   9.234   4.609 -0.9045  0.6586 -0.2481
29293SOL    HW191377   7.595   9.284   4.647 -0.9101  0.2410  0.3004
29293SOL    HW291378   7.665   9.150   4.655 -0.7580  0.2283 -1.0051
29294SOL     OW91379   3.814   1.625   1.425 -0.6175  0.2273  0.2488
29294SOL    HW191380   3.769   1.617   1.509  0.3022  0.0190  0.7431
29294SOL    HW291381   3.906   1.641   1.449 -0.3739  0.3363 -0.7174
29295SOL     OW91382   0.532   4.265  10.039 -0.4260 -0.4081 -0.7492
29295SOL    HW191383   0.483   4.205  10.095 -1.4926  0.8000 -0.3271
29295SOL    HW291384   0.468   4.294   9.974  0.2955 -0.3491 -1.4375
29296SOL     OW91385   8.711  10.082   2.358  0.1916 -0.5616  0.4305
29296SOL    HW191386   8.647  10.133   2.408  1.0431 -1.4985  2.6503
29296SOL    HW291387   8.753  10.027   2.424  1.5904 -1.7288 -1.3489
29297SOL     OW91388   3.390   2.845   4.815 -0.5187  0.3746  0.1906
29297SOL    HW191389   3.407   2.837   4.721 -1.2043  0.7890  0.0230
29297SOL    HW291390   3.396   2.939   4.832  0.4244  0.2294  0.7305
29298SOL     OW91391   4.020  10.640   5.987 -0.0505  0.5023 -0.7146
29298SOL    HW191392   4.111  10.613   5.970  0.0667 -0.5016  1.2847
29298SOL    HW291393   3.971  10.558   5.992 -1.1791  1.0468 -2.0848
29299SOL     OW91394  10.303   0.409   3.102 -0.0252 -0.0656 -0.3746
29299SOL    HW191395  10.361   0.424   3.176 -1.1707 -0.6301  0.6654
29299SOL    HW291396  10.342   0.336   3.055 -0.0712 -0.6789  0.5238
29300SOL     OW91397   4.479   7.243   4.751  0.5865  0.1536  0.7926
29300SOL    HW191398   4.400   7.255   4.699  1.1988 -2.8363 -1.0273
29300SOL    HW291399   4.450   7.196   4.829  0.5143 -0.6898  0.2619
29301SOL     OW91400   5.624   4.296   6.922 -0.0543 -0.7215 -0.5450
29301SOL    HW191401   5.547   4.350   6.941 -0.3327 -1.4651  0.5660
29301SOL    HW291402   5.594   4.234   6.855 -0.5520 -1.2706  0.1781
29302SOL     OW91403   3.160   8.467  10.655 -0.8628  0.3093  0.1188
29302SOL    HW191404   3.233   8.434  10.707 -0.9440  0.9472  0.6456
29302SOL    HW291405   3.190   8.550  10.620 -0.1895 -0.8309 -2.2531
29303SOL     OW91406   8.215   0.804   5.967  0.0387 -0.2771 -0.1015
29303SOL    HW191407   8.253   0.884   5.930 -1.8033  0.1045 -1.3134
29303SOL    HW291408   8.238   0.736   5.905  1.5947 -0.7435  0.9241
29304SOL     OW91409   8.885   9.762   3.508 -0.2016  0.1245  0.6690
29304SOL    HW191410   8.929   9.708   3.442 -1.1042  0.8181 -0.5462
29304SOL    HW291411   8.929   9.741   3.590  0.9749 -0.7476 -0.1570
29305SOL     OW91412   4.544  10.880   8.037 -0.6666 -0.4657 -0.3579
29305SOL    HW191413   4.556  10.785   8.044 -0.0343 -0.3042  1.0101
29305SOL    HW291414   4.497  10.891   7.954  0.4569 -1.8625 -1.2588
29306SOL     OW91415   6.913   9.047   9.437  0.1136 -0.1275 -0.5077
29306SOL    HW191416   6.924   8.984   9.366 -1.6429  0.9459 -1.8208
29306SOL    HW291417   6.969   9.121   9.412  1.1508 -0.5995  0.3536
29307SOL     OW91418   1.720   3.145  10.161 -0.1426  0.0095  0.5460
29307SOL    HW191419   1.669   3.181  10.088 -1.3294  0.3811  1.5308
29307SOL    HW291420   1.794   3.205  10.169 -0.8255  0.8671  0.6287
29308SOL     OW91421   6.239   9.621   3.894  0.4203 -0.0540  0.2430
29308SOL    HW191422   6.248   9.716   3.899 -0.0279  0.0217 -0.2489
29308SOL    HW291423   6.196   9.597   3.976 -1.3215  0.4204 -0.4943
29309SOL     OW91424   1.838   4.003   2.042  1.0284  0.2267 -0.2151
29309SOL    HW191425   1.746   3.977   2.045  1.1910 -0.2866  0.6740
29309SOL    HW291426   1.877   3.961   2.118  2.0449  0.2798 -0.6903
29310SOL     OW91427   5.893   6.485   1.586  0.0639 -0.2066 -0.1029
29310SOL    HW191428   5.923   6.494   1.495 -0.1833  1.7664 -0.0404
29310SOL    HW291429   5.961   6.529   1.638  0.0583 -1.0682  0.6541
29311SOL     OW91430   6.902   4.557  10.390 -0.3358  0.8906 -0.3970
29311SOL    HW191431   6.961   4.522  10.456  1.7165  1.4202 -1.8317
29311SOL    HW291432   6.843   4.485  10.369 -0.1634  0.3101  1.0357
29312SOL     OW91433   2.857   9.509   2.696 -0.5861 -0.0801 -0.3356
29312SOL    HW191434   2.932   9.455   2.719 -0.1630  0.0481 -1.3304
29312SOL    HW291435   2.791   9.488   2.762  0.5053  0.2240  0.8966
29313SOL     OW91436   1.305   4.550   3.245 -0.3405 -0.4060 -0.5301
29313SOL    HW191437   1.274   4.552   3.336 -1.1927  1.1828 -0.8148
29313SOL    HW291438   1.263   4.626   3.204 -0.5877 -1.5168 -2.4560
29314SOL     OW91439   1.845   2.282  10.868 -0.1587 -0.1365 -0.0878
29314SOL    HW191440   1.812   2.240  10.947 -0.4817  0.1602 -0.0649
29314SOL    HW291441   1.924   2.232  10.846 -0.0151 -0.1642  0.4718
29315SOL     OW91442   4.435   4.431   5.259  0.4269 -0.6715 -0.3234
29315SOL    HW191443   4.453   4.443   5.352  0.6973 -0.4989 -0.3948
29315SOL    HW291444   4.387   4.510   5.234  0.4811 -0.6510 -0.3622
29316SOL     OW91445   2.236   8.110  10.806 -0.3528 -0.4199  0.3219
29316SOL    HW191446   2.212   8.197  10.775  0.9238  0.1821  0.9534
29316SOL    HW291447   2.190   8.050  10.747  0.4347  0.6800 -1.4999
29317SOL     OW91448   7.759   0.565  10.958 -0.3484  0.4940 -0.8888
29317SOL    HW191449   7.854   0.569  10.946 -0.0491 -1.3536  0.4083
29317SOL    HW291450   7.736   0.651  10.996  0.9550  0.6364 -0.3749
29318SOL     OW91451   1.256   2.252   4.745  0.0303 -0.6466 -0.0027
29318SOL    HW191452   1.285   2.192   4.676  1.8151 -0.8936  0.8950
29318SOL    HW291453   1.277   2.207   4.826  3.0053  1.7635  0.7553
29319SOL     OW91454   4.157   4.403   0.560  0.1501 -1.1729 -0.4616
29319SOL    HW191455   4.077   4.351   0.568 -1.4898  1.2321 -0.2357
29319SOL    HW291456   4.130   4.482   0.513  2.6076 -0.6397 -1.1281
29320SOL     OW91457   6.228   8.860   1.247  0.0195 -0.0843 -0.1980
29320SOL    HW191458   6.297   8.799   1.274 -1.2826 -1.8588 -0.6978
29320SOL    HW291459   6.270   8.916   1.182  1.9103  1.1911  1.9471
29321SOL     OW91460  10.608   8.306   1.583 -0.8423 -0.1358  0.5991
29321SOL    HW191461  10.604   8.267   1.670  1.9485  0.7190  1.2361
29321SOL    HW291462  10.700   8.299   1.558 -1.5353 -0.2405 -2.2641
29322SOL     OW91463   9.734   2.461   3.087  0.2195 -0.0407 -0.0492
29322SOL    HW191464   9.669   2.448   3.156 -0.8598 -1.3711 -1.2676
29322SOL    HW291465   9.811   2.413   3.119  0.1143  0.2698  0.7065
29323SOL     OW91466  10.992   9.270   2.636 -0.2334 -0.0870 -0.3466
29323SOL    HW191467  11.039   9.316   2.706  0.3905  0.1787 -0.9414
29323SOL    HW291468  10.929   9.215   2.683 -0.2117  0.5143  0.4114
29324SOL     OW91469   0.433   3.165   8.761 -0.5443 -0.0944  0.4732
29324SOL    HW191470   0.343   3.192   8.747 -0.0747  1.1930 -0.2148
29324SOL    HW291471   0.463   3.134   8.676 -0.3533 -0.5899  0.7143
29325SOL     OW91472   2.689  10.598   7.082  0.2559 -0.2003  0.1634
29325SOL    HW191473   2.739  10.522   7.111  2.1831  0.2757 -1.6469
29325SOL    HW291474   2.602  10.565   7.064  0.7739 -1.7492  0.3810
29326SOL     OW91475   0.292   1.498   7.214 -0.5261  0.5138 -0.4776
29326SOL    HW191476   0.249   1.574   7.175 -0.2566  1.3165  0.7429
29326SOL    HW291477   0.367   1.534   7.262 -1.0746 -0.3677  1.1120
29327SOL     OW91478   1.838   6.305   0.080  0.5137  0.3051  0.1158
29327SOL    HW191479   1.833   6.368   0.151 -1.3016 -0.0922  0.3832
29327SOL    HW291480   1.789   6.346   0.008 -0.6967 -0.7509  0.2942
29328SOL     OW91481   1.315   6.605   3.968 -0.3444  0.4123 -0.3019
29328SOL    HW191482   1.362   6.527   3.938  0.5021  0.3885  1.0045
29328SOL    HW291483   1.323   6.667   3.895  0.8821  0.0484 -0.5045
29329SOL     OW91484   5.158  10.353   2.037 -0.4672 -0.3783 -0.0104
29329SOL    HW191485   5.167  10.444   2.009 -1.2215 -0.1589  0.4373
29329SOL    HW291486   5.164  10.303   1.955 -0.9913  0.1370 -0.3712
29330SOL     OW91487   3.093   2.559   6.920 -0.2638  0.2060  0.3074
29330SOL    HW191488   3.119   2.651   6.918 -1.5615  0.5840 -0.3880
29330SOL    HW291489   3.174   2.511   6.938  0.6460  1.3872 -0.5273
29331SOL     OW91490   5.166   2.405   3.856 -0.4461 -0.3117  0.2224
29331SOL    HW191491   5.208   2.463   3.792  0.3371 -0.2521  0.7793
29331SOL    HW291492   5.213   2.322   3.849 -1.9493 -1.1075 -0.9949
29332SOL     OW91493   5.578   9.849   2.313  0.4530 -0.1554 -0.0325
29332SOL    HW191494   5.513   9.800   2.262 -2.2787  2.9545  0.1718
29332SOL    HW291495   5.635   9.781   2.350 -3.0243 -3.2101  0.2912
29333SOL     OW91496   3.232   7.457   1.845 -0.0177  0.3384  0.4892
29333SOL    HW191497   3.162   7.446   1.782  1.4065 -1.1838 -0.9255
29333SOL    HW291498   3.206   7.532   1.898 -2.5495 -0.0384 -0.1325
29334SOL     OW91499   0.601   6.843   1.100 -0.0380  0.3513  0.6649
29334SOL    HW191500   0.553   6.766   1.068 -0.7897  0.9839  0.2326
29334SOL    HW291501   0.582   6.911   1.036  1.8587  0.5026  0.2150
29335SOL     OW91502   5.343   0.235   4.829  0.2926  0.0142 -0.3349
29335SOL    HW191503   5.343   0.167   4.761  0.1787 -0.3529  0.0250
29335SOL    HW291504   5.434   0.263   4.835  0.5873 -1.0277  0.4079
29336SOL     OW91505   1.203   0.585   6.409  0.7480  0.3107 -0.2713
29336SOL    HW191506   1.176   0.644   6.339  0.4305  0.4566 -0.0287
29336SOL    HW291507   1.146   0.608   6.483  2.1526  1.2718  0.5638
29337SOL     OW91508   3.542  10.507   2.163  0.5063 -0.2949 -0.2195
29337SOL    HW191509   3.491  10.462   2.096  0.6099  1.3370 -1.4717
29337SOL    HW291510   3.483  10.572   2.200  1.0748  0.2701 -0.2765
29338SOL     OW91511   1.775   0.769   2.433  0.5871 -0.0610 -0.1473
29338SOL    HW191512   1.818   0.684   2.444  1.5997  0.4634  0.0956
29338SOL    HW291513   1.712   0.755   2.363  1.0726 -0.8918 -0.4392
29339SOL     OW91514   0.167   4.384   1.428 -0.2211  0.7443  0.2493
29339SOL    HW191515   0.249   4.427   1.450  0.6420 -1.3014  1.3168
29339SOL    HW291516   0.176   4.359   1.336  0.3725  0.5176  0.3671
29340SOL     OW91517   2.935   9.826   0.578 -0.4603  0.2298  0.6670
29340SOL    HW191518   2.964   9.907   0.621  0.7729  0.7045 -0.9619
29340SOL    HW291519   2.997   9.760   0.608 -0.2946  0.3130  0.5102
29341SOL     OW91520  10.887   9.457   0.648 -0.1753 -0.3706  0.5345
29341SOL    HW191521  10.864   9.408   0.727  0.3523 -1.3558  0.0916
29341SOL    HW291522  10.952   9.402   0.604 -1.5897 -0.5717 -1.3765
29342SOL     OW91523   5.374   7.021   9.192  0.0543  0.2421 -0.6154
29342SOL    HW191524   5.282   7.029   9.169  0.2036  0.3097 -1.2230
29342SOL    HW291525   5.415   6.985   9.113  0.4365 -0.4391 -0.1203
29343SOL     OW91526  10.999   3.760   4.764  0.3213 -0.2042 -0.1306
29343SOL    HW191527  10.963   3.802   4.842 -1.6167 -0.6402 -0.7468
29343SOL    HW291528  10.937   3.781   4.695  1.3684 -0.8502 -1.3002
29344SOL     OW91529   4.843   3.643   7.430  0.1467  0.6151  0.6801
29344SOL    HW191530   4.829   3.698   7.353  0.6218  1.0848  0.9175
29344SOL    HW291531   4.755   3.618   7.458 -0.0141  0.1670 -0.1998
29345SOL     OW91532   9.498   1.089  10.389  0.0495 -0.3767  0.0373
29345SOL    HW191533   9.527   1.129  10.471 -0.5356  0.7486 -0.2847
29345SOL    HW291534   9.409   1.123  10.376 -0.6433 -2.1145 -0.0524
29346SOL     OW91535   0.342  10.075   5.695  0.4744 -0.0488 -1.0029
29346SOL    HW191536   0.396  10.002   5.664 -0.7384 -1.0422 -0.8195
29346SOL    HW291537   0.266  10.076   5.637  0.9383  1.7288 -1.6496
29347SOL     OW91538  10.565   3.698  10.055 -0.3522 -0.4417 -0.0915
29347SOL    HW191539  10.653   3.730  10.076 -0.1370 -0.7511 -0.5184
29347SOL    HW291540  10.541   3.743   9.974  0.5320 -2.3722 -1.5020
29348SOL     OW91541   8.770   9.333   1.099 -0.2783  0.4549  0.0110
29348SOL    HW191542   8.803   9.376   1.020 -1.8384  2.5833  0.4448
29348SOL    HW291543   8.837   9.350   1.165 -0.2915  1.1643 -0.1473
29349SOL     OW91544  10.432   6.235   5.061  0.0811 -0.5770  0.0720
29349SOL    HW191545  10.345   6.214   5.027 -0.5096 -1.3267  1.9104
29349SOL    HW291546  10.482   6.154   5.050  0.0723 -0.6285  0.3971
29350SOL     OW91547   0.988   3.387   0.111 -0.2806  0.1616  0.2846
29350SOL    HW191548   0.896   3.374   0.137 -0.5041  0.7900 -0.1557
29350SOL    HW291549   1.027   3.432   0.186  0.3880 -2.4353  1.6332
29351SOL     OW91550   1.459   0.753   6.433  0.1451  0.1547  0.1390
29351SOL    HW191551   1.533   0.726   6.486 -0.3131 -0.6645  0.3797
29351SOL    HW291552   1.392   0.687   6.449  0.1884 -0.4725 -1.9248
29352SOL     OW91553   7.023   1.823   7.017 -0.3580 -0.1394 -0.4068
29352SOL    HW191554   6.953   1.886   7.002 -1.8486 -0.7006  3.1890
29352SOL    HW291555   7.078   1.863   7.085  1.6828 -0.6134 -1.6848
29353SOL     OW91556   8.947   6.855   9.786 -0.6616  0.1244  0.8279
29353SOL    HW191557   8.855   6.879   9.773  0.2499  3.6311 -0.4027
29353SOL    HW291558   8.971   6.896   9.869  0.1929  0.9248  0.2183
29354SOL     OW91559   0.033   1.861   4.200 -0.3130  0.3205  0.2375
29354SOL    HW191560   0.036   1.796   4.131  1.3288  1.4954 -0.8718
29354SOL    HW291561   0.078   1.820   4.274 -1.2428 -0.5906  0.3157
29355SOL     OW91562   8.146   3.169   1.889 -0.3214  0.3242  0.9241
29355SOL    HW191563   8.167   3.231   1.819 -0.9690  0.2518  0.6534
29355SOL    HW291564   8.229   3.127   1.909 -0.5086 -1.4617 -1.5708
29356SOL     OW91565   5.836   8.683   1.854 -0.4413  0.2136  0.2435
29356SOL    HW191566   5.842   8.739   1.931 -0.8787  2.2277 -1.1006
29356SOL    HW291567   5.792   8.737   1.788 -0.1202 -1.4334 -1.4172
29357SOL     OW91568   5.754   9.510   1.987  0.4579 -0.2792  0.2681
29357SOL    HW191569   5.679   9.467   1.946  1.9456 -2.5177 -0.2726
29357SOL    HW291570   5.795   9.560   1.917 -0.6249  1.1673  0.6267
29358SOL     OW91571   9.748  10.682   1.325 -0.2702 -0.2035 -0.1782
29358SOL    HW191572   9.671  10.688   1.381 -0.3643 -0.1447 -0.3141
29358SOL    HW291573   9.807  10.622   1.372  0.2450  0.9358  0.6667
29359SOL     OW91574   5.204   2.180  10.609  0.4565 -0.2390 -0.0194
29359SOL    HW191575   5.139   2.118  10.575 -0.8366  1.6700 -1.1550
29359SOL    HW291576   5.184   2.185  10.703  0.7910 -1.7294  0.1644
29360SOL     OW91577   5.815   5.774   2.839 -0.2763  0.7040  0.5283
29360SOL    HW191578   5.896   5.798   2.792  1.4476 -2.8445  1.3425
29360SOL    HW291579   5.845   5.746   2.925 -2.6555  0.9663  1.5147
29361SOL     OW91580   7.533   4.501   0.921  0.0949 -0.2617  0.0477
29361SOL    HW191581   7.532   4.511   1.016 -0.8132 -0.2597  0.0490
29361SOL    HW291582   7.499   4.413   0.905 -0.7702  0.1192 -0.2997
29362SOL     OW91583   6.451   0.688   7.726  0.0822 -0.5968 -0.2979
29362SOL    HW191584   6.452   0.645   7.641 -2.6484 -0.0261 -0.6768
29362SOL    HW291585   6.407   0.626   7.784 -0.8278  0.2708 -0.0406
29363SOL     OW91586   8.839   6.360   2.016 -0.6365 -0.0276  0.0432
29363SOL    HW191587   8.757   6.344   2.064  0.1420  0.3168  1.5702
29363SOL    HW291588   8.811   6.390   1.930 -2.1138 -0.5538  0.3094
29364SOL     OW91589   1.097   8.873   4.183  0.9851 -0.6204  0.1989
29364SOL    HW191590   1.129   8.815   4.115  0.3938 -2.2972  1.2950
29364SOL    HW291591   1.002   8.879   4.167  1.0621  0.1916 -0.0011
29365SOL     OW91592   4.009   6.466   7.528 -0.3288  0.4144 -0.8719
29365SOL    HW191593   3.980   6.395   7.585 -2.4134  1.0105 -1.0889
29365SOL    HW291594   4.088   6.433   7.486 -0.9206 -1.5492 -0.5420
29366SOL     OW91595   2.427   4.724   1.397 -0.2967 -0.6646 -0.0637
29366SOL    HW191596   2.511   4.737   1.352 -0.4508  0.2502 -0.1032
29366SOL    HW291597   2.447   4.661   1.466  0.5641  0.0011  0.3063
29367SOL     OW91598   7.335   7.039   9.755 -0.7179  0.2577 -0.5324
29367SOL    HW191599   7.387   7.117   9.735 -0.1911 -0.1258 -0.6850
29367SOL    HW291600   7.311   7.004   9.669 -0.9895  0.2770 -0.4639
29368SOL     OW91601  10.000   3.952   5.742  0.0121 -0.3104 -0.2229
29368SOL    HW191602  10.060   4.008   5.693  1.5159  1.6365  3.4715
29368SOL    HW291603  10.051   3.872   5.758  1.0116  0.6049  1.3513
29369SOL     OW91604   2.107   8.505   3.716 -0.2415  0.4757 -0.2890
29369SOL    HW191605   2.047   8.541   3.781 -0.7715  1.3741 -1.2524
29369SOL    HW291606   2.054   8.494   3.637  0.3939 -0.5921 -0.5926
29370SOL     OW91607   3.713   6.112   3.559  0.0300  0.0491  0.0372
29370SOL    HW191608   3.719   6.158   3.475 -0.8452  0.2220  0.0566
29370SOL    HW291609   3.788   6.052   3.559 -1.6520 -2.2731 -2.2799
29371SOL     OW91610   1.638   3.772   0.357  0.2074  0.0149 -0.2591
29371SOL    HW191611   1.575   3.842   0.337  0.4651  0.4066  0.2677
29371SOL    HW291612   1.662   3.787   0.449  2.3249  0.8748 -0.8941
29372SOL     OW91613   1.697   8.143   8.756 -0.2262  0.7138 -0.2694
29372SOL    HW191614   1.791   8.149   8.739 -0.1001  0.6451  0.3583
29372SOL    HW291615   1.675   8.227   8.796 -0.2928  0.4697  0.2126
29373SOL     OW91616  10.122   1.998   5.405  0.1543 -0.5372 -0.1813
29373SOL    HW191617  10.116   2.072   5.344 -3.1178  0.0284  0.6609
29373SOL    HW291618  10.089   1.923   5.355 -0.8529 -0.4331  0.2924
29374SOL     OW91619   1.330   3.832   3.118  0.4346 -0.3737 -0.4042
29374SOL    HW191620   1.369   3.912   3.153 -1.8902  1.1077 -1.0396
29374SOL    HW291621   1.385   3.810   3.042  1.1543  0.5404 -0.1618
29375SOL     OW91622   2.283   6.367   9.885  0.2007  0.4639 -0.1725
29375SOL    HW191623   2.345   6.363   9.813  0.9141  1.7318  0.3273
29375SOL    HW291624   2.335   6.399   9.959 -0.6225 -0.3330  0.7774
29376SOL     OW91625   7.377   1.230   3.428  0.2142  0.2480  0.3983
29376SOL    HW191626   7.407   1.143   3.456 -0.3430  0.1483  0.6999
29376SOL    HW291627   7.419   1.244   3.344  0.5790 -0.1739  0.5066
29377SOL     OW91628   2.209  10.655   4.724 -0.1518 -0.1880 -0.4933
29377SOL    HW191629   2.246  10.594   4.660 -3.9966 -0.4738 -2.7398
29377SOL    HW291630   2.119  10.626   4.736 -0.3649  1.4586  3.1862
29378SOL     OW91631   3.608   0.370   7.368 -0.2708 -0.1683 -0.0062
29378SOL    HW191632   3.635   0.405   7.452 -1.8780  1.7513 -0.2203
29378SOL    HW291633   3.513   0.376   7.369 -0.3021  2.4366 -2.8986
29379SOL     OW91634   0.688   0.821   4.377 -0.3622  0.2282  0.0615
29379SOL    HW191635   0.739   0.901   4.365  1.0782 -0.7198 -0.5091
29379SOL    HW291636   0.716   0.787   4.463 -0.0432 -0.2766 -0.2356
29380SOL     OW91637  10.332   4.652   0.453  0.2130 -0.2250 -0.8261
29380SOL    HW191638  10.340   4.581   0.517 -0.5711  0.9224  0.5998
29380SOL    HW291639  10.259   4.626   0.397  0.6222 -1.0372 -1.0013
29381SOL     OW91640   2.396   9.311   0.425  0.8869  0.3498 -0.6707
29381SOL    HW191641   2.321   9.368   0.445  1.2337  1.6765 -2.8284
29381SOL    HW291642   2.357   9.229   0.396  0.3188  0.3478  0.0745
29382SOL     OW91643   8.350   7.362   6.170 -0.1568 -0.5548 -0.0394
29382SOL    HW191644   8.423   7.306   6.142  0.1171  0.7272 -2.2093
29382SOL    HW291645   8.271   7.314   6.144 -0.0602 -1.4253  1.2411
29383SOL     OW91646   7.805   2.827   2.439 -0.1582 -0.4834  0.1977
29383SOL    HW191647   7.874   2.835   2.505  0.1978 -3.2682  0.3068
29383SOL    HW291648   7.822   2.897   2.376  0.4405  1.2641  2.1844
29384SOL     OW91649   6.770   6.335   3.325 -0.1536  0.0964 -0.3137
29384SOL    HW191650   6.763   6.313   3.418  0.3354  0.0654 -0.2859
29384SOL    HW291651   6.789   6.252   3.283  0.1671  0.2033 -0.3804
29385SOL     OW91652   4.232   0.527   3.667 -0.5338 -0.5587 -0.9311
29385SOL    HW191653   4.144   0.511   3.633 -0.3168 -1.0923 -1.2463
29385SOL    HW291654   4.231   0.620   3.689 -1.1901 -0.5649 -0.8899
29386SOL     OW91655   5.879   8.259   4.679 -0.4300 -0.0876 -0.0285
29386SOL    HW191656   5.785   8.264   4.697 -0.2399  1.5822  0.7254
29386SOL    HW291657   5.918   8.327   4.734  0.9445  0.9310 -2.1013
29387SOL     OW91658   6.253   0.430   1.341 -0.7431  0.6525  0.3586
29387SOL    HW191659   6.310   0.495   1.382  0.0588  0.1691  0.0332
29387SOL    HW291660   6.285   0.346   1.373  0.4434  0.1888 -1.8041
29388SOL     OW91661   4.469   7.307   0.644  0.5860 -0.3911 -0.1406
29388SOL    HW191662   4.534   7.364   0.686  1.4978 -1.8721  0.5438
29388SOL    HW291663   4.497   7.304   0.552  0.0654  0.8538 -0.3605
29389SOL     OW91664   1.912   6.584   8.809  0.4495 -0.4519  0.2864
29389SOL    HW191665   1.981   6.537   8.856 -0.2335 -2.0672 -0.2785
29389SOL    HW291666   1.834   6.574   8.862 -0.1650 -1.6929 -0.7988
29390SOL     OW91667   5.219   3.099   2.654  0.5917 -0.4222 -0.2451
29390SOL    HW191668   5.216   3.146   2.737  0.5070 -0.3309 -0.2998
29390SOL    HW291669   5.145   3.038   2.658  0.2795 -0.0650 -0.4625
29391SOL     OW91670   7.029   1.364   4.915  0.1179  0.3281 -0.2315
29391SOL    HW191671   6.948   1.315   4.929 -0.9690  2.4401  1.6109
29391SOL    HW291672   7.002   1.441   4.864  0.6446  1.7305  1.5203
29392SOL     OW91673   8.217   9.586   5.226  0.0590  0.5322  0.1989
29392SOL    HW191674   8.228   9.681   5.233  0.5954  0.6598 -1.8012
29392SOL    HW291675   8.124   9.574   5.207  0.1331  0.7100 -0.2748
29393SOL     OW91676   6.099   2.737   3.467  0.0561 -0.1493 -0.9553
29393SOL    HW191677   6.181   2.712   3.510  0.8792 -0.2246 -2.5079
29393SOL    HW291678   6.088   2.829   3.488  1.3080  0.2414 -1.8590
29394SOL     OW91679   7.452   0.568   6.266  0.0389 -0.2103 -0.3033
29394SOL    HW191680   7.425   0.659   6.255 -0.9258 -0.4953 -0.3848
29394SOL    HW291681   7.527   0.573   6.325 -1.7661  0.4567  2.1218
29395SOL     OW91682   3.494   3.804   7.437 -0.1286 -0.5222 -0.0265
29395SOL    HW191683   3.491   3.750   7.358 -0.6567  0.4241 -0.6687
29395SOL    HW291684   3.547   3.753   7.498  0.8104 -1.0083 -1.1979
29396SOL     OW91685   7.904   8.298   7.154 -0.3205  0.1279  0.2483
29396SOL    HW191686   7.922   8.366   7.219 -0.7706  0.9919 -0.5021
29396SOL    HW291687   7.958   8.322   7.079 -0.2105 -0.5576  0.0986
29397SOL     OW91688   5.230   3.480   9.593 -0.0048 -0.0952 -0.7467
29397SOL    HW191689   5.284   3.542   9.544  1.5723  0.4532  1.5029
29397SOL    HW291690   5.184   3.534   9.657  0.6754 -1.0942  0.6387
29398SOL     OW91691   1.176   7.890  10.116 -0.0041  0.4831 -0.0165
29398SOL    HW191692   1.264   7.869  10.146 -0.3378 -0.0878  0.5749
29398SOL    HW291693   1.190   7.943  10.037  0.8661  0.7716  0.3234
29399SOL     OW91694   3.117   6.599   2.163  0.2514  0.0935  0.3027
29399SOL    HW191695   3.145   6.622   2.074  2.5175 -0.2569  0.8652
29399SOL    HW291696   3.151   6.670   2.217 -4.2435  2.3562  0.6349
29400SOL     OW91697   0.764   9.637   7.483  0.8699 -0.0900 -0.5147
29400SOL    HW191698   0.820   9.642   7.406  0.0702  1.5986 -1.0357
29400SOL    HW291699   0.811   9.579   7.543  1.5858 -1.3287 -2.1772
29401SOL     OW91700   2.217   7.184   6.542 -0.0628  0.2585  0.6165
29401SOL    HW191701   2.145   7.216   6.487  0.0993 -0.8589 -0.2840
29401SOL    HW291702   2.206   7.230   6.625 -3.3412 -1.6393  1.4227
29402SOL     OW91703  10.703   9.758   6.446  0.1829 -0.5071  0.9999
29402SOL    HW191704  10.798   9.763   6.439 -0.0031  3.2664 -2.1093
29402SOL    HW291705  10.677   9.700   6.374  0.0546  0.1127  0.5470
29403SOL     OW91706   9.789   5.880   1.329 -0.0458 -0.2020 -0.3998
29403SOL    HW191707   9.848   5.946   1.292 -0.3758 -0.2376 -1.0000
29403SOL    HW291708   9.847   5.817   1.371  0.2536  0.7892  0.7516
29404SOL     OW91709   0.545   4.750   8.844 -0.2566  0.5127 -0.0021
29404SOL    HW191710   0.474   4.687   8.842 -0.0552  0.2529  0.8072
29404SOL    HW291711   0.503   4.834   8.862 -0.3769  0.3832  0.3234
29405SOL     OW91712   2.709   4.140   3.327  0.0370  0.7587  0.2119
29405SOL    HW191713   2.787   4.127   3.272  0.4918  1.9205  0.5591
29405SOL    HW291714   2.676   4.051   3.342  0.6710  0.3227 -0.8244
29406SOL     OW91715   8.110   1.097   1.174  0.0132  0.1304 -0.4493
29406SOL    HW191716   8.029   1.118   1.128 -0.4226 -0.2220  0.1401
29406SOL    HW291717   8.127   1.005   1.151 -0.3165 -0.1119  0.2242
29407SOL     OW91718   3.174  10.630   5.934  0.7866 -0.1983  0.4232
29407SOL    HW191719   3.111  10.701   5.946  0.1549 -0.5156 -0.7870
29407SOL    HW291720   3.252  10.658   5.982  0.5437  1.3065 -0.0149
29408SOL     OW91721   8.635   0.584   0.495  0.1972  0.0400 -0.0342
29408SOL    HW191722   8.628   0.494   0.528 -1.5217  0.9768  2.4986
29408SOL    HW291723   8.729   0.602   0.495  0.5521 -1.6503 -0.3113
29409SOL     OW91724   5.169   5.612   4.540 -0.3379  0.2609 -0.3146
29409SOL    HW191725   5.113   5.534   4.546  0.4103 -0.3880 -1.5289
29409SOL    HW291726   5.137   5.659   4.463  0.0224  0.4998 -0.3197
29410SOL     OW91727   5.790   3.419   8.243 -0.0224 -0.7979 -0.2692
29410SOL    HW191728   5.817   3.510   8.255 -0.7522 -0.4562 -1.0960
29410SOL    HW291729   5.866   3.376   8.204  0.6404 -0.7647  0.9557
29411SOL     OW91730   3.415   2.398   5.586  0.0343 -0.4367  1.4785
29411SOL    HW191731   3.493   2.354   5.619 -0.2912  0.2073  3.2131
29411SOL    HW291732   3.441   2.490   5.577 -0.6497 -0.0894  2.6934
29412SOL     OW91733   1.792   9.849  10.155 -0.2746 -0.5049 -0.2759
29412SOL    HW191734   1.714   9.904  10.143 -0.2777 -0.7145 -1.3812
29412SOL    HW291735   1.762   9.777  10.210  0.0133  1.1248  2.1281
29413SOL     OW91736   8.096   2.315   5.535  0.2705  0.4267 -0.5786
29413SOL    HW191737   8.055   2.268   5.609  0.9326 -0.3984 -0.7167
29413SOL    HW291738   8.119   2.401   5.571 -0.2244  0.3586 -0.0787
29414SOL     OW91739   2.372   7.931   7.752 -0.6118  0.5049  0.0713
29414SOL    HW191740   2.438   7.874   7.711 -1.0770 -0.2661  0.3745
29414SOL    HW291741   2.298   7.873   7.768 -0.6977  0.9627  1.3732
29415SOL     OW91742   0.369   1.565   3.614 -0.0002  0.4611  0.2291
29415SOL    HW191743   0.452   1.587   3.657  0.3002  1.5050 -0.8392
29415SOL    HW291744   0.304   1.614   3.665  0.2851  1.2356 -0.1293
29416SOL     OW91745   8.965   9.607   7.897 -0.0572 -0.2638  0.6829
29416SOL    HW191746   9.044   9.638   7.941 -1.7728  2.3112  2.2042
29416SOL    HW291747   8.950   9.670   7.826 -0.4708 -1.0336  0.0669
29417SOL     OW91748  10.408  10.268   0.378 -0.1924 -0.9559  0.2791
29417SOL    HW191749  10.467  10.340   0.401 -0.9147  0.8586 -2.8660
29417SOL    HW291750  10.461  10.189   0.390  1.9359  0.3902  0.2832
29418SOL     OW91751   6.599   6.240   9.604  0.9516 -0.7330 -0.0658
29418SOL    HW191752   6.584   6.258   9.512 -1.2008 -1.4280  0.0965
29418SOL    HW291753   6.623   6.147   9.607 -0.3751 -1.0938  0.1522
29419SOL     OW91754   1.777   0.948   5.867  0.1845 -0.1098 -0.2197
29419SOL    HW191755   1.736   0.865   5.842  1.5011 -0.8066 -0.1232
29419SOL    HW291756   1.796   0.992   5.784 -1.7014  0.7389 -0.2644
29420SOL     OW91757   1.453   2.541   7.411 -0.6646 -0.2356  0.1487
29420SOL    HW191758   1.435   2.593   7.489  1.1229 -1.4934  1.4907
29420SOL    HW291759   1.548   2.534   7.408 -0.6961 -0.4420 -2.0344
29421SOL     OW91760   7.848   0.649   7.091 -0.2851  0.0120  0.4993
29421SOL    HW191761   7.764   0.627   7.052 -0.7559  0.2315  1.3848
29421SOL    HW291762   7.888   0.565   7.111  0.0432 -0.1125 -0.5978
29422SOL     OW91763   1.847   6.871   7.230  0.4110 -0.2399  0.3783
29422SOL    HW191764   1.820   6.803   7.168  1.2583 -1.5069  1.3579
29422SOL    HW291765   1.939   6.852   7.248  0.8030  1.4517  0.3345
29423SOL     OW91766   1.676   3.378   9.305  0.2465  0.2501 -0.5968
29423SOL    HW191767   1.759   3.340   9.336  0.4106  0.0707 -1.2419
29423SOL    HW291768   1.700   3.463   9.270 -0.3552  1.7808  2.3631
29424SOL     OW91769  10.242   6.301   0.005 -0.1797  0.6303  0.1968
29424SOL    HW191770  10.228   6.388  -0.032  0.0360  0.5984  0.0350
29424SOL    HW291771  10.227   6.312   0.099  0.2856  0.9466  0.2405
29425SOL     OW91772   8.568   7.840   9.314 -0.3789 -0.9584  0.0103
29425SOL    HW191773   8.561   7.922   9.363 -0.9698 -0.6432 -0.5880
29425SOL    HW291774   8.492   7.840   9.256 -1.3475 -2.7133  1.1683
29426SOL     OW91775   2.138   7.355   5.826 -0.1412 -0.2502  0.1527
29426SOL    HW191776   2.078   7.404   5.770 -0.5355  0.0971  0.8587
29426SOL    HW291777   2.151   7.412   5.903 -0.0502 -0.9435  0.6610
29427SOL     OW91778   5.759   9.962   5.826 -0.0614  0.3453 -0.5647
29427SOL    HW191779   5.698  10.031   5.801  0.4455  0.6689 -0.9357
29427SOL    HW291780   5.821  10.006   5.884 -0.6847 -0.1843  0.5149
29428SOL     OW91781   4.457   2.357   7.646 -0.1188  0.8383  0.1370
29428SOL    HW191782   4.438   2.371   7.553  1.2367  0.0082 -0.2966
29428SOL    HW291783   4.377   2.319   7.681 -0.6009  1.0222 -0.7297
29429SOL     OW91784   5.633   3.540   1.483 -0.2259  0.2263  0.2981
29429SOL    HW191785   5.694   3.609   1.510 -0.8064  1.0933 -0.5191
29429SOL    HW291786   5.671   3.504   1.403 -0.0408 -0.2436  0.5976
29430SOL     OW91787   7.523   3.712   5.607  0.2785  0.2200  0.7428
29430SOL    HW191788   7.538   3.633   5.556  1.1134  0.9409 -0.1596
29430SOL    HW291789   7.467   3.684   5.679  1.2676 -1.3701  0.9309
29431SOL     OW91790   8.490   6.496   5.115 -0.6439  0.5344 -0.2404
29431SOL    HW191791   8.486   6.401   5.102 -1.6742  0.4928  0.2621
29431SOL    HW291792   8.573   6.522   5.076 -1.4761 -0.2069 -2.6900
29432SOL     OW91793   7.114   5.263   8.361  0.2882  0.2757 -0.7957
29432SOL    HW191794   7.055   5.279   8.287  0.0110 -1.1014 -0.9044
29432SOL    HW291795   7.068   5.199   8.414  0.6080  1.0500  0.4481
29433SOL     OW91796   0.917   3.836   0.776  0.6058  0.0047 -0.5265
29433SOL    HW191797   0.912   3.931   0.764  1.4584 -0.1580 -2.6806
29433SOL    HW291798   0.881   3.820   0.864 -0.3305  2.2106 -0.4598
29434SOL     OW91799  10.470   3.867   4.845  0.6214 -0.4675  0.2845
29434SOL    HW191800  10.486   3.899   4.934 -1.6955 -0.6226  0.8111
29434SOL    HW291801  10.409   3.930   4.807 -1.7891 -2.6172  0.3451
29435SOL     OW91802   2.842   0.536   7.430  0.1121 -0.2947  0.3695
29435SOL    HW191803   2.801   0.450   7.433 -1.2359  0.2867 -0.4388
29435SOL    HW291804   2.890   0.537   7.347 -1.6337  0.4581 -0.6776
29436SOL     OW91805   3.372   9.266   1.539 -0.1213  0.2848 -0.0535
29436SOL    HW191806   3.357   9.314   1.620  0.2016  0.1955  0.0625
29436SOL    HW291807   3.447   9.310   1.499  0.9770 -0.8759  0.6653
29437SOL     OW91808  10.900   6.868   5.206 -0.2260 -0.5714 -0.3193
29437SOL    HW191809  10.845   6.909   5.140  1.5805  0.0980 -1.5092
29437SOL    HW291810  10.982   6.850   5.160  1.6601  1.2261  2.0561
29438SOL     OW91811   2.225   6.030  10.300 -0.1064  0.0370 -0.2927
29438SOL    HW191812   2.219   6.098  10.232  3.5720  1.1427  0.2970
29438SOL    HW291813   2.196   6.074  10.380 -0.5727 -0.0461 -0.4088
29439SOL     OW91814   0.860   2.861   6.775 -0.0737  0.1841  0.3174
29439SOL    HW191815   0.908   2.850   6.692  1.0715 -0.7824  1.0722
29439SOL    HW291816   0.895   2.942   6.812 -3.8605  3.2901 -2.1954
29440SOL     OW91817   6.707   2.799   4.545  0.2435 -0.2597  0.1351
29440SOL    HW191818   6.622   2.780   4.585  0.9670 -1.2025  1.3176
29440SOL    HW291819   6.760   2.835   4.616  0.1448  2.6516 -1.1430
29441SOL     OW91820   5.213  10.602   1.940  0.2673  0.2274  0.3405
29441SOL    HW191821   5.168  10.667   1.885  1.6846  0.3065 -0.7991
29441SOL    HW291822   5.275  10.653   1.992  0.0997 -0.0298  0.7978
29442SOL     OW91823   9.133   1.480   6.414  0.1394  1.0519 -0.2494
29442SOL    HW191824   9.105   1.571   6.410 -2.1156  0.5010  0.8705
29442SOL    HW291825   9.051   1.430   6.411  1.2336 -0.8837  0.3303
29443SOL     OW91826   5.015   5.253   3.653 -0.3003  0.1406 -0.6924
29443SOL    HW191827   5.083   5.246   3.721 -0.9386  0.7473  0.0312
29443SOL    HW291828   5.014   5.167   3.611  0.6829  0.0185 -0.4946
29444SOL     OW91829   7.751   1.955   6.880  0.4030 -0.1651 -0.4154
29444SOL    HW191830   7.739   2.040   6.837  0.3795  0.0168 -0.0574
29444SOL    HW291831   7.825   1.968   6.939 -0.3651 -0.0258  0.5470
29445SOL     OW91832   3.111   3.921   1.928  0.0563  0.4021  0.4673
29445SOL    HW191833   3.166   3.870   1.987 -0.2220  0.4095  0.7401
29445SOL    HW291834   3.036   3.947   1.982  0.3269  1.3356  0.4111
29446SOL     OW91835   0.175   0.532   5.573 -0.1643  0.0663  0.6418
29446SOL    HW191836   0.132   0.571   5.649 -0.3798 -0.9209  1.0357
29446SOL    HW291837   0.154   0.439   5.578 -0.6671  0.0662 -0.9594
29447SOL     OW91838   9.653   6.853  11.006  0.2770 -0.1120 -0.3538
29447SOL    HW191839   9.613   6.865  10.920  1.6147 -0.1979 -1.0178
29447SOL    HW291840   9.676   6.760  11.009  1.0896  0.0772 -0.3153
29448SOL     OW91841   8.621   7.083   2.575  0.1762  0.2944  0.1572
29448SOL    HW191842   8.687   7.116   2.514  0.7172 -0.4801  0.3165
29448SOL    HW291843   8.671   7.044   2.647 -0.4549  0.4375  0.6861
29449SOL     OW91844   4.298   0.475   8.667 -0.1563  0.5051 -0.8723
29449SOL    HW191845   4.319   0.534   8.595 -0.0490  0.2549 -1.0472
29449SOL    HW291846   4.206   0.451   8.652 -0.1480  0.4902 -0.8983
29450SOL     OW91847  10.964   3.959   8.803 -0.6129  0.1975  0.3610
29450SOL    HW191848  11.002   3.873   8.818 -0.7709  0.3082  1.5464
29450SOL    HW291849  10.888   3.962   8.862 -0.8764  0.9691 -0.0016
29451SOL     OW91850  10.141   4.367   3.476 -0.0880  0.1397  0.1481
29451SOL    HW191851  10.184   4.305   3.536 -1.1214  0.1160  0.8981
29451SOL    HW291852  10.185   4.450   3.492 -0.6123  0.2257  1.2626
29452SOL     OW91853   8.257   2.970   8.884 -0.1619  0.2854 -0.0051
29452SOL    HW191854   8.214   3.042   8.931  0.6725  0.1240  1.0576
29452SOL    HW291855   8.292   3.011   8.805 -1.2241  0.6602 -0.2999
29453SOL     OW91856   3.388  10.521   5.676  0.7374  0.1306 -0.3886
29453SOL    HW191857   3.482  10.504   5.667  1.2564  1.9438  0.9624
29453SOL    HW291858   3.378  10.550   5.766 -0.9302  1.1122 -0.8495
29454SOL     OW91859   0.297   6.004  10.841  0.0097  0.2068 -0.3351
29454SOL    HW191860   0.234   5.958  10.786 -1.0223  0.7241  0.3900
29454SOL    HW291861   0.327   6.078  10.787 -1.2644  0.9183 -0.1039
29455SOL     OW91862   1.123   1.415   4.466  0.4667 -0.1149 -0.0110
29455SOL    HW191863   1.044   1.469   4.472  0.0907 -0.5675 -0.7346
29455SOL    HW291864   1.186   1.471   4.420  0.6700  0.3534  0.8258
29456SOL     OW91865  10.398   5.834   3.196 -0.8551 -0.4572 -0.5436
29456SOL    HW191866  10.445   5.912   3.167 -1.8689 -0.0508 -1.1630
29456SOL    HW291867  10.352   5.862   3.275 -1.1475 -0.4557 -0.7146
29457SOL     OW91868   7.936   4.202   8.816 -0.1541  0.1682  0.2407
29457SOL    HW191869   8.017   4.246   8.842  0.1225 -1.1757  1.8247
29457SOL    HW291870   7.961   4.147   8.742  0.4737 -0.4476  0.8940
29458SOL     OW91871   7.319   2.840   2.957  0.7909 -0.5380  0.2139
29458SOL    HW191872   7.358   2.888   2.884  1.1665  0.4245  1.0229
29458SOL    HW291873   7.283   2.908   3.014 -0.2404 -1.3107  0.5295
29459SOL     OW91874   0.548   0.066   2.381  0.4238  0.4364 -0.1658
29459SOL    HW191875   0.545   0.019   2.464  0.3320 -0.9265 -0.9166
29459SOL    HW291876   0.459   0.058   2.346  0.9780 -0.8667 -1.3754
29460SOL     OW91877   7.196   1.349  10.078 -0.2496  0.0692  0.4307
29460SOL    HW191878   7.182   1.362   9.984  0.7931  0.2732  0.2896
29460SOL    HW291879   7.198   1.438  10.114 -0.1466  0.0143  0.5629
29461SOL     OW91880   5.683   8.265   8.231 -0.5265  0.7217  0.0617
29461SOL    HW191881   5.630   8.202   8.182  0.0252  2.0943 -2.4301
29461SOL    HW291882   5.773   8.241   8.210 -0.2555  0.9800  0.9045
29462SOL     OW91883   9.370   1.287   0.005 -0.5817 -0.6553  0.6481
29462SOL    HW191884   9.458   1.307  -0.025 -0.8764  0.0868  0.2506
29462SOL    HW291885   9.313   1.322  -0.063 -1.2082 -0.3799  1.2996
29463SOL     OW91886   0.704   5.822   2.806  0.0390  0.6864  0.8861
29463SOL    HW191887   0.748   5.737   2.811 -0.7096  0.3577  2.0430
29463SOL    HW291888   0.620   5.809   2.849 -0.5978  1.7043  0.0134
29464SOL     OW91889   9.038   8.389   3.452 -0.2472  0.4296  0.3893
29464SOL    HW191890   8.988   8.465   3.423  2.6093  2.1916 -0.3634
29464SOL    HW291891   9.023   8.322   3.385 -0.4017  1.4697 -0.6431
29465SOL     OW91892   7.416   3.403   9.107 -0.0831 -0.2815 -0.0038
29465SOL    HW191893   7.335   3.451   9.089 -1.1416 -2.1172 -0.3813
29465SOL    HW291894   7.440   3.364   9.023  0.9420 -0.1540  0.2170
29466SOL     OW91895   1.499  10.517   7.786  0.2680  0.4182  0.5373
29466SOL    HW191896   1.415  10.547   7.820  0.3292  0.8671  0.3038
29466SOL    HW291897   1.564  10.560   7.841  0.3713  1.2807 -0.2304
29467SOL     OW91898   5.422   4.031   3.925 -0.0068 -0.0389  0.1827
29467SOL    HW191899   5.412   4.121   3.894  1.8412  0.5655  1.1466
29467SOL    HW291900   5.379   4.031   4.011 -0.6775 -0.2980 -0.1499
29468SOL     OW91901   3.590   1.021  10.132  0.1227 -0.3978  0.1979
29468SOL    HW191902   3.647   1.089  10.096 -0.0357  0.7207  1.9098
29468SOL    HW291903   3.619   0.941  10.089 -0.0453  0.7807 -2.3260
29469SOL     OW91904   6.649   1.280   4.523  0.0024 -0.5119 -0.1744
29469SOL    HW191905   6.632   1.209   4.462 -0.9506  0.0796 -0.6064
29469SOL    HW291906   6.646   1.238   4.609 -1.4687 -0.8423 -0.3601
29470SOL     OW91907   8.478   6.253   0.499 -0.5967  0.8007  0.2869
29470SOL    HW191908   8.417   6.258   0.573 -0.5598  1.8286  0.2687
29470SOL    HW291909   8.462   6.167   0.460  0.4379 -0.4169  2.3744
29471SOL     OW91910   4.039  10.384   9.602 -0.0240  0.4012 -0.0476
29471SOL    HW191911   4.069  10.345   9.520  1.7661 -1.1349  1.2344
29471SOL    HW291912   4.010  10.309   9.655 -1.1149  1.3487  0.7338
29472SOL     OW91913   1.668   2.324   0.408 -0.1767 -0.3432 -0.1442
29472SOL    HW191914   1.650   2.231   0.398  0.3987 -0.3895 -0.8018
29472SOL    HW291915   1.583   2.364   0.423 -0.4078 -0.9904  0.2992
29473SOL     OW91916   9.594   3.082   8.046 -0.2944  0.1529 -0.0739
29473SOL    HW191917   9.589   2.998   8.000 -1.5553 -0.7743  1.6213
29473SOL    HW291918   9.680   3.081   8.087 -0.3098 -0.3413 -0.0420
29474SOL     OW91919   4.136   9.924   2.275 -0.1856  0.3769 -0.1634
29474SOL    HW191920   4.056   9.947   2.322  1.1780 -0.9948  3.1711
29474SOL    HW291921   4.127   9.830   2.257 -0.2655  0.6899 -1.9268
29475SOL     OW91922   6.965  10.649   7.070 -0.0585 -0.0808 -0.2133
29475SOL    HW191923   6.899  10.709   7.104  0.7600  0.2353  0.8813
29475SOL    HW291924   6.964  10.575   7.131  0.7345  0.0281 -0.0523
29476SOL     OW91925   8.030   3.628   2.815 -0.1446 -0.0405 -0.2187
29476SOL    HW191926   7.999   3.582   2.738 -2.8265  0.4439  0.4611
29476SOL    HW291927   7.998   3.576   2.889  0.4182  0.6898  0.5682
29477SOL     OW91928   2.099   0.059   0.247  0.9323 -0.3482  0.0708
29477SOL    HW191929   2.004   0.067   0.256  1.0542  1.2857  0.1757
29477SOL    HW291930   2.133   0.096   0.329  1.6621 -0.6536 -0.0935
29478SOL     OW91931   3.385   1.338   5.391  1.0146  0.4183  0.0296
29478SOL    HW191932   3.309   1.336   5.332  0.6347  2.4222  0.3660
29478SOL    HW291933   3.447   1.276   5.352 -0.2121 -0.1898 -1.0634
29479SOL     OW91934   9.170   0.216   4.419  0.6511  0.5027  0.0616
29479SOL    HW191935   9.139   0.136   4.376  0.6683 -0.2878  1.4817
29479SOL    HW291936   9.263   0.201   4.435  0.4959  0.4915  1.0038
29480SOL     OW91937  10.171   8.489   7.973  0.4253 -0.9946 -0.4070
29480SOL    HW191938  10.216   8.408   7.950  1.8109  0.1583 -2.0520
29480SOL    HW291939  10.139   8.523   7.890 -1.4212 -0.5443  0.4399
29481SOL     OW91940   6.830   9.690   2.786  0.0677  0.5956 -0.3145
29481SOL    HW191941   6.758   9.750   2.805  1.0565  1.9370 -0.6287
29481SOL    HW291942   6.798   9.637   2.713 -1.3377 -0.2201  0.8476
29482SOL     OW91943   5.770  10.561   3.285 -0.0533 -0.2626  0.2627
29482SOL    HW191944   5.778  10.466   3.293  0.9464 -0.1450  0.9103
29482SOL    HW291945   5.770  10.578   3.191  0.9638 -0.8340  0.1413
29483SOL     OW91946   9.335   5.157   7.776  0.1219 -0.1758 -0.4637
29483SOL    HW191947   9.369   5.244   7.755 -3.2729  0.8712 -2.2802
29483SOL    HW291948   9.323   5.114   7.691 -0.7184 -1.4031  0.2396
29484SOL     OW91949   9.037   6.405   0.739  0.0937 -0.9845  0.3912
29484SOL    HW191950   9.114   6.357   0.770  0.2245 -0.2163  1.2833
29484SOL    HW291951   8.965   6.372   0.793 -0.6238 -3.0583 -1.6559
29485SOL     OW91952   3.986   9.325   2.194  1.1875  0.2941  0.2581
29485SOL    HW191953   4.006   9.288   2.280  1.3353  1.3951  0.7221
29485SOL    HW291954   4.060   9.383   2.175  1.6011 -0.6130 -1.0408
29486SOL     OW91955   8.931   7.640   5.485 -0.2140  0.5381 -0.3645
29486SOL    HW191956   8.983   7.686   5.551 -0.6344  0.4658  0.0270
29486SOL    HW291957   8.977   7.557   5.472 -0.5218  0.2347  0.3952
29487SOL     OW91958   8.167  10.211   3.911 -0.3678 -0.0277 -0.2515
29487SOL    HW191959   8.131  10.298   3.893  1.8958  0.9716 -0.3595
29487SOL    HW291960   8.162  10.203   4.007 -0.8687  0.0876 -0.2654
29488SOL     OW91961   5.403   7.487   3.733 -0.1728  0.4195 -0.7009
29488SOL    HW191962   5.398   7.402   3.690  2.0843  0.0902 -0.4248
29488SOL    HW291963   5.494   7.515   3.721 -0.3256  1.8329  1.0140
29489SOL     OW91964   5.647   1.464   1.934  0.1182 -0.0279 -0.0424
29489SOL    HW191965   5.688   1.451   2.019 -1.1825 -2.2696  0.3214
29489SOL    HW291966   5.630   1.558   1.929  1.1283  0.2853  1.7167
29490SOL     OW91967   6.756   5.042   7.672  0.3539  0.1409 -0.2136
29490SOL    HW191968   6.742   4.967   7.729 -0.7783  0.2054 -0.3826
29490SOL    HW291969   6.851   5.052   7.668  0.4932  0.4979  2.1448
29491SOL     OW91970   8.185   7.213   1.886 -0.0281 -0.2177  0.5403
29491SOL    HW191971   8.103   7.194   1.840  0.2364 -0.4660  0.1673
29491SOL    HW291972   8.251   7.219   1.816  0.0876  1.0271  0.7295
29492SOL     OW91973   2.549   2.890   2.058  0.2426 -0.2387 -0.2317
29492SOL    HW191974   2.570   2.803   2.023  0.5811 -0.6267  0.8928
29492SOL    HW291975   2.633   2.923   2.091  0.0845  0.4557 -0.5057
29493SOL     OW91976   4.466   3.170   5.470 -0.2120 -0.0327  0.1907
29493SOL    HW191977   4.480   3.201   5.380  1.6936 -0.7127  0.2236
29493SOL    HW291978   4.422   3.086   5.460  0.1258 -0.1744 -0.1090
29494SOL     OW91979   0.493   2.642   9.203  0.0017 -0.0340  0.0537
29494SOL    HW191980   0.469   2.721   9.250 -1.2225 -1.1844  1.4469
29494SOL    HW291981   0.528   2.673   9.119  0.8870  2.0068  1.1200
29495SOL     OW91982  10.672   7.224   4.347  0.3944  0.2406  0.2870
29495SOL    HW191983  10.738   7.283   4.310  1.6682 -1.0462  0.3953
29495SOL    HW291984  10.705   7.203   4.434  0.1449 -0.8584  0.1389
29496SOL     OW91985   0.683   5.217   8.369  0.3509  0.0818  0.2199
29496SOL    HW191986   0.672   5.308   8.397 -1.0930 -0.1468  0.4759
29496SOL    HW291987   0.771   5.214   8.331  0.0944  1.7951 -0.6041
29497SOL     OW91988   1.218   3.625   7.744 -0.2414 -0.3881  0.2742
29497SOL    HW191989   1.259   3.698   7.696 -1.6294 -0.3431 -0.9215
29497SOL    HW291990   1.224   3.551   7.684 -1.5148 -0.4720  0.2261
29498SOL     OW91991   9.326   6.029   1.338  0.2160  0.7605 -0.4527
29498SOL    HW191992   9.294   5.987   1.258 -0.3282 -0.4574  0.3542
29498SOL    HW291993   9.315   6.122   1.323 -0.7364  0.5115 -1.4522
29499SOL     OW91994   8.580   9.419   5.335 -0.2095 -0.3210  0.0783
29499SOL    HW191995   8.578   9.323   5.336  0.5593 -0.3424  0.2288
29499SOL    HW291996   8.630   9.440   5.256 -0.5928 -0.0342 -0.0901
29500SOL     OW91997  10.232   5.427   5.802  0.1942  0.1559 -0.1325
29500SOL    HW191998  10.269   5.405   5.887  0.1138 -2.6787 -0.7407
29500SOL    HW291999  10.166   5.494   5.821 -0.9842 -1.5586  2.3122
29501SOL     OW92000   2.716   6.026   7.896 -0.1763 -0.4359  0.3403
29501SOL    HW192001   2.767   5.970   7.837 -0.2022  1.4850 -1.6186
29501SOL    HW292002   2.755   6.011   7.982  1.3042 -1.7305 -0.4887
29502SOL     OW92003   9.618   9.031   6.485 -0.2004  0.6172  0.8461
29502SOL    HW192004   9.700   8.987   6.465 -0.2857  1.6020 -2.0893
29502SOL    HW292005   9.623   9.115   6.439 -2.6133  0.9211  0.9910
29503SOL     OW92006   5.912   1.262   2.686  0.5306 -0.1296 -0.3604
29503SOL    HW192007   5.817   1.278   2.685  0.2557 -1.5865  0.5285
29503SOL    HW292008   5.948   1.332   2.632 -1.1917 -0.3937 -1.9624
29504SOL     OW92009   7.019   0.635   3.046  0.1483 -0.2697 -0.2424
29504SOL    HW192010   7.087   0.703   3.038  0.3954 -0.4040  0.5518
29504SOL    HW292011   6.947   0.679   3.092  0.0545 -0.3724 -0.2920
29505SOL     OW92012   9.981   0.991   1.102  0.2761  0.1627 -0.3537
29505SOL    HW192013   9.916   0.972   1.170  2.0475  0.3053  1.4813
29505SOL    HW292014   9.951   1.072   1.062 -0.1332  0.8167  1.1991
29506SOL     OW92015   2.370   8.789   2.916 -0.0082 -0.6832 -0.1292
29506SOL    HW192016   2.319   8.790   2.836  1.8453  0.8942 -1.3640
29506SOL    HW292017   2.415   8.874   2.918  0.1697 -0.7551  2.4735
29507SOL     OW92018   1.352   1.065   0.288  0.0710  0.3988  0.5048
29507SOL    HW192019   1.335   1.103   0.374  0.8617 -0.0599  0.8708
29507SOL    HW292020   1.306   1.123   0.227  0.7577  1.6079  1.1036
29508SOL     OW92021   0.571   4.019   3.222 -0.1438 -0.0231  0.3036
29508SOL    HW192022   0.579   4.103   3.266  0.6604  0.2684 -0.3638
29508SOL    HW292023   0.619   4.031   3.140  0.9902 -1.4913  0.7082
29509SOL     OW92024   0.086   6.996   3.594  0.1614  0.3442 -0.2502
29509SOL    HW192025   0.053   6.908   3.613 -0.5769  0.4514 -0.9889
29509SOL    HW292026   0.015   7.054   3.623  0.8241  0.7352  0.6472
29510SOL     OW92027   8.572   9.358   4.304  0.1138  0.2597 -0.4178
29510SOL    HW192028   8.638   9.348   4.236 -0.2294 -1.8041 -0.5053
29510SOL    HW292029   8.601   9.298   4.374 -0.9953  0.2763  0.0678
29511SOL     OW92030  10.557   5.964   9.392  0.6950 -0.2811  0.1192
29511SOL    HW192031  10.576   6.012   9.311 -0.2901 -0.3348 -0.1571
29511SOL    HW292032  10.484   6.011   9.431  0.8854 -0.5105  0.7738
29512SOL     OW92033   6.600   1.556   4.346 -0.2892 -0.0554  0.3446
29512SOL    HW192034   6.553   1.479   4.312  0.2642  0.5007 -1.8240
29512SOL    HW292035   6.606   1.616   4.272  3.0088  0.3192  0.7383
29513SOL     OW92036  10.324   5.293   6.022 -0.1363 -0.1545  0.1073
29513SOL    HW192037  10.342   5.201   6.006 -2.1204 -0.6650  0.5449
29513SOL    HW292038  10.239   5.294   6.067 -0.8933  1.9595 -1.2058
29514SOL     OW92039   6.560   4.255   7.171 -0.3045 -0.0756  0.3469
29514SOL    HW192040   6.606   4.332   7.203 -0.0749 -1.2450  3.1554
29514SOL    HW292041   6.623   4.184   7.180 -1.3068 -1.0031  0.2258
29515SOL     OW92042  10.244   6.380   9.809  0.3980  0.3022 -0.0664
29515SOL    HW192043  10.268   6.401   9.719  0.0856 -0.9708 -0.4739
29515SOL    HW292044  10.323   6.341   9.846  0.2334 -0.0838 -0.1123
29516SOL     OW92045   0.481  10.825   9.723  0.0821 -0.1197  0.1059
29516SOL    HW192046   0.447  10.890   9.784 -1.7015 -2.6238  2.0161
29516SOL    HW292047   0.411  10.812   9.659  0.7414  0.3679 -0.7303
29517SOL     OW92048   0.050   7.945   8.907  0.1369  0.2901 -0.0746
29517SOL    HW192049   0.020   7.872   8.961 -2.1432  0.2702 -1.2602
29517SOL    HW292050   0.014   8.022   8.950  0.8465  0.5519  0.0580
29518SOL     OW92051   9.570   5.956   1.519 -0.4925  0.2506  0.7694
29518SOL    HW192052   9.645   5.947   1.461 -1.2668 -0.1391 -0.1963
29518SOL    HW292053   9.504   6.002   1.467 -0.4510  1.8927  2.0668
29519SOL     OW92054   2.462   5.275   6.349  0.2860 -0.2494 -0.4194
29519SOL    HW192055   2.543   5.225   6.340  0.2006 -0.1995 -1.6724
29519SOL    HW292056   2.455   5.324   6.266 -0.9004 -0.0712 -0.2289
29520SOL     OW92057   3.254   9.662   6.624  0.3500 -0.3028  0.0162
29520SOL    HW192058   3.170   9.665   6.670 -0.1195 -2.6149 -0.6007
29520SOL    HW292059   3.233   9.634   6.535  1.8114 -1.6126  0.0348
29521SOL     OW92060   3.843   6.964   5.445 -0.3041 -0.2018 -0.1378
29521SOL    HW192061   3.844   6.868   5.450 -0.9492 -0.1914  0.5444
29521SOL    HW292062   3.761   6.984   5.400 -0.2423  0.0237 -0.1484
29522SOL     OW92063   1.881  10.676   6.203 -0.3970  0.1993  0.1210
29522SOL    HW192064   1.975  10.670   6.214 -0.4140  1.3922  1.0754
29522SOL    HW292065   1.868  10.683   6.108  0.7239  2.9758  0.0764
29523SOL     OW92066   6.595   1.781   5.333 -0.1802 -0.0513 -0.1042
29523SOL    HW192067   6.523   1.734   5.291  0.5022 -0.7539 -0.5162
29523SOL    HW292068   6.656   1.801   5.262 -0.0963  0.7861  0.1936
29524SOL     OW92069  10.264   6.996   4.177  0.9011  0.4435 -0.3615
29524SOL    HW192070  10.299   7.070   4.228 -0.0155  1.0818 -0.6360
29524SOL    HW292071  10.189   7.033   4.131  1.1523 -0.3735 -1.4409
29525SOL     OW92072   1.487   7.871   2.815 -0.0792  0.2821  0.7184
29525SOL    HW192073   1.506   7.820   2.895  0.7730 -0.7340 -0.1022
29525SOL    HW292074   1.572   7.878   2.771 -0.8915 -1.0273 -1.1599
29526SOL     OW92075   5.951   9.626   3.999 -0.5844  0.2061 -0.2430
29526SOL    HW192076   5.871   9.652   4.044 -0.6655  1.8916 -1.2719
29526SOL    HW292077   6.017   9.623   4.068 -1.5543 -1.5369  0.6836
29527SOL     OW92078   5.925   9.694   4.631  0.2830  0.0703 -0.0423
29527SOL    HW192079   6.015   9.670   4.655  0.5584 -0.8809 -1.8913
29527SOL    HW292080   5.910   9.651   4.547 -1.6682  0.8128 -0.1207
29528SOL     OW92081   5.305   3.846   0.085  0.0539  0.1782 -0.0855
29528SOL    HW192082   5.329   3.773   0.028 -0.8313  1.1524 -1.7596
29528SOL    HW292083   5.381   3.904   0.085 -0.2210  0.5420 -0.8897
29529SOL     OW92084   8.167   9.545   4.335 -0.3874 -0.7818 -0.1640
29529SOL    HW192085   8.158   9.542   4.431  0.0030 -0.9610 -0.1294
29529SOL    HW292086   8.205   9.461   4.313 -3.1075 -1.9583 -0.7939
29530SOL     OW92087   1.688   5.395   5.852 -1.0429  0.3076 -0.2372
29530SOL    HW192088   1.641   5.400   5.934  0.3373 -1.9978  0.7964
29530SOL    HW292089   1.778   5.420   5.874 -1.0324  1.4873 -1.4738
29531SOL     OW92090   3.617   1.830   8.677  0.3224  0.0012  0.4159
29531SOL    HW192091   3.710   1.853   8.683  0.1046  0.4611  2.9854
29531SOL    HW292092   3.618   1.737   8.652  1.4250  0.2168 -0.4405
29532SOL     OW92093   3.679   1.784   1.204  0.0215 -0.1911  0.5046
29532SOL    HW192094   3.714   1.869   1.230 -0.5504  0.2077  0.0204
29532SOL    HW292095   3.705   1.724   1.274 -0.9797  0.7186  1.7068
29533SOL     OW92096  11.004  10.002   0.744  0.2462 -0.6985  0.1557
29533SOL    HW192097  10.989   9.908   0.731  0.7178 -0.7191 -0.3406
29533SOL    HW292098  10.964  10.043   0.667  3.2069 -0.8249 -1.6224
29534SOL     OW92099   6.940   4.062   9.013 -0.4115 -0.2611  0.3678
29534SOL    HW192100   6.935   3.968   9.031  2.6240 -0.6906 -0.5353
29534SOL    HW292101   6.957   4.068   8.919  2.3365  0.9594  0.8488
29535SOL     OW92102   2.268   4.165   1.961 -0.1880  0.3102  0.3882
29535SOL    HW192103   2.358   4.132   1.961  0.1198  1.1239  1.3860
29535SOL    HW292104   2.249   4.183   1.869  1.4965  2.3035  0.3616
29536SOL     OW92105   1.463   4.503   5.559 -0.7170 -0.1235  0.4935
29536SOL    HW192106   1.431   4.542   5.478  1.1813 -1.8164 -1.1772
29536SOL    HW292107   1.389   4.510   5.620 -2.4025  0.7011 -1.5396
29537SOL     OW92108   1.439  10.484   1.917 -0.4118 -0.4847  0.2435
29537SOL    HW192109   1.461  10.453   1.829  0.2678  0.6779 -0.0045
29537SOL    HW292110   1.381  10.416   1.952  1.8441 -2.6091  0.1411
29538SOL     OW92111  10.899   0.778   2.182  0.3293  0.3190 -0.2580
29538SOL    HW192112  10.853   0.859   2.160 -0.2916  0.1078  0.2251
29538SOL    HW292113  10.896   0.773   2.278  0.1908 -0.3700 -0.2892
29539SOL     OW92114   1.424   3.419  10.076 -0.4962 -0.3883  0.4379
29539SOL    HW192115   1.498   3.384  10.026  0.9589  1.1332  1.4401
29539SOL    HW292116   1.444   3.512  10.086 -1.7427 -0.2623  2.1109
29540SOL     OW92117   2.309   5.916   5.231 -0.0978 -0.0688 -0.1813
29540SOL    HW192118   2.386   5.863   5.252  0.3288  0.5936 -0.0560
29540SOL    HW292119   2.257   5.861   5.172  0.4520 -0.5350 -0.2344
29541SOL     OW92120  10.689   4.980   2.795 -0.1667  0.4331  0.2203
29541SOL    HW192121  10.610   5.033   2.780 -0.3373  0.0512 -0.2561
29541SOL    HW292122  10.717   4.955   2.707 -0.3038 -0.5873  0.4629
29542SOL     OW92123   9.322   2.212   8.215  0.5734  0.5792  0.2551
29542SOL    HW192124   9.379   2.197   8.291 -1.0492  2.3708  1.9543
29542SOL    HW292125   9.363   2.286   8.170  2.1387 -1.1634 -1.3534
29543SOL     OW92126   7.994   5.411   0.622 -0.6954  0.0280  0.0265
29543SOL    HW192127   7.990   5.430   0.715  0.6337 -2.1409  0.6057
29543SOL    HW292128   7.963   5.320   0.615  0.1197 -0.1666 -1.5005
29544SOL     OW92129   8.313   7.711   8.315  0.4829 -0.4731  0.5501
29544SOL    HW192130   8.381   7.758   8.267 -1.1549  0.4003 -1.0416
29544SOL    HW292131   8.283   7.773   8.382 -1.5653  0.8449 -1.4453
29545SOL     OW92132   8.077   2.590   8.931 -0.3315 -0.2705  0.2854
29545SOL    HW192133   8.113   2.502   8.923 -0.6689 -0.4527  0.7248
29545SOL    HW292134   8.106   2.635   8.852 -0.6533 -0.9567 -0.2403
29546SOL     OW92135   9.248   9.734   9.739  0.2027 -0.0337 -0.7342
29546SOL    HW192136   9.268   9.650   9.697  1.9904 -0.2275  0.3757
29546SOL    HW292137   9.201   9.784   9.672  0.8438 -1.1902 -2.1111
29547SOL     OW92138   4.836   3.193   2.858  0.0763  0.0792 -0.1965
29547SOL    HW192139   4.784   3.180   2.778  0.5249  0.7687 -0.6130
29547SOL    HW292140   4.808   3.279   2.890  0.4150  0.1193 -0.0084
29548SOL     OW92141   8.402   5.503   9.646  0.0754  0.1635  0.1839
29548SOL    HW192142   8.336   5.568   9.671  1.5828  1.4812  0.9001
29548SOL    HW292143   8.462   5.499   9.720  2.7729  1.6528 -1.7405
29549SOL     OW92144   5.739   6.354   0.850  0.7036  0.1303 -0.5744
29549SOL    HW192145   5.664   6.295   0.837 -0.0052  1.0535 -0.7475
29549SOL    HW292146   5.757   6.348   0.944 -0.3124  0.7457 -0.3273
29550SOL     OW92147   9.095   8.057  10.089  0.0572  0.0223 -0.5996
29550SOL    HW192148   9.083   7.972  10.046 -0.1998 -0.5056  0.5024
29550SOL    HW292149   9.184   8.054  10.124 -0.7280 -0.7523  1.4693
29551SOL     OW92150   2.214   0.047   5.009 -0.3973  0.2951 -0.0578
29551SOL    HW192151   2.290   0.038   5.067 -0.5295 -1.8757 -0.1396
29551SOL    HW292152   2.238  -0.002   4.931 -1.7053 -0.0282 -0.2773
29552SOL     OW92153   4.095   8.707   6.446 -0.3301  0.0046 -0.1325
29552SOL    HW192154   4.009   8.744   6.466 -0.8443 -1.2541  0.0219
29552SOL    HW292155   4.145   8.782   6.413 -0.3092  1.6122  3.1358
29553SOL     OW92156   3.198   7.272   7.613  0.3471 -0.4037  0.0346
29553SOL    HW192157   3.133   7.251   7.680 -0.1852  1.8427  0.3291
29553SOL    HW292158   3.230   7.187   7.583 -0.5288 -1.5208  2.0154
29554SOL     OW92159   7.694   0.852   7.869 -0.0572  0.0229 -0.4168
29554SOL    HW192160   7.694   0.947   7.859  0.6939  0.2406  1.2658
29554SOL    HW292161   7.778   0.824   7.833  0.8571  0.3346  1.3443
29555SOL     OW92162   6.299   3.942   0.701 -0.1450 -0.1092  0.0807
29555SOL    HW192163   6.237   3.878   0.665 -0.5840  0.1991  0.2771
29555SOL    HW292164   6.246   3.997   0.759  0.6597 -1.0013  1.7271
29556SOL     OW92165   9.761   1.744   5.046 -0.2469  0.1747  0.8200
29556SOL    HW192166   9.695   1.813   5.052 -0.2105  0.4111 -1.0035
29556SOL    HW292167   9.823   1.776   4.980  0.0774 -1.3547  0.3548
29557SOL     OW92168   5.450  10.008   5.939 -0.0467  0.2220 -0.5122
29557SOL    HW192169   5.356  10.021   5.932  0.1968  2.1624 -0.5845
29557SOL    HW292170   5.460   9.916   5.965 -1.8853 -0.4188 -1.9189
29558SOL     OW92171   6.111   1.559   3.388 -0.1700 -0.1051  0.4598
29558SOL    HW192172   6.172   1.585   3.318 -0.2842  2.1976  1.1287
29558SOL    HW292173   6.032   1.610   3.370 -0.1747  0.5935  2.2808
29559SOL     OW92174   3.590   1.970   1.675 -0.2512  0.4747 -0.6595
29559SOL    HW192175   3.612   2.012   1.758  0.3537  1.1209 -1.1325
29559SOL    HW292176   3.567   1.880   1.699  0.0641  0.6095  0.1883
29560SOL     OW92177   2.625   7.313   3.253 -0.0508  0.1717  0.2543
29560SOL    HW192178   2.719   7.298   3.267 -0.0698 -1.1696 -0.8641
29560SOL    HW292179   2.583   7.233   3.286 -0.5617 -0.3854 -1.6490
29561SOL     OW92180   7.479   7.829   2.215 -0.3112  0.2100  0.3170
29561SOL    HW192181   7.491   7.735   2.198 -1.7469  0.2977 -1.4287
29561SOL    HW292182   7.490   7.837   2.310 -0.7957 -1.8353  0.6062
29562SOL     OW92183   6.380  10.873   4.515  0.0852 -0.3057  0.5066
29562SOL    HW192184   6.384  10.954   4.464 -0.9876 -0.7760 -0.3503
29562SOL    HW292185   6.472  10.852   4.532  0.4919 -0.1251 -1.2338
29563SOL     OW92186   1.000   3.279   7.446 -0.2087  0.0958  0.4615
29563SOL    HW192187   1.073   3.248   7.392  0.7083  0.0745  1.6905
29563SOL    HW292188   0.986   3.370   7.418 -1.2151 -0.5634 -1.3399
29564SOL     OW92189   4.621   8.139   0.353  0.4552 -0.0740  0.0799
29564SOL    HW192190   4.602   8.083   0.429  0.6803  0.3967  0.4848
29564SOL    HW292191   4.536   8.154   0.313  0.4699 -1.3509 -0.4973
29565SOL     OW92192   3.014   0.307   8.117  0.5007 -1.1960  0.4926
29565SOL    HW192193   2.944   0.366   8.146  0.5214 -1.1658  0.4817
29565SOL    HW292194   3.095   0.348   8.149  0.6451 -0.4529 -0.7575
29566SOL     OW92195   6.699   3.460   9.620  0.4526  0.2930 -0.1946
29566SOL    HW192196   6.664   3.416   9.543  0.2834  0.2721 -0.1074
29566SOL    HW292197   6.628   3.456   9.684  0.3881  0.8032 -0.2254
29567SOL     OW92198   1.445   8.430   5.196  0.2030 -0.1138  0.0963
29567SOL    HW192199   1.364   8.415   5.148 -0.2261 -0.1982  0.8410
29567SOL    HW292200   1.435   8.380   5.277  0.7110  0.4383  0.5060
29568SOL     OW92201   0.609   5.830   5.635 -0.4878  0.2343 -0.4955
29568SOL    HW192202   0.566   5.909   5.667  1.9696  1.5741 -0.2340
29568SOL    HW292203   0.680   5.862   5.578  0.5632 -1.7632 -0.4248
29569SOL     OW92204   2.624   6.513   0.890 -0.1813  0.0720 -0.5706
29569SOL    HW192205   2.621   6.602   0.925 -1.5805 -0.7749  1.6406
29569SOL    HW292206   2.692   6.469   0.940 -1.3247 -0.7965  0.2975
29570SOL     OW92207   9.595   7.715   6.363 -0.2580  0.2601  0.3350
29570SOL    HW192208   9.543   7.795   6.356  2.2503  1.9630 -0.0758
29570SOL    HW292209   9.664   7.737   6.425  2.5994 -0.2734 -2.4301
29571SOL     OW92210   6.426   6.789   8.756  0.1555  0.0301 -0.2372
29571SOL    HW192211   6.513   6.830   8.765  0.2596 -0.1942 -0.2193
29571SOL    HW292212   6.421   6.764   8.664 -0.2317  0.8003 -0.4388
29572SOL     OW92213   7.025   6.600   1.783  0.4788  0.4640 -0.0235
29572SOL    HW192214   7.015   6.554   1.700  0.6921 -0.3549  0.3925
29572SOL    HW292215   6.936   6.623   1.809  0.4690  1.4273 -0.8524
29573SOL     OW92216   7.229   6.743   4.601 -0.0986  0.5909  0.2868
29573SOL    HW192217   7.195   6.832   4.594  1.2931  1.1526  0.3186
29573SOL    HW292218   7.196   6.712   4.685  0.8106  1.7378  1.1036
29574SOL     OW92219   1.338   8.653   2.006 -0.2074  0.1287 -0.1675
29574SOL    HW192220   1.246   8.664   2.029 -0.2653 -0.5014 -0.0820
29574SOL    HW292221   1.337   8.607   1.921  0.0242 -0.0359 -0.0840
29575SOL     OW92222   3.089   5.013   0.895  0.7471 -0.1755 -0.4033
29575SOL    HW192223   3.178   4.988   0.921  1.0370  1.0035 -0.1985
29575SOL    HW292224   3.046   4.930   0.876  2.3866 -0.7189 -2.1056
29576SOL     OW92225   7.970   4.704   0.840  0.0677 -0.1059 -0.4748
29576SOL    HW192226   7.876   4.722   0.846 -0.0863 -0.9067 -0.3377
29576SOL    HW292227   7.977   4.610   0.858  0.6863 -0.4737 -2.4265
29577SOL     OW92228   9.341   8.642   9.844  0.1056  0.2189 -0.0828
29577SOL    HW192229   9.414   8.640   9.905  0.1357  0.5159 -0.1066
29577SOL    HW292230   9.362   8.714   9.784  0.3700 -0.4438 -0.8115
29578SOL     OW92231   8.277   5.961  10.879  0.8257  0.1011 -0.5317
29578SOL    HW192232   8.217   5.962  10.954  0.7614 -0.1467 -0.5770
29578SOL    HW292233   8.226   5.996  10.806  1.0456  0.8204 -0.3460
29579SOL     OW92234   3.800   7.227   3.603 -0.5328 -0.1676  0.0850
29579SOL    HW192235   3.842   7.300   3.558 -0.7135 -0.2788 -0.2670
29579SOL    HW292236   3.759   7.266   3.680 -2.6023  0.5143 -1.2875
29580SOL     OW92237   5.898   9.933   7.452 -0.2527  0.9973 -0.4192
29580SOL    HW192238   5.846   9.878   7.393  1.3631  1.9752 -2.9272
29580SOL    HW292239   5.984   9.891   7.454 -0.1015  1.3257  0.8299
29581SOL     OW92240   5.505   7.660   2.586  0.2285 -0.0939  0.4105
29581SOL    HW192241   5.470   7.703   2.664  1.8725 -1.5829  2.0516
29581SOL    HW292242   5.427   7.629   2.539 -0.8423  1.8738  0.7691
29582SOL     OW92243   1.075   2.355   3.168 -0.2833 -0.2523  0.3995
29582SOL    HW192244   1.104   2.390   3.084 -0.3022  0.7336  0.7901
29582SOL    HW292245   1.003   2.296   3.146 -0.2503 -0.0452 -0.2811
29583SOL     OW92246   3.102   9.080   8.854  0.2298 -0.0842  0.0576
29583SOL    HW192247   3.067   9.084   8.942 -2.0102  0.9582 -0.8057
29583SOL    HW292248   3.096   8.988   8.829  0.4222 -0.3011  0.7998
29584SOL     OW92249   9.426   4.312  10.640  0.3450 -0.2205  0.1167
29584SOL    HW192250   9.346   4.294  10.689  0.0992  0.4403 -0.0302
29584SOL    HW292251   9.440   4.406  10.650  1.9262 -0.5532  1.3513
29585SOL     OW92252   3.580   3.688   3.823  0.7641 -0.1507 -0.8562
29585SOL    HW192253   3.612   3.646   3.743  0.7623 -0.2346 -0.8121
29585SOL    HW292254   3.564   3.616   3.884  1.0517 -0.0647 -0.6760
29586SOL     OW92255   6.116   9.062   4.783  0.9301  0.2160 -0.2360
29586SOL    HW192256   6.150   9.096   4.700  3.3891  1.2618  1.0674
29586SOL    HW292257   6.148   9.125   4.848  0.2915 -1.3355  1.6509
29587SOL     OW92258   0.024   4.984   8.276  0.5177 -0.4755  0.0226
29587SOL    HW192259  -0.006   4.931   8.350  0.5813  0.9566  1.1135
29587SOL    HW292260  -0.037   4.963   8.205  0.2654 -1.6393  0.5521
29588SOL     OW92261   7.544   5.547   2.392  0.3595  0.3826  0.8493
29588SOL    HW192262   7.596   5.488   2.338  0.6651  0.3181  1.2118
29588SOL    HW292263   7.531   5.500   2.474 -1.9069 -0.4358  0.1190
29589SOL     OW92264   5.021   7.484   1.818  0.0661 -0.2747 -0.0562
29589SOL    HW192265   4.959   7.417   1.848  0.3264 -0.1138  0.8572
29589SOL    HW292266   4.970   7.537   1.757 -0.1762 -1.2354 -0.7299
29590SOL     OW92267   7.953   8.906   4.274  0.0905  0.9226 -0.6502
29590SOL    HW192268   7.907   8.907   4.358 -1.7041 -0.2374 -1.5688
29590SOL    HW292269   7.885   8.888   4.209  1.7491 -0.2472 -2.1522
29591SOL     OW92270   0.604   8.466   2.406  0.0192  0.2106 -0.1882
29591SOL    HW192271   0.595   8.371   2.410  0.0465  0.2019 -0.3131
29591SOL    HW292272   0.540   8.494   2.341 -0.3895  0.3396  0.2707
29592SOL     OW92273   5.135   3.488   8.803  0.2256  0.4009  0.1128
29592SOL    HW192274   5.084   3.520   8.729  1.0712 -4.0847 -2.7507
29592SOL    HW292275   5.072   3.487   8.876 -1.7092  1.5143 -1.4358
29593SOL     OW92276   2.137   0.217   0.722  0.7440  0.0686  0.0582
29593SOL    HW192277   2.140   0.121   0.722  1.3172  0.0147 -2.3602
29593SOL    HW292278   2.196   0.243   0.793 -0.8542 -1.3226  1.9787
29594SOL     OW92279   1.036   8.978   0.960  0.0431 -0.2760  0.6721
29594SOL    HW192280   0.952   8.951   0.923 -0.0300 -0.5345  1.0212
29594SOL    HW292281   1.068   9.045   0.900  0.4566 -1.4631 -0.4630
29595SOL     OW92282   3.524   9.298   4.196  0.3431  0.1271 -0.0491
29595SOL    HW192283   3.511   9.265   4.284  0.6414 -2.0842 -0.7658
29595SOL    HW292284   3.524   9.220   4.141  1.0503  1.3624 -1.9047
29596SOL     OW92285   6.685   5.045   9.366  0.2608  0.4065  0.1071
29596SOL    HW192286   6.718   4.956   9.360  2.9450  1.3499 -0.7795
29596SOL    HW292287   6.655   5.054   9.457 -1.5772 -1.7813 -0.1838
29597SOL     OW92288  10.841   0.817   6.919  0.5111 -0.5216 -0.3191
29597SOL    HW192289  10.837   0.905   6.881 -2.6836 -0.4445 -0.0844
29597SOL    HW292290  10.767   0.770   6.880  0.3412 -2.1332  1.7340
29598SOL     OW92291   6.371   4.064   3.247  0.1846  0.1848  0.3070
29598SOL    HW192292   6.409   4.149   3.270  0.9664 -0.1445  0.2499
29598SOL    HW292293   6.439   4.020   3.196 -0.3782 -0.3061 -0.0302
29599SOL     OW92294   1.745  10.044   6.231  0.9086  0.4543 -0.1223
29599SOL    HW192295   1.758  10.002   6.146  1.7434  1.3563 -0.4551
29599SOL    HW292296   1.715  10.133   6.210 -1.3661 -0.0840  0.5771
29600SOL     OW92297   5.635   9.170   5.554  0.5297 -0.0521 -0.0625
29600SOL    HW192298   5.576   9.118   5.500  1.0010  0.2377 -0.8962
29600SOL    HW292299   5.625   9.259   5.521  0.2117  0.2830  0.9065
29601SOL     OW92300   1.574   7.894   5.789  0.2991 -0.4408  0.2267
29601SOL    HW192301   1.493   7.943   5.779  1.0541  1.0956  1.2526
29601SOL    HW292302   1.602   7.911   5.879  1.5552 -1.2553  0.0221
29602SOL     OW92303   7.415   5.309   4.414 -0.4450  0.3706 -0.3313
29602SOL    HW192304   7.415   5.256   4.334 -1.6493  1.0308 -0.7944
29602SOL    HW292305   7.485   5.373   4.400 -1.2272  1.0545 -1.2811
29603SOL     OW92306   6.768   3.090   6.274  0.2422  0.2358 -0.2205
29603SOL    HW192307   6.864   3.089   6.271  0.3014  2.2628 -0.7740
29603SOL    HW292308   6.741   3.051   6.192  0.6172  0.4180 -0.4348
29604SOL     OW92309   7.392   3.819  10.831 -0.8490 -0.0793  0.3192
29604SOL    HW192310   7.358   3.738  10.868 -1.2025 -0.2836 -0.4382
29604SOL    HW292311   7.399   3.878  10.906 -0.3770 -0.8675  0.9210
29605SOL     OW92312   6.687   5.631   0.378  0.1234 -0.2594  0.1560
29605SOL    HW192313   6.748   5.664   0.312 -0.4252  0.1242 -0.1773
29605SOL    HW292314   6.637   5.708   0.405 -0.5606 -0.6485  0.0362
29606SOL     OW92315   5.058  10.395   4.706 -0.5418  0.2359 -0.0902
29606SOL    HW192316   5.134  10.410   4.650 -0.1026  1.6804  0.8460
29606SOL    HW292317   4.997  10.464   4.681 -0.8452  0.1367  0.3765
29607SOL     OW92318  10.446   2.171   8.141  0.1882 -0.4889 -0.3927
29607SOL    HW192319  10.446   2.210   8.228 -0.9360 -2.4822  0.5832
29607SOL    HW292320  10.537   2.178   8.112 -0.1260  3.8322 -0.8982
29608SOL     OW92321   0.700   6.074   7.226 -0.3293  0.3409 -0.5204
29608SOL    HW192322   0.755   6.000   7.199 -0.4738 -0.2788  0.7894
29608SOL    HW292323   0.613   6.036   7.237 -0.1952  0.4523  1.1467
29609SOL     OW92324   4.462   2.040   6.029  0.1798  0.1027 -0.8931
29609SOL    HW192325   4.529   2.013   5.966 -0.0652 -1.0886 -0.6764
29609SOL    HW292326   4.410   2.106   5.983  0.7532  0.1372 -1.5014
29610SOL     OW92327  10.002   5.048   4.493 -0.2473  0.4406  0.1364
29610SOL    HW192328   9.995   4.971   4.438 -1.9731  0.4445  0.2777
29610SOL    HW292329   9.937   5.034   4.562  1.1898  0.8703  1.6475
29611SOL     OW92330   4.127   7.880   3.087 -0.7396 -0.1393  0.1972
29611SOL    HW192331   4.069   7.855   3.016  0.0838  2.2255 -1.4283
29611SOL    HW292332   4.118   7.976   3.093  0.8316 -0.0388  1.8233
29612SOL     OW92333   5.305   4.410   9.453 -0.4058 -0.1691  0.3066
29612SOL    HW192334   5.399   4.420   9.437  0.0294 -1.7211  1.6124
29612SOL    HW292335   5.267   4.399   9.366  0.3491  2.1441 -0.3827
29613SOL     OW92336   4.960  10.675   9.856  0.0006  0.1136 -0.0241
29613SOL    HW192337   4.977  10.602   9.795 -2.4953  0.5313 -1.3548
29613SOL    HW292338   5.005  10.749   9.817  0.5397 -0.1818  0.0278
29614SOL     OW92339   3.668   9.933  10.460  0.0337 -0.0215  0.1568
29614SOL    HW192340   3.656   9.839  10.472  1.6306 -0.2626 -0.0334
29614SOL    HW292341   3.714   9.962  10.539 -3.2627  1.2587  1.8339
29615SOL     OW92342   3.434   2.049   1.459 -0.2806 -0.4600 -0.2607
29615SOL    HW192343   3.354   2.091   1.491 -0.9249 -2.2475  0.5825
29615SOL    HW292344   3.489   2.038   1.537  0.7393  0.5761 -0.7993
29616SOL     OW92345   0.378   6.253   3.732  0.8294  0.4507  0.0955
29616SOL    HW192346   0.317   6.324   3.711 -0.2138  0.0859  1.6873
29616SOL    HW292347   0.429   6.240   3.653 -0.0629  1.8904 -0.7478
29617SOL     OW92348   1.355   5.690   0.194 -0.5384  0.0878  0.3817
29617SOL    HW192349   1.361   5.746   0.271 -0.0049 -1.1654  1.2861
29617SOL    HW292350   1.445   5.680   0.164 -0.8951  2.2345 -1.7102
29618SOL     OW92351   5.004   8.314   2.734  0.2676  0.0255 -0.1660
29618SOL    HW192352   5.047   8.354   2.810 -0.5674  1.3077 -0.3490
29618SOL    HW292353   4.957   8.239   2.770  1.3763 -0.4849  0.2740
29619SOL     OW92354   3.992   8.231   1.282  0.1627  0.5954 -0.1832
29619SOL    HW192355   4.026   8.192   1.362  1.3932  0.6888 -0.6522
29619SOL    HW292356   3.920   8.288   1.312  0.9317  1.0200  0.9050
29620SOL     OW92357   1.895   4.105   3.473 -0.1690  0.1326 -0.3059
29620SOL    HW192358   1.963   4.152   3.522 -1.3615  0.5710  1.0050
29620SOL    HW292359   1.840   4.065   3.540  0.3093 -2.5286 -1.3712
29621SOL     OW92360   6.027   3.494   7.874 -0.1025  0.6290 -0.2048
29621SOL    HW192361   6.086   3.474   7.947 -0.0475  0.0717 -0.4001
29621SOL    HW292362   6.022   3.590   7.874  0.3731  0.6626  0.1523
29622SOL     OW92363   3.604   0.858  10.698  0.2958  0.1148 -0.4346
29622SOL    HW192364   3.567   0.939  10.732 -0.1428 -0.2460 -0.0327
29622SOL    HW292365   3.696   0.878  10.681  0.0816  0.8244 -0.7835
29623SOL     OW92366   7.521   6.896   1.849 -0.1539 -0.2437  0.0574
29623SOL    HW192367   7.563   6.872   1.932 -0.6554  2.4911  1.1895
29623SOL    HW292368   7.584   6.869   1.782  0.6617 -1.7079  1.3463
29624SOL     OW92369   2.348   6.006   2.662  0.6124  0.1108 -0.0134
29624SOL    HW192370   2.390   5.921   2.658  1.9668  0.7415  0.3304
29624SOL    HW292371   2.324   6.025   2.571 -1.2293 -1.3309  0.1113
29625SOL     OW92372   6.195   1.995  10.688  0.6879  0.1375 -0.1482
29625SOL    HW192373   6.116   2.009  10.636 -0.0690  2.1178  1.3837
29625SOL    HW292374   6.186   1.906  10.722 -1.3320  0.5888  0.6371
29626SOL     OW92375   9.300   2.668   1.028  0.1782  0.4620 -0.0077
29626SOL    HW192376   9.304   2.620   1.111  1.0627  1.4807  0.5731
29626SOL    HW292377   9.388   2.659   0.991  0.3972  1.7153  0.1724
29627SOL     OW92378   2.038   1.573  10.164 -0.1438  0.7694  0.3903
29627SOL    HW192379   2.045   1.655  10.213  2.1618  0.8766 -0.0228
29627SOL    HW292380   2.087   1.589  10.084 -0.3894 -0.7522 -0.0874
29628SOL     OW92381   7.461   0.503   7.920 -0.3136 -0.3774  0.2672
29628SOL    HW192382   7.457   0.509   7.824 -1.0619  1.4199  0.3727
29628SOL    HW292383   7.414   0.422   7.941  0.0787 -0.9259 -0.8856
29629SOL     OW92384   2.031   5.040   2.384  0.2015  0.1110 -0.1791
29629SOL    HW192385   2.031   4.967   2.446  2.7819  2.4294  2.8422
29629SOL    HW292386   2.113   5.032   2.337  0.7576  1.2818  0.5492
29630SOL     OW92387   3.650   4.773   7.104  0.1384 -0.0159  0.1706
29630SOL    HW192388   3.595   4.811   7.172 -0.3799  0.6484 -0.5842
29630SOL    HW292389   3.612   4.807   7.022  1.2172 -0.1491 -0.4044
29631SOL     OW92390  10.122   0.989   3.745 -0.1817  0.1103 -0.0304
29631SOL    HW192391  10.131   0.894   3.738  1.4373  0.1174  1.2746
29631SOL    HW292392  10.212   1.022   3.740 -0.7473  1.6407 -1.0207
29632SOL     OW92393   3.944   1.151   4.977  0.4451  0.1953 -0.3803
29632SOL    HW192394   3.867   1.133   5.030  1.4282 -2.5803  0.2607
29632SOL    HW292395   4.000   1.205   5.033  0.6402 -1.0815  0.6915
29633SOL     OW92396   7.781   2.507   5.885  0.2733  0.1313  0.5170
29633SOL    HW192397   7.826   2.582   5.846 -1.9491  1.1757 -0.2544
29633SOL    HW292398   7.745   2.460   5.810  3.1425 -2.8705  0.8412
29634SOL     OW92399   3.057   8.233   4.967 -0.6770  0.0832  0.5736
29634SOL    HW192400   3.029   8.221   5.057 -0.8376  0.8582  0.6368
29634SOL    HW292401   3.004   8.306   4.935  1.8041  2.2563  0.9772
29635SOL     OW92402   3.529   7.113   3.997  0.3898 -0.1640 -0.0907
29635SOL    HW192403   3.550   7.023   4.024  1.0452 -0.7736 -2.4098
29635SOL    HW292404   3.583   7.168   4.053 -0.0518 -1.1807  1.4046
29636SOL     OW92405   4.416   8.942   8.063  0.2713  0.4039  0.0215
29636SOL    HW192406   4.347   8.961   8.127 -2.0671 -0.2734 -2.1499
29636SOL    HW292407   4.452   9.028   8.041 -0.1877  0.8197  0.8370
29637SOL     OW92408   6.382   7.120   5.145  0.1077 -0.1552  0.2098
29637SOL    HW192409   6.446   7.050   5.132  0.2137 -0.3830  1.7618
29637SOL    HW292410   6.387   7.140   5.239  0.9447  2.7675 -0.3522
29638SOL     OW92411   0.261   1.116  10.312 -0.3660 -0.1623 -0.5380
29638SOL    HW192412   0.302   1.030  10.326 -0.9145 -0.3541 -0.0823
29638SOL    HW292413   0.334   1.173  10.291  0.3709 -0.1929  1.6330
29639SOL     OW92414   5.433   6.157   5.857  0.2313  0.2344  0.1489
29639SOL    HW192415   5.473   6.235   5.820 -0.8642  0.5662 -0.3918
29639SOL    HW292416   5.385   6.189   5.934 -1.5352  0.4103 -0.9675
29640SOL     OW92417   3.319   8.255   4.912 -0.7168 -0.3595  0.4457
29640SOL    HW192418   3.227   8.232   4.907 -0.6453 -0.4613 -0.4335
29640SOL    HW292419   3.365   8.172   4.897 -0.4507  0.3389 -3.3061
29641SOL     OW92420  10.376   5.685   6.358 -0.0294 -0.1506  0.1683
29641SOL    HW192421  10.310   5.617   6.370 -1.7034  1.2726 -0.5721
29641SOL    HW292422  10.427   5.683   6.440 -1.1152 -1.1542  0.8550
29642SOL     OW92423   1.851  10.759   5.906  0.0954 -0.0913  0.5181
29642SOL    HW192424   1.760  10.730   5.913  0.2696 -1.2545 -1.4424
29642SOL    HW292425   1.852  10.818   5.831  0.8800  0.3008  0.8240
29643SOL     OW92426   4.841   9.621   1.737 -0.1035  0.4019  0.0322
29643SOL    HW192427   4.896   9.697   1.715 -0.7002  0.2595 -2.1644
29643SOL    HW292428   4.768   9.625   1.676 -1.1715 -0.8971  1.1533
29644SOL     OW92429   4.572   7.813   0.827  0.0409 -0.1639  0.6396
29644SOL    HW192430   4.606   7.881   0.886 -1.4512  0.7969  0.4470
29644SOL    HW292431   4.597   7.842   0.740 -0.3871  0.0169  0.5751
29645SOL     OW92432   7.206   0.359   7.788 -0.0086  0.0109  0.0338
29645SOL    HW192433   7.271   0.423   7.763 -0.9346  1.4653  1.1687
29645SOL    HW292434   7.122   0.404   7.778 -0.7561 -1.3263 -0.0097
29646SOL     OW92435   6.582  10.880   5.860  0.8111  0.0707  0.0784
29646SOL    HW192436   6.539  10.811   5.810  1.3118  0.2135 -0.5629
29646SOL    HW292437   6.608  10.838   5.942 -0.9958  0.1162  0.7165
29647SOL     OW92438   1.183   4.377   8.368  0.2819  0.1125  0.3441
29647SOL    HW192439   1.094   4.363   8.336 -0.0131  3.0661 -0.4096
29647SOL    HW292440   1.236   4.383   8.289  0.5799  1.3922  0.6121
29648SOL     OW92441   3.433   6.784   8.793  0.3694  0.4919 -0.2826
29648SOL    HW192442   3.358   6.767   8.737 -0.8688  2.6290  0.6032
29648SOL    HW292443   3.400   6.772   8.882  1.7424 -0.7935  0.0961
29649SOL     OW92444   0.643   9.347   6.176  0.2991  0.0646  0.3284
29649SOL    HW192445   0.657   9.429   6.224  0.7706  0.8280 -1.0215
29649SOL    HW292446   0.627   9.281   6.243 -0.7341  1.3869  1.4336
29650SOL     OW92447   6.637  10.773   4.542  0.0998 -0.3517 -0.1937
29650SOL    HW192448   6.579  10.705   4.507  0.3753 -0.7646  0.1455
29650SOL    HW292449   6.725  10.735   4.536  0.4515  0.5810 -1.4722
29651SOL     OW92450   3.906   8.547   3.573 -0.0248  0.1325 -0.1669
29651SOL    HW192451   3.860   8.514   3.650  1.4284 -0.5911  0.4319
29651SOL    HW292452   3.879   8.489   3.502 -0.4198  0.0354  0.0587
29652SOL     OW92453   3.063   2.918   8.978  0.3499  0.2055  0.4398
29652SOL    HW192454   3.129   2.879   8.921  0.5667  2.1366 -0.7206
29652SOL    HW292455   2.980   2.881   8.946  0.6240 -0.0471  0.0025
29653SOL     OW92456  10.373   4.098   1.000 -0.4089 -0.9206  0.3651
29653SOL    HW192457  10.370   4.075   1.093 -0.1891 -1.9238  0.1389
29653SOL    HW292458  10.284   4.082   0.968 -0.3029 -1.2838  0.2482
29654SOL     OW92459  10.980   8.129   7.529 -0.2852 -0.0940  0.2126
29654SOL    HW192460  10.900   8.097   7.488  0.0344  0.4108 -0.8241
29654SOL    HW292461  10.975   8.224   7.521  1.2072 -0.1027 -1.4214
29655SOL     OW92462  10.664   2.589   8.864 -0.1837  0.0569  0.0196
29655SOL    HW192463  10.699   2.582   8.952  0.1574  0.2730 -0.0939
29655SOL    HW292464  10.729   2.643   8.817 -0.1706 -0.3701 -0.4607
29656SOL     OW92465   8.791   9.706  10.008 -0.0524 -0.3258 -0.2243
29656SOL    HW192466   8.848   9.662   9.944  0.0330 -2.0235  0.9635
29656SOL    HW292467   8.833   9.690  10.092 -1.6570 -0.6201  0.5611
29657SOL     OW92468   9.473   1.583   5.692 -0.3676 -0.3138  0.5164
29657SOL    HW192469   9.491   1.531   5.614  0.4180 -0.9961  1.1269
29657SOL    HW292470   9.548   1.566   5.749 -0.4633  0.9241  1.0322
29658SOL     OW92471   4.173   2.379   3.557  0.0520 -0.3635 -0.3669
29658SOL    HW192472   4.122   2.331   3.492  0.7481 -0.4075 -0.8943
29658SOL    HW292473   4.248   2.322   3.576  0.5671  0.2424 -0.5437
29659SOL     OW92474   2.528   5.512   5.514 -0.0906  0.3617  0.3457
29659SOL    HW192475   2.472   5.549   5.447 -1.5822 -2.3387 -0.0344
29659SOL    HW292476   2.612   5.495   5.470 -0.2789  0.7690 -0.1686
29660SOL     OW92477   5.209   6.588   5.736  0.2870 -0.0001 -0.2298
29660SOL    HW192478   5.187   6.513   5.680 -0.2426  0.8989 -1.2773
29660SOL    HW292479   5.127   6.636   5.744  0.1337 -0.5173  2.0549
29661SOL     OW92480   8.936   0.692   0.592 -0.3239  0.1277  0.2331
29661SOL    HW192481   8.887   0.626   0.642 -1.6763  0.9239  0.0256
29661SOL    HW292482   8.960   0.648   0.511  1.3555 -0.9894  1.2816
29662SOL     OW92483   1.768  10.738   6.619  0.0657 -0.0578  0.7430
29662SOL    HW192484   1.796  10.829   6.615 -0.6743  0.2387  1.6605
29662SOL    HW292485   1.824  10.699   6.686 -0.3238  0.0136  1.1195
29663SOL     OW92486   9.154   0.875   5.512  0.0394  0.2009  0.5376
29663SOL    HW192487   9.151   0.808   5.443 -1.5739 -0.1648  0.9057
29663SOL    HW292488   9.127   0.956   5.468  1.7306  0.5890  0.1525
29664SOL     OW92489   8.105   0.034   3.508  0.1399  0.6207 -0.1244
29664SOL    HW192490   8.080   0.093   3.579  0.7151  2.3181 -1.2660
29664SOL    HW292491   8.168   0.084   3.456 -0.4900 -0.4322 -2.0099
29665SOL     OW92492   5.470   5.740   1.591 -0.5370 -0.2513  0.5986
29665SOL    HW192493   5.525   5.666   1.618 -1.9009 -1.6468 -0.2512
29665SOL    HW292494   5.445   5.719   1.501  2.3034  3.2826 -1.2638
29666SOL     OW92495   9.015   3.831  10.451  0.1038 -0.1286  0.0772
29666SOL    HW192496   8.972   3.872  10.375  0.2421  0.8142  0.4912
29666SOL    HW292497   8.947   3.775  10.489 -0.2903  0.1855 -0.1495
29667SOL     OW92498   9.158   0.879   4.093  0.1416 -0.2869  0.4124
29667SOL    HW192499   9.242   0.903   4.054  0.2192 -0.9853  0.1372
29667SOL    HW292500   9.100   0.953   4.073  0.8720  0.5151  1.2076
29668SOL     OW92501   2.722   4.100   5.819  0.0365  0.1158  0.7345
29668SOL    HW192502   2.775   4.179   5.827 -1.6155  1.4705 -1.0571
29668SOL    HW292503   2.651   4.123   5.760  0.5954 -3.3017 -1.5597
29669SOL     OW92504   7.466   3.355   5.213  0.2891  0.0937  0.3467
29669SOL    HW192505   7.483   3.382   5.123 -0.9653 -0.6942 -0.1532
29669SOL    HW292506   7.379   3.315   5.210  1.8365 -3.6939  1.0712
29670SOL     OW92507   7.162   2.595   8.885  0.0359  0.4549 -0.4453
29670SOL    HW192508   7.084   2.588   8.941  0.8672  0.2848  0.7461
29670SOL    HW292509   7.226   2.640   8.941  1.0419 -0.1181 -1.1187
29671SOL     OW92510   3.766   8.567   4.037 -0.0671  0.4096  0.5569
29671SOL    HW192511   3.738   8.589   4.126  1.3025  0.3308  1.0322
29671SOL    HW292512   3.853   8.529   4.048 -0.0286  0.0604 -0.7937
29672SOL     OW92513   4.300   4.529   0.070 -0.5454 -0.3201  0.0166
29672SOL    HW192514   4.325   4.621   0.058  1.3431 -0.8448 -0.4363
29672SOL    HW292515   4.249   4.508  -0.008  0.3727 -0.0720 -0.6693
29673SOL     OW92516  10.410   8.655   2.831 -0.1602  0.1229 -0.3148
29673SOL    HW192517  10.340   8.719   2.845 -0.3477 -0.1806  0.1606
29673SOL    HW292518  10.435   8.667   2.739  0.1951  1.2625 -0.0889
29674SOL     OW92519   8.153   9.790   5.532  0.4498  0.3637 -0.0995
29674SOL    HW192520   8.070   9.836   5.549 -0.6658 -1.6367  0.1897
29674SOL    HW292521   8.191   9.836   5.458 -0.4127  1.9577  0.4002
29675SOL     OW92522   9.662   3.183   9.486 -0.1741  0.0033  0.4676
29675SOL    HW192523   9.730   3.121   9.459 -0.0864  0.0683  0.5389
29675SOL    HW292524   9.582   3.131   9.490 -0.2383  0.0451 -0.1596
29676SOL     OW92525   0.815   7.922   7.815 -0.2102 -0.7287  0.4165
29676SOL    HW192526   0.757   7.978   7.866  0.8353  0.7656  0.0373
29676SOL    HW292527   0.854   7.980   7.750  0.0289 -2.1604 -0.7727
29677SOL     OW92528  10.147   8.769   6.422  0.6706 -0.3750  0.2788
29677SOL    HW192529  10.074   8.708   6.424 -0.0754  0.4588 -0.5359
29677SOL    HW292530  10.177   8.773   6.513  0.2226 -1.3336  0.4779
29678SOL     OW92531   8.799   4.834   4.283  0.0472 -0.5553  0.3146
29678SOL    HW192532   8.887   4.798   4.273  0.0637 -0.5777  0.5299
29678SOL    HW292533   8.748   4.794   4.213  0.7312  1.1630 -1.2566
29679SOL     OW92534   2.564  10.163   0.114 -0.0637 -0.8853  0.0081
29679SOL    HW192535   2.646  10.149   0.162  1.1835 -0.2259 -1.8046
29679SOL    HW292536   2.526  10.076   0.106  0.4341 -1.1995  0.9248
29680SOL     OW92537  10.616   9.030   7.454 -0.2128  0.2323  0.2227
29680SOL    HW192538  10.657   9.093   7.513 -0.3319  0.8136 -0.2983
29680SOL    HW292539  10.639   9.061   7.366 -1.3183  0.2696 -0.0719
29681SOL     OW92540   6.421   1.160   8.374 -0.2696  0.0691  0.3001
29681SOL    HW192541   6.430   1.176   8.280 -0.1081  0.1241  0.3241
29681SOL    HW292542   6.349   1.216   8.401 -0.1014  0.3038  0.2693
29682SOL     OW92543   5.196   1.116   7.774 -0.6129  0.5593 -0.3096
29682SOL    HW192544   5.212   1.131   7.681 -0.0839 -1.5803 -0.6046
29682SOL    HW292545   5.102   1.100   7.780 -0.3849 -1.1561 -0.8048
29683SOL     OW92546   2.131   5.355   9.087 -0.1034 -0.4930  0.0893
29683SOL    HW192547   2.211   5.319   9.125  0.7093 -0.5066 -1.5265
29683SOL    HW292548   2.106   5.427   9.146  1.6829  0.1661  0.1077
29684SOL     OW92549   8.495   7.706  10.936 -0.2338  0.5608  0.7286
29684SOL    HW192550   8.461   7.742  10.854  0.3972  1.2504  0.7588
29684SOL    HW292551   8.553   7.635  10.910 -1.1656 -0.1947  0.6505
29685SOL     OW92552   9.184   3.425   1.571  0.7332 -0.6865  0.2277
29685SOL    HW192553   9.237   3.368   1.515  0.4111 -0.8663  0.1032
29685SOL    HW292554   9.122   3.365   1.613  0.8998 -0.5371  0.6921
29686SOL     OW92555   9.326   6.601   3.090 -0.5004 -0.7433 -0.7543
29686SOL    HW192556   9.348   6.638   3.175 -1.5334 -2.1731  0.1951
29686SOL    HW292557   9.393   6.634   3.031  0.5761 -0.1527  0.7309
29687SOL     OW92558   5.668  10.880   6.826 -0.2227 -0.0453 -0.0972
29687SOL    HW192559   5.617  10.961   6.831 -0.2246 -0.0640  0.1611
29687SOL    HW292560   5.618  10.824   6.766 -0.4689 -0.0353  0.0986
29688SOL     OW92561   3.489   9.443   9.015  0.9486  0.7948 -0.6669
29688SOL    HW192562   3.571   9.489   8.996  1.5299  0.0188 -0.1039
29688SOL    HW292563   3.515   9.351   9.023 -0.1045  0.4391 -1.2134
29689SOL     OW92564   5.945   5.638   0.918 -0.3596  0.6065 -0.5974
29689SOL    HW192565   5.853   5.615   0.932 -0.2054  0.4648  0.2237
29689SOL    HW292566   5.945   5.733   0.910 -0.7973  0.4965 -2.4300
29690SOL     OW92567   8.566   0.772  10.435 -0.2060  0.1136 -0.0438
29690SOL    HW192568   8.589   0.854  10.480  0.0667 -0.9886  1.9262
29690SOL    HW292569   8.471   0.765  10.446 -0.2444  0.2067 -0.3079
29691SOL     OW92570   0.159   4.681   0.746 -0.5642  0.3441  0.3251
29691SOL    HW192571   0.219   4.700   0.674  0.5014 -0.5340  0.9503
29691SOL    HW292572   0.181   4.592   0.773 -1.0546  0.5890  1.6167
29692SOL     OW92573   3.724   3.453   9.025 -0.3670  0.9613 -0.2318
29692SOL    HW192574   3.680   3.374   8.994 -0.1500  1.0323 -0.7191
29692SOL    HW292575   3.806   3.457   8.976  1.8339 -0.9473  2.9084
29693SOL     OW92576   7.048   7.970   5.402  0.2928 -0.4053  0.2885
29693SOL    HW192577   7.073   8.019   5.481 -2.4169 -1.3726  1.8871
29693SOL    HW292578   6.980   8.024   5.362  0.1160 -0.9512 -0.1524
29694SOL     OW92579   6.182   8.120   1.085 -0.0803 -0.0436  0.8260
29694SOL    HW192580   6.273   8.124   1.114  0.3478 -1.2384 -0.2422
29694SOL    HW292581   6.143   8.202   1.117  2.1483  2.0335 -1.2643
29695SOL     OW92582   2.011   2.898   3.446 -0.0614  0.4309 -0.3936
29695SOL    HW192583   1.968   2.861   3.524 -1.5188 -0.8950 -1.7510
29695SOL    HW292584   2.003   2.829   3.380 -0.5115  2.2073 -2.2646
29696SOL     OW92585  10.838   2.462  10.409 -0.4476  0.1931  0.2030
29696SOL    HW192586  10.782   2.540  10.407 -1.3315 -0.4351 -1.1282
29696SOL    HW292587  10.852   2.440  10.317  0.4184 -0.7873  0.5534
29697SOL     OW92588   1.675   7.669   7.472 -0.4964  0.4450  0.3874
29697SOL    HW192589   1.607   7.617   7.429  0.0113 -0.1735  0.3305
29697SOL    HW292590   1.641   7.759   7.470 -1.0107  0.2433 -0.2397
29698SOL     OW92591   8.370   6.897   6.504 -0.1238 -0.3108  0.4604
29698SOL    HW192592   8.320   6.820   6.476  1.1178 -0.5653 -1.2186
29698SOL    HW292593   8.453   6.861   6.537  1.1373  0.3235 -1.8500
29699SOL     OW92594   9.235   0.002   5.643 -0.4782  0.4163 -0.7498
29699SOL    HW192595   9.277   0.061   5.580  1.4164 -0.1217 -0.0833
29699SOL    HW292596   9.216   0.057   5.719 -0.0045  0.4771 -0.6683
29700SOL     OW92597   5.225  10.120   8.744  0.1257 -0.2559 -0.2493
29700SOL    HW192598   5.207  10.199   8.693 -0.6533  0.3045  0.8462
29700SOL    HW292599   5.139  10.091   8.774  0.6264  0.0502  1.6141
29701SOL     OW92600   6.797   7.781   3.699 -0.6144  0.2803  0.5769
29701SOL    HW192601   6.864   7.768   3.767  0.4007 -0.2492 -0.4891
29701SOL    HW292602   6.843   7.829   3.630 -0.9976 -1.1116 -0.6773
29702SOL     OW92603   3.429   9.396   9.358  0.6009 -0.4508  0.1222
29702SOL    HW192604   3.500   9.336   9.335 -0.1063 -1.4450  0.4686
29702SOL    HW292605   3.398   9.366   9.443 -1.4293 -1.2145 -0.8100
29703SOL     OW92606   3.267  10.971   5.539 -0.1624  0.2180  0.4684
29703SOL    HW192607   3.222  11.054   5.524 -0.2330  0.4928  2.0092
29703SOL    HW292608   3.271  10.930   5.453  0.2344  1.9899 -0.3981
29704SOL     OW92609  10.023   6.789   6.322 -0.0383  0.4848  0.5625
29704SOL    HW192610  10.089   6.849   6.287  0.2911 -0.6742 -0.9499
29704SOL    HW292611   9.946   6.843   6.338 -0.4069  1.1032 -2.5767
29705SOL     OW92612   2.176   6.162   7.709 -0.0958  0.3589 -0.2533
29705SOL    HW192613   2.092   6.181   7.751  0.7025  1.9762  0.7321
29705SOL    HW292614   2.201   6.076   7.743 -1.4878 -0.3117 -0.8426
29706SOL     OW92615   2.371   4.599   0.728 -0.2867  0.6715  0.2855
29706SOL    HW192616   2.459   4.595   0.690 -0.7011 -1.1134 -0.5501
29706SOL    HW292617   2.343   4.508   0.736 -1.9821  1.1888  0.7594
29707SOL     OW92618   4.452   6.212   7.062  0.4542 -0.2343 -0.4549
29707SOL    HW192619   4.388   6.142   7.070 -0.4098  0.6052  0.2965
29707SOL    HW292620   4.400   6.290   7.043  1.3953  0.1992 -1.3363
29708SOL     OW92621   9.171   9.899   6.577  0.0121 -0.2873 -1.2670
29708SOL    HW192622   9.101   9.863   6.631  0.2884 -2.1223 -2.0512
29708SOL    HW292623   9.127   9.956   6.515 -0.6022 -0.1752 -0.7296
29709SOL     OW92624   4.874  10.246   9.232 -0.2663 -0.5211  0.0699
29709SOL    HW192625   4.782  10.257   9.208 -0.2389  0.9036  0.5262
29709SOL    HW292626   4.872  10.186   9.307 -0.6714 -1.6599 -0.8068
29710SOL     OW92627   9.844   5.801   3.131 -0.2509 -0.0856  0.3049
29710SOL    HW192628   9.864   5.883   3.087  0.2127 -1.0826 -1.4332
29710SOL    HW292629   9.848   5.822   3.224 -0.1786  1.8514 -0.0977
29711SOL     OW92630   3.062  10.767   3.565  0.6938  0.7344 -0.3577
29711SOL    HW192631   2.983  10.729   3.604  1.0263 -0.1871 -0.5834
29711SOL    HW292632   3.039  10.781   3.473  0.8377  0.3263 -0.4580
29712SOL     OW92633   6.080   7.686   7.451  0.9422  0.0110  0.1389
29712SOL    HW192634   6.055   7.646   7.367 -0.3308  1.4427 -0.2267
29712SOL    HW292635   6.162   7.732   7.432  1.1528 -0.4445 -0.0706
29713SOL     OW92636   5.654   3.211   5.868  0.1856 -0.1674 -0.8506
29713SOL    HW192637   5.637   3.303   5.887 -1.7268 -0.4127 -1.1317
29713SOL    HW292638   5.737   3.192   5.912  1.7217  2.1952 -2.5463
29714SOL     OW92639   3.724   5.496   2.673  0.6086  0.5906 -0.6613
29714SOL    HW192640   3.704   5.411   2.713 -0.7777 -0.9769 -4.2851
29714SOL    HW292641   3.689   5.560   2.734 -1.4202 -1.5833  0.6354
29715SOL     OW92642   7.316   2.622  10.434 -0.1386 -0.4275 -0.7472
29715SOL    HW192643   7.345   2.669  10.356 -0.2769 -0.6361 -0.9250
29715SOL    HW292644   7.320   2.688  10.504  2.1664 -0.8248 -0.4390
29716SOL     OW92645   4.169   4.172   3.619 -0.0641  0.5782 -0.4008
29716SOL    HW192646   4.241   4.218   3.576  0.3386  0.3602  0.0352
29716SOL    HW292647   4.154   4.095   3.565 -0.6071  1.1005 -1.0215
29717SOL     OW92648   4.146   9.063   0.985 -0.1761  0.7987  0.6315
29717SOL    HW192649   4.159   9.096   1.074 -0.7361  1.7689  0.3778
29717SOL    HW292650   4.217   9.102   0.934  0.7767 -0.6071  0.8359
29718SOL     OW92651   3.041  10.017   1.769  1.0821 -0.7244  0.3256
29718SOL    HW192652   2.959   9.982   1.733  0.0703  0.3570  1.5055
29718SOL    HW292653   3.070  10.082   1.705  0.8299 -0.8523  0.0801
29719SOL     OW92654   0.136   8.259   2.642  0.8959 -0.0615  0.4710
29719SOL    HW192655   0.168   8.191   2.584 -1.7079  0.8038 -2.2696
29719SOL    HW292656   0.080   8.213   2.705 -1.6090 -0.5858 -1.9239
29720SOL     OW92657   2.831   1.582   5.980 -0.8092 -0.0678  0.0678
29720SOL    HW192658   2.783   1.521   6.036  0.3068  0.6849  1.9416
29720SOL    HW292659   2.766   1.646   5.951 -1.1863  0.2680  1.5914
29721SOL     OW92660   5.911   7.257   2.050  0.0821 -0.1506 -0.0106
29721SOL    HW192661   5.981   7.244   2.114  0.6398  0.5261 -0.4629
29721SOL    HW292662   5.831   7.231   2.096  0.4072  0.7448  1.1102
29722SOL     OW92663   3.792   4.394   3.322 -0.3910 -0.1935 -0.1078
29722SOL    HW192664   3.760   4.481   3.301 -0.0603  0.0469  0.3624
29722SOL    HW292665   3.714   4.342   3.338 -0.5655  0.2620  0.5575
29723SOL     OW92666   1.887   7.510   5.466 -0.1878  0.5302 -0.2986
29723SOL    HW192667   1.836   7.479   5.541  0.0431 -0.7743 -0.6561
29723SOL    HW292668   1.822   7.532   5.400 -0.3484  0.4817 -0.1563
29724SOL     OW92669   9.908   1.127   5.278  0.2286 -0.0635  0.2672
29724SOL    HW192670   9.851   1.070   5.226  0.8079 -0.3760 -0.0335
29724SOL    HW292671   9.973   1.068   5.317  1.8150  0.5274 -1.3175
29725SOL     OW92672   8.644   8.797   0.399  0.0842 -0.4343  0.1285
29725SOL    HW192673   8.717   8.784   0.339 -0.5247  0.4794 -0.8564
29725SOL    HW292674   8.567   8.803   0.343 -0.5467  0.1410  1.0162
29726SOL     OW92675   5.369   9.625   3.300 -0.1666  0.6474 -0.6041
29726SOL    HW192676   5.429   9.553   3.282 -0.1374 -0.0831  2.0001
29726SOL    HW292677   5.316   9.595   3.373 -0.8170  2.9093 -0.0537
29727SOL     OW92678  10.492   7.335   8.192  0.5058  0.3446  0.2256
29727SOL    HW192679  10.409   7.380   8.177  0.4965  0.2584  0.0142
29727SOL    HW292680  10.468   7.255   8.240  0.2281 -0.6633 -1.5257
29728SOL     OW92681   8.920  10.559   8.595 -0.3252 -0.1967 -1.0418
29728SOL    HW192682   8.836  10.527   8.562 -0.5674 -2.2724  1.2730
29728SOL    HW292683   8.907  10.568   8.689  1.7376  0.4769 -0.7758
29729SOL     OW92684   9.001   6.946   0.118 -0.6103 -0.3446  0.5822
29729SOL    HW192685   9.064   7.009   0.085 -0.1219 -0.6981  0.8313
29729SOL    HW292686   9.028   6.862   0.081 -1.5746 -0.3322 -0.1911
29730SOL     OW92687   3.310   0.301   2.938  0.2369  0.2623  0.4002
29730SOL    HW192688   3.346   0.262   2.858 -1.2811  0.3346 -0.3547
29730SOL    HW292689   3.249   0.368   2.907  0.3983  1.0246  1.6480
29731SOL     OW92690   9.599   2.200   9.356 -0.4897 -0.1202  0.0879
29731SOL    HW192691   9.508   2.171   9.346 -0.6971 -0.2030  1.8771
29731SOL    HW292692   9.637   2.189   9.269 -1.2583 -3.2929  0.0302
29732SOL     OW92693   3.493   1.307   9.061  0.2121  0.7912 -0.2173
29732SOL    HW192694   3.503   1.292   8.967 -1.9576 -0.5730 -0.2928
29732SOL    HW292695   3.405   1.344   9.071  0.3726  0.8534  1.2935
29733SOL     OW92696   4.739   1.689   3.338 -0.2699  0.1554  0.3993
29733SOL    HW192697   4.806   1.703   3.271 -2.0474 -0.2724 -1.5866
29733SOL    HW292698   4.732   1.773   3.383  0.0327  0.8819 -0.8632
29734SOL     OW92699   8.477  10.326   7.169  0.4321  0.4158 -0.1712
29734SOL    HW192700   8.447  10.283   7.249  1.3209  0.0823 -0.0080
29734SOL    HW292701   8.421  10.403   7.161  0.1607  0.3062  0.6315
29735SOL     OW92702   9.879   8.874   8.961  0.0491  0.6069 -0.0900
29735SOL    HW192703   9.840   8.944   9.014 -0.1974 -0.6037  1.4025
29735SOL    HW292704   9.806   8.817   8.938  0.2545  0.7852 -1.2365
29736SOL     OW92705   2.491   4.063   2.624 -0.2944 -0.0666  0.2386
29736SOL    HW192706   2.451   4.089   2.540 -1.0775 -2.0698 -0.0587
29736SOL    HW292707   2.557   3.999   2.600 -0.7451 -0.9025  1.1770
29737SOL     OW92708   1.410   2.534   7.939 -0.3611  0.1599  0.4930
29737SOL    HW192709   1.389   2.614   7.892  2.2495 -0.0963 -1.3265
29737SOL    HW292710   1.417   2.561   8.030  0.1794  1.9581 -0.0387
29738SOL     OW92711   1.707   7.756   7.116  0.7133 -0.0498 -1.1207
29738SOL    HW192712   1.801   7.735   7.112  0.8798 -0.5835  2.6886
29738SOL    HW292713   1.666   7.675   7.145  0.2098  1.9019  4.8277
29739SOL     OW92714   2.318  10.916   6.388 -0.4681 -0.6357  0.0371
29739SOL    HW192715   2.409  10.888   6.390 -0.5799 -1.0022  0.0810
29739SOL    HW292716   2.284  10.882   6.305 -0.2600  0.4893 -0.5381
29740SOL     OW92717   6.344   5.445   0.976 -0.4224 -0.5472 -0.0421
29740SOL    HW192718   6.396   5.490   0.910 -1.1933  1.4511  0.6264
29740SOL    HW292719   6.262   5.423   0.931 -0.5080 -0.1914 -0.0637
29741SOL     OW92720   3.169   4.131   8.647  0.8606 -0.5228 -0.7432
29741SOL    HW192721   3.194   4.114   8.556 -1.0235  0.1583 -1.4293
29741SOL    HW292722   3.166   4.227   8.653  2.7654 -0.4927  0.5913
29742SOL     OW92723   9.282   0.602   2.917 -0.1202 -0.1689  0.5495
29742SOL    HW192724   9.286   0.554   2.999  0.8965 -2.7629 -0.8926
29742SOL    HW292725   9.374   0.622   2.896 -0.3031 -0.1263 -0.2712
29743SOL     OW92726   3.535   5.685   3.677  0.4801  0.7083 -0.9058
29743SOL    HW192727   3.440   5.689   3.670  0.5133  0.1392 -1.7750
29743SOL    HW292728   3.566   5.673   3.588  1.3821  1.0063 -0.6496
29744SOL     OW92729   9.209   9.814   6.250 -0.4130  0.3283 -0.2776
29744SOL    HW192730   9.193   9.838   6.341  0.4579  0.0625 -0.0482
29744SOL    HW292731   9.162   9.732   6.238  0.1975 -0.0905  0.1887
29745SOL     OW92732  10.584   5.513   3.625 -0.0550  0.1852 -0.5935
29745SOL    HW192733  10.534   5.433   3.608 -1.4434  0.6640  0.8425
29745SOL    HW292734  10.570   5.529   3.719  0.6768  1.7862 -0.7329
29746SOL     OW92735   1.819   5.781   7.580  0.6913 -0.7319  0.4799
29746SOL    HW192736   1.776   5.867   7.581 -0.9463 -1.5253  0.4844
29746SOL    HW292737   1.820   5.754   7.672 -1.5795 -2.0157  0.1929
29747SOL     OW92738   5.290   4.078   4.174 -0.0791 -0.3071 -0.2151
29747SOL    HW192739   5.204   4.043   4.198  0.5689 -0.8682  1.4017
29747SOL    HW292740   5.298   4.159   4.223  0.7006 -0.7563  0.4320
29748SOL     OW92741   3.591   6.878   4.096  0.4395 -0.2161  0.3658
29748SOL    HW192742   3.560   6.839   4.178  1.6302 -0.0420  0.9196
29748SOL    HW292743   3.590   6.806   4.033 -1.9646 -0.0172  0.0746
29749SOL     OW92744   5.709   8.861   6.217 -0.2484  0.0186  0.0475
29749SOL    HW192745   5.794   8.838   6.257  0.9123  0.9424 -1.7386
29749SOL    HW292746   5.692   8.789   6.156  0.0352  0.5435 -0.6738
29750SOL     OW92747   2.667   6.246   1.245 -0.5101  0.0233 -0.4871
29750SOL    HW192748   2.649   6.164   1.291  0.0328 -1.0273 -2.0703
29750SOL    HW292749   2.738   6.224   1.185 -0.7049  1.5422 -1.3128
29751SOL     OW92750   5.910   7.341   1.800 -0.5062  0.1628  0.7047
29751SOL    HW192751   5.902   7.321   1.893 -2.7489 -0.3877  0.4617
29751SOL    HW292752   5.887   7.259   1.756 -0.4405  0.6843 -0.3306
29752SOL     OW92753  10.334   4.704   9.451 -0.2649  0.0247 -0.8357
29752SOL    HW192754  10.271   4.639   9.420 -0.1507  0.0939 -1.2118
29752SOL    HW292755  10.418   4.658   9.452 -0.4972 -0.4377  0.8233
29753SOL     OW92756   8.317   4.564   9.935  0.4937 -0.0750  0.3229
29753SOL    HW192757   8.231   4.523   9.926 -0.0254  1.0269  0.0595
29753SOL    HW292758   8.349   4.535  10.020  0.1015 -0.9178  0.1933
29754SOL     OW92759   3.489   1.242   8.784 -0.5116 -0.2146  0.2408
29754SOL    HW192760   3.535   1.163   8.754 -0.6104 -0.6650  1.2292
29754SOL    HW292761   3.531   1.313   8.736 -0.4550 -0.8691 -0.7121
29755SOL     OW92762   6.701   1.891   6.762 -0.3845  0.0109 -0.0973
29755SOL    HW192763   6.782   1.923   6.721  0.1044 -0.0774  0.7839
29755SOL    HW292764   6.631   1.933   6.712  0.2256  1.2831  0.0869
29756SOL     OW92765   7.168   5.928   9.840 -0.1561  0.4488  0.8059
29756SOL    HW192766   7.239   5.976   9.798  0.1457 -0.8281 -0.1975
29756SOL    HW292767   7.212   5.865   9.897 -0.5035  0.3763  0.9983
29757SOL     OW92768   3.117   4.739  10.142  0.2550 -0.4358  0.4031
29757SOL    HW192769   3.127   4.757  10.236 -0.0299  1.2526  0.1449
29757SOL    HW292770   3.149   4.819  10.099 -0.8832 -0.6489 -0.8852
29758SOL     OW92771   9.127  10.019   2.309 -0.0591 -0.7155  0.0340
29758SOL    HW192772   9.077   9.938   2.313 -0.4052 -0.4517  3.4090
29758SOL    HW292773   9.206  10.001   2.360 -0.5352  1.2775  1.5771
29759SOL     OW92774   6.580   0.997   0.214  0.4028 -0.3185 -0.1206
29759SOL    HW192775   6.606   0.938   0.143  0.1343 -1.3897  0.6336
29759SOL    HW292776   6.572   0.939   0.291  0.1237  0.7099  0.6463
29760SOL     OW92777  10.321   4.784   5.522  0.4411  0.2207 -0.1996
29760SOL    HW192778  10.395   4.799   5.580 -0.0216  0.3511  0.3668
29760SOL    HW292779  10.346   4.825   5.439  0.8742  0.5110  0.0728
29761SOL     OW92780   5.745   4.702  10.041  0.2143  0.4035  0.2606
29761SOL    HW192781   5.814   4.662   9.989 -0.2286 -0.5307  0.3639
29761SOL    HW292782   5.708   4.770   9.984 -1.2855 -1.6037 -1.3061
29762SOL     OW92783   2.805   0.348   2.995  0.0834 -0.2484 -0.3601
29762SOL    HW192784   2.744   0.420   3.012 -0.1144 -0.6357  0.5846
29762SOL    HW292785   2.755   0.288   2.939  0.0719  0.0903 -0.7202
29763SOL     OW92786   5.646   6.441   1.802 -0.0817 -0.7936 -0.2280
29763SOL    HW192787   5.648   6.425   1.896 -1.4686  0.7834  0.1016
29763SOL    HW292788   5.733   6.413   1.772  0.0836 -2.1370  1.3479
29764SOL     OW92789   3.193   7.107   3.333  0.3257  0.5434  0.5910
29764SOL    HW192790   3.184   7.203   3.335  1.1108  0.7588 -2.2410
29764SOL    HW292791   3.105   7.076   3.311  0.1884  0.6204  1.0087
29765SOL     OW92792   5.355   8.627   4.688  0.0156  0.2158 -0.3337
29765SOL    HW192793   5.388   8.562   4.750 -0.5377  0.5400  0.3139
29765SOL    HW292794   5.416   8.623   4.614 -0.1620 -1.2111 -0.4227
29766SOL     OW92795   9.629  10.126   5.369  0.1821  0.1296  0.1946
29766SOL    HW192796   9.675  10.168   5.297 -0.1864  0.5673  0.2086
29766SOL    HW292797   9.656  10.176   5.447  0.0231  0.1154  0.2600
29767SOL     OW92798   5.080   4.776   8.057  0.2305 -0.5950  0.0220
29767SOL    HW192799   5.079   4.866   8.022  0.8512 -0.1282  1.1669
29767SOL    HW292800   5.172   4.752   8.058  0.2335 -0.5915  1.3081
29768SOL     OW92801   8.162   9.794   1.188 -0.3697 -0.2388 -0.4681
29768SOL    HW192802   8.168   9.887   1.208 -0.9790 -0.2873 -0.0378
29768SOL    HW292803   8.176   9.751   1.272  1.9849 -0.6186 -0.9953
29769SOL     OW92804   8.015   7.847   5.657  0.1145 -0.2321  0.2132
29769SOL    HW192805   8.091   7.891   5.621 -0.1964  0.3872  0.3091
29769SOL    HW292806   8.009   7.764   5.608  1.2626 -0.6175  0.6971
29770SOL     OW92807   2.443   9.555   4.508 -0.1449 -0.6970  0.5164
29770SOL    HW192808   2.387   9.514   4.574  0.3636 -0.1713  1.2831
29770SOL    HW292809   2.476   9.634   4.550 -0.9983  0.4568 -0.8985
29771SOL     OW92810   1.791   0.945   1.584  0.2792 -0.4669  0.5369
29771SOL    HW192811   1.809   0.971   1.494  0.0137 -2.1924 -0.0513
29771SOL    HW292812   1.763   0.853   1.578 -1.2113 -0.1927  2.2106
29772SOL     OW92813   3.226   9.231  10.974  0.2051  0.4650  1.1503
29772SOL    HW192814   3.134   9.206  10.976  0.6596 -1.2596  1.8696
29772SOL    HW292815   3.238   9.281  11.055  0.6713 -2.4707  3.0537
29773SOL     OW92816   9.961   2.625   1.086 -0.7763  0.0953 -0.0516
29773SOL    HW192817   9.894   2.567   1.049  0.2870 -0.0549 -1.8600
29773SOL    HW292818   9.943   2.710   1.045 -0.0379  0.1119 -0.3488
29774SOL     OW92819   1.091   6.512   5.531  0.0934 -0.0142  0.2308
29774SOL    HW192820   1.127   6.501   5.444 -0.5150 -0.3221  0.0092
29774SOL    HW292821   1.006   6.467   5.528 -0.3979  0.8415  0.6669
29775SOL     OW92822   3.088   4.095   8.386 -0.0843  0.3074  0.7389
29775SOL    HW192823   3.087   4.189   8.403  1.8634  0.0294  2.7310
29775SOL    HW292824   3.122   4.087   8.297  1.5659  1.4565  1.2240
29776SOL     OW92825   3.390   4.445   5.326  0.1280  0.7401  0.9532
29776SOL    HW192826   3.317   4.386   5.308  0.7942 -0.2450  1.3759
29776SOL    HW292827   3.398   4.446   5.421 -0.0585  1.7571  0.9648
29777SOL     OW92828   8.432   7.177   9.405 -0.3734  0.2159  0.2490
29777SOL    HW192829   8.521   7.144   9.394 -0.9301 -0.9956 -0.9269
29777SOL    HW292830   8.442   7.272   9.413  1.0172  0.0818  0.2812
29778SOL     OW92831   9.101   6.442   2.902  0.1038  0.2128  0.2873
29778SOL    HW192832   9.174   6.501   2.919 -0.3866  0.6392  0.9439
29778SOL    HW292833   9.043   6.491   2.844  0.5759 -0.3221 -0.6698
29779SOL     OW92834   1.036   6.808   0.020  0.2519 -0.1512  0.3240
29779SOL    HW192835   1.100   6.874  -0.007  0.6190 -0.8111 -0.4412
29779SOL    HW292836   1.081   6.724   0.011 -1.1832 -0.7768 -1.7605
29780SOL     OW92837   1.682   9.427   8.926  0.0365  0.1411  0.2604
29780SOL    HW192838   1.750   9.480   8.883 -2.1954  2.1592 -1.0217
29780SOL    HW292839   1.683   9.457   9.017 -0.8023  2.0888 -0.3188
29781SOL     OW92840   1.289   6.641   4.276 -0.4994 -0.2355 -0.0382
29781SOL    HW192841   1.233   6.718   4.278 -0.8045 -0.4476 -0.4358
29781SOL    HW292842   1.311   6.629   4.183  0.9768  0.4042  0.1902
29782SOL     OW92843  10.311  10.911   3.995 -0.1326  0.1770  0.4157
29782SOL    HW192844  10.286  10.934   3.905  1.0826 -1.8929 -0.5184
29782SOL    HW292845  10.301  10.993   4.044 -2.6509  0.9318 -1.1434
29783SOL     OW92846   0.798   5.661   3.423 -0.5557  0.3669  0.4721
29783SOL    HW192847   0.760   5.747   3.407  1.9926  1.3891 -0.6489
29783SOL    HW292848   0.769   5.607   3.350 -0.1868  1.0123 -0.1557
29784SOL     OW92849   7.641   0.893   5.088 -0.0393  0.7961  0.5696
29784SOL    HW192850   7.695   0.965   5.121 -1.4013  2.4376 -0.5856
29784SOL    HW292851   7.560   0.935   5.060 -0.2211 -0.9228 -1.7945
29785SOL     OW92852   5.921   1.300   5.319  0.1229 -0.1507  0.1271
29785SOL    HW192853   5.989   1.257   5.267  0.9750 -0.5846  1.5180
29785SOL    HW292854   5.841   1.293   5.267  0.8267 -1.0404 -0.8548
29786SOL     OW92855   8.947   0.585   6.703  0.2425 -0.0876  0.7819
29786SOL    HW192856   9.005   0.655   6.733  0.0037  1.6590 -2.4617
29786SOL    HW292857   8.865   0.601   6.750  0.4754  1.2653  0.7706
29787SOL     OW92858   9.237  10.936   4.681 -0.3428 -0.1305 -0.6552
29787SOL    HW192859   9.327  10.956   4.655  0.7184 -1.8639  1.4037
29787SOL    HW292860   9.234  10.956   4.775 -1.7873 -1.1373 -0.4556
29788SOL     OW92861   4.394   8.064   3.080  0.0333  0.0833 -0.0978
29788SOL    HW192862   4.335   8.091   3.150 -0.3495 -0.3083 -0.2668
29788SOL    HW292863   4.337   8.045   3.005  0.3933 -0.0098 -0.3552
29789SOL     OW92864   2.893   8.360   2.368  0.3257 -0.1501  0.6035
29789SOL    HW192865   2.943   8.435   2.337  1.1448 -0.7277  0.4796
29789SOL    HW292866   2.871   8.311   2.288 -0.3722  0.0493  0.6631
29790SOL     OW92867   6.704   0.925   9.598  0.3690 -0.3162  0.3885
29790SOL    HW192868   6.676   0.918   9.689 -1.3615  0.1638 -0.0724
29790SOL    HW292869   6.711   0.834   9.568 -1.1152 -0.4730  0.4325
29791SOL     OW92870   2.060   6.992   2.111 -0.7462 -0.2292 -0.4834
29791SOL    HW192871   1.985   6.984   2.171  0.8949 -2.0543  1.4731
29791SOL    HW292872   2.130   7.028   2.165 -0.0102  0.9656 -2.1535
29792SOL     OW92873   9.694   7.952   7.487 -0.5659  0.3506 -0.3311
29792SOL    HW192874   9.734   7.947   7.400  0.2261 -2.2197  0.0884
29792SOL    HW292875   9.600   7.955   7.470 -0.3954  0.7635 -1.2689
29793SOL     OW92876   9.169   2.024   1.457  0.1006  0.1879  0.6343
29793SOL    HW192877   9.087   2.025   1.407  0.6660 -3.6838 -0.6459
29793SOL    HW292878   9.229   2.080   1.407 -0.4130 -0.7318 -1.0650
29794SOL     OW92879   1.666   6.005   7.589  0.2068 -0.7942 -0.3463
29794SOL    HW192880   1.604   5.949   7.635  0.3392 -1.1934 -0.6457
29794SOL    HW292881   1.682   6.078   7.649  0.4449 -1.3464  0.2727
29795SOL     OW92882   4.107  10.187   5.973  0.3672 -1.0416 -0.4557
29795SOL    HW192883   4.135  10.240   5.899  1.8168 -1.1115  0.0060
29795SOL    HW292884   4.014  10.172   5.958 -0.3577  2.3691 -0.1678
29796SOL     OW92885   6.206  10.993  10.573  0.3538  0.4538  0.8771
29796SOL    HW192886   6.236  10.980  10.662  0.7937  1.1466  0.8375
29796SOL    HW292887   6.285  11.013  10.523  0.2196 -0.6318  0.1806
29797SOL     OW92888   7.841   3.606   6.888 -0.2320  0.4083 -0.8228
29797SOL    HW192889   7.869   3.686   6.844 -1.0797  1.0104 -0.3097
29797SOL    HW292890   7.771   3.634   6.947  0.0516 -0.5649  0.0243
29798SOL     OW92891   4.180   5.489   3.321 -0.0166  0.7090  0.0327
29798SOL    HW192892   4.116   5.426   3.354 -0.2485  1.4278  0.9906
29798SOL    HW292893   4.154   5.504   3.230 -0.0939 -0.3852 -0.1418
29799SOL     OW92894   1.419   5.310   7.300  0.0129  0.2984 -0.0047
29799SOL    HW192895   1.446   5.260   7.377  1.7776 -0.3377 -0.9849
29799SOL    HW292896   1.353   5.255   7.258 -0.3195  0.2459  0.5749
29800SOL     OW92897   9.257   6.328   8.774  0.0453 -0.0157  0.2383
29800SOL    HW192898   9.307   6.271   8.833  1.6158  1.2235  0.1569
29800SOL    HW292899   9.311   6.337   8.696 -1.1140 -0.0263 -0.6045
29801SOL     OW92900   5.064   2.369  10.497  0.4424 -0.2500 -0.2321
29801SOL    HW192901   5.016   2.429  10.554 -3.0288 -1.7585 -1.3008
29801SOL    HW292902   5.109   2.309  10.558 -1.2296 -0.3879  0.9375
29802SOL     OW92903   9.194   3.506   5.781  0.1495 -0.7229 -0.2590
29802SOL    HW192904   9.274   3.557   5.789  0.0973 -0.8016  1.0632
29802SOL    HW292905   9.215   3.436   5.719  0.5803  0.2082 -1.1816
29803SOL     OW92906   8.273   0.909   6.324  0.3337  0.1434  0.4462
29803SOL    HW192907   8.368   0.895   6.326  0.2212 -0.6128  0.5542
29803SOL    HW292908   8.263   1.000   6.295  1.0884  0.2173  0.4008
29804SOL     OW92909   1.486   5.863   7.740 -0.4074  0.9318 -0.2387
29804SOL    HW192910   1.510   5.800   7.808 -0.1095  1.3305  0.0389
29804SOL    HW292911   1.397   5.841   7.716  0.1756 -0.5285 -1.2042
29805SOL     OW92912   8.017   7.905   7.567 -0.1904 -0.3562 -0.0032
29805SOL    HW192913   8.086   7.863   7.618 -0.4202 -1.6662 -0.7174
29805SOL    HW292914   8.042   7.997   7.563  0.0341 -0.2653  2.1350
29806SOL     OW92915   7.215   7.422   1.072  0.0957  0.2255 -0.4303
29806SOL    HW192916   7.154   7.463   1.132  0.7381  0.5109  0.0352
29806SOL    HW292917   7.301   7.451   1.101  0.4453 -0.0259 -1.1874
29807SOL     OW92918   8.671   3.688   6.082  0.2510 -0.4014  0.1005
29807SOL    HW192919   8.610   3.628   6.125  0.7334  0.2327  1.7714
29807SOL    HW292920   8.731   3.631   6.034 -0.7668 -1.1055 -0.3741
29808SOL     OW92921   7.196   6.304   6.733 -0.5040 -0.0737  0.8029
29808SOL    HW192922   7.262   6.295   6.665  0.4765  4.1049  0.9395
29808SOL    HW292923   7.114   6.315   6.686 -0.0389  1.3791  0.2849
29809SOL     OW92924   7.639   2.436   2.313  0.2109  0.4289  0.3494
29809SOL    HW192925   7.693   2.390   2.249 -0.5360  0.7647 -0.5580
29809SOL    HW292926   7.694   2.444   2.391  1.7581  1.4419 -0.7880
29810SOL     OW92927  10.812   4.321   7.432  0.0915  0.1874 -0.1557
29810SOL    HW192928  10.800   4.410   7.398 -0.6304 -0.5309 -1.9266
29810SOL    HW292929  10.738   4.272   7.396  0.2229 -1.0448  1.1645
29811SOL     OW92930  10.212   1.814   6.196  0.5552 -0.0081 -0.2408
29811SOL    HW192931  10.302   1.806   6.166  0.7889 -0.0418  0.4444
29811SOL    HW292932  10.200   1.908   6.211  0.0552  0.1552 -1.5675
29812SOL     OW92933   3.797   5.684   1.173  0.3073 -0.2206  0.2010
29812SOL    HW192934   3.890   5.690   1.192  0.3965  1.4304 -0.5598
29812SOL    HW292935   3.793   5.665   1.079 -0.1165 -0.5013  0.2731
29813SOL     OW92936   4.677   9.669   3.846 -0.3706  0.0750  0.6988
29813SOL    HW192937   4.747   9.718   3.802 -1.8202  0.1096 -1.7118
29813SOL    HW292938   4.624   9.737   3.888 -0.6010  0.3195  0.0278
29814SOL     OW92939   6.402   2.657   6.038  0.6058 -0.0673 -0.1409
29814SOL    HW192940   6.360   2.725   5.985 -0.9487  0.2715  1.4209
29814SOL    HW292941   6.339   2.640   6.109  1.3484 -2.4992  0.0188
29815SOL     OW92942   2.751   5.432   3.047 -0.2813  0.2646 -0.1668
29815SOL    HW192943   2.701   5.422   2.966  0.8057 -0.7335 -0.7432
29815SOL    HW292944   2.736   5.350   3.094 -1.1087  0.9355  0.7907
29816SOL     OW92945   6.068   0.539  10.729 -0.3144 -0.2790  0.3632
29816SOL    HW192946   6.031   0.573  10.811 -1.4396 -1.0995  0.2170
29816SOL    HW292947   6.087   0.617  10.678 -1.3959  0.1983  0.6553
29817SOL     OW92948   2.175   3.861   2.012 -0.0851 -0.5856 -0.5237
29817SOL    HW192949   2.233   3.855   2.088  1.1213 -0.8281 -1.4362
29817SOL    HW292950   2.126   3.942   2.026 -0.3169 -0.9382  0.7997
29818SOL     OW92951   3.457   8.873   2.653  0.2752 -0.2905  0.0518
29818SOL    HW192952   3.470   8.911   2.740 -0.5262 -1.1263  0.5535
29818SOL    HW292953   3.411   8.791   2.669  0.9405 -0.9220 -1.0976
29819SOL     OW92954   0.942   3.581   4.796 -0.4020 -0.4356 -0.3689
29819SOL    HW192955   0.943   3.659   4.741 -3.1718  0.3612  0.5255
29819SOL    HW292956   0.901   3.514   4.742 -1.3228 -0.2174  0.0493
29820SOL     OW92957   7.635  10.330   0.117 -0.1357  0.8153  0.4578
29820SOL    HW192958   7.686  10.363   0.191  1.2423 -0.4927  0.1319
29820SOL    HW292959   7.609  10.409   0.069  0.3676  1.5853  1.4118
29821SOL     OW92960   5.909   5.950  10.644 -0.0302  0.2584  0.6102
29821SOL    HW192961   5.820   5.964  10.612  0.8669  0.3853 -2.1633
29821SOL    HW292962   5.915   5.855  10.656 -0.7807  0.3369  1.7568
29822SOL     OW92963   0.095   1.142   1.033 -0.5357  0.0373  0.0966
29822SOL    HW192964   0.149   1.168   1.108 -1.6103 -0.2231  0.9962
29822SOL    HW292965   0.093   1.046   1.038 -0.8568  0.0332 -0.0951
29823SOL     OW92966  10.694   0.134   3.379  0.6539 -0.3162 -0.1838
29823SOL    HW192967  10.679   0.188   3.457  0.2551 -0.1903 -0.3455
29823SOL    HW292968  10.789   0.119   3.378  0.8127  0.6356 -0.3020
29824SOL     OW92969   9.102   6.289   2.377 -0.1245 -0.1382 -0.1967
29824SOL    HW192970   9.124   6.343   2.453 -1.5907  0.5998 -0.2508
29824SOL    HW292971   9.065   6.209   2.413 -0.2326 -0.0513 -0.1115
29825SOL     OW92972   3.106   8.716  10.854 -0.4238  0.1180 -0.0649
29825SOL    HW192973   3.152   8.634  10.837 -1.4567 -0.6979  0.9203
29825SOL    HW292974   3.163   8.764  10.914  0.1619  0.1074 -0.6094
29826SOL     OW92975   1.151   2.163   0.528 -0.3147 -0.0023 -0.7004
29826SOL    HW192976   1.063   2.198   0.543  0.0749  0.5245  0.4413
29826SOL    HW292977   1.178   2.128   0.613  1.3376  1.5918 -0.5024
29827SOL     OW92978   9.971   5.371   1.074  0.3956 -0.1604 -0.0424
29827SOL    HW192979  10.051   5.341   1.031  0.4273  0.2696 -0.2942
29827SOL    HW292980   9.998   5.386   1.165 -0.0611 -2.6484  0.5768
29828SOL     OW92981   6.826   7.234   2.645  0.1128 -0.1050 -0.5136
29828SOL    HW192982   6.822   7.177   2.568  1.0146  0.2681 -0.8643
29828SOL    HW292983   6.769   7.193   2.709  0.1184 -0.9652 -1.0395
29829SOL     OW92984   9.328   3.526   9.678 -0.0887  0.1047 -0.0905
29829SOL    HW192985   9.309   3.576   9.757 -0.1170  1.6958 -1.0808
29829SOL    HW292986   9.423   3.519   9.676 -0.0970 -0.1476  0.1867
29830SOL     OW92987   8.942   0.292   7.393 -0.0813 -0.8226  0.5365
29830SOL    HW192988   8.920   0.227   7.461 -3.8220 -0.8962 -0.5173
29830SOL    HW292989   8.918   0.250   7.311  1.1802  0.4908 -0.5469
29831SOL     OW92990   3.856   5.496   7.030  0.1571  0.4148  0.3917
29831SOL    HW192991   3.777   5.506   6.976  0.8384 -2.0889 -1.3018
29831SOL    HW292992   3.824   5.463   7.113 -0.6298 -1.0523 -0.4429
29832SOL     OW92993   6.355  10.512   6.327 -0.2141 -0.5535 -0.1808
29832SOL    HW192994   6.292  10.448   6.360 -1.9718  1.0212 -0.3291
29832SOL    HW292995   6.433  10.498   6.380 -0.3665 -3.0959 -0.5127
29833SOL     OW92996   5.406   2.430   1.435  0.0528  0.6915 -0.1205
29833SOL    HW192997   5.441   2.383   1.510 -0.2225  0.3843 -0.1808
29833SOL    HW292998   5.483   2.445   1.379  0.1421  0.2874 -0.1135
29834SOL     OW92999   3.689   4.590   7.297  0.1489 -0.0235  0.4884
29834SOL    HW193000   3.723   4.668   7.252  3.5676 -1.9046 -0.5461
29834SOL    HW293001   3.610   4.566   7.248  1.7043  0.1228 -2.2721
29835SOL     OW93002   7.842  10.822   5.536 -0.4802  0.2752  0.6750
29835SOL    HW193003   7.850  10.819   5.631  1.0959  1.4496  0.6221
29835SOL    HW293004   7.753  10.856   5.520 -0.9904 -0.5404  1.6835
29836SOL     OW93005   4.246   1.773   0.704  0.3922  0.2137  0.2925
29836SOL    HW193006   4.307   1.841   0.678 -1.0654  1.2784 -0.5108
29836SOL    HW293007   4.165   1.820   0.725 -0.7354 -1.2600 -0.5338
29837SOL     OW93008   0.551   2.708   3.868  0.3616  0.0899  0.0386
29837SOL    HW193009   0.528   2.628   3.916  1.0550  0.2774  0.6955
29837SOL    HW293010   0.467   2.743   3.840  0.0582 -1.0438 -0.5646
29838SOL     OW93011   6.809   4.946   2.862 -0.7793 -0.1205  0.5024
29838SOL    HW193012   6.849   4.884   2.801  1.8669  1.2834  0.6773
29838SOL    HW293013   6.824   4.908   2.948  0.6040  0.5864  0.5926
29839SOL     OW93014   5.452   5.381   0.160 -0.0752 -0.1568  0.4079
29839SOL    HW193015   5.463   5.459   0.214 -0.9443  0.0395  0.3165
29839SOL    HW293016   5.532   5.375   0.109 -0.2076  0.9727  0.0416
29840SOL     OW93017   9.384   9.761   6.564  0.0223 -0.3430 -0.1788
29840SOL    HW193018   9.448   9.775   6.633  1.3223 -1.3563 -1.1157
29840SOL    HW293019   9.306   9.809   6.593  0.9412  0.3068  1.3503
29841SOL     OW93020   4.970   1.032   1.460 -0.4490 -0.6449 -0.0987
29841SOL    HW193021   5.044   1.093   1.455  0.1455 -1.3547 -0.3359
29841SOL    HW293022   4.921   1.058   1.537 -0.0259 -0.0630 -0.0242
29842SOL     OW93023   5.967   7.896   2.093  0.1614  0.0224  0.3770
29842SOL    HW193024   6.024   7.953   2.043  0.7429 -0.3204  0.6431
29842SOL    HW293025   6.012   7.882   2.176 -0.3168 -0.2308  0.6028
29843SOL     OW93026   4.230   0.316   0.810  0.2925  0.8019  0.4810
29843SOL    HW193027   4.139   0.322   0.781  0.7362  1.3382 -0.8526
29843SOL    HW293028   4.235   0.374   0.885 -0.9485 -0.8137  1.9203
29844SOL     OW93029   0.453   4.286   8.256 -0.2456 -0.2534 -0.0154
29844SOL    HW193030   0.368   4.244   8.270 -0.1612 -0.2708  0.4817
29844SOL    HW293031   0.431   4.375   8.226 -0.5045  0.4336  2.0264
29845SOL     OW93032   2.805   1.990  10.645 -0.0182  0.4937  0.0370
29845SOL    HW193033   2.741   1.950  10.587  0.3599 -0.1550  0.0560
29845SOL    HW293034   2.788   2.084  10.639 -0.8137  0.3474 -0.1351
29846SOL     OW93035   1.989   8.664   9.072  0.4559 -0.1942  0.5362
29846SOL    HW193036   1.942   8.588   9.104  1.1071 -0.4982  0.7880
29846SOL    HW293037   1.985   8.657   8.977  1.7905 -1.3718  0.5316
29847SOL     OW93038   3.584  10.682   4.793 -0.2931  0.2386  0.1488
29847SOL    HW193039   3.545  10.607   4.747  0.1447 -0.0588  0.2516
29847SOL    HW293040   3.664  10.701   4.744  0.3695 -0.3163  0.9794
29848SOL     OW93041   6.343   3.119   5.337  0.2005  0.5410  0.0916
29848SOL    HW193042   6.367   3.057   5.405  2.8182  0.6340 -0.6357
29848SOL    HW293043   6.371   3.204   5.371 -1.4079  1.0437  0.2061
29849SOL     OW93044   2.700  10.562   1.290 -0.3500 -0.3553  0.5777
29849SOL    HW193045   2.724  10.469   1.298 -2.2545 -0.9270  0.2180
29849SOL    HW293046   2.648  10.579   1.369 -1.1397  0.0110 -0.0067
29850SOL     OW93047   1.486  10.094   7.194 -0.1181  0.3002  0.6703
29850SOL    HW193048   1.411  10.145   7.225 -0.7141 -0.7681  1.0488
29850SOL    HW293049   1.562  10.143   7.224 -0.6738  0.5285  1.7709
29851SOL     OW93050   8.759   3.665   6.462  0.2183 -0.2323 -0.2512
29851SOL    HW193051   8.713   3.722   6.525 -1.8942 -0.6632 -1.2997
29851SOL    HW293052   8.812   3.725   6.409 -0.2043  0.4814  0.1180
29852SOL     OW93053   0.563   2.111   6.955  0.5810 -0.5879  0.5887
29852SOL    HW193054   0.534   2.050   7.023  0.2796 -2.6859 -1.2891
29852SOL    HW293055   0.654   2.086   6.937  1.6060  1.7767  2.0511
29853SOL     OW93056   0.439   4.461   3.492  0.0288 -0.1339  0.1140
29853SOL    HW193057   0.366   4.432   3.546  0.7369 -0.4568  0.9206
29853SOL    HW293058   0.418   4.551   3.467 -0.7146 -0.2846  0.1983
29854SOL     OW93059   7.796   3.395   3.881 -0.1100 -0.1636  0.4018
29854SOL    HW193060   7.734   3.380   3.952 -0.7206  0.3478 -0.0043
29854SOL    HW293061   7.876   3.427   3.924 -0.3137 -0.3056  0.8889
29855SOL     OW93062  10.458   3.303   9.626 -0.5224  0.2440 -0.8352
29855SOL    HW193063  10.528   3.250   9.665 -0.3107  1.4801  0.5716
29855SOL    HW293064  10.404   3.240   9.579 -0.1225 -1.1916  0.5207
29856SOL     OW93065   0.124   4.411   6.559  0.0849  0.4833  0.2089
29856SOL    HW193066   0.146   4.492   6.606  0.6184  0.0198  0.7865
29856SOL    HW293067   0.029   4.412   6.553  0.1338  1.6226 -0.6543
29857SOL     OW93068   1.889   9.701   6.910 -0.4208  0.6337 -0.2555
29857SOL    HW193069   1.912   9.622   6.862  2.4784 -0.8552  3.1470
29857SOL    HW293070   1.801   9.682   6.945 -0.3976 -0.4329 -0.7237
29858SOL     OW93071   1.869   0.663   1.151 -0.3900  0.1397  0.0080
29858SOL    HW193072   1.812   0.741   1.154 -1.4553 -0.5347  4.2505
29858SOL    HW293073   1.950   0.691   1.194 -0.6961 -0.9473  1.3578
29859SOL     OW93074   2.350   4.691   6.040  0.0903 -0.0149  0.4428
29859SOL    HW193075   2.416   4.744   6.085  0.0659  0.1401  0.2952
29859SOL    HW293076   2.393   4.607   6.024  0.8647  0.6726 -1.2544
29860SOL     OW93077  10.240   4.901   0.114  0.5202  0.8859  0.1826
29860SOL    HW193078  10.254   4.815   0.074  0.9831  1.5667 -1.1837
29860SOL    HW293079  10.156   4.894   0.158  1.2019 -0.6931  1.3271
29861SOL     OW93080   8.856  10.942   3.965  0.6251 -0.8741 -0.2939
29861SOL    HW193081   8.875  10.860   3.919 -0.4355 -1.1042 -0.3406
29861SOL    HW293082   8.782  10.980   3.917  0.5506 -0.3127  0.2472
29862SOL     OW93083   7.447   9.297   8.951  0.0956  0.3964 -0.1163
29862SOL    HW193084   7.448   9.341   8.866  1.1188  0.3525 -0.1448
29862SOL    HW293085   7.517   9.233   8.944 -1.1749 -1.0445  0.0385
29863SOL     OW93086   5.376  10.597   3.314 -0.3232 -0.1660  0.1549
29863SOL    HW193087   5.413  10.510   3.299  0.5664  0.0540  0.9634
29863SOL    HW293088   5.436  10.657   3.269 -0.8012  0.0516 -0.1997
29864SOL     OW93089   6.672   7.312   8.398  0.0225 -0.5886  0.3093
29864SOL    HW193090   6.621   7.235   8.423 -1.9749  0.8423  0.9062
29864SOL    HW293091   6.637   7.383   8.452  1.4972  0.8446 -0.5120
29865SOL     OW93092   1.931   2.616   0.997  0.9494 -0.0828  0.2829
29865SOL    HW193093   2.011   2.576   1.032  0.6966 -1.5915 -0.7740
29865SOL    HW293094   1.957   2.651   0.912  0.1908 -1.9093 -0.7501
29866SOL     OW93095   3.122   2.753   7.412 -0.3738  0.2663 -0.2694
29866SOL    HW193096   3.082   2.792   7.490  0.1529  0.3906 -0.0602
29866SOL    HW293097   3.176   2.823   7.375 -1.0311  0.3797 -1.0458
29867SOL     OW93098   7.336   1.130   8.138 -0.1305  0.1637  0.5307
29867SOL    HW193099   7.406   1.102   8.197 -0.1700 -0.3901  0.3221
29867SOL    HW293100   7.354   1.083   8.057 -0.4700  0.3925  0.3253
29868SOL     OW93101   7.914   1.709   9.638  0.6576 -0.1429  0.1458
29868SOL    HW193102   7.869   1.734   9.557  1.5303 -0.9842 -0.6365
29868SOL    HW293103   7.889   1.618   9.652 -0.0480  0.2057  1.2353
29869SOL     OW93104   1.370   9.645   0.985 -0.2818  0.9443  0.1946
29869SOL    HW193105   1.329   9.601   0.911 -1.3893  1.6851  0.3407
29869SOL    HW293106   1.299   9.694   1.026  0.1987  0.2280  2.0006
29870SOL     OW93107   8.369   4.154   7.117 -0.3745  0.1561 -0.1646
29870SOL    HW193108   8.420   4.120   7.044  0.3697  1.1147 -0.1108
29870SOL    HW293109   8.413   4.120   7.195 -1.0390 -0.6868 -0.1444
29871SOL     OW93110   5.124   8.028  10.403  0.1401  0.0382 -0.4567
29871SOL    HW193111   5.130   8.069  10.316  0.2107  0.0406 -0.4506
29871SOL    HW293112   5.209   7.987  10.416  0.2633  0.3648 -0.2246
29872SOL     OW93113   0.022   7.556   7.655 -0.6403 -0.2860 -0.0211
29872SOL    HW193114   0.066   7.475   7.679  0.5179  0.4550  0.4222
29872SOL    HW293115  -0.059   7.527   7.613 -1.0213 -1.6502  1.5545
29873SOL     OW93116   4.752   0.751   0.848 -0.3262  0.0754  0.2336
29873SOL    HW193117   4.688   0.683   0.825 -1.7992  1.6370 -0.5071
29873SOL    HW293118   4.700   0.820   0.889  1.1893  0.5963  1.3538
29874SOL     OW93119   4.538   8.330   5.190 -0.5683  0.1964 -0.9373
29874SOL    HW193120   4.550   8.242   5.225  2.1270  0.7982 -0.1481
29874SOL    HW293121   4.550   8.388   5.266 -0.4154  1.3138 -1.7874
29875SOL     OW93122   4.745  10.071   3.810  0.2407 -0.6277 -0.0892
29875SOL    HW193123   4.830  10.100   3.841 -0.2058 -0.7660  1.3494
29875SOL    HW293124   4.682  10.115   3.867 -0.7567  0.5204 -1.9445
29876SOL     OW93125  10.529   9.298   1.172 -0.0231 -0.8417 -0.0288
29876SOL    HW193126  10.539   9.240   1.248  0.7391  0.1802  0.6615
29876SOL    HW293127  10.597   9.364   1.182 -1.6135  0.8964 -0.1584
29877SOL     OW93128   8.488   6.606   8.518  0.1332  0.0131 -0.6780
29877SOL    HW193129   8.514   6.532   8.572  1.4068 -0.2231 -1.5571
29877SOL    HW293130   8.540   6.680   8.551  0.7171 -0.0723 -1.3666
29878SOL     OW93131   8.508   4.913   6.205  0.5091 -0.0754  0.3077
29878SOL    HW193132   8.419   4.949   6.205 -0.2375 -1.7280 -1.2883
29878SOL    HW293133   8.556   4.965   6.141  0.2904 -0.0235  0.1860
29879SOL     OW93134   3.967  10.309   5.663 -0.4339 -0.3586 -0.1664
29879SOL    HW193135   3.939  10.245   5.729  0.4108  0.8897  1.4871
29879SOL    HW293136   3.968  10.260   5.581  1.4507 -2.8583  1.2142
29880SOL     OW93137   2.555   9.599   0.505  0.2096  0.5874 -0.3615
29880SOL    HW193138   2.476   9.583   0.454  0.7455  3.5372 -2.4019
29880SOL    HW293139   2.530   9.667   0.568  0.5383 -0.2503  0.7056
29881SOL     OW93140   3.657   8.757   2.068 -0.3989  0.2387  0.6269
29881SOL    HW193141   3.607   8.785   1.991  1.1289  0.2994 -0.3678
29881SOL    HW293142   3.611   8.679   2.099  0.8595 -1.9120 -2.4280
29882SOL     OW93143  10.489   2.498   0.605 -0.6243 -0.3633  0.3270
29882SOL    HW193144  10.564   2.556   0.593 -0.6456 -0.6792 -1.5776
29882SOL    HW293145  10.517   2.436   0.672  0.1201  0.6179  0.9537
29883SOL     OW93146   4.131   7.395   1.411  0.4846 -0.5687 -0.9400
29883SOL    HW193147   4.118   7.465   1.476 -2.7562 -1.5551 -0.3380
29883SOL    HW293148   4.122   7.440   1.327 -3.3531 -0.2721 -0.5854
29884SOL     OW93149   9.122   2.299   1.126  0.1517  0.0071 -0.6665
29884SOL    HW193150   9.144   2.388   1.155  1.9926 -0.2357 -1.1834
29884SOL    HW293151   9.039   2.308   1.080  1.1444  1.8135 -2.2532
29885SOL     OW93152   1.994  10.491   3.690 -0.0532 -0.0232 -0.1235
29885SOL    HW193153   2.006  10.577   3.648 -2.5078  0.7160  0.5490
29885SOL    HW293154   2.026  10.503   3.779 -0.4203  0.2082 -0.0218
29886SOL     OW93155   2.429  10.169   6.204  0.0715  0.3752 -0.2512
29886SOL    HW193156   2.402  10.220   6.280 -0.9334  1.7139 -1.4737
29886SOL    HW293157   2.347  10.140   6.163  0.5788  0.1619 -1.1564
29887SOL     OW93158   3.077   9.687   7.274 -0.1525  0.0349 -0.2331
29887SOL    HW193159   3.024   9.660   7.199  0.7187 -1.1647 -0.4504
29887SOL    HW293160   3.025   9.663   7.350 -0.2559 -0.4328 -0.4475
29888SOL     OW93161   9.550  10.323   9.828  0.9820 -0.2875 -0.5050
29888SOL    HW193162   9.458  10.334   9.804  1.1254 -0.0377 -0.9477
29888SOL    HW293163   9.597  10.381   9.769  1.3011  0.7743  0.7363
29889SOL     OW93164   0.561   1.490   6.422  0.0037 -0.2073 -0.3840
29889SOL    HW193165   0.571   1.407   6.470 -0.0994 -0.8785 -1.4785
29889SOL    HW293166   0.472   1.518   6.443  0.0999 -0.2764  0.1373
29890SOL     OW93167   5.940   2.672   2.589  0.5489 -0.1555  0.0714
29890SOL    HW193168   5.939   2.723   2.670 -0.6338 -0.1456  0.0680
29890SOL    HW293169   5.961   2.735   2.520 -0.7422  0.3173  0.0854
29891SOL     OW93170   6.766   9.629   5.935  0.0436  0.0249  0.7561
29891SOL    HW193171   6.770   9.704   5.994  0.9300 -0.0633  0.8124
29891SOL    HW293172   6.694   9.650   5.875  1.2316  1.6127 -0.1819
29892SOL     OW93173   6.849   7.107   8.344  0.4464  0.1004 -0.0958
29892SOL    HW193174   6.869   7.110   8.438 -1.5988  0.0744  0.3923
29892SOL    HW293175   6.807   7.191   8.326  0.4929 -0.0478 -0.9134
29893SOL     OW93176   5.380   4.080   7.637  0.2194 -0.4309 -0.3768
29893SOL    HW193177   5.417   4.167   7.621  1.1553 -0.6048  0.7138
29893SOL    HW293178   5.339   4.055   7.554 -0.5967  1.2942 -0.5194
29894SOL     OW93179   4.488   5.978   9.628  0.2629  0.3259 -0.1377
29894SOL    HW193180   4.468   6.026   9.548  1.5935  1.3893  0.1279
29894SOL    HW293181   4.434   6.019   9.695  1.1023  1.2382  0.0087
29895SOL     OW93182   9.356   1.241   0.342 -0.2944  0.4732 -0.1409
29895SOL    HW193183   9.276   1.284   0.311 -0.4191 -0.2185 -0.8191
29895SOL    HW293184   9.331   1.149   0.355  0.2877  0.3347  0.0318
29896SOL     OW93185   9.969   0.326  10.488  0.4646 -0.1968  0.0222
29896SOL    HW193186  10.041   0.290  10.539 -0.3678  0.2151  1.5609
29896SOL    HW293187  10.001   0.411  10.457  1.5084 -1.0829 -1.4581
29897SOL     OW93188   0.972   5.527   4.796 -0.2083 -0.2429  0.8925
29897SOL    HW193189   1.034   5.522   4.869  0.9850 -0.6432 -0.1097
29897SOL    HW293190   0.980   5.618   4.765  0.5476 -0.5173  0.2324
29898SOL     OW93191   1.068  10.418   4.584 -0.7765  0.4441 -0.3396
29898SOL    HW193192   1.091  10.451   4.497  0.4199  0.4900 -0.0148
29898SOL    HW293193   1.008  10.345   4.566 -0.9028  0.7350 -1.1778
29899SOL     OW93194   6.710  10.891   0.236 -0.4692  0.3904 -0.3163
29899SOL    HW193195   6.637  10.937   0.279  0.6231  1.3354  0.5771
29899SOL    HW293196   6.767  10.961   0.204  0.5203 -0.3312 -0.1683
29900SOL     OW93197   9.277   3.810   0.703  0.5519 -0.6548 -0.1176
29900SOL    HW193198   9.209   3.743   0.699 -0.3759  0.2577  0.1501
29900SOL    HW293199   9.266   3.861   0.623  1.2356 -0.7829 -0.3029
29901SOL     OW93200   1.528   0.714   4.777  0.5669  0.6375 -0.1002
29901SOL    HW193201   1.535   0.803   4.810  1.0327  0.4738  0.2595
29901SOL    HW293202   1.610   0.672   4.805  2.3437  1.2451 -3.7852
29902SOL     OW93203   5.852  10.461   3.596 -0.2631 -0.3041 -0.2247
29902SOL    HW193204   5.798  10.539   3.580  0.1401  0.0830  0.2813
29902SOL    HW293205   5.794  10.402   3.645  0.0447  0.4938  1.1521
29903SOL     OW93206   5.573  10.990   1.478 -0.1644  0.4106 -0.1882
29903SOL    HW193207   5.582  10.895   1.468 -0.9809  0.0791  1.6614
29903SOL    HW293208   5.661  11.024   1.465  0.4858 -0.8146  0.8059
29904SOL     OW93209  10.247   1.902   6.772  0.1992  0.3812  0.1437
29904SOL    HW193210  10.170   1.905   6.715 -0.3857 -0.8432  0.8400
29904SOL    HW293211  10.314   1.951   6.724 -0.6659  0.4943 -0.9910
29905SOL     OW93212   5.723   1.824   3.410  0.0878 -0.2125  0.2827
29905SOL    HW193213   5.737   1.778   3.492 -0.0863 -0.8686 -0.0504
29905SOL    HW293214   5.735   1.757   3.342  1.0048  0.4869 -0.2667
29906SOL     OW93215   7.245   0.250   0.880  0.2989  0.7366  0.3957
29906SOL    HW193216   7.284   0.308   0.816 -0.7899  0.7908 -0.2500
29906SOL    HW293217   7.194   0.308   0.937  1.4822  0.7245  1.4976
29907SOL     OW93218   6.046   1.228   4.136  0.1025  0.1998 -0.5539
29907SOL    HW193219   6.016   1.289   4.069 -0.5375 -0.4102 -0.8294
29907SOL    HW293220   6.112   1.277   4.185  0.6559  0.6242 -1.6843
29908SOL     OW93221   0.817   6.629   8.573 -0.3297  0.5001  0.1521
29908SOL    HW193222   0.851   6.540   8.570 -1.7987 -0.1000  0.2246
29908SOL    HW293223   0.752   6.631   8.502 -1.0822  1.1688  0.8483
29909SOL     OW93224  10.083   5.511   2.240 -0.0004 -0.3536  0.1293
29909SOL    HW193225  10.082   5.475   2.151  1.2475 -1.2677  0.4629
29909SOL    HW293226   9.990   5.517   2.264 -0.4251  0.8466 -1.5692
29910SOL     OW93227   7.157   6.259  10.647  0.0227  0.1614  0.4884
29910SOL    HW193228   7.176   6.197  10.577 -1.8662  0.8073 -0.6808
29910SOL    HW293229   7.091   6.215  10.701  0.0350  0.4414  0.7335
29911SOL     OW93230   5.519   0.149   5.143  0.0838  0.1552 -0.1663
29911SOL    HW193231   5.504   0.220   5.080 -1.8488 -0.6743 -0.7338
29911SOL    HW293232   5.549   0.076   5.090 -0.7288 -0.2919 -0.0370
29912SOL     OW93233   3.692  10.638   1.468 -0.0542  0.4842 -0.1819
29912SOL    HW193234   3.616  10.604   1.515  0.7512  0.0970  0.9065
29912SOL    HW293235   3.698  10.583   1.390 -0.1147 -0.4021  0.4128
29913SOL     OW93236   0.659   5.679   6.801  0.0067 -0.0619  0.4731
29913SOL    HW193237   0.741   5.685   6.753 -0.6052  0.8635 -0.5078
29913SOL    HW293238   0.633   5.587   6.794  0.0497  0.0152 -0.7735
29914SOL     OW93239   5.859  10.603   7.172  0.1664  0.0089  0.9036
29914SOL    HW193240   5.899  10.520   7.146  0.1036 -0.3445  1.8668
29914SOL    HW293241   5.933  10.659   7.196  0.2799  0.6390 -0.8062
29915SOL     OW93242   3.133   3.560   1.525 -0.1097  0.5920 -0.5640
29915SOL    HW193243   3.049   3.513   1.529  0.7816 -1.0821 -0.7867
29915SOL    HW293244   3.130   3.619   1.600 -1.3170  0.2392 -0.3049
29916SOL     OW93245   3.506   1.875   7.075  0.0638  0.1248 -0.2588
29916SOL    HW193246   3.581   1.920   7.036  1.7819 -1.0913  1.4840
29916SOL    HW293247   3.522   1.782   7.058 -1.9046 -0.0957 -1.2112
29917SOL     OW93248  10.196   1.697  10.422  0.0570  0.6604  1.2722
29917SOL    HW193249  10.274   1.748  10.444 -0.0882  0.2254  2.9227
29917SOL    HW293250  10.221   1.606  10.438  0.0379  0.2335 -0.8311
29918SOL     OW93251   2.273   5.294   4.096  0.5753  0.3052 -0.1298
29918SOL    HW193252   2.178   5.294   4.089  0.5017 -1.8187  0.0731
29918SOL    HW293253   2.300   5.210   4.059  2.1052 -0.5007  2.5053
29919SOL     OW93254   7.257   4.510   8.952  0.0473  0.0330  0.2496
29919SOL    HW193255   7.174   4.514   8.998  0.3242 -2.3466  1.0813
29919SOL    HW293256   7.316   4.463   9.012  1.1252 -0.9778 -1.4990
29920SOL     OW93257   9.766   8.754   2.406  0.2900 -0.3490  0.0371
29920SOL    HW193258   9.761   8.672   2.455  0.4081 -1.4014 -1.6154
29920SOL    HW293259   9.693   8.806   2.439  0.0297 -1.2367  0.9189
29921SOL     OW93260   6.951   8.718   0.758  0.2188  0.3299  0.2233
29921SOL    HW193261   6.887   8.786   0.782 -1.0543 -1.0644  0.9481
29921SOL    HW293262   6.928   8.695   0.668 -0.1673  0.0008  0.4009
29922SOL     OW93263   4.983   9.165   8.024 -0.1385  0.1125 -0.3202
29922SOL    HW193264   5.020   9.191   8.108 -0.7632 -0.3968  0.1190
29922SOL    HW293265   4.900   9.122   8.046 -0.6822  0.6514 -1.2371
29923SOL     OW93266   7.702   8.081   2.484  0.8410 -0.4195 -0.2355
29923SOL    HW193267   7.788   8.055   2.518  0.1780 -0.4056  1.5660
29923SOL    HW293268   7.640   8.035   2.540 -0.3712 -1.5713 -2.4189
29924SOL     OW93269   7.543   2.488   7.250  0.3340  0.2301  0.4325
29924SOL    HW193270   7.590   2.560   7.207 -3.1101  1.6619 -1.3119
29924SOL    HW293271   7.502   2.528   7.326 -2.1405  0.4435 -0.9013
29925SOL     OW93272   2.229   3.505   6.873 -0.1954 -0.1164  0.4653
29925SOL    HW193273   2.163   3.536   6.935  0.3578  0.6487  0.6930
29925SOL    HW293274   2.301   3.475   6.928  1.3834  2.9236  0.2747
29926SOL     OW93275   0.445   4.782  10.483  0.2378  0.3332  0.5251
29926SOL    HW193276   0.491   4.848  10.431 -0.8812 -1.1965 -2.6427
29926SOL    HW293277   0.355   4.814  10.489  0.1262  0.0083  0.6200
29927SOL     OW93278   9.952   2.935   3.412 -0.3513  0.0121  0.0712
29927SOL    HW193279   9.862   2.906   3.400  0.4899 -2.9135  0.0060
29927SOL    HW293280   9.947   3.002   3.481 -2.6392  0.7071 -0.7017
29928SOL     OW93281   3.615  10.287   3.666 -0.1439  0.2756 -0.6473
29928SOL    HW193282   3.678  10.226   3.629  0.4243  0.3953  0.1160
29928SOL    HW293283   3.562  10.315   3.591  0.4762 -0.0956 -1.2297
29929SOL     OW93284  10.069   9.282   1.037 -0.3421  0.0857  0.3264
29929SOL    HW193285  10.128   9.224   0.989 -0.8671 -0.3970  0.2649
29929SOL    HW293286  10.020   9.328   0.969 -0.5082  0.0002  0.3881
29930SOL     OW93287   4.895  10.124   5.222 -0.3969  0.5943  0.0255
29930SOL    HW193288   4.899  10.054   5.288 -0.7522  0.8240  0.2916
29930SOL    HW293289   4.986  10.133   5.192 -0.1501  0.8084  0.8142
29931SOL     OW93290   1.023   2.185   1.993  0.9708  0.0487 -0.4856
29931SOL    HW193291   0.962   2.189   2.068  2.6566  1.5760  0.9003
29931SOL    HW293292   1.013   2.270   1.950  0.8192 -0.4059 -1.3686
29932SOL     OW93293   5.289   3.740  10.545  0.1244 -0.1896  0.1147
29932SOL    HW193294   5.366   3.767  10.595  0.4613  2.0252 -1.4628
29932SOL    HW293295   5.324   3.709  10.462 -0.5774 -1.5977  0.3079
29933SOL     OW93296   8.672   6.166   7.729  0.6822 -0.1229 -0.4636
29933SOL    HW193297   8.759   6.205   7.744  0.4524  0.9531 -1.6844
29933SOL    HW293298   8.619   6.197   7.802  1.2747 -0.6166  0.1824
29934SOL     OW93299   5.926   3.054   2.818  0.4802 -0.0234 -0.0012
29934SOL    HW193300   5.849   3.091   2.861  0.9619  1.7089 -0.5227
29934SOL    HW293301   5.903   3.050   2.725  1.0406  0.6172 -0.1772
29935SOL     OW93302   5.408   8.335   8.328 -0.3451 -0.1918 -0.0761
29935SOL    HW193303   5.363   8.416   8.304 -0.0375 -0.0045 -0.0335
29935SOL    HW293304   5.498   8.349   8.299 -0.3280 -0.5844 -0.2111
29936SOL     OW93305   0.340   9.869   3.225 -0.0033  0.3034 -0.1123
29936SOL    HW193306   0.284   9.873   3.147 -1.0427  0.9945  0.6304
29936SOL    HW293307   0.326   9.954   3.268 -0.6424 -0.6285  1.6094
29937SOL     OW93308   4.362   6.965  10.852  0.1241  0.3793 -0.1470
29937SOL    HW193309   4.382   6.872  10.861  0.9414  0.3527 -1.9106
29937SOL    HW293310   4.347   6.995  10.942 -0.7253 -1.5499  0.4053
29938SOL     OW93311   0.455   3.091   1.240 -0.5003 -0.0079 -0.2207
29938SOL    HW193312   0.404   3.127   1.314 -0.2073 -1.3535  0.6710
29938SOL    HW293313   0.545   3.121   1.257 -0.7135  1.1782 -1.0317
29939SOL     OW93314   6.547   3.054   7.302  0.2617 -0.2463  0.1758
29939SOL    HW193315   6.500   2.978   7.265 -1.6635  1.1143 -0.3251
29939SOL    HW293316   6.532   3.124   7.239  0.0900  1.1409  1.6961
29940SOL     OW93317   5.824   1.233   9.922 -0.4721  0.6125  0.0981
29940SOL    HW193318   5.862   1.152   9.956 -1.3655  0.4107  0.6433
29940SOL    HW293319   5.799   1.282  10.000  0.8526  1.8281 -0.1981
29941SOL     OW93320  10.350   2.149   1.348  0.2105  0.2505 -0.0685
29941SOL    HW193321  10.396   2.204   1.284 -1.8290  1.9641 -0.2105
29941SOL    HW293322  10.311   2.212   1.408 -0.7697 -1.1734  0.8322
29942SOL     OW93323   8.762   2.046   2.886 -0.6656  0.0691  0.5528
29942SOL    HW193324   8.821   1.984   2.845 -1.9912 -1.1549  0.4299
29942SOL    HW293325   8.816   2.091   2.951  0.7625  0.1043 -0.6143
29943SOL     OW93326   9.232   8.554   2.160  0.4134  0.4219  0.2068
29943SOL    HW193327   9.289   8.534   2.086 -0.1165  1.9365 -0.6660
29943SOL    HW293328   9.286   8.539   2.237  1.5759  0.5666 -0.5547
29944SOL     OW93329   0.732   4.268   7.049 -0.5643 -0.6466  0.2879
29944SOL    HW193330   0.814   4.317   7.054 -0.2871 -1.2081  2.0658
29944SOL    HW293331   0.708   4.271   6.957  0.2839  1.4365  0.0678
29945SOL     OW93332   6.965   2.679   1.613 -0.3170  0.0974 -0.3604
29945SOL    HW193333   7.009   2.595   1.626 -1.3790 -0.3475  0.4396
29945SOL    HW293334   6.904   2.664   1.541  0.6718  0.6715 -1.3575
29946SOL     OW93335   2.093   4.663  10.060  0.1165 -0.8923 -0.5841
29946SOL    HW193336   2.109   4.727   9.991  0.1665 -0.2103  0.0577
29946SOL    HW293337   2.168   4.604  10.056  0.9011  0.0491 -0.1084
29947SOL     OW93338   1.747   8.882   0.085  0.0384 -0.4323  0.2268
29947SOL    HW193339   1.666   8.846   0.051 -0.7065  1.3368  0.0346
29947SOL    HW293340   1.755   8.968   0.044  0.5351  0.6146  2.3377
29948SOL     OW93341   2.335   4.224   2.214  0.2326  0.1488  0.2889
29948SOL    HW193342   2.297   4.188   2.134  1.9222 -2.9023  0.7299
29948SOL    HW293343   2.275   4.196   2.283  0.5090 -0.0949  0.4297
29949SOL     OW93344   3.996   0.220   4.360 -0.0462  0.3481  0.1395
29949SOL    HW193345   4.016   0.312   4.347 -1.8026  0.6312 -0.8566
29949SOL    HW293346   3.914   0.220   4.409  0.3499 -0.7013  0.8330
29950SOL     OW93347   1.309   7.280   9.433  0.4685  0.1769 -0.1754
29950SOL    HW193348   1.224   7.310   9.403  0.1508  0.2011  0.7326
29950SOL    HW293349   1.323   7.197   9.387  1.1370  1.4144 -2.3368
29951SOL     OW93350   3.677   0.062  10.086  0.2015  0.0414  0.6993
29951SOL    HW193351   3.697   0.089  10.175  0.9705 -0.9825  0.8519
29951SOL    HW293352   3.760   0.032  10.050  0.2835  2.0014 -0.9588
29952SOL     OW93353   9.853   0.888   4.080  0.5326 -0.4576  0.4230
29952SOL    HW193354   9.913   0.866   4.152  0.2694  1.3364  1.2734
29952SOL    HW293355   9.794   0.813   4.073 -0.7977  0.1113  3.6126
29953SOL     OW93356   5.897   2.876   1.140 -0.1816  0.9089 -0.3638
29953SOL    HW193357   5.961   2.940   1.172 -0.6742  1.2997 -0.1643
29953SOL    HW293358   5.930   2.792   1.172 -0.2872  1.2125  0.5689
29954SOL     OW93359   9.605   0.785   0.547  0.3015 -0.3689  0.4535
29954SOL    HW193360   9.544   0.752   0.481  1.1933 -0.1411 -0.5122
29954SOL    HW293361   9.564   0.865   0.580  0.4252  0.1910 -0.7303
29955SOL     OW93362   9.003   5.595   7.607 -1.0971 -0.8128  0.2009
29955SOL    HW193363   9.032   5.533   7.540  0.2622 -0.6900  0.6465
29955SOL    HW293364   8.958   5.540   7.672  0.7641 -1.4899  0.9773
29956SOL     OW93365   5.905   4.445   5.353  0.0907 -0.4369  0.3899
29956SOL    HW193366   5.960   4.370   5.335  0.5625 -0.3081  1.2337
29956SOL    HW293367   5.964   4.520   5.347 -0.1888 -0.2144  0.3924
29957SOL     OW93368   5.794   4.307   9.557 -0.3637  0.2280 -0.0432
29957SOL    HW193369   5.823   4.229   9.604 -0.6970  1.1361  1.7790
29957SOL    HW293370   5.872   4.339   9.513  0.0659 -0.4440  0.2105
29958SOL     OW93371   7.222   9.456  10.815 -0.0935 -0.1162  0.2623
29958SOL    HW193372   7.259   9.502  10.740 -0.4857 -1.6650 -0.9301
29958SOL    HW293373   7.297   9.412  10.855  0.0656  0.4688  0.6250
29959SOL     OW93374   6.867   7.100   6.902  0.0316  0.4168  0.1187
29959SOL    HW193375   6.918   7.086   6.822  0.3532 -2.8387  0.7852
29959SOL    HW293376   6.932   7.112   6.971 -0.2428  1.9437  0.1553
29960SOL     OW93377   3.636   6.730   2.520  0.5104 -0.2089  0.1995
29960SOL    HW193378   3.591   6.753   2.601  0.7797  1.3815 -0.0646
29960SOL    HW293379   3.603   6.643   2.498 -0.5526 -0.1136  1.3183
29961SOL     OW93380   9.061   2.749   3.822  0.8793 -0.5146  0.5094
29961SOL    HW193381   9.114   2.828   3.834  0.1520 -0.1258  1.3198
29961SOL    HW293382   9.001   2.750   3.896 -0.8258 -0.5061 -0.8334
29962SOL     OW93383   3.686   8.484  10.189 -0.1834  0.3008 -0.5972
29962SOL    HW193384   3.734   8.436  10.122 -1.6737  0.3577 -1.7567
29962SOL    HW293385   3.599   8.498  10.151  0.0177  3.5660 -0.1901
29963SOL     OW93386   9.595   1.283   3.385  0.0268 -0.0186 -0.5352
29963SOL    HW193387   9.681   1.250   3.407  0.2789  0.6545 -0.4772
29963SOL    HW293388   9.608   1.335   3.306 -0.4852 -0.6328 -1.0387
29964SOL     OW93389   6.771   1.205   2.356 -0.2012 -0.4032 -0.3855
29964SOL    HW193390   6.714   1.271   2.315  2.8069  3.0990  0.5131
29964SOL    HW293391   6.772   1.229   2.448  2.7861 -0.0725 -0.3977
29965SOL     OW93392   9.321   2.118   3.119 -0.2329 -0.3583 -0.2708
29965SOL    HW193393   9.393   2.101   3.059  0.1353  1.2953 -0.3434
29965SOL    HW293394   9.319   2.041   3.176  1.4858 -0.5183 -0.3707
29966SOL     OW93395   5.841   7.343   4.398  0.2796 -0.3735  0.3028
29966SOL    HW193396   5.888   7.267   4.365  1.0815 -0.3494  1.3179
29966SOL    HW293397   5.883   7.418   4.355  0.1462 -0.4475  0.0452
29967SOL     OW93398   2.812   8.913   7.193  0.2876  0.2060  0.8803
29967SOL    HW193399   2.863   8.864   7.128 -0.6657 -1.5258  1.3712
29967SOL    HW293400   2.738   8.855   7.213 -0.4796  1.5564  2.0686
29968SOL     OW93401   0.297   3.532   6.295 -0.0670  0.1164 -0.1529
29968SOL    HW193402   0.236   3.489   6.235  0.2276 -1.4576  0.6263
29968SOL    HW293403   0.250   3.536   6.378  0.7063 -0.7167  0.3426
29969SOL     OW93404   0.172   2.312   7.608  0.0781 -0.1712  0.2979
29969SOL    HW193405   0.201   2.298   7.517  0.4590 -1.5983  0.6123
29969SOL    HW293406   0.221   2.247   7.659 -1.0491 -0.2377  1.3471
29970SOL     OW93407   1.154   5.551   7.629  0.1469  0.0688 -0.1236
29970SOL    HW193408   1.247   5.547   7.651 -0.4373 -0.9085  2.6170
29970SOL    HW293409   1.113   5.489   7.689 -2.7020  3.2491  1.5691
29971SOL     OW93410   2.255   8.086   2.053 -0.4533 -0.0759  0.0121
29971SOL    HW193411   2.266   8.007   2.000  0.3719  0.1277 -0.1291
29971SOL    HW293412   2.180   8.066   2.110 -0.4501 -0.8358 -0.2402
29972SOL     OW93413   3.356   4.713   2.616 -0.0192 -0.4419 -0.1226
29972SOL    HW193414   3.445   4.692   2.644 -0.0125 -0.2746 -0.0155
29972SOL    HW293415   3.342   4.803   2.647 -0.1052 -0.3480 -0.4301
29973SOL     OW93416   2.228   9.122   1.723 -0.1733  0.0230  0.0210
29973SOL    HW193417   2.139   9.111   1.690 -0.1035 -0.8968  0.1035
29973SOL    HW293418   2.219   9.124   1.818 -0.2289  1.2836  0.0128
29974SOL     OW93419   8.518   6.833   1.094  0.4061  0.1363  0.4547
29974SOL    HW193420   8.541   6.885   1.017 -2.4872 -0.3011 -0.8519
29974SOL    HW293421   8.452   6.884   1.140 -0.1428 -0.9486  0.9225
29975SOL     OW93422   6.564   3.440   0.795 -0.0513 -0.1371  0.4180
29975SOL    HW193423   6.526   3.360   0.832 -0.0065 -0.6214 -0.5487
29975SOL    HW293424   6.500   3.467   0.728  0.5013 -0.0354 -0.0724
29976SOL     OW93425   2.828   1.764   2.919  0.4160  0.0169  0.2067
29976SOL    HW193426   2.761   1.810   2.970  1.7373 -0.9464  3.0312
29976SOL    HW293427   2.782   1.689   2.881 -0.7963  1.2273 -0.8279
29977SOL     OW93428   3.024   0.148   2.968 -0.1149 -0.2139  0.4745
29977SOL    HW193429   3.100   0.164   3.024  0.1035  1.1083 -0.1645
29977SOL    HW293430   2.961   0.215   2.992 -0.7004 -0.6912  0.3063
29978SOL     OW93431   0.715   3.495   8.485 -0.0531 -0.7106 -0.1203
29978SOL    HW193432   0.765   3.572   8.513 -0.0827 -0.4600 -0.7517
29978SOL    HW293433   0.689   3.514   8.395  1.0522 -2.0172 -0.7487
29979SOL     OW93434   2.620   7.029   8.068  0.0962 -0.1392  0.4611
29979SOL    HW193435   2.692   6.966   8.068  1.3774  1.2466  0.9729
29979SOL    HW293436   2.569   7.007   8.146  1.0327 -0.0404  1.1283
29980SOL     OW93437  10.302  10.475   1.802  0.2379 -0.5080 -0.3684
29980SOL    HW193438  10.280  10.557   1.845 -0.5813 -0.0828 -1.5382
29980SOL    HW293439  10.217  10.432   1.788  0.7186 -2.0849  1.1898
29981SOL     OW93440   2.819   0.345   4.005  0.1550 -0.0471  0.3321
29981SOL    HW193441   2.857   0.343   3.917  1.1118 -1.0931  0.7470
29981SOL    HW293442   2.746   0.282   4.000  1.9898 -2.3729  1.0120
29982SOL     OW93443   1.368   2.744   1.697 -0.0630 -0.4299  0.4307
29982SOL    HW193444   1.442   2.693   1.664 -0.2508 -0.5006  0.1159
29982SOL    HW293445   1.396   2.835   1.691  1.0408 -0.5444  2.8186
29983SOL     OW93446   1.031   6.488   4.648  0.5202 -0.0518  0.1072
29983SOL    HW193447   1.089   6.416   4.623  1.3516  0.7424 -0.3020
29983SOL    HW293448   1.035   6.549   4.574  0.2735  0.6844  0.6897
29984SOL     OW93449   4.198   3.913   4.500  0.8226  0.2887  0.5475
29984SOL    HW193450   4.193   3.878   4.411 -0.5347  0.2185  0.6405
29984SOL    HW293451   4.250   3.993   4.490  1.3923 -0.1508 -0.1589
29985SOL     OW93452   9.300   7.223   1.606 -0.1110  0.0947  0.1401
29985SOL    HW193453   9.252   7.159   1.553  0.2947  0.0121 -0.1282
29985SOL    HW293454   9.243   7.238   1.682 -0.3078 -0.4204  0.0993
29986SOL     OW93455   5.133  10.280   2.305  0.3280  0.0970 -0.4065
29986SOL    HW193456   5.128  10.320   2.219  0.7173  0.4446 -0.2659
29986SOL    HW293457   5.042  10.282   2.338  0.4710  1.6710 -0.0310
29987SOL     OW93458   4.750   5.650  10.440  0.1447  0.1169  0.4815
29987SOL    HW193459   4.814   5.666  10.509  0.7999  1.4809 -0.3820
29987SOL    HW293460   4.665   5.650  10.484  0.4607  2.0459  1.1591
29988SOL     OW93461   4.880   9.058   7.758 -0.3162 -0.5062  0.1453
29988SOL    HW193462   4.923   9.100   7.833 -0.6768  0.1997 -0.0301
29988SOL    HW293463   4.947   8.999   7.722  0.3911  0.2837  0.1102
29989SOL     OW93464   1.366   5.719   6.692  0.2169  0.5429  0.3407
29989SOL    HW193465   1.411   5.641   6.659 -0.0828  1.8366 -3.5830
29989SOL    HW293466   1.281   5.687   6.720  0.8528 -0.8210  0.8054
29990SOL     OW93467   9.752   7.196   3.430  0.2273  0.9023 -0.4027
29990SOL    HW193468   9.811   7.272   3.424  0.0701  1.2375  1.5538
29990SOL    HW293469   9.666   7.235   3.445  0.1126  0.3473  0.4070
29991SOL     OW93470   8.004   7.565   0.623 -0.0573 -0.0490 -0.1758
29991SOL    HW193471   8.042   7.497   0.567 -0.1020 -1.4298  1.4222
29991SOL    HW293472   8.080   7.607   0.664 -0.1165 -1.2146  1.1841
29992SOL     OW93473   5.864   0.702   5.652 -0.8472  0.2870 -0.1931
29992SOL    HW193474   5.782   0.670   5.688  0.1916 -2.8488 -0.2570
29992SOL    HW293475   5.851   0.700   5.557 -0.4870 -1.0332 -0.2352
29993SOL     OW93476   8.249   4.161   1.177  0.1962 -0.2244 -0.4078
29993SOL    HW193477   8.341   4.181   1.194  0.2746 -0.8822 -0.0539
29993SOL    HW293478   8.228   4.090   1.237 -0.0856 -1.2307 -1.6658
29994SOL     OW93479   8.542   3.283   6.419 -0.1752  0.5032  0.0639
29994SOL    HW193480   8.526   3.343   6.347  0.3890 -0.6011 -1.0288
29994SOL    HW293481   8.475   3.304   6.484 -1.5117  0.6856 -1.3264
29995SOL     OW93482   6.182   2.443   8.737 -0.2176 -0.2317  0.0140
29995SOL    HW193483   6.123   2.449   8.813 -1.3088 -0.1441 -0.8132
29995SOL    HW293484   6.232   2.363   8.752 -0.0785  0.0284  1.0511
29996SOL     OW93485   4.765   4.542   3.219  0.6266 -0.0306 -0.8496
29996SOL    HW193486   4.764   4.497   3.135  3.3163 -0.9041 -0.5091
29996SOL    HW293487   4.770   4.472   3.284 -1.0493  0.6384  0.0786
29997SOL     OW93488   6.973   1.820   1.052 -0.4211 -0.4203  0.2488
29997SOL    HW193489   6.988   1.913   1.036  2.1985 -0.7222  0.4744
29997SOL    HW293490   6.933   1.788   0.972  5.0827 -0.3467 -3.0557
29998SOL     OW93491   4.720   1.401   1.299 -0.2936  1.0385  0.1198
29998SOL    HW193492   4.633   1.405   1.338 -0.4010 -1.9953  0.4374
29998SOL    HW293493   4.705   1.415   1.205 -1.3868 -0.7681 -0.0252
29999SOL     OW93494   7.757   8.456   3.247  0.4602  0.6731  0.1590
29999SOL    HW193495   7.733   8.543   3.280  0.2851 -0.3660  3.1147
29999SOL    HW293496   7.679   8.424   3.203  0.0670  1.4876  0.2502
30000SOL     OW93497   9.383   2.736   4.494  0.4610  0.2649 -0.0204
30000SOL    HW193498   9.446   2.783   4.549  1.4402  0.5041 -1.2978
30000SOL    HW293499   9.360   2.798   4.425 -0.5131 -0.1329 -0.0685
30001SOL     OW93500   4.694   7.455   4.425 -0.2636  0.2414  0.2174
30001SOL    HW193501   4.730   7.489   4.342 -0.3264 -0.6073 -0.1644
30001SOL    HW293502   4.625   7.517   4.448 -0.1209  0.5893 -0.2622
30002SOL     OW93503   1.262   8.968   9.227 -0.6731  0.0462  0.1089
30002SOL    HW193504   1.301   8.907   9.290 -0.5790 -0.3397 -0.3130
30002SOL    HW293505   1.179   8.926   9.203  0.2467 -0.9062 -1.6243
30003SOL     OW93506   5.468   8.117   0.334 -0.0058  0.6402 -0.0752
30003SOL    HW193507   5.521   8.191   0.363 -0.9257  1.1505  0.3172
30003SOL    HW293508   5.380   8.152   0.325 -0.3091 -0.2329 -0.6071
30004SOL     OW93509   3.583   5.790   0.976 -0.0571  0.2114  0.0485
30004SOL    HW193510   3.631   5.768   1.056 -0.1014 -1.3342 -0.3216
30004SOL    HW293511   3.639   5.853   0.931 -0.5243  1.9681  1.7763
30005SOL     OW93512   6.440   9.702   0.755  0.0986 -0.2808  0.1984
30005SOL    HW193513   6.500   9.630   0.772  1.1854  0.6196  0.3169
30005SOL    HW293514   6.394   9.715   0.838 -2.7036 -3.0443 -0.7066
30006SOL     OW93515   6.996   1.754   4.488 -0.3504 -0.4451  0.2270
30006SOL    HW193516   6.920   1.713   4.530 -0.1991 -0.4010  0.5508
30006SOL    HW293517   6.977   1.751   4.395 -1.6820  1.4024  0.3920
30007SOL     OW93518   9.379   8.449  10.723 -0.3048  0.0005 -0.0874
30007SOL    HW193519   9.430   8.529  10.723  0.9883 -0.7665  1.9537
30007SOL    HW293520   9.392   8.412  10.635 -0.5473  1.7295 -0.8928
30008SOL     OW93521   7.123   8.538   0.896  0.6895  0.5376 -0.6525
30008SOL    HW193522   7.047   8.591   0.920  0.1664 -0.5612  0.2272
30008SOL    HW293523   7.097   8.497   0.813  0.1629 -0.1005 -0.1852
30009SOL     OW93524   8.985   5.590   2.195 -0.8936 -0.2196  0.0860
30009SOL    HW193525   9.076   5.613   2.177 -0.5151 -1.9659 -0.4467
30009SOL    HW293526   8.985   5.565   2.288 -0.7179 -0.6501 -0.0265
30010SOL     OW93527   2.202   6.852   1.102  0.1076 -0.2222  0.0343
30010SOL    HW193528   2.133   6.792   1.074  0.5663 -0.1956 -1.2254
30010SOL    HW293529   2.183   6.870   1.194 -1.9058  0.2244 -0.4187
30011SOL     OW93530   6.182   7.632  10.917  0.9015 -0.0183  0.7961
30011SOL    HW193531   6.232   7.660  10.841 -3.7906  0.5986 -2.5037
30011SOL    HW293532   6.166   7.712  10.966  0.4811  0.3778  0.0300
30012SOL     OW93533   7.180   2.171   9.079  0.5937  0.0483  0.2372
30012SOL    HW193534   7.088   2.192   9.095 -0.2634  0.1944 -3.8013
30012SOL    HW293535   7.228   2.245   9.117 -1.2860  1.8938 -0.7704
30013SOL     OW93536   1.609   9.317   8.043 -0.0495  0.6591 -0.0587
30013SOL    HW193537   1.647   9.370   8.114  1.0623 -1.8600  1.3635
30013SOL    HW293538   1.534   9.274   8.084  0.8992 -1.2128 -0.1809
30014SOL     OW93539   9.691   4.608   5.755 -0.1167 -0.6282  0.7784
30014SOL    HW193540   9.780   4.643   5.761 -0.2460 -0.4286  1.9092
30014SOL    HW293541   9.655   4.646   5.675  0.5536 -0.0966  0.7182
30015SOL     OW93542   6.141   9.984   5.296 -0.0981 -0.2423 -0.5585
30015SOL    HW193543   6.219   9.930   5.304 -0.0700 -0.0029  0.9097
30015SOL    HW293544   6.138  10.008   5.203  0.7797 -1.4078 -0.9033
30016SOL     OW93545   9.684   4.096   1.610 -0.2647  0.1153  0.0894
30016SOL    HW193546   9.604   4.116   1.658 -0.3589 -1.6509  0.7287
30016SOL    HW293547   9.743   4.169   1.630 -1.1132  0.5705  0.9896
30017SOL     OW93548   8.305   5.013   7.875  0.8818  0.0392 -0.5016
30017SOL    HW193549   8.354   4.970   7.945  1.0945 -0.1678 -0.7719
30017SOL    HW293550   8.223   5.041   7.916  0.7653 -0.5773 -0.3016
30018SOL     OW93551   8.416   3.296   2.328  0.5261  0.0019 -0.3905
30018SOL    HW193552   8.397   3.222   2.271 -1.8099 -0.7658  1.2246
30018SOL    HW293553   8.366   3.279   2.407  1.6972  2.2303  0.9385
30019SOL     OW93554   7.324   1.833   6.792  0.2279 -0.5259 -0.0319
30019SOL    HW193555   7.360   1.802   6.708 -0.5561  1.5982 -1.2364
30019SOL    HW293556   7.250   1.775   6.809 -0.4046 -0.2008 -1.5101
30020SOL     OW93557   4.637   5.254  10.111  0.0816  0.1156 -0.2034
30020SOL    HW193558   4.685   5.304  10.045 -1.1208 -0.5985 -1.6756
30020SOL    HW293559   4.681   5.169  10.112 -0.4384 -0.1759 -0.7785
30021SOL     OW93560   2.351   1.390   3.605 -0.2217  0.1136  0.5408
30021SOL    HW193561   2.338   1.420   3.695 -1.9856  0.9767  0.0551
30021SOL    HW293562   2.379   1.468   3.557  1.7355 -0.5628  0.4864
30022SOL     OW93563   1.838   8.081   2.584 -0.3785  0.6051 -0.3349
30022SOL    HW193564   1.773   8.136   2.628 -1.6854 -1.2646  0.2056
30022SOL    HW293565   1.788   8.005   2.554  1.3919 -0.3895 -0.8666
30023SOL     OW93566   6.125   3.459   4.988 -0.3413 -0.7664  0.1951
30023SOL    HW193567   6.050   3.433   4.934 -1.1628  0.8495  0.5088
30023SOL    HW293568   6.201   3.433   4.936 -1.1022  1.0148 -1.9796
30024SOL     OW93569   5.083   9.350   8.656 -0.0480  0.0434 -0.1272
30024SOL    HW193570   5.164   9.356   8.606  1.1480  0.2103  1.7624
30024SOL    HW293571   5.016   9.384   8.596  1.2456 -0.1012 -1.7256
30025SOL     OW93572   3.989   3.232   6.175 -0.2412 -0.0610  0.6754
30025SOL    HW193573   3.959   3.318   6.207 -0.9062 -0.1167  0.2236
30025SOL    HW293574   3.910   3.178   6.176 -0.2516 -0.0976 -0.9378
30026SOL     OW93575   9.359   1.459   5.068 -0.1320 -0.0472  0.2166
30026SOL    HW193576   9.281   1.404   5.076 -1.0619  1.1675 -0.2092
30026SOL    HW293577   9.327   1.542   5.035  1.7279 -0.4835 -3.1521
30027SOL     OW93578   6.064   0.556   0.797 -0.2254 -0.0646 -0.1724
30027SOL    HW193579   6.009   0.501   0.854  0.7650 -2.4525 -1.3846
30027SOL    HW293580   6.023   0.549   0.711 -0.2025  1.3605 -0.3218
30028SOL     OW93581   3.477   6.121   7.799  0.5890  0.6955  0.3253
30028SOL    HW193582   3.548   6.076   7.845  1.6525  1.2544 -0.7275
30028SOL    HW293583   3.474   6.208   7.838  0.0158  0.4615  0.8257
30029SOL     OW93584  10.071  10.246   5.254  0.0929 -0.5087 -0.0388
30029SOL    HW193585  10.162  10.274   5.252  0.6653 -2.1748  1.2994
30029SOL    HW293586  10.041  10.265   5.343 -0.8090 -0.2419 -0.3805
30030SOL     OW93587   3.668   4.949   5.922 -0.1097  0.3012  0.2119
30030SOL    HW193588   3.751   4.995   5.932 -0.7370  1.4209  0.5587
30030SOL    HW293589   3.635   4.978   5.837 -0.4042  0.3281  0.3326
30031SOL     OW93590   2.401   0.208   7.525  0.3898  0.0494  0.1915
30031SOL    HW193591   2.439   0.195   7.612  1.1015  0.7497 -0.0071
30031SOL    HW293592   2.440   0.289   7.494 -0.0761 -0.0516 -0.6766
30032SOL     OW93593   8.032   3.791   0.340 -0.0606 -0.4322  0.5850
30032SOL    HW193594   8.041   3.831   0.426 -1.9993 -0.9790  1.0889
30032SOL    HW293595   7.938   3.792   0.323  0.0365 -2.6907 -0.3951
30033SOL     OW93596   6.216   8.454   4.523  0.1731 -0.1710  0.0422
30033SOL    HW193597   6.304   8.437   4.556 -0.5640 -0.4969  1.9958
30033SOL    HW293598   6.198   8.382   4.463  1.1129 -0.2412 -0.1752
30034SOL     OW93599   1.656   6.799   3.691 -0.6699  0.3824  0.2139
30034SOL    HW193600   1.723   6.855   3.652 -1.2070  1.3186  0.6056
30034SOL    HW293601   1.608   6.763   3.616 -1.0446  1.3625 -0.0361
30035SOL     OW93602   2.636   8.967   3.643 -0.6607  0.8493  0.0396
30035SOL    HW193603   2.592   8.917   3.575  0.2982  1.4273 -1.0338
30035SOL    HW293604   2.628   9.058   3.616  0.3041  1.0396  0.3512
30036SOL     OW93605  10.541   2.886   8.280 -0.0885  0.5223 -0.6371
30036SOL    HW193606  10.587   2.859   8.200  0.8982 -0.0772  0.1129
30036SOL    HW293607  10.484   2.811   8.300  0.8222 -0.0056  0.0684
30037SOL     OW93608   9.637   6.845   2.678 -0.3630  0.6316  0.1725
30037SOL    HW193609   9.678   6.765   2.646 -2.1338 -0.7024  1.0223
30037SOL    HW293610   9.703   6.886   2.733  1.1697  0.6750 -1.6237
30038SOL     OW93611   0.053   2.690   7.439 -0.1759 -0.2231 -0.2056
30038SOL    HW193612  -0.012   2.731   7.495  1.0610 -0.4945  1.4924
30038SOL    HW293613   0.046   2.596   7.457  0.1288 -0.3359 -0.6368
30039SOL     OW93614   8.207   8.738   1.483 -0.0893 -0.7842 -0.0846
30039SOL    HW193615   8.146   8.811   1.493 -0.7623 -1.3212 -0.2388
30039SOL    HW293616   8.286   8.778   1.448  0.2566  0.1841  1.6957
30040SOL     OW93617   1.616   9.165   6.860  0.0258 -0.3139  0.3448
30040SOL    HW193618   1.591   9.150   6.951  0.0825  2.0149  0.8231
30040SOL    HW293619   1.533   9.187   6.816  0.2529  0.4920  0.3052
30041SOL     OW93620   3.684   1.318   3.591  0.2085 -0.4883  0.4364
30041SOL    HW193621   3.610   1.341   3.535 -0.0804  1.0506  1.3837
30041SOL    HW293622   3.654   1.240   3.638 -0.5545 -0.3028  0.2804
30042SOL     OW93623  10.719   4.853   4.563 -0.0595  0.1588  0.1388
30042SOL    HW193624  10.750   4.766   4.587 -0.6050  0.2858  1.3732
30042SOL    HW293625  10.626   4.853   4.587  0.1584  1.3970  1.1070
30043SOL     OW93626   8.493   3.335   2.047 -0.5941 -0.0206  0.3101
30043SOL    HW193627   8.403   3.363   2.067 -0.6986 -0.7790  0.9647
30043SOL    HW293628   8.483   3.271   1.976 -0.5933 -0.2560  0.5212
30044SOL     OW93629   0.280   4.839   9.069  0.4800  0.3538  0.0765
30044SOL    HW193630   0.221   4.875   9.135 -0.4204  1.0586 -1.0543
30044SOL    HW293631   0.306   4.915   9.016  1.0709 -0.2054 -0.4592
30045SOL     OW93632   0.787   7.908   3.566  0.5255  0.5435  0.8077
30045SOL    HW193633   0.706   7.953   3.591 -1.3965 -2.3942  0.3196
30045SOL    HW293634   0.783   7.902   3.470 -0.7725 -2.9606  0.9441
30046SOL     OW93635   6.812  10.413   9.105  0.1854  0.1944  0.1781
30046SOL    HW193636   6.723  10.431   9.077 -0.3760 -0.9128  1.1789
30046SOL    HW293637   6.804  10.342   9.169  1.8175 -0.2595 -0.0565
30047SOL     OW93638   2.440   0.168   0.673  0.3174 -0.7396  0.4889
30047SOL    HW193639   2.394   0.126   0.745  0.0490  1.7094  1.8484
30047SOL    HW293640   2.531   0.171   0.701  0.4510 -1.0080  0.0930
30048SOL     OW93641   9.504   8.343   9.954  0.2617  0.0444  0.1412
30048SOL    HW193642   9.568   8.272   9.959  1.9896  1.5803  0.8385
30048SOL    HW293643   9.466   8.335   9.866  1.6748 -0.6825 -0.4364
30049SOL     OW93644   8.690   7.194   3.688 -0.0982  0.3144 -0.0274
30049SOL    HW193645   8.748   7.249   3.741  1.3493 -2.2955  1.3225
30049SOL    HW293646   8.745   7.119   3.663 -2.0659 -0.7864 -1.2982
30050SOL     OW93647   8.295   8.469   5.472 -0.4247 -0.2117 -0.5692
30050SOL    HW193648   8.239   8.473   5.395 -0.9092  1.2619 -0.1695
30050SOL    HW293649   8.247   8.415   5.535 -0.6589 -0.2757 -0.8042
30051SOL     OW93650   9.594   0.475   1.650 -0.2093  0.5549 -0.2000
30051SOL    HW193651   9.569   0.393   1.693 -0.7855  0.5507 -0.5290
30051SOL    HW293652   9.671   0.452   1.597 -0.4560  0.1897 -0.4053
30052SOL     OW93653   7.684   5.220  10.373  0.1805 -0.0904  0.3483
30052SOL    HW193654   7.764   5.270  10.357 -0.1890  0.5559  0.4300
30052SOL    HW293655   7.705   5.130  10.349  0.4482  0.3543 -1.1769
30053SOL     OW93656   2.539   2.052   1.454 -0.5343  0.2943  0.0323
30053SOL    HW193657   2.545   1.957   1.443 -0.1036  0.4165 -0.8951
30053SOL    HW293658   2.527   2.065   1.548 -0.2933 -0.6629  0.2033
30054SOL     OW93659  10.240   6.078   2.691  0.5763  0.1908  0.1950
30054SOL    HW193660  10.252   5.986   2.670  2.0958  0.5653 -0.7457
30054SOL    HW293661  10.249   6.123   2.607  0.5983  1.2488  0.7474
30055SOL     OW93662   6.999   0.019   0.740 -0.1048  0.1377  0.1034
30055SOL    HW193663   6.928  -0.030   0.699 -0.7936  0.7692  0.5126
30055SOL    HW293664   6.999   0.104   0.696 -1.0857  0.9624  1.5804
30056SOL     OW93665   2.466   7.156   4.164  0.1652  0.6492  0.0890
30056SOL    HW193666   2.449   7.106   4.243 -1.3299 -0.4052 -0.8379
30056SOL    HW293667   2.395   7.132   4.105  1.0071  1.7078 -1.4308
30057SOL     OW93668   0.418   0.363   5.005  0.1256  0.5893  0.9266
30057SOL    HW193669   0.325   0.351   5.020 -0.0406  0.5295 -0.0641
30057SOL    HW293670   0.437   0.310   4.928  0.7431  1.4562  0.4576
30058SOL     OW93671   2.518   7.612   3.114 -0.2995  0.1055 -0.0158
30058SOL    HW193672   2.452   7.648   3.173 -0.6867 -0.6491  0.0266
30058SOL    HW293673   2.505   7.517   3.119 -1.0208  0.0611 -2.0978
30059SOL     OW93674   0.574   6.839   3.420  0.4669 -0.9822 -0.2662
30059SOL    HW193675   0.495   6.892   3.427  1.1843  0.0077  0.6926
30059SOL    HW293676   0.611   6.863   3.335  1.8946  1.7807  0.9789
30060SOL     OW93677   2.349   8.267   7.248  0.1215 -0.1673 -0.1934
30060SOL    HW193678   2.367   8.248   7.341 -0.7368  0.3290  0.0835
30060SOL    HW293679   2.334   8.361   7.245 -0.0526 -0.2106 -0.8119
30061SOL     OW93680   7.270   7.779   4.257 -0.3725 -0.7139  0.4976
30061SOL    HW193681   7.276   7.728   4.338 -0.9090 -2.3200 -0.4323
30061SOL    HW293682   7.336   7.847   4.267  0.2825 -1.5035  1.8528
30062SOL     OW93683   7.956  10.906   1.779  0.2852 -0.0028  0.3184
30062SOL    HW193684   7.963  10.993   1.740 -1.3058 -0.1953 -0.4960
30062SOL    HW293685   8.018  10.853   1.730  0.1491  0.3385 -0.2357
30063SOL     OW93686   3.978   0.044   2.402  0.4464  0.2343 -0.6430
30063SOL    HW193687   4.037   0.043   2.478  0.9786  1.7429 -1.0095
30063SOL    HW293688   3.968   0.136   2.381 -1.0411 -0.0784 -1.3977
30064SOL     OW93689   4.925   1.395   7.368  0.3753  0.2167 -0.1194
30064SOL    HW193690   4.933   1.301   7.356  1.1990  0.2399  0.1277
30064SOL    HW293691   5.008   1.420   7.410  0.6658  1.2126 -1.2265
30065SOL     OW93692   1.210   1.899   8.052  0.1295 -0.6212 -0.1967
30065SOL    HW193693   1.130   1.923   8.005  0.7662  0.2684 -0.8675
30065SOL    HW293694   1.185   1.823   8.104 -0.4280 -2.2780 -2.6670
30066SOL     OW93695   2.683   4.739   1.040 -0.2952 -0.2319  0.0009
30066SOL    HW193696   2.687   4.741   1.136 -1.4637 -1.7890  0.1250
30066SOL    HW293697   2.589   4.736   1.020 -0.0533 -1.4422 -1.1162
30067SOL     OW93698  10.371   3.938   7.832 -0.0816  0.2518 -0.1242
30067SOL    HW193699  10.395   3.902   7.917 -1.5819 -1.3948 -0.3229
30067SOL    HW293700  10.429   3.894   7.770 -0.0116  0.3114 -0.1019
30068SOL     OW93701   2.881   4.930  10.061  0.2069  0.5491  0.5191
30068SOL    HW193702   2.885   4.862  10.128  1.6337  0.1907  0.0864
30068SOL    HW293703   2.923   4.891   9.984 -2.9754  0.2428 -1.2625
30069SOL     OW93704   2.179   9.962   1.069  0.4436  0.9336  0.5614
30069SOL    HW193705   2.235   9.888   1.092  2.1443  1.8346 -0.4708
30069SOL    HW293706   2.122   9.929   0.999  0.4789  0.3295  0.8161
30070SOL     OW93707   3.580   7.075   7.070  0.0991  0.1899  0.6174
30070SOL    HW193708   3.551   7.069   7.161 -0.0624 -0.7783  0.5166
30070SOL    HW293709   3.503   7.106   7.022  0.1073  0.4494  0.7711
30071SOL     OW93710   1.391   8.963   1.305 -0.0607 -0.5505 -0.2962
30071SOL    HW193711   1.472   8.927   1.271 -1.2550 -3.2801 -0.5303
30071SOL    HW293712   1.335   8.974   1.228 -0.5030 -0.3622  0.0448
30072SOL     OW93713   3.748   6.551   8.922  0.5296  0.0413 -0.3361
30072SOL    HW193714   3.662   6.536   8.882 -0.0090 -1.5576  1.3202
30072SOL    HW293715   3.729   6.567   9.014  1.9529  0.8686 -0.1629
30073SOL     OW93716   2.357   8.428   4.933  0.0100 -0.8161  0.4384
30073SOL    HW193717   2.321   8.420   5.021 -1.7391  1.9882  0.0908
30073SOL    HW293718   2.437   8.478   4.944 -1.0012  0.8963  0.3631
30074SOL     OW93719   7.718   5.027   6.661 -0.5701  0.2014  0.3489
30074SOL    HW193720   7.787   4.963   6.680 -0.5259 -0.2112 -1.0781
30074SOL    HW293721   7.751   5.109   6.698  0.6492 -0.0098 -0.2166
30075SOL     OW93722   3.135   7.367   3.469  0.4040 -0.2181  0.1904
30075SOL    HW193723   3.121   7.420   3.548 -3.2649 -0.0130 -0.4534
30075SOL    HW293724   3.112   7.278   3.496 -0.3636 -0.2330 -0.4760
30076SOL     OW93725   0.020  10.419   6.481  0.1366 -0.0972  0.1224
30076SOL    HW193726   0.080  10.487   6.512  1.8182 -1.7053  0.6316
30076SOL    HW293727   0.058  10.391   6.398 -0.3694 -0.6108  0.0597
30077SOL     OW93728   6.778   7.595   1.297 -0.4254  0.8378  0.2832
30077SOL    HW193729   6.751   7.686   1.285 -1.9945  0.4542  0.6992
30077SOL    HW293730   6.714   7.544   1.247 -0.8454 -0.1435  1.7616
30078SOL     OW93731   6.014   7.573   8.927 -0.1194  0.2710 -0.0260
30078SOL    HW193732   5.924   7.554   8.903  0.5207  0.0316 -2.4289
30078SOL    HW293733   6.025   7.532   9.013 -2.0746 -0.2645  0.0102
30079SOL     OW93734   1.502   6.787   6.909 -0.0352  0.2053  0.0080
30079SOL    HW193735   1.472   6.875   6.930  0.5465  0.2429  0.7195
30079SOL    HW293736   1.569   6.768   6.974  0.2760 -0.5315 -0.5084
30080SOL     OW93737   6.796   9.408   7.199 -0.0830  0.0280 -0.6447
30080SOL    HW193738   6.765   9.498   7.205 -2.5238 -0.7085 -1.1945
30080SOL    HW293739   6.771   9.380   7.110  1.7176 -0.8419 -0.9195
30081SOL     OW93740   2.562   4.940   6.410 -0.6307 -0.3241 -0.2040
30081SOL    HW193741   2.529   4.998   6.478  1.2766  0.4915  0.0921
30081SOL    HW293742   2.654   4.928   6.431 -0.4483 -1.6354 -1.5589
30082SOL     OW93743   0.284   2.121   8.988  0.0252 -0.0199 -0.0394
30082SOL    HW193744   0.337   2.045   9.013  1.8054  0.9071 -0.8339
30082SOL    HW293745   0.234   2.142   9.066  0.3310 -1.3214  0.5434
30083SOL     OW93746   0.691   2.665   6.796  0.4086  0.3123  0.0147
30083SOL    HW193747   0.768   2.722   6.791 -0.0882  1.3134  2.3436
30083SOL    HW293748   0.617   2.726   6.801 -0.2804 -0.5621  0.7916
30084SOL     OW93749   6.134   7.790   6.941 -0.0626 -0.4176  0.1037
30084SOL    HW193750   6.202   7.768   6.877 -0.6261 -0.0419 -0.6339
30084SOL    HW293751   6.065   7.726   6.926  0.0903 -0.7585  0.8128
30085SOL     OW93752   2.372   9.671   6.716  0.2417  0.1230  0.4376
30085SOL    HW193753   2.330   9.753   6.740 -1.1434 -0.4102 -0.0835
30085SOL    HW293754   2.334   9.606   6.776 -1.0113 -0.6742 -1.1579
30086SOL     OW93755   2.887   1.917   1.701 -0.2462 -0.5381 -0.1065
30086SOL    HW193756   2.965   1.972   1.695  0.3800 -1.4692 -0.7127
30086SOL    HW293757   2.894   1.857   1.626 -0.8423 -1.5272  0.6044
30087SOL     OW93758   3.020  10.023   8.675 -0.2186  0.2536 -0.0709
30087SOL    HW193759   3.103  10.061   8.703 -0.1960  0.1735 -0.0323
30087SOL    HW293760   3.041   9.933   8.651 -0.7219 -0.5442  2.2507
30088SOL     OW93761   3.629   5.950   4.832 -0.1830 -0.3175  0.2637
30088SOL    HW193762   3.565   5.885   4.861 -1.0091 -0.3883 -1.5912
30088SOL    HW293763   3.697   5.899   4.789 -1.5651  0.0237 -2.5549
30089SOL     OW93764   4.874   8.009  10.235  0.0622 -0.4621 -0.5098
30089SOL    HW193765   4.791   7.969  10.261  0.4475 -2.3574 -2.0280
30089SOL    HW293766   4.941   7.952  10.273  0.6243 -1.0318 -2.2450
30090SOL     OW93767   6.592   4.636   3.575 -0.0696 -0.2151  0.5219
30090SOL    HW193768   6.607   4.541   3.573 -0.5790 -0.2903  0.2055
30090SOL    HW293769   6.678   4.674   3.556 -0.1774 -0.6327 -0.8710
30091SOL     OW93770   7.461   9.541   1.273  0.0122 -0.2887 -0.2342
30091SOL    HW193771   7.521   9.541   1.199  0.0098  0.5708 -0.2481
30091SOL    HW293772   7.408   9.462   1.261  1.5022 -1.4009  0.0918
30092SOL     OW93773  10.885  10.431   3.680  0.7629  0.1632  0.0257
30092SOL    HW193774  10.917  10.394   3.763 -0.1164 -0.8495 -0.0652
30092SOL    HW293775  10.949  10.401   3.615 -0.0604 -1.4708 -0.0829
30093SOL     OW93776   1.383   5.635   9.177 -0.2073  0.4609  0.4032
30093SOL    HW193777   1.390   5.645   9.082 -0.6616  0.6045  0.3827
30093SOL    HW293778   1.311   5.573   9.189  0.2801 -0.0731  0.6372
30094SOL     OW93779   3.505   1.431   3.014  0.0567  0.0325 -0.0680
30094SOL    HW193780   3.492   1.384   3.096  3.0614 -2.5692 -0.8504
30094SOL    HW293781   3.424   1.418   2.965 -0.9947 -0.1572  1.6554
30095SOL     OW93782   8.863   5.817  10.293  0.6264 -0.0587 -0.4410
30095SOL    HW193783   8.903   5.736  10.261  1.5208 -0.1000  0.7181
30095SOL    HW293784   8.931   5.883  10.282  0.7876  0.0170  0.9326
30096SOL     OW93785   9.679   7.024   3.190  0.7057 -0.0483 -0.3888
30096SOL    HW193786   9.625   7.099   3.166  0.5412  0.3138  0.9928
30096SOL    HW293787   9.632   6.948   3.156  0.1530  0.3798 -0.5918
30097SOL     OW93788   8.027   4.564   4.895  0.2306  0.6173 -0.2323
30097SOL    HW193789   7.969   4.498   4.856 -0.7256  1.7377 -0.7870
30097SOL    HW293790   8.115   4.536   4.870 -0.2885  0.7003 -2.3352
30098SOL     OW93791   8.651   5.699  10.513  0.6133  0.4079 -0.3454
30098SOL    HW193792   8.598   5.778  10.527  1.0285  0.9639 -1.7239
30098SOL    HW293793   8.691   5.712  10.427  2.5942 -0.2345  0.4298
30099SOL     OW93794   4.499  10.423   6.283 -0.8248  0.1464  0.7082
30099SOL    HW193795   4.477  10.331   6.298 -0.5220  0.2572  2.0087
30099SOL    HW293796   4.558  10.445   6.355 -0.6440  1.2753  0.2352
30100SOL     OW93797   4.985   4.797   7.067  0.7186  0.4492 -0.1097
30100SOL    HW193798   4.999   4.792   6.973  1.3687 -0.3626  0.0215
30100SOL    HW293799   4.907   4.744   7.083  0.7697  0.3587 -0.1603
30101SOL     OW93800   1.853   3.215   8.374 -1.4537 -0.0845  0.0581
30101SOL    HW193801   1.846   3.130   8.417 -1.9481  0.3130  0.7879
30101SOL    HW293802   1.838   3.278   8.445  0.5544  0.6542 -0.1205
30102SOL     OW93803   3.514   9.278   5.616  0.0457 -0.0169  0.5788
30102SOL    HW193804   3.498   9.187   5.644  3.1023 -0.8063  0.1713
30102SOL    HW293805   3.563   9.317   5.689  0.5027  0.6639 -0.0818
30103SOL     OW93806  10.768   1.614   7.911  0.4203  0.1304  0.1926
30103SOL    HW193807  10.708   1.541   7.891 -1.1063  0.4762  2.8868
30103SOL    HW293808  10.834   1.575   7.968  0.1332  0.6334  0.8870
30104SOL     OW93809   2.389   6.125   8.050  0.2339 -0.0887 -0.0004
30104SOL    HW193810   2.410   6.101   8.140 -0.7118 -3.1456 -0.4854
30104SOL    HW293811   2.430   6.210   8.038  0.3088  0.4889  3.3239
30105SOL     OW93812   0.823   7.161   4.928  0.2189  0.1711 -0.4867
30105SOL    HW193813   0.887   7.090   4.926 -1.9200 -1.9222  0.4062
30105SOL    HW293814   0.752   7.132   4.871 -0.0506  2.3709 -1.3873
30106SOL     OW93815   3.658   8.784   2.473  0.2922 -0.3623 -0.2918
30106SOL    HW193816   3.594   8.819   2.536  0.7189  0.7525 -0.4538
30106SOL    HW293817   3.743   8.810   2.508  0.6190 -1.1613 -0.4825
30107SOL     OW93818   2.235   0.724   4.745 -0.5832  0.3260 -0.1997
30107SOL    HW193819   2.213   0.682   4.828 -1.0665 -0.4674 -0.7134
30107SOL    HW293820   2.324   0.694   4.725 -0.7840 -0.1515 -0.3781
30108SOL     OW93821   5.537  10.008   4.456 -0.1837  0.1139 -0.5365
30108SOL    HW193822   5.518  10.060   4.378  0.1367  0.3577 -0.4528
30108SOL    HW293823   5.600   9.942   4.426  0.1070  0.3431 -0.4374
30109SOL     OW93824   9.879   9.517   6.006  0.1878  0.1746  0.1332
30109SOL    HW193825   9.907   9.583   6.069  1.1077  2.2471 -2.2973
30109SOL    HW293826   9.785   9.534   5.994 -0.1497 -0.6772  1.3733
30110SOL     OW93827  10.790   1.911   3.123 -0.0118  0.3751  0.5721
30110SOL    HW193828  10.763   1.960   3.201 -0.6174  0.3822  0.3606
30110SOL    HW293829  10.864   1.961   3.088  1.0016 -0.2317  1.7604
30111SOL     OW93830  10.577   1.626   2.269  0.1475 -0.3280  0.1159
30111SOL    HW193831  10.552   1.646   2.359  1.0077 -0.8882  0.4983
30111SOL    HW293832  10.642   1.693   2.247  2.4485 -2.0850  1.1253
30112SOL     OW93833   0.946   4.308   3.006 -0.2485 -0.3390  0.3814
30112SOL    HW193834   1.008   4.246   3.044  0.2694 -0.5032 -0.6933
30112SOL    HW293835   1.002   4.377   2.970 -0.8149  0.7445  1.5242
30113SOL     OW93836   4.845   3.830   3.734  0.5032  0.3156 -0.9695
30113SOL    HW193837   4.753   3.841   3.710 -0.2039 -1.2013  0.7739
30113SOL    HW293838   4.852   3.739   3.763  1.9612  1.0004  1.1517
30114SOL     OW93839   1.026   4.678   2.958  0.2815 -0.0307  0.8947
30114SOL    HW193840   0.980   4.684   2.874  1.4829  1.6871  0.3000
30114SOL    HW293841   1.072   4.594   2.954  0.4361  0.0836 -0.2328
30115SOL     OW93842   4.706   4.416   1.413 -0.1993  0.3041  0.2865
30115SOL    HW193843   4.636   4.377   1.466  2.0435  0.3072  3.5402
30115SOL    HW293844   4.708   4.507   1.440  0.4552  0.5290 -0.4887
30116SOL     OW93845   2.335   2.808   4.610  0.1083  0.0521 -0.4170
30116SOL    HW193846   2.377   2.735   4.656  1.8904  1.5109  0.3914
30116SOL    HW293847   2.392   2.825   4.536 -0.8700 -0.0222 -1.2037
30117SOL     OW93848   1.638   6.022   9.879  0.1770 -0.3843 -0.0591
30117SOL    HW193849   1.572   6.086   9.852 -0.2866 -0.7969  0.0969
30117SOL    HW293850   1.615   5.942   9.833 -0.0806 -0.8373  0.8395
30118SOL     OW93851   7.575   0.769   8.115 -0.1864  0.4433  0.1684
30118SOL    HW193852   7.626   0.776   8.035 -0.3505 -0.4106 -0.0203
30118SOL    HW293853   7.494   0.724   8.089 -1.0497  1.7764  0.4544
30119SOL     OW93854   9.528   9.370   1.598 -0.1865 -0.2941 -0.0695
30119SOL    HW193855   9.623   9.371   1.609 -0.3917  0.5512  2.2749
30119SOL    HW293856   9.501   9.282   1.627 -0.0120 -1.4688 -3.0602
30120SOL     OW93857   9.313   3.587   1.974  0.4260 -0.1223 -0.0013
30120SOL    HW193858   9.251   3.650   2.011  0.4062 -0.0558 -0.1469
30120SOL    HW293859   9.397   3.634   1.975  0.7240 -0.6294  1.3108
30121SOL     OW93860   3.646   1.757   4.108 -0.6497 -0.6099 -0.3208
30121SOL    HW193861   3.676   1.683   4.162 -1.5715  0.0129  1.1301
30121SOL    HW293862   3.569   1.790   4.154  0.1916  1.7697 -0.4500
30122SOL     OW93863   7.744  10.976   7.757  0.5004  0.1960  0.3530
30122SOL    HW193864   7.734  10.971   7.852 -0.7320  0.2972  0.2516
30122SOL    HW293865   7.685  11.047   7.730  0.7417  0.0894 -0.4958
30123SOL     OW93866   2.097   5.819   4.034 -0.1340  0.3823  0.3471
30123SOL    HW193867   2.114   5.730   4.062 -1.4208  0.1620  0.4705
30123SOL    HW293868   2.018   5.813   3.980 -1.1331  1.6223  1.5820
30124SOL     OW93869   1.256   1.519   2.700 -0.5490  0.0577  0.5254
30124SOL    HW193870   1.346   1.523   2.666 -0.4810 -2.1602  0.3054
30124SOL    HW293871   1.254   1.583   2.770  1.0154  0.6125  0.1098
30125SOL     OW93872   1.569   0.796   3.801 -0.3633  0.2778 -0.2825
30125SOL    HW193873   1.588   0.831   3.714  0.2907  0.4205 -0.0859
30125SOL    HW293874   1.647   0.747   3.825 -1.2362 -1.3050 -0.5326
30126SOL     OW93875   8.833   5.149   7.518 -0.1571 -0.2209 -0.5066
30126SOL    HW193876   8.795   5.087   7.581 -0.9948 -1.5412 -2.2074
30126SOL    HW293877   8.796   5.234   7.542 -2.5525 -1.1208 -0.7410
30127SOL     OW93878   4.159   5.487   9.137 -0.3326  0.1056  0.2633
30127SOL    HW193879   4.100   5.464   9.066  0.0090 -0.0862  0.0362
30127SOL    HW293880   4.136   5.426   9.208  0.4520 -0.8493 -0.2734
30128SOL     OW93881   5.568   7.032   0.725 -0.5180  0.1209 -0.4926
30128SOL    HW193882   5.653   7.042   0.768 -0.3696 -2.0409 -0.2124
30128SOL    HW293883   5.546   7.121   0.695  1.4402  0.8635  0.1385
30129SOL     OW93884   7.318  10.797   7.312  0.5686 -0.2102 -0.5158
30129SOL    HW193885   7.270  10.765   7.235 -0.6718  2.1970 -0.8426
30129SOL    HW293886   7.285  10.744   7.384  1.0524 -1.8709 -1.4626
30130SOL     OW93887   0.638   0.380   6.675 -0.1988 -0.2565  0.1722
30130SOL    HW193888   0.553   0.418   6.651 -0.1290 -0.0094  0.3154
30130SOL    HW293889   0.619   0.288   6.691 -0.6890  0.0546  1.4734
30131SOL     OW93890   9.553   6.288   6.127  0.2295 -0.1728 -0.4886
30131SOL    HW193891   9.465   6.322   6.144  0.8975  1.5808 -0.2585
30131SOL    HW293892   9.561   6.287   6.031  0.5134  1.3333 -0.5110
30132SOL     OW93893   1.235   6.069   1.684  0.2551  0.1048  0.2667
30132SOL    HW193894   1.244   6.102   1.774 -0.8616 -0.1732  0.4999
30132SOL    HW293895   1.232   5.974   1.693  3.3356 -0.1492 -0.3932
30133SOL     OW93896   9.759   5.686   2.491  0.0714  0.3100 -0.1107
30133SOL    HW193897   9.817   5.711   2.563 -1.0417 -0.6103  1.1667
30133SOL    HW293898   9.691   5.753   2.490 -0.1492  0.0907 -0.0023
30134SOL     OW93899   1.928   5.671   8.459 -0.4072  0.1919  0.6406
30134SOL    HW193900   1.996   5.734   8.436 -0.2510  0.0351  0.6698
30134SOL    HW293901   1.847   5.722   8.460 -0.2977  0.3677  0.5524
30135SOL     OW93902   7.389   7.282   2.154  0.2289 -0.4776  0.2575
30135SOL    HW193903   7.349   7.369   2.156  0.0687 -0.4712 -1.5929
30135SOL    HW293904   7.332   7.230   2.098  0.2226 -1.8606  1.4826
30136SOL     OW93905   4.672   4.903   3.111 -0.3389  0.0744 -0.3418
30136SOL    HW193906   4.757   4.873   3.145 -1.0791 -0.3969  1.1593
30136SOL    HW293907   4.639   4.828   3.062  0.0484  0.2234 -0.8460
30137SOL     OW93908   6.879   6.704   8.652 -0.1764 -0.2501 -0.1446
30137SOL    HW193909   6.830   6.675   8.575  0.8389 -1.2807 -0.4325
30137SOL    HW293910   6.944   6.765   8.618 -1.3822  1.3222  0.2735
30138SOL     OW93911   8.771   9.497   7.646 -0.6733 -0.7329  0.0534
30138SOL    HW193912   8.758   9.489   7.551  0.0560  1.4552 -0.2750
30138SOL    HW293913   8.866   9.494   7.658 -0.7326 -0.4074  0.6431
30139SOL     OW93914   1.815   8.660   2.269  0.1197  0.0468  0.2480
30139SOL    HW193915   1.894   8.640   2.218  0.5930  0.4458  0.8114
30139SOL    HW293916   1.791   8.578   2.310 -0.1767 -0.2438 -0.4938
30140SOL     OW93917   5.729   1.118  10.473 -0.6567  0.2715  0.1868
30140SOL    HW193918   5.764   1.200  10.507 -0.9667  0.2573  0.5539
30140SOL    HW293919   5.655   1.098  10.530 -0.3056 -0.5077  0.3860
30141SOL     OW93920   0.218   7.186  10.707  0.7025  0.0305 -0.3495
30141SOL    HW193921   0.299   7.154  10.668  1.7176  2.4993 -0.4921
30141SOL    HW293922   0.152   7.174  10.638  0.3310 -3.9644  0.4996
30142SOL     OW93923   8.942   6.286   1.736 -0.0535 -0.3384  0.2656
30142SOL    HW193924   8.880   6.357   1.722  0.8395 -0.0094 -2.7961
30142SOL    HW293925   8.928   6.228   1.661  2.5131 -0.8512  0.1156
30143SOL     OW93926   8.677   4.806   6.398 -0.0314 -0.1383 -0.5240
30143SOL    HW193927   8.752   4.755   6.368  0.4348 -0.5221  1.1822
30143SOL    HW293928   8.636   4.838   6.318  1.3828 -0.7337 -1.5234
30144SOL     OW93929   5.252   0.547   1.850  0.0306 -0.0623 -0.3952
30144SOL    HW193930   5.163   0.579   1.834 -0.7599 -1.3851  1.0109
30144SOL    HW293931   5.309   0.620   1.826 -1.3234  0.3592 -2.6499
30145SOL     OW93932   7.887   9.748  10.234  0.2552  0.5210  0.1269
30145SOL    HW193933   7.927   9.666  10.261  0.8444  1.2588  1.5772
30145SOL    HW293934   7.946   9.783  10.167  1.7542  1.2708  1.7640
30146SOL     OW93935   5.191   6.352   0.991 -0.4814  0.0262 -0.0551
30146SOL    HW193936   5.143   6.374   1.071 -0.5695  1.1561 -0.4018
30146SOL    HW293937   5.194   6.433   0.942  0.0960 -0.5121 -0.9391
30147SOL     OW93938   6.331   8.542   8.230  0.1780  0.2875 -0.0814
30147SOL    HW193939   6.282   8.563   8.150 -2.9880 -2.0218  1.0658
30147SOL    HW293940   6.362   8.453   8.217 -2.0927 -0.8977  1.8917
30148SOL     OW93941   4.158   8.346   8.571  0.0496 -0.6353 -0.1003
30148SOL    HW193942   4.148   8.252   8.579  0.1967 -0.7265 -0.8424
30148SOL    HW293943   4.225   8.370   8.635 -0.8378 -0.8540  0.9206
30149SOL     OW93944   2.967   3.241  10.501 -0.2973 -0.3476  0.5535
30149SOL    HW193945   3.061   3.241  10.516 -0.0811  0.5369 -0.6181
30149SOL    HW293946   2.929   3.218  10.586  0.8513  2.7100  2.0669
30150SOL     OW93947  10.920  10.828   6.314  0.4753 -0.0213 -0.6716
30150SOL    HW193948  10.842  10.845   6.260 -0.9082 -2.4118  0.4141
30150SOL    HW293949  10.952  10.743   6.284  2.5173  0.7441 -0.8372
30151SOL     OW93950   9.283   7.956   6.037 -0.1578  0.6417 -0.4586
30151SOL    HW193951   9.303   7.901   5.961 -1.5517  0.0913 -0.4591
30151SOL    HW293952   9.249   8.038   5.999  0.4269  0.8964 -0.4381
30152SOL     OW93953   7.515   3.415   0.931 -0.1283  0.5264 -0.1333
30152SOL    HW193954   7.499   3.339   0.875  0.3088 -1.2108  1.9631
30152SOL    HW293955   7.437   3.421   0.985  0.8954 -0.0829  1.4771
30153SOL     OW93956   6.664   6.241   6.989 -0.2596  0.3284  0.3891
30153SOL    HW193957   6.750   6.208   7.016  1.0816  2.2176 -1.2572
30153SOL    HW293958   6.650   6.320   7.041 -1.0344  0.0056  0.6828
30154SOL     OW93959   6.774   2.047   3.777 -0.4031 -0.0995 -0.0810
30154SOL    HW193960   6.763   2.099   3.697  1.5682  0.6270  0.0567
30154SOL    HW293961   6.813   1.965   3.745 -3.2698 -1.4839 -0.2694
30155SOL     OW93962   1.836   1.001   3.800 -0.2384  0.1262 -0.1457
30155SOL    HW193963   1.841   0.906   3.808 -2.6097 -0.0682 -0.1614
30155SOL    HW293964   1.815   1.032   3.888 -2.5139  0.2926 -0.6942
30156SOL     OW93965  10.780   4.742   7.188 -0.0378  0.4424  0.2170
30156SOL    HW193966  10.689   4.766   7.173 -0.7137 -1.0264  1.6652
30156SOL    HW293967  10.781   4.703   7.275  1.9683  0.3430  0.2063
30157SOL     OW93968   9.148   3.798   8.831  0.2347 -0.1609 -0.1545
30157SOL    HW193969   9.102   3.868   8.786 -0.4296 -0.0759  0.6363
30157SOL    HW293970   9.239   3.806   8.802  0.6032  2.3306  1.4592
30158SOL     OW93971   3.528   9.110   7.936  0.0557 -0.2657 -0.0007
30158SOL    HW193972   3.621   9.090   7.944 -0.2834 -1.3981  1.3869
30158SOL    HW293973   3.522   9.163   7.856  1.6846 -1.4403 -0.9724
30159SOL     OW93974   4.731   4.183   2.555 -0.1849 -0.1150  0.2444
30159SOL    HW193975   4.788   4.256   2.579  0.4822 -0.9381  1.2818
30159SOL    HW293976   4.769   4.149   2.474 -0.0864  0.2466  0.1327
30160SOL     OW93977   2.032   4.430   7.155 -0.0382  0.3513  0.2545
30160SOL    HW193978   2.100   4.478   7.109  0.0700 -0.1997 -0.1670
30160SOL    HW293979   1.980   4.498   7.199 -0.2615  0.8990 -0.8328
30161SOL     OW93980   1.139  10.585   6.461  0.2398 -0.1351  0.1243
30161SOL    HW193981   1.068  10.537   6.418  1.2049 -0.4772 -1.1190
30161SOL    HW293982   1.095  10.631   6.533 -1.1232 -0.8984 -0.1741
30162SOL     OW93983   1.398   3.105   8.774 -0.0362 -0.5321  0.0581
30162SOL    HW193984   1.390   3.179   8.714 -0.2046  0.9733  1.8407
30162SOL    HW293985   1.454   3.137   8.844 -2.1008 -1.1877  2.1523
30163SOL     OW93986   9.693   1.143  10.203 -0.4585  0.1207  0.2671
30163SOL    HW193987   9.667   1.106  10.118 -0.7565 -0.1789  0.4830
30163SOL    HW293988   9.616   1.130  10.258 -0.5039  0.9139  0.4037
30164SOL     OW93989   7.343   6.488   1.305 -0.2540  0.4245  0.2447
30164SOL    HW193990   7.272   6.517   1.362 -0.5775 -0.1833  0.1556
30164SOL    HW293991   7.404   6.562   1.303 -1.2715  1.2632 -0.3429
30165SOL     OW93992   4.833   0.906   5.069 -0.0389 -0.1648  0.2311
30165SOL    HW193993   4.894   0.843   5.107 -0.4399 -0.2973  0.6548
30165SOL    HW293994   4.778   0.854   5.010  1.1709  0.1795 -1.2803
30166SOL     OW93995   7.776   5.582   3.631  0.0774 -0.0801 -0.2979
30166SOL    HW193996   7.845   5.544   3.577  1.1468  0.4470  0.6796
30166SOL    HW293997   7.729   5.641   3.572  0.5443 -0.3365 -0.9351
30167SOL     OW93998   6.787  10.630   3.158 -0.8067 -0.2345  0.0586
30167SOL    HW193999   6.777  10.599   3.248  0.3635 -0.9205 -0.0287
30167SOL    HW294000   6.730  10.572   3.107  0.2454 -1.3446  0.0882
30168SOL     OW94001   8.182   0.651   0.740  0.1919 -0.2043  0.2405
30168SOL    HW194002   8.158   0.728   0.792  1.0652 -0.3874  0.9252
30168SOL    HW294003   8.102   0.629   0.692 -0.0978  1.0674  0.1076
30169SOL     OW94004   5.560   8.280   1.879 -0.0288 -0.0838 -0.1069
30169SOL    HW194005   5.572   8.261   1.972 -1.8080  0.7914  0.3676
30169SOL    HW294006   5.550   8.376   1.876  0.7676 -0.0197 -1.3162
30170SOL     OW94007   4.124   7.566   4.839 -0.4154 -0.4118 -0.1292
30170SOL    HW194008   4.118   7.661   4.852 -0.8365 -0.7025  2.3243
30170SOL    HW294009   4.036   7.533   4.858 -0.0507 -1.3638 -0.0063
30171SOL     OW94010   3.110   0.583   5.857 -0.6320 -0.0187 -1.1090
30171SOL    HW194011   3.052   0.608   5.929  1.2499  0.0010  0.4932
30171SOL    HW294012   3.140   0.667   5.821 -0.1106 -0.0112 -0.6622
30172SOL     OW94013   7.619   8.744   9.092 -0.4439 -0.1579 -0.6273
30172SOL    HW194014   7.632   8.649   9.096 -0.2150 -0.1515 -1.1041
30172SOL    HW294015   7.531   8.754   9.055 -1.7401 -0.1949  2.1589
30173SOL     OW94016   6.411  10.621   4.160  0.0039 -0.2236  0.2041
30173SOL    HW194017   6.427  10.544   4.105  1.7389 -0.9274  1.5982
30173SOL    HW294018   6.317  10.617   4.180  0.1660 -2.4271  0.8299
30174SOL     OW94019   7.006   3.518   7.828  0.4906 -0.2601  0.4715
30174SOL    HW194020   7.061   3.450   7.789 -0.8441 -0.8675 -0.4262
30174SOL    HW294021   6.991   3.487   7.918  5.4686  2.2684  2.5024
30175SOL     OW94022   8.474   1.056   8.148  0.0097  0.0284  0.3290
30175SOL    HW194023   8.396   1.036   8.097 -0.3311  0.1330  0.8100
30175SOL    HW294024   8.481   1.152   8.144  0.5155 -0.0202 -0.2962
30176SOL     OW94025  10.476   4.693   1.585  0.3930 -0.4208  0.1834
30176SOL    HW194026  10.420   4.770   1.583  0.2032 -0.5190  1.2404
30176SOL    HW294027  10.563   4.727   1.608  0.2104 -0.5621  1.1240
30177SOL     OW94028   7.784   8.646  10.603 -0.4896 -0.0984  0.3977
30177SOL    HW194029   7.874   8.676  10.591 -0.8633  0.7381 -0.3840
30177SOL    HW294030   7.775   8.574  10.540 -0.5173  0.1242  0.1501
30178SOL     OW94031   6.186   4.077   9.170  0.5099  0.3163 -0.3455
30178SOL    HW194032   6.135   4.064   9.250  0.4670 -0.3446 -0.4711
30178SOL    HW294033   6.277   4.084   9.200  0.7540 -1.9511 -0.3483
30179SOL     OW94034   7.354   3.396   7.509  0.1565  0.1923 -0.1766
30179SOL    HW194035   7.274   3.398   7.561 -0.2505 -0.4921 -0.7606
30179SOL    HW294036   7.392   3.484   7.520 -1.2348  0.9008 -0.7539
30180SOL     OW94037   2.999   7.667   4.561  0.0296  0.0832 -0.5995
30180SOL    HW194038   2.922   7.659   4.617  1.2841  0.2828  1.2432
30180SOL    HW294039   3.057   7.597   4.591  1.9973  2.0789  0.5056
30181SOL     OW94040   5.720   5.578   4.181  0.2947 -0.2643  0.2228
30181SOL    HW194041   5.693   5.486   4.188  0.5750 -0.3741 -0.0796
30181SOL    HW294042   5.797   5.575   4.125 -0.4870  0.3038 -0.9102
30182SOL     OW94043   8.522  10.692   7.189 -0.2216  0.2856 -0.4368
30182SOL    HW194044   8.576  10.622   7.151 -0.5912 -1.4825  2.0102
30182SOL    HW294045   8.432  10.661   7.178 -0.3339 -0.3791  1.8513
30183SOL     OW94046   5.917   3.912   6.938 -0.2468  0.5248  0.6787
30183SOL    HW194047   5.979   3.984   6.933  0.7763 -0.3605  0.1267
30183SOL    HW294048   5.964   3.843   6.984 -1.0523  0.0523  0.8184
30184SOL     OW94049   0.123  10.660   2.616 -0.1102 -0.6271 -0.6336
30184SOL    HW194050   0.180  10.625   2.685  0.0524  0.8257  0.0236
30184SOL    HW294051   0.039  10.615   2.629  0.3486 -1.4416 -0.4368
30185SOL     OW94052  10.338   8.017   5.453  0.1316 -0.5177  0.4650
30185SOL    HW194053  10.346   8.043   5.362  0.0928 -2.1702 -0.0480
30185SOL    HW294054  10.328   8.099   5.501 -1.5861  0.2994 -1.1837
30186SOL     OW94055   5.157   5.808   2.079 -0.9609 -0.7090 -0.6797
30186SOL    HW194056   5.222   5.819   2.148 -2.0915 -0.9555  0.4573
30186SOL    HW294057   5.088   5.871   2.100 -0.6652  0.2699 -2.4342
30187SOL     OW94058   0.744  10.600   4.641  0.4811 -0.7213 -0.2434
30187SOL    HW194059   0.774  10.539   4.573 -1.4153 -3.2591  1.0266
30187SOL    HW294060   0.691  10.546   4.699 -2.0852  2.3544  0.5467
30188SOL     OW94061   3.974   1.916   2.933 -0.4958  0.1877  0.0940
30188SOL    HW194062   4.008   1.859   2.864 -0.5391 -0.6071  0.7130
30188SOL    HW294063   4.052   1.947   2.979 -0.4285  1.2020 -0.6609
30189SOL     OW94064   7.221   4.525   2.451 -0.0133  0.0089  0.2764
30189SOL    HW194065   7.229   4.431   2.434  0.5284 -0.0616  0.8939
30189SOL    HW294066   7.207   4.564   2.365 -0.8196 -0.6919  0.0706
30190SOL     OW94067   4.120   3.919   0.110 -0.3973 -1.0170  0.7945
30190SOL    HW194068   4.190   3.947   0.168 -0.3166  0.6974 -0.0318
30190SOL    HW294069   4.156   3.845   0.061  1.3152  0.5048 -0.3992
30191SOL     OW94070   1.436   5.129   9.707 -0.3095 -0.6648  0.4278
30191SOL    HW194071   1.462   5.111   9.797  2.4444 -0.0023 -0.1449
30191SOL    HW294072   1.499   5.080   9.653 -1.7912 -0.9238 -1.1656
30192SOL     OW94073   5.081   8.310  10.532  0.6015 -0.0720  0.6638
30192SOL    HW194074   5.023   8.269  10.468  0.9273  1.9428 -1.0080
30192SOL    HW294075   5.165   8.318  10.487  0.7495  1.6811  1.1676
30193SOL     OW94076   5.240   7.309   7.228  0.0254  0.6481 -0.1479
30193SOL    HW194077   5.190   7.381   7.264  0.2323  0.4675  0.5283
30193SOL    HW294078   5.174   7.247   7.196 -0.1524  1.0673 -0.6170
30194SOL     OW94079   7.439   5.691   0.250 -0.1721 -0.9105 -0.3409
30194SOL    HW194080   7.381   5.736   0.311  0.1953  0.8958 -1.2681
30194SOL    HW294081   7.527   5.720   0.273 -0.0386 -0.0243 -1.8251
30195SOL     OW94082   2.506   5.167  10.639  0.1184 -0.6310  0.2271
30195SOL    HW194083   2.432   5.133  10.689 -1.6535  1.3004 -0.8975
30195SOL    HW294084   2.471   5.245  10.596  2.7555  0.1796 -0.6141
30196SOL     OW94085   3.703   9.154   0.758 -0.3077 -0.3342  0.3642
30196SOL    HW194086   3.769   9.146   0.827  0.8589 -1.1161 -0.7839
30196SOL    HW294087   3.681   9.064   0.735  0.7284 -0.1603 -1.5307
30197SOL     OW94088   2.939   8.318   4.683 -0.5307  0.2049  0.1409
30197SOL    HW194089   2.899   8.345   4.599 -0.3411 -0.3336 -0.1241
30197SOL    HW294090   2.894   8.372   4.748  0.0378  1.3886 -0.4043
30198SOL     OW94091   7.310   5.730   3.663  0.7625 -0.5378 -0.0743
30198SOL    HW194092   7.348   5.766   3.582 -0.3667 -0.2870 -0.4998
30198SOL    HW294093   7.381   5.736   3.727  0.9140  1.6031 -0.3613
30199SOL     OW94094   3.923   1.574   9.828  0.0622  0.5308  0.0584
30199SOL    HW194095   3.988   1.618   9.882  0.2193  0.6976 -0.2631
30199SOL    HW294096   3.845   1.629   9.834 -0.4166 -0.2450  1.3343
30200SOL     OW94097   2.437  10.359   4.350  0.2856 -0.1628 -0.0097
30200SOL    HW194098   2.480  10.342   4.267  0.0044 -0.1982 -0.1499
30200SOL    HW294099   2.508  10.357   4.415  0.6829  1.0882 -0.3919
30201SOL     OW94100   7.756   7.382   2.956 -0.3887 -0.7846 -0.2703
30201SOL    HW194101   7.675   7.362   3.002 -0.2917  1.3042  0.8876
30201SOL    HW294102   7.756   7.477   2.947  1.9683 -0.7240 -0.1751
30202SOL     OW94103   9.176  10.304   7.116 -0.4904  0.3023 -0.2853
30202SOL    HW194104   9.195  10.368   7.185 -0.1181  0.7661 -0.8112
30202SOL    HW294105   9.149  10.357   7.041 -0.0025 -0.1460 -0.7854
30203SOL     OW94106   5.227   2.393   4.858 -0.1952 -0.7663  0.8619
30203SOL    HW194107   5.240   2.477   4.902 -0.8239  0.3128 -0.9025
30203SOL    HW294108   5.306   2.381   4.805 -1.3530  0.3082 -1.2642
30204SOL     OW94109   4.901   1.744   4.126 -0.1379 -0.0117 -0.2224
30204SOL    HW194110   4.911   1.838   4.143 -0.9272 -0.1668  1.2348
30204SOL    HW294111   4.991   1.710   4.124  0.1190  0.6159  0.2721
30205SOL     OW94112  10.195   8.052   8.664 -0.8633  0.8108  0.2352
30205SOL    HW194113  10.270   8.076   8.719  0.2242 -1.0130 -0.3604
30205SOL    HW294114  10.145   7.991   8.718 -1.3670  1.2119  0.2338
30206SOL     OW94115   0.154   1.658   3.770 -0.3841 -0.1636 -0.2562
30206SOL    HW194116   0.137   1.669   3.864  0.0482 -0.5266 -0.1303
30206SOL    HW294117   0.067   1.655   3.730 -0.6334 -1.6305  0.3302
30207SOL     OW94118   5.893   2.041   2.390  0.5975  0.5460  0.3880
30207SOL    HW194119   5.809   2.033   2.434 -0.3970 -1.5393 -1.6895
30207SOL    HW294120   5.947   2.091   2.451 -2.1795  2.2400  1.6723
30208SOL     OW94121  10.680   4.844   1.605  0.0216  0.3474 -0.0106
30208SOL    HW194122  10.740   4.847   1.680 -1.0422 -1.9696  1.0289
30208SOL    HW294123  10.679   4.934   1.572  1.6605  1.1221  1.8275
30209SOL     OW94124   9.259   6.935   0.472  0.2985 -0.5766  0.3064
30209SOL    HW194125   9.291   6.870   0.410 -0.6590 -1.8664  1.1067
30209SOL    HW294126   9.170   6.955   0.444  0.1410 -0.5605  0.8030
30210SOL     OW94127   4.554   7.221   6.250 -0.1671  0.4256  0.7548
30210SOL    HW194128   4.504   7.233   6.169 -0.3861  0.5214  0.9036
30210SOL    HW294129   4.626   7.163   6.225  0.4650  1.4275  0.2132
30211SOL     OW94130   5.203   1.374   3.534 -0.1230  0.1529 -0.3731
30211SOL    HW194131   5.177   1.410   3.619  0.2867 -3.4872  1.4940
30211SOL    HW294132   5.247   1.446   3.490 -1.8963  2.7098  1.7327
30212SOL     OW94133  10.949   9.299   3.523 -0.4030 -0.0832 -0.4352
30212SOL    HW194134  10.894   9.354   3.579  0.8552  0.6867  0.0865
30212SOL    HW294135  10.906   9.301   3.437 -1.0394  0.7157 -0.1084
30213SOL     OW94136   5.485   1.281   4.595  0.2310 -0.6440  0.2071
30213SOL    HW194137   5.563   1.286   4.538 -0.1846  0.0586 -0.3103
30213SOL    HW294138   5.419   1.240   4.540  0.0720 -0.7355  0.4682
30214SOL     OW94139   2.885   9.202   0.332  0.0830 -0.2582 -1.0955
30214SOL    HW194140   2.926   9.116   0.341  0.6703  0.1581  0.5863
30214SOL    HW294141   2.802   9.195   0.379  0.0899  0.0659 -1.0308
30215SOL     OW94142   3.835   8.874   6.513  0.2489 -0.0327  0.3258
30215SOL    HW194143   3.827   8.955   6.563  1.6516 -1.4298  3.0698
30215SOL    HW294144   3.750   8.830   6.526  0.9674 -0.8955  2.6496
30216SOL     OW94145   1.960   0.133   2.624  0.0577  0.2419 -0.4135
30216SOL    HW194146   2.020   0.078   2.574  1.4515  0.9198  0.4272
30216SOL    HW294147   1.993   0.130   2.714 -3.0303 -1.8462  0.8214
30217SOL     OW94148   6.889   1.426   4.515 -0.0693 -0.3226  1.1277
30217SOL    HW194149   6.828   1.353   4.506  0.3327 -0.5200 -0.0914
30217SOL    HW294150   6.836   1.496   4.553 -1.1188 -0.4477 -0.0401
30218SOL     OW94151  10.724   7.581   6.969  0.4632 -0.4058 -0.3775
30218SOL    HW194152  10.790   7.543   7.028  0.4365  0.8715  0.5097
30218SOL    HW294153  10.755   7.557   6.881  1.0005 -1.5601  0.0959
30219SOL     OW94154   8.941   7.496   0.990  0.1618  0.5126 -0.5578
30219SOL    HW194155   8.860   7.449   1.011  1.9738 -1.7109  2.2681
30219SOL    HW294156   8.975   7.452   0.912 -0.6603  0.5667 -0.9534
30220SOL     OW94157   5.264   5.063   1.553 -0.0429 -0.1220 -0.3921
30220SOL    HW194158   5.260   4.968   1.545  1.0949 -0.3007  0.8003
30220SOL    HW294159   5.271   5.079   1.647  0.1011  1.1191 -0.5970
30221SOL     OW94160   7.849   1.086   3.707 -0.3305  0.3865  0.5719
30221SOL    HW194161   7.885   1.174   3.717  0.3415  0.0878  0.8034
30221SOL    HW294162   7.788   1.094   3.634  0.9808  0.6746 -0.5316
30222SOL     OW94163   5.483   2.999   4.500 -0.8239 -0.5391 -0.3773
30222SOL    HW194164   5.469   3.075   4.557  0.6952 -0.4786 -0.0587
30222SOL    HW294165   5.577   2.985   4.500 -0.9059 -1.3198 -1.9049
30223SOL     OW94166   3.061   4.377   3.257  0.2673  0.2252  0.9671
30223SOL    HW194167   2.990   4.440   3.269 -0.7591 -0.1410 -2.3103
30223SOL    HW294168   3.021   4.304   3.210  2.0904 -1.6207  2.0838
30224SOL     OW94169   9.050   8.844   8.146 -0.7105 -0.3818  0.3880
30224SOL    HW194170   9.135   8.831   8.103  0.4953  1.1855  2.1009
30224SOL    HW294171   9.049   8.780   8.217  0.2091  1.1628  1.8784
30225SOL     OW94172   2.516   7.658   9.161 -0.5955 -0.0957 -0.0607
30225SOL    HW194173   2.446   7.661   9.226  1.1581 -1.9670  2.0745
30225SOL    HW294174   2.501   7.577   9.113  0.4760 -0.9120  0.9330
30226SOL     OW94175   3.742   4.696   6.764 -0.3910 -0.0203 -0.2427
30226SOL    HW194176   3.665   4.750   6.781  0.3759  0.6433  1.3800
30226SOL    HW294177   3.793   4.746   6.700 -1.2811 -0.4787 -1.3457
30227SOL     OW94178   7.343   0.266   6.473 -0.2113 -0.4102  0.2731
30227SOL    HW194179   7.354   0.359   6.491  0.4481 -0.4938  0.3501
30227SOL    HW294180   7.352   0.224   6.559 -0.1426 -0.5725  0.1871
30228SOL     OW94181   0.564   5.325   2.087 -0.0739 -0.0449  0.0386
30228SOL    HW194182   0.520   5.341   2.171 -0.4261 -0.3324 -0.0891
30228SOL    HW294183   0.632   5.392   2.083  0.5489 -0.5935  0.9780
30229SOL     OW94184   0.229   5.632  10.683  0.6259  0.2404  0.0626
30229SOL    HW194185   0.232   5.704  10.620 -0.6053 -0.9853 -1.4494
30229SOL    HW294186   0.239   5.676  10.768  1.7803  1.9882 -0.8946
30230SOL     OW94187   0.828   0.142   5.807 -0.4424 -0.2882  0.3040
30230SOL    HW194188   0.876   0.067   5.773 -1.3386 -0.3931 -0.7452
30230SOL    HW294189   0.812   0.198   5.731 -1.1038  0.2378  0.8120
30231SOL     OW94190   8.482   4.136  10.241 -0.3298  0.2428  0.0564
30231SOL    HW194191   8.477   4.066  10.307  1.1231  0.2557  0.2107
30231SOL    HW294192   8.508   4.214  10.291 -4.8692  1.8258  0.4926
30232SOL     OW94193   4.238   0.238   7.288 -0.4454  0.3053  0.4406
30232SOL    HW194194   4.251   0.205   7.199 -2.0327  1.9393 -0.4570
30232SOL    HW294195   4.173   0.180   7.326 -1.1107  0.6676 -0.1245
30233SOL     OW94196   2.371   6.728   4.816 -0.2183 -0.1723 -0.3869
30233SOL    HW194197   2.387   6.788   4.889 -1.2527 -0.9687  0.5379
30233SOL    HW294198   2.458   6.699   4.790  0.2061  0.5580  0.1562
30234SOL     OW94199   7.366   5.760   7.303 -0.5125 -0.0173 -0.3480
30234SOL    HW194200   7.385   5.718   7.387  0.1723 -0.9775 -0.9596
30234SOL    HW294201   7.274   5.784   7.309 -0.4567  0.0086  0.7026
30235SOL     OW94202   9.860   2.775   0.876  0.0882 -0.8938  0.4704
30235SOL    HW194203   9.820   2.706   0.823 -1.4562 -3.0143  4.0289
30235SOL    HW294204   9.828   2.856   0.837 -0.3399 -2.2234 -2.1931
30236SOL     OW94205   6.639   2.621   1.995 -0.1768  0.4361  0.5972
30236SOL    HW194206   6.700   2.625   2.069 -1.6345  0.6902  1.8490
30236SOL    HW294207   6.557   2.591   2.034 -0.9171  0.3088 -0.9873
30237SOL     OW94208   7.602   7.151   9.728 -0.1152  0.1552 -0.1755
30237SOL    HW194209   7.624   7.148   9.635 -2.1663  0.9132 -0.7528
30237SOL    HW294210   7.672   7.102   9.771  0.7965 -0.3633 -2.1195
30238SOL     OW94211   0.055   2.371   3.269 -0.0390  0.2961 -0.0040
30238SOL    HW194212   0.020   2.451   3.230  0.8035  0.1204 -1.1557
30238SOL    HW294213   0.040   2.382   3.363 -4.3198 -0.2948 -0.4147
30239SOL     OW94214   7.032   2.334   0.797 -0.3886  0.0250  0.2398
30239SOL    HW194215   7.069   2.405   0.850 -2.5364 -0.1611  2.1266
30239SOL    HW294216   7.042   2.256   0.852 -0.5513 -0.6413 -0.6583
30240SOL     OW94217   6.987   9.359   5.065  0.1852  0.1816 -0.2012
30240SOL    HW194218   6.989   9.266   5.087 -0.3068  0.0583 -0.6653
30240SOL    HW294219   7.079   9.385   5.062  0.3161 -0.2163  0.2227
30241SOL     OW94220   0.096   1.746  10.093 -0.0195  0.4257 -0.4121
30241SOL    HW194221   0.050   1.817  10.050 -1.1504 -0.3771 -0.5898
30241SOL    HW294222   0.067   1.667  10.047 -0.5781 -0.3632  1.2071
30242SOL     OW94223   1.670   7.751  10.077  0.7111 -0.2725  0.6259
30242SOL    HW194224   1.634   7.662  10.076  0.8332 -0.3211  0.2046
30242SOL    HW294225   1.730   7.753  10.002  0.6838  0.1767  0.6150
30243SOL     OW94226   5.844   6.007  10.191 -0.1229  0.3601 -0.0403
30243SOL    HW194227   5.899   5.952  10.135 -0.0528 -1.7676  1.9960
30243SOL    HW294228   5.800   5.945  10.249 -2.0811  2.2906  0.6401
30244SOL     OW94229   0.910   8.260   8.497  0.6201 -0.4999  0.5089
30244SOL    HW194230   0.831   8.315   8.496  0.9693 -0.0023  0.0361
30244SOL    HW294231   0.937   8.254   8.405  2.1220  0.7870  0.8250
30245SOL     OW94232   5.371   5.990  10.342  0.6142 -0.4153  0.4239
30245SOL    HW194233   5.336   5.929  10.406 -0.9083 -0.3511 -0.3140
30245SOL    HW294234   5.320   6.070  10.355  0.8348 -0.1433 -0.3321
30246SOL     OW94235   1.953   5.162   2.047 -0.4317  0.4270 -0.0769
30246SOL    HW194236   2.021   5.214   2.091 -0.3096  0.8053 -0.6965
30246SOL    HW294237   2.001   5.112   1.980 -0.7442  0.6102 -0.4407
30247SOL     OW94238   8.601   0.144   8.968  0.2204  0.1950 -0.1115
30247SOL    HW194239   8.565   0.224   8.928  0.4979  0.6263  0.4873
30247SOL    HW294240   8.630   0.172   9.054  2.9941  0.1288 -0.9359
30248SOL     OW94241   9.458   5.392   1.081 -0.5239 -0.2083  0.2536
30248SOL    HW194242   9.439   5.322   1.019 -0.2351 -0.1091  0.0531
30248SOL    HW294243   9.553   5.401   1.081 -0.4230 -1.0135  1.6076
30249SOL     OW94244   6.680   4.968   0.442  0.0878 -0.1885 -0.2660
30249SOL    HW194245   6.675   4.964   0.538 -2.3703 -1.7074 -0.3699
30249SOL    HW294246   6.742   5.039   0.424  1.1266 -0.3022  2.4197
30250SOL     OW94247   4.521   9.223   2.539 -0.0337 -0.4149 -0.3031
30250SOL    HW194248   4.523   9.138   2.582  0.8756  0.1945  0.9093
30250SOL    HW294249   4.613   9.243   2.519 -0.0029  1.1301  1.2055
30251SOL     OW94250   8.198   8.218  10.866 -0.1812 -0.0402 -0.4246
30251SOL    HW194251   8.286   8.185  10.882 -0.1343  0.9713  1.7755
30251SOL    HW294252   8.208   8.280  10.795  0.5531 -1.1723 -1.3451
30252SOL     OW94253   9.364   6.298   9.941  0.4817 -0.6043  0.2928
30252SOL    HW194254   9.339   6.389   9.921 -2.1313 -1.4178 -0.4764
30252SOL    HW294255   9.414   6.270   9.864 -0.7837 -0.5477 -0.5743
30253SOL     OW94256   2.484   1.440   1.272  0.3286  0.7045 -0.0509
30253SOL    HW194257   2.503   1.485   1.355  0.3697 -1.5638  1.2455
30253SOL    HW294258   2.389   1.429   1.272  0.3984  0.0849  0.0433
30254SOL     OW94259   7.468   3.709   9.146 -0.5968 -0.1490  0.4783
30254SOL    HW194260   7.484   3.649   9.219 -2.0744  0.2438  1.1689
30254SOL    HW294261   7.383   3.749   9.166  0.0438  1.6968 -0.2891
30255SOL     OW94262  10.621   7.749   2.769 -0.5711 -1.3881 -0.2329
30255SOL    HW194263  10.596   7.840   2.753 -0.2885 -1.2389  0.1495
30255SOL    HW294264  10.598   7.734   2.860  2.4396 -0.6349  0.7737
30256SOL     OW94265   3.273   8.722   8.956  0.4165  0.5657 -0.4484
30256SOL    HW194266   3.313   8.780   9.022 -0.1803  1.7142 -1.0696
30256SOL    HW294267   3.180   8.723   8.977  0.3426  0.2003 -0.7589
30257SOL     OW94268   1.860   9.979   5.664  0.5933  0.7055 -0.2129
30257SOL    HW194269   1.927   9.913   5.646 -0.1469  0.1450 -1.0365
30257SOL    HW294270   1.779   9.939   5.632 -0.0397  1.5875  0.2629
30258SOL     OW94271   0.170   1.424   2.887  0.3840 -0.1486  0.0923
30258SOL    HW194272   0.179   1.375   2.805 -1.2487 -3.2862  1.5744
30258SOL    HW294273   0.176   1.357   2.956 -1.2021  1.8522  2.3817
30259SOL     OW94274   8.827   3.695  10.613 -0.4309 -0.6274 -0.7594
30259SOL    HW194275   8.858   3.606  10.596  0.8029 -0.5031  0.6651
30259SOL    HW294276   8.733   3.685  10.628  0.1214 -2.1963  2.3401
30260SOL     OW94277   6.936   5.503   7.871 -0.1977  0.3158  0.0796
30260SOL    HW194278   6.956   5.511   7.964 -1.2441  1.6211  0.2282
30260SOL    HW294279   6.999   5.439   7.838  2.1818  1.9935  1.0638
30261SOL     OW94280   5.723   4.568   7.422  0.7926 -0.4550 -0.0323
30261SOL    HW194281   5.648   4.624   7.401  1.1589 -0.3735 -1.1947
30261SOL    HW294282   5.705   4.486   7.377  0.0309 -1.4979  2.0569
30262SOL     OW94283   5.394   3.848   2.224 -0.3143  0.3886  0.3406
30262SOL    HW194284   5.465   3.808   2.274 -0.6830 -0.5878  0.1071
30262SOL    HW294285   5.340   3.891   2.290 -1.2477 -1.5702  0.9475
30263SOL     OW94286   7.806   7.905   6.626  0.6346  0.0954 -0.8431
30263SOL    HW194287   7.802   7.863   6.712 -0.6970  0.7392 -0.5538
30263SOL    HW294288   7.853   7.843   6.571  2.2331  0.0184  0.5293
30264SOL     OW94289   9.017   2.698   5.553 -0.6596 -0.0448 -0.2896
30264SOL    HW194290   8.945   2.666   5.499 -1.3407 -1.1419  1.1808
30264SOL    HW294291   9.063   2.619   5.580 -0.7664  0.4053  1.2865
30265SOL     OW94292   1.907   8.820   1.823  0.4296  0.2310 -0.2672
30265SOL    HW194293   1.861   8.752   1.776 -2.6068  2.7598 -1.2975
30265SOL    HW294294   1.865   8.822   1.909  0.2632  0.9758 -0.3589
30266SOL     OW94295   2.695   8.950   6.309  0.0944 -0.7369 -0.4850
30266SOL    HW194296   2.783   8.914   6.322  0.5942  0.8483  0.8770
30266SOL    HW294297   2.709   9.044   6.299 -1.5441 -0.2602  1.1809
30267SOL     OW94298   4.689  10.419   5.233  0.0153  0.7348  0.0293
30267SOL    HW194299   4.659  10.509   5.246  1.1836  1.1574 -0.1579
30267SOL    HW294300   4.750  10.404   5.305 -0.8870 -0.2503  0.6230
30268SOL     OW94301   6.011   0.355   3.597  0.2841  0.3949 -0.6844
30268SOL    HW194302   5.929   0.394   3.569 -0.7796  0.7054  2.4461
30268SOL    HW294303   6.066   0.430   3.623  0.0878  0.0763  0.7401
30269SOL     OW94304   4.117   8.242   9.186  0.0224  0.1457  0.6773
30269SOL    HW194305   4.203   8.240   9.143 -0.8918 -1.9472 -1.2546
30269SOL    HW294306   4.133   8.203   9.272  0.9506 -0.6307  0.1828
30270SOL     OW94307   0.790  10.926   9.431  0.5037 -0.3126 -0.0458
30270SOL    HW194308   0.834  10.875   9.363  0.3347 -1.8735  0.9530
30270SOL    HW294309   0.861  10.969   9.478  0.7147 -0.2517 -0.4154
30271SOL     OW94310   6.400   4.157   2.214 -0.0652  0.4142 -0.6645
30271SOL    HW194311   6.372   4.112   2.293 -1.0204 -0.4225 -1.4549
30271SOL    HW294312   6.339   4.230   2.204  0.0066  0.4742 -0.6660
30272SOL     OW94313  10.005   5.804  10.270 -0.1532 -0.5868 -0.0739
30272SOL    HW194314   9.987   5.731  10.330 -1.2968  0.5727  1.0520
30272SOL    HW294315   9.918   5.838  10.248  0.2674 -0.6981 -2.0835
30273SOL     OW94316   5.428   2.762   7.779 -0.1512 -0.3342 -0.0813
30273SOL    HW194317   5.474   2.777   7.696 -0.4793  1.7420  0.0399
30273SOL    HW294318   5.354   2.706   7.757  0.6693 -1.1460 -0.8610
30274SOL     OW94319  10.789   5.895   6.895  0.1466  0.6192  0.2642
30274SOL    HW194320  10.700   5.925   6.875  0.5541  0.8228 -1.4403
30274SOL    HW294321  10.804   5.923   6.985 -1.5044  0.5839  0.5860
30275SOL     OW94322   0.778   3.834   3.350 -0.4816 -0.0139  0.1886
30275SOL    HW194323   0.765   3.838   3.445  1.6773  1.8149  0.4938
30275SOL    HW294324   0.707   3.887   3.314 -0.3850  0.6199  0.9118
30276SOL     OW94325   2.031   3.562   4.548 -0.6361  0.4169 -0.7782
30276SOL    HW194326   2.064   3.625   4.484 -2.0097  1.4195 -0.5445
30276SOL    HW294327   2.088   3.572   4.624 -1.9761  2.8676  0.0184
30277SOL     OW94328   6.933   2.333   5.921  0.8043  0.1443 -0.3536
30277SOL    HW194329   6.980   2.417   5.918 -0.2787  0.7514 -1.5986
30277SOL    HW294330   6.890   2.333   6.007  3.5007 -0.7443  1.1237
30278SOL     OW94331   4.987   1.129   7.259 -0.0230  0.5265 -0.4536
30278SOL    HW194332   4.959   1.162   7.173  1.3620  0.0212 -1.1367
30278SOL    HW294333   4.987   1.034   7.248 -0.9691  0.4030  0.5014
30279SOL     OW94334   1.284   8.808   7.460  0.0080  0.7207  0.6419
30279SOL    HW194335   1.354   8.863   7.495  0.4447 -0.3003  1.3992
30279SOL    HW294336   1.303   8.720   7.493 -1.2563  0.3004  0.2967
30280SOL     OW94337   6.764   1.335   9.383  0.1509 -0.0528  0.5176
30280SOL    HW194338   6.782   1.289   9.465  0.0748  0.0626  0.5988
30280SOL    HW294339   6.682   1.298   9.352  0.0675  0.0598  0.6051
30281SOL     OW94340   3.182   3.310   4.347 -0.7627 -0.1912 -0.3076
30281SOL    HW194341   3.177   3.325   4.252 -3.0750 -1.9068 -0.5544
30281SOL    HW294342   3.257   3.253   4.359  0.6224  1.4198 -0.8227
30282SOL     OW94343   8.186   5.965   3.020 -0.3849 -0.4505 -0.1262
30282SOL    HW194344   8.266   6.014   3.002 -0.7557  0.7811  1.4037
30282SOL    HW294345   8.200   5.926   3.106 -1.0752 -0.9980 -0.2554
30283SOL     OW94346   0.594   5.280   8.120  0.6066 -0.4313  0.0449
30283SOL    HW194347   0.605   5.257   8.212  1.7168 -0.6515 -0.1317
30283SOL    HW294348   0.546   5.364   8.122 -0.4947 -1.0488  0.7644
30284SOL     OW94349   4.966   2.465   8.389  0.2786 -0.0406 -0.7617
30284SOL    HW194350   5.029   2.473   8.461 -0.0393 -0.3561 -0.4437
30284SOL    HW294351   4.962   2.372   8.371 -0.2884 -0.0523 -0.6043
30285SOL     OW94352   9.311   5.100   7.077  0.0271 -0.5674 -0.0821
30285SOL    HW194353   9.333   5.062   7.162  0.4090 -0.5537 -0.1750
30285SOL    HW294354   9.224   5.065   7.057 -0.5849  0.3438  0.8615
30286SOL     OW94355   4.141   4.106   8.277 -0.2550  0.5946  0.0336
30286SOL    HW194356   4.080   4.059   8.220  0.0309 -0.4220  0.5466
30286SOL    HW294357   4.162   4.043   8.347 -1.6100  2.1953  2.0035
30287SOL     OW94358  10.275   2.117   4.934  0.6086 -0.2769  0.2234
30287SOL    HW194359  10.212   2.179   4.898  2.8930  0.4663 -2.9353
30287SOL    HW294360  10.233   2.031   4.923 -1.5158  0.4072  2.2496
30288SOL     OW94361   0.985   8.206   5.979 -0.5921  0.3019  0.7745
30288SOL    HW194362   0.975   8.231   6.071  0.4092 -2.3707  1.7179
30288SOL    HW294363   0.963   8.112   5.977  0.6263 -0.0164 -1.4488
30289SOL     OW94364   0.144   9.189   9.291  0.0087  0.1838 -0.1653
30289SOL    HW194365   0.125   9.283   9.300  0.2283  0.1069  1.2394
30289SOL    HW294366   0.216   9.173   9.352 -1.3541 -1.2963  1.1306
30290SOL     OW94367   9.623   5.064   3.467  0.3104 -0.1561  0.4332
30290SOL    HW194368   9.678   5.142   3.462  0.4385 -0.2141  0.9700
30290SOL    HW294369   9.551   5.082   3.406  2.1833 -1.1032 -2.2759
30291SOL     OW94370   1.279   9.043   5.054 -0.4902 -0.4574 -0.2034
30291SOL    HW194371   1.193   9.079   5.073  0.1139 -0.3586  2.8794
30291SOL    HW294372   1.329   9.116   5.019 -0.9810  0.1346  0.3165
30292SOL     OW94373   5.045   0.735   7.274 -0.1473  0.0389 -0.0806
30292SOL    HW194374   5.009   0.689   7.198  1.2866 -0.3096 -0.5790
30292SOL    HW294375   5.130   0.768   7.245  1.1369 -1.3860  1.7706
30293SOL     OW94376   6.684   2.972  10.789 -0.2365 -0.4255 -0.6580
30293SOL    HW194377   6.709   2.990  10.698 -2.5015 -1.4551 -1.5862
30293SOL    HW294378   6.760   2.998  10.841  0.4793  1.8765 -2.6638
30294SOL     OW94379   5.758   5.373   0.356 -0.1902  0.2165  0.2598
30294SOL    HW194380   5.830   5.310   0.364  1.0746  1.6823  0.8895
30294SOL    HW294381   5.727   5.386   0.446 -0.9841 -0.0746  0.0418
30295SOL     OW94382   6.074   7.143   1.191  0.6270 -0.0557  0.5668
30295SOL    HW194383   6.015   7.069   1.177  1.1213 -0.1579 -1.2007
30295SOL    HW294384   6.113   7.126   1.277 -0.6503 -0.8436  1.0249
30296SOL     OW94385   1.069   2.088   5.446 -0.5650 -0.2452 -0.1555
30296SOL    HW194386   0.999   2.130   5.395  0.6546 -1.1156 -2.6861
30296SOL    HW294387   1.022   2.027   5.503 -2.0924  1.8631  0.9937
30297SOL     OW94388   9.749   3.978   9.173  0.1122  0.0380  0.4011
30297SOL    HW194389   9.821   4.030   9.135 -0.8641  1.9728  1.0525
30297SOL    HW294390   9.788   3.893   9.192  2.3546  1.1458  1.1019
30298SOL     OW94391   6.112   1.569   4.143 -0.3148  0.3289 -0.4882
30298SOL    HW194392   6.104   1.628   4.218 -0.9622 -0.2415 -0.0975
30298SOL    HW294393   6.040   1.594   4.085 -2.1644 -1.6331  0.8023
30299SOL     OW94394   7.996   0.166   8.872  0.0628  0.1799 -0.1922
30299SOL    HW194395   8.082   0.142   8.838  0.5652  0.9269  0.5129
30299SOL    HW294396   7.950   0.083   8.881  0.9561 -0.3046  0.0502
30300SOL     OW94397   8.775   0.514   3.911  0.4601  0.5027 -0.6843
30300SOL    HW194398   8.697   0.540   3.961  0.1414 -1.6270  0.0236
30300SOL    HW294399   8.849   0.541   3.966  0.1196 -1.7022  0.9787
30301SOL     OW94400   5.837   6.823   6.994 -0.5523  0.1191  0.3869
30301SOL    HW194401   5.811   6.871   6.916 -2.9968 -0.4938  0.7535
30301SOL    HW294402   5.847   6.733   6.965  0.8131  0.2588  0.3591
30302SOL     OW94403   3.998   5.720   9.320  0.0254  0.2801  0.0948
30302SOL    HW194404   4.061   5.787   9.346  0.9671 -0.8773  0.8868
30302SOL    HW294405   4.042   5.670   9.252 -0.5105  0.1851 -0.1905
30303SOL     OW94406   7.884   3.282   1.334 -0.0012 -0.5572  0.2822
30303SOL    HW194407   7.896   3.288   1.428 -2.3072  1.0543  0.5540
30303SOL    HW294408   7.818   3.348   1.314  0.9268 -0.3500 -2.5745
30304SOL     OW94409   7.850  10.422   4.830 -0.0711 -0.3722  0.1599
30304SOL    HW194410   7.876  10.384   4.746 -0.0421  0.9198 -0.4392
30304SOL    HW294411   7.761  10.453   4.816 -0.1728 -0.4249  0.6954
30305SOL     OW94412   2.210  10.930   7.566 -0.2901 -0.1907 -0.3163
30305SOL    HW194413   2.245  10.875   7.636 -0.2942  0.0842 -0.0977
30305SOL    HW294414   2.287  10.958   7.516 -0.2486 -0.0493 -0.1739
30306SOL     OW94415   7.127  10.011   9.751  0.4002 -0.3812 -0.1846
30306SOL    HW194416   7.105  10.077   9.817  1.9239  0.6794 -0.6611
30306SOL    HW294417   7.201  10.050   9.703  1.1343 -2.3089 -0.7020
30307SOL     OW94418   8.529   9.416   8.634 -0.2276  0.1064 -0.1743
30307SOL    HW194419   8.510   9.419   8.540  1.3853 -0.0290 -0.5302
30307SOL    HW294420   8.444   9.430   8.676 -1.0211 -0.1116 -1.6456
30308SOL     OW94421   9.894   9.271   2.562 -0.3620 -0.2849  0.6250
30308SOL    HW194422   9.840   9.283   2.640  1.1557 -2.3664  2.0907
30308SOL    HW294423   9.832   9.249   2.492 -1.5527 -1.0319  1.8802
30309SOL     OW94424   7.736   8.048   6.982 -0.3346  0.2398  0.0196
30309SOL    HW194425   7.702   8.132   6.952 -0.7098  0.1819  0.2823
30309SOL    HW294426   7.831   8.054   6.966 -0.2752  0.9386  0.5721
30310SOL     OW94427   9.889   8.178   5.816 -0.7272  0.2170 -0.2040
30310SOL    HW194428   9.934   8.125   5.882  0.5977  3.1457  1.4222
30310SOL    HW294429   9.798   8.149   5.820 -0.0334 -2.1079  0.3145
30311SOL     OW94430   1.846  10.611   1.424  0.3555  0.6300  0.4296
30311SOL    HW194431   1.857  10.664   1.345  2.5907 -0.4299 -0.0463
30311SOL    HW294432   1.800  10.532   1.395  2.7772 -0.6121 -0.3122
30312SOL     OW94433   0.347   7.732   5.201  0.2561 -0.2451 -0.0976
30312SOL    HW194434   0.356   7.825   5.221 -1.0407  0.3629 -2.0974
30312SOL    HW294435   0.259   7.710   5.229 -0.2659 -0.2727 -1.6775
30313SOL     OW94436   8.666   4.754   9.875 -0.1445  0.0903  0.4142
30313SOL    HW194437   8.639   4.788   9.790 -1.4809 -0.3037  0.6456
30313SOL    HW294438   8.655   4.659   9.868  0.0478  0.0245  0.9198
30314SOL     OW94439   2.488   7.874  10.202 -0.2572 -0.3522 -0.0899
30314SOL    HW194440   2.401   7.915  10.200 -0.3073 -0.4182  0.5367
30314SOL    HW294441   2.519   7.887  10.292 -0.0296 -1.1739 -0.0386
30315SOL     OW94442   8.726   8.360   1.833  0.3653 -0.0415  0.2542
30315SOL    HW194443   8.676   8.331   1.909 -0.8257 -0.1425 -0.5425
30315SOL    HW294444   8.660   8.386   1.769  1.3540  0.5264 -0.5609
30316SOL     OW94445   6.384   1.494   9.323  0.0073 -0.1830  0.7737
30316SOL    HW194446   6.348   1.406   9.314 -0.6272  0.0512  0.9431
30316SOL    HW294447   6.324   1.550   9.272  0.4821  0.1271  0.5530
30317SOL     OW94448   2.200   6.653   8.157  0.1253  0.1637 -0.1465
30317SOL    HW194449   2.165   6.573   8.196  2.2211 -0.3757  0.7946
30317SOL    HW294450   2.272   6.623   8.102  0.1785  1.3209 -0.7343
30318SOL     OW94451   9.357  10.767   9.486  0.8953 -0.0782 -0.1514
30318SOL    HW194452   9.328  10.764   9.394  0.0536  1.2924  0.0303
30318SOL    HW294453   9.345  10.859   9.511  3.0034 -0.0031  0.7459
30319SOL     OW94454   4.816   0.969   4.344 -0.2671  0.0076 -0.1802
30319SOL    HW194455   4.844   0.944   4.432 -1.5418 -0.0734  0.2238
30319SOL    HW294456   4.750   1.036   4.358 -1.1454 -0.6466 -1.0261
30320SOL     OW94457  10.205   4.764   5.763 -0.6088  0.0638 -0.6909
30320SOL    HW194458  10.254   4.771   5.681 -0.1613  1.0474 -0.3551
30320SOL    HW294459  10.263   4.713   5.820 -0.6652 -0.1208 -0.7965
30321SOL     OW94460   8.108   3.403   3.576  0.0679  0.5612 -0.1289
30321SOL    HW194461   8.021   3.402   3.615 -0.7152  2.1558 -1.7306
30321SOL    HW294462   8.132   3.495   3.573  1.8544  0.1496  0.2870
30322SOL     OW94463   6.477  10.072   4.908 -0.5985  0.2658  0.2310
30322SOL    HW194464   6.548  10.071   4.972  0.3184  3.1610 -0.5508
30322SOL    HW294465   6.512  10.025   4.832 -0.4315 -0.3411  0.6771
30323SOL     OW94466   4.056   6.986   1.952 -0.1443  0.0613  0.0451
30323SOL    HW194467   3.980   7.012   1.900  0.8375  0.9631 -1.0099
30323SOL    HW294468   4.064   6.892   1.937 -1.3123 -0.1357  0.5576
30324SOL     OW94469   8.442   3.197   1.447  0.4194  0.1375  0.2159
30324SOL    HW194470   8.400   3.114   1.467 -2.0626  1.5875  1.5355
30324SOL    HW294471   8.530   3.189   1.484  0.2816 -1.9143  0.1920
30325SOL     OW94472   9.200   8.931  10.552  0.0720  0.4626 -0.2756
30325SOL    HW194473   9.118   8.980  10.549  0.0164  0.3282 -1.2566
30325SOL    HW294474   9.181   8.849  10.508  0.6291  0.2530 -0.1411
30326SOL     OW94475   8.047   5.376   1.613 -0.3221 -0.1897 -0.2522
30326SOL    HW194476   8.111   5.320   1.569 -0.0779  0.7009 -1.0678
30326SOL    HW294477   8.097   5.425   1.678 -0.4737 -0.6615  0.2249
30327SOL     OW94478  10.817   8.146   0.177  0.1583 -0.0191  0.3410
30327SOL    HW194479  10.894   8.110   0.132 -0.3611 -1.3744  0.4887
30327SOL    HW294480  10.812   8.096   0.258 -0.0729  1.0441  0.9927
30328SOL     OW94481   2.417   4.834   5.372  0.2808  0.0408  0.1099
30328SOL    HW194482   2.372   4.863   5.452  1.7838 -1.6063  1.6239
30328SOL    HW294483   2.507   4.864   5.383  0.4892 -0.1225 -1.0285
30329SOL     OW94484   4.546   9.241   3.204 -0.2198 -0.6895 -0.4519
30329SOL    HW194485   4.633   9.249   3.165 -0.4454  0.0045 -0.8158
30329SOL    HW294486   4.557   9.277   3.292 -0.7351  1.9564 -1.3800
30330SOL     OW94487   9.816   2.402   2.715  0.0869  0.0183 -0.0163
30330SOL    HW194488   9.836   2.394   2.622  0.3296 -0.2781  0.0602
30330SOL    HW294489   9.867   2.478   2.744  0.0982  0.0439 -0.1029
30331SOL     OW94490   7.057   7.031   0.807  0.7693  0.0697  0.6643
30331SOL    HW194491   7.015   6.978   0.874  1.3238 -0.0310  0.9409
30331SOL    HW294492   7.150   7.029   0.830  0.7074  1.8757  1.1807
30332SOL     OW94493   8.150   2.710   8.692 -0.4082  0.0845  0.4250
30332SOL    HW194494   8.132   2.647   8.622 -2.1404  1.3035 -0.2913
30332SOL    HW294495   8.246   2.710   8.699 -0.1679 -0.1441 -1.8948
30333SOL     OW94496   4.283   3.741   9.411 -0.1199  0.0185 -0.0602
30333SOL    HW194497   4.295   3.652   9.445 -0.0050  0.0672  0.0279
30333SOL    HW294498   4.358   3.789   9.444 -0.4387  0.2689  0.3016
30334SOL     OW94499   5.108   0.278   1.172 -0.1218 -0.5062  0.0482
30334SOL    HW194500   5.043   0.347   1.186  1.0906  0.7210 -0.1761
30334SOL    HW294501   5.124   0.278   1.078  0.7330 -0.2832  0.1840
30335SOL     OW94502   9.131   2.034   8.596  0.0291 -0.4798 -0.2744
30335SOL    HW194503   9.153   2.125   8.619 -2.1618  0.0929 -0.2039
30335SOL    HW294504   9.140   1.986   8.678  0.0612 -0.0963 -0.0503
30336SOL     OW94505  10.875   9.669   0.148 -0.3686 -0.1598 -0.0901
30336SOL    HW194506  10.925   9.602   0.102 -0.7169 -0.9393  0.6331
30336SOL    HW294507  10.892   9.749   0.099  1.3624 -0.4468 -0.0335
30337SOL     OW94508   0.539   4.207   7.229 -0.2695  0.1329  0.6313
30337SOL    HW194509   0.458   4.218   7.179 -0.6332  0.3408  1.2696
30337SOL    HW294510   0.607   4.200   7.161 -1.1537 -3.4283 -0.0787
30338SOL     OW94511   9.832   5.763   8.408 -0.4497  0.3845  0.3227
30338SOL    HW194512   9.889   5.811   8.468  0.9938 -0.7971 -0.0252
30338SOL    HW294513   9.753   5.817   8.400  0.7044  2.2125  0.6465
30339SOL     OW94514   8.863   9.476   1.569  0.0219 -0.0161 -0.3030
30339SOL    HW194515   8.946   9.472   1.617 -1.9733  1.2501  3.7042
30339SOL    HW294516   8.831   9.386   1.570  0.8676 -0.3329 -0.9632
30340SOL     OW94517   4.456   7.355   4.218 -0.3279 -0.7672 -0.2195
30340SOL    HW194518   4.531   7.297   4.229  1.0812  1.2632  1.6688
30340SOL    HW294519   4.387   7.317   4.272  0.3864 -1.0224  0.5311
30341SOL     OW94520   1.238   9.778   8.982 -0.6132  0.2924 -0.0189
30341SOL    HW194521   1.290   9.762   8.903 -1.9364  1.1427 -1.1031
30341SOL    HW294522   1.186   9.699   8.993  1.3189 -0.8536  1.4699
30342SOL     OW94523   3.157   1.461   3.488  0.0167 -0.1349  0.2931
30342SOL    HW194524   3.153   1.483   3.395 -1.0926 -3.0524 -0.4703
30342SOL    HW294525   3.085   1.510   3.527 -0.0091  0.5176 -0.5373
30343SOL     OW94526   8.625   5.218   5.397 -0.1154  0.0049  0.4581
30343SOL    HW194527   8.602   5.177   5.313  0.2313 -1.5760  1.0840
30343SOL    HW294528   8.693   5.160   5.433 -1.1349 -0.0654  2.3812
30344SOL     OW94529   2.769  10.270   6.262 -0.6490  0.1767  0.4992
30344SOL    HW194530   2.800  10.324   6.189  2.6557  0.3532  1.8341
30344SOL    HW294531   2.701  10.323   6.303  1.0303  2.4769  0.5314
30345SOL     OW94532   0.349   8.862   4.601 -0.2082  0.3728 -0.1137
30345SOL    HW194533   0.255   8.850   4.583 -0.0040 -0.1359 -0.8510
30345SOL    HW294534   0.391   8.854   4.516  0.7174 -1.5178  0.4526
30346SOL     OW94535   0.108   3.869   0.222 -0.0837 -0.5539  0.5147
30346SOL    HW194536   0.161   3.849   0.145  0.5968 -0.5195  0.9664
30346SOL    HW294537   0.165   3.920   0.278 -1.3023  1.3687  0.0827
30347SOL     OW94538   4.754   6.983   2.916  0.3098  0.3085  0.0710
30347SOL    HW194539   4.704   6.902   2.933 -1.1619  0.8443 -1.4828
30347SOL    HW294540   4.703   7.052   2.959  2.2243  0.3512  2.5125
30348SOL     OW94541   5.336   3.411   3.349 -0.1907  0.1665  0.0660
30348SOL    HW194542   5.394   3.346   3.388  0.4635  0.7245  0.0409
30348SOL    HW294543   5.332   3.481   3.414  1.4521  1.4136 -1.1053
30349SOL     OW94544   4.585   4.144  10.405 -0.2617 -0.3923  0.3433
30349SOL    HW194545   4.572   4.073  10.468  0.0672 -0.8707 -0.1108
30349SOL    HW294546   4.562   4.223  10.452 -1.0191 -0.8386  0.7415
30350SOL     OW94547   2.610  10.426   6.416 -0.2814 -0.2256  0.1264
30350SOL    HW194548   2.562  10.494   6.369  2.5762  0.2753 -2.3897
30350SOL    HW294549   2.665  10.474   6.479  1.4359 -0.0991 -1.3723
30351SOL     OW94550   3.827   5.989  10.891  0.3563 -0.8259 -0.0781
30351SOL    HW194551   3.902   5.992  10.951  0.3400  0.6026 -0.0970
30351SOL    HW294552   3.751   6.006  10.947 -0.0716 -2.9229  0.0574
30352SOL     OW94553   4.671   1.124  10.725  0.2161  0.3220 -0.2025
30352SOL    HW194554   4.656   1.035  10.756 -0.3515  0.3382 -0.4115
30352SOL    HW294555   4.646   1.180  10.798 -0.5099  0.3409 -0.4614
30353SOL     OW94556   9.532  10.380   7.474 -0.2206  0.4043 -0.8019
30353SOL    HW194557   9.589  10.352   7.402  1.1529  1.3777 -0.1324
30353SOL    HW294558   9.519  10.300   7.525  0.0875  0.0405 -1.2712
30354SOL     OW94559   7.955   9.480   9.114 -0.1340 -0.1320 -0.4295
30354SOL    HW194560   7.920   9.537   9.046 -0.6289 -0.1306 -0.1717
30354SOL    HW294561   7.989   9.404   9.067  2.1789  1.1315 -0.9781
30355SOL     OW94562  10.514   3.455   9.413 -0.0452 -0.1042  0.5727
30355SOL    HW194563  10.495   3.421   9.501  0.1367  1.3599  1.1965
30355SOL    HW294564  10.607   3.434   9.399  0.5004  1.4623  1.6039
30356SOL     OW94565  10.610   6.302   1.493  0.4269  0.6177  0.3017
30356SOL    HW194566  10.524   6.305   1.452  0.1275  0.4080  0.8960
30356SOL    HW294567  10.603   6.361   1.568  0.0512 -1.1502  1.7122
30357SOL     OW94568   1.575   3.932   8.777 -0.2381 -0.0351  0.0772
30357SOL    HW194569   1.513   4.000   8.749 -0.5051 -0.4704 -0.3811
30357SOL    HW294570   1.539   3.900   8.860 -0.6929 -0.3701 -0.2473
30358SOL     OW94571   6.183  10.343   8.165  0.1332  0.2399 -0.6624
30358SOL    HW194572   6.236  10.272   8.201  1.1175  1.8835  1.3011
30358SOL    HW294573   6.244  10.395   8.112 -0.2688  0.4034 -0.9742
30359SOL     OW94574  10.632   9.382   2.551  0.1853  0.0467 -0.4505
30359SOL    HW194575  10.692   9.329   2.499  0.5632 -0.3751  0.3887
30359SOL    HW294576  10.590   9.319   2.611  0.4745  0.6468  0.4059
30360SOL     OW94577   7.669   3.051   7.405 -0.2769 -0.2608 -0.6715
30360SOL    HW194578   7.657   2.957   7.398  1.6532 -0.9448  2.6553
30360SOL    HW294579   7.764   3.063   7.401 -0.1839  0.9721  2.4101
30361SOL     OW94580   9.876  10.470   9.552 -0.9747  0.3263  0.6213
30361SOL    HW194581   9.943  10.424   9.501 -1.5282 -0.0680  0.2384
30361SOL    HW294582   9.919  10.490   9.635  0.0128  1.1912 -0.0761
30362SOL     OW94583   9.686   8.468   2.951  0.1136  0.0078  0.1622
30362SOL    HW194584   9.651   8.453   3.039  1.1694  1.7911  0.9321
30362SOL    HW294585   9.654   8.394   2.900 -5.0971  1.5153  0.6398
30363SOL     OW94586   2.079   8.962   6.417  0.1301 -0.1469  0.1156
30363SOL    HW194587   2.088   8.870   6.393  0.8075 -0.0831  0.1182
30363SOL    HW294588   2.027   8.961   6.498 -1.5109 -0.4079 -0.8851
30364SOL     OW94589   4.020   2.111   0.231  0.3053  0.2942 -0.6156
30364SOL    HW194590   4.064   2.134   0.313 -0.0030 -1.8188  0.2108
30364SOL    HW294591   4.027   2.189   0.177 -0.5462  2.2150  1.8565
30365SOL     OW94592   1.865   2.992   8.522 -0.1791 -0.4241 -0.1092
30365SOL    HW194593   1.895   2.923   8.582 -0.1367 -0.1425  0.1962
30365SOL    HW294594   1.854   2.947   8.438  0.8149 -0.5965 -0.1579
30366SOL     OW94595   1.384   4.778   7.343 -0.0881 -0.2760 -0.0473
30366SOL    HW194596   1.373   4.683   7.346  1.3017 -0.4403  1.1212
30366SOL    HW294597   1.477   4.791   7.323 -0.0852  0.8148  0.6059
30367SOL     OW94598   1.882   3.358   4.670 -0.5166  0.0396  0.0020
30367SOL    HW194599   1.789   3.379   4.677 -0.7732 -0.5663 -1.2638
30367SOL    HW294600   1.918   3.425   4.612 -0.1321  0.3221  0.5528
30368SOL     OW94601   1.143   6.200   4.393 -0.5881 -0.1661 -0.5483
30368SOL    HW194602   1.191   6.154   4.325  1.0535  0.8963 -0.1724
30368SOL    HW294603   1.206   6.263   4.429 -1.7738  0.1597  1.1055
30369SOL     OW94604   8.774   6.127   9.794  0.1397  0.3592 -0.3970
30369SOL    HW194605   8.730   6.045   9.769  1.1218  0.3097 -2.1052
30369SOL    HW294606   8.850   6.098   9.844  0.8002  0.1521 -1.4780
30370SOL     OW94607   8.136   5.084   3.128 -0.1939  0.2753  0.2176
30370SOL    HW194608   8.137   5.141   3.205 -0.4985 -0.1284  0.5242
30370SOL    HW294609   8.074   5.126   3.068 -1.8304 -0.6684  1.1747
30371SOL     OW94610   1.465   1.613   2.527 -0.0798  0.5648  0.0435
30371SOL    HW194611   1.546   1.565   2.509  0.0874  0.1492  1.7594
30371SOL    HW294612   1.449   1.663   2.447  0.6726 -1.0127 -1.1623
30372SOL     OW94613   9.288   8.321   3.546 -0.6270  0.3565 -0.1614
30372SOL    HW194614   9.214   8.350   3.493 -0.4043 -0.6879 -1.0945
30372SOL    HW294615   9.283   8.225   3.545  1.5370  0.1777 -1.5072
30373SOL     OW94616   4.786   1.348   2.387 -0.9825 -0.4348  0.1339
30373SOL    HW194617   4.867   1.364   2.436 -0.5677  0.3448 -0.7850
30373SOL    HW294618   4.797   1.397   2.306 -2.1970 -0.6879 -0.1967
30374SOL     OW94619   5.656   3.556   2.743  0.2552 -0.1539  0.4267
30374SOL    HW194620   5.750   3.572   2.736  0.1176  0.5648  0.0883
30374SOL    HW294621   5.633   3.512   2.662  0.3279 -0.4947  0.5893
30375SOL     OW94622   6.192   8.358   7.303 -0.0854  0.2421  0.4475
30375SOL    HW194623   6.130   8.402   7.360  1.5462 -1.0281  3.4695
30375SOL    HW294624   6.170   8.265   7.311 -0.7087  0.0702 -2.2812
30376SOL     OW94625   2.934   6.876   5.835  0.0694  0.3390  0.1405
30376SOL    HW194626   2.946   6.890   5.741 -1.5541 -0.2398 -0.1801
30376SOL    HW294627   2.905   6.960   5.869 -0.4538  0.2519 -0.0877
30377SOL     OW94628   1.630   8.677  10.657 -0.0924  0.4225  0.3859
30377SOL    HW194629   1.680   8.708  10.732  1.1710  1.5396 -0.8773
30377SOL    HW294630   1.675   8.714  10.580 -0.2753 -2.0958 -1.0481
30378SOL     OW94631   6.443   3.034   1.402  0.2987 -0.3773 -0.2568
30378SOL    HW194632   6.524   2.990   1.430 -0.0163 -1.4738 -1.0031
30378SOL    HW294633   6.403   2.973   1.340 -1.5725 -0.2996  0.7840
30379SOL     OW94634   0.783   5.892  10.881  0.3054  0.2260  0.6679
30379SOL    HW194635   0.868   5.933  10.865  0.7230 -0.7704  0.1776
30379SOL    HW294636   0.805   5.809  10.924 -0.4196 -0.0162  0.5818
30380SOL     OW94637  10.894   0.179   2.474  0.5178  0.5296  0.0371
30380SOL    HW194638  10.891   0.145   2.564 -0.5284  1.4111  0.3634
30380SOL    HW294639  10.805   0.211   2.458  0.3039 -0.8767 -1.8366
30381SOL     OW94640   5.527   2.952   7.555 -0.4374  0.2087  0.5325
30381SOL    HW194641   5.605   2.897   7.550 -0.6164 -0.1723  1.7060
30381SOL    HW294642   5.532   3.007   7.477  0.9016  0.0550  0.4863
30382SOL     OW94643   0.964   8.830   5.100  0.1693 -0.0084  0.6357
30382SOL    HW194644   0.977   8.904   5.041 -1.0433  0.3997  0.8582
30382SOL    HW294645   1.039   8.832   5.158  1.4102 -0.4256 -0.8765
30383SOL     OW94646   7.068   3.655   2.066  0.3488  0.2959  0.2861
30383SOL    HW194647   7.104   3.623   1.983 -2.8310 -0.0562 -1.0807
30383SOL    HW294648   7.107   3.742   2.077  4.2073 -1.2882  0.8128
30384SOL     OW94649  10.648   6.655   1.473  0.2618 -0.2781 -0.3698
30384SOL    HW194650  10.561   6.626   1.500 -1.4461  1.8152 -3.0267
30384SOL    HW294651  10.658   6.620   1.384  1.0919  1.3865 -0.9769
30385SOL     OW94652   3.471  10.300   4.462 -0.0371 -0.1697  0.0485
30385SOL    HW194653   3.559  10.298   4.425 -0.0538  0.6288 -0.0454
30385SOL    HW294654   3.431  10.379   4.425  0.1455  1.0083  2.2253
30386SOL     OW94655  10.720   2.942   3.417 -0.2577  0.0400  0.2651
30386SOL    HW194656  10.661   2.892   3.473 -1.2153 -0.5138 -1.1586
30386SOL    HW294657  10.668   3.017   3.388  0.5049  0.7854  0.7896
30387SOL     OW94658   4.803   8.660   4.845 -0.0921 -0.3122 -0.3138
30387SOL    HW194659   4.842   8.745   4.867 -0.9622 -0.1580  0.7144
30387SOL    HW294660   4.773   8.625   4.928  0.6047 -1.8327 -0.6811
30388SOL     OW94661   0.100   5.800   7.610  0.2610 -0.0679 -0.4722
30388SOL    HW194662   0.010   5.768   7.607  0.0019  0.4370  1.1442
30388SOL    HW294663   0.134   5.768   7.693  0.7841  1.7215  0.0474
30389SOL     OW94664   5.707   7.742   9.782  0.1772 -0.3314  0.5219
30389SOL    HW194665   5.689   7.656   9.820  1.8579 -0.8272  0.2722
30389SOL    HW294666   5.712   7.801   9.858 -0.4489 -0.5482  0.7335
30390SOL     OW94667   1.502   6.010   3.629 -0.4696  0.6084  0.4424
30390SOL    HW194668   1.483   5.980   3.718  1.1016 -0.1389  0.5665
30390SOL    HW294669   1.586   6.055   3.636 -0.9943  1.8019 -0.4382
30391SOL     OW94670   5.971   4.314   5.749 -0.0911 -0.0315  0.1200
30391SOL    HW194671   5.908   4.307   5.820  0.1068 -0.3622  0.2679
30391SOL    HW294672   5.951   4.240   5.692  1.3775 -1.2909  1.1632
30392SOL     OW94673   0.393   0.860   0.730  0.0608 -0.1520 -0.1887
30392SOL    HW194674   0.421   0.941   0.689  4.4036 -0.8330  0.9605
30392SOL    HW294675   0.303   0.876   0.757 -0.0376  3.3584 -2.0949
30393SOL     OW94676   1.926   7.769   2.448  0.0666  0.2257  0.0303
30393SOL    HW194677   1.852   7.828   2.462 -0.0090 -0.2046  1.6844
30393SOL    HW294678   1.909   7.729   2.362 -0.8718  1.1629 -0.2435
30394SOL     OW94679   6.949   9.806   7.079 -0.0126 -0.4074  0.2220
30394SOL    HW194680   6.931   9.882   7.023 -0.4372 -1.9635 -1.8627
30394SOL    HW294681   6.871   9.796   7.133  0.7193  1.5940  1.8023
30395SOL     OW94682   1.852   2.708  10.488  0.0900 -0.3008  0.2018
30395SOL    HW194683   1.826   2.741  10.402 -2.2948 -3.2724 -0.3770
30395SOL    HW294684   1.780   2.731  10.546  2.2605  2.8804  1.9192
30396SOL     OW94685   5.997   6.231   7.853  0.0976 -0.0666 -0.3881
30396SOL    HW194686   6.009   6.297   7.921  0.1426  0.3551 -0.8001
30396SOL    HW294687   5.904   6.208   7.858 -0.9127  2.9424 -2.8378
30397SOL     OW94688   3.885  10.267   1.173 -0.2793 -0.1200 -0.0548
30397SOL    HW194689   3.928  10.231   1.095  0.3853 -2.4356  1.2612
30397SOL    HW294690   3.956  10.309   1.222 -0.1005 -1.1053  0.5718
30398SOL     OW94691   9.763   4.804  10.507  0.0246  0.0825  0.4025
30398SOL    HW194692   9.774   4.784  10.600 -0.4820  1.0504  0.6893
30398SOL    HW294693   9.707   4.734  10.473 -1.4349  0.7665  1.2954
30399SOL     OW94694   7.657   6.248   5.635  0.7165  0.0041  0.3488
30399SOL    HW194695   7.697   6.334   5.651  2.8348 -0.9067  0.1943
30399SOL    HW294696   7.725   6.185   5.658 -0.8531 -1.6577  0.5902
30400SOL     OW94697   4.734   8.710   9.335  0.3156 -0.2946  0.1252
30400SOL    HW194698   4.677   8.778   9.302 -0.1379 -1.5901 -1.9699
30400SOL    HW294699   4.725   8.714   9.430 -0.7219  1.6355 -0.0166
30401SOL     OW94700   7.263  10.335  10.486  0.0053  0.7784 -0.4222
30401SOL    HW194701   7.246  10.295  10.571  0.8515  2.9760  0.8574
30401SOL    HW294702   7.351  10.306  10.463 -0.4506 -0.3138 -0.9121
30402SOL     OW94703   0.029  10.013   6.191 -0.3892 -0.3973 -0.7217
30402SOL    HW194704   0.018  10.107   6.202  0.7905 -0.4508  1.6173
30402SOL    HW294705   0.123   9.998   6.203 -0.7644 -2.0051  0.7323
30403SOL     OW94706   0.442   6.828   7.470 -0.3593  0.2526  0.0310
30403SOL    HW194707   0.530   6.795   7.483 -0.3406 -0.2204 -1.1323
30403SOL    HW294708   0.429   6.824   7.375 -1.5511  0.5123  0.1646
30404SOL     OW94709   1.906   2.408   9.777  0.0689 -0.2382  0.7572
30404SOL    HW194710   1.985   2.380   9.731 -1.1385 -1.1004 -0.8958
30404SOL    HW294711   1.920   2.382   9.868  1.1748 -1.4751  0.2492
30405SOL     OW94712  10.064   9.540   3.754 -0.1168 -0.2198 -0.3309
30405SOL    HW194713  10.100   9.568   3.670 -3.3604 -2.3631 -2.6730
30405SOL    HW294714   9.975   9.575   3.756 -1.3198 -3.0183  0.4893
30406SOL     OW94715   6.784   8.007   9.296 -0.5847 -0.4989  0.2393
30406SOL    HW194716   6.804   8.075   9.360 -1.2711 -0.1175  0.0659
30406SOL    HW294717   6.698   7.974   9.323 -0.1575 -1.4637  0.4546
30407SOL     OW94718   1.062   9.415   2.300  0.1110 -0.0500  0.0343
30407SOL    HW194719   1.061   9.391   2.392 -0.3816  1.1411  0.3554
30407SOL    HW294720   1.135   9.477   2.292 -0.7508  0.9839 -0.0497
30408SOL     OW94721   4.272   7.066   5.852  0.1830  0.3000  0.1961
30408SOL    HW194722   4.221   7.052   5.772 -0.0639 -0.8149  0.5319
30408SOL    HW294723   4.362   7.070   5.822  0.0328  0.7081 -0.2240
30409SOL     OW94724  10.039   0.440   1.498  0.0764  0.3180  0.1671
30409SOL    HW194725   9.998   0.426   1.413  0.5492  1.0666 -0.1977
30409SOL    HW294726  10.121   0.485   1.478 -0.3376  1.5303  1.0883
30410SOL     OW94727  10.635   4.356   0.775  0.3025 -0.1181 -0.3145
30410SOL    HW194728  10.590   4.379   0.856  3.0340 -1.5604  1.7654
30410SOL    HW294729  10.647   4.440   0.730 -0.2969  0.8713  1.2915
30411SOL     OW94730   1.524   4.625   8.902  0.5524  0.2051 -0.0929
30411SOL    HW194731   1.551   4.536   8.922  0.2852  0.2064  0.2798
30411SOL    HW294732   1.587   4.655   8.836  1.0344 -0.0283  0.2621
30412SOL     OW94733   6.469  10.803  10.332 -0.4226  0.5500 -0.7915
30412SOL    HW194734   6.546  10.824  10.384  0.5772 -0.4321 -1.8076
30412SOL    HW294735   6.431  10.726  10.375 -2.2125  2.3397  1.0356
30413SOL     OW94736   6.278   9.739   5.373  0.6096  0.7462 -0.2343
30413SOL    HW194737   6.373   9.735   5.379  0.6786  3.0179  1.3727
30413SOL    HW294738   6.247   9.700   5.455  0.0069 -1.5203 -1.4397
30414SOL     OW94739   3.243   1.337   4.501 -0.2900 -0.5241  0.1673
30414SOL    HW194740   3.160   1.352   4.457 -0.2971 -0.0846  0.3258
30414SOL    HW294741   3.255   1.413   4.558 -0.4523 -1.2334  1.1865
30415SOL     OW94742   3.753   7.436   1.212 -0.3778 -0.0643 -0.1131
30415SOL    HW194743   3.798   7.457   1.130  0.8348  0.9877  0.7815
30415SOL    HW294744   3.791   7.497   1.276 -0.8223 -1.3005  1.3731
30416SOL     OW94745  10.030  10.406  10.136 -1.1761  0.3090 -0.1551
30416SOL    HW194746  10.104  10.462  10.158 -1.4347  0.5821  0.0427
30416SOL    HW294747  10.004  10.367  10.220 -2.0315  1.1822  0.0163
30417SOL     OW94748   2.404   6.505   1.100  0.2529 -0.8728  0.4375
30417SOL    HW194749   2.386   6.587   1.053  3.4763 -1.7006 -2.7633
30417SOL    HW294750   2.493   6.517   1.134  0.1048 -2.4405  1.4486
30418SOL     OW94751   2.776   0.594   1.046 -0.7587 -0.2732  0.0871
30418SOL    HW194752   2.777   0.636   1.132 -1.6589 -1.5083  0.7306
30418SOL    HW294753   2.814   0.659   0.987 -0.4814  0.7428  1.3489
30419SOL     OW94754   2.776   3.342   3.721  0.3245 -1.1552  0.7927
30419SOL    HW194755   2.870   3.344   3.705  0.2449  1.8534 -0.0077
30419SOL    HW294756   2.737   3.321   3.636  0.2617  0.0883  0.4911
30420SOL     OW94757   8.598   8.655   2.797 -0.2301 -0.3362 -0.4351
30420SOL    HW194758   8.538   8.709   2.850 -0.3928 -0.4233 -0.5301
30420SOL    HW294759   8.684   8.670   2.836 -0.4654 -1.0530  0.3961
30421SOL     OW94760   0.654   5.044   3.438  0.7925  0.2526 -0.8571
30421SOL    HW194761   0.654   4.982   3.366 -0.8814 -1.4518  0.5004
30421SOL    HW294762   0.561   5.062   3.455  1.1203  0.4968  0.9319
30422SOL     OW94763   5.608   1.259   2.625  0.1160  0.1441 -0.2346
30422SOL    HW194764   5.578   1.215   2.546  3.2762 -2.8992  0.0081
30422SOL    HW294765   5.588   1.198   2.696  0.4349  1.2434  0.8410
30423SOL     OW94766   5.367   3.883   8.504 -0.0120  0.3637  0.2518
30423SOL    HW194767   5.307   3.811   8.486 -1.5087  1.5250  0.3432
30423SOL    HW294768   5.385   3.921   8.418  1.1812 -0.3789  0.1431
30424SOL     OW94769   9.497   2.414   9.510  0.0378 -0.0879  0.0944
30424SOL    HW194770   9.520   2.480   9.445  0.4941 -0.5347 -0.2092
30424SOL    HW294771   9.544   2.335   9.482  0.2898 -0.2761  0.9888
30425SOL     OW94772   5.958   9.268   4.494 -0.4383  0.5333 -0.1128
30425SOL    HW194773   5.926   9.249   4.406 -0.9983  0.4455  0.1061
30425SOL    HW294774   6.050   9.241   4.492 -0.5663  0.1055 -0.5383
30426SOL     OW94775   2.028   7.103   9.030 -0.4401  0.4562  0.1068
30426SOL    HW194776   2.017   7.109   9.125 -0.7807 -2.8462  0.4097
30426SOL    HW294777   2.122   7.110   9.016 -0.4104  1.2321  0.6223
30427SOL     OW94778   8.446   4.645   6.465  0.4410  0.3507 -0.4153
30427SOL    HW194779   8.498   4.700   6.523 -1.3033 -1.2448  2.9764
30427SOL    HW294780   8.356   4.671   6.481 -0.3100 -2.2071 -0.0109
30428SOL     OW94781   8.977   7.787   0.162  0.6520 -0.5075 -0.0410
30428SOL    HW194782   8.980   7.698   0.196 -2.3706 -0.0395  1.7996
30428SOL    HW294783   9.015   7.840   0.231 -0.5691 -0.0852  0.3300
30429SOL     OW94784   6.569   1.395   0.489 -0.3264 -0.2608 -0.5252
30429SOL    HW194785   6.657   1.361   0.506  0.1594  1.1446 -0.0494
30429SOL    HW294786   6.530   1.331   0.430  1.4229 -0.3784 -1.6476
30430SOL     OW94787   2.413   8.223   9.724  0.2387 -0.1807  0.2616
30430SOL    HW194788   2.336   8.191   9.770  1.1600 -0.9101  1.3826
30430SOL    HW294789   2.479   8.232   9.793  1.6491 -1.1595 -0.8980
30431SOL     OW94790   2.936   5.387  10.296 -0.0084 -0.2857  0.3533
30431SOL    HW194791   2.843   5.403  10.317  0.2489  1.2876  0.4378
30431SOL    HW294792   2.980   5.388  10.381  0.1135 -0.8715  0.2988
30432SOL     OW94793   7.336   0.594   1.912 -0.1631  0.3392  0.0833
30432SOL    HW194794   7.254   0.554   1.884 -0.3778 -0.1621  1.3685
30432SOL    HW294795   7.372   0.534   1.977  0.0842  1.6519  1.2163
30433SOL     OW94796   5.013  10.902   0.119  0.3078 -0.1882 -0.2469
30433SOL    HW194797   5.071  10.930   0.048 -0.4152  1.5225 -0.1994
30433SOL    HW294798   5.050  10.940   0.198 -0.0028 -0.4037  0.0083
30434SOL     OW94799   1.834   6.072   2.973 -0.3254 -0.2731 -0.3731
30434SOL    HW194800   1.791   5.989   2.992  0.9160 -0.7341  0.5942
30434SOL    HW294801   1.927   6.050   2.967  0.2363  1.2720  1.5791
30435SOL     OW94802   9.149   0.432   2.136  0.3161 -0.5992  0.3554
30435SOL    HW194803   9.238   0.399   2.123  0.9142 -0.2355  2.9248
30435SOL    HW294804   9.098   0.355   2.157  0.2698 -0.6632  0.0166
30436SOL     OW94805   8.741   2.328   8.570 -0.0550 -0.3754  0.0462
30436SOL    HW194806   8.834   2.339   8.587  0.1732 -0.5067 -1.0710
30436SOL    HW294807   8.733   2.329   8.475 -1.4484  1.6640  0.1319
30437SOL     OW94808   6.634   3.449   6.136 -0.3734  0.0381 -0.6234
30437SOL    HW194809   6.555   3.504   6.140  0.0643  0.5885  1.2704
30437SOL    HW294810   6.704   3.506   6.167  0.1475 -1.4472  1.0783
30438SOL     OW94811   5.571   6.124   0.121  0.0738 -0.1744  0.0331
30438SOL    HW194812   5.608   6.181   0.054 -0.5820 -0.6426 -0.7424
30438SOL    HW294813   5.642   6.065   0.145  0.7972  1.0109  0.9275
30439SOL     OW94814   3.503   2.914   1.845 -0.0618  0.1797 -0.1587
30439SOL    HW194815   3.453   2.854   1.899  0.7386  0.6396  1.1277
30439SOL    HW294816   3.572   2.947   1.902  0.2339  1.4179 -1.1747
30440SOL     OW94817   0.461   4.326   2.569  0.0277 -0.0523  0.2795
30440SOL    HW194818   0.502   4.333   2.656 -1.4873 -0.4568  1.0676
30440SOL    HW294819   0.490   4.405   2.523  1.7874 -0.3922  0.7163
30441SOL     OW94820   5.973   1.947   7.961 -0.3990  0.3580  0.0686
30441SOL    HW194821   5.948   2.007   8.031 -0.8241  0.5564 -0.2527
30441SOL    HW294822   6.057   1.910   7.991  0.2309  1.6335 -0.0539
30442SOL     OW94823   9.733   8.401   7.274 -0.1966 -0.2356 -0.4695
30442SOL    HW194824   9.653   8.350   7.269 -0.2336 -0.0745 -1.8910
30442SOL    HW294825   9.715   8.480   7.224  1.0375 -0.5017 -1.4133
30443SOL     OW94826   1.776   0.031   3.183 -0.1398  0.8329 -0.4059
30443SOL    HW194827   1.725   0.058   3.107 -2.8036 -0.9398  0.5986
30443SOL    HW294828   1.831   0.107   3.203  2.1454  0.8020 -5.0675
30444SOL     OW94829   1.470   8.158   1.316 -0.1169 -0.1639  0.0898
30444SOL    HW194830   1.521   8.186   1.240 -0.7643  0.8325  0.0097
30444SOL    HW294831   1.381   8.186   1.297 -0.7902 -2.2034  0.0646
30445SOL     OW94832   1.225   1.894   3.750  0.1567  0.5837  0.5832
30445SOL    HW194833   1.254   1.843   3.826 -0.8275  0.6212  0.9976
30445SOL    HW294834   1.140   1.857   3.727  0.3451  0.7196 -0.3758
30446SOL     OW94835   8.109  10.437   8.222 -0.5350  0.2988 -0.9325
30446SOL    HW194836   8.024  10.425   8.265  0.5183  1.2919  1.6183
30446SOL    HW294837   8.139  10.348   8.204 -1.3008 -0.1504 -0.1138
30447SOL     OW94838   6.320   4.672   1.437  0.1417 -0.1362 -0.1242
30447SOL    HW194839   6.359   4.759   1.430  1.2827 -0.7103 -1.4972
30447SOL    HW294840   6.331   4.633   1.350 -0.7695 -1.4816  0.3171
30448SOL     OW94841   5.135  10.195   5.108 -0.5361 -0.4919  0.3806
30448SOL    HW194842   5.199  10.254   5.067  1.2746 -1.7190  1.2737
30448SOL    HW294843   5.112  10.133   5.039  0.0452 -0.6501  0.3220
30449SOL     OW94844   7.746   2.777   9.617 -0.1267 -0.2066 -0.1879
30449SOL    HW194845   7.792   2.753   9.536  0.5405  0.7043 -0.0934
30449SOL    HW294846   7.698   2.857   9.595 -1.8679 -1.2476 -0.3394
30450SOL     OW94847   0.459   0.832   9.920  0.5753 -0.1938  0.4018
30450SOL    HW194848   0.441   0.903   9.980 -0.1656 -0.8520  0.9799
30450SOL    HW294849   0.418   0.859   9.837  0.4619  0.1334  0.5653
30451SOL     OW94850   0.650   2.303  10.761  0.0427  0.2996  0.1759
30451SOL    HW194851   0.642   2.268  10.850  2.1690 -0.0726  0.2841
30451SOL    HW294852   0.723   2.365  10.766 -1.6654  2.4932 -0.7181
30452SOL     OW94853   3.287   4.637   6.052 -0.5856  0.4489  0.7347
30452SOL    HW194854   3.277   4.600   6.140 -0.3217 -2.2122 -0.2827
30452SOL    HW294855   3.218   4.596   6.001  1.6110 -1.1417 -1.1727
30453SOL     OW94856   0.956   3.098   9.102 -0.2266  0.4273  0.2054
30453SOL    HW194857   0.921   3.009   9.110 -1.1416  0.8019  0.5436
30453SOL    HW294858   0.968   3.127   9.192  0.0997  0.6354  0.0934
30454SOL     OW94859   5.576   7.922   2.803 -0.3005  0.0957 -0.0904
30454SOL    HW194860   5.556   7.947   2.893  1.4582 -0.4541  0.4996
30454SOL    HW294861   5.579   8.005   2.755 -1.1848  0.3960  0.3525
30455SOL     OW94862   9.742   6.195   4.224  0.4882  0.1606 -0.0857
30455SOL    HW194863   9.751   6.290   4.209 -1.5271  0.2609 -0.9560
30455SOL    HW294864   9.732   6.159   4.136  0.0886 -0.7388  0.3275
30456SOL     OW94865   4.488  10.630   7.843  0.2062  0.6848 -0.9121
30456SOL    HW194866   4.494  10.554   7.785  0.1118  0.0328 -0.0871
30456SOL    HW294867   4.395  10.650   7.847  0.1767  0.5149 -0.7210
30457SOL     OW94868   2.981   5.622   1.976 -0.3085 -0.5908 -0.2283
30457SOL    HW194869   3.041   5.623   1.902  0.5244  1.7909  0.3899
30457SOL    HW294870   3.036   5.603   2.052 -0.3416  1.2269  0.2935
30458SOL     OW94871   4.550   2.453   3.320 -0.1629 -0.1264  0.4762
30458SOL    HW194872   4.499   2.496   3.252  1.6484 -1.7872 -2.1260
30458SOL    HW294873   4.523   2.361   3.316  1.3162 -0.6010  0.6241
30459SOL     OW94874   1.275   8.067   2.813 -0.4458 -0.2924 -0.2815
30459SOL    HW194875   1.327   7.987   2.819  1.5663  1.0114  0.7799
30459SOL    HW294876   1.262   8.080   2.719  0.6594 -0.9733 -0.5439
30460SOL     OW94877   5.013   4.314   0.688  0.2055 -0.2768  0.3033
30460SOL    HW194878   4.994   4.224   0.661 -1.1079  0.3962 -1.2167
30460SOL    HW294879   4.957   4.368   0.631  1.1356  1.5125  1.0109
30461SOL     OW94880   5.835   2.095   0.648  0.1040 -0.4808  0.2895
30461SOL    HW194881   5.831   2.166   0.584 -0.9168 -1.4464 -0.7470
30461SOL    HW294882   5.902   2.036   0.614  0.5647 -0.3035  0.8671
30462SOL     OW94883   1.222   5.841   7.678 -0.0440  0.1697 -0.4053
30462SOL    HW194884   1.157   5.904   7.710 -0.6200 -0.4235 -0.3848
30462SOL    HW294885   1.170   5.766   7.650  0.6407 -0.3174 -0.3763
30463SOL     OW94886   2.326   6.730   8.998  0.4287  0.6285  0.1841
30463SOL    HW194887   2.320   6.648   9.046  2.5939  1.0567  1.2764
30463SOL    HW294888   2.259   6.722   8.929  0.7043 -2.1019  0.1354
30464SOL     OW94889  10.627   8.026   3.264 -0.1907 -0.6389  0.3031
30464SOL    HW194890  10.608   8.103   3.317 -2.1292 -1.6184  1.1488
30464SOL    HW294891  10.606   7.952   3.321  2.2380 -1.8519 -0.2440
30465SOL     OW94892   4.946   7.146  10.658 -0.3198 -0.4667  0.1078
30465SOL    HW194893   4.962   7.083  10.588  0.2270  0.2466 -0.4297
30465SOL    HW294894   4.925   7.228  10.613  1.2608  0.3227  0.7249
30466SOL     OW94895   8.229   5.324   7.101  0.4142  0.0896  0.2527
30466SOL    HW194896   8.220   5.418   7.085  0.2539 -0.1367 -1.1421
30466SOL    HW294897   8.276   5.318   7.184  2.9690  1.4742 -0.9541
30467SOL     OW94898   6.693   2.343   5.795  0.5275 -0.6124 -0.5705
30467SOL    HW194899   6.777   2.330   5.839 -0.0474 -1.9440  0.2244
30467SOL    HW294900   6.644   2.263   5.815 -1.4852  0.7589  0.2534
30468SOL     OW94901   2.232   4.646   7.114  0.2880 -0.4392  0.3294
30468SOL    HW194902   2.276   4.616   7.193  0.7315  0.4148  0.4184
30468SOL    HW294903   2.193   4.730   7.138  1.9591  0.7315 -0.8260
30469SOL     OW94904   6.463   6.682   7.702  0.3347 -0.4232 -0.1089
30469SOL    HW194905   6.439   6.615   7.638  2.1860  1.8665 -3.4680
30469SOL    HW294906   6.541   6.648   7.744 -0.0918 -1.3525 -0.0325
30470SOL     OW94907   8.124   4.934   4.405  0.0280  0.4925  0.1331
30470SOL    HW194908   8.120   5.030   4.407 -2.6881  0.4723 -1.1898
30470SOL    HW294909   8.063   4.906   4.473 -0.0266 -0.3119 -0.2415
30471SOL     OW94910  10.068   8.925   8.758  0.0586  0.1749  0.2661
30471SOL    HW194911  10.039   8.865   8.689 -0.8894  0.0399  0.7688
30471SOL    HW294912   9.995   8.928   8.820  0.6673  0.7434  0.9764
30472SOL     OW94913   7.998   0.205   7.326  0.2401  0.0239  0.0405
30472SOL    HW194914   7.986   0.268   7.396  0.8986  0.4948 -0.2605
30472SOL    HW294915   8.055   0.138   7.363  0.3271  0.1072  0.0568
30473SOL     OW94916   5.568   3.266   8.931  0.2017  0.4001 -0.1787
30473SOL    HW194917   5.619   3.194   8.968 -1.0375 -0.1615  0.4796
30473SOL    HW294918   5.624   3.301   8.862  1.1069 -0.7563 -0.0734
30474SOL     OW94919   7.280   4.280   5.141 -0.5014 -0.0829 -0.7135
30474SOL    HW194920   7.193   4.252   5.113 -1.1314 -0.3531  1.3051
30474SOL    HW294921   7.308   4.213   5.203  0.0633  1.2229  0.5113
30475SOL     OW94922   8.772   8.399   0.107 -0.5913 -0.4447 -0.4618
30475SOL    HW194923   8.859   8.433   0.084 -0.5224 -0.6468 -0.5034
30475SOL    HW294924   8.769   8.403   0.202 -0.2657 -1.0892 -0.4186
30476SOL     OW94925   7.851  10.101   7.850  0.3243  0.3994 -0.9059
30476SOL    HW194926   7.902  10.172   7.810 -0.1429  0.9402 -0.5582
30476SOL    HW294927   7.804  10.143   7.922  0.6427 -0.4292 -0.1935
30477SOL     OW94928   8.710   2.620   0.179  0.4781  0.6277  0.4266
30477SOL    HW194929   8.691   2.531   0.207  1.7048  0.4097  0.5985
30477SOL    HW294930   8.752   2.610   0.094 -0.1684  1.1023  0.0387
30478SOL     OW94931   7.476   3.386   1.927  0.0013  0.9213 -0.5750
30478SOL    HW194932   7.497   3.428   2.011 -0.9716  2.2739 -0.9858
30478SOL    HW294933   7.493   3.293   1.943  1.3788  1.3385  0.6231
30479SOL     OW94934   4.014  10.165   2.643  0.0581  0.0956 -0.2318
30479SOL    HW194935   4.019  10.225   2.718 -1.8429 -1.3190  1.1076
30479SOL    HW294936   3.989  10.221   2.570 -0.6941  1.1135  0.7647
30480SOL     OW94937   0.609   3.301   2.691  0.1052  0.0480 -0.3272
30480SOL    HW194938   0.603   3.276   2.783 -1.4305 -0.4673 -0.5346
30480SOL    HW294939   0.518   3.315   2.665  0.4649 -0.4631 -1.9427
30481SOL     OW94940   0.887   9.715  10.327  0.1970 -0.2019 -0.3655
30481SOL    HW194941   0.855   9.629  10.299  0.2130  0.2176 -1.7320
30481SOL    HW294942   0.878   9.713  10.422 -0.3202 -1.5113 -0.4103
30482SOL     OW94943   9.758  10.989   2.600 -0.1491 -0.4673  0.0780
30482SOL    HW194944   9.848  10.999   2.631 -0.7187 -0.3706  1.8109
30482SOL    HW294945   9.706  10.983   2.680 -2.0519  2.4263 -0.8059
30483SOL     OW94946   3.909   5.089   5.998 -0.4106 -0.4946 -0.3698
30483SOL    HW194947   3.952   5.157   5.947 -0.8523 -0.3162 -0.5154
30483SOL    HW294948   3.900   5.127   6.085 -0.9626 -0.2261 -0.5376
30484SOL     OW94949   0.088   3.931   3.194 -0.5077 -0.4209 -0.0817
30484SOL    HW194950   0.068   3.936   3.101 -0.3658 -0.7121 -0.1310
30484SOL    HW294951   0.180   3.905   3.197 -0.7601 -1.3441  0.1350
30485SOL     OW94952   5.738  10.524   2.315  0.6577 -0.7138 -0.4096
30485SOL    HW194953   5.699  10.447   2.274  0.7641  0.4847 -2.9690
30485SOL    HW294954   5.664  10.571   2.354 -0.3242  0.4719 -3.4145
30486SOL     OW94955   0.263   3.138   4.953  0.1580  0.4804  0.4128
30486SOL    HW194956   0.194   3.122   5.018  0.2435  0.5176  0.5111
30486SOL    HW294957   0.264   3.058   4.900 -1.4148  1.2698 -0.9254
30487SOL     OW94958   9.508  10.241   6.754 -0.1637  0.7302 -0.0113
30487SOL    HW194959   9.533  10.332   6.765 -0.4209  1.1153 -2.3144
30487SOL    HW294960   9.581  10.200   6.708 -0.2321 -0.1454  0.6139
30488SOL     OW94961   8.236   3.260   3.344 -0.0089  0.0952  1.0225
30488SOL    HW194962   8.230   3.322   3.416  1.2457  1.7491 -0.2266
30488SOL    HW294963   8.329   3.239   3.336 -0.2488 -0.9011  0.5360
30489SOL     OW94964   0.070   1.054   6.071 -0.0129 -0.2284  0.1211
30489SOL    HW194965   0.104   1.140   6.098 -2.0285  0.9335 -0.7915
30489SOL    HW294966   0.111   1.038   5.986 -2.4191  1.7110 -1.5259
30490SOL     OW94967   7.229   4.243   0.478  0.1715  0.6529 -0.5952
30490SOL    HW194968   7.182   4.193   0.544 -0.0799  1.1092 -0.4193
30490SOL    HW294969   7.197   4.208   0.395  1.5914 -0.9520 -0.5150
30491SOL     OW94970   9.324  10.261   5.123 -0.4313  0.0003 -0.0159
30491SOL    HW194971   9.391  10.306   5.072 -0.3522  0.9792  0.9261
30491SOL    HW294972   9.340  10.289   5.213 -0.5785 -1.6775  0.5604
30492SOL     OW94973   7.306   5.215   5.580  0.4301  0.2142  0.2291
30492SOL    HW194974   7.283   5.126   5.553 -0.0299  0.1740  0.7339
30492SOL    HW294975   7.222   5.256   5.599  0.5814  0.9910 -0.6881
30493SOL     OW94976   5.184   6.549   9.989 -0.3933  0.2466 -0.3605
30493SOL    HW194977   5.092   6.573   9.982 -1.1877 -1.9639  1.3844
30493SOL    HW294978   5.221   6.568   9.902 -2.5696  0.7369 -1.2281
30494SOL     OW94979   7.318   5.119   6.921 -0.5556  0.5347  0.1553
30494SOL    HW194980   7.289   5.032   6.892  2.4619 -0.3020 -0.7778
30494SOL    HW294981   7.293   5.178   6.850  1.4503 -0.4736 -1.4986
30495SOL     OW94982   2.077   8.628   9.692  0.0533 -0.0273 -0.2871
30495SOL    HW194983   2.151   8.688   9.681  0.5906 -0.2180  1.8760
30495SOL    HW294984   2.108   8.563   9.755 -2.4323  0.7693  1.9263
30496SOL     OW94985   6.588   7.991   4.160  0.3173 -0.0325 -0.0521
30496SOL    HW194986   6.551   7.903   4.149  0.5978 -0.1610  0.0266
30496SOL    HW294987   6.531   8.047   4.109 -0.8248 -0.0204  1.1615
30497SOL     OW94988   1.999   5.331  10.448  0.6681 -0.8179 -0.1440
30497SOL    HW194989   1.916   5.354  10.408  0.4569 -1.9294 -0.3872
30497SOL    HW294990   2.060   5.322  10.374  0.1867 -3.2552 -0.3433
30498SOL     OW94991   5.554   5.210   5.791  0.1771  0.1822  0.4385
30498SOL    HW194992   5.640   5.252   5.787  0.1653  0.1487 -0.1829
30498SOL    HW294993   5.496   5.278   5.825  0.6848 -0.1871  2.1750
30499SOL     OW94994   0.973   0.640   9.497  0.0674 -0.2058  0.4604
30499SOL    HW194995   0.939   0.552   9.513  1.9805 -0.8098  1.3540
30499SOL    HW294996   0.970   0.683   9.582  0.3992  0.1471  0.2954
30500SOL     OW94997   8.008   4.415   4.387  0.0243  0.5622 -0.0904
30500SOL    HW194998   8.050   4.396   4.303  0.7798 -0.6543  0.5258
30500SOL    HW294999   8.068   4.476   4.431  0.2592  0.2151  0.0716
30501SOL     OW95000   4.025   6.475   4.632  0.4508  0.4696  0.3130
30501SOL    HW195001   4.025   6.541   4.562  1.8947 -0.1440 -0.3062
30501SOL    HW295002   3.945   6.493   4.682 -0.8260  0.7048 -1.6958
30502SOL     OW95003  10.647   7.947   8.840 -0.2861 -0.0218 -0.3490
30502SOL    HW195004  10.681   7.976   8.755  1.8943 -0.1465  0.4116
30502SOL    HW295005  10.650   8.026   8.895  0.1409 -0.3530  0.1154
30503SOL     OW95006   0.824   5.964   9.589 -0.1157 -0.3968 -0.0788
30503SOL    HW195007   0.898   5.905   9.575 -0.0231 -0.0036 -1.4187
30503SOL    HW295008   0.863   6.052   9.589 -0.3783 -0.2712  0.8992
30504SOL     OW95009   4.901   3.658   0.301 -0.4661 -0.4913 -0.0506
30504SOL    HW195010   4.991   3.633   0.321 -0.0626  0.3082 -0.7793
30504SOL    HW295011   4.854   3.575   0.296 -0.0305 -0.8544  1.4702
30505SOL     OW95012   3.952   8.483   9.287 -0.0279  0.0075 -0.3053
30505SOL    HW195013   4.023   8.547   9.287  0.3756 -0.4378  0.2356
30505SOL    HW295014   3.989   8.406   9.243  0.5967 -1.0473  1.9259
30506SOL     OW95015   8.359  10.839   6.615  0.4164 -0.2135 -0.0751
30506SOL    HW195016   8.372  10.899   6.689 -0.3195  0.8954 -0.8203
30506SOL    HW295017   8.362  10.895   6.538 -1.2603 -0.9853 -0.7439
30507SOL     OW95018   5.681   2.592   0.179  0.2671  0.1044 -0.4380
30507SOL    HW195019   5.637   2.582   0.263  0.5238  2.2266  0.0009
30507SOL    HW295020   5.610   2.589   0.115  0.0087 -0.9730 -0.1201
30508SOL     OW95021   8.471   1.128   1.974 -0.1984 -0.1479 -0.1649
30508SOL    HW195022   8.510   1.043   1.996  0.8552  0.4038  0.1714
30508SOL    HW295023   8.377   1.114   1.983  0.0333 -0.8215  1.5123
30509SOL     OW95024   2.633  10.685   5.631  0.3083  0.2468  0.4761
30509SOL    HW195025   2.709  10.708   5.577  1.2417 -0.3262  1.4999
30509SOL    HW295026   2.670  10.633   5.703 -1.0814 -0.1764  0.9086
30510SOL     OW95027   3.080   5.622  10.493 -1.0172 -0.0391 -0.2430
30510SOL    HW195028   3.116   5.634  10.581 -0.4000 -0.6370 -0.4066
30510SOL    HW295029   3.001   5.571  10.506  0.0407 -1.7388 -0.1793
30511SOL     OW95030   7.794   8.911   4.489 -0.0826 -0.1718 -0.5626
30511SOL    HW195031   7.725   8.953   4.540  0.0024 -0.4843 -0.1855
30511SOL    HW295032   7.751   8.881   4.410 -0.4020 -0.4641 -0.2785
30512SOL     OW95033   5.162  10.954   6.627  0.4706 -0.1744 -0.4616
30512SOL    HW195034   5.170  10.883   6.691 -1.9977  2.2005  2.7887
30512SOL    HW295035   5.068  10.959   6.609  0.3956  2.8530  0.2733
30513SOL     OW95036   1.664   3.382   2.794  0.2148 -0.2690  0.4936
30513SOL    HW195037   1.699   3.472   2.801 -0.9482  0.4186 -1.7311
30513SOL    HW295038   1.586   3.383   2.849  0.6804 -0.1895  1.1668
30514SOL     OW95039   2.212   8.966  10.451  0.1252  0.3708 -0.2071
30514SOL    HW195040   2.275   9.026  10.491 -0.8387  1.4037 -0.1781
30514SOL    HW295041   2.141   9.023  10.422 -0.2589 -0.6298 -1.3051
30515SOL     OW95042   2.504   7.277   3.583 -0.9750  0.4295  0.3312
30515SOL    HW195043   2.586   7.327   3.577 -0.6149 -0.0669  0.9453
30515SOL    HW295044   2.458   7.297   3.501 -1.6173  3.0285  1.2205
30516SOL     OW95045   6.309   6.940   4.403 -0.3990  0.2703  0.0396
30516SOL    HW195046   6.377   7.006   4.415  0.4515 -0.6277  0.3709
30516SOL    HW295047   6.268   6.961   4.319 -0.6551  1.6452  0.4968
30517SOL     OW95048   9.660   9.861   0.660  0.4770 -0.1375 -0.7773
30517SOL    HW195049   9.582   9.846   0.605  0.7508 -2.5219 -0.6271
30517SOL    HW295050   9.630   9.843   0.749  1.1243 -0.8478 -0.6934
30518SOL     OW95051   6.564   6.992   9.035  0.1730 -0.0604  0.0162
30518SOL    HW195052   6.605   6.908   9.016  1.9005  0.2416  2.1164
30518SOL    HW295053   6.562   6.997   9.130 -2.0486  1.3071 -0.0154
30519SOL     OW95054   7.202   6.754   2.374  0.3402 -0.0815 -0.5283
30519SOL    HW195055   7.233   6.668   2.347  0.9642  0.3309 -1.1745
30519SOL    HW295056   7.125   6.737   2.427 -0.6525 -0.9612 -2.1751
30520SOL     OW95057   9.089   9.267   0.908 -0.6498  0.5401  0.0938
30520SOL    HW195058   9.106   9.300   0.996  0.8888  1.8611 -0.6521
30520SOL    HW295059   9.130   9.331   0.850  0.1636 -1.3439 -1.5207
30521SOL     OW95060   7.043   6.684   0.312 -0.0671  0.0009  0.2844
30521SOL    HW195061   7.127   6.708   0.273 -0.3702  1.0463  0.2450
30521SOL    HW295062   7.057   6.689   0.406 -0.4292  1.5470  0.2882
30522SOL     OW95063   9.032   3.365   4.516  0.1792  0.9164 -0.0556
30522SOL    HW195064   8.980   3.415   4.453  0.3153  1.1566  0.0201
30522SOL    HW295065   9.019   3.410   4.599  1.6982  1.9041 -0.3060
30523SOL     OW95066   3.401   6.481  10.207  0.3384 -0.0963 -0.0529
30523SOL    HW195067   3.346   6.447  10.136  1.0011 -0.9122 -0.1849
30523SOL    HW295068   3.439   6.561  10.172 -0.8679  0.5692  0.0907
30524SOL     OW95069   7.835   2.812   8.034 -0.6525 -0.0252  0.1015
30524SOL    HW195070   7.844   2.886   8.095 -0.1883  0.9224 -1.0671
30524SOL    HW295071   7.901   2.828   7.967 -0.9378 -1.2087 -0.4957
30525SOL     OW95072   0.480   9.930   4.057 -0.0607  0.0630  0.2989
30525SOL    HW195073   0.490   9.888   3.972 -0.0662  0.1723  0.2449
30525SOL    HW295074   0.426   9.868   4.108  2.1267 -1.2989  1.1276
30526SOL     OW95075   4.332   1.585   4.202  0.2226 -0.2206  0.0770
30526SOL    HW195076   4.372   1.509   4.244 -0.4537 -1.3353 -1.1876
30526SOL    HW295077   4.334   1.564   4.109  1.2825  1.9625 -0.4484
30527SOL     OW95078   8.858   2.164   6.307  0.0077  0.3337  0.0598
30527SOL    HW195079   8.823   2.246   6.342  0.3583  0.5728 -0.1387
30527SOL    HW295080   8.784   2.125   6.260 -0.4485  0.0416  0.9966
30528SOL     OW95081   5.890   7.824   3.647  0.6678  0.1120 -0.0731
30528SOL    HW195082   5.907   7.732   3.624  0.8647  0.0996  0.1092
30528SOL    HW295083   5.955   7.843   3.715  1.2281  0.6561 -0.7391
30529SOL     OW95084   2.747   3.655   4.799  0.0564  0.7319  0.1751
30529SOL    HW195085   2.724   3.686   4.711 -0.8305  1.7224  0.7350
30529SOL    HW295086   2.819   3.594   4.784 -1.5042 -0.8142 -1.4470
30530SOL     OW95087   7.583  10.395   9.556  0.3470  0.2272 -0.2467
30530SOL    HW195088   7.614  10.395   9.465 -0.5717 -2.3051 -0.6494
30530SOL    HW295089   7.493  10.429   9.550  0.0595 -0.5528 -0.3901
30531SOL     OW95090  10.096   7.799   6.588 -0.2143  0.5519 -0.2143
30531SOL    HW195091  10.148   7.753   6.523 -0.2860  0.1859 -0.0136
30531SOL    HW295092  10.160   7.838   6.648 -0.1599  0.6015 -0.3040
30532SOL     OW95093  10.779   6.737   4.817  0.0995  0.1954 -0.0968
30532SOL    HW195094  10.728   6.712   4.741  0.7059  0.1547 -0.4971
30532SOL    HW295095  10.714   6.750   4.887 -0.7039  2.3373 -1.1414
30533SOL     OW95096   1.111   6.538   0.010  0.2920  0.3800 -0.9331
30533SOL    HW195097   1.067   6.520   0.093 -0.8905 -0.0149 -1.6231
30533SOL    HW295098   1.186   6.479   0.010  0.3596  0.4510 -0.1024
30534SOL     OW95099   9.142   9.419   4.255 -0.5427  0.3208 -0.4526
30534SOL    HW195100   9.171   9.438   4.166 -1.3330  0.8722 -0.6078
30534SOL    HW295101   9.103   9.501   4.285 -1.9234 -0.3816 -0.2637
30535SOL     OW95102   5.108   2.279   9.772 -0.7190  0.4892 -0.3989
30535SOL    HW195103   5.033   2.335   9.754 -0.4358  0.9475 -0.1732
30535SOL    HW295104   5.184   2.329   9.741 -0.2844  1.0075  1.3613
30536SOL     OW95105   3.193  10.074   0.351 -0.2018  0.0428  0.2852
30536SOL    HW195106   3.213  10.097   0.261  1.2187 -1.1125  0.2576
30536SOL    HW295107   3.152  10.152   0.388 -0.3148  0.7139 -1.1961
30537SOL     OW95108   7.147   3.704   3.767  0.1183 -0.2884 -0.0393
30537SOL    HW195109   7.217   3.652   3.807 -0.3112 -1.0173 -0.2131
30537SOL    HW295110   7.073   3.695   3.827 -0.0379 -0.0840 -0.2001
30538SOL     OW95111  10.537   3.744   4.005 -0.3589  0.2780 -0.0341
30538SOL    HW195112  10.603   3.677   3.988 -0.2113  0.6836 -1.1918
30538SOL    HW295113  10.564   3.818   3.949 -2.7442 -0.1870 -1.9394
30539SOL     OW95114   5.510   5.119   2.068  0.0589 -0.4643 -0.6385
30539SOL    HW195115   5.500   5.058   2.141  2.4781 -0.7011 -0.4273
30539SOL    HW295116   5.471   5.074   1.993 -1.0409 -0.8871  0.1625
30540SOL     OW95117  10.792   8.203   5.327 -0.5989 -0.2482  0.3967
30540SOL    HW195118  10.875   8.249   5.331 -0.5885 -0.1246 -0.9075
30540SOL    HW295119  10.766   8.193   5.419  1.5494 -1.5807  0.9295
30541SOL     OW95120   1.485  10.397   7.222  0.4688  0.4413 -0.4223
30541SOL    HW195121   1.448  10.444   7.296 -0.1339 -2.2104  1.0614
30541SOL    HW295122   1.579  10.391   7.242  0.3235 -0.1799  0.0890
30542SOL     OW95123   7.694   3.980   9.638  0.2024  0.1828 -0.6785
30542SOL    HW195124   7.600   3.997   9.631 -0.0956 -0.9208  0.3588
30542SOL    HW295125   7.735   4.059   9.605 -1.0966  0.8581 -0.7323
30543SOL     OW95126   8.124   5.944   7.356 -0.2106  0.3138 -0.1743
30543SOL    HW195127   8.113   5.851   7.334 -0.5163  0.7345 -2.0209
30543SOL    HW295128   8.042   5.985   7.330 -0.1441  1.0909  0.7858
30544SOL     OW95129   9.619   0.989  10.823  0.1262  0.0139 -0.4028
30544SOL    HW195130   9.691   0.984  10.886  1.2590  0.3461 -1.6348
30544SOL    HW295131   9.635   1.071  10.775 -1.4830  0.4669 -0.2326
30545SOL     OW95132  10.406   7.358   1.002  0.1686  0.2613 -0.5984
30545SOL    HW195133  10.455   7.277   0.985 -0.7615 -0.1829 -1.2865
30545SOL    HW295134  10.314   7.330   1.002 -0.1352  1.2464 -0.3748
30546SOL     OW95135   0.815   8.587   3.815  0.4194 -0.4232  0.4315
30546SOL    HW195136   0.741   8.645   3.795  0.5716 -0.7201 -1.1049
30546SOL    HW295137   0.876   8.642   3.865  0.7942  0.9237 -1.4251
30547SOL     OW95138   4.315   1.045   7.994  0.4153 -0.0355 -0.1504
30547SOL    HW195139   4.346   1.081   8.077 -0.6042  0.7388 -0.0745
30547SOL    HW295140   4.246   1.106   7.967  1.1115  0.0443 -1.8503
30548SOL     OW95141   2.909   6.103   2.489 -0.2278 -0.1070  0.2544
30548SOL    HW195142   2.899   6.179   2.432 -1.7535 -0.4339  0.0436
30548SOL    HW295143   2.887   6.136   2.576  1.5583  0.2597  0.6015
30549SOL     OW95144   9.367   2.320   1.001 -0.1997 -0.1428  0.1122
30549SOL    HW195145   9.279   2.305   1.036 -0.1871 -0.9940 -0.2007
30549SOL    HW295146   9.423   2.260   1.049  0.0961 -0.1166 -0.1951
30550SOL     OW95147   7.742   8.370   2.055 -0.2435  0.2350 -0.0641
30550SOL    HW195148   7.716   8.419   1.977  0.5913 -0.3102 -0.6915
30550SOL    HW295149   7.787   8.293   2.022  0.2670  0.0731  0.9656
30551SOL     OW95150   4.440   8.497   9.171  0.0287 -0.9409  0.6676
30551SOL    HW195151   4.479   8.548   9.101 -1.1122  0.6091  1.1084
30551SOL    HW295152   4.511   8.484   9.234  0.8320 -1.6228 -0.3392
30552SOL     OW95153   6.736   8.654   8.745 -0.4141 -0.2232  0.0748
30552SOL    HW195154   6.804   8.722   8.740 -1.0303  0.3178 -1.3108
30552SOL    HW295155   6.774   8.579   8.700 -1.2356  0.5476 -1.9836
30553SOL     OW95156   5.427   3.929   0.677 -0.1398  0.0276 -0.5060
30553SOL    HW195157   5.340   3.890   0.686  0.5739 -1.4804  0.3154
30553SOL    HW295158   5.456   3.944   0.767  0.5259  0.3345 -0.7667
30554SOL     OW95159   7.502   8.188   0.240 -0.2667  0.3861 -0.1192
30554SOL    HW195160   7.503   8.280   0.217 -0.4570  0.0775 -1.4117
30554SOL    HW295161   7.585   8.174   0.285  0.0968  1.0189 -0.5810
30555SOL     OW95162   2.238   5.319   7.792 -0.0430  0.0985  0.4460
30555SOL    HW195163   2.286   5.366   7.860  0.0138 -0.8470  1.0716
30555SOL    HW295164   2.163   5.376   7.773  0.6370  0.9845  0.3588
30556SOL     OW95165   3.996   1.245   6.453 -0.3802 -0.6377  0.2860
30556SOL    HW195166   4.079   1.272   6.414 -1.0662  1.5797  0.2215
30556SOL    HW295167   4.015   1.160   6.492  2.2508  0.2625  1.2191
30557SOL     OW95168   4.075   7.456   3.091  0.2992 -0.3219 -0.0015
30557SOL    HW195169   4.019   7.527   3.061  1.0507  0.3775  0.2173
30557SOL    HW295170   4.126   7.493   3.162  0.6695 -1.0969  0.1543
30558SOL     OW95171   5.992   0.595   9.324  0.7172  0.2408 -0.8137
30558SOL    HW195172   6.007   0.642   9.406  0.9672 -1.8770  0.4318
30558SOL    HW295173   6.073   0.606   9.274  0.2433  2.2717 -1.2076
30559SOL     OW95174   6.302   2.278   3.420 -0.4764 -0.7649 -0.4833
30559SOL    HW195175   6.339   2.204   3.372 -2.0472 -0.4073 -2.3445
30559SOL    HW295176   6.230   2.241   3.471 -1.4377 -0.5465 -1.6224
30560SOL     OW95177  11.002   0.762   0.053  0.1865  0.1904  0.1945
30560SOL    HW195178  10.927   0.752  -0.005  0.9950 -1.0344 -0.6681
30560SOL    HW295179  11.055   0.830   0.012  0.0887  0.2909  0.2328
30561SOL     OW95180   5.726   4.285   4.526  0.5311  0.2827  0.7591
30561SOL    HW195181   5.631   4.287   4.538  0.5228  0.9128  0.6383
30561SOL    HW295182   5.745   4.197   4.494  0.0607 -0.0433  1.3698
30562SOL     OW95183   6.665  10.101   3.095 -0.5199  0.1936  0.2573
30562SOL    HW195184   6.574  10.119   3.071 -0.7103  0.3802  1.0974
30562SOL    HW295185   6.678  10.147   3.177  0.4869  0.5496 -0.0897
30563SOL     OW95186  10.816   1.924   4.837 -0.2311 -0.1348  0.1814
30563SOL    HW195187  10.760   1.928   4.760 -1.0989  0.8117  0.8294
30563SOL    HW295188  10.823   1.830   4.856 -2.0694 -0.2815  0.3742
30564SOL     OW95189   7.130  10.425   9.719 -0.3620  0.2962  0.0754
30564SOL    HW195190   7.171  10.455   9.637  0.3176 -0.5057  0.1032
30564SOL    HW295191   7.047  10.387   9.691  0.3069 -0.9076 -0.4139
30565SOL     OW95192   8.729   9.092   0.670  0.7609 -0.0565 -0.1204
30565SOL    HW195193   8.695   9.010   0.706 -2.6270  0.4632 -1.7494
30565SOL    HW295194   8.823   9.089   0.688  0.6919 -3.9989  0.4022
30566SOL     OW95195  10.096   6.088   7.931 -0.4622  0.3063  0.3732
30566SOL    HW195196  10.107   5.994   7.917 -1.6404 -0.0173  1.4948
30566SOL    HW295197  10.025   6.113   7.871  0.1878  0.5981 -0.2913
30567SOL     OW95198   3.034   1.146   7.201 -0.0345 -0.0597 -0.0099
30567SOL    HW195199   3.041   1.239   7.179  0.0914 -0.3814 -1.4776
30567SOL    HW295200   2.950   1.119   7.166 -0.0538 -0.5048  0.3759
30568SOL     OW95201   7.301   3.499   8.073 -0.1615  0.1259 -1.0247
30568SOL    HW195202   7.366   3.564   8.046 -2.9836  2.6778 -2.2945
30568SOL    HW295203   7.276   3.455   7.991 -0.7312 -0.1171 -0.7257
30569SOL     OW95204   9.741   1.044   0.820  0.4876 -0.6436 -0.1247
30569SOL    HW195205   9.673   1.087   0.768  0.8496  1.6876  1.1774
30569SOL    HW295206   9.799   1.003   0.755 -1.0114 -0.9314 -1.3403
30570SOL     OW95207  10.019   5.872   7.116  0.3424 -0.0583  0.2139
30570SOL    HW195208   9.955   5.812   7.154  0.8389 -0.8625 -0.1935
30570SOL    HW295209  10.093   5.869   7.177  0.6546 -0.4207 -0.1746
30571SOL     OW95210   3.037  10.546   2.319  0.4792  0.3938 -0.8590
30571SOL    HW195211   3.002  10.634   2.334  1.1323  0.4263  0.6400
30571SOL    HW295212   3.131  10.555   2.336  0.5886 -0.5351 -0.9515
30572SOL     OW95213   6.671   8.372   7.297 -0.0426 -0.1121  0.4176
30572SOL    HW195214   6.691   8.430   7.224 -0.4168 -0.5830 -0.0644
30572SOL    HW295215   6.733   8.300   7.289 -1.9022 -1.6581 -1.1756
30573SOL     OW95216   6.263   1.047   0.769 -0.1571  0.7651  0.5780
30573SOL    HW195217   6.181   1.000   0.784 -0.4861  1.0448 -0.3148
30573SOL    HW295218   6.285   1.084   0.855 -0.4823 -0.0619  1.0308
30574SOL     OW95219  10.676   1.944   8.205 -0.3151  1.0448  0.1442
30574SOL    HW195220  10.728   1.952   8.125  1.7778  0.9972  1.4354
30574SOL    HW295221  10.600   1.892   8.179  1.1334 -0.3936 -1.4657
30575SOL     OW95222   0.504   7.876   1.498  0.4577 -0.2609  0.4199
30575SOL    HW195223   0.440   7.944   1.476  0.4285 -0.7777 -1.2007
30575SOL    HW295224   0.583   7.900   1.449  0.7213 -0.9407  0.5002
30576SOL     OW95225   8.757   4.873   1.866 -0.0407  0.1489  0.1440
30576SOL    HW195226   8.736   4.941   1.930 -1.6989 -1.3009  1.2311
30576SOL    HW295227   8.675   4.858   1.819  0.4125 -0.7823 -0.3807
30577SOL     OW95228   2.538   0.164   3.311  0.1470  0.3479  0.0529
30577SOL    HW195229   2.571   0.253   3.323 -0.3747  0.3825  1.5085
30577SOL    HW295230   2.607   0.108   3.349 -1.4189  0.4391  3.4565
30578SOL     OW95231   1.882   5.081   7.175 -0.3279  0.2089  0.1778
30578SOL    HW195232   1.868   5.152   7.238  0.1181 -0.7549  1.4080
30578SOL    HW295233   1.798   5.071   7.131 -0.3856  1.5104 -0.0389
30579SOL     OW95234   5.048   5.192   7.756  0.1238 -0.1040 -0.0736
30579SOL    HW195235   5.131   5.199   7.708  0.1576 -0.9509 -0.1578
30579SOL    HW295236   4.997   5.129   7.706 -1.3989  1.8655 -1.1490
30580SOL     OW95237   4.870   6.509   6.412  0.4060 -0.2235 -0.4084
30580SOL    HW195238   4.900   6.469   6.331 -0.5869 -0.5875 -0.6145
30580SOL    HW295239   4.846   6.435   6.468 -4.3727 -0.1172 -1.8876
30581SOL     OW95240   4.829   4.456   0.537 -0.4116 -0.4874 -0.2279
30581SOL    HW195241   4.873   4.524   0.485  0.2225 -1.4802 -1.0308
30581SOL    HW295242   4.779   4.406   0.473 -0.7220 -0.8967  0.3281
30582SOL     OW95243   6.575   4.517   4.650 -0.2099 -0.1423 -0.6194
30582SOL    HW195244   6.568   4.612   4.644  0.1766 -0.0907 -0.2556
30582SOL    HW295245   6.660   4.496   4.613 -0.1648 -0.3186 -0.4194
30583SOL     OW95246   3.000   1.853   0.124 -0.0586 -0.4726  0.2098
30583SOL    HW195247   2.974   1.873   0.034  0.9758 -2.9593 -0.7154
30583SOL    HW295248   3.084   1.898   0.136 -0.9032  1.0961  0.5086
30584SOL     OW95249   1.181   8.915   1.720  0.3057 -0.4609 -0.4534
30584SOL    HW195250   1.188   8.845   1.656  0.7626 -1.4894  0.6815
30584SOL    HW295251   1.175   8.995   1.668  2.4460 -1.0865 -1.7840
30585SOL     OW95252  10.871   6.952   1.142  0.2041  0.6808 -0.4013
30585SOL    HW195253  10.860   6.958   1.237 -1.0734 -0.6080 -0.4261
30585SOL    HW295254  10.782   6.942   1.108  0.5704  1.8497 -1.8215
30586SOL     OW95255   8.165   2.823   3.944  0.2885 -0.1731 -0.7824
30586SOL    HW195256   8.113   2.864   3.874 -0.2538  0.4284 -0.0408
30586SOL    HW295257   8.255   2.825   3.910 -0.1818 -1.6225 -2.2675
30587SOL     OW95258   0.199   2.584  10.248 -0.4419  0.0682 -0.0042
30587SOL    HW195259   0.238   2.658  10.202  0.4535 -0.8038 -0.7099
30587SOL    HW295260   0.258   2.567  10.321 -0.4711 -0.1478 -0.0305
30588SOL     OW95261   2.637   4.386   6.124 -0.5521 -0.1857  0.2329
30588SOL    HW195262   2.557   4.385   6.072 -1.3163 -0.9743  1.3707
30588SOL    HW295263   2.614   4.440   6.200  1.0635  2.3614 -0.9571
30589SOL     OW95264   2.942   8.912  10.772  0.1922  0.6134 -0.2817
30589SOL    HW195265   2.994   8.841  10.808 -1.1376  0.1660  0.8138
30589SOL    HW295266   2.958   8.986  10.831 -0.9821  0.2491  0.5311
30590SOL     OW95267   3.694   2.380   4.051 -0.5145 -0.2589  0.0715
30590SOL    HW195268   3.661   2.326   4.122 -2.7573  2.3194  1.1405
30590SOL    HW295269   3.617   2.400   3.997  0.3452  1.2961 -0.6515
30591SOL     OW95270   1.781   7.095   5.939 -0.2692  0.2208 -0.3042
30591SOL    HW195271   1.703   7.065   5.984  0.4681 -0.7689  0.3573
30591SOL    HW295272   1.786   7.042   5.859 -0.4471  0.5163 -0.5139
30592SOL     OW95273   9.345   4.846  10.122  0.8146  0.0096 -0.0003
30592SOL    HW195274   9.429   4.856  10.078  1.5424 -3.0696  0.4878
30592SOL    HW295275   9.367   4.838  10.215 -0.1116 -0.0469  0.2284
30593SOL     OW95276   0.449   8.794   3.265 -0.2576 -0.1570 -0.0214
30593SOL    HW195277   0.462   8.703   3.240  1.0454  0.1701 -0.5858
30593SOL    HW295278   0.358   8.797   3.295  0.1226 -1.9872  1.5626
30594SOL     OW95279   1.892   7.980   9.161  0.1858  0.1949  0.2273
30594SOL    HW195280   1.951   8.056   9.162 -0.5926  0.8071  0.4453
30594SOL    HW295281   1.950   7.905   9.148  1.1309  0.6682  1.5409
30595SOL     OW95282   9.305   7.297   5.292 -0.2439 -0.7223 -0.1399
30595SOL    HW195283   9.290   7.382   5.332  0.2727 -1.1310  0.9596
30595SOL    HW295284   9.293   7.312   5.198  0.7455  0.7648 -0.0607
30596SOL     OW95285   8.053   9.578   5.679 -0.1458 -0.5048 -0.0241
30596SOL    HW195286   8.096   9.651   5.634 -1.0080 -0.3068 -0.5498
30596SOL    HW295287   7.988   9.620   5.736 -0.4002 -0.8463 -0.0600
30597SOL     OW95288   0.894   7.669   7.867 -0.0507  0.4473  0.0524
30597SOL    HW195289   0.867   7.760   7.863 -0.0971  0.5007  1.1378
30597SOL    HW295290   0.955   7.659   7.794 -0.7065  1.1060 -0.6030
30598SOL     OW95291   6.606   1.911  10.200 -0.1799  0.5300  0.0283
30598SOL    HW195292   6.546   1.867  10.260 -0.7701  2.6386  1.0917
30598SOL    HW295293   6.576   2.002  10.200  0.8264  0.9106 -2.2400
30599SOL     OW95294   2.898   4.386   5.077  0.6959  0.3352  0.0972
30599SOL    HW195295   2.875   4.358   4.989 -0.2885 -1.6169  0.9247
30599SOL    HW295296   2.823   4.438   5.106  0.2892 -0.4049  0.3753
30600SOL     OW95297   2.006   2.720   0.764 -0.1132  0.0524 -0.0792
30600SOL    HW195298   2.039   2.810   0.768 -0.6912  0.3801 -1.7938
30600SOL    HW295299   2.062   2.676   0.701 -0.9625 -0.2558 -0.6437
30601SOL     OW95300   0.939   4.459   0.693 -0.1578  0.2409  0.5465
30601SOL    HW195301   0.966   4.525   0.757 -0.0370  0.9590 -0.2285
30601SOL    HW295302   0.845   4.471   0.684 -0.3516 -0.5610  1.3514
30602SOL     OW95303   7.889   6.786  10.039 -0.4516  0.8450 -0.2403
30602SOL    HW195304   7.938   6.761   9.961 -0.8003  2.0814 -0.8655
30602SOL    HW295305   7.817   6.722  10.044  0.1917  0.0942 -0.2867
30603SOL     OW95306   2.832   0.033   4.708  0.0635  0.1302 -0.2101
30603SOL    HW195307   2.917  -0.002   4.733 -0.4408 -1.0837 -0.1158
30603SOL    HW295308   2.819   0.108   4.766  0.3217 -0.7027  0.9701
30604SOL     OW95309   3.380   6.488   9.554 -0.4128 -0.0420  0.2369
30604SOL    HW195310   3.430   6.566   9.576 -1.5940  0.6281  0.6498
30604SOL    HW295311   3.353   6.452   9.639  0.1874 -0.9423  0.0517
30605SOL     OW95312   8.998   2.473   9.866 -0.0651 -0.5472 -0.5422
30605SOL    HW195313   8.991   2.395   9.811  1.8838  0.1235 -1.8662
30605SOL    HW295314   9.017   2.544   9.804  1.0408  0.4600  0.8715
30606SOL     OW95315   5.377  10.694   4.776  0.6690 -0.1139  0.3455
30606SOL    HW195316   5.351  10.681   4.867  0.1764  0.0639  0.2339
30606SOL    HW295317   5.473  10.685   4.776  0.7529  0.7033  1.0197
30607SOL     OW95318  10.530   5.916   2.108 -0.7198 -0.1349  0.2858
30607SOL    HW195319  10.585   5.843   2.136 -1.3349 -0.2836  1.1595
30607SOL    HW295320  10.447   5.876   2.085 -0.4768  0.0887 -1.0327
30608SOL     OW95321   5.492   7.031   2.225  0.5011  0.2985 -0.2502
30608SOL    HW195322   5.536   6.951   2.255 -0.1520  0.0921  0.1840
30608SOL    HW295323   5.416   7.039   2.283  0.6174  1.2971 -0.2238
30609SOL     OW95324   9.095   2.735   6.144  0.2552 -0.5601 -0.3971
30609SOL    HW195325   9.181   2.706   6.115  0.4591 -2.2490  1.6514
30609SOL    HW295326   9.082   2.692   6.228 -2.1590  0.4951 -0.1395
30610SOL     OW95327   6.508   4.484   3.139  0.4309 -0.1485 -0.1785
30610SOL    HW195328   6.507   4.400   3.094 -1.5713 -0.4056  0.2504
30610SOL    HW295329   6.594   4.521   3.121  1.0402 -1.9280 -1.0402
30611SOL     OW95330   6.133   2.633   5.265  0.4220  0.2529 -0.3505
30611SOL    HW195331   6.054   2.656   5.215  0.1567 -0.9687 -0.5142
30611SOL    HW295332   6.103   2.631   5.356  0.4242  0.4361 -0.3443
30612SOL     OW95333   2.885   7.577   1.259  0.7039 -0.5464  0.3438
30612SOL    HW195334   2.826   7.508   1.287 -0.6840 -0.0928 -1.3040
30612SOL    HW295335   2.931   7.540   1.183  2.1980 -0.7017  1.2792
30613SOL     OW95336   1.841   4.645   6.071  0.3866 -0.0874 -0.5252
30613SOL    HW195337   1.933   4.663   6.091  0.0430 -0.1253  1.2391
30613SOL    HW295338   1.804   4.614   6.153 -1.1060 -0.5394 -1.3265
30614SOL     OW95339   8.069   7.573   2.942 -0.2636  0.1842  0.3613
30614SOL    HW195340   8.162   7.550   2.940 -0.0029  1.2145 -0.6652
30614SOL    HW295341   8.049   7.582   3.035  0.5922 -0.2915  0.6091
30615SOL     OW95342  10.201  10.787   6.871  0.0446 -0.4046  0.3763
30615SOL    HW195343  10.208  10.715   6.808 -2.0888 -0.0783 -0.3200
30615SOL    HW295344  10.292  10.813   6.887  0.9609 -3.4868  1.0063
30616SOL     OW95345   5.944   1.788   7.754 -0.2722 -0.4900  0.5041
30616SOL    HW195346   5.948   1.703   7.798 -0.8105 -0.8104 -0.0568
30616SOL    HW295347   5.941   1.852   7.826  1.6660 -0.8300  0.9530
30617SOL     OW95348   7.846   6.811   9.432 -0.0225 -0.3225 -0.2705
30617SOL    HW195349   7.879   6.900   9.449 -0.1583 -0.1453 -0.8867
30617SOL    HW295350   7.881   6.790   9.345 -1.6202 -0.0714 -1.0125
30618SOL     OW95351   4.275   3.766   3.050 -0.4848  0.2207 -0.1618
30618SOL    HW195352   4.211   3.708   3.092 -0.9121 -1.3381 -2.7389
30618SOL    HW295353   4.358   3.746   3.093 -1.3699  1.0303  2.0582
30619SOL     OW95354   0.252   3.422   6.735 -0.1249 -0.8959 -0.2831
30619SOL    HW195355   0.344   3.425   6.760  0.4415  0.0359 -2.2207
30619SOL    HW295356   0.204   3.418   6.818  1.5631  1.5054  0.9431
30620SOL     OW95357   4.136   5.261   9.305 -0.0525  0.1565 -0.1056
30620SOL    HW195358   4.052   5.231   9.340  0.2582  2.2842  2.8654
30620SOL    HW295359   4.197   5.251   9.378  1.1663  3.0482 -0.5947
30621SOL     OW95360   5.329   4.824   1.409  0.0859  0.0012 -0.1673
30621SOL    HW195361   5.307   4.790   1.322 -0.5885 -2.3321  0.8462
30621SOL    HW295362   5.376   4.752   1.452  2.1423  1.7780  0.7839
30622SOL     OW95363  10.036  10.430   3.126  0.0234  0.3663  0.2915
30622SOL    HW195364   9.995  10.345   3.143 -1.0962  0.6903 -0.7132
30622SOL    HW295365  10.125  10.408   3.099 -0.7906 -0.6310 -1.7690
30623SOL     OW95366   5.003   3.566   4.072  0.1254 -0.6914 -0.1232
30623SOL    HW195367   5.039   3.500   4.131  1.1909 -0.0863 -0.0653
30623SOL    HW295368   4.921   3.593   4.113  1.2965  0.4093  1.6431
30624SOL     OW95369   3.998   2.938   1.315 -0.5118 -0.3835 -0.0222
30624SOL    HW195370   3.923   2.939   1.375 -0.2555  1.1169  0.3189
30624SOL    HW295371   3.972   2.881   1.244 -2.4047  0.8903 -0.4109
30625SOL     OW95372   9.687   6.259   7.790 -0.2498  0.9205 -0.4176
30625SOL    HW195373   9.610   6.208   7.813  0.9913 -0.7769  0.2116
30625SOL    HW295374   9.681   6.272   7.695 -0.0221 -1.5124 -0.8125
30626SOL     OW95375   7.864   5.743   5.842 -0.5536 -0.7330 -0.2968
30626SOL    HW195376   7.881   5.792   5.761 -2.0559  0.5304  0.1016
30626SOL    HW295377   7.878   5.652   5.818  0.3837 -0.2719 -1.6059
30627SOL     OW95378   6.633   6.114  10.015  0.5878 -0.6897  0.0065
30627SOL    HW195379   6.637   6.095  10.109  0.4255 -1.5489 -0.1502
30627SOL    HW295380   6.547   6.152  10.002  1.1365  0.7736  0.4243
30628SOL     OW95381   2.860   7.767   6.229  0.1583 -0.6473 -0.2021
30628SOL    HW195382   2.765   7.769   6.234  0.0915 -1.3630 -0.8757
30628SOL    HW295383   2.890   7.827   6.297 -0.7823 -0.0181 -0.3289
30629SOL     OW95384   4.709   8.358   6.635  0.4511  0.2766 -0.2022
30629SOL    HW195385   4.639   8.352   6.570  0.5594  2.1712 -0.5521
30629SOL    HW295386   4.680   8.427   6.695  0.5496 -1.1391  1.5679
30630SOL     OW95387   7.252   2.098   1.389 -0.0003 -0.1478  0.4648
30630SOL    HW195388   7.184   2.145   1.340  1.0548 -0.2954 -1.2012
30630SOL    HW295389   7.311   2.166   1.421  0.1271 -0.1585  0.2513
30631SOL     OW95390   7.168   8.682  10.524 -0.0154 -0.0728  0.4168
30631SOL    HW195391   7.106   8.754  10.529 -0.6186 -0.5017 -0.5574
30631SOL    HW295392   7.222   8.702  10.448  0.6322 -0.0266  0.8808
30632SOL     OW95393  10.914   1.856   5.146  0.0961 -0.2099 -0.2514
30632SOL    HW195394  10.845   1.910   5.107  1.2418  1.2183 -0.3864
30632SOL    HW295395  10.976   1.919   5.182 -0.2708 -1.4260  2.8650
30633SOL     OW95396   7.893   6.763   2.936  0.4773  0.1336 -0.4129
30633SOL    HW195397   7.875   6.709   2.859 -1.6580 -1.4342  1.0646
30633SOL    HW295398   7.875   6.852   2.907 -0.2098 -0.4122 -1.7675
30634SOL     OW95399   2.732   6.408   6.562 -0.2831  0.1407  0.0691
30634SOL    HW195400   2.646   6.381   6.594 -0.5625 -1.0674 -1.5440
30634SOL    HW295401   2.794   6.362   6.618 -0.6752  0.7680  1.0380
30635SOL     OW95402   5.853   3.608   5.635  0.1909  0.3894 -0.0238
30635SOL    HW195403   5.761   3.611   5.659  0.1220 -2.5910  0.4546
30635SOL    HW295404   5.900   3.611   5.718  0.4157  0.0159 -0.1321
30636SOL     OW95405   6.342   9.225   0.305  0.3808 -0.6027  0.4071
30636SOL    HW195406   6.353   9.286   0.233 -0.8229 -0.7420  0.0857
30636SOL    HW295407   6.431   9.212   0.339  0.8743 -0.0064 -0.5999
30637SOL     OW95408   8.098   3.850   8.487 -0.2165  0.0034  0.0945
30637SOL    HW195409   8.074   3.811   8.403 -0.7336 -0.9099  0.6525
30637SOL    HW295410   8.193   3.847   8.489 -0.1754  0.5086 -0.6768
30638SOL     OW95411   6.579   0.804   0.448  0.1732  0.2202  0.2783
30638SOL    HW195412   6.539   0.823   0.533 -1.7452 -1.3822 -0.1871
30638SOL    HW295413   6.598   0.710   0.451  0.5614  0.2460 -0.8743
30639SOL     OW95414   3.308   5.482   1.114  0.1115 -0.2363 -0.2662
30639SOL    HW195415   3.370   5.531   1.169  0.0936 -1.2227  0.6420
30639SOL    HW295416   3.222   5.518   1.137 -0.0623 -1.6640  1.4984
30640SOL     OW95417  10.870   7.028   6.127 -0.0168  0.4553 -0.0730
30640SOL    HW195418  10.789   7.026   6.076 -0.0079  0.5451 -0.0920
30640SOL    HW295419  10.918   6.950   6.100 -0.4844 -0.0684  0.5690
30641SOL     OW95420  10.190  10.993   0.421 -0.2667  0.4317  0.5539
30641SOL    HW195421  10.199  11.065   0.484 -0.6413 -0.5588  1.8002
30641SOL    HW295422  10.279  10.978   0.389 -0.3507  2.1727 -0.6073
30642SOL     OW95423   5.228   6.122  10.890  0.0064 -0.0483 -0.2779
30642SOL    HW195424   5.200   6.177  10.817 -2.0751 -1.4121 -0.5888
30642SOL    HW295425   5.175   6.152  10.964 -2.8710 -2.8791 -0.9479
30643SOL     OW95426   9.034   2.235   4.429 -0.2515 -0.2822  0.2100
30643SOL    HW195427   9.114   2.286   4.420 -1.4066  1.4863 -0.8449
30643SOL    HW295428   8.998   2.232   4.340 -1.3007 -1.1126  0.6430
30644SOL     OW95429   5.070   0.981   6.222  0.2075 -0.0323 -0.0284
30644SOL    HW195430   5.044   0.915   6.286  1.2915  1.1443  1.7079
30644SOL    HW295431   5.106   0.930   6.149  3.4456 -1.4745  2.3097
30645SOL     OW95432   7.182   3.610  10.656  0.4818  0.1123 -0.7998
30645SOL    HW195433   7.093   3.585  10.632  0.0756 -0.4103  1.0967
30645SOL    HW295434   7.174   3.702  10.683  0.4612 -0.0068 -0.3945
30646SOL     OW95435   8.072   6.961   3.783  0.0153  0.6007  0.4338
30646SOL    HW195436   8.105   6.960   3.693  2.6821  0.0894  1.3075
30646SOL    HW295437   8.031   7.046   3.793  0.4007  0.9903 -1.0421
30647SOL     OW95438   4.961  10.221   6.919  0.3882 -0.2334  0.2025
30647SOL    HW195439   4.883  10.167   6.933  1.2720 -1.5459  0.3221
30647SOL    HW295440   5.016  10.204   6.995  0.4008  1.4336  0.6004
30648SOL     OW95441   2.246   8.834   4.174  0.3674  0.8811 -0.6033
30648SOL    HW195442   2.251   8.825   4.079  1.2085 -0.3713 -0.4618
30648SOL    HW295443   2.286   8.918   4.193  0.7757  0.8516 -1.3103
30649SOL     OW95444   3.467   9.328   4.743  0.0203 -0.2687  0.5235
30649SOL    HW195445   3.383   9.282   4.735 -0.9035  1.1561  1.3637
30649SOL    HW295446   3.531   9.260   4.761 -0.9209 -1.4143 -0.2975
30650SOL     OW95447   9.528   5.993   7.507  0.0997 -0.4683  0.3862
30650SOL    HW195448   9.520   6.082   7.541 -0.1870 -0.3852  0.1090
30650SOL    HW295449   9.495   5.937   7.578  0.2111 -0.3498  0.5321
30651SOL     OW95450  10.413  10.935   2.491 -0.2268  0.3652  0.0512
30651SOL    HW195451  10.325  10.973   2.489 -0.2816  0.2499  0.1773
30651SOL    HW295452  10.407  10.857   2.436 -0.5708 -0.3970  1.1441
30652SOL     OW95453   8.643   1.116   7.010  0.4026  0.6981  0.0959
30652SOL    HW195454   8.559   1.100   6.968  0.1178  0.2536  0.8036
30652SOL    HW295455   8.620   1.155   7.095  0.9287  1.0411  0.0833
30653SOL     OW95456   5.510   4.095   6.715  0.1140  0.4959 -0.4550
30653SOL    HW195457   5.420   4.064   6.713 -0.2003  1.2321  1.2164
30653SOL    HW295458   5.557   4.029   6.765  0.2633  0.7180 -0.3014
30654SOL     OW95459  10.240   6.005   3.013 -0.4732  0.1644  0.9374
30654SOL    HW195460  10.195   5.936   3.062  1.8349 -1.6547  0.6796
30654SOL    HW295461  10.212   5.992   2.922  1.1323 -1.5696  0.6223
30655SOL     OW95462   0.444   3.184   9.990  0.0037 -0.2076 -0.2452
30655SOL    HW195463   0.426   3.279   9.988 -1.2574 -0.4280 -0.1252
30655SOL    HW295464   0.457   3.161   9.898 -0.7774 -0.1014 -0.3903
30656SOL     OW95465   5.594   0.158   6.228 -0.0805 -0.3402 -0.4835
30656SOL    HW195466   5.550   0.218   6.287 -0.9070 -1.9457  0.6108
30656SOL    HW295467   5.535   0.151   6.152  0.2373  0.5404 -0.8213
30657SOL     OW95468   9.823   8.357   8.636  0.7964  0.2213  0.1436
30657SOL    HW195469   9.856   8.333   8.550  1.2388  1.2397  0.0033
30657SOL    HW295470   9.746   8.303   8.650  0.9992 -0.2826 -0.6906
30658SOL     OW95471   8.669   2.750   8.120  0.0871  0.3257 -0.0729
30658SOL    HW195472   8.662   2.786   8.208 -0.5327 -0.8990  0.4022
30658SOL    HW295473   8.622   2.812   8.064 -1.5732 -0.0721  0.8188
30659SOL     OW95474   3.713   6.688  10.832  0.0810  0.2063 -0.3315
30659SOL    HW195475   3.699   6.609  10.885 -2.8622 -0.2865 -1.6289
30659SOL    HW295476   3.677   6.759  10.885 -0.7080  0.0647 -0.6566
30660SOL     OW95477   8.605   7.567   8.515  0.0511 -0.3308  0.4932
30660SOL    HW195478   8.544   7.568   8.589 -0.7829 -1.1370 -0.1534
30660SOL    HW295479   8.637   7.476   8.511  2.2722  0.3431  1.5666
30661SOL     OW95480  10.573  10.366   9.483  0.2946  0.1812  0.2305
30661SOL    HW195481  10.575  10.271   9.475  1.6381  0.1071  1.1776
30661SOL    HW295482  10.489  10.385   9.524 -0.5314 -0.4740 -1.0726
30662SOL     OW95483   0.249   9.181   1.884  0.3336 -0.6253  0.2475
30662SOL    HW195484   0.182   9.174   1.952  0.4310 -0.8596  0.3220
30662SOL    HW295485   0.325   9.219   1.929 -0.1300  0.7876 -0.1116
30663SOL     OW95486   4.586   6.010   1.747 -0.9969  0.3495  0.1204
30663SOL    HW195487   4.646   5.935   1.753 -1.1563  0.1275 -0.9174
30663SOL    HW295488   4.566   6.031   1.838 -0.6092 -0.5984  0.4424
30664SOL     OW95489   4.977   8.901   5.569 -0.7409  0.4936  0.0251
30664SOL    HW195490   4.949   8.825   5.619 -0.1533 -0.8431 -1.5764
30664SOL    HW295491   4.967   8.875   5.477 -0.0798  2.1753 -0.5724
30665SOL     OW95492   8.700  10.313   4.678  0.2013 -0.5268 -0.3072
30665SOL    HW195493   8.667  10.237   4.629 -0.4180  0.7404 -1.9380
30665SOL    HW295494   8.637  10.323   4.750  0.6524 -1.9130  0.3205
30666SOL     OW95495   8.037   6.552   5.514  0.1401 -0.0142 -0.3685
30666SOL    HW195496   7.949   6.581   5.490  0.5553  0.4406 -1.4087
30666SOL    HW295497   8.094   6.590   5.447  1.0085 -1.1742 -0.3323
30667SOL     OW95498   7.664   7.183   9.118 -0.3038  0.3675 -0.2485
30667SOL    HW195499   7.742   7.225   9.081  0.0764  1.3167  1.5100
30667SOL    HW295500   7.594   7.246   9.104 -0.2840  0.4687  0.0998
30668SOL     OW95501   4.828   5.924   4.798 -0.0901 -0.4707 -0.1270
30668SOL    HW195502   4.735   5.908   4.815  0.4122 -0.9117  2.6155
30668SOL    HW295503   4.849   6.002   4.849  1.6696 -2.1294  1.8816
30669SOL     OW95504   5.874   2.452   5.227  0.7609  0.1470 -0.4469
30669SOL    HW195505   5.928   2.392   5.176  2.0469  0.8097  0.0935
30669SOL    HW295506   5.902   2.539   5.200 -0.0379  0.5167 -0.1332
30670SOL     OW95507   1.368   8.561   6.966 -0.1240 -0.2147  0.8861
30670SOL    HW195508   1.444   8.569   6.908  0.3326 -0.0257  1.4979
30670SOL    HW295509   1.389   8.617   7.041 -0.5894 -0.6622  1.3602
30671SOL     OW95510   9.656   0.550  10.222  0.3359  0.0767 -0.0618
30671SOL    HW195511   9.718   0.573  10.291  1.8183  0.3102 -1.3965
30671SOL    HW295512   9.675   0.612  10.152 -1.5872  0.2890 -0.4506
30672SOL     OW95513   5.855   9.461   9.228  0.5826 -0.1314  0.5443
30672SOL    HW195514   5.789   9.484   9.163  0.9314  1.4450  0.6935
30672SOL    HW295515   5.930   9.431   9.176  1.3833  2.4553  0.0436
30673SOL     OW95516  10.531  10.207   2.757 -0.2342  0.0654 -0.6824
30673SOL    HW195517  10.458  10.173   2.705 -0.5413  1.7615 -1.4182
30673SOL    HW295518  10.572  10.129   2.795 -2.7863 -0.9230  0.2635
30674SOL     OW95519   4.975   4.698   6.054 -0.1473  0.6904  0.3206
30674SOL    HW195520   5.018   4.679   5.970  1.1944  0.3025  1.0723
30674SOL    HW295521   4.957   4.612   6.092 -0.9441  0.8613  0.3447
30675SOL     OW95522   8.645   0.145   2.212  0.2549  0.5664 -0.4470
30675SOL    HW195523   8.681   0.068   2.170 -2.6235 -1.8394  1.0840
30675SOL    HW295524   8.651   0.127   2.306 -3.4936  0.4785 -0.0560
30676SOL     OW95525   6.504   3.980   8.878  0.2284 -0.2352  0.3957
30676SOL    HW195526   6.531   4.010   8.965  1.3001  0.5161 -0.1670
30676SOL    HW295527   6.562   4.027   8.818 -0.1848 -1.0947 -0.7036
30677SOL     OW95528   7.996   7.391   4.463 -0.3189  0.1669 -0.0232
30677SOL    HW195529   8.071   7.448   4.480  0.9578 -1.4491  0.0022
30677SOL    HW295530   7.940   7.442   4.404  0.3254  1.7726  0.6953
30678SOL     OW95531   9.397   9.485   1.790  0.1357 -0.0274  0.1745
30678SOL    HW195532   9.465   9.444   1.736  1.6344 -1.0065  2.6458
30678SOL    HW295533   9.315   9.450   1.756  1.0543 -1.1656 -0.9674
30679SOL     OW95534   3.267   8.996   8.502 -0.5413  0.0319 -0.7580
30679SOL    HW195535   3.208   8.932   8.541 -1.3276  0.4623 -1.1986
30679SOL    HW295536   3.285   9.059   8.572 -1.1656  0.2714 -0.8045
30680SOL     OW95537   8.113   6.907   1.510  0.5281 -0.3840 -0.5299
30680SOL    HW195538   8.197   6.892   1.554  1.2103  1.4525 -1.1293
30680SOL    HW295539   8.123   6.862   1.426  0.5569 -0.9186 -0.2489
30681SOL     OW95540   0.956   8.360   0.732  0.2585 -0.2069  0.5388
30681SOL    HW195541   1.015   8.291   0.702  0.2392  0.1562 -0.3372
30681SOL    HW295542   0.983   8.438   0.684  0.0647  0.3258  1.2790
30682SOL     OW95543   8.027   1.434   8.527  0.8386  0.3582  0.2512
30682SOL    HW195544   8.056   1.410   8.616  0.0244 -1.4681  0.0755
30682SOL    HW295545   8.084   1.384   8.469 -0.0419 -0.1698 -0.1852
30683SOL     OW95546   9.966   8.964  10.783  1.0930  0.0116 -0.0969
30683SOL    HW195547  10.012   9.033  10.831  1.2004  0.7148 -1.1794
30683SOL    HW295548   9.892   8.941  10.840  1.8484  0.0181  0.9125
30684SOL     OW95549   4.166   9.579   7.701  0.1916  0.0450  0.0799
30684SOL    HW195550   4.099   9.532   7.751  1.4223 -1.9165  0.0057
30684SOL    HW295551   4.136   9.575   7.611 -0.2572  0.3901  0.2117
30685SOL     OW95552   8.145   5.553   9.003 -0.0493 -0.1323 -0.0743
30685SOL    HW195553   8.111   5.557   8.913  1.4803  0.9400 -0.6593
30685SOL    HW295554   8.135   5.462   9.029 -0.7707 -0.4075 -1.2316
30686SOL     OW95555   9.839  10.193   4.844 -0.4103 -0.1410 -0.5341
30686SOL    HW195556   9.917  10.201   4.789 -0.4732  0.3376 -0.5541
30686SOL    HW295557   9.842  10.103   4.877  0.9685  0.3253  0.7098
30687SOL     OW95558   5.664   0.327   4.178  0.7500 -0.4259 -0.3402
30687SOL    HW195559   5.686   0.241   4.213 -0.5734  0.6747  3.7032
30687SOL    HW295560   5.624   0.308   4.093  1.1438 -3.6887  0.0580
30688SOL     OW95561   8.987   3.155   8.733  0.3245 -0.2538 -0.0610
30688SOL    HW195562   9.071   3.186   8.765  0.1889 -2.0392  2.2579
30688SOL    HW295563   8.949   3.107   8.806 -2.8838  0.7297 -0.9210
30689SOL     OW95564  10.771   8.412  10.795 -0.0177 -0.0731 -0.3496
30689SOL    HW195565  10.748   8.328  10.756  0.8564 -2.4761  3.7392
30689SOL    HW295566  10.848   8.394  10.848  1.5952  3.9455 -0.9770
30690SOL     OW95567   6.468   6.118   0.702  0.2835  0.0721 -0.0883
30690SOL    HW195568   6.387   6.124   0.652  0.9656  0.0488 -1.2272
30690SOL    HW295569   6.531   6.079   0.641  1.7754  2.2437 -0.0387
30691SOL     OW95570   3.453   9.335   0.611 -0.1421 -0.4679 -0.1520
30691SOL    HW195571   3.403   9.363   0.687  0.0210 -1.4003  0.3108
30691SOL    HW295572   3.545   9.350   0.635 -0.0924 -0.7256 -0.1758
30692SOL     OW95573   7.554   3.099   1.975  0.0177 -0.0839 -0.4598
30692SOL    HW195574   7.580   3.042   2.047  0.9533 -0.5960 -1.1765
30692SOL    HW295575   7.460   3.086   1.967 -0.0762 -0.1106  0.5818
30693SOL     OW95576   6.781   3.781   5.949 -0.6298  0.4293  0.5091
30693SOL    HW195577   6.728   3.722   5.894 -1.1554  0.3103  1.1350
30693SOL    HW295578   6.871   3.760   5.925 -0.8453  1.1901 -1.1637
30694SOL     OW95579  10.320   9.148   0.053 -0.2913 -0.3380 -0.1899
30694SOL    HW195580  10.316   9.106   0.138  0.4112  0.2518  0.1476
30694SOL    HW295581  10.336   9.077  -0.009 -1.4487 -0.8507  0.0863
30695SOL     OW95582   4.592   2.089   0.186  0.1895 -0.0655 -0.0527
30695SOL    HW195583   4.531   2.038   0.239  2.2756 -1.7549  0.8647
30695SOL    HW295584   4.583   2.053   0.097  1.5076 -2.0686  0.5460
30696SOL     OW95585   4.958   4.925   3.839 -0.6571  0.0009  0.2309
30696SOL    HW195586   4.967   4.949   3.747  0.5378 -1.7498 -0.1572
30696SOL    HW295587   4.866   4.899   3.848 -1.1183  1.4253 -0.1128
30697SOL     OW95588   1.322  10.475   3.934 -0.0245  0.1807  0.1816
30697SOL    HW195589   1.384  10.507   4.000  1.6894 -1.9811 -0.2657
30697SOL    HW295590   1.343  10.526   3.855 -2.0082  2.6947  1.1130
30698SOL     OW95591   7.582   7.895   0.151  0.3036 -0.1692  0.0356
30698SOL    HW195592   7.532   7.816   0.131  0.9936 -0.5673 -0.1674
30698SOL    HW295593   7.614   7.881   0.240 -1.9908  1.1900  1.1736
30699SOL     OW95594   1.681   0.896   5.473 -0.3182 -0.4914  0.1933
30699SOL    HW195595   1.635   0.816   5.500  0.3392 -0.1886  2.4054
30699SOL    HW295596   1.648   0.913   5.385 -2.5740 -1.6512  0.7117
30700SOL     OW95597   5.899   2.782   8.837 -0.3548 -0.3687 -0.1843
30700SOL    HW195598   5.873   2.857   8.783  0.3338  0.3089  0.3971
30700SOL    HW295599   5.972   2.814   8.890 -0.3784 -1.3019  0.4535
30701SOL     OW95600   5.945   6.864   0.130 -0.1979 -0.0698  0.2132
30701SOL    HW195601   5.981   6.822   0.208 -1.6444 -0.8973  0.4701
30701SOL    HW295602   6.019   6.871   0.070  0.3453 -1.9723  0.6076
30702SOL     OW95603   6.802   9.115   2.723  0.2183 -0.0160 -0.1784
30702SOL    HW195604   6.753   9.046   2.767  1.2619 -1.5758 -1.3423
30702SOL    HW295605   6.827   9.076   2.639  0.0544  2.1250 -1.2792
30703SOL     OW95606   0.390   6.175   7.016 -0.2406 -0.5978 -0.2080
30703SOL    HW195607   0.383   6.152   7.109 -1.3860 -0.7801 -0.3295
30703SOL    HW295608   0.379   6.093   6.970  0.6106 -0.5510 -0.5149
30704SOL     OW95609   3.276   4.506   7.614  0.2260 -0.8492  0.3701
30704SOL    HW195610   3.221   4.429   7.622  0.5269 -1.5312 -2.6462
30704SOL    HW295611   3.354   4.474   7.568 -0.3079  1.4244 -2.4061
30705SOL     OW95612   1.449  10.511   5.615  0.4391 -0.3569 -0.4267
30705SOL    HW195613   1.479  10.542   5.701  3.0851 -0.7978 -1.0986
30705SOL    HW295614   1.367  10.465   5.633  0.6948 -0.0526  1.7907
30706SOL     OW95615   4.920   6.085   6.206 -0.3304 -0.0074  0.3341
30706SOL    HW195616   4.888   6.010   6.256 -2.3906 -0.4129 -1.4884
30706SOL    HW295617   4.958   6.047   6.127 -1.0268  0.8265 -0.4205
30707SOL     OW95618   4.376  10.526   3.364 -0.5936  0.1243 -0.8786
30707SOL    HW195619   4.434  10.479   3.303  0.6556  0.3074  0.1166
30707SOL    HW295620   4.294  10.477   3.360  0.3429 -1.5763 -0.6374
30708SOL     OW95621   4.075   6.021   7.634 -0.2595 -0.2988 -0.2111
30708SOL    HW195622   4.086   5.928   7.651 -1.6602 -0.1448  1.8308
30708SOL    HW295623   4.149   6.063   7.678  0.8770 -0.4442 -1.8797
30709SOL     OW95624   2.932   1.045   3.923 -0.2626 -0.1949 -0.1755
30709SOL    HW195625   2.928   0.971   3.983 -0.0658 -0.0108  0.0697
30709SOL    HW295626   2.841   1.070   3.908 -0.4357 -1.6105 -1.6826
30710SOL     OW95627   6.387   3.959   9.646  0.3230 -0.0015 -0.1677
30710SOL    HW195628   6.383   3.961   9.741 -0.8345  0.7692 -0.2042
30710SOL    HW295629   6.310   3.908   9.620  0.1519  0.5173 -0.7003
30711SOL     OW95630   2.540   5.798   6.747 -0.2029 -0.2691 -0.3921
30711SOL    HW195631   2.544   5.893   6.754  0.3461 -0.3463  0.6689
30711SOL    HW295632   2.596   5.777   6.672  0.1729  0.2117 -0.2520
30712SOL     OW95633   6.868   0.409   2.203  0.0852 -0.5365  0.4860
30712SOL    HW195634   6.779   0.408   2.166 -0.2280 -0.2818  1.2103
30712SOL    HW295635   6.909   0.330   2.169  0.4231  0.5373 -1.8321
30713SOL     OW95636   4.121  10.863   9.118  0.2792  0.1181 -1.1576
30713SOL    HW195637   4.192  10.801   9.104 -0.2472 -0.5378 -1.0074
30713SOL    HW295638   4.156  10.926   9.181 -0.1835 -1.8883  1.3057
30714SOL     OW95639   8.313   7.206   9.950  1.0714  0.2791 -0.0189
30714SOL    HW195640   8.319   7.247   9.864  0.0186  0.1221 -0.1845
30714SOL    HW295641   8.311   7.112   9.931  0.9344  0.2401  0.1894
30715SOL     OW95642   1.052   7.702   0.124  0.1864  0.4218 -0.1534
30715SOL    HW195643   1.001   7.627   0.155  1.0900 -0.2083 -0.1513
30715SOL    HW295644   1.068   7.755   0.202  2.9679 -1.4601  0.7063
30716SOL     OW95645   2.440   4.567   5.692  0.2331 -0.4265 -0.2543
30716SOL    HW195646   2.401   4.608   5.615 -3.3477  0.1671  1.6133
30716SOL    HW295647   2.478   4.640   5.741  0.0694 -0.3738 -0.2035
30717SOL     OW95648   7.735   3.440  10.293  0.3273  0.7673  0.5554
30717SOL    HW195649   7.735   3.352  10.255  1.9527  1.4657 -1.1889
30717SOL    HW295650   7.702   3.427  10.382  0.8877 -1.6580  0.4827
30718SOL     OW95651   9.836   1.958   3.750 -0.1068  0.1878 -0.2110
30718SOL    HW195652   9.853   2.049   3.725  0.4590 -0.0318 -0.6377
30718SOL    HW295653   9.786   1.965   3.831 -1.3554  0.8944 -1.0157
30719SOL     OW95654   6.249   6.139  10.189 -0.2583 -0.4704 -0.3984
30719SOL    HW195655   6.164   6.100  10.167 -0.5677 -0.1625  0.2052
30719SOL    HW295656   6.266   6.202  10.119 -0.5488 -0.5137 -0.5097
30720SOL     OW95657   1.154   4.507   6.180 -0.2671 -0.1369  0.5872
30720SOL    HW195658   1.140   4.427   6.231  0.6169 -1.4449 -1.1114
30720SOL    HW295659   1.073   4.518   6.130 -0.5228  0.2536  1.0743
30721SOL     OW95660   8.801   5.618   0.247 -1.0275  0.1856  0.4313
30721SOL    HW195661   8.784   5.664   0.165 -0.9067  0.5068  0.5856
30721SOL    HW295662   8.887   5.649   0.275  0.1240 -1.8644 -0.6434
30722SOL     OW95663   0.788   7.547   2.846  0.0916  0.0189  0.5091
30722SOL    HW195664   0.784   7.453   2.829 -2.1863  0.1799 -0.1046
30722SOL    HW295665   0.746   7.559   2.931  0.0289  0.5305  0.4091
30723SOL     OW95666   8.334   8.084   6.556 -0.2329 -0.2501 -0.4244
30723SOL    HW195667   8.425   8.085   6.585  0.7742 -0.3724 -3.2556
30723SOL    HW295668   8.330   8.149   6.486 -2.3336 -0.2921 -0.4185
30724SOL     OW95669   8.476   2.544   1.946  0.3148  0.3279 -0.3384
30724SOL    HW195670   8.458   2.630   1.907 -1.4614 -0.4078 -1.2772
30724SOL    HW295671   8.457   2.482   1.876 -0.7167 -0.9383  0.9842
30725SOL     OW95672   8.024   5.473   4.899  0.6110 -0.7059  0.5660
30725SOL    HW195673   8.046   5.548   4.954 -1.1377 -0.2205  0.6764
30725SOL    HW295674   7.956   5.507   4.840  0.6408 -1.8998 -0.1732
30726SOL     OW95675   0.208   9.072   1.328 -0.4794  0.0357 -0.3089
30726SOL    HW195676   0.159   8.994   1.301  0.1825 -0.8588  0.9662
30726SOL    HW295677   0.191   9.080   1.422 -1.4960  2.1528 -0.6050
30727SOL     OW95678   4.371   2.218   6.686  0.8100 -0.2425 -0.0485
30727SOL    HW195679   4.287   2.254   6.717  0.3570 -0.2995 -1.1891
30727SOL    HW295680   4.436   2.263   6.741  0.0275 -0.5809  1.2146
30728SOL     OW95681   6.204   0.768   8.939 -0.1255 -0.0197  0.1198
30728SOL    HW195682   6.111   0.781   8.920  0.0480  1.3417  0.0608
30728SOL    HW295683   6.242   0.736   8.857 -0.2519  1.0818 -0.3849
30729SOL     OW95684   4.076   3.178   3.979 -0.0051  0.5250  0.0920
30729SOL    HW195685   4.113   3.242   3.918 -1.8182  0.8799 -0.6778
30729SOL    HW295686   4.074   3.096   3.930  0.2658  0.3676  0.3348
30730SOL     OW95687   2.932   5.988   3.334  0.0367  0.5045 -0.0909
30730SOL    HW195688   2.957   5.943   3.415 -1.4474 -0.4103 -0.1043
30730SOL    HW295689   3.015   6.002   3.289  0.7036 -0.8640  0.6270
30731SOL     OW95690   4.715   1.009   3.546  0.1931 -0.0246  0.2750
30731SOL    HW195691   4.669   1.038   3.468 -0.1146 -0.0446  0.4475
30731SOL    HW295692   4.807   1.026   3.527  0.3001 -1.5491 -0.7472
30732SOL     OW95693   3.728   5.355   2.228  0.1007 -0.3416 -0.7267
30732SOL    HW195694   3.763   5.444   2.224  0.5738 -0.5622 -1.5862
30732SOL    HW295695   3.799   5.299   2.195  0.0466 -1.1117  0.4013
30733SOL     OW95696   5.496  10.276   6.020 -0.3407 -0.1528  0.2524
30733SOL    HW195697   5.472  10.185   6.031 -1.4613  0.0644 -0.2166
30733SOL    HW295698   5.434  10.325   6.074 -0.6851  0.3979 -0.6029
30734SOL     OW95699   0.296   6.532   2.184 -0.0213 -0.6053  0.6388
30734SOL    HW195700   0.273   6.576   2.265  1.8192 -1.3292  1.6081
30734SOL    HW295701   0.304   6.440   2.208  0.5743 -0.8251 -0.3488
30735SOL     OW95702   8.155   6.712   9.461  0.1250 -0.0928  0.1922
30735SOL    HW195703   8.222   6.680   9.401  0.6657 -0.0241  0.7444
30735SOL    HW295704   8.160   6.807   9.454 -0.1752 -0.0939 -0.0429
30736SOL     OW95705   0.134  10.365   3.606 -0.4948  0.1478 -0.0926
30736SOL    HW195706   0.089  10.310   3.542 -0.5826  0.8325 -0.6314
30736SOL    HW295707   0.189  10.304   3.655 -0.6628 -0.4336 -0.6125
30737SOL     OW95708   5.776   3.935   8.501  0.3573 -0.0920  0.0482
30737SOL    HW195709   5.757   3.841   8.503 -0.7397  0.0672 -1.2005
30737SOL    HW295710   5.859   3.942   8.453 -0.6190 -0.3357 -1.7690
30738SOL     OW95711   0.465   3.068   6.343 -0.3677 -0.4296  0.0611
30738SOL    HW195712   0.409   3.013   6.398 -2.0469  1.6323  0.5346
30738SOL    HW295713   0.546   3.078   6.393 -1.1228 -0.1900  1.2539
30739SOL     OW95714   5.987   3.037   7.298 -0.0079 -0.2151 -0.0325
30739SOL    HW195715   6.068   2.987   7.305 -1.2560 -2.1020  4.2451
30739SOL    HW295716   5.925   2.976   7.258 -0.5084 -0.7599  1.4826
30740SOL     OW95717   4.265   6.296   8.300 -0.3569  0.7102 -0.0253
30740SOL    HW195718   4.297   6.228   8.242 -1.3118 -0.4576  0.7734
30740SOL    HW295719   4.333   6.306   8.366  0.0085  0.9148 -0.4224
30741SOL     OW95720   7.920   3.360   1.817  0.0273 -0.7953 -0.1443
30741SOL    HW195721   7.985   3.405   1.871  0.5089 -0.6052 -0.8634
30741SOL    HW295722   7.837   3.379   1.859  0.2081  0.8386 -0.4548
30742SOL     OW95723   6.611   7.428   0.665 -0.7333  0.9788 -0.6405
30742SOL    HW195724   6.569   7.342   0.665  1.5726 -0.2317 -0.1723
30742SOL    HW295725   6.651   7.436   0.579 -1.1215  1.7020 -0.7643
30743SOL     OW95726   3.774   5.925   2.328  0.2426  0.7347 -0.5073
30743SOL    HW195727   3.720   6.004   2.340 -1.4675 -0.5042  0.3755
30743SOL    HW295728   3.779   5.914   2.233  0.4580  1.8430 -0.6467
30744SOL     OW95729   4.067   7.928  10.692  0.0139  0.1004 -0.0482
30744SOL    HW195730   4.117   7.856  10.654  1.4145  0.6034  0.7725
30744SOL    HW295731   4.024   7.890  10.768 -0.6382 -0.2636 -0.5897
30745SOL     OW95732   9.771   1.991   8.820 -0.2357  0.3391 -0.3786
30745SOL    HW195733   9.859   1.983   8.856 -0.1337 -0.0907 -0.7060
30745SOL    HW295734   9.759   2.084   8.805  0.7678  0.2623 -1.8106
30746SOL     OW95735   8.171   1.872   1.264 -0.0916  0.8933 -0.0346
30746SOL    HW195736   8.119   1.895   1.341  1.0214 -0.1120  1.0647
30746SOL    HW295737   8.261   1.873   1.295  0.2634 -1.4734 -0.7801
30747SOL     OW95738   5.638   0.524   4.765 -0.3384  0.1417 -0.1132
30747SOL    HW195739   5.675   0.503   4.679 -0.0469  0.2965 -0.0265
30747SOL    HW295740   5.574   0.593   4.748 -2.8885 -2.1894 -0.7286
30748SOL     OW95741   6.426   2.754   5.667 -0.5451 -0.3634 -0.0337
30748SOL    HW195742   6.407   2.665   5.696  1.2879 -1.3339 -1.5636
30748SOL    HW295743   6.521   2.758   5.663 -0.5346  2.0843  1.0922
30749SOL     OW95744   8.806   7.125   8.361  0.3956 -0.2258  0.1639
30749SOL    HW195745   8.880   7.105   8.419  1.5633  1.6513 -0.5601
30749SOL    HW295746   8.848   7.147   8.277 -1.2328 -2.9571 -1.4907
30750SOL     OW95747   7.828   6.139   6.042  0.5786 -0.3573  0.1962
30750SOL    HW195748   7.778   6.220   6.049 -0.3670 -1.0020  1.3075
30750SOL    HW295749   7.915   6.162   6.076 -0.1773 -0.1837  2.1380
30751SOL     OW95750   0.531   1.754   2.279  0.4055  0.4738  0.3328
30751SOL    HW195751   0.578   1.795   2.352 -1.5472 -1.8005  3.0897
30751SOL    HW295752   0.447   1.799   2.277  0.3638  0.3734 -0.3939
30752SOL     OW95753   8.986   1.959   0.977 -0.5755 -0.5357 -0.0161
30752SOL    HW195754   8.901   1.963   1.022 -1.6161  0.0575 -1.9326
30752SOL    HW295755   8.963   1.950   0.885  1.4738 -0.1264 -0.5939
30753SOL     OW95756   9.496   9.791   7.524 -0.0670 -0.4530  0.0414
30753SOL    HW195757   9.445   9.839   7.459 -0.6654  0.0875  0.8871
30753SOL    HW295758   9.518   9.708   7.481  0.9933  0.5631 -1.4474
30754SOL     OW95759   0.182  10.342   2.558 -0.1746  0.0100 -0.5976
30754SOL    HW195760   0.119  10.329   2.487 -0.0733  1.2813 -0.9317
30754SOL    HW295761   0.254  10.390   2.518  0.9749 -1.2805 -0.1882
30755SOL     OW95762   8.218   0.569   1.098  0.1598 -0.3287 -0.2601
30755SOL    HW195763   8.290   0.553   1.159 -0.6124 -0.1431  0.7223
30755SOL    HW295764   8.219   0.493   1.039  0.5139 -0.8371  0.3875
30756SOL     OW95765   9.687   1.358   3.047  0.2189 -0.1894  0.3391
30756SOL    HW195766   9.727   1.284   3.092 -0.3136 -0.2009  0.8086
30756SOL    HW295767   9.668   1.325   2.959  1.6909 -0.0229 -0.0596
30757SOL     OW95768  10.734  10.913   5.073 -0.3769 -0.4157 -0.8039
30757SOL    HW195769  10.724  10.895   5.167  1.1959 -1.2425 -0.7508
30757SOL    HW295770  10.726  10.827   5.032  0.3631 -0.2752 -1.2681
30758SOL     OW95771   8.614   0.219   9.594  0.4217 -0.1965  0.3346
30758SOL    HW195772   8.689   0.277   9.585  1.4544 -1.0949  2.3231
30758SOL    HW295773   8.537   0.276   9.585  1.3469  0.9955 -0.2614
30759SOL     OW95774   5.879  10.415   9.080  0.5360  0.0171  0.3831
30759SOL    HW195775   5.863  10.355   9.007  1.7000  0.1749 -0.0165
30759SOL    HW295776   5.852  10.365   9.158  2.3273 -1.3945  0.1536
30760SOL     OW95777   8.340   2.418   7.694 -0.0704  0.7291 -0.3184
30760SOL    HW195778   8.273   2.356   7.666  0.7451 -1.6712  2.5820
30760SOL    HW295779   8.422   2.381   7.662  0.4055  0.3630  1.2456
30761SOL     OW95780   2.715   5.898   3.190 -0.0577  0.6318 -0.5077
30761SOL    HW195781   2.678   5.812   3.210  0.2696  0.8068  0.9253
30761SOL    HW295782   2.778   5.914   3.259 -0.4750  2.2540 -0.4658
30762SOL     OW95783  10.931   2.636   5.339  0.2403  0.3207  0.4396
30762SOL    HW195784  10.890   2.633   5.252  1.1418  0.9722 -0.0279
30762SOL    HW295785  10.950   2.729   5.353 -1.5493  0.4892  2.1535
30763SOL     OW95786   2.567   1.215   3.628  0.5920 -0.1158 -0.5391
30763SOL    HW195787   2.495   1.277   3.636  0.2727 -0.6119  0.7294
30763SOL    HW295788   2.527   1.135   3.597  0.3866 -0.6912  1.1108
30764SOL     OW95789   5.133  10.318  10.393 -0.1463  0.2599 -0.4709
30764SOL    HW195790   5.147  10.276  10.308  0.5412  0.2603 -0.3689
30764SOL    HW295791   5.193  10.393  10.391 -0.5502  0.5922 -0.2133
30765SOL     OW95792   1.148   9.971   7.317 -0.3957 -0.2875 -0.2413
30765SOL    HW195793   1.192   9.907   7.374 -0.2496 -0.3844 -0.4593
30765SOL    HW295794   1.196  10.052   7.331  1.6078 -0.9664 -2.4217
30766SOL     OW95795  10.534   6.396   2.325  0.4305  0.5033 -0.0247
30766SOL    HW195796  10.541   6.301   2.312  1.0656  0.6732 -0.9859
30766SOL    HW295797  10.624   6.427   2.319  0.5578  0.9036  2.6572
30767SOL     OW95798   7.135   8.296   1.164  0.1932 -0.9155 -0.1870
30767SOL    HW195799   7.186   8.373   1.136  0.4364 -0.9719  0.0998
30767SOL    HW295800   7.109   8.254   1.082  0.7603 -0.9859 -0.3312
30768SOL     OW95801   0.953   0.434   9.816 -0.5164  0.4610  0.0750
30768SOL    HW195802   0.911   0.432   9.902 -1.2979 -0.5111 -0.3153
30768SOL    HW295803   0.972   0.342   9.796 -1.8838  0.4674 -1.5155
30769SOL     OW95804   7.947   7.239   8.621  0.6956 -0.5465 -0.4283
30769SOL    HW195805   7.995   7.308   8.575  1.8998 -0.2015  1.2708
30769SOL    HW295806   7.880   7.285   8.671 -0.2000 -0.8756 -1.2688
30770SOL     OW95807   7.046   0.064   4.778 -0.3182  0.0035 -0.0299
30770SOL    HW195808   7.076   0.153   4.757 -4.1431  0.9813 -2.2135
30770SOL    HW295809   6.983   0.076   4.849 -1.9246 -0.6853 -1.2788
30771SOL     OW95810   3.585   3.188   2.492  0.1600 -0.4203  0.4915
30771SOL    HW195811   3.624   3.110   2.530  0.6495 -0.4242 -0.0068
30771SOL    HW295812   3.659   3.246   2.474 -0.0232 -0.5590 -0.7777
30772SOL     OW95813   2.779   6.863   3.502 -0.4292 -0.4277  0.1174
30772SOL    HW195814   2.684   6.848   3.499 -0.8295  1.8759 -1.1190
30772SOL    HW295815   2.816   6.786   3.459 -1.9156 -0.3303 -1.4650
30773SOL     OW95816   7.131  10.830   1.888 -0.0923  0.1299 -0.1372
30773SOL    HW195817   7.120  10.915   1.845 -2.7535  0.0155  0.1485
30773SOL    HW295818   7.093  10.767   1.827  0.8094 -0.7273  0.1610
30774SOL     OW95819   1.709   8.469   0.069 -0.0360 -0.9548 -0.7829
30774SOL    HW195820   1.769   8.514   0.128 -1.0526 -1.0952  0.4097
30774SOL    HW295821   1.653   8.417   0.127 -0.0373 -2.3723 -1.9951
30775SOL     OW95822   4.026   4.767   1.590  0.0028  0.1369 -0.0757
30775SOL    HW195823   4.037   4.782   1.684 -0.5796 -0.4759  0.0921
30775SOL    HW295824   4.092   4.823   1.550  1.3694 -0.8149  0.7537
30776SOL     OW95825   3.665   5.403   3.431 -0.8587  0.5841 -0.0701
30776SOL    HW195826   3.719   5.335   3.393  0.0604  1.0130  0.4403
30776SOL    HW295827   3.657   5.380   3.524 -2.0844  0.1919 -0.2480
30777SOL     OW95828  10.584   9.508   5.038  0.3646  0.3023  0.4327
30777SOL    HW195829  10.498   9.526   5.075 -0.6639 -0.1668 -1.5824
30777SOL    HW295830  10.631   9.462   5.108 -1.3951 -0.3989  1.2287
30778SOL     OW95831   9.366   9.506   6.799 -0.1510  1.0037  0.2136
30778SOL    HW195832   9.456   9.525   6.774 -0.5556  2.8497  0.0064
30778SOL    HW295833   9.321   9.490   6.716  0.2043 -1.3166  0.3820
30779SOL     OW95834   2.134   4.912   1.911 -0.1514  0.0793 -0.0850
30779SOL    HW195835   2.138   4.882   1.820 -0.8594  0.2435 -0.1725
30779SOL    HW295836   2.096   4.839   1.959  1.1765 -0.4104  0.2723
30780SOL     OW95837   2.979   1.761   9.504  0.1971 -0.0991  0.3291
30780SOL    HW195838   3.056   1.810   9.476  0.3014 -0.1323  0.5607
30780SOL    HW295839   3.014   1.683   9.546  0.0676 -1.8668 -2.5416
30781SOL     OW95840   5.262   8.591   6.049 -0.2786  0.0914  0.4227
30781SOL    HW195841   5.285   8.683   6.057  0.2475  0.1797 -1.4676
30781SOL    HW295842   5.227   8.583   5.960 -2.8937 -1.0441  1.4694
30782SOL     OW95843   1.720   9.102   1.281 -0.2609 -0.1294 -0.3677
30782SOL    HW195844   1.815   9.105   1.271 -0.2291 -0.2934 -0.1047
30782SOL    HW295845   1.687   9.083   1.193 -0.0212 -0.6602 -0.3440
30783SOL     OW95846  10.299   8.214   5.641 -0.0939  0.3314 -0.1480
30783SOL    HW195847  10.339   8.137   5.681 -0.0513 -0.3991 -1.5391
30783SOL    HW295848  10.360   8.285   5.659 -0.1894  0.0781  1.2581
30784SOL     OW95849   4.880   9.057  10.422 -0.1232 -0.2672 -0.2856
30784SOL    HW195850   4.854   9.106  10.500 -0.6457 -0.4294 -0.3529
30784SOL    HW295851   4.974   9.043  10.433 -0.3057 -0.8421  0.6238
30785SOL     OW95852   0.199   7.153   1.296 -0.4264  0.4405 -0.0284
30785SOL    HW195853   0.259   7.134   1.368 -1.4105  0.5149  0.8333
30785SOL    HW295854   0.219   7.087   1.229 -0.2885 -0.3539  0.7855
30786SOL     OW95855   3.470   9.167   9.034  0.0495 -0.7623 -0.2051
30786SOL    HW195856   3.478   9.072   9.028 -0.5420 -0.7390 -1.8470
30786SOL    HW295857   3.427   9.192   8.952  1.3892  1.0512 -0.3987
30787SOL     OW95858  10.577   7.953   1.059 -0.2133  0.3254 -0.0376
30787SOL    HW195859  10.582   7.869   1.106  0.4902 -1.0188 -2.3484
30787SOL    HW295860  10.651   8.003   1.094 -1.8127  0.9336  2.8582
30788SOL     OW95861   7.102   0.561   1.321  0.5253 -0.0690  0.7379
30788SOL    HW195862   7.056   0.626   1.373  1.4960  0.3352  1.1084
30788SOL    HW295863   7.184   0.545   1.368  0.1677 -1.8081  0.8392
30789SOL     OW95864   3.243  10.664   0.614  0.4633 -0.4741 -0.7601
30789SOL    HW195865   3.187  10.736   0.642  1.4603  0.5483 -1.3284
30789SOL    HW295866   3.331  10.689   0.644  0.7860 -1.5908 -0.7155
30790SOL     OW95867   0.590   9.296   1.062 -0.3076  0.7046  0.0953
30790SOL    HW195868   0.592   9.346   1.144 -0.3240 -1.8147  1.7397
30790SOL    HW295869   0.681   9.297   1.031 -0.0038  0.4545  0.9487
30791SOL     OW95870   1.447   7.517   6.671  0.4375 -0.4394  0.3227
30791SOL    HW195871   1.486   7.559   6.594 -0.5835 -0.0732 -0.0159
30791SOL    HW295872   1.519   7.469   6.711  1.2343  0.2379 -0.2574
30792SOL     OW95873   9.205   3.554   0.093 -0.0356 -0.1618  0.4414
30792SOL    HW195874   9.165   3.596   0.169  2.6812  0.6972  1.5061
30792SOL    HW295875   9.178   3.463   0.099 -2.4514  0.4911  0.5739
30793SOL     OW95876   5.542   6.978  10.822 -0.1893 -0.1844  0.6975
30793SOL    HW195877   5.627   6.980  10.866 -0.7068 -1.9724  1.9201
30793SOL    HW295878   5.519   6.885  10.819 -1.9120  0.2284  0.0218
30794SOL     OW95879   3.857   2.193  10.239 -0.0196  0.0504  0.2795
30794SOL    HW195880   3.841   2.282  10.206 -0.8940  0.3013  1.3509
30794SOL    HW295881   3.953   2.186  10.240  0.0596  0.8629 -0.1115
30795SOL     OW95882   4.323   6.621   2.398 -0.2950  0.0306 -0.7266
30795SOL    HW195883   4.273   6.544   2.372 -1.3301  0.5687 -0.4012
30795SOL    HW295884   4.357   6.599   2.485 -1.3758  0.2644 -0.2172
30796SOL     OW95885   7.949   8.121   6.558 -0.8393  0.4512 -0.1174
30796SOL    HW195886   7.902   8.044   6.588  0.3174 -0.4987 -0.6428
30796SOL    HW295887   7.889   8.164   6.498 -1.0025 -0.8202 -0.9045
30797SOL     OW95888   1.155   2.217   1.645 -0.3896 -0.0029 -0.8161
30797SOL    HW195889   1.207   2.267   1.708 -0.0937 -1.3647  0.0676
30797SOL    HW295890   1.185   2.247   1.560  0.1550  0.9312 -0.3113
30798SOL     OW95891   2.022   0.192   2.892  0.5495 -0.6267 -0.3984
30798SOL    HW195892   2.005   0.098   2.893 -1.4414 -0.3431  1.7322
30798SOL    HW295893   2.078   0.208   2.968 -0.0968  0.0124 -0.0317
30799SOL     OW95894   0.880   7.916   5.532 -0.2196 -0.4425  0.0276
30799SOL    HW195895   0.952   7.901   5.594 -1.1158  1.4019  1.6426
30799SOL    HW295896   0.801   7.891   5.581 -1.0550  2.1469  0.1817
30800SOL     OW95897   4.501   5.786   3.440 -0.4588  0.1722  0.0974
30800SOL    HW195898   4.561   5.855   3.409  0.5491 -0.5230  0.4437
30800SOL    HW295899   4.556   5.708   3.448 -1.6887 -0.8192 -0.7503
30801SOL     OW95900   1.599   3.392   6.403  0.3780 -0.4473 -0.3899
30801SOL    HW195901   1.672   3.343   6.366  1.5576 -0.2160  1.5492
30801SOL    HW295902   1.637   3.477   6.427 -0.1134 -0.8453  2.0177
30802SOL     OW95903   7.137   7.021   2.506 -0.1160 -0.4317 -0.2654
30802SOL    HW195904   7.062   6.962   2.519 -0.6515  0.3683  0.4372
30802SOL    HW295905   7.127   7.054   2.417 -0.5801 -0.3756 -0.1954
30803SOL     OW95906   8.081   4.324   9.166 -0.0982  0.0250 -0.6391
30803SOL    HW195907   8.107   4.398   9.111 -1.5842  0.5163 -0.7168
30803SOL    HW295908   8.146   4.323   9.236  2.6665 -1.4246 -3.0022
30804SOL     OW95909   7.182   6.001   0.977  0.0003 -0.5789  0.5818
30804SOL    HW195910   7.132   5.985   0.897  1.3059 -0.1767 -0.3486
30804SOL    HW295911   7.271   5.971   0.957  0.8451  1.3506  1.1517
30805SOL     OW95912   9.454   6.298   6.926 -0.2492  0.4531  0.3233
30805SOL    HW195913   9.442   6.207   6.897 -0.6658  0.9816 -1.2352
30805SOL    HW295914   9.444   6.294   7.021  0.3618 -1.2333  0.3579
30806SOL     OW95915   9.942   5.435   0.527  0.2628  0.2430  0.0069
30806SOL    HW195916   9.877   5.365   0.539 -0.1498  0.5893 -0.1740
30806SOL    HW295917  10.015   5.392   0.481 -0.2530  0.0696 -0.6804
30807SOL     OW95918   5.094   6.095   4.123 -0.2782  0.2799  0.0176
30807SOL    HW195919   5.006   6.067   4.149 -0.4265  0.3460 -0.4007
30807SOL    HW295920   5.130   6.020   4.076  0.1066  0.0472  0.6788
30808SOL     OW95921   6.721   9.485   0.045 -0.1703  0.0642  0.6953
30808SOL    HW195922   6.684   9.572   0.030 -0.8336 -0.1931  0.7672
30808SOL    HW295923   6.811   9.491   0.014 -0.3958  0.6008  0.1164
30809SOL     OW95924   0.578   1.790   8.453 -0.3287 -0.1594  0.0380
30809SOL    HW195925   0.574   1.729   8.379  0.2466 -0.2235  0.0539
30809SOL    HW295926   0.667   1.826   8.450 -0.5368  0.3812  0.2662
30810SOL     OW95927  10.709   1.373   0.405 -0.0105 -0.5400 -0.0295
30810SOL    HW195928  10.653   1.393   0.330 -0.2097 -0.6816  0.0793
30810SOL    HW295929  10.648   1.342   0.472  0.1335 -0.1705  0.2793
30811SOL     OW95930   5.491   4.310   8.266  0.1401  0.2128 -0.2845
30811SOL    HW195931   5.409   4.343   8.302 -0.4397 -0.3249 -1.0957
30811SOL    HW295932   5.517   4.239   8.325  0.1252  0.5128  0.0824
30812SOL     OW95933   6.879  10.318   9.644  0.1671  0.5001 -0.0927
30812SOL    HW195934   6.829  10.328   9.725 -0.0725 -0.4414 -0.1073
30812SOL    HW295935   6.841  10.241   9.602  2.0157 -0.6131  0.1848
30813SOL     OW95936   1.527   0.271   2.241  0.3190 -0.7267  0.2405
30813SOL    HW195937   1.601   0.314   2.283  0.0458  1.2217 -1.1114
30813SOL    HW295938   1.523   0.184   2.281  1.6482  0.0771  2.2623
30814SOL     OW95939   5.749   1.309   5.104 -0.3214 -0.0615 -0.1834
30814SOL    HW195940   5.686   1.370   5.065  0.8502  1.3371  0.0419
30814SOL    HW295941   5.826   1.315   5.048 -0.0609 -1.1157  0.0402
30815SOL     OW95942   4.537   3.604   0.997  0.4958 -0.0134  0.1612
30815SOL    HW195943   4.463   3.659   1.024 -1.5589 -0.3346 -3.9724
30815SOL    HW295944   4.596   3.665   0.952  1.3041 -0.2471  0.8941
30816SOL     OW95945   5.650   2.989   6.618  0.5746  0.2188  0.0505
30816SOL    HW195946   5.557   2.970   6.608  0.4248  1.2466 -0.7620
30816SOL    HW295947   5.661   3.076   6.578  2.0280 -0.2439 -0.6323
30817SOL     OW95948   6.142   9.592   0.236 -0.0815 -0.0489 -0.3348
30817SOL    HW195949   6.133   9.563   0.327  0.9321  2.3161  0.6052
30817SOL    HW295950   6.059   9.633   0.215  0.3984  1.2803  0.2909
30818SOL     OW95951   9.188   3.388   7.084  0.2719  0.1826  0.2859
30818SOL    HW195952   9.199   3.309   7.137  1.3686  0.6558  0.7996
30818SOL    HW295953   9.136   3.447   7.139 -0.0194  0.0565  0.1498
30819SOL     OW95954   3.225   1.744   7.195 -0.4810  0.3785  0.1852
30819SOL    HW195955   3.274   1.819   7.231  1.0152 -0.3587 -0.2420
30819SOL    HW295956   3.221   1.761   7.101  0.4471 -0.3813 -0.0049
30820SOL     OW95957   3.979  10.914   2.738  0.0462 -0.5209  0.9730
30820SOL    HW195958   4.029  10.967   2.800 -0.4811  0.3016  0.7072
30820SOL    HW295959   3.889  10.918   2.770 -0.2959  0.2103 -0.0380
30821SOL     OW95960   9.249   6.448   6.445  0.2897  0.1970 -0.4616
30821SOL    HW195961   9.318   6.514   6.451 -0.4012  1.2517 -2.6980
30821SOL    HW295962   9.276   6.378   6.504  1.8868  1.7522  0.7399
30822SOL     OW95963  10.068   7.881   0.799 -0.0265 -0.7240  0.0143
30822SOL    HW195964  10.135   7.872   0.731  0.0347 -2.0245  0.2342
30822SOL    HW295965  10.008   7.808   0.784 -0.4652 -0.5464  0.8562
30823SOL     OW95966   5.513   1.571   9.665  0.2211 -0.0209 -0.1397
30823SOL    HW195967   5.502   1.528   9.580  0.0609  0.3009 -0.2863
30823SOL    HW295968   5.608   1.582   9.674  0.2846 -0.6976  0.0536
30824SOL     OW95969   8.432   4.017   7.347 -0.0548 -0.6884  0.2274
30824SOL    HW195970   8.441   4.039   7.439  0.1421  0.1190  0.0187
30824SOL    HW295971   8.348   3.971   7.341 -1.1825  1.2174  0.4640
30825SOL     OW95972   0.504   3.282   2.949 -0.3602 -0.6186  0.4249
30825SOL    HW195973   0.520   3.232   3.029 -0.4228 -0.5537  0.4784
30825SOL    HW295974   0.422   3.328   2.966  0.6126  0.9543  1.1152
30826SOL     OW95975   4.990   0.173   2.401 -0.0841 -0.6700 -0.2007
30826SOL    HW195976   5.066   0.209   2.447  0.4170 -0.8679 -0.8605
30826SOL    HW295977   4.972   0.237   2.331 -0.0656 -0.9895 -0.4999
30827SOL     OW95978   5.992  10.296   2.798  0.0752  0.2501 -0.5070
30827SOL    HW195979   6.084  10.321   2.791  0.4886 -1.3961 -1.3472
30827SOL    HW295980   5.945  10.358   2.742  0.4858  1.8156  0.8003
30828SOL     OW95981   1.537   2.369   9.648  0.0705  0.2128 -0.0280
30828SOL    HW195982   1.476   2.297   9.665 -0.0511  0.2052 -0.4748
30828SOL    HW295983   1.596   2.334   9.581 -0.5737  0.8554 -0.9494
30829SOL     OW95984   5.874   7.008  10.311 -0.6369 -0.7767 -0.0317
30829SOL    HW195985   5.796   6.989  10.362 -0.5963  0.5796  0.5754
30829SOL    HW295986   5.845   7.072  10.245 -0.0510 -0.2810  0.1852
30830SOL     OW95987   8.130   7.693   4.237  0.3244 -0.6103  0.1173
30830SOL    HW195988   8.194   7.653   4.178  1.1315  0.3365  0.3263
30830SOL    HW295989   8.149   7.655   4.323  0.4630 -0.4988  0.1366
30831SOL     OW95990   5.130   3.854   1.341 -0.1858 -0.5234  0.3587
30831SOL    HW195991   5.175   3.816   1.265  0.2943 -1.4512  1.0852
30831SOL    HW295992   5.189   3.924   1.371 -1.3078  1.2518 -1.2881
30832SOL     OW95993   0.914   1.967   5.034  0.3215  0.1075 -0.3504
30832SOL    HW195994   0.987   2.017   5.072  0.2102  0.7681 -0.9949
30832SOL    HW295995   0.894   1.901   5.100  0.4896  0.8991  0.5090
30833SOL     OW95996   1.228  10.107  10.174  0.2330  0.0987  0.3394
30833SOL    HW195997   1.137  10.125  10.151  0.3814  0.7368  0.2238
30833SOL    HW295998   1.228  10.016  10.202 -0.0093 -0.6697 -1.9366
30834SOL     OW95999   3.240   7.357   5.848  0.2896  0.0568 -0.1460
30834SOL    HW196000   3.205   7.277   5.807  1.1210 -0.3727 -0.0424
30834SOL    HW296001   3.242   7.337   5.941 -0.5907  0.6404  0.0110
30835SOL     OW96002   7.684  10.774   5.001 -0.7872  0.2979  0.2448
30835SOL    HW196003   7.759  10.788   4.943  0.6997 -2.0499  1.4538
30835SOL    HW296004   7.608  10.799   4.948  0.6408  0.3065 -1.9327
30836SOL     OW96005   2.569   0.795   5.393  0.7123 -0.0389 -0.1258
30836SOL    HW196006   2.656   0.757   5.407 -0.4184 -2.6587  0.4580
30836SOL    HW296007   2.531   0.742   5.323 -0.8613  0.2088  0.5030
30837SOL     OW96008   6.472   9.088   9.589  0.0956 -0.1565 -0.0893
30837SOL    HW196009   6.433   9.020   9.535  0.6630 -1.2275  0.8123
30837SOL    HW296010   6.418   9.166   9.573 -1.4009 -1.1588 -0.0965
30838SOL     OW96011   0.926   1.758   1.916 -0.0401  0.5025 -0.0940
30838SOL    HW196012   0.857   1.766   1.982  0.9121  0.2341  0.9733
30838SOL    HW296013   0.981   1.686   1.948 -0.0526 -0.2507 -1.6608
30839SOL     OW96014   0.858   9.048   4.049  0.1261  0.1778 -0.8508
30839SOL    HW196015   0.852   9.134   4.092 -0.3509 -0.3252  0.1110
30839SOL    HW296016   0.836   8.985   4.117 -0.8430 -0.6441 -1.8767
30840SOL     OW96017   5.692   6.548   6.665  0.2769  0.3588  0.1435
30840SOL    HW196018   5.614   6.499   6.687 -0.8164  1.2837 -1.4763
30840SOL    HW296019   5.674   6.637   6.695  0.3569  0.7525 -0.9165
30841SOL     OW96020   8.456   8.631   1.164  0.1376 -0.6192 -0.1214
30841SOL    HW196021   8.421   8.561   1.219 -2.0644 -0.3106 -0.9900
30841SOL    HW296022   8.416   8.711   1.199  0.4020 -0.1637 -0.8257
30842SOL     OW96023   0.998  10.887   8.452 -0.0429  0.2433  0.5257
30842SOL    HW196024   1.090  10.909   8.462 -0.0349  0.0716  0.8365
30842SOL    HW296025   0.964  10.886   8.542 -0.1326 -0.6416  0.4913
30843SOL     OW96026   5.349   9.963  10.745  0.2145  0.6224  0.2081
30843SOL    HW196027   5.302  10.033  10.700 -0.5823  0.6031  0.9743
30843SOL    HW296028   5.316   9.966  10.835  0.1990 -0.6975  0.2631
30844SOL     OW96029   9.466  11.003   7.203 -0.2525 -0.2721 -0.2795
30844SOL    HW196030   9.401  11.021   7.137 -1.4354 -2.0812  0.3123
30844SOL    HW296031   9.419  10.956   7.272  1.1143  0.7126  1.4311
30845SOL     OW96032   6.741   2.572   7.950  0.3759 -0.1208  0.3044
30845SOL    HW196033   6.712   2.648   7.901  3.0504 -0.0132 -1.3164
30845SOL    HW296034   6.670   2.554   8.011 -1.7248  1.6822 -1.4556
30846SOL     OW96035   2.515   2.000   0.970  1.0506  0.6679 -0.3196
30846SOL    HW196036   2.511   1.938   1.042  0.2436 -0.8007 -1.5546
30846SOL    HW296037   2.438   2.056   0.982 -0.8096 -1.4598 -1.5801
30847SOL     OW96038   5.390   6.576   1.807  0.4757  0.2935 -0.5612
30847SOL    HW196039   5.403   6.593   1.900  0.0562 -1.5812 -0.1195
30847SOL    HW296040   5.478   6.582   1.769  0.6769  0.8476 -0.0326
30848SOL     OW96041   2.415   7.265   6.376  0.2487 -0.1630 -0.6312
30848SOL    HW196042   2.419   7.360   6.376 -0.5158 -0.1289 -0.6644
30848SOL    HW296043   2.344   7.243   6.436  0.2372 -0.7069 -0.8332
30849SOL     OW96044   8.686   9.973   4.729  0.5274 -0.2583  0.0684
30849SOL    HW196045   8.636   9.921   4.667 -1.1146  1.2683  0.0414
30849SOL    HW296046   8.760  10.007   4.678 -0.0795 -0.0900 -0.7122
30850SOL     OW96047   9.989   8.293  10.965  0.3295  0.3743 -0.7566
30850SOL    HW196048  10.006   8.335  11.049  0.3112 -1.7389  0.3840
30850SOL    HW296049   9.927   8.351  10.921 -1.9429  0.1915  1.9211
30851SOL     OW96050   1.814   8.093   7.495 -0.2447 -0.2708  0.1918
30851SOL    HW196051   1.789   8.102   7.588 -1.4079  0.7905 -0.1964
30851SOL    HW296052   1.845   8.180   7.470 -0.2917 -0.4553 -0.5253
30852SOL     OW96053   9.889   6.392   9.515 -0.1776 -0.6660 -0.3560
30852SOL    HW196054   9.822   6.457   9.494 -0.2567 -0.2782  0.9762
30852SOL    HW296055   9.843   6.325   9.565  0.3693 -0.5057  0.3787
30853SOL     OW96056   5.832  10.835   0.285  1.1659 -0.8537 -0.0835
30853SOL    HW196057   5.919  10.853   0.321  0.7780  0.1796  0.3975
30853SOL    HW296058   5.776  10.904   0.322 -0.3196 -2.7203  1.3736
30854SOL     OW96059   3.019   4.166  10.536 -0.0082  0.0088 -0.1315
30854SOL    HW196060   2.929   4.145  10.561 -0.2460  0.4939 -0.5451
30854SOL    HW296061   3.012   4.251  10.492  0.9311  1.1027  1.6936
30855SOL     OW96062   1.984   1.977   9.952  0.2504  0.4041 -0.2355
30855SOL    HW196063   2.079   1.981   9.963  0.2872  0.9557 -0.7269
30855SOL    HW296064   1.949   2.011  10.034  0.4237 -2.1733  1.0168
30856SOL     OW96065   3.042   7.173   5.852  0.5699 -0.5943 -0.3110
30856SOL    HW196066   3.023   7.100   5.793  0.9395  0.4072 -1.7165
30856SOL    HW296067   2.962   7.182   5.904  0.8337 -2.5424  0.5503
30857SOL     OW96068   3.810   2.550   6.752 -0.0819 -0.0586 -0.9876
30857SOL    HW196069   3.750   2.620   6.778  1.6708  0.6492  1.4913
30857SOL    HW296070   3.843   2.578   6.666 -2.0106  0.3499 -1.6422
30858SOL     OW96071   1.017   1.591   4.183  0.1802 -0.3021  0.4409
30858SOL    HW196072   0.989   1.539   4.107 -0.1091  0.1720  0.2161
30858SOL    HW296073   1.111   1.601   4.171 -0.1450  1.5670 -1.0226
30859SOL     OW96074   9.466   2.040  10.848 -0.2337  0.3068  0.0114
30859SOL    HW196075   9.420   1.999  10.921 -0.6640 -0.9339 -0.9257
30859SOL    HW296076   9.396   2.077  10.794 -0.0813 -0.6898 -0.8872
30860SOL     OW96077  10.778   8.535   2.188  0.0925 -0.5942 -0.1142
30860SOL    HW196078  10.741   8.479   2.257  0.2450  0.4459  0.8311
30860SOL    HW296079  10.772   8.624   2.223  1.5849 -0.1926 -0.8011
30861SOL     OW96080   4.983   7.548   9.703 -0.5177  0.2977  0.1915
30861SOL    HW196081   4.985   7.629   9.651 -1.4584 -0.6841 -1.4662
30861SOL    HW296082   4.912   7.562   9.765 -0.6511  0.7673 -0.0552
30862SOL     OW96083   2.197   5.931   3.805  0.2123 -0.2811 -0.0739
30862SOL    HW196084   2.290   5.922   3.785  0.2225 -0.2683 -0.0316
30862SOL    HW296085   2.185   5.883   3.887 -0.0968 -1.4994 -0.8141
30863SOL     OW96086   7.839   2.223   4.139 -0.4543 -0.3665  0.5028
30863SOL    HW196087   7.829   2.294   4.075  0.4572  0.3377  1.1136
30863SOL    HW296088   7.895   2.159   4.097 -1.2807 -0.7454 -0.0536
30864SOL     OW96089   7.393   8.516   3.437  0.1019 -0.4403  0.4340
30864SOL    HW196090   7.357   8.562   3.513  0.4657 -1.8880  1.5277
30864SOL    HW296091   7.485   8.502   3.459  0.0478 -1.4851  0.0527
30865SOL     OW96092   7.113   9.206  10.739 -0.1736 -0.1548 -0.2915
30865SOL    HW196093   7.114   9.142  10.810  1.7325 -0.8823 -0.8983
30865SOL    HW296094   7.145   9.286  10.779  1.6092 -0.7494 -0.4069
30866SOL     OW96095   5.754   8.011   6.522  0.3770 -0.1805  0.5736
30866SOL    HW196096   5.732   7.970   6.438 -0.6483 -1.0511  1.2478
30866SOL    HW296097   5.846   7.988   6.536  0.6109  0.1096 -0.3740
30867SOL     OW96098   0.409   8.549   1.331  0.0340  0.5708 -0.1156
30867SOL    HW196099   0.406   8.596   1.248 -1.7676 -0.8845 -0.9491
30867SOL    HW296100   0.484   8.490   1.322 -1.1987 -0.8945 -1.5522
30868SOL     OW96101   4.692   3.094   3.359  0.3899 -0.1007 -0.1048
30868SOL    HW196102   4.635   3.018   3.368 -0.0743  0.2324 -0.2146
30868SOL    HW296103   4.702   3.106   3.265  1.5009 -0.7936 -0.0866
30869SOL     OW96104   4.697   4.017   6.068 -0.1696 -0.1079  0.0065
30869SOL    HW196105   4.644   3.937   6.069  1.1155 -0.9792  0.9907
30869SOL    HW296106   4.745   4.013   5.985 -0.2985 -0.2247 -0.0624
30870SOL     OW96107   5.531   1.860   6.639 -0.1444  0.3930 -0.4700
30870SOL    HW196108   5.439   1.884   6.653  0.1720  2.0582 -0.9902
30870SOL    HW296109   5.572   1.870   6.725 -0.2862  0.4189 -0.4058
30871SOL     OW96110  10.226   5.682   6.619 -0.1935  0.6390  0.5193
30871SOL    HW196111  10.161   5.749   6.599 -1.5455 -0.8293 -0.2898
30871SOL    HW296112  10.219   5.619   6.547  2.1120  0.3785  0.4461
30872SOL     OW96113   2.386   1.683   9.546 -0.0064  0.6443  0.0747
30872SOL    HW196114   2.429   1.757   9.504 -0.0393  0.3293 -0.5353
30872SOL    HW296115   2.326   1.722   9.609 -0.2488  1.1526 -0.4596
30873SOL     OW96116   7.210   3.785   1.607 -0.6150 -0.3927 -0.5049
30873SOL    HW196117   7.192   3.869   1.565  0.9912 -0.4751 -1.4515
30873SOL    HW296118   7.153   3.723   1.561 -0.4029 -0.1335 -1.1276
30874SOL     OW96119   2.575   9.414   8.270  0.2257  0.2105  0.7226
30874SOL    HW196120   2.497   9.442   8.222 -0.4874 -1.2141  0.9913
30874SOL    HW296121   2.598   9.330   8.230  1.1410  0.2368  1.1879
30875SOL     OW96122   8.761   3.734   6.955 -0.1288  0.5485 -0.4535
30875SOL    HW196123   8.777   3.640   6.943  1.1456  0.5677  0.8412
30875SOL    HW296124   8.782   3.773   6.870  0.6642 -0.1798 -0.5977
30876SOL     OW96125   4.097   9.540   4.080 -0.3287 -0.2117 -0.0656
30876SOL    HW196126   4.161   9.581   4.023  0.5375 -1.0454  0.2827
30876SOL    HW296127   4.044   9.486   4.022 -0.9758  0.7478 -0.4071
30877SOL     OW96128   7.453   9.123   1.421  0.2195 -0.0563 -0.5786
30877SOL    HW196129   7.469   9.057   1.489  1.9988  0.2128 -0.6799
30877SOL    HW296130   7.537   9.168   1.411 -1.2871  3.5175  0.8201
30878SOL     OW96131   5.118   4.189   6.873  0.1974 -0.5952  0.7192
30878SOL    HW196132   5.048   4.245   6.906  1.7869  0.8782  1.7053
30878SOL    HW296133   5.140   4.225   6.787  0.0472 -0.8231  0.5802
30879SOL     OW96134   5.619   1.766   2.814  0.4425  0.3008  0.6005
30879SOL    HW196135   5.681   1.821   2.766 -0.6918  0.2320 -1.0218
30879SOL    HW296136   5.633   1.678   2.779 -2.6715  0.7515 -2.2590
30880SOL     OW96137   4.289   6.828   6.662  0.1380  0.3215  0.2347
30880SOL    HW196138   4.264   6.846   6.753  1.8836 -0.5369  0.9301
30880SOL    HW296139   4.208   6.800   6.620 -0.5318 -0.1229  1.7500
30881SOL     OW96140   2.614   9.172  10.436 -0.9147 -0.9262  0.1856
30881SOL    HW196141   2.668   9.240  10.396 -2.2551 -0.8038 -1.5581
30881SOL    HW296142   2.666   9.139  10.509  0.4202  0.8931  0.1260
30882SOL     OW96143   9.910   1.780   8.985 -0.3376 -0.5113  0.5662
30882SOL    HW196144   9.988   1.791   9.039 -0.4960 -2.3151  1.2505
30882SOL    HW296145   9.839   1.813   9.040 -0.0708  1.4301 -0.1807
30883SOL     OW96146   1.202   4.325   7.801  0.0405 -0.3149  0.0223
30883SOL    HW196147   1.201   4.402   7.858  0.3664  0.4447 -0.9549
30883SOL    HW296148   1.143   4.263   7.843 -0.6365  0.6706  0.5727
30884SOL     OW96149   4.983   8.965   1.556 -0.1742 -0.0810 -0.0784
30884SOL    HW196150   4.978   8.937   1.648  1.7189 -0.2057  0.0344
30884SOL    HW296151   4.913   8.918   1.513  0.4323 -1.9697  0.8702
30885SOL     OW96152   5.370   5.902   9.443 -0.0402  0.2170 -0.0097
30885SOL    HW196153   5.465   5.894   9.437 -0.0400  0.8721 -0.9406
30885SOL    HW296154   5.339   5.811   9.450  0.5554 -0.0984 -1.2306
30886SOL     OW96155   1.000   7.884   5.285  0.2445  0.5875  0.7086
30886SOL    HW196156   0.943   7.947   5.241 -1.1961 -0.5488  0.8812
30886SOL    HW296157   0.975   7.890   5.377 -0.1965 -0.5137  0.6672
30887SOL     OW96158   8.528   1.443   3.504 -0.7799 -0.1648  0.3225
30887SOL    HW196159   8.461   1.512   3.510  0.1160  0.6621  1.1250
30887SOL    HW296160   8.563   1.452   3.415 -1.8601 -0.7615 -0.1934
30888SOL     OW96161   1.935   3.010  10.365 -0.0404 -0.4136  0.3608
30888SOL    HW196162   1.963   2.970  10.283 -0.8263  0.0636 -0.1587
30888SOL    HW296163   1.975   3.097  10.364  1.1941 -0.9542  1.2145
30889SOL     OW96164   2.980   9.972   3.066 -0.6438 -0.5593 -0.5004
30889SOL    HW196165   2.896   9.935   3.090 -1.1577  0.8600 -0.0347
30889SOL    HW296166   3.043   9.901   3.083 -1.5770 -1.2172  0.3175
30890SOL     OW96167   9.153   0.949   6.905  0.2379 -0.2268 -0.0489
30890SOL    HW196168   9.088   0.972   6.972  0.6376 -2.4145  1.1891
30890SOL    HW296169   9.228   0.917   6.955  0.4386 -2.2443 -1.5330
30891SOL     OW96170   7.805   0.260   8.412 -0.4482 -0.5389 -0.4393
30891SOL    HW196171   7.877   0.232   8.468 -0.3704  0.9651  0.2523
30891SOL    HW296172   7.727   0.220   8.450 -0.1864 -0.8414 -0.2178
30892SOL     OW96173  10.488   8.416   2.970  0.1533 -0.0372 -0.0135
30892SOL    HW196174  10.485   8.348   2.903  1.1929 -1.0581  0.9259
30892SOL    HW296175  10.456   8.495   2.926 -0.2538 -0.9335 -1.3724
30893SOL     OW96176   9.804   3.075   2.348  0.0256 -0.0640  0.0450
30893SOL    HW196177   9.764   2.990   2.330 -1.3647  0.5392  0.1277
30893SOL    HW296178   9.754   3.137   2.295 -0.1009  0.9188  1.2573
30894SOL     OW96179   8.288   2.642   5.138 -0.0522 -0.0403  0.6230
30894SOL    HW196180   8.342   2.704   5.089  0.9526 -0.7239  0.8341
30894SOL    HW296181   8.309   2.660   5.230 -1.2383  0.6162  0.7891
30895SOL     OW96182   5.297   0.733   5.719 -0.3260  0.3344 -0.1672
30895SOL    HW196183   5.348   0.810   5.745 -0.3379  0.2766  0.0273
30895SOL    HW296184   5.229   0.768   5.661  0.0754  0.3823 -0.6201
30896SOL     OW96185   1.531   2.821   3.430  0.3633  0.3086  0.1315
30896SOL    HW196186   1.544   2.858   3.517  0.2902  0.7218 -0.0348
30896SOL    HW296187   1.557   2.729   3.439 -0.6782  0.0670  0.8665
30897SOL     OW96188   5.548   7.565   5.681  0.0974 -0.1804 -0.4378
30897SOL    HW196189   5.553   7.479   5.639 -0.0883 -0.0571 -0.7154
30897SOL    HW296190   5.557   7.628   5.609 -2.0007  0.0433 -0.5522
30898SOL     OW96191   0.625   8.790   2.969 -0.2861 -0.3480  0.2638
30898SOL    HW196192   0.612   8.723   3.037 -0.7267  0.6975  1.2305
30898SOL    HW296193   0.706   8.763   2.925  0.7910 -0.3048  2.1257
30899SOL     OW96194   0.279   3.905   6.923  0.0001 -0.1310 -0.3251
30899SOL    HW196195   0.329   3.845   6.978  0.6322 -1.4337 -2.2271
30899SOL    HW296196   0.319   3.991   6.938 -0.4690 -0.2454  1.9136
30900SOL     OW96197   2.296   1.979   0.132  0.7801 -0.0459  0.0940
30900SOL    HW196198   2.213   1.996   0.177 -0.3623 -2.9908 -0.6286
30900SOL    HW296199   2.303   2.050   0.068 -0.8398  0.6556  0.6303
30901SOL     OW96200   7.011   5.723   5.876  0.2313  0.9364  0.5495
30901SOL    HW196201   6.970   5.804   5.847 -0.5676 -0.4110 -2.3926
30901SOL    HW296202   6.943   5.679   5.927  0.6069  1.9405  1.9945
30902SOL     OW96203   8.578   0.777   6.304 -0.0038  0.2560  0.2113
30902SOL    HW196204   8.558   0.774   6.211  0.0560 -2.9434  0.1917
30902SOL    HW296205   8.554   0.691   6.337  1.9449  0.5479  2.7445
30903SOL     OW96206   8.482   8.522   2.386  0.7429 -0.2777  0.2799
30903SOL    HW196207   8.422   8.449   2.402 -0.4198  0.8369  1.2387
30903SOL    HW296208   8.472   8.542   2.293 -1.1759  0.5128  0.6028
30904SOL     OW96209   1.524   8.252   0.517  0.0082  0.3851 -0.0134
30904SOL    HW196210   1.537   8.341   0.484  0.5921  0.9703  1.6677
30904SOL    HW296211   1.610   8.210   0.506  0.3399  0.7317  1.1080
30905SOL     OW96212   0.472   3.807   3.719  0.1050 -0.1234  0.2827
30905SOL    HW196213   0.474   3.756   3.638 -0.0830  1.9008 -1.0482
30905SOL    HW296214   0.380   3.805   3.747 -0.3358  1.2202 -0.9575
30906SOL     OW96215   6.685   8.541   5.695  0.4861 -0.1785 -0.4235
30906SOL    HW196216   6.611   8.506   5.744  0.0670 -0.1514 -1.0220
30906SOL    HW296217   6.754   8.475   5.704 -0.0904 -0.8701 -1.0300
30907SOL     OW96218   1.131   8.592   5.077  1.3253 -0.0860 -0.1116
30907SOL    HW196219   1.058   8.650   5.098  1.6029  0.3377 -0.2838
30907SOL    HW296220   1.176   8.636   5.005  1.1626 -0.8507 -0.6907
30908SOL     OW96221   8.827   6.049   5.739 -0.2167 -0.4020 -0.6221
30908SOL    HW196222   8.908   6.040   5.788 -1.0785 -0.8031  0.8097
30908SOL    HW296223   8.763   6.078   5.804 -0.7334  2.2490 -2.1701
30909SOL     OW96224  10.703   2.084   3.302  0.1294 -0.0044 -0.1122
30909SOL    HW196225  10.613   2.085   3.334 -0.0567 -1.6021 -0.4982
30909SOL    HW296226  10.727   2.176   3.294 -0.8704  0.4507  1.6298
30910SOL     OW96227  10.557   2.847   3.973 -0.1977  0.6287 -0.4044
30910SOL    HW196228  10.624   2.899   3.930  0.7113 -0.0725  0.1454
30910SOL    HW296229  10.581   2.756   3.957 -0.4090  0.3604  0.7031
30911SOL     OW96230   0.200   4.766   8.213  0.3701 -0.4193 -0.2009
30911SOL    HW196231   0.183   4.851   8.252 -1.8327 -0.7438 -0.3445
30911SOL    HW296232   0.268   4.783   8.147 -0.5067  1.3763 -0.7043
30912SOL     OW96233   9.558   6.493   4.971  0.4846 -0.4211 -0.2926
30912SOL    HW196234   9.523   6.429   4.909  0.4148 -0.9674  0.3002
30912SOL    HW296235   9.482   6.545   4.998  0.2304 -1.1845  0.4990
30913SOL     OW96236  10.510   6.092   3.105  0.3731  0.2885 -0.3957
30913SOL    HW196237  10.530   6.132   3.020 -1.3206 -0.1771 -1.0421
30913SOL    HW296238  10.438   6.144   3.140  0.5246 -0.0250  0.3930
30914SOL     OW96239   1.558   5.246   1.545 -0.0367  0.0579 -0.5670
30914SOL    HW196240   1.544   5.245   1.450  0.8850  1.1775 -0.7401
30914SOL    HW296241   1.606   5.328   1.561  0.3531 -0.4096  0.7858
30915SOL     OW96242   6.522  10.691   2.133  0.1295 -0.2551  0.4585
30915SOL    HW196243   6.439  10.736   2.152  0.5422  1.0745 -0.6993
30915SOL    HW296244   6.590  10.752   2.161  0.7090 -0.5110 -0.3487
30916SOL     OW96245   6.840   0.495   0.432 -0.1115 -0.2579 -0.1870
30916SOL    HW196246   6.863   0.588   0.442  1.0685 -0.6627  1.2921
30916SOL    HW296247   6.771   0.481   0.497  1.0827 -0.8135  1.0260
30917SOL     OW96248   6.448   8.277   1.487  0.0723  0.4265  0.0037
30917SOL    HW196249   6.501   8.354   1.508 -0.6553  0.8312  0.4236
30917SOL    HW296250   6.369   8.287   1.542 -0.7458  0.2074 -1.1009
30918SOL     OW96251   2.075   8.701   6.901 -0.2078 -0.0212  0.0965
30918SOL    HW196252   2.138   8.680   6.970 -0.5211  0.9375  0.6934
30918SOL    HW296253   2.119   8.675   6.820  1.4557  1.6393  0.3932
30919SOL     OW96254   1.692   7.359   0.870 -0.0965 -0.6700  0.2552
30919SOL    HW196255   1.734   7.288   0.821  3.3241  2.1367 -1.3040
30919SOL    HW296256   1.736   7.359   0.955 -1.1245 -1.1997  0.8188
30920SOL     OW96257   1.873   5.497   0.597 -0.2839  0.4259  0.2513
30920SOL    HW196258   1.814   5.520   0.669  2.1300  0.8558  2.2247
30920SOL    HW296259   1.919   5.418   0.628 -0.1016 -0.1576 -1.4027
30921SOL     OW96260   5.532   3.264   0.591  0.0797  0.2503  0.3447
30921SOL    HW196261   5.564   3.185   0.546 -0.1090 -0.8497  2.0491
30921SOL    HW296262   5.458   3.233   0.643 -0.7513  1.8158  0.1494
30922SOL     OW96263   8.853   6.520   5.181 -0.0378 -0.3025 -0.2263
30922SOL    HW196264   8.890   6.608   5.186 -0.7086  0.0348 -0.9064
30922SOL    HW296265   8.864   6.494   5.089  0.0478 -0.8781 -0.0604
30923SOL     OW96266  10.600   0.937   1.773  1.3812 -0.2558 -0.4682
30923SOL    HW196267  10.587   0.852   1.815 -1.1309 -0.1900 -0.9676
30923SOL    HW296268  10.693   0.955   1.784  1.5138 -1.9071  1.8570
30924SOL     OW96269   8.780   7.694   9.169 -0.4323  0.0886 -0.3213
30924SOL    HW196270   8.846   7.751   9.208  1.6731 -1.9024 -0.8093
30924SOL    HW296271   8.696   7.733   9.197  0.8775  2.6504  0.3721
30925SOL     OW96272   7.932   4.533   9.674 -0.4636 -0.0019  0.1172
30925SOL    HW196273   7.904   4.503   9.587  2.2226 -0.8568 -0.5253
30925SOL    HW296274   7.969   4.620   9.658 -2.1749  0.9290  0.8878
30926SOL     OW96275   9.011   1.833   2.785  0.0875 -0.2632 -0.1265
30926SOL    HW196276   8.969   1.760   2.829 -1.3184  1.4733  1.5760
30926SOL    HW296277   9.104   1.823   2.806 -0.3219 -0.5152  1.7239
30927SOL     OW96278  10.875   4.827   1.813  0.2095 -0.0788  0.6549
30927SOL    HW196279  10.822   4.777   1.875  0.1460 -0.6336  0.1627
30927SOL    HW296280  10.935   4.763   1.775  0.7395  0.4015  0.6706
30928SOL     OW96281   8.946  10.150   1.950 -0.1433 -0.1822 -0.4978
30928SOL    HW196282   8.959  10.061   1.984  2.3695  0.7340  1.2673
30928SOL    HW296283   8.867  10.181   1.994 -0.0651 -0.9525  0.2105
30929SOL     OW96284   2.531   7.299   0.798 -0.0961  0.0020 -0.2760
30929SOL    HW196285   2.493   7.374   0.843  1.2147  0.4637  0.0813
30929SOL    HW296286   2.467   7.278   0.729 -1.8405 -0.3286  1.3497
30930SOL     OW96287   6.454  10.680   9.654 -0.1400  0.1154  0.2304
30930SOL    HW196288   6.457  10.760   9.601 -1.2690 -0.5338 -0.8529
30930SOL    HW296289   6.532  10.631   9.628 -0.6101 -0.1366 -0.7756
30931SOL     OW96290   0.428   8.935   0.687 -0.8475 -0.7155 -0.1539
30931SOL    HW196291   0.423   8.955   0.593 -0.6960 -1.5133 -0.3326
30931SOL    HW296292   0.511   8.975   0.714 -0.1263 -1.7971 -0.6938
30932SOL     OW96293   8.654   6.501   7.075 -0.9078  0.4581  0.2314
30932SOL    HW196294   8.642   6.586   7.033  0.4114  0.4004 -0.3197
30932SOL    HW296295   8.629   6.515   7.166  0.5119  1.7961  0.4532
30933SOL     OW96296   9.747   5.842   1.974 -0.0681 -0.0795  0.1461
30933SOL    HW196297   9.661   5.883   1.964 -0.8167 -1.6593 -0.2300
30933SOL    HW296298   9.728   5.754   2.006  1.3922 -0.5459 -0.1907
30934SOL     OW96299   7.768   5.512   5.226  0.5529  0.6421 -0.6437
30934SOL    HW196300   7.796   5.427   5.260  2.3232  1.4769  0.1275
30934SOL    HW296301   7.738   5.494   5.137 -1.4719 -1.1521  0.3056
30935SOL     OW96302   4.146   0.349   1.575 -0.0531 -0.0669 -0.3823
30935SOL    HW196303   4.202   0.278   1.542  0.1377  0.7807 -1.9681
30935SOL    HW296304   4.058   0.326   1.546 -0.1257 -0.0581 -0.1737
30936SOL     OW96305   3.823   1.090   9.654 -0.1845  0.3127  0.1065
30936SOL    HW196306   3.762   1.163   9.641 -0.5769 -0.0762 -0.2427
30936SOL    HW296307   3.907   1.124   9.622 -0.8415 -0.1562 -2.3576
30937SOL     OW96308   2.844   7.203   9.546 -0.1652 -0.8987 -0.7402
30937SOL    HW196309   2.912   7.263   9.514  0.8920 -1.3211  0.6538
30937SOL    HW296310   2.891   7.139   9.599 -1.7671 -0.3515  1.5071
30938SOL     OW96311   9.962   4.595  10.635 -0.2393  0.1685 -0.8587
30938SOL    HW196312   9.969   4.500  10.644  2.2747 -0.0763 -3.7888
30938SOL    HW296313   9.953   4.627  10.725 -0.7041 -2.7731  0.2433
30939SOL     OW96314   5.715   9.655   2.454  0.4862  0.4163  0.0071
30939SOL    HW196315   5.798   9.683   2.494  0.5769 -1.1255  1.0063
30939SOL    HW296316   5.673   9.601   2.522 -1.8560  1.9948 -0.0805
30940SOL     OW96317   7.208   6.043   5.704 -0.6599  0.2804  0.2555
30940SOL    HW196318   7.241   5.963   5.743 -1.4803 -0.2466 -0.1127
30940SOL    HW296319   7.286   6.085   5.666 -0.1737 -0.1590  0.7499
30941SOL     OW96320   4.786   6.741  10.240  0.1615  0.6335 -0.6840
30941SOL    HW196321   4.709   6.685  10.228  0.3725  0.7708 -3.3546
30941SOL    HW296322   4.755   6.829  10.217  0.9460  0.7928 -1.1542
30942SOL     OW96323   0.778   3.518   2.252  0.0425 -0.1117 -0.1483
30942SOL    HW196324   0.740   3.524   2.339 -0.1580  1.6931 -0.3231
30942SOL    HW296325   0.721   3.572   2.196  1.2510  0.3704 -0.9776
30943SOL     OW96326   4.470   7.749  10.631  0.2506  0.5044  0.5811
30943SOL    HW196327   4.461   7.843  10.614  0.8347  0.4936  0.1727
30943SOL    HW296328   4.559   7.729  10.603  0.3527 -0.0409  1.2966
30944SOL     OW96329   0.102   4.730  10.022 -0.4711  0.8513 -0.5737
30944SOL    HW196330   0.058   4.759  10.102 -0.6573 -1.1582  0.1029
30944SOL    HW296331   0.195   4.734  10.043 -0.5068  0.6670 -0.3770
30945SOL     OW96332   2.491   2.959   1.715 -0.0579 -0.0345 -0.1755
30945SOL    HW196333   2.570   2.965   1.661  0.9431  0.6992  1.3026
30945SOL    HW296334   2.478   2.866   1.728  1.8077 -0.1582  1.2442
30946SOL     OW96335   8.921  10.933   7.093  0.1687 -0.1318  0.1917
30946SOL    HW196336   8.944  10.861   7.152  0.6749  0.0511  0.2203
30946SOL    HW296337   8.928  10.894   7.005  2.1680  0.3308  0.1087
30947SOL     OW96338   5.029   4.314   9.021  0.1254  0.0512  0.0235
30947SOL    HW196339   5.022   4.227   8.982 -1.3989  0.2424 -0.1995
30947SOL    HW296340   4.940   4.335   9.048  0.3277  1.8609 -0.5954
30948SOL     OW96341   7.522   3.633   0.192  0.3319  0.0031 -0.5489
30948SOL    HW196342   7.567   3.570   0.248  2.0607  2.2664  0.7951
30948SOL    HW296343   7.440   3.651   0.237  0.2384 -0.6027 -0.4717
30949SOL     OW96344   9.120  10.936   3.836  0.0779  0.0648  0.0907
30949SOL    HW196345   9.173  11.015   3.848 -2.1491  1.5057  1.1814
30949SOL    HW296346   9.066  10.931   3.915 -1.0842 -1.5602 -0.7416
30950SOL     OW96347   0.294   7.838  10.091 -0.2099 -0.1227  0.0521
30950SOL    HW196348   0.362   7.797  10.144 -0.5771  0.3641  0.9283
30950SOL    HW296349   0.298   7.931  10.113 -0.6611  0.0280 -0.4506
30951SOL     OW96350   5.453   7.464   9.591  0.5949 -0.1944 -0.0800
30951SOL    HW196351   5.369   7.476   9.546  0.5084 -1.2843 -0.2349
30951SOL    HW296352   5.495   7.550   9.586 -0.0800  0.1080 -0.8868
30952SOL     OW96353   2.228   5.596   7.400 -0.0567 -0.3243 -0.4039
30952SOL    HW196354   2.310   5.601   7.449 -0.5223 -0.9580  0.4565
30952SOL    HW296355   2.181   5.676   7.423 -0.5546 -0.9196  0.7239
30953SOL     OW96356  10.924   0.229   1.788  0.3817  0.1468 -0.5250
30953SOL    HW196357  11.006   0.266   1.820  0.0894 -0.9036  1.6245
30953SOL    HW296358  10.923   0.140   1.821 -0.4611 -0.7464 -2.7529
30954SOL     OW96359   4.241  10.202   9.764 -0.2932 -0.2741  0.3473
30954SOL    HW196360   4.159  10.153   9.754 -1.0422  0.4393  2.4054
30954SOL    HW296361   4.224  10.286   9.722 -0.3229 -0.4158  0.0730
30955SOL     OW96362   4.265   6.887   0.318 -0.5568  0.0835  0.3487
30955SOL    HW196363   4.208   6.829   0.268 -0.1980  1.5567 -1.9403
30955SOL    HW296364   4.350   6.879   0.274 -0.5600  2.4395 -0.1928
30956SOL     OW96365   6.691   6.249   2.213  0.3411 -0.8752  0.2334
30956SOL    HW196366   6.718   6.317   2.151 -0.2787 -1.4005 -0.6390
30956SOL    HW296367   6.725   6.278   2.297  0.3585  0.3535 -0.1788
30957SOL     OW96368   6.162   2.810   7.006  0.0189 -1.1000 -0.7707
30957SOL    HW196369   6.233   2.763   6.963  0.7812  0.2971 -1.1115
30957SOL    HW296370   6.083   2.783   6.958  0.7805  0.0896 -2.8511
30958SOL     OW96371   2.501   4.713   8.620 -0.3068  0.0918  0.2776
30958SOL    HW196372   2.583   4.683   8.580  0.2534  0.3386  1.2199
30958SOL    HW296373   2.469   4.781   8.560  0.1266 -0.0688 -0.1404
30959SOL     OW96374  10.579   0.153   5.110 -0.3890 -0.4648  0.0423
30959SOL    HW196375  10.609   0.223   5.169 -0.8591 -1.1088  1.0628
30959SOL    HW296376  10.659   0.107   5.085 -0.3392 -1.5603  1.9664
30960SOL     OW96377   3.959   0.944   3.391  0.5588 -0.0595  0.0289
30960SOL    HW196378   3.912   0.886   3.451  1.3276 -1.5700 -0.7540
30960SOL    HW296379   4.051   0.930   3.411  0.8148 -0.3823 -1.2775
30961SOL     OW96380   3.293  10.928   4.230 -0.5327 -0.1817  0.3929
30961SOL    HW196381   3.199  10.940   4.214 -0.4184  0.2135 -0.0075
30961SOL    HW296382   3.298  10.847   4.280 -1.3694  1.4409  3.3955
30962SOL     OW96383   2.971   6.737   0.938  0.0776 -0.0857  0.0667
30962SOL    HW196384   2.914   6.705   0.868 -1.8594  0.9034  1.1117
30962SOL    HW296385   2.999   6.824   0.908 -0.0524 -0.0251  0.1163
30963SOL     OW96386   3.812  10.112   9.912  0.0220  0.4179  0.7094
30963SOL    HW196387   3.890  10.095   9.964  0.0269 -0.4798  0.4300
30963SOL    HW296388   3.750  10.045   9.940  0.0566 -0.1417 -0.4912
30964SOL     OW96389   1.065   6.200   3.615  0.1403 -0.0814  0.0547
30964SOL    HW196390   1.078   6.248   3.697 -1.5119 -0.1323  0.3822
30964SOL    HW296391   1.123   6.243   3.553  2.0012 -0.5156  1.4116
30965SOL     OW96392   5.178   7.997   1.386  0.2176  0.1933  0.0569
30965SOL    HW196393   5.241   7.966   1.321  0.0199  0.0393 -0.0646
30965SOL    HW296394   5.177   8.092   1.375 -0.3254  0.1148 -0.6467
30966SOL     OW96395   0.771  10.702   3.771 -0.0542  0.1531 -0.0390
30966SOL    HW196396   0.792  10.618   3.731  1.6434 -0.2604  1.5546
30966SOL    HW296397   0.855  10.747   3.780 -0.9692  2.2419 -1.2230
30967SOL     OW96398   2.280   2.855   1.996 -0.6468  0.0395  0.2901
30967SOL    HW196399   2.241   2.904   2.068 -3.1807 -0.2343 -0.7884
30967SOL    HW296400   2.374   2.872   2.003 -0.8083  0.2698  3.4290
30968SOL     OW96401   1.398   4.874   1.797  0.4607 -0.3795 -0.1050
30968SOL    HW196402   1.347   4.919   1.864  1.1514 -0.4906  0.5005
30968SOL    HW296403   1.414   4.786   1.833  2.6527  0.2310  0.5575
30969SOL     OW96404  10.196   8.520   3.734  0.5351 -0.3452  0.5248
30969SOL    HW196405  10.286   8.510   3.764  0.3191 -1.3520  0.8866
30969SOL    HW296406  10.203   8.554   3.645  1.3365 -2.1370 -0.1375
30970SOL     OW96407   0.568   4.453   4.453 -0.3025 -0.1538  0.7970
30970SOL    HW196408   0.522   4.535   4.474  1.0704  0.9586 -0.3147
30970SOL    HW296409   0.567   4.404   4.535 -0.8980  1.1117  1.5876
30971SOL     OW96410   4.965   7.121   2.483 -0.3833  0.1691 -0.6187
30971SOL    HW196411   5.034   7.084   2.538 -0.1501  0.0158 -1.0134
30971SOL    HW296412   4.897   7.147   2.545 -1.0985 -2.0373 -0.3757
30972SOL     OW96413   1.428   3.943   2.481  1.3299  0.2155  0.0490
30972SOL    HW196414   1.458   3.952   2.571 -0.2588  0.9737  0.5359
30972SOL    HW296415   1.438   3.849   2.462 -0.9437 -0.5441  2.0484
30973SOL     OW96416   8.195   2.049   5.082  0.1926 -0.2135 -0.6430
30973SOL    HW196417   8.191   2.102   5.002 -2.1714 -0.6269 -0.8633
30973SOL    HW296418   8.171   2.110   5.152  1.4506 -0.0570 -0.3195
30974SOL     OW96419   1.303   4.845   3.665  0.0783  0.5092 -0.0750
30974SOL    HW196420   1.220   4.798   3.672 -0.5041  1.3355 -1.0569
30974SOL    HW296421   1.348   4.828   3.748 -0.6980 -0.6328  0.1390
30975SOL     OW96422   1.294   2.609  10.572  0.1930 -0.3681  0.3163
30975SOL    HW196423   1.349   2.567  10.638  0.6608  1.9900  1.5596
30975SOL    HW296424   1.354   2.630  10.500  0.3811 -0.0506  0.5651
30976SOL     OW96425   5.588   9.802   3.412  0.1538  0.0899 -0.3651
30976SOL    HW196426   5.558   9.793   3.502  0.0686 -0.8328 -0.4672
30976SOL    HW296427   5.508   9.790   3.359  0.0436  1.5067 -0.5514
30977SOL     OW96428   9.340   8.619   4.408  0.2413  0.0366  0.2071
30977SOL    HW196429   9.296   8.700   4.381  1.3449  0.1416 -1.4496
30977SOL    HW296430   9.282   8.549   4.379 -0.4091  0.1938  1.0717
30978SOL     OW96431   7.579  10.045   7.903  0.6062  0.0097 -0.3536
30978SOL    HW196432   7.560   9.954   7.926 -0.9599 -0.3403 -2.6672
30978SOL    HW296433   7.651  10.039   7.840  2.0543  0.6019  1.1892
30979SOL     OW96434   0.306   3.408   2.628  0.3226  0.1158  0.1177
30979SOL    HW196435   0.305   3.338   2.564 -0.7825  0.2800 -0.0713
30979SOL    HW296436   0.337   3.485   2.580 -0.1571  0.1547 -0.1361
30980SOL     OW96437   3.312   8.955   7.853  0.3025  0.1777  0.5861
30980SOL    HW196438   3.351   8.867   7.856  2.7589  1.1059 -0.7781
30980SOL    HW296439   3.378   9.011   7.895  0.8279  1.9210 -2.2576
30981SOL     OW96440  10.672   4.261   2.772  0.1402  0.1248 -0.1724
30981SOL    HW196441  10.677   4.167   2.756  0.6485 -0.0495  0.9165
30981SOL    HW296442  10.733   4.300   2.708  0.8970 -0.3964  0.2188
30982SOL     OW96443   4.888   8.020  10.564 -0.1477  0.1729  0.2034
30982SOL    HW196444   4.971   8.034  10.518 -0.1901 -1.7130 -0.5387
30982SOL    HW296445   4.913   7.989  10.651 -0.0869  1.4469  0.6593
30983SOL     OW96446   6.380   4.314   8.101 -0.1304 -0.5421 -0.3041
30983SOL    HW196447   6.391   4.394   8.050  1.0930 -1.1735 -1.0574
30983SOL    HW296448   6.420   4.245   8.048 -2.1827 -1.8998 -0.2379
30984SOL     OW96449   9.870   8.464   7.879  0.0749  0.2058  0.2067
30984SOL    HW196450   9.809   8.439   7.809  0.9982 -0.1076 -0.5019
30984SOL    HW296451   9.885   8.384   7.928 -0.4764  0.3986  0.7026
30985SOL     OW96452   3.021   1.084   2.225  0.5049 -0.6111 -0.0471
30985SOL    HW196453   2.951   1.144   2.200  1.6494  1.0191  0.4999
30985SOL    HW296454   3.031   1.097   2.319  0.7257 -1.7570  0.1043
30986SOL     OW96455   7.793  10.999   8.293 -0.0918 -0.0633 -0.6072
30986SOL    HW196456   7.816  11.089   8.315 -0.2673  0.2462 -1.6571
30986SOL    HW296457   7.839  10.946   8.358  1.2909  0.6977 -0.9232
30987SOL     OW96458   7.398   8.659   8.787  0.0677  0.2604  0.5149
30987SOL    HW196459   7.378   8.566   8.776  1.4119 -0.3237  2.3882
30987SOL    HW296460   7.321   8.704   8.751  0.4262 -1.4206 -2.7455
30988SOL     OW96461   0.569   7.536   6.951  0.0988  0.3428  0.1954
30988SOL    HW196462   0.655   7.505   6.924  0.5364  0.8988  0.9086
30988SOL    HW296463   0.513   7.458   6.951  1.1830 -0.5007  2.0471
30989SOL     OW96464   4.611   8.865  10.546  0.4892 -0.0492  0.3051
30989SOL    HW196465   4.663   8.820  10.479  2.0896 -0.0145  1.4696
30989SOL    HW296466   4.529   8.888  10.501  1.1171 -0.8733 -1.3489
30990SOL     OW96467   8.039   1.889   7.553  0.0852 -0.3337  0.3728
30990SOL    HW196468   8.083   1.941   7.486 -1.8643  2.1880  0.8915
30990SOL    HW296469   8.105   1.878   7.621  0.6555  1.3201  0.1437
30991SOL     OW96470   3.906   8.827   2.568  0.1073 -0.3046  0.0693
30991SOL    HW196471   3.990   8.801   2.607 -0.2201 -0.1608  0.8894
30991SOL    HW296472   3.905   8.922   2.578 -0.0632 -0.2857 -0.1368
30992SOL     OW96473   6.043   5.703   6.882  0.1865 -0.4043  0.1785
30992SOL    HW196474   6.015   5.613   6.901 -2.0297  0.0897 -0.5163
30992SOL    HW296475   5.978   5.758   6.926  1.3247  0.8811  0.3151
30993SOL     OW96476   7.954  10.867   8.476  0.1448 -0.1285 -0.6251
30993SOL    HW196477   8.024  10.802   8.464  1.1148  0.9111 -0.7298
30993SOL    HW296478   7.916  10.846   8.562 -0.0153 -1.2428 -0.9504
30994SOL     OW96479   1.820   3.406   8.581  0.6737  0.4506  0.0052
30994SOL    HW196480   1.791   3.426   8.670 -0.7980  0.1443 -0.3697
30994SOL    HW296481   1.915   3.406   8.585  0.6245  0.8977  1.4748
30995SOL     OW96482   5.055   3.974  10.553 -0.5166  0.2116  0.5074
30995SOL    HW196483   5.101   4.033  10.493 -0.2755 -1.5571 -1.1444
30995SOL    HW296484   5.011   4.033  10.615 -0.5942  2.1382 -1.2519
30996SOL     OW96485   2.535   3.278   6.756  0.1961 -0.8487  0.0496
30996SOL    HW196486   2.461   3.316   6.708 -0.5321 -0.4608  1.4287
30996SOL    HW296487   2.606   3.342   6.746 -0.0576 -0.5989 -0.1817
30997SOL     OW96488   8.898   3.531   2.872 -0.3404  0.5048  0.0794
30997SOL    HW196489   8.881   3.608   2.819 -0.6024  1.4655  1.5048
30997SOL    HW296490   8.991   3.535   2.891  0.7871 -2.1061 -3.6390
30998SOL     OW96491   4.858   0.974  10.321 -0.3199  0.0994 -0.0516
30998SOL    HW196492   4.876   0.891  10.276  0.9338  1.7697 -2.8956
30998SOL    HW296493   4.941   1.020  10.320 -1.2924  1.9518  0.2205
30999SOL     OW96494   7.377   5.000   7.803  0.0191 -0.3235  0.7288
30999SOL    HW196495   7.309   4.934   7.817 -1.4535  1.0097  0.1518
30999SOL    HW296496   7.459   4.956   7.828 -0.8729 -2.4029  0.1899
31000SOL     OW96497   2.796   5.016   0.995 -0.1387  0.0291 -0.1341
31000SOL    HW196498   2.891   5.006   1.004  0.0557  0.2361 -1.6593
31000SOL    HW296499   2.768   4.936   0.950 -0.4782  0.5684 -0.8971
31001SOL     OW96500   1.495   0.586   0.177 -0.0175 -0.4014 -0.2519
31001SOL    HW196501   1.480   0.521   0.245  0.0628  0.3745  0.5338
31001SOL    HW296502   1.481   0.670   0.221 -0.4740  0.1093 -1.3245
31002SOL     OW96503  10.822   6.943   5.451  0.0419  0.5344  0.0217
31002SOL    HW196504  10.908   6.970   5.483  1.1773 -1.5293 -1.0863
31002SOL    HW296505  10.838   6.914   5.362 -1.4759 -1.4959  0.3510
31003SOL     OW96506   1.062   1.988   1.361  0.1499 -0.0585  0.5586
31003SOL    HW196507   1.109   1.993   1.278  1.2504  0.4078  1.1947
31003SOL    HW296508   1.095   1.908   1.402 -0.7556 -0.5544  0.3417
31004SOL     OW96509   3.913  10.598   9.087  0.0801 -0.1213  0.0029
31004SOL    HW196510   3.914  10.566   8.997  1.2392 -0.3159  0.0689
31004SOL    HW296511   4.000  10.579   9.120 -0.5718 -0.7756  1.4391
31005SOL     OW96512  10.725   3.427   3.017 -0.4171  0.1447 -0.2044
31005SOL    HW196513  10.703   3.497   2.955 -0.5395 -1.3221 -1.9089
31005SOL    HW296514  10.661   3.358   2.998  0.6805 -1.0457  0.3214
31006SOL     OW96515   3.870   0.629   6.335 -0.0326  0.4270  0.7854
31006SOL    HW196516   3.895   0.565   6.402  1.6439  1.9989  1.7634
31006SOL    HW296517   3.790   0.670   6.370  0.5289  0.8627  1.5864
31007SOL     OW96518   9.157   6.198  10.111 -0.1656 -0.0186  0.4653
31007SOL    HW196519   9.102   6.276  10.120 -0.4939  0.0238 -1.4864
31007SOL    HW296520   9.237   6.230  10.070 -0.0634 -0.5991  0.1995
31008SOL     OW96521   4.465   6.180  10.226 -0.4366 -0.5911 -0.0990
31008SOL    HW196522   4.454   6.102  10.171  0.6374  0.1401 -1.4237
31008SOL    HW296523   4.384   6.230  10.214 -0.7431 -1.0536  0.0155
31009SOL     OW96524   4.562   2.393  10.741  0.2298  0.0269 -0.7436
31009SOL    HW196525   4.558   2.298  10.757 -1.3469  0.0696 -0.8010
31009SOL    HW296526   4.569   2.431  10.829 -1.9189 -0.0502 -0.4789
31010SOL     OW96527  10.085   6.633   4.472 -0.1029 -0.2445  0.0625
31010SOL    HW196528  10.090   6.570   4.401  0.3292 -0.3341  0.1699
31010SOL    HW296529  10.147   6.702   4.448  1.1240 -0.9598  1.0106
31011SOL     OW96530   0.551   4.187   5.607  0.5232  0.1525  0.3875
31011SOL    HW196531   0.528   4.200   5.699  0.8830 -0.4042  0.5653
31011SOL    HW296532   0.530   4.270   5.565 -1.6597 -0.2695  0.5517
31012SOL     OW96533   8.280   8.401   2.836 -0.4547 -0.3643  0.4745
31012SOL    HW196534   8.205   8.359   2.879 -0.1473  0.2214  1.6212
31012SOL    HW296535   8.261   8.494   2.841  0.3230 -0.2113  0.7316
31013SOL     OW96536   0.852   0.988   8.899 -0.3591  0.7349 -0.6733
31013SOL    HW196537   0.911   0.915   8.915 -3.1600 -1.1851  1.8293
31013SOL    HW296538   0.897   1.064   8.935  1.0652 -0.4264  0.0815
31014SOL     OW96539   6.940   2.472   6.978  0.3417 -0.0052 -0.1082
31014SOL    HW196540   6.859   2.423   6.964  0.9045 -0.5903 -1.5438
31014SOL    HW296541   7.007   2.404   6.985  0.7138  0.4653  1.2441
31015SOL     OW96542   9.217   3.184   7.271  0.3027  0.3528  0.7182
31015SOL    HW196543   9.244   3.269   7.307 -1.2812  1.0361  0.3489
31015SOL    HW296544   9.152   3.151   7.334  1.4800 -0.9962  1.2859
31016SOL     OW96545   7.856   6.201   9.338  0.4823  0.7751 -0.0476
31016SOL    HW196546   7.886   6.204   9.429 -2.6728 -0.4206  1.1947
31016SOL    HW296547   7.814   6.285   9.324  0.0986  0.5877 -0.0347
31017SOL     OW96548   0.969   8.471  10.852 -0.3751  0.5605 -0.5207
31017SOL    HW196549   0.966   8.478  10.756  2.9734 -1.8482 -0.9812
31017SOL    HW296550   1.050   8.516  10.876  0.1388 -1.0048  0.8551
31018SOL     OW96551  10.972   5.960   2.352 -0.7240 -0.3130  0.3830
31018SOL    HW196552  11.045   5.999   2.303 -1.4340 -0.2430 -0.6529
31018SOL    HW296553  11.008   5.944   2.439  0.2701  0.5190  0.1476
31019SOL     OW96554   7.355   6.834   8.081 -0.7075  0.9226 -0.2896
31019SOL    HW196555   7.267   6.802   8.103  0.1095 -0.2667  1.5068
31019SOL    HW296556   7.405   6.754   8.062  0.2272  1.5164 -0.3856
31020SOL     OW96557   1.783   5.357   2.494  0.2305 -0.5291 -0.0369
31020SOL    HW196558   1.777   5.314   2.409  0.7561 -0.9032  0.1114
31020SOL    HW296559   1.755   5.292   2.557 -1.4161  0.1551 -0.0119
31021SOL     OW96560   7.136   7.579   3.435 -0.2536 -0.2101  0.1227
31021SOL    HW196561   7.224   7.557   3.405 -0.1092  0.8269 -0.2552
31021SOL    HW296562   7.078   7.538   3.370 -0.0853 -1.2240  0.5855
31022SOL     OW96563   8.442   7.556   0.920  0.5088  0.0547 -0.1588
31022SOL    HW196564   8.377   7.498   0.881 -0.4673  0.3597  0.9587
31022SOL    HW296565   8.468   7.513   1.001 -0.6281  1.4039  0.9590
31023SOL     OW96566   0.212   2.709   8.942 -0.5783 -0.2141  0.3862
31023SOL    HW196567   0.220   2.771   9.015 -0.7076 -0.2855  0.4631
31023SOL    HW296568   0.212   2.763   8.864 -1.6839 -0.0299  0.4962
31024SOL     OW96569   1.496   6.437   8.388  0.7444  0.9527 -0.2316
31024SOL    HW196570   1.585   6.427   8.354  0.4349  2.3641 -1.6223
31024SOL    HW296571   1.508   6.467   8.478  1.6233 -0.9298  0.3288
31025SOL     OW96572   5.331  10.939   1.631 -0.2561  0.0012  0.5414
31025SOL    HW196573   5.411  10.960   1.583 -0.6373 -0.9844 -0.5583
31025SOL    HW296574   5.317  11.015   1.687 -0.1777  1.5577 -1.4189
31026SOL     OW96575   5.068   3.902   3.588 -0.0316 -0.3183 -0.0583
31026SOL    HW196576   5.136   3.894   3.654 -0.3851  0.7843  0.4636
31026SOL    HW296577   4.986   3.898   3.636 -0.2875  1.0202 -0.3392
31027SOL     OW96578   9.330   0.059   1.872 -0.2279 -0.7011  0.2213
31027SOL    HW196579   9.252   0.043   1.819  1.4372 -0.4186 -2.5560
31027SOL    HW296580   9.348   0.152   1.862  0.5991 -0.8100  0.5920
31028SOL     OW96581   8.799   4.397   2.662  0.1763 -0.4449 -0.2864
31028SOL    HW196582   8.766   4.461   2.598 -1.5020 -0.6235  0.3436
31028SOL    HW296583   8.720   4.358   2.699  0.9173  1.1835  3.4882
31029SOL     OW96584   9.444   5.873   4.727 -0.0033  0.1734  0.6261
31029SOL    HW196585   9.362   5.872   4.677  1.5951 -1.4277 -2.2415
31029SOL    HW296586   9.420   5.837   4.813 -2.1001 -1.4584 -0.5279
31030SOL     OW96587   0.866  10.868   8.001 -0.3676  0.2194  0.4946
31030SOL    HW196588   0.913  10.819   8.068 -0.6391  0.9454  1.2267
31030SOL    HW296589   0.822  10.800   7.949  1.4234 -0.4767 -0.1924
31031SOL     OW96590   0.214   2.801   5.105 -0.3384 -0.0062 -0.1184
31031SOL    HW196591   0.281   2.817   5.170  0.3720  0.7191 -1.0094
31031SOL    HW296592   0.146   2.866   5.123 -0.6711 -0.5222  0.5673
31032SOL     OW96593   0.148  10.524   4.902 -0.5218 -0.6021 -0.6650
31032SOL    HW196594   0.188  10.444   4.870 -1.7324 -0.6005 -2.3211
31032SOL    HW296595   0.065  10.530   4.855 -0.2636  1.8637 -0.9403
31033SOL     OW96596  10.522   4.167   8.338 -0.1367  0.1887  0.0622
31033SOL    HW196597  10.534   4.215   8.419 -0.3485  1.6905 -0.7684
31033SOL    HW296598  10.605   4.177   8.291  0.3071 -1.4044  0.4259
31034SOL     OW96599  10.388   0.925   9.292 -0.3676 -0.4709  0.3287
31034SOL    HW196600  10.408   0.953   9.381  3.3675 -1.4468 -0.0367
31034SOL    HW296601  10.304   0.880   9.299 -0.5669  0.1767  3.1714
31035SOL     OW96602   6.797   6.399   5.221  0.1765 -0.2012  0.3095
31035SOL    HW196603   6.764   6.376   5.308 -0.5218  1.4537  0.5216
31035SOL    HW296604   6.717   6.411   5.168  0.5530  0.0764 -0.2019
31036SOL     OW96605   5.885   4.103   5.075 -0.1651 -0.6822 -0.3638
31036SOL    HW196606   5.837   4.185   5.081 -0.9020 -1.1441  0.2630
31036SOL    HW296607   5.898   4.076   5.167 -2.0831 -2.4823 -0.5565
31037SOL     OW96608   0.839   7.425   6.949  0.0667 -0.0803 -0.2767
31037SOL    HW196609   0.784   7.365   7.001 -0.4542 -1.0848 -1.9008
31037SOL    HW296610   0.915   7.443   7.006 -0.7368 -0.6637  1.0386
31038SOL     OW96611   4.623   7.691   9.603 -0.2434 -0.7420 -0.3283
31038SOL    HW196612   4.682   7.663   9.532 -1.2798 -1.1133 -1.0740
31038SOL    HW296613   4.544   7.720   9.557 -1.0924 -1.3695  0.6884
31039SOL     OW96614   1.673   0.429   1.203  0.0400  0.0316 -0.0521
31039SOL    HW196615   1.745   0.479   1.241  0.3232 -0.8533  0.6140
31039SOL    HW296616   1.715   0.364   1.147 -0.1911 -0.8907  0.8175
31040SOL     OW96617   3.673   8.032   7.398  0.5034  0.3435  0.6921
31040SOL    HW196618   3.727   8.039   7.320 -0.0386  2.6210  0.4512
31040SOL    HW296619   3.684   7.941   7.427  1.9761 -0.1030 -1.0872
31041SOL     OW96620   6.020   4.280   4.533  0.0503  0.4373  0.1393
31041SOL    HW196621   6.058   4.300   4.619  0.4952 -1.3763  0.3973
31041SOL    HW296622   5.927   4.299   4.543  0.3595  1.9116  0.4623
31042SOL     OW96623   8.394  10.126   3.416  0.2493 -0.0642  0.1500
31042SOL    HW196624   8.402  10.051   3.356  0.7376 -0.7796  1.0891
31042SOL    HW296625   8.312  10.111   3.462  0.0822  0.2621 -0.0408
31043SOL     OW96626   5.740   5.153  10.691 -0.0425 -0.3560  0.2880
31043SOL    HW196627   5.759   5.072  10.645 -1.1270 -1.0510  1.0178
31043SOL    HW296628   5.746   5.131  10.784  3.1893  1.2807  0.5968
31044SOL     OW96629   1.531   7.266   2.981 -0.1754 -0.1193  0.7190
31044SOL    HW196630   1.613   7.311   3.000 -1.3289  1.6695  1.7426
31044SOL    HW296631   1.515   7.284   2.888  0.6130 -0.5577  0.4907
31045SOL     OW96632   9.725   2.014   6.430  0.3500 -0.3724 -0.3807
31045SOL    HW196633   9.716   2.039   6.522 -0.1590 -1.8048 -0.0131
31045SOL    HW296634   9.671   1.935   6.421  0.3474 -0.2218 -1.9244
31046SOL     OW96635   9.684   7.186   1.595  0.0297 -0.2571 -0.3128
31046SOL    HW196636   9.705   7.203   1.503  0.0135 -0.2484 -0.3149
31046SOL    HW296637   9.643   7.267   1.625 -0.9416 -0.6295 -0.5852
31047SOL     OW96638   3.402   5.232   7.776  0.7161 -0.4324 -0.0190
31047SOL    HW196639   3.429   5.324   7.787 -0.0975  0.3005 -3.0981
31047SOL    HW296640   3.319   5.225   7.823  0.7010  0.4680  0.1051
31048SOL     OW96641   1.628   3.787  10.833 -0.4339  0.1025  0.2761
31048SOL    HW196642   1.538   3.756  10.840 -0.9009  1.0251 -1.1193
31048SOL    HW296643   1.670   3.757  10.913 -1.3203 -2.4209 -0.1095
31049SOL     OW96644   5.646   5.064   8.779 -0.1693 -0.6581 -0.1496
31049SOL    HW196645   5.567   5.024   8.742 -0.0116 -0.3836 -0.8027
31049SOL    HW296646   5.619   5.096   8.865 -1.5671  1.9226 -1.4343
31050SOL     OW96647   0.017   2.905   4.644 -0.5308  0.3289  0.5232
31050SOL    HW196648   0.083   2.852   4.688  1.7225  2.2443 -0.2843
31050SOL    HW296649  -0.023   2.957   4.713  1.6867  1.9811  0.7129
31051SOL     OW96650   3.038   3.764   2.886 -0.4865 -0.0617  0.3902
31051SOL    HW196651   3.046   3.686   2.940  2.4868  0.4662  0.8690
31051SOL    HW296652   3.017   3.731   2.799 -1.7561 -1.1605  1.0667
31052SOL     OW96653   2.406   5.488   2.372  0.4900 -0.4891  0.0518
31052SOL    HW196654   2.431   5.577   2.348 -0.4563 -0.0527  0.6354
31052SOL    HW296655   2.485   5.436   2.356  0.7378  0.2544 -1.3037
31053SOL     OW96656   2.534   4.953   1.655  0.2265 -0.8322 -0.3885
31053SOL    HW196657   2.614   5.003   1.638 -0.2908  0.7234  1.3566
31053SOL    HW296658   2.563   4.878   1.707  0.4053  1.0013  2.3967
31054SOL     OW96659   8.786   4.491   6.151  0.3404 -0.3500  0.2217
31054SOL    HW196660   8.840   4.423   6.112  1.6060  0.7345  0.0214
31054SOL    HW296661   8.848   4.551   6.192 -0.6036  1.6074 -1.0624
31055SOL     OW96662   9.637   5.298   8.622 -0.2267 -0.8283  0.3905
31055SOL    HW196663   9.666   5.208   8.606  1.1000 -0.3595 -0.0418
31055SOL    HW296664   9.716   5.343   8.652 -0.9185  0.1476  0.8002
31056SOL     OW96665   7.374   6.400   9.793  0.6358 -0.0884 -0.0991
31056SOL    HW196666   7.468   6.400   9.811  1.1095  3.6946 -1.8024
31056SOL    HW296667   7.366   6.362   9.705  0.3808 -1.2230  0.3826
31057SOL     OW96668   2.258   5.579   0.997 -0.2734 -0.1154 -0.0068
31057SOL    HW196669   2.176   5.587   0.949 -0.4263  0.3795  0.3345
31057SOL    HW296670   2.318   5.538   0.935 -1.2241 -2.0541  0.2810
31058SOL     OW96671   7.098   1.769  10.923 -0.1108 -0.3185 -0.5776
31058SOL    HW196672   7.121   1.746  10.833  0.9262 -1.2403 -0.1038
31058SOL    HW296673   7.013   1.728  10.937 -0.7590  0.6793 -1.4390
31059SOL     OW96674   7.538   0.985   7.420 -0.1318 -0.2039 -0.7551
31059SOL    HW196675   7.627   0.979   7.456 -0.0044 -0.0381 -1.0455
31059SOL    HW296676   7.516   1.077   7.426  0.0987 -0.0876 -1.6024
31060SOL     OW96677   2.217   7.423   5.273  0.3323 -0.4226 -0.3171
31060SOL    HW196678   2.202   7.474   5.193 -0.2419  1.2055  0.7854
31060SOL    HW296679   2.285   7.471   5.320  2.0758 -2.4134 -0.6610
31061SOL     OW96680   4.240   5.965   7.074 -0.1408 -0.1587 -0.2220
31061SOL    HW196681   4.163   6.019   7.056  0.5306  1.0170  0.3755
31061SOL    HW296682   4.222   5.882   7.028 -2.7493 -0.7654  1.6844
31062SOL     OW96683   2.094   7.387   8.207  0.6345  0.0675  0.3632
31062SOL    HW196684   2.021   7.415   8.151  2.0523  1.7793 -0.7390
31062SOL    HW296685   2.068   7.300   8.237 -3.1562  1.6250  2.3663
31063SOL     OW96686   3.997   6.819   6.622  0.2850 -0.0415  0.1988
31063SOL    HW196687   3.968   6.733   6.591 -0.1409 -0.7269  2.3186
31063SOL    HW296688   4.000   6.810   6.718 -1.6968  2.8791  0.6518
31064SOL     OW96689   8.856   6.295   5.338  0.4520  0.0504 -0.3142
31064SOL    HW196690   8.851   6.367   5.274 -0.0388  0.0005 -0.3374
31064SOL    HW296691   8.867   6.216   5.284  2.0493  0.1903 -0.2523
31065SOL     OW96692   2.061   7.550   6.352  0.1357 -0.1820 -0.1154
31065SOL    HW196693   2.013   7.559   6.434 -0.4069 -0.3058 -0.4183
31065SOL    HW296694   2.061   7.638   6.314 -0.1641 -0.2587 -0.2911
31066SOL     OW96695   9.845   9.913   7.501  0.0269 -0.1445  0.3028
31066SOL    HW196696   9.770   9.952   7.457  1.4754  1.5822 -0.8073
31066SOL    HW296697   9.864   9.833   7.452  0.9171  1.1641 -1.5856
31067SOL     OW96698   3.162   3.406   6.686 -0.1790  0.1542  0.0583
31067SOL    HW196699   3.072   3.431   6.664 -0.1520 -0.1584 -0.4271
31067SOL    HW296700   3.216   3.470   6.641 -0.1208 -0.5377 -0.9013
31068SOL     OW96701   3.590   3.209   8.927  0.6177 -0.3659 -0.5394
31068SOL    HW196702   3.520   3.208   8.862  0.8861 -1.2896 -0.8290
31068SOL    HW296703   3.650   3.140   8.899  0.7653 -0.7506  0.6619
31069SOL     OW96704   9.521   5.600  10.242 -0.1538  0.2914 -0.1161
31069SOL    HW196705   9.551   5.565  10.158  0.3213  2.0164 -0.7054
31069SOL    HW296706   9.433   5.632  10.224  0.0150  0.8201 -0.0039
31070SOL     OW96707   1.340   2.977  10.147  0.2637 -0.2975  0.4293
31070SOL    HW196708   1.357   3.017  10.232 -0.0556  1.4706 -0.2879
31070SOL    HW296709   1.249   3.000  10.128  0.5855  0.0780 -0.7524
31071SOL     OW96710  10.886   6.247   7.855 -0.2665 -0.6315  0.1627
31071SOL    HW196711  10.893   6.212   7.944 -1.2002 -0.1527  0.4349
31071SOL    HW296712  10.851   6.174   7.803 -1.5058 -0.3526  0.5778
31072SOL     OW96713   1.730   3.885   3.203 -0.3720 -0.7468  0.2291
31072SOL    HW196714   1.684   3.802   3.203  0.2593 -1.1098  0.8532
31072SOL    HW296715   1.676   3.943   3.257 -1.2626 -0.4697 -0.9137
31073SOL     OW96716   5.672  10.469   4.607 -0.3289 -0.1529  0.1516
31073SOL    HW196717   5.683  10.536   4.674 -0.9852 -0.5087  0.6258
31073SOL    HW296718   5.626  10.398   4.651 -0.5731 -0.4868 -0.6185
31074SOL     OW96719   9.031   9.622   3.328  0.2851 -0.0065 -0.6005
31074SOL    HW196720   9.091   9.690   3.359  1.9030 -0.2498 -2.9274
31074SOL    HW296721   9.087   9.545   3.315 -1.2362 -1.3639  0.5120
31075SOL     OW96722   7.798   5.866   0.682 -0.3721  0.0716  0.7788
31075SOL    HW196723   7.703   5.861   0.687 -0.2781 -0.8958  2.2030
31075SOL    HW296724   7.821   5.807   0.610 -0.8723  0.7415  0.0610
31076SOL     OW96725   3.423   1.259   3.210 -0.9163 -0.4963  0.1450
31076SOL    HW196726   3.350   1.215   3.167  0.8469 -1.7970 -1.7344
31076SOL    HW296727   3.477   1.188   3.244  0.5350  0.3292 -0.3637
31077SOL     OW96728   4.214   8.498   2.657  0.3675  0.4615  0.6523
31077SOL    HW196729   4.232   8.404   2.667 -0.4403 -0.0648 -2.0730
31077SOL    HW296730   4.276   8.528   2.591 -1.7959  0.9305 -1.2746
31078SOL     OW96731   1.926   6.203   7.381 -0.4533 -0.3377  0.0299
31078SOL    HW196732   2.021   6.211   7.375 -0.6026  0.9411 -0.8742
31078SOL    HW296733   1.905   6.125   7.329 -0.0382  0.2689 -1.0710
31079SOL     OW96734   8.876   1.703   7.041 -0.0023  0.2993  0.1622
31079SOL    HW196735   8.948   1.760   7.013 -0.1913 -0.1928 -1.4308
31079SOL    HW296736   8.918   1.621   7.065  0.0380  0.2010 -0.2269
31080SOL     OW96737   2.980   8.457   3.436  0.0949 -0.5192  0.2999
31080SOL    HW196738   3.068   8.485   3.412  0.1669 -0.6621  0.3953
31080SOL    HW296739   2.923   8.526   3.402  0.3075  0.0195  1.0086
31081SOL     OW96740   1.185   2.049   1.115  0.3061 -0.7147  1.0324
31081SOL    HW196741   1.244   2.014   1.048 -0.2435  0.6306 -0.1981
31081SOL    HW296742   1.227   2.130   1.144 -0.5961 -0.0762  0.6032
31082SOL     OW96743   3.813   8.855   6.877 -0.0956  0.3309  0.3686
31082SOL    HW196744   3.837   8.813   6.959  1.4344 -0.2524 -0.3369
31082SOL    HW296745   3.824   8.787   6.811 -4.4831 -0.2208 -0.0352
31083SOL     OW96746   2.781   5.315   3.414  0.6034  0.2452  0.0521
31083SOL    HW196747   2.724   5.392   3.414  0.7929  0.4014 -0.8116
31083SOL    HW296748   2.827   5.319   3.497 -0.2865  0.3833  0.5512
31084SOL     OW96749  10.272   6.820   9.102  0.3693 -0.2332  0.2654
31084SOL    HW196750  10.230   6.754   9.046 -2.4983  0.9691  0.8437
31084SOL    HW296751  10.297   6.890   9.041 -0.2038 -0.1460  0.1198
31085SOL     OW96752   1.020   9.731   6.919  0.0247  0.1848 -0.3964
31085SOL    HW196753   1.054   9.671   6.985 -1.7830 -2.2855 -1.5461
31085SOL    HW296754   1.070   9.710   6.840 -0.6138  0.2160 -0.8131
31086SOL     OW96755   9.379   8.625   4.682 -0.0734 -0.0724  0.1913
31086SOL    HW196756   9.369   8.628   4.586 -0.9800  0.3266  0.2858
31086SOL    HW296757   9.463   8.583   4.696  0.0946 -0.0901 -0.7913
31087SOL     OW96758   1.768   6.063   0.535 -0.1727  0.0729  0.5603
31087SOL    HW196759   1.848   6.115   0.524  0.1309 -0.0969  1.7732
31087SOL    HW296760   1.741   6.040   0.446  1.8294 -0.9297  0.1670
31088SOL     OW96761   8.470   2.318   8.667  0.0823  0.2147  0.1406
31088SOL    HW196762   8.428   2.377   8.605  1.8348  1.7699  0.3294
31088SOL    HW296763   8.564   2.330   8.652  0.5384 -2.6493  0.1473
31089SOL     OW96764   3.072   7.125   3.938 -0.3234  0.3135 -0.3554
31089SOL    HW196765   3.107   7.191   3.998  1.0063  0.2770 -1.0589
31089SOL    HW296766   3.050   7.173   3.859 -2.4583  0.4287  0.2483
31090SOL     OW96767   6.288   9.670   7.194  0.0803  0.0802  0.1395
31090SOL    HW196768   6.333   9.648   7.112 -0.6471  2.1290 -0.8774
31090SOL    HW296769   6.281   9.587   7.240 -1.0446 -1.5305 -2.6559
31091SOL     OW96770   5.913   0.068   1.043  0.2494  0.0772  0.0361
31091SOL    HW196771   5.834   0.120   1.055  1.3779  2.3495 -1.6485
31091SOL    HW296772   5.910   0.003   1.114 -2.5003  0.7948  0.7091
31092SOL     OW96773   9.659  10.012   9.505  0.0308  0.4765  0.9459
31092SOL    HW196774   9.701   9.997   9.420  0.9076 -1.4989  1.6557
31092SOL    HW296775   9.679  10.103   9.525  2.5035  0.1394  0.3940
31093SOL     OW96776   9.683   8.340   4.925 -0.2076 -0.3322 -0.4044
31093SOL    HW196777   9.635   8.269   4.883 -2.7604  1.1472 -0.1465
31093SOL    HW296778   9.714   8.303   5.007  0.4137 -1.7486 -1.2491
31094SOL     OW96779   6.806  10.613   3.413  0.1836  0.3945 -0.8283
31094SOL    HW196780   6.872  10.548   3.438  1.7346  1.8788 -0.9088
31094SOL    HW296781   6.839  10.695   3.448 -2.0879  1.0704 -0.1237
31095SOL     OW96782   1.554   3.914   8.169  0.4299  0.3259  0.4208
31095SOL    HW196783   1.467   3.902   8.130  0.7020 -2.1384  0.4524
31095SOL    HW296784   1.557   4.007   8.191 -1.2848  0.9827 -1.7433
31096SOL     OW96785   9.684   1.707   0.080 -0.2355 -0.5334 -0.0552
31096SOL    HW196786   9.771   1.671   0.065 -0.2576 -0.1078 -1.3435
31096SOL    HW296787   9.656   1.738  -0.006 -1.3012  0.1244  0.5082
31097SOL     OW96788   5.721   8.590   4.932 -0.4650  0.0015  0.1997
31097SOL    HW196789   5.738   8.656   4.999 -1.2229 -0.2381  0.6376
31097SOL    HW296790   5.743   8.634   4.849  1.7048 -0.1187  0.6564
31098SOL     OW96791   2.985   8.711   3.979  0.2843  0.7911 -0.8513
31098SOL    HW196792   3.078   8.696   3.962  0.5791  3.4434 -2.0040
31098SOL    HW296793   2.942   8.631   3.947  2.1101 -0.5920 -0.0839
31099SOL     OW96794   7.037   1.155   2.853 -0.1586 -0.2421 -0.4697
31099SOL    HW196795   6.994   1.074   2.827 -1.7615  0.1942  0.7043
31099SOL    HW296796   7.032   1.211   2.776 -1.0502 -0.4739 -0.5893
31100SOL     OW96797   1.046   8.775  10.395  0.1567  0.1602 -0.4328
31100SOL    HW196798   1.100   8.764  10.317  0.1557 -0.1100 -0.3993
31100SOL    HW296799   1.050   8.868  10.415  0.7708  0.1149 -0.3166
31101SOL     OW96800   5.070   9.551  10.997 -0.0060  0.1001 -0.3431
31101SOL    HW196801   5.129   9.601  11.054  0.0271  0.1403 -0.4130
31101SOL    HW296802   5.047   9.473  11.049  2.1711 -1.2547 -1.2682
31102SOL     OW96803   5.523   4.242   5.031  0.2419 -0.3995 -0.0326
31102SOL    HW196804   5.444   4.222   5.082 -0.0535  0.5862 -0.0790
31102SOL    HW296805   5.590   4.261   5.098  0.1683 -0.2489 -0.0015
31103SOL     OW96806   3.958   2.782   7.546  0.0398  0.3506  0.0121
31103SOL    HW196807   4.018   2.786   7.620 -0.7490  1.4763  0.6186
31103SOL    HW296808   4.014   2.785   7.469  0.7826  0.8141  0.5632
31104SOL     OW96809   0.666   7.740   4.194  0.2044  0.5012 -0.2657
31104SOL    HW196810   0.639   7.832   4.191 -0.8288  0.2380  0.4001
31104SOL    HW296811   0.741   7.739   4.254  1.4274  1.1585 -1.7110
31105SOL     OW96812   9.131   8.344   5.489 -0.4294  0.3474 -0.2282
31105SOL    HW196813   9.209   8.325   5.542 -0.7787 -1.6372 -0.3777
31105SOL    HW296814   9.081   8.406   5.542 -0.1685 -0.6381  1.2123
31106SOL     OW96815   5.569   4.552   0.980  0.1699 -0.2442 -0.2894
31106SOL    HW196816   5.600   4.492   0.912  1.1244 -0.9904  0.7666
31106SOL    HW296817   5.644   4.610   0.996 -0.2080  0.2201 -0.1915
31107SOL     OW96818   1.268   6.646   8.383 -0.2699 -0.6080  0.6880
31107SOL    HW196819   1.362   6.632   8.397 -0.3513 -1.5043  0.3582
31107SOL    HW296820   1.243   6.579   8.319 -0.7967  0.6781 -0.5102
31108SOL     OW96821   5.841   5.967   0.932  0.0921  0.0914 -0.7848
31108SOL    HW196822   5.755   5.995   0.961 -0.4240 -1.6113 -0.5579
31108SOL    HW296823   5.891   5.955   1.013 -0.2707 -1.3455 -0.7508
31109SOL     OW96824  10.080   8.805   2.668  0.2667 -0.3581  0.5641
31109SOL    HW196825   9.990   8.810   2.700 -1.2176 -1.2619 -2.9507
31109SOL    HW296826  10.126   8.878   2.711 -1.7859 -0.5658  3.3153
31110SOL     OW96827   3.984   3.427   6.946 -0.2022 -0.1951  0.0778
31110SOL    HW196828   4.000   3.482   7.023  4.1331 -1.4140  0.3169
31110SOL    HW296829   4.041   3.462   6.878 -0.0109 -2.1882 -0.8801
31111SOL     OW96830   6.562   7.243   1.786  0.0129  0.2845  0.0928
31111SOL    HW196831   6.494   7.294   1.743 -0.5068  0.1620  0.7593
31111SOL    HW296832   6.636   7.245   1.725  0.2108  2.2929  0.3463
31112SOL     OW96833  10.850   7.924   0.367  0.2085 -0.3229  0.5857
31112SOL    HW196834  10.772   7.880   0.332  0.7330 -0.2541 -0.7217
31112SOL    HW296835  10.824   7.953   0.454 -1.6130  0.6978 -0.2436
31113SOL     OW96836   3.420   4.329   7.012  0.1292 -0.4450 -0.4447
31113SOL    HW196837   3.378   4.266   7.071  0.0609  0.3999  0.4286
31113SOL    HW296838   3.368   4.325   6.932 -0.9226 -0.2628  0.2127
31114SOL     OW96839   3.434   4.332  10.236  0.0449 -0.6878 -0.1859
31114SOL    HW196840   3.476   4.401  10.184 -0.0652 -1.3281 -1.1566
31114SOL    HW296841   3.402   4.270  10.171 -1.0920 -0.9639  0.6046
31115SOL     OW96842   8.423  10.413   7.620 -0.6036 -0.5600  0.1239
31115SOL    HW196843   8.456  10.502   7.636  0.5072 -0.7683 -0.8690
31115SOL    HW296844   8.333  10.425   7.593 -0.2572  0.3288 -0.6755
31116SOL     OW96845   1.572   7.224   8.265  0.4318  0.0184  0.5862
31116SOL    HW196846   1.599   7.168   8.192 -1.7643 -0.6748  0.2249
31116SOL    HW296847   1.646   7.222   8.326  1.2964 -1.4657 -0.4580
31117SOL     OW96848  10.013   8.606   9.251  0.3980 -0.2782  0.3979
31117SOL    HW196849   9.921   8.629   9.237  0.5889  0.6509  0.5601
31117SOL    HW296850  10.061   8.678   9.210  1.0208  0.0110  1.5979
31118SOL     OW96851   5.835   6.605   9.426 -0.0233  0.5782  0.1495
31118SOL    HW196852   5.814   6.616   9.333  0.3148  0.3130  0.0436
31118SOL    HW296853   5.849   6.511   9.437  0.1543  0.6367  0.4247
31119SOL     OW96854   0.200   8.116  10.267  0.1876  0.2597 -0.1132
31119SOL    HW196855   0.137   8.046  10.287 -0.7639  1.1145 -0.0261
31119SOL    HW296856   0.214   8.109  10.172 -0.1452  0.1447 -0.1550
31120SOL     OW96857   2.360   7.579  10.282 -0.3387  0.2478 -0.0168
31120SOL    HW196858   2.429   7.513  10.280  0.2586  0.8728 -0.9623
31120SOL    HW296859   2.344   7.600  10.190 -0.0717  1.8752  0.2833
31121SOL     OW96860   4.732   7.127   2.320  0.5658 -0.2377 -0.5747
31121SOL    HW196861   4.654   7.163   2.278  0.2029  0.1366  0.3945
31121SOL    HW296862   4.709   7.121   2.412  0.5176 -3.2010 -0.6813
31122SOL     OW96863   3.260   4.971   8.180 -0.3044  0.3339 -0.7521
31122SOL    HW196864   3.223   5.057   8.200 -0.1375  0.0951  0.7127
31122SOL    HW296865   3.353   4.989   8.164 -0.6555  0.6877 -2.6215
31123SOL     OW96866   1.281   3.092   9.490  0.3495  0.4741 -0.1651
31123SOL    HW196867   1.366   3.135   9.501  0.0626  1.4992 -1.6632
31123SOL    HW296868   1.303   3.000   9.475  1.0960  0.4506  0.9421
31124SOL     OW96869   5.017   3.242   0.520 -0.0203 -0.1497 -0.3823
31124SOL    HW196870   4.931   3.241   0.563  1.0664 -1.0637  1.8899
31124SOL    HW296871   5.063   3.317   0.558  0.2150  0.3694 -1.6266
31125SOL     OW96872   8.602  11.003   1.372 -0.6284  0.3908 -0.3710
31125SOL    HW196873   8.573  10.923   1.329 -1.4661  0.5978 -0.2133
31125SOL    HW296874   8.670  11.038   1.315 -1.3780  0.4085 -1.2707
31126SOL     OW96875   4.568   4.021   9.194  0.2540  0.1641  0.6732
31126SOL    HW196876   4.606   4.050   9.111  0.2563 -1.3131  0.1314
31126SOL    HW296877   4.513   3.946   9.171 -0.1247  0.0194  1.9445
31127SOL     OW96878   6.474   9.731   3.517 -0.6094 -0.0647  0.1388
31127SOL    HW196879   6.463   9.652   3.569 -0.7723 -1.0494 -1.3294
31127SOL    HW296880   6.553   9.714   3.465 -0.8155  0.6091 -0.4064
31128SOL     OW96881   1.445   1.767   5.486  0.2422  0.0798 -0.6271
31128SOL    HW196882   1.377   1.759   5.420  0.0319  0.1844 -0.4234
31128SOL    HW296883   1.527   1.762   5.437  0.1460 -2.4933 -0.6439
31129SOL     OW96884  10.511   5.385  10.663 -0.3137  0.1093 -0.9677
31129SOL    HW196885  10.458   5.465  10.661 -2.7465 -1.3224  0.7606
31129SOL    HW296886  10.497   5.345  10.577  1.1749  1.6008 -1.9651
31130SOL     OW96887   3.667   1.067   1.094  0.0844 -0.3559  0.0412
31130SOL    HW196888   3.745   1.057   1.039  0.6580 -0.5524  0.8628
31130SOL    HW296889   3.702   1.084   1.181 -0.8057 -0.1084  0.3576
31131SOL     OW96890   3.199   1.534   5.897  0.0188  0.3212 -0.3937
31131SOL    HW196891   3.215   1.444   5.867  0.5662  0.5612 -0.8436
31131SOL    HW296892   3.133   1.568   5.836  1.4697  0.9635 -1.6697
31132SOL     OW96893   0.934   7.496   8.774  0.0421 -0.7909 -0.5532
31132SOL    HW196894   1.027   7.490   8.752  0.5742 -0.7833  1.4700
31132SOL    HW296895   0.915   7.590   8.767 -0.4275 -1.0042 -3.0400
31133SOL     OW96896   9.756   8.250   3.607 -0.6849 -0.2647 -0.0943
31133SOL    HW196897   9.719   8.172   3.566 -1.1841 -0.0626 -0.0377
31133SOL    HW296898   9.800   8.217   3.686  1.9071 -0.9125 -1.6817
31134SOL     OW96899   4.284   6.558   1.637  0.0234 -0.3338  0.1863
31134SOL    HW196900   4.352   6.613   1.599 -1.4705  1.1165 -0.4939
31134SOL    HW296901   4.294   6.474   1.592  1.6388 -0.3215  0.4474
31135SOL     OW96902   3.067   2.973  10.961 -0.2537 -0.1581  0.1009
31135SOL    HW196903   3.019   2.914  11.018  1.6304  0.2744  2.2849
31135SOL    HW296904   3.118   3.028  11.020 -1.0201  2.9425 -1.8571
31136SOL     OW96905   5.648   4.224   6.535  0.0700  0.1404 -0.1386
31136SOL    HW196906   5.602   4.189   6.611  1.4456 -1.3274  0.0802
31136SOL    HW296907   5.734   4.181   6.537  0.3005  0.3807 -2.2807
31137SOL     OW96908  10.018   6.033   0.079 -0.1643 -0.0813 -0.0636
31137SOL    HW196909  10.103   6.044   0.035 -0.2271 -1.0061 -0.4404
31137SOL    HW296910   9.961   5.998   0.011 -0.3948 -1.0709  0.6210
31138SOL     OW96911   8.970  10.546   7.786  0.4429  0.3512 -0.4537
31138SOL    HW196912   8.966  10.604   7.862 -0.5818 -0.0223 -0.1993
31138SOL    HW296913   8.878  10.536   7.760  0.5600 -1.3903 -0.3096
31139SOL     OW96914   6.125   0.075   8.953  0.1081  0.2160  0.2224
31139SOL    HW196915   6.185   0.084   9.027  0.9711 -0.3806 -0.3907
31139SOL    HW296916   6.108  -0.020   8.948 -1.6350  0.4433  0.9542
31140SOL     OW96917   6.500   6.481   6.160  0.0856 -0.1398 -0.7164
31140SOL    HW196918   6.565   6.425   6.204  0.0051  0.2095 -0.1430
31140SOL    HW296919   6.550   6.528   6.094  0.3420 -0.1647 -0.5421
31141SOL     OW96920   6.144   2.555   2.696  0.2474 -0.5340  0.0602
31141SOL    HW196921   6.097   2.528   2.775  0.1688 -1.0436 -0.1579
31141SOL    HW296922   6.077   2.598   2.643  0.8909  2.4918  1.5005
31142SOL     OW96923   5.522   8.191   1.181 -0.0541  0.1003  0.3134
31142SOL    HW196924   5.544   8.170   1.090  0.3690  0.3423  0.3602
31142SOL    HW296925   5.456   8.260   1.175  1.4919  1.6236  0.2018
31143SOL     OW96926   4.549   3.832   3.698  0.2897 -0.1453  0.2564
31143SOL    HW196927   4.554   3.769   3.770 -0.6360 -2.4385 -1.5538
31143SOL    HW296928   4.507   3.909   3.736  0.6411 -0.9243  2.3561
31144SOL     OW96929   2.399   8.637   8.923  0.7214  0.2619  0.2486
31144SOL    HW196930   2.316   8.590   8.912  0.4755  0.8222 -0.3387
31144SOL    HW296931   2.426   8.617   9.013 -0.3523  0.5661  0.6496
31145SOL     OW96932   6.318   1.539   3.545 -0.4274  0.0837  0.5662
31145SOL    HW196933   6.325   1.629   3.514 -0.0091 -0.1659 -0.0792
31145SOL    HW296934   6.235   1.508   3.508 -0.6990  0.2765  1.0000
31146SOL     OW96935   7.780   7.020   8.613 -0.2410  0.0638 -0.3006
31146SOL    HW196936   7.835   6.951   8.577  0.3085  0.2016  0.2597
31146SOL    HW296937   7.834   7.098   8.611  0.2789 -0.1732  1.9483
31147SOL     OW96938   6.091   9.656   5.189  0.4046  0.1457 -0.4527
31147SOL    HW196939   6.171   9.670   5.240 -0.0527  0.5245  0.1744
31147SOL    HW296940   6.058   9.571   5.217  1.1070 -0.4801 -1.4428
31148SOL     OW96941   8.652   9.654   5.611  0.3841  0.2182 -0.0046
31148SOL    HW196942   8.670   9.561   5.619  0.5843  0.1228 -1.3928
31148SOL    HW296943   8.569   9.658   5.563  0.8311  0.7498 -0.7566
31149SOL     OW96944   5.634   7.695   5.467 -0.0772 -0.0440  0.1490
31149SOL    HW196945   5.655   7.633   5.397  0.8022 -0.2255  0.5547
31149SOL    HW296946   5.713   7.749   5.475  0.8142 -1.5503  2.5936
31150SOL     OW96947   8.205   7.282  10.796 -0.2060  0.1824 -0.1031
31150SOL    HW196948   8.217   7.213  10.731  1.7408 -0.5190  0.9069
31150SOL    HW296949   8.281   7.340  10.784 -1.5270  1.8773 -0.5684
31151SOL     OW96950   7.870   7.693   4.655  0.3791  0.0295 -0.5272
31151SOL    HW196951   7.917   7.776   4.659  1.6029 -0.6582 -0.4952
31151SOL    HW296952   7.806   7.706   4.585  0.4611  1.0427 -0.4307
31152SOL     OW96953   0.999  10.175   2.520  0.3395 -0.1580  0.3263
31152SOL    HW196954   1.068  10.121   2.481  0.3978  0.2793 -0.1803
31152SOL    HW296955   0.932  10.112   2.547  0.3805 -0.4805 -0.3146
31153SOL     OW96956   5.074  10.834   6.118  0.3075 -0.2363  0.1415
31153SOL    HW196957   5.036  10.895   6.182 -0.0352 -0.9616  0.6470
31153SOL    HW296958   5.122  10.890   6.057 -0.5727  0.5999  0.1900
31154SOL     OW96959   4.030   1.013   9.339  0.1243 -0.1510  0.2602
31154SOL    HW196960   3.973   1.085   9.311  0.6284  0.2970  0.3671
31154SOL    HW296961   3.987   0.934   9.305  1.1308  0.4031 -2.5698
31155SOL     OW96962   7.629   5.175   7.442  0.1047  0.2804 -0.4682
31155SOL    HW196963   7.566   5.242   7.416  0.0959 -0.5050 -2.7242
31155SOL    HW296964   7.696   5.177   7.374  1.7741  0.0833  1.0967
31156SOL     OW96965   4.724   1.876   3.522  0.0913  0.2316 -0.2601
31156SOL    HW196966   4.696   1.964   3.546  1.8511  0.9522 -0.6739
31156SOL    HW296967   4.664   1.818   3.569 -0.6731  1.6347  0.5749
31157SOL     OW96968   9.876   6.318   5.037  0.3444  0.5943 -0.1787
31157SOL    HW196969   9.803   6.260   5.013  1.8152 -1.2065 -0.4593
31157SOL    HW296970   9.891   6.370   4.958  2.0733 -2.0224 -1.7469
31158SOL     OW96971   7.958  10.400   8.607 -0.6430  0.4578  0.1299
31158SOL    HW196972   7.937  10.370   8.695 -0.4208 -0.1615 -0.0261
31158SOL    HW296973   8.049  10.373   8.593 -0.5916  0.7877 -0.1900
31159SOL     OW96974   7.244   7.683   5.272 -0.7552  0.1877 -0.0117
31159SOL    HW196975   7.239   7.770   5.234 -1.5658 -0.0264 -0.4206
31159SOL    HW296976   7.259   7.698   5.365 -0.9866  0.7657 -0.0660
31160SOL     OW96977   7.426   6.416   8.069  0.0763  0.0374 -0.0757
31160SOL    HW196978   7.394   6.446   7.984  2.0210  1.5532 -0.3510
31160SOL    HW296979   7.517   6.392   8.052 -0.0625 -1.5272  1.2009
31161SOL     OW96980   3.390   6.743   9.708 -0.0548 -0.9341 -0.5542
31161SOL    HW196981   3.416   6.788   9.788 -2.7666 -0.8691  0.3905
31161SOL    HW296982   3.401   6.809   9.639  0.7318 -0.4672  0.0002
31162SOL     OW96983  10.075   6.897   3.901 -0.5597  0.2058 -0.3876
31162SOL    HW196984  10.050   6.983   3.934 -1.0349  0.0594 -0.3615
31162SOL    HW296985  10.170   6.901   3.893 -0.3175 -0.0817  1.8856
31163SOL     OW96986   6.373   0.634   8.716  0.4888  0.8533 -0.4770
31163SOL    HW196987   6.353   0.548   8.679  0.8404  1.5699 -2.4275
31163SOL    HW296988   6.465   0.629   8.741 -0.1293 -0.1358  1.8810
31164SOL     OW96989   9.623   3.858   8.104  0.4915 -0.5552 -1.1938
31164SOL    HW196990   9.608   3.764   8.114  1.6197 -0.8061 -1.7221
31164SOL    HW296991   9.543   3.890   8.063 -1.5997 -0.5695  2.4413
31165SOL     OW96992   6.341   3.759   8.793  0.7313 -0.0499 -0.1968
31165SOL    HW196993   6.262   3.789   8.837  0.4487 -1.2327  0.1464
31165SOL    HW296994   6.411   3.812   8.830  0.1735  0.6185 -0.0838
31166SOL     OW96995   2.177   2.072   5.196 -0.2132  0.0813 -0.1117
31166SOL    HW196996   2.262   2.051   5.158  0.5886  0.9453  1.1349
31166SOL    HW296997   2.134   2.127   5.131  0.6576  0.5760 -0.2769
31167SOL     OW96998   6.498   1.274   0.710 -0.0213  0.0847 -0.3621
31167SOL    HW196999   6.481   1.341   0.776  1.9691  0.3721 -0.0675
31167SOL    HW297000   6.490   1.319   0.627 -0.0971  0.3413 -0.2159
31168SOL     OW97001   8.685   6.645   2.036  0.6358  0.3293  0.1123
31168SOL    HW197002   8.694   6.694   2.118  0.0761 -1.2832  1.1852
31168SOL    HW297003   8.599   6.603   2.042  0.7067 -0.0529 -1.1904
31169SOL     OW97004   1.220   7.128   3.176 -0.0129 -0.0993  0.6078
31169SOL    HW197005   1.143   7.113   3.231  0.5258 -0.5304  1.2524
31169SOL    HW297006   1.292   7.086   3.222  0.9181  1.5698  0.7667
31170SOL     OW97007   8.383   6.665   6.747  0.2385  0.1273 -0.0771
31170SOL    HW197008   8.461   6.720   6.750 -1.0639  2.0962 -0.1548
31170SOL    HW297009   8.346   6.670   6.835 -1.6961  2.2617 -0.8988
31171SOL     OW97010   5.048   1.883   8.327 -0.4534  0.0638  0.2948
31171SOL    HW197011   5.009   1.890   8.415  0.3334 -0.1439  0.6696
31171SOL    HW297012   5.033   1.793   8.301 -2.4732  0.6272 -0.6565
31172SOL     OW97013   7.366   7.460   0.139 -0.2658  0.0675  0.6527
31172SOL    HW197014   7.440   7.459   0.078 -1.6376  1.4920 -1.1551
31172SOL    HW297015   7.318   7.379   0.120 -0.4774  0.3192  0.1110
31173SOL     OW97016   0.836  10.032   3.342  0.2236  0.4140  0.0036
31173SOL    HW197017   0.902  10.091   3.376  2.0586 -1.6362  0.2454
31173SOL    HW297018   0.868   9.944   3.365 -1.7189 -0.7508 -1.3847
31174SOL     OW97019  10.070   5.977   5.204  0.0834 -0.1182 -0.2792
31174SOL    HW197020  10.131   5.924   5.153 -0.6549  0.1538 -1.4958
31174SOL    HW297021   9.990   5.980   5.150 -0.1398  1.6100  0.0966
31175SOL     OW97022   4.843   1.072   3.207 -0.1592  0.2819  0.3244
31175SOL    HW197023   4.778   1.097   3.273 -1.0706 -1.5804  0.1874
31175SOL    HW297024   4.832   1.137   3.137 -2.2625 -0.2737  0.0738
31176SOL     OW97025   4.102   9.289  10.370 -0.1825 -0.2843 -0.1991
31176SOL    HW197026   4.193   9.300  10.345  0.1957 -2.0628  0.2538
31176SOL    HW297027   4.052   9.311  10.291  0.7379 -1.1171 -1.0305
31177SOL     OW97028   4.107  10.712   9.403  0.4083 -0.1035  0.2207
31177SOL    HW197029   4.196  10.722   9.436  1.0337 -1.9434 -0.7986
31177SOL    HW297030   4.113  10.642   9.338 -2.0499 -1.3198  1.1882
31178SOL     OW97031   7.668   1.330   2.963 -0.1607  0.3939 -0.7261
31178SOL    HW197032   7.704   1.394   2.901 -0.1701  0.5929 -0.5272
31178SOL    HW297033   7.700   1.246   2.932 -2.6065  0.1035 -2.8231
31179SOL     OW97034   0.454   3.180   5.145 -0.4557 -0.8036 -0.4803
31179SOL    HW197035   0.412   3.215   5.066 -3.2840 -0.0897  1.1982
31179SOL    HW297036   0.403   3.102   5.166  0.0289 -0.7886  0.8141
31180SOL     OW97037   1.532   4.005   6.365 -0.3622  0.1705  0.7116
31180SOL    HW197038   1.474   4.080   6.358  0.8153  1.0030 -0.9399
31180SOL    HW297039   1.616   4.042   6.394  0.0642 -0.5734  0.4745
31181SOL     OW97040   7.334   4.995   8.403  0.3309  0.0826 -0.3462
31181SOL    HW197041   7.430   4.990   8.399  0.3856  0.3660  0.3750
31181SOL    HW297042   7.317   5.071   8.459 -0.3191  0.1357 -0.6148
31182SOL     OW97043   4.578   6.985   6.076  0.0098 -0.1845 -0.0868
31182SOL    HW197044   4.535   7.010   5.995  0.3913 -0.7128 -0.4617
31182SOL    HW297045   4.535   6.902   6.100  0.4361 -0.4280 -0.1681
31183SOL     OW97046   7.780   8.464   6.530 -0.0543  0.2332  0.0199
31183SOL    HW197047   7.714   8.430   6.589 -0.2204  1.6957  0.7298
31183SOL    HW297048   7.730   8.510   6.462  0.1893  0.9166  0.2872
31184SOL     OW97049   8.167   0.043   9.652  0.0082 -0.1808 -0.2536
31184SOL    HW197050   8.248   0.015   9.609  0.2191  1.5585 -1.0941
31184SOL    HW297051   8.127   0.102   9.588 -0.2457  1.5957  1.4825
31185SOL     OW97052   2.350   4.978   9.674 -0.0413 -0.2249  0.4938
31185SOL    HW197053   2.380   5.050   9.619 -0.5711 -0.8441 -0.6275
31185SOL    HW297054   2.424   4.959   9.732  0.8807 -0.1719 -0.6310
31186SOL     OW97055   1.442   6.150   7.447  0.0637  0.8588 -0.4011
31186SOL    HW197056   1.524   6.130   7.492  0.9657  2.2647 -1.3303
31186SOL    HW297057   1.412   6.066   7.414  0.1530  0.0282  1.4844
31187SOL     OW97058   4.025   3.207   4.235 -0.6162  0.4888 -0.3229
31187SOL    HW197059   4.044   3.220   4.141  0.4057  1.1754 -0.0429
31187SOL    HW297060   4.047   3.115   4.251  2.7724  1.2036 -0.0351
31188SOL     OW97061   9.956   7.128   9.520 -0.2086  0.3301  0.2177
31188SOL    HW197062  10.020   7.076   9.568 -0.0940 -1.6278 -1.8632
31188SOL    HW297063   9.954   7.213   9.565 -1.0798 -1.6541  4.3664
31189SOL     OW97064   3.369   3.689   7.747  0.0157 -0.1994 -0.0308
31189SOL    HW197065   3.389   3.700   7.840 -0.2088 -3.1043  0.4752
31189SOL    HW297066   3.328   3.771   7.721  2.2546  1.6158  1.7754
31190SOL     OW97067   4.333   8.684   6.665  0.7420 -0.2444 -0.7811
31190SOL    HW197068   4.399   8.686   6.595 -0.4255  1.2409 -1.9134
31190SOL    HW297069   4.272   8.754   6.642  0.8980  1.1012  2.3473
31191SOL     OW97070   1.673   3.512   5.714 -0.0242  0.6174  0.6510
31191SOL    HW197071   1.639   3.599   5.735  0.4068  1.1869 -0.8659
31191SOL    HW297072   1.725   3.487   5.791 -1.2025  1.1226  1.6370
31192SOL     OW97073   8.491   2.048   6.574  0.9171 -0.4242  0.1935
31192SOL    HW197074   8.395   2.055   6.583  0.9023  0.1203 -0.3450
31192SOL    HW297075   8.521   2.139   6.569  1.4494 -0.6002  0.1392
31193SOL     OW97076   2.734   5.521   8.339  0.2033  0.3019 -0.1109
31193SOL    HW197077   2.711   5.437   8.378  1.2223 -0.4182 -0.9635
31193SOL    HW297078   2.737   5.503   8.245 -2.0126  1.9310 -0.5636
31194SOL     OW97079  10.508   2.828   4.258 -0.4512 -0.3111  0.0382
31194SOL    HW197080  10.509   2.832   4.162 -0.3970  0.4574  0.0653
31194SOL    HW297081  10.416   2.839   4.281 -0.6762 -1.9748  0.0330
31195SOL     OW97082   7.627   4.520   9.555  0.7400 -0.0434  0.3073
31195SOL    HW197083   7.584   4.536   9.471  0.5956  0.8370  0.5389
31195SOL    HW297084   7.711   4.481   9.531  1.0596  0.9649 -0.3108
31196SOL     OW97085   7.313   0.684   2.356  0.6846  0.3322 -0.0358
31196SOL    HW197086   7.275   0.702   2.442 -3.1031 -0.5632 -1.3421
31196SOL    HW297087   7.330   0.590   2.357  1.4758  0.4704 -0.0001
31197SOL     OW97088   0.912   0.695  10.095  0.2581 -0.1257  0.1570
31197SOL    HW197089   0.848   0.645  10.043  0.6718 -0.0727 -0.4210
31197SOL    HW297090   0.983   0.714  10.033 -0.2574  1.8926  0.1409
31198SOL     OW97091   6.978  10.309   4.998  0.2723 -0.1886  0.3869
31198SOL    HW197092   6.926  10.231   4.981 -1.2751  0.8642  0.0822
31198SOL    HW297093   6.930  10.356   5.065  0.9557  0.7138  0.2663
31199SOL     OW97094   5.669   2.797   9.981  0.8807 -0.3554 -0.1793
31199SOL    HW197095   5.583   2.784   9.941  0.6821 -0.5486  0.2938
31199SOL    HW297096   5.714   2.860   9.924  0.8585 -1.1214 -1.0657
31200SOL     OW97097   2.102   4.496   2.960  0.6140 -0.1023  0.1810
31200SOL    HW197098   2.161   4.442   3.012 -0.0268  0.8096  1.9429
31200SOL    HW297099   2.070   4.562   3.021  1.2573  2.2209 -1.8231
31201SOL     OW97100  10.669   5.902   1.154 -0.0027 -0.0946  0.2860
31201SOL    HW197101  10.610   5.934   1.223  1.0481 -0.5773  1.4587
31201SOL    HW297102  10.612   5.882   1.081 -0.9147  2.9372  0.0153
31202SOL     OW97103   1.870   8.493  10.565  0.3275 -0.0313 -0.1414
31202SOL    HW197104   1.815   8.531  10.634  3.4635 -0.1773  2.6961
31202SOL    HW297105   1.874   8.560  10.497  0.0449  1.7525  1.5339
31203SOL     OW97106   8.889   7.014   3.186 -0.1902 -0.8711 -0.1952
31203SOL    HW197107   8.839   7.025   3.267 -0.0204  0.5373 -0.2603
31203SOL    HW297108   8.970   6.971   3.214 -0.8156 -1.8976  0.1143
31204SOL     OW97109   7.470   4.283   3.487  0.1461  0.2195 -0.0780
31204SOL    HW197110   7.558   4.278   3.449  0.0770  1.9795 -0.5675
31204SOL    HW297111   7.421   4.214   3.444  0.7012  0.6724 -1.4917
31205SOL     OW97112   1.120   1.486   1.573 -0.2430  0.7370 -0.2707
31205SOL    HW197113   1.098   1.393   1.576  0.6769  0.5076 -0.4122
31205SOL    HW297114   1.062   1.527   1.637 -0.6542  0.0702 -0.2113
31206SOL     OW97115   4.192   2.347   9.235  0.0165  0.4991  0.3996
31206SOL    HW197116   4.127   2.399   9.189  0.2280  2.6472  2.3786
31206SOL    HW297117   4.263   2.408   9.253  1.2979 -1.0609  0.8776
31207SOL     OW97118   3.928   3.434  10.855 -0.1150  0.0983  0.1359
31207SOL    HW197119   3.911   3.526  10.876  1.8412  0.1147  2.0855
31207SOL    HW297120   3.871   3.385  10.914 -0.3414  0.0671 -0.1083
31208SOL     OW97121   0.501   4.501   0.837  0.0370  0.0049 -0.0130
31208SOL    HW197122   0.577   4.462   0.792  0.8006  0.3285  0.9497
31208SOL    HW297123   0.425   4.469   0.788  0.7435 -1.1128 -0.4283
31209SOL     OW97124   8.044   3.677   4.852  0.3596 -0.0255  0.1836
31209SOL    HW197125   7.984   3.684   4.926 -0.8437 -1.5344 -0.6219
31209SOL    HW297126   8.131   3.682   4.892 -0.1803  2.8409  1.3098
31210SOL     OW97127  10.401  10.550   6.977  0.1709 -0.1589  0.1862
31210SOL    HW197128  10.360  10.486   7.036  0.2341  0.5976  1.0601
31210SOL    HW297129  10.393  10.510   6.890 -0.8457 -0.8239  0.5672
31211SOL     OW97130   8.708   9.968   0.266  0.8767  0.2416 -0.0060
31211SOL    HW197131   8.616   9.956   0.243  0.6057 -0.2076  1.1971
31211SOL    HW297132   8.757   9.947   0.186  0.0031 -1.1066 -0.2185
31212SOL     OW97133   3.229   1.997   0.059  0.0787  0.3899 -0.4089
31212SOL    HW197134   3.318   1.965   0.042 -0.2850 -2.1651  1.7591
31212SOL    HW297135   3.241   2.070   0.120  0.7041 -1.9422  2.4534
31213SOL     OW97136   2.788   4.870   8.799 -0.3700  0.0532 -0.2521
31213SOL    HW197137   2.784   4.918   8.717 -0.3292  0.8745  0.2179
31213SOL    HW297138   2.698   4.869   8.832 -0.2366  0.5114  0.1343
31214SOL     OW97139  10.991   7.754   2.877  0.6607  0.8148  0.4966
31214SOL    HW197140  11.085   7.769   2.888  0.7154  1.1443 -0.3963
31214SOL    HW297141  10.950   7.835   2.905  0.8615  2.1132 -2.5892
31215SOL     OW97142   0.059   5.108   7.110  0.1881  0.6712 -0.0677
31215SOL    HW197143   0.033   5.181   7.053 -2.0243 -0.6613 -0.8945
31215SOL    HW297144   0.148   5.088   7.084 -0.5856  0.4046 -2.8180
31216SOL     OW97145   5.197   4.802  10.825  0.0610 -0.0260  0.2284
31216SOL    HW197146   5.116   4.847  10.799 -0.7056 -1.3860  0.1839
31216SOL    HW297147   5.260   4.825  10.756 -0.1463  1.3676  0.4728
31217SOL     OW97148   0.104   9.341   9.824 -0.4102 -0.0867 -0.5433
31217SOL    HW197149   0.068   9.428   9.811  0.7705  0.3984 -0.7106
31217SOL    HW297150   0.088   9.321   9.917  1.8016  1.5338  0.2700
31218SOL     OW97151   9.471   5.565   4.140  0.3193  0.2594  0.4646
31218SOL    HW197152   9.464   5.484   4.090  0.1027  0.5125  0.0729
31218SOL    HW297153   9.521   5.542   4.218  0.3831 -0.2155  0.2841
31219SOL     OW97154   6.843   3.032  10.552 -0.8520  0.0852 -0.4092
31219SOL    HW197155   6.915   3.083  10.590 -1.8220  0.5718  0.8728
31219SOL    HW297156   6.869   2.940  10.566  0.5379  0.1863 -2.0149
31220SOL     OW97157   7.582   0.820   7.220  0.1520 -0.1014 -0.2739
31220SOL    HW197158   7.609   0.874   7.146  0.3098  0.4300  0.1685
31220SOL    HW297159   7.561   0.883   7.289 -0.6226 -0.5679 -0.0745
31221SOL     OW97160   7.577   4.053   2.007  0.6346  0.1970 -0.3021
31221SOL    HW197161   7.524   4.035   2.084 -0.7140  1.8366 -0.7977
31221SOL    HW297162   7.647   4.111   2.039 -0.0420  1.0433 -0.3313
31222SOL     OW97163   0.725   6.097   5.387 -0.4519 -0.1220  0.3725
31222SOL    HW197164   0.716   6.134   5.474  2.8510  1.0231  0.3846
31222SOL    HW297165   0.738   6.173   5.330  1.7291 -0.9533 -0.3567
31223SOL     OW97166   0.608  10.115   6.928 -0.2944  0.2191 -0.0696
31223SOL    HW197167   0.533  10.147   6.879 -0.6936 -1.9638 -0.9751
31223SOL    HW297168   0.592  10.144   7.018 -2.3653 -0.4478 -0.1881
31224SOL     OW97169   8.055   8.051   9.361 -0.1091 -0.6541  0.3767
31224SOL    HW197170   8.119   8.103   9.312 -2.0449  2.6477  1.0601
31224SOL    HW297171   7.999   8.012   9.294 -0.2380  0.4041 -0.1499
31225SOL     OW97172   8.209   5.952   8.080  0.1030 -0.2790 -0.4741
31225SOL    HW197173   8.178   6.020   8.139 -1.1300 -0.5431 -0.7889
31225SOL    HW297174   8.290   5.920   8.120 -0.2249  0.1748  0.5803
31226SOL     OW97175   2.690   0.068   4.040  0.1770  0.6700 -0.2436
31226SOL    HW197176   2.643  -0.010   4.011 -1.0682  0.6125  1.7552
31226SOL    HW297177   2.766   0.035   4.088 -0.3758  0.6502  0.6439
31227SOL     OW97178   2.736   3.732   5.059 -0.7383  0.2411 -0.3586
31227SOL    HW197179   2.667   3.797   5.058 -0.8338  0.1403 -0.3538
31227SOL    HW297180   2.746   3.706   4.968 -0.9475  0.0023 -0.3135
31228SOL     OW97181   3.186   7.466   6.944  0.1650 -0.2895 -0.3357
31228SOL    HW197182   3.245   7.536   6.914  0.0156 -0.2936 -0.6406
31228SOL    HW297183   3.200   7.463   7.039  1.1468 -0.7389 -0.4829
31229SOL     OW97184   0.620   7.408   6.133  0.1119  0.0964  0.5949
31229SOL    HW197185   0.587   7.331   6.180 -1.8280 -0.0213 -0.8467
31229SOL    HW297186   0.575   7.482   6.174  1.1058  0.3812  1.2148
31230SOL     OW97187   2.000   8.616   3.093 -0.6242 -0.3382  0.1343
31230SOL    HW197188   2.093   8.594   3.097 -0.8740 -1.5250 -0.1702
31230SOL    HW297189   1.993   8.697   3.143  0.9527  1.1985 -1.9402
31231SOL     OW97190   4.764   9.181   9.844 -0.0380 -0.4912 -0.2235
31231SOL    HW197191   4.786   9.227   9.762 -1.2950 -0.5823 -0.6262
31231SOL    HW297192   4.679   9.142   9.828 -0.8386  0.4343  1.5211
31232SOL     OW97193  10.692   4.824   0.047 -0.4653 -0.0071  0.0773
31232SOL    HW197194  10.653   4.772  -0.023  0.4988 -0.7180  0.0407
31232SOL    HW297195  10.631   4.897   0.060 -0.3929  0.4877 -1.9171
31233SOL     OW97196   0.630   7.568   3.983 -0.4532  0.9446  0.2322
31233SOL    HW197197   0.642   7.500   4.050  1.4274  0.7492 -0.2277
31233SOL    HW297198   0.658   7.649   4.026 -1.1378  1.1640  0.2759
31234SOL     OW97199   4.013   1.487   9.566 -0.4098  0.1160  0.3938
31234SOL    HW197200   3.988   1.521   9.652  0.5646 -4.8122  3.0413
31234SOL    HW297201   4.106   1.465   9.576  0.3577  1.4420 -2.8335
31235SOL     OW97202   2.544   5.311   1.319 -0.0866  0.2259 -0.1585
31235SOL    HW197203   2.477   5.272   1.374 -1.3825  0.1364 -1.7358
31235SOL    HW297204   2.608   5.347   1.380 -0.9806 -0.6978  1.3653
31236SOL     OW97205   2.892   2.028  10.931  0.3954 -0.1133 -0.2642
31236SOL    HW197206   2.871   2.010  10.839 -0.0066 -1.1967  0.0293
31236SOL    HW297207   2.814   2.000  10.979  0.2457  1.2596  0.3437
31237SOL     OW97208   5.668   7.782   5.885 -0.1100  0.5203  0.1318
31237SOL    HW197209   5.680   7.703   5.832 -0.5797  0.1193  0.6140
31237SOL    HW297210   5.750   7.829   5.876  0.1723 -0.0174 -0.1758
31238SOL     OW97211   4.696   1.442   2.810 -0.0110 -1.1067 -0.5879
31238SOL    HW197212   4.644   1.480   2.881  1.3784 -0.5813  0.1926
31238SOL    HW297213   4.662   1.483   2.731  1.7311  2.3327  0.2239
31239SOL     OW97214   9.851   7.424   9.921  0.1466  0.1698  0.2505
31239SOL    HW197215   9.777   7.429   9.982 -0.0242 -1.4157  0.2137
31239SOL    HW297216   9.928   7.425   9.977 -0.0227 -2.0348  0.6176
31240SOL     OW97217   7.743   8.355   9.707 -0.5997 -0.6917 -0.3536
31240SOL    HW197218   7.665   8.411   9.710 -0.5773 -0.6133 -1.0963
31240SOL    HW297219   7.717   8.282   9.652  0.2421 -0.0406 -1.6620
31241SOL     OW97220   5.254   9.686   1.165  0.1294 -0.4407  0.0418
31241SOL    HW197221   5.261   9.650   1.254  0.5185  0.1259  0.2445
31241SOL    HW297222   5.164   9.716   1.159  1.0516  3.1888  1.7072
31242SOL     OW97223   4.044   5.540   5.355  0.1405 -0.1026 -0.0821
31242SOL    HW197224   4.073   5.467   5.301  2.3149 -0.5502  1.5511
31242SOL    HW297225   4.062   5.618   5.302 -3.4915 -0.6273 -2.4194
31243SOL     OW97226   5.710   9.025   0.508  0.2971  0.0867 -0.0468
31243SOL    HW197227   5.692   9.095   0.444  0.1193  0.1184  0.0374
31243SOL    HW297228   5.640   8.962   0.494  0.4797 -0.0943 -0.1479
31244SOL     OW97229   1.107   6.499   8.684  0.9387 -0.3036  0.2251
31244SOL    HW197230   1.140   6.456   8.763 -0.2347 -0.1345  0.8304
31244SOL    HW297231   1.101   6.591   8.707 -1.3232 -0.5023  0.6703
31245SOL     OW97232   5.520   1.658   6.481  0.5101  0.1033 -0.1692
31245SOL    HW197233   5.427   1.643   6.500  0.6260 -1.1573 -0.4473
31245SOL    HW297234   5.540   1.742   6.522 -1.0787  1.0713 -1.2412
31246SOL     OW97235   9.816   1.241  10.792 -0.2208  0.2555 -0.7554
31246SOL    HW197236   9.908   1.216  10.786 -0.4627 -1.0242  0.4646
31246SOL    HW297237   9.817   1.330  10.828  0.5222  0.1418 -0.4927
31247SOL     OW97238   3.576   4.910   6.853  0.4830  0.0909 -0.2571
31247SOL    HW197239   3.550   4.975   6.919  0.6818  1.2575 -1.2777
31247SOL    HW297240   3.517   4.927   6.779  0.1357 -1.3146 -0.3322
31248SOL     OW97241   2.599   5.760   6.480  0.1234  0.2787 -0.3296
31248SOL    HW197242   2.507   5.732   6.483 -0.2935  1.6163 -0.1376
31248SOL    HW297243   2.598   5.844   6.434  1.3111  0.1228 -0.6858
31249SOL     OW97244   1.834   0.736   5.125  0.5304  0.1024  0.1886
31249SOL    HW197245   1.860   0.822   5.159  0.0849 -0.2072  1.3874
31249SOL    HW297246   1.741   0.746   5.104  0.2276 -0.3395  1.2577
31250SOL     OW97247   7.105   7.245   2.648  0.7490 -0.3547 -0.3257
31250SOL    HW197248   7.010   7.255   2.643  0.8852  0.6578 -1.5075
31250SOL    HW297249   7.123   7.162   2.604  0.4378 -0.2956 -0.5711
31251SOL     OW97250   8.840   2.433   3.574  0.0243 -0.3879  0.1068
31251SOL    HW197251   8.878   2.480   3.499 -0.2755 -1.1250 -0.5199
31251SOL    HW297252   8.911   2.377   3.605 -0.3078 -1.2619 -0.6418
31252SOL     OW97253   4.160   5.540   4.541  0.0668  0.2205 -0.4017
31252SOL    HW197254   4.151   5.580   4.628  0.8768 -0.7563  0.1558
31252SOL    HW297255   4.232   5.478   4.552 -0.3390 -0.4636 -1.5856
31253SOL     OW97256   9.479   2.186   4.636 -0.2166  0.2391  0.6804
31253SOL    HW197257   9.516   2.110   4.591 -0.8385  0.2468  0.1411
31253SOL    HW297258   9.416   2.149   4.697  2.2708  0.0269  3.3561
31254SOL     OW97259   9.437  10.385   2.926  0.1052  0.3185  0.4937
31254SOL    HW197260   9.370  10.357   2.989 -0.4015 -1.2076 -0.6638
31254SOL    HW297261   9.477  10.303   2.897 -1.0598  0.7491 -2.6786
31255SOL     OW97262   5.852   1.940   2.756 -0.2072  0.6848 -0.2573
31255SOL    HW197263   5.867   2.032   2.735  0.9554  0.4121 -0.7193
31255SOL    HW297264   5.937   1.909   2.788 -0.4145 -0.3676 -0.6879
31256SOL     OW97265  10.131   1.299   7.377 -0.3672 -0.0086 -0.0758
31256SOL    HW197266  10.081   1.241   7.321  0.8670  0.4881 -1.7927
31256SOL    HW297267  10.065   1.351   7.424 -1.4421 -1.0197 -0.4293
31257SOL     OW97268   3.477   5.004   6.098 -0.1460 -0.1541  0.4102
31257SOL    HW197269   3.558   4.997   6.048 -0.2036  0.5744  0.2006
31257SOL    HW297270   3.473   5.096   6.124  0.0264 -0.5666  2.0143
31258SOL     OW97271  10.296  10.343   6.489 -0.5518  0.1842  0.2986
31258SOL    HW197272  10.203  10.323   6.487 -0.4167 -0.4623  0.0541
31258SOL    HW297273  10.339  10.257   6.486  0.0480  0.4849  0.0468
31259SOL     OW97274   5.151   5.658   6.417  0.3841 -0.2195  0.2847
31259SOL    HW197275   5.182   5.692   6.501  0.5889  0.4211 -0.0373
31259SOL    HW297276   5.084   5.594   6.440 -0.6903  1.0730  0.9184
31260SOL     OW97277   7.881   7.378   3.277 -0.4511  0.3422 -0.0181
31260SOL    HW197278   7.835   7.340   3.202 -0.1888  0.9714 -0.5008
31260SOL    HW297279   7.815   7.431   3.321 -1.0043 -1.1367  1.0333
31261SOL     OW97280   9.483   3.136   7.261  0.3305 -0.2252 -0.7189
31261SOL    HW197281   9.394   3.147   7.227  1.0103 -0.2881 -2.6114
31261SOL    HW297282   9.521   3.066   7.208  1.2147 -0.8638  0.7104
31262SOL     OW97283   1.170   7.479   8.368 -0.3983 -0.0151 -0.1750
31262SOL    HW197284   1.124   7.395   8.373  0.0057 -0.2277  0.0016
31262SOL    HW297285   1.249   7.460   8.319 -1.5220  0.8138 -2.4483
31263SOL     OW97286   9.041   2.811  10.440 -0.1807 -0.8383  0.5848
31263SOL    HW197287   9.001   2.795  10.354 -0.6359 -2.1264  1.0170
31263SOL    HW297288   9.123   2.856  10.420  0.3997 -2.3505 -0.6383
31264SOL     OW97289   4.632   2.558   6.203  0.2957  0.2269  0.8088
31264SOL    HW197290   4.603   2.632   6.256 -1.0066  1.1830 -1.1224
31264SOL    HW297291   4.555   2.502   6.195  0.6284 -0.1764  0.3730
31265SOL     OW97292  10.106   4.467   9.427  0.3421 -0.0151  0.4945
31265SOL    HW197293  10.118   4.469   9.522 -0.5178 -1.3873  0.6572
31265SOL    HW297294  10.034   4.405   9.413 -0.4701  1.1729 -0.9617
31266SOL     OW97295   6.505   9.303   8.933 -1.3284  0.2676  0.7832
31266SOL    HW197296   6.570   9.247   8.891 -3.5256 -2.3142  0.5748
31266SOL    HW297297   6.482   9.367   8.867 -2.5777 -1.9101 -1.0215
31267SOL     OW97298   4.354   6.724   8.471 -0.2621  0.3387  0.0417
31267SOL    HW197299   4.270   6.720   8.516  0.7805 -5.3505  2.3347
31267SOL    HW297300   4.340   6.677   8.389  0.7354 -1.6055  0.9170
31268SOL     OW97301  10.308   2.058   0.562  0.8791 -0.7328 -0.4640
31268SOL    HW197302  10.360   2.027   0.636 -0.4425 -0.4082  0.6460
31268SOL    HW297303  10.267   2.139   0.593 -1.8938 -2.0008 -0.4855
31269SOL     OW97304   2.383   2.339   5.374 -0.1003 -0.5410  0.1287
31269SOL    HW197305   2.423   2.405   5.316  0.6216 -0.5539  0.6133
31269SOL    HW297306   2.302   2.314   5.328  0.1467 -0.0921 -0.5727
31270SOL     OW97307   1.405   0.658  10.282  0.2731  0.6474 -0.2827
31270SOL    HW197308   1.360   0.584  10.241  1.0689  1.4848 -2.8053
31270SOL    HW297309   1.349   0.733  10.265  0.7516  1.0585 -0.0521
31271SOL     OW97310   5.593   6.091   7.124  0.3502  0.1475 -0.1754
31271SOL    HW197311   5.621   6.081   7.215  0.8025 -0.9101 -0.4151
31271SOL    HW297312   5.665   6.140   7.083 -0.4615  1.8492  0.3040
31272SOL     OW97313   5.039  10.076   6.437 -0.4629 -0.2527  0.4964
31272SOL    HW197314   5.078  10.122   6.512  1.0834 -1.3290  0.4014
31272SOL    HW297315   5.048   9.983   6.458 -0.6404 -0.5592 -0.6946
31273SOL     OW97316   4.265   2.683   0.937  0.0669 -0.0979 -0.2012
31273SOL    HW197317   4.309   2.758   0.977  1.6664 -1.2430  0.2795
31273SOL    HW297318   4.270   2.614   1.003  0.0408 -1.1056 -1.2094
31274SOL     OW97319   2.362   0.855   2.440  0.3815  0.3562  0.7552
31274SOL    HW197320   2.423   0.800   2.489  0.2903  0.2573  0.7605
31274SOL    HW297321   2.291   0.795   2.415  0.2662  0.4780  0.7866
31275SOL     OW97322   9.683   3.272   0.816  0.3033  0.2527  0.0726
31275SOL    HW197323   9.695   3.288   0.910  1.4199  1.1759 -0.2143
31275SOL    HW297324   9.595   3.305   0.798 -0.3264 -0.8488  0.9762
31276SOL     OW97325   8.901   8.267   1.629  0.2933 -0.5505 -0.3916
31276SOL    HW197326   8.809   8.248   1.609  0.4085 -0.9341 -0.5651
31276SOL    HW297327   8.900   8.296   1.720  0.2799 -2.9254  0.4422
31277SOL     OW97328   5.149   6.275   0.097 -0.0507 -0.0213 -0.1146
31277SOL    HW197329   5.232   6.313   0.125  0.6242 -0.6927 -1.1126
31277SOL    HW297330   5.111   6.341   0.038  0.0117  0.0806 -0.0394
31278SOL     OW97331   8.392   4.787   0.603 -0.1007  0.1437  0.3301
31278SOL    HW197332   8.409   4.721   0.670 -1.2970 -0.7392 -0.2003
31278SOL    HW297333   8.328   4.846   0.642 -0.3823 -0.0518  0.1655
31279SOL     OW97334   5.434  10.682   5.972 -0.2436 -0.0274  0.0514
31279SOL    HW197335   5.382  10.607   5.944  0.1291 -0.3405  0.1917
31279SOL    HW297336   5.439  10.738   5.894 -1.8388  0.6185  0.3817
31280SOL     OW97337   8.210   4.845   8.216  0.0311  0.2797 -0.2570
31280SOL    HW197338   8.170   4.851   8.303  1.8448  0.5781  0.6056
31280SOL    HW297339   8.237   4.934   8.195  0.1152  0.1171 -0.8687
31281SOL     OW97340   8.547  10.472   2.695  0.0338  0.2144  0.6137
31281SOL    HW197341   8.614  10.538   2.711  0.9105 -0.6478  0.5304
31281SOL    HW297342   8.492  10.474   2.774 -1.2163  2.4580 -0.1884
31282SOL     OW97343   2.605   1.131   2.001 -0.4589 -0.3593 -0.0562
31282SOL    HW197344   2.587   1.143   1.908  0.1781  0.1897 -0.1230
31282SOL    HW297345   2.555   1.053   2.026 -0.6305 -0.5144 -0.8560
31283SOL     OW97346   3.508   1.443   7.340 -0.0847 -0.0595 -0.2954
31283SOL    HW197347   3.521   1.407   7.428  0.2339  0.0583 -0.2927
31283SOL    HW297348   3.548   1.530   7.343  1.0547 -0.5415 -0.9165
31284SOL     OW97349   8.292   9.285  10.794 -0.2354  0.6973 -0.4617
31284SOL    HW197350   8.252   9.216  10.847  0.1237  0.1540 -0.8929
31284SOL    HW297351   8.384   9.284  10.821 -0.3473  1.4298 -0.0218
31285SOL     OW97352   9.884   1.780   9.839 -0.3729  0.4795  0.4021
31285SOL    HW197353   9.824   1.829   9.783 -0.1390 -0.0113 -0.2940
31285SOL    HW297354   9.926   1.847   9.893  0.4518  1.1655 -1.0157
31286SOL     OW97355   4.536   1.466   5.265 -0.6344  0.2415 -0.2049
31286SOL    HW197356   4.597   1.502   5.329 -0.3020  0.6519 -0.7449
31286SOL    HW297357   4.501   1.543   5.219  0.7335 -0.1243 -1.9659
31287SOL     OW97358   5.254   6.376   1.326 -0.4300  0.2535 -0.4431
31287SOL    HW197359   5.349   6.378   1.320 -0.3615 -0.1500  0.3861
31287SOL    HW297360   5.225   6.453   1.276  0.3505  0.7351 -0.1706
31288SOL     OW97361   4.808   1.539   1.066 -0.1298  0.1193 -0.0408
31288SOL    HW197362   4.886   1.591   1.088  1.1317 -1.9693  0.6927
31288SOL    HW297363   4.801   1.545   0.971  0.4478  0.9551 -0.0431
31289SOL     OW97364   3.674   3.171   5.063  0.0943 -0.2705 -0.3776
31289SOL    HW197365   3.751   3.226   5.051 -1.2931  1.5477 -1.4147
31289SOL    HW297366   3.618   3.192   4.988 -1.3601 -1.6348  0.2765
31290SOL     OW97367   5.644   3.130   2.895  0.0467 -0.2576  0.9129
31290SOL    HW197368   5.669   3.220   2.915 -0.5500 -0.5597  3.2469
31290SOL    HW297369   5.549   3.135   2.878  0.0202 -0.4387  1.0095
31291SOL     OW97370   9.971  10.526   5.377 -0.0097  0.0478  0.0306
31291SOL    HW197371  10.042  10.587   5.362  0.2020 -0.3454 -0.6309
31291SOL    HW297372   9.918  10.530   5.297 -0.3767 -0.1271  0.2576
31292SOL     OW97373   9.226  10.020   4.591  0.2937 -0.0028  0.5166
31292SOL    HW197374   9.240  10.030   4.685  1.7316  0.7938  0.2354
31292SOL    HW297375   9.313  10.013   4.554 -0.2034  0.8042 -0.8803
31293SOL     OW97376   7.230   5.309   3.261  0.1328  0.1533  0.0562
31293SOL    HW197377   7.217   5.255   3.183  0.0391 -0.9194  0.8041
31293SOL    HW297378   7.190   5.393   3.238  0.3989 -0.0314 -1.1676
31294SOL     OW97379  10.988   5.818   0.554  0.8609 -0.3695 -0.3872
31294SOL    HW197380  11.074   5.778   0.560  0.5246 -1.4142 -1.8844
31294SOL    HW297381  10.938   5.759   0.496 -0.7682  0.3409  0.2272
31295SOL     OW97382   5.965   2.548   8.394 -0.5655 -0.4153 -0.1591
31295SOL    HW197383   6.045   2.578   8.436  0.6968 -1.0957 -1.9706
31295SOL    HW297384   5.898   2.611   8.421  0.5325  0.0903  1.4881
31296SOL     OW97385   8.100   0.208   3.114 -0.1261 -0.0008 -0.0813
31296SOL    HW197386   8.098   0.287   3.061 -1.4754  0.7539  1.0348
31296SOL    HW297387   8.012   0.201   3.150  0.4169 -1.1480  1.0935
31297SOL     OW97388   1.947   2.583   9.396 -0.3492 -0.0261  0.1651
31297SOL    HW197389   1.973   2.523   9.325  0.2882  0.0195  0.3561
31297SOL    HW297390   1.852   2.590   9.387 -0.0902  2.0104 -2.3480
31298SOL     OW97391   9.005   9.100   1.457 -0.4283 -0.3917 -0.4657
31298SOL    HW197392   9.077   9.069   1.512 -0.5970  1.4108  0.8526
31298SOL    HW297393   9.046   9.158   1.393 -0.4888 -0.9268 -1.0012
31299SOL     OW97394   5.747   6.772   2.723 -0.4543  0.0295 -0.7127
31299SOL    HW197395   5.749   6.678   2.702 -0.1800 -0.4862  1.3939
31299SOL    HW297396   5.768   6.776   2.816 -2.1776  2.0740 -0.3349
31300SOL     OW97397   3.209  10.114   3.910  0.4544  0.0732 -0.3526
31300SOL    HW197398   3.210  10.188   3.850  3.5953  2.9648  2.7727
31300SOL    HW297399   3.145  10.139   3.977  2.3229  0.7002  1.3121
31301SOL     OW97400   2.452   4.741   0.033 -0.0152 -0.4083 -0.0823
31301SOL    HW197401   2.360   4.736   0.059 -0.7202  1.8718 -1.8305
31301SOL    HW297402   2.456   4.695  -0.051  0.6660 -1.3211  0.4367
31302SOL     OW97403   0.605   4.466  10.945  0.4573 -0.3642  0.0286
31302SOL    HW197404   0.568   4.401  11.005 -1.4521 -0.1863 -0.8880
31302SOL    HW297405   0.683   4.499  10.990  0.1475 -1.5929  1.5413
31303SOL     OW97406   0.307   5.170   2.272 -0.2049  0.1365  0.7571
31303SOL    HW197407   0.228   5.119   2.253 -0.2541 -0.1206  1.6046
31303SOL    HW297408   0.275   5.259   2.287  0.0152  0.7778 -2.0487
31304SOL     OW97409  10.193   4.407   0.120 -0.1507 -0.3394 -0.0450
31304SOL    HW197410  10.123   4.352   0.083  0.3072 -1.0666  0.1442
31304SOL    HW297411  10.268   4.348   0.127  0.1849  0.1658  0.7188
31305SOL     OW97412   5.424   7.023   5.609 -0.0679 -0.0299  0.2399
31305SOL    HW197413   5.498   6.963   5.608 -1.0690 -1.3015  0.6378
31305SOL    HW297414   5.363   6.987   5.546 -0.2882  1.1209 -0.2365
31306SOL     OW97415   5.619  10.408   6.844 -0.4020 -0.5489 -0.1307
31306SOL    HW197416   5.639  10.321   6.880 -2.5343 -0.3510  1.7871
31306SOL    HW297417   5.621  10.395   6.749 -0.5156 -2.6763  0.0934
31307SOL     OW97418  10.817   0.228   6.633  0.0668 -0.0632 -0.0629
31307SOL    HW197419  10.802   0.201   6.542 -1.3119 -0.3724  0.2344
31307SOL    HW297420  10.837   0.322   6.626  1.2314 -0.3541 -0.7834
31308SOL     OW97421   7.149   4.696   9.239  0.3053 -0.5609  0.7537
31308SOL    HW197422   7.124   4.608   9.268  0.9964 -0.5230  1.4800
31308SOL    HW297423   7.127   4.753   9.313 -0.9894  0.0374 -0.0464
31309SOL     OW97424   9.176   8.370   8.126  0.1044 -0.1505  0.0392
31309SOL    HW197425   9.256   8.421   8.140  1.8173 -2.2184 -1.4618
31309SOL    HW297426   9.169   8.315   8.204 -0.4502  0.7214  0.6190
31310SOL     OW97427   2.527   8.758  10.720 -0.0662  0.1206  0.7392
31310SOL    HW197428   2.565   8.845  10.710 -0.4413  0.4146  1.6926
31310SOL    HW297429   2.466   8.750  10.646  0.4883  0.3791  0.2497
31311SOL     OW97430   9.818   7.084   4.775  0.1036 -0.4952  0.3651
31311SOL    HW197431   9.780   7.121   4.696  0.8767  0.0982  0.2557
31311SOL    HW297432   9.910   7.070   4.753  0.0139 -1.6879  0.6955
31312SOL     OW97433   4.589   9.748   3.518  0.5608  0.4573  0.1966
31312SOL    HW197434   4.509   9.704   3.549  1.4484 -1.0603  0.4429
31312SOL    HW297435   4.579   9.838   3.548 -1.9669  0.8488 -1.4929
31313SOL     OW97436   7.836   7.239   2.264 -0.4040 -0.3109 -0.1381
31313SOL    HW197437   7.741   7.235   2.259 -0.3966 -0.3573 -0.2383
31313SOL    HW297438   7.865   7.149   2.245 -0.2977 -0.0946 -1.0186
31314SOL     OW97439   8.035   4.514   6.568  0.2393  0.4035 -0.0264
31314SOL    HW197440   8.022   4.494   6.661 -0.2277  1.5564  0.1673
31314SOL    HW297441   8.102   4.582   6.567  1.4715 -0.7655 -0.6537
31315SOL     OW97442   8.155  10.264   5.687  0.2770  0.0254 -0.3065
31315SOL    HW197443   8.071  10.290   5.648  0.0090 -1.2063 -0.6102
31315SOL    HW297444   8.146  10.170   5.702  1.6949 -0.1779 -0.5729
31316SOL     OW97445   7.729   8.092   4.003  0.2092 -0.4203  0.0686
31316SOL    HW197446   7.768   8.121   4.086  0.3689 -0.1617 -0.0951
31316SOL    HW297447   7.685   8.010   4.025 -0.7531  0.2364  0.6669
31317SOL     OW97448   9.649   1.239   2.795 -0.4760  0.1255  0.0754
31317SOL    HW197449   9.718   1.188   2.752 -0.0996 -0.2434  1.0799
31317SOL    HW297450   9.641   1.319   2.743  0.8658  0.2716  0.0689
31318SOL     OW97451   7.282   2.421   3.934  0.1128  0.2336  0.1851
31318SOL    HW197452   7.230   2.443   3.857 -1.2335  0.6313  1.1750
31318SOL    HW297453   7.287   2.503   3.983  1.2805  0.0771  0.3657
31319SOL     OW97454   4.753  10.187   7.630  0.0889 -0.4589  0.3512
31319SOL    HW197455   4.700  10.166   7.553  0.0863  0.5162  0.0764
31319SOL    HW297456   4.813  10.255   7.600  0.5685 -0.5758  1.0245
31320SOL     OW97457   6.842   2.328   3.895  0.2984  0.5265  0.1546
31320SOL    HW197458   6.771   2.364   3.843 -1.3159 -1.2102  1.0206
31320SOL    HW297459   6.851   2.238   3.864  1.6836  0.5143  0.5262
31321SOL     OW97460   0.970  10.077   0.439 -0.1229 -0.2173  0.1220
31321SOL    HW197461   1.065  10.064   0.442 -0.2252 -1.5997 -1.4046
31321SOL    HW297462   0.942  10.070   0.530  1.1767 -0.3098  0.5297
31322SOL     OW97463   1.736   7.749   0.187  0.1552  0.0493  0.4800
31322SOL    HW197464   1.752   7.704   0.271 -0.2947 -0.8799  0.0832
31322SOL    HW297465   1.806   7.718   0.130 -0.2620 -0.2994  0.1502
31323SOL     OW97466   2.383   5.245   9.958 -0.1073  0.4243 -0.5926
31323SOL    HW197467   2.294   5.230   9.926 -1.5394 -0.4576  3.2838
31323SOL    HW297468   2.382   5.337   9.987 -0.1807  0.0946  0.4940
31324SOL     OW97469   8.504   6.142  10.158 -0.5012  0.2338  0.0808
31324SOL    HW197470   8.559   6.185  10.223 -0.1257  0.5980 -0.4709
31324SOL    HW297471   8.421   6.126  10.203 -0.0582 -0.0179  0.8145
31325SOL     OW97472   3.410   3.166   7.833 -0.2751  0.1941 -0.2555
31325SOL    HW197473   3.358   3.093   7.800 -0.1722  0.5130 -1.1620
31325SOL    HW297474   3.496   3.153   7.793 -0.5053  1.2873 -1.1459
31326SOL     OW97475   1.551   0.628   9.718  0.7369 -0.2609 -0.7710
31326SOL    HW197476   1.476   0.688   9.718 -1.1169 -2.4300 -0.4161
31326SOL    HW297477   1.551   0.590   9.630  0.6554 -1.1281 -0.4087
31327SOL     OW97478   4.301   7.985   4.287  0.2864  0.3048  0.2018
31327SOL    HW197479   4.350   8.044   4.345 -0.8904  0.4620  1.0970
31327SOL    HW297480   4.231   8.040   4.251 -1.1536 -0.6233  1.4641
31328SOL     OW97481   3.533   5.430   4.520  0.2867 -0.1183  0.4858
31328SOL    HW197482   3.545   5.518   4.557 -0.1736 -0.1526  0.7291
31328SOL    HW297483   3.500   5.446   4.432  1.6344 -0.0334 -0.0223
31329SOL     OW97484   7.106   4.487  10.613  0.1731  0.9046 -0.1836
31329SOL    HW197485   7.083   4.454  10.699  2.5128 -0.4850  0.0027
31329SOL    HW297486   7.130   4.578  10.627  0.6643  0.6480  0.6789
31330SOL     OW97487   1.309   6.795   3.730  0.6581 -0.3173  0.2929
31330SOL    HW197488   1.338   6.725   3.672  2.2373 -0.5288  1.2809
31330SOL    HW297489   1.386   6.851   3.741 -0.6851  1.8868 -0.8525
31331SOL     OW97490   2.273   5.670   8.528  0.1987  0.2465  0.2288
31331SOL    HW197491   2.278   5.587   8.481 -2.1127  0.7931 -1.1679
31331SOL    HW297492   2.336   5.727   8.483 -0.9509  0.3318 -1.3755
31332SOL     OW97493   9.035   3.005   2.117 -0.0731 -0.1765 -0.3353
31332SOL    HW197494   8.962   3.061   2.092  0.0231 -0.2590 -0.8273
31332SOL    HW297495   9.031   3.000   2.212  0.9931  2.1433 -0.0898
31333SOL     OW97496   0.197   0.346   6.583  0.1479  0.0968  0.8217
31333SOL    HW197497   0.216   0.253   6.597  0.9934  0.2753  0.9509
31333SOL    HW297498   0.103   0.350   6.571 -0.1602 -0.5660  2.6483
31334SOL     OW97499   2.628   8.194   7.301  0.3006 -0.1575 -0.1595
31334SOL    HW197500   2.629   8.098   7.311  0.7171 -0.1115  0.2858
31334SOL    HW297501   2.539   8.214   7.271 -0.1417 -0.5867  0.8209
31335SOL     OW97502   2.277   1.990   8.932  0.1636 -0.1757 -0.3758
31335SOL    HW197503   2.329   2.054   8.981 -0.6636  0.2817 -0.0664
31335SOL    HW297504   2.330   1.911   8.931  0.6785  0.1525  0.2890
31336SOL     OW97505   2.579   2.366   3.258  0.2071  0.8405 -0.2178
31336SOL    HW197506   2.623   2.303   3.201  0.2933  0.6488  0.0539
31336SOL    HW297507   2.503   2.395   3.207  0.6637  1.1975 -0.6953
31337SOL     OW97508   2.776   9.950   1.321  0.0136  0.7362 -0.3980
31337SOL    HW197509   2.855   9.922   1.274  0.5222 -1.6025  1.6293
31337SOL    HW297510   2.802  10.029   1.368  0.3992  1.3271 -1.5680
31338SOL     OW97511   3.228   9.479   3.602 -0.1884 -0.0953  0.2555
31338SOL    HW197512   3.225   9.431   3.519  1.8590  0.2106 -0.0329
31338SOL    HW297513   3.261   9.415   3.665  2.8526  0.9000 -0.1927
31339SOL     OW97514   0.706   2.193   3.283 -0.1971 -0.3343  0.4090
31339SOL    HW197515   0.669   2.105   3.273  2.1350 -1.4547  0.9718
31339SOL    HW297516   0.780   2.194   3.222 -0.2712  1.3167  0.3125
31340SOL     OW97517  10.617   3.770   8.833  0.3435  0.3403  0.0280
31340SOL    HW197518  10.591   3.862   8.831 -0.4360  0.1135 -1.0004
31340SOL    HW297519  10.576   3.735   8.912  1.9652  1.2207  1.3266
31341SOL     OW97520   5.903   2.458  10.303 -0.1434  0.1533  0.3005
31341SOL    HW197521   5.872   2.416  10.223 -2.2982  0.2969  0.9937
31341SOL    HW297522   5.873   2.549  10.295  0.7898  0.5116  0.6954
31342SOL     OW97523  10.105   8.398   6.257  0.5372  0.0057  0.0107
31342SOL    HW197524  10.068   8.459   6.192 -0.2406  0.6681  1.0458
31342SOL    HW297525  10.195   8.385   6.228  0.1637  0.1534 -1.3024
31343SOL     OW97526   2.549   1.891   4.412  0.2044  0.2618  0.5555
31343SOL    HW197527   2.489   1.862   4.344 -0.2129  1.5208  0.3668
31343SOL    HW297528   2.621   1.828   4.409  0.1890  0.2860 -1.0361
31344SOL     OW97529   5.951  10.153  10.529 -0.2912  0.0339  0.4310
31344SOL    HW197530   5.953  10.136  10.623 -0.5255 -0.9220  0.2760
31344SOL    HW297531   6.029  10.110  10.495 -0.0449  0.6383  0.2273
31345SOL     OW97532   2.903   5.033   0.474  0.2779 -0.0443 -0.1499
31345SOL    HW197533   2.942   5.040   0.387 -1.3584 -0.3134 -0.9560
31345SOL    HW297534   2.868   5.120   0.492  0.9527  0.1145  0.4225
31346SOL     OW97535   5.466   6.470   2.279 -0.0024 -0.4650  0.4402
31346SOL    HW197536   5.401   6.507   2.338 -1.2373  0.8062 -1.6008
31346SOL    HW297537   5.443   6.377   2.273  0.4528 -0.7416  2.2470
31347SOL     OW97538   5.388   3.584   3.974 -0.2247 -0.5378 -0.0026
31347SOL    HW197539   5.433   3.605   3.893 -1.7432  3.6780 -0.0064
31347SOL    HW297540   5.313   3.644   3.977 -0.8091 -1.1409  4.0372
31348SOL     OW97541   0.346   5.022   4.386  0.2733 -0.1625 -0.2068
31348SOL    HW197542   0.367   4.985   4.301 -1.3821  1.3840 -1.3752
31348SOL    HW297543   0.273   4.968   4.418  0.0805  0.0064 -0.3561
31349SOL     OW97544   6.770   5.065   4.444  0.1489 -0.2316 -0.1596
31349SOL    HW197545   6.692   5.048   4.497  0.6248  1.0964  1.0259
31349SOL    HW297546   6.755   5.152   4.407  0.9122 -0.1141 -0.2049
31350SOL     OW97547   4.043   9.103   9.880 -0.2474 -0.3475 -0.1675
31350SOL    HW197548   4.041   9.188   9.923 -1.9152  0.5115 -1.7788
31350SOL    HW297549   4.132   9.095   9.847  0.1295  0.4417  0.6186
31351SOL     OW97550   1.065   1.070   6.073  0.1031  0.3732  0.0419
31351SOL    HW197551   1.124   1.047   6.145  0.7896 -1.3958 -1.0271
31351SOL    HW297552   1.077   1.165   6.062  1.5875  0.3167  0.8652
31352SOL     OW97553   3.379   1.911  10.020  0.1886  0.0014  0.0912
31352SOL    HW197554   3.460   1.959  10.004  0.5311 -0.6770 -0.2674
31352SOL    HW297555   3.398   1.859  10.099  0.6919 -1.3786 -0.8883
31353SOL     OW97556   6.181   3.212   4.432 -0.8266 -0.4822 -0.2285
31353SOL    HW197557   6.272   3.235   4.412 -0.4881 -0.5361  1.1038
31353SOL    HW297558   6.142   3.293   4.465 -1.8716  0.0552 -2.6137
31354SOL     OW97559   6.645   4.924   5.430 -0.5266 -0.6098  0.5367
31354SOL    HW197560   6.690   4.944   5.512 -0.8480 -0.7323  0.7414
31354SOL    HW297561   6.615   5.010   5.398  1.1700 -0.3101 -0.3837
31355SOL     OW97562   4.778   3.651   1.826 -0.2727  0.4632  0.5720
31355SOL    HW197563   4.697   3.692   1.795  0.7350  0.9088 -1.6628
31355SOL    HW297564   4.807   3.706   1.898 -0.4815  2.0050 -0.4790
31356SOL     OW97565   5.734   1.070   8.787  0.2772 -0.6235 -0.2330
31356SOL    HW197566   5.805   1.040   8.844 -1.0700 -0.8508  1.4074
31356SOL    HW297567   5.690   0.989   8.760  0.5498 -0.4783 -1.1170
31357SOL     OW97568   6.793   8.451   4.755 -0.0621 -0.0433  0.4496
31357SOL    HW197569   6.778   8.357   4.760  2.9019 -0.5468  2.7267
31357SOL    HW297570   6.745   8.487   4.830 -0.6832  0.1877 -0.0545
31358SOL     OW97571   7.588   4.484   8.045  0.1429 -0.4488 -1.0589
31358SOL    HW197572   7.532   4.408   8.063  1.5675 -1.0530  1.2134
31358SOL    HW297573   7.551   4.554   8.098  0.9791 -0.6061 -0.2471
31359SOL     OW97574  10.564   7.826   3.455  0.4486  0.1308 -0.1057
31359SOL    HW197575  10.584   7.788   3.540  1.9592  0.1123 -0.4399
31359SOL    HW297576  10.472   7.853   3.461  0.5517  0.1821  1.5325
31360SOL     OW97577   3.617   2.313   2.884 -0.7227 -0.1632 -0.6657
31360SOL    HW197578   3.632   2.397   2.841  0.4282  0.4638  0.8689
31360SOL    HW297579   3.694   2.261   2.861 -0.1925  0.1108  0.4004
31361SOL     OW97580   2.678   9.736   4.296  0.1560  0.0578 -0.2705
31361SOL    HW197581   2.643   9.647   4.286  0.2575 -0.1184  0.8130
31361SOL    HW297582   2.633   9.772   4.372 -0.1565  1.0852 -0.9195
31362SOL     OW97583   2.097  10.619   4.351 -0.2324 -0.3110  0.0030
31362SOL    HW197584   2.083  10.702   4.396  1.0052  0.6836 -1.3352
31362SOL    HW297585   2.143  10.565   4.415  0.3638  0.6091  0.3799
31363SOL     OW97586  10.399   2.462   9.006 -0.3325  0.1342 -0.1775
31363SOL    HW197587  10.442   2.537   9.047 -0.1191  0.1688 -0.4562
31363SOL    HW297588  10.381   2.491   8.916 -0.9624  0.1262 -0.0555
31364SOL     OW97589   8.754   3.277   4.500  0.7484 -0.2007 -0.3673
31364SOL    HW197590   8.716   3.200   4.542 -1.7739  0.6724 -0.8202
31364SOL    HW297591   8.752   3.344   4.568  0.7727  0.0562 -0.6175
31365SOL     OW97592   1.279   5.338   6.062 -0.9630 -0.3092 -0.7723
31365SOL    HW197593   1.327   5.336   5.979 -0.2917 -0.0481 -0.3948
31365SOL    HW297594   1.295   5.252   6.101 -1.6477 -0.5988 -1.1125
31366SOL     OW97595   5.670   2.440   5.915 -0.2302 -0.4732  0.0638
31366SOL    HW197596   5.635   2.477   5.997 -0.3381 -1.2618  0.3862
31366SOL    HW297597   5.652   2.507   5.849 -2.9993 -1.1045  0.0604
31367SOL     OW97598   8.635   5.482   6.836  0.0766 -0.9467 -0.0746
31367SOL    HW197599   8.641   5.386   6.841 -0.6322 -0.9490  1.0888
31367SOL    HW297600   8.549   5.502   6.874 -0.5051  0.0556 -1.8160
31368SOL     OW97601   9.379   9.088   5.280 -0.6748 -0.0638  0.0354
31368SOL    HW197602   9.452   9.026   5.287 -0.5734  0.1900  1.7956
31368SOL    HW297603   9.417   9.163   5.234 -0.6123 -0.9863 -1.4995
31369SOL     OW97604   2.119   3.898   8.096  0.3375  0.2381  0.5920
31369SOL    HW197605   2.068   3.961   8.147 -2.0790 -1.5010  0.4728
31369SOL    HW297606   2.133   3.825   8.156  4.9545  1.5015  1.4686
31370SOL     OW97607  10.017   2.364   4.125 -0.1818  0.3019  0.1219
31370SOL    HW197608   9.968   2.440   4.157  0.8186  1.0680 -0.1329
31370SOL    HW297609  10.034   2.311   4.203 -0.8998  0.3224  0.2992
31371SOL     OW97610  10.951   6.726   3.030  0.6163 -0.1592  0.4221
31371SOL    HW197611  10.867   6.730   2.983 -0.5280  0.9505  2.4380
31371SOL    HW297612  10.998   6.804   3.001 -0.0668  0.5037  1.0455
31372SOL     OW97613   5.740   7.476   0.842  0.0027 -0.0013  0.3580
31372SOL    HW197614   5.729   7.491   0.936 -0.6319  0.0406  0.2819
31372SOL    HW297615   5.736   7.381   0.833 -1.1593  0.0481  0.2374
31373SOL     OW97616   3.637   0.991   4.070 -0.3769  0.2192 -0.7374
31373SOL    HW197617   3.662   1.083   4.079 -1.1380  0.3068  0.7728
31373SOL    HW297618   3.646   0.973   3.976 -2.1688  2.4181 -1.4450
31374SOL     OW97619   9.345   8.226   3.843  0.9880 -0.4190  0.5037
31374SOL    HW197620   9.424   8.280   3.843  0.7514 -0.0692  0.3966
31374SOL    HW297621   9.332   8.202   3.751  1.4689 -1.2188  0.6373
31375SOL     OW97622   7.810  10.650   0.622 -0.2853 -0.5507 -0.5745
31375SOL    HW197623   7.749  10.723   0.615 -1.1562 -1.1745  0.4091
31375SOL    HW297624   7.813  10.613   0.533  0.1462  0.6330 -1.0772
31376SOL     OW97625   9.626  10.881   4.053  0.0616  0.0484  0.2779
31376SOL    HW197626   9.697  10.897   4.115  1.1693  0.7165 -1.0869
31376SOL    HW297627   9.565  10.954   4.067  0.2445  0.1247  0.6750
31377SOL     OW97628   8.064   2.889   0.868 -0.3634  1.0876 -0.2407
31377SOL    HW197629   8.089   2.977   0.897  2.8035 -0.2017  1.5320
31377SOL    HW297630   8.036   2.844   0.948 -0.2981  0.0181 -0.7943
31378SOL     OW97631   4.866   0.641   9.010  0.5130  0.2019  0.3772
31378SOL    HW197632   4.960   0.630   9.025  0.6381  0.7002 -0.0059
31378SOL    HW297633   4.832   0.673   9.093  0.5467 -0.7323  0.7568
31379SOL     OW97634   3.365   5.165   3.458 -0.1177  0.6123  0.1765
31379SOL    HW197635   3.273   5.145   3.438  0.2655 -3.3938  1.5356
31379SOL    HW297636   3.413   5.134   3.382  0.2967 -0.8677  1.0009
31380SOL     OW97637   2.809   6.056   0.084  0.0144  0.6821 -0.2750
31380SOL    HW197638   2.811   6.114   0.007  1.6136  0.3800 -0.4808
31380SOL    HW297639   2.882   5.996   0.071 -0.6915 -0.4241  0.7018
31381SOL     OW97640   9.318  10.140   8.809 -0.0494 -0.4938 -0.3311
31381SOL    HW197641   9.307  10.134   8.714 -1.6187  2.1755 -0.4134
31381SOL    HW297642   9.369  10.220   8.822 -1.2032  0.0472  1.1120
31382SOL     OW97643   0.458   0.195  10.118  0.1235  0.3375  0.2605
31382SOL    HW197644   0.409   0.114  10.130  0.0857 -0.1446 -2.5125
31382SOL    HW297645   0.393   0.257  10.083  0.7469  0.7382 -0.1986
31383SOL     OW97646  10.365   1.847   5.924 -0.5915 -0.1413 -0.4587
31383SOL    HW197647  10.434   1.893   5.876 -1.2193  3.7185  1.9336
31383SOL    HW297648  10.285   1.891   5.898 -1.3483 -0.3412  1.4092
31384SOL     OW97649   5.850  10.945  10.328 -0.6235 -0.5105  0.3969
31384SOL    HW197650   5.756  10.934  10.339 -0.6312 -0.1732  0.6909
31384SOL    HW297651   5.869  10.905  10.243 -0.7858 -1.9630  1.0026
31385SOL     OW97652   7.267   3.414   1.741 -0.0822  0.7426 -0.3232
31385SOL    HW197653   7.346   3.400   1.793 -0.7772  0.1508  0.5930
31385SOL    HW297654   7.294   3.394   1.651  0.5954 -0.2961  0.0957
31386SOL     OW97655   1.655  10.895   2.401 -0.6025 -0.3339 -0.2641
31386SOL    HW197656   1.667  10.984   2.435  1.6845 -1.0769  1.1672
31386SOL    HW297657   1.740  10.873   2.362 -1.1323 -1.8813 -0.6061
31387SOL     OW97658   8.874   4.974   2.777 -0.0366 -0.5509  0.1774
31387SOL    HW197659   8.907   4.981   2.866  0.2880 -1.5003  0.1364
31387SOL    HW297660   8.909   4.891   2.744  0.3972  0.0954 -1.0563
31388SOL     OW97661   3.846   4.199   5.223 -0.0887  0.6199 -0.4102
31388SOL    HW197662   3.778   4.250   5.267 -0.9891  0.2186 -1.3099
31388SOL    HW297663   3.799   4.145   5.160  1.1324  0.9498 -1.6542
31389SOL     OW97664   3.428   6.455   8.679 -0.6423 -0.5565 -1.0351
31389SOL    HW197665   3.391   6.536   8.642  3.1719  2.6454  1.4164
31389SOL    HW297666   3.398   6.455   8.770  0.5890 -1.0737 -0.6187
31390SOL     OW97667   4.608   6.550   1.770 -0.4072  0.2588 -0.5470
31390SOL    HW197668   4.541   6.489   1.802  0.9459 -1.0008 -0.0232
31390SOL    HW297669   4.597   6.628   1.824  1.2778 -1.4947  2.6399
31391SOL     OW97670   7.117   4.663   4.177 -1.1871 -0.0251 -0.7852
31391SOL    HW197671   7.036   4.679   4.130  0.0607  1.9376 -2.4578
31391SOL    HW297672   7.139   4.747   4.218  0.1725 -0.3992 -0.6712
31392SOL     OW97673   4.264   8.332   1.975 -0.5519  0.3053 -0.3917
31392SOL    HW197674   4.231   8.419   1.997 -0.2546  0.5329 -0.8278
31392SOL    HW297675   4.196   8.294   1.920 -0.2458  0.6441 -1.0135
31393SOL     OW97676   4.063   2.484   5.343  1.3735  0.0756 -0.1166
31393SOL    HW197677   4.108   2.402   5.360 -0.7054 -1.2998 -0.9438
31393SOL    HW297678   3.986   2.482   5.401  0.6875  0.8821 -0.9663
31394SOL     OW97679   4.286   8.832   7.503 -0.2850 -0.1595  0.3545
31394SOL    HW197680   4.242   8.897   7.557  1.7739  1.8285 -0.1916
31394SOL    HW297681   4.298   8.876   7.418  2.2910 -0.6957  0.3563
31395SOL     OW97682  10.259   3.305   8.844 -0.2901 -0.3453 -0.2062
31395SOL    HW197683  10.324   3.371   8.867 -0.4729  0.8540 -2.8031
31395SOL    HW297684  10.273   3.289   8.750 -2.0206 -2.0128 -0.2428
31396SOL     OW97685   0.069   9.704   2.789 -0.1498 -0.2023 -0.4401
31396SOL    HW197686  -0.013   9.675   2.749 -1.1519 -0.5629  1.7129
31396SOL    HW297687   0.053   9.795   2.814 -0.1556 -0.4503  0.5244
31397SOL     OW97688   0.353   1.728   6.204  0.1724 -0.0549  0.0325
31397SOL    HW197689   0.294   1.792   6.244  0.3284  0.8009 -1.0538
31397SOL    HW297690   0.358   1.656   6.267 -0.6311  0.6558  0.9225
31398SOL     OW97691   2.978   8.392   1.406  0.3625  0.5679 -0.2195
31398SOL    HW197692   2.893   8.351   1.425 -0.4578  1.3981 -1.8408
31398SOL    HW297693   3.037   8.357   1.473 -0.4646 -2.6245 -0.9628
31399SOL     OW97694   4.781   2.236   3.063 -0.5748 -0.5225 -0.1041
31399SOL    HW197695   4.760   2.187   3.142 -2.4997  1.2544  0.6000
31399SOL    HW297696   4.872   2.263   3.075 -0.6158 -0.8714  1.1740
31400SOL     OW97697   6.920   0.899   8.149  0.1656  0.1129 -0.2038
31400SOL    HW197698   6.982   0.865   8.085  1.7253  2.0131  0.1951
31400SOL    HW297699   6.851   0.939   8.096  1.2698  1.3673 -0.7678
31401SOL     OW97700   0.670   2.979   7.819 -0.1525  0.1962 -0.2386
31401SOL    HW197701   0.739   2.942   7.875 -0.8196  0.0238  0.4879
31401SOL    HW297702   0.716   3.006   7.739  0.6740 -0.3676  0.0302
31402SOL     OW97703   8.387   4.479   2.966  0.5642 -0.5390  0.3287
31402SOL    HW197704   8.383   4.485   2.871  0.6536 -2.0748  0.2001
31402SOL    HW297705   8.396   4.569   2.996  1.1746 -0.0871 -1.1420
31403SOL     OW97706   9.622   1.223   0.362 -0.0778 -0.2507  0.1967
31403SOL    HW197707   9.607   1.166   0.438  0.1240  0.6544  0.9390
31403SOL    HW297708   9.534   1.240   0.328 -0.1801 -0.5866  0.2881
31404SOL     OW97709   7.008  10.132  10.723  0.0854  0.1763  0.6490
31404SOL    HW197710   6.923  10.132  10.681 -0.1422 -1.0388  1.0549
31404SOL    HW297711   7.013  10.047  10.767  0.7424  0.9573  2.1779
31405SOL     OW97712   5.487   6.241  10.789  0.1051  0.3209 -0.0320
31405SOL    HW197713   5.472   6.242  10.694  3.0950 -0.6610 -0.6055
31405SOL    HW297714   5.467   6.151  10.816  4.1672 -0.9735 -0.7883
31406SOL     OW97715   2.365   7.381   3.350  0.6127  0.2536 -0.2415
31406SOL    HW197716   2.452   7.416   3.329  0.8958 -0.5711 -0.4884
31406SOL    HW297717   2.338   7.336   3.270  0.8583 -1.2736  0.4977
31407SOL     OW97718   0.163   3.579   6.512  0.2577  0.1972 -0.1349
31407SOL    HW197719   0.195   3.537   6.592 -1.6879  0.1011  0.6661
31407SOL    HW297720   0.136   3.666   6.540  0.5538  0.5382 -0.9171
31408SOL     OW97721   1.733   7.633   6.043  0.4235 -0.0597 -0.3352
31408SOL    HW197722   1.718   7.725   6.067  0.6610  0.0409 -0.5638
31408SOL    HW297723   1.738   7.588   6.127 -0.7932 -0.0518 -0.2376
31409SOL     OW97724   3.609   4.490   0.625  0.3905 -0.1017  0.0117
31409SOL    HW197725   3.565   4.471   0.542  2.0456 -0.2909 -0.8512
31409SOL    HW297726   3.563   4.435   0.689 -1.1402  0.3091 -0.6870
31410SOL     OW97727   7.546  10.816   4.305 -0.0822  0.5792 -0.0572
31410SOL    HW197728   7.585  10.901   4.286 -0.0982  1.4544  3.2396
31410SOL    HW297729   7.617  10.753   4.292  0.4962  1.3389 -0.6126
31411SOL     OW97730   7.058   9.704   6.410 -0.1006 -0.3395  0.5987
31411SOL    HW197731   7.129   9.765   6.430  0.0453 -0.0320 -0.7333
31411SOL    HW297732   7.045   9.655   6.491  1.2410 -0.0051  1.0499
31412SOL     OW97733   2.443   6.337   8.590  0.1484 -0.6689 -0.0009
31412SOL    HW197734   2.521   6.282   8.579  0.3124 -0.4860  0.2490
31412SOL    HW297735   2.443   6.394   8.513  0.4074 -0.4890  0.1321
31413SOL     OW97736   9.196   8.232   6.647  0.8142  0.4666  0.3834
31413SOL    HW197737   9.164   8.321   6.659 -0.1836  0.1378  0.3034
31413SOL    HW297738   9.118   8.177   6.658  1.2481 -0.3412 -0.4221
31414SOL     OW97739  10.718   4.013   7.439  0.0309  0.5261  0.4947
31414SOL    HW197740  10.678   4.046   7.359  0.9761 -1.0978 -0.7339
31414SOL    HW297741  10.807   4.048   7.438  0.4394 -0.4788  0.1557
31415SOL     OW97742   9.166   4.317   6.532  0.2332  0.3353 -0.3567
31415SOL    HW197743   9.226   4.387   6.507 -0.1674  0.5871 -0.6165
31415SOL    HW297744   9.121   4.294   6.451 -2.1986  2.1960  0.3479
31416SOL     OW97745   0.263   4.971   0.270 -0.1705 -0.1321 -0.2499
31416SOL    HW197746   0.276   5.040   0.204 -1.1830  0.3223  0.0062
31416SOL    HW297747   0.290   4.891   0.226  0.6890  0.3746 -0.6796
31417SOL     OW97748   2.838   9.447   1.060 -0.0519 -0.3584  0.2129
31417SOL    HW197749   2.831   9.368   1.007  0.9800  0.0534 -0.5864
31417SOL    HW297750   2.781   9.431   1.136  0.6192 -2.1008  0.3904
31418SOL     OW97751   9.719   5.944   2.638  0.1066  0.2622  0.3876
31418SOL    HW197752   9.689   6.030   2.608  2.2670  0.8279 -0.4203
31418SOL    HW297753   9.813   5.956   2.653  0.4637 -1.9562  0.2733
31419SOL     OW97754   5.963   4.388   0.873  0.3819  0.0437  0.2763
31419SOL    HW197755   6.015   4.458   0.912  2.7876 -0.5419 -1.5646
31419SOL    HW297756   5.876   4.425   0.861  1.2216  2.2344  0.5866
31420SOL     OW97757   0.497   1.678   4.553  0.1104  0.4221  0.1738
31420SOL    HW197758   0.420   1.734   4.545 -0.4929 -0.5267 -1.0742
31420SOL    HW297759   0.495   1.648   4.644 -1.1977  0.1561  0.0781
31421SOL     OW97760   1.578   7.814   1.731 -0.0115 -0.7775  0.1969
31421SOL    HW197761   1.595   7.834   1.824 -0.9237  1.6799 -0.0772
31421SOL    HW297762   1.582   7.719   1.726 -1.6896 -1.1361  3.1477
31422SOL     OW97763   2.310   3.918   4.466 -0.4411 -0.5170 -0.2150
31422SOL    HW197764   2.388   3.945   4.514  0.1225 -0.0446 -1.3616
31422SOL    HW297765   2.237   3.940   4.524  0.2253 -0.0716  0.4655
31423SOL     OW97766   9.128  10.735  10.993  0.3727  0.1892 -0.3003
31423SOL    HW197767   9.173  10.656  11.025  0.6070  0.1362 -0.7521
31423SOL    HW297768   9.067  10.757  11.063 -0.9794 -1.4276 -0.8874
31424SOL     OW97769   1.165   3.288   2.920  0.1915 -0.2099  0.8305
31424SOL    HW197770   1.111   3.246   2.852 -1.5303  1.1406  1.2762
31424SOL    HW297771   1.132   3.251   3.002 -1.2684  1.7552  1.2249
31425SOL     OW97772   0.430   6.977   8.992  0.0062 -0.1907 -0.4172
31425SOL    HW197773   0.387   7.036   8.930  1.2490  1.2827  0.0487
31425SOL    HW297774   0.489   7.034   9.042 -1.9960 -0.9561  3.2009
31426SOL     OW97775   8.301   9.671   4.890  0.4022 -0.0169  0.0194
31426SOL    HW197776   8.369   9.604   4.892  0.8176  0.4151  0.5171
31426SOL    HW297777   8.334   9.741   4.946  0.2939  0.9253 -1.0758
31427SOL     OW97778   6.070   4.214   7.734  0.2575  0.1274  0.2175
31427SOL    HW197779   5.994   4.243   7.684  0.6960  0.3673 -0.3177
31427SOL    HW297780   6.129   4.176   7.669  1.2577  1.3221  0.4084
31428SOL     OW97781   0.484   0.515  10.935 -0.5067  0.0695 -0.4222
31428SOL    HW197782   0.552   0.574  10.966  2.0183 -2.0404 -1.5784
31428SOL    HW297783   0.461   0.549  10.848 -0.3001  0.2868 -0.3927
31429SOL     OW97784   5.809   4.685   4.292 -0.0680  0.1354 -0.4803
31429SOL    HW197785   5.893   4.709   4.332  0.2512 -0.4127 -0.7993
31429SOL    HW297786   5.781   4.764   4.245  1.9710 -0.6061 -3.2229
31430SOL     OW97787   8.660   7.554   3.307  0.1864  0.7147 -0.2866
31430SOL    HW197788   8.721   7.557   3.380 -1.8491 -1.3322  1.6590
31430SOL    HW297789   8.578   7.589   3.342 -0.3344  1.6355 -2.2547
31431SOL     OW97790   2.073  10.683   5.056  0.4405  0.6262 -0.3891
31431SOL    HW197791   2.058  10.614   4.991 -0.8590 -0.0285  0.5633
31431SOL    HW297792   1.992  10.687   5.106  0.8926  2.1132  0.2795
31432SOL     OW97793   8.081   7.677   7.995  0.1705 -0.7370  0.1105
31432SOL    HW197794   8.163   7.627   7.992  0.3068 -0.5060 -3.0437
31432SOL    HW297795   8.108   7.765   8.019  1.4303  0.0369 -3.4834
31433SOL     OW97796   6.344   4.296   1.780  0.1942 -0.3161  0.1969
31433SOL    HW197797   6.429   4.295   1.736 -0.6042 -0.7669 -1.3894
31433SOL    HW297798   6.364   4.270   1.870  1.5112 -2.2315 -0.5770
31434SOL     OW97799   6.321   6.536   3.740  0.5565  0.4113  0.3384
31434SOL    HW197800   6.272   6.528   3.658 -1.8886 -0.5181  1.7923
31434SOL    HW297801   6.395   6.476   3.728 -1.1163 -1.6636 -0.3154
31435SOL     OW97802   6.728   4.561   7.494  0.0148 -0.1989  0.0954
31435SOL    HW197803   6.789   4.614   7.545 -1.6030  1.6749  0.2001
31435SOL    HW297804   6.771   4.548   7.410  1.4895 -0.8577  0.9188
31436SOL     OW97805   7.445  10.638  10.604  0.0228 -0.3101 -0.1169
31436SOL    HW197806   7.396  10.575  10.657  0.3824 -0.4561  0.0452
31436SOL    HW297807   7.382  10.668  10.538 -1.0348  1.3224  1.5358
31437SOL     OW97808   3.964   6.777   6.889  0.2082  0.2577 -0.1309
31437SOL    HW197809   3.889   6.828   6.920  0.6617  0.0209  1.4922
31437SOL    HW297810   3.937   6.686   6.901 -0.0405  0.1248 -1.6064
31438SOL     OW97811   6.537   7.654   5.694  0.0238 -0.1629 -0.1349
31438SOL    HW197812   6.474   7.665   5.623 -0.4234 -0.9177  0.1261
31438SOL    HW297813   6.483   7.656   5.774  0.6044  1.4381  0.2554
31439SOL     OW97814   1.828   5.759   1.911  0.1228  0.0348 -0.2062
31439SOL    HW197815   1.826   5.839   1.964 -1.1079  0.8996 -1.4627
31439SOL    HW297816   1.766   5.701   1.955  0.4229  0.0677  0.2713
31440SOL     OW97817   7.391   4.248   3.898 -0.1327  0.1804 -1.0254
31440SOL    HW197818   7.332   4.200   3.839  0.2230 -0.6921 -0.6919
31440SOL    HW297819   7.459   4.282   3.840 -0.9414  1.1966 -1.4151
31441SOL     OW97820   4.863   0.776   5.864  0.0565  0.4743  0.5576
31441SOL    HW197821   4.859   0.851   5.805  1.9920  0.1500 -0.0726
31441SOL    HW297822   4.886   0.702   5.808 -0.7783 -0.3987  1.3273
31442SOL     OW97823   6.980   5.463   7.330  0.4494 -0.1044  0.6575
31442SOL    HW197824   7.048   5.451   7.397  0.1053  0.8951  1.2128
31442SOL    HW297825   7.027   5.501   7.255  0.3036  2.0102  1.5704
31443SOL     OW97826   6.401   8.675   2.966  0.2348 -0.0095  0.2819
31443SOL    HW197827   6.307   8.658   2.964  0.0975  0.7583 -0.3214
31443SOL    HW297828   6.409   8.757   3.015  0.5346  0.1715 -0.0616
31444SOL     OW97829   4.382   9.361   8.328  0.4562 -0.3405 -0.1961
31444SOL    HW197830   4.396   9.275   8.368  0.9400 -0.0805  0.2192
31444SOL    HW297831   4.445   9.418   8.373  1.4272 -0.1443 -1.7048
31445SOL     OW97832   5.677  10.681   3.512  0.8478 -0.0944  0.5388
31445SOL    HW197833   5.698  10.774   3.522 -1.4712  0.8191 -1.9909
31445SOL    HW297834   5.714  10.657   3.427  0.7533 -1.3208  0.8262
31446SOL     OW97835   3.936   3.815   5.230 -0.2329  0.4405  0.2465
31446SOL    HW197836   3.996   3.849   5.163 -1.7759  2.5569 -0.1909
31446SOL    HW297837   3.853   3.804   5.183 -0.7740 -0.1948  1.3300
31447SOL     OW97838   9.716   1.090   5.656  0.3231 -0.1225 -0.0654
31447SOL    HW197839   9.735   1.071   5.748  1.3773  0.7664 -0.0747
31447SOL    HW297840   9.783   1.042   5.607  1.6792  1.7613 -0.1883
31448SOL     OW97841   1.009   2.891   9.786  0.5902  0.4024 -0.7309
31448SOL    HW197842   0.968   2.936   9.712  1.2098  0.8426 -0.8134
31448SOL    HW297843   1.049   2.813   9.746  1.6670  1.0822 -1.0260
31449SOL     OW97844   7.805   3.233   9.843  0.5178 -0.2270  0.3231
31449SOL    HW197845   7.720   3.190   9.858  1.0890 -1.5914 -0.2038
31449SOL    HW297846   7.868   3.176   9.887  1.3914 -0.3728 -1.0648
31450SOL     OW97847   3.369   2.045   5.990  0.3615 -0.2166 -0.1987
31450SOL    HW197848   3.464   2.047   5.988  0.5540 -3.5835 -0.0679
31450SOL    HW297849   3.342   2.116   5.931  2.8415  1.6332  0.7273
31451SOL     OW97850   3.873   1.580   6.374  0.0642 -0.3708  0.2235
31451SOL    HW197851   3.839   1.512   6.432 -0.2133  0.9518  1.6499
31451SOL    HW297852   3.917   1.531   6.304 -0.8323 -2.0227  0.7652
31452SOL     OW97853   7.453   9.367   5.478  0.1168  0.1507 -0.5341
31452SOL    HW197854   7.380   9.404   5.428 -0.8043 -0.5099  0.2838
31452SOL    HW297855   7.464   9.427   5.552  0.8316  0.5932 -0.9896
31453SOL     OW97856  10.514   2.169   1.632 -0.2925  0.1777  0.1571
31453SOL    HW197857  10.578   2.186   1.701  0.7526 -1.6513 -0.3078
31453SOL    HW297858  10.473   2.087   1.657  0.3165 -0.6857 -1.4987
31454SOL     OW97859   8.873   0.710   2.197  0.1588  0.3517 -0.1490
31454SOL    HW197860   8.899   0.643   2.261  0.3070  0.2247 -0.3406
31454SOL    HW297861   8.794   0.675   2.157  0.3732  0.1775 -0.4213
31455SOL     OW97862   6.863   9.009  10.226  0.1408 -0.1618  0.2282
31455SOL    HW197863   6.807   9.079  10.258 -0.6980 -0.2468 -0.9911
31455SOL    HW297864   6.949   9.028  10.263  0.3146  2.3750 -1.2756
31456SOL     OW97865   2.505   6.198   3.895  0.0455 -0.1948  0.3557
31456SOL    HW197866   2.506   6.213   3.801 -1.3194 -1.3669  0.1157
31456SOL    HW297867   2.444   6.264   3.929  0.7569  0.4125  0.4625
31457SOL     OW97868   2.896   7.802   2.774 -0.2254 -0.3044  0.7471
31457SOL    HW197869   2.881   7.889   2.736 -0.7013 -0.1462  1.2657
31457SOL    HW297870   2.813   7.756   2.761 -0.3279 -0.3174  1.3880
31458SOL     OW97871   9.035   7.524   5.916 -0.3348  0.1868 -0.2477
31458SOL    HW197872   9.125   7.502   5.890 -0.4521 -0.2612 -0.2865
31458SOL    HW297873   8.991   7.549   5.835 -0.2817  0.2663 -0.2512
31459SOL     OW97874   5.227   7.431   5.983 -0.0911 -0.4218  0.6602
31459SOL    HW197875   5.237   7.337   5.967 -0.2898 -0.8013  2.5376
31459SOL    HW297876   5.317   7.464   5.989 -0.0174 -0.3837 -0.4360
31460SOL     OW97877   0.319   8.696   6.957  0.3791 -0.6854 -0.2388
31460SOL    HW197878   0.347   8.638   7.028  0.5171 -0.0801  0.2096
31460SOL    HW297879   0.316   8.640   6.879  0.0743 -1.3874  0.2760
31461SOL     OW97880   8.881  10.362   8.984 -0.3025  0.4961  0.0193
31461SOL    HW197881   8.852  10.312   9.061  2.7630  0.7808  1.4948
31461SOL    HW297882   8.924  10.297   8.929 -0.0867  0.7580 -0.1219
31462SOL     OW97883   2.150  10.963   0.675  0.2143  0.0005  0.3063
31462SOL    HW197884   2.082  10.917   0.624 -0.0219  1.6335 -0.9520
31462SOL    HW297885   2.196  10.894   0.721 -1.7063 -1.2610  0.4561
31463SOL     OW97886   1.323  10.351   4.249  0.4811  0.2128 -0.3075
31463SOL    HW197887   1.276  10.269   4.240  0.2924  0.2693  0.1097
31463SOL    HW297888   1.384  10.353   4.175  0.5144 -0.3195 -0.2966
31464SOL     OW97889   6.982   6.486   1.518  0.2679 -0.0561  0.6795
31464SOL    HW197890   6.895   6.493   1.479  0.6369 -0.2886 -0.2083
31464SOL    HW297891   7.000   6.392   1.518  1.5646  0.1355 -1.5392
31465SOL     OW97892   2.251   2.733   4.998  0.2095  0.4708  0.3259
31465SOL    HW197893   2.182   2.795   5.021  0.9026  1.3823 -0.0255
31465SOL    HW297894   2.236   2.658   5.056 -0.6854  0.9192  0.6957
31466SOL     OW97895   5.518   8.983   5.410  0.2470 -0.5010 -0.2120
31466SOL    HW197896   5.436   8.984   5.459  0.2094 -0.5931 -0.2726
31466SOL    HW297897   5.493   9.002   5.319  0.0784 -2.2156 -0.5454
31467SOL     OW97898   0.685   7.467   7.754 -0.0409  0.0003  0.3682
31467SOL    HW197899   0.775   7.479   7.785 -0.9160 -1.3580  3.9079
31467SOL    HW297900   0.644   7.552   7.766  0.3543  0.2048  0.2859
31468SOL     OW97901   0.098   4.217   8.599 -0.0854 -0.1850  0.5905
31468SOL    HW197902   0.067   4.208   8.689  3.4297  0.3627  2.0298
31468SOL    HW297903   0.060   4.300   8.569 -0.3597  0.2421  2.0489
31469SOL     OW97904   6.205   5.967   0.605  1.1209 -0.1322 -0.6325
31469SOL    HW197905   6.205   6.058   0.575  1.3569  0.2202  0.4021
31469SOL    HW297906   6.112   5.948   0.622  0.5671 -1.2424 -4.1198
31470SOL     OW97907   7.724   5.100   1.006  0.6648  0.1396 -0.5893
31470SOL    HW197908   7.813   5.085   0.974  1.4125 -2.0633  2.1945
31470SOL    HW297909   7.668   5.070   0.934  2.1680 -0.4290 -1.5844
31471SOL     OW97910   8.259   3.753   2.912 -0.1082  0.1879 -0.4469
31471SOL    HW197911   8.191   3.701   2.869  2.5560 -1.7708 -2.6655
31471SOL    HW297912   8.283   3.701   2.989  0.0946 -0.0590 -0.6737
31472SOL     OW97913   0.813   6.581  10.761  0.0662  0.1686  0.4960
31472SOL    HW197914   0.834   6.537  10.679 -0.3805  0.4910  0.2039
31472SOL    HW297915   0.729   6.624  10.744  1.1509  2.3456  0.2934
31473SOL     OW97916   4.682   0.595  10.458 -0.3361 -0.7148  0.2291
31473SOL    HW197917   4.660   0.584  10.551 -1.7549 -0.7480 -0.0823
31473SOL    HW297918   4.601   0.573  10.412 -0.0950  0.7124 -0.9483
31474SOL     OW97919   8.473   1.409   1.919 -0.0964 -0.2244 -0.2136
31474SOL    HW197920   8.393   1.420   1.971 -0.5709 -1.0355 -0.7514
31474SOL    HW297921   8.505   1.322   1.942 -0.2324 -0.5364 -1.1624
31475SOL     OW97922   1.810   7.855   2.981 -0.1224 -0.3919 -0.2549
31475SOL    HW197923   1.774   7.850   3.070 -0.7267  0.6020 -0.4307
31475SOL    HW297924   1.889   7.908   2.990 -0.3083 -0.1009 -0.3530
31476SOL     OW97925   2.581   7.555   6.228 -0.1083 -0.3110 -0.2743
31476SOL    HW197926   2.530   7.485   6.187  0.0183 -0.0618 -0.8591
31476SOL    HW297927   2.651   7.509   6.274 -0.8006 -0.6522  0.4758
31477SOL     OW97928   1.814   4.066   9.246  0.4201  0.1964 -0.0524
31477SOL    HW197929   1.896   4.064   9.198  1.6941 -0.1449  1.9970
31477SOL    HW297930   1.776   3.979   9.233  1.4386 -0.3729  0.6343
31478SOL     OW97931   5.543   7.561  10.988 -0.0681 -0.1928  1.1902
31478SOL    HW197932   5.524   7.511  11.067 -1.7599 -0.6620  0.5389
31478SOL    HW297933   5.512   7.649  11.007 -1.9481 -0.6596  0.5805
31479SOL     OW97934   6.087   0.196   6.061  0.4711  0.1474  0.1364
31479SOL    HW197935   5.995   0.215   6.044  1.2165  4.4749 -0.1496
31479SOL    HW297936   6.113   0.139   5.988 -1.4174  0.8073 -1.1332
31480SOL     OW97937   3.922   9.259   6.278 -0.0791 -0.0312  0.2308
31480SOL    HW197938   3.915   9.311   6.358  2.3420  2.2402 -0.9014
31480SOL    HW297939   3.901   9.320   6.208  0.0763 -1.3697 -1.0297
31481SOL     OW97940   2.761   7.850   0.099  0.5896  0.3622  0.0902
31481SOL    HW197941   2.797   7.887   0.180  1.3334 -1.7468  0.7969
31481SOL    HW297942   2.836   7.848   0.039 -0.0296  2.1958 -0.8126
31482SOL     OW97943   5.791   5.366   5.783 -0.1703 -0.4048  0.3563
31482SOL    HW197944   5.822   5.285   5.823  0.3064 -0.1847  0.4458
31482SOL    HW297945   5.871   5.419   5.772 -0.5877  0.4271  1.1863
31483SOL     OW97946   2.444   9.201   3.782  0.2108  0.3585 -0.3944
31483SOL    HW197947   2.527   9.170   3.817 -0.2063 -0.0556  0.2701
31483SOL    HW297948   2.433   9.154   3.699 -1.4367 -3.1577  1.5904
31484SOL     OW97949   1.881   7.611   6.882  0.1146 -0.2027  0.0833
31484SOL    HW197950   1.886   7.523   6.918  0.6365 -0.0903  0.2959
31484SOL    HW297951   1.787   7.628   6.872 -0.1014  0.1099  2.2257
31485SOL     OW97952   0.413   7.053  10.568 -0.1648 -0.4442 -0.3267
31485SOL    HW197953   0.476   7.046  10.639  0.1014  1.4891 -0.3145
31485SOL    HW297954   0.395   6.963  10.542  0.3709 -1.1487  1.6213
31486SOL     OW97955   9.804   8.833   2.736 -0.4155 -0.6502 -0.1570
31486SOL    HW197956   9.783   8.835   2.829 -1.8741  1.5469 -0.4681
31486SOL    HW297957   9.752   8.760   2.701 -1.2719 -0.3545  0.4661
31487SOL     OW97958   8.771  10.843   3.308 -0.9083  0.1094  0.0316
31487SOL    HW197959   8.768  10.884   3.394 -0.4292 -0.5853  0.3821
31487SOL    HW297960   8.680  10.848   3.276 -0.5892  3.0422 -0.7087
31488SOL     OW97961   1.175  10.804   7.724  0.2073  0.1416  0.1068
31488SOL    HW197962   1.178  10.850   7.640  2.3431  0.8665  0.4986
31488SOL    HW297963   1.175  10.873   7.790 -1.1724 -0.4188  0.7292
31489SOL     OW97964   0.520   1.736   6.009 -0.0159  0.0990 -0.0462
31489SOL    HW197965   0.480   1.750   5.923  1.1667 -2.3673 -1.0942
31489SOL    HW297966   0.453   1.762   6.072 -1.1471  1.3521 -1.6816
31490SOL     OW97967   3.301   2.309   5.851  0.0648  1.0264 -0.5354
31490SOL    HW197968   3.354   2.377   5.891  2.3164 -1.2844  0.6804
31490SOL    HW297969   3.324   2.313   5.758  2.8281 -0.1350 -0.0064
31491SOL     OW97970   3.155   1.193   9.418  0.4566  0.3458  0.1003
31491SOL    HW197971   3.232   1.162   9.371  0.8848 -0.5829  1.3507
31491SOL    HW297972   3.091   1.211   9.350  1.4086  0.0857 -0.8954
31492SOL     OW97973   3.487   2.475   0.843 -0.0742  0.5293 -0.2860
31492SOL    HW197974   3.410   2.531   0.835 -1.2749 -0.5241  2.4887
31492SOL    HW297975   3.497   2.461   0.937  1.4904 -2.1062 -0.7297
31493SOL     OW97976   8.472  10.271  10.655  0.3797  0.3691 -0.4285
31493SOL    HW197977   8.430  10.192  10.687  0.8314  0.1536 -0.3785
31493SOL    HW297978   8.524  10.304  10.728  2.6831 -0.9807 -1.3510
31494SOL     OW97979   6.895  10.596  10.655 -0.3841 -0.0460 -0.0219
31494SOL    HW197980   6.904  10.526  10.719 -0.6399  0.5830  0.7211
31494SOL    HW297981   6.954  10.572  10.584  1.0543 -0.0270  1.1140
31495SOL     OW97982   5.673   4.900   7.321 -0.1498 -0.1593 -0.2593
31495SOL    HW197983   5.594   4.850   7.299  0.5552 -0.2790 -2.9332
31495SOL    HW297984   5.652   4.989   7.296  0.5511 -0.2040 -1.0571
31496SOL     OW97985   1.719   5.158   6.142  0.1464  0.1989 -0.4284
31496SOL    HW197986   1.701   5.070   6.108  0.3481 -0.6827  1.6206
31496SOL    HW297987   1.814   5.161   6.153 -0.0054  0.0008  1.1495
31497SOL     OW97988   2.813   7.594   6.992  0.5497 -0.2700 -0.4861
31497SOL    HW197989   2.747   7.611   7.059  2.0012  1.3182  0.6396
31497SOL    HW297990   2.766   7.549   6.923 -1.3763 -0.5120  0.8940
31498SOL     OW97991  10.859   3.151   9.955 -0.1701  0.2473  0.0964
31498SOL    HW197992  10.899   3.076   9.998  1.2661  0.5151 -0.7254
31498SOL    HW297993  10.931   3.195   9.910 -1.3155  0.9995 -1.0744
31499SOL     OW97994   8.654   0.770   9.536  0.1138  0.4314  0.5078
31499SOL    HW197995   8.586   0.705   9.551  0.7347 -0.2106  0.6080
31499SOL    HW297996   8.714   0.759   9.610 -0.2618  1.7728  1.0478
31500SOL     OW97997   1.129   0.812   0.459 -0.0516  0.4291  0.2019
31500SOL    HW197998   1.113   0.873   0.388  3.9427  2.8736  1.0676
31500SOL    HW297999   1.077   0.846   0.532 -3.2302 -1.4176 -0.9968
31501SOL     OW98000   9.479   5.151   3.741 -0.2915 -0.1108  0.5632
31501SOL    HW198001   9.536   5.220   3.775  0.2270 -0.7546  1.0298
31501SOL    HW298002   9.495   5.152   3.646  0.1055  0.0597  0.6275
31502SOL     OW98003   3.050  10.157   6.121 -0.4710 -0.0065  0.2296
31502SOL    HW198004   3.058  10.242   6.163 -0.4745  0.4678 -0.7191
31502SOL    HW298005   2.997  10.173   6.043  0.3289 -0.7022 -0.4738
31503SOL     OW98006   9.562   1.252   2.308 -0.2952  0.6400  0.2011
31503SOL    HW198007   9.499   1.296   2.364 -0.3848 -0.6553  1.1537
31503SOL    HW298008   9.524   1.166   2.291  0.2796  0.5773 -0.8805
31504SOL     OW98009   0.647   9.287   4.891  0.2352 -0.2199 -0.3985
31504SOL    HW198010   0.696   9.364   4.863  0.3540 -0.2736 -0.3382
31504SOL    HW298011   0.614   9.309   4.978  0.5004 -0.3419 -0.2663
31505SOL     OW98012   4.176   5.890   8.918  0.1679 -0.4222  0.2461
31505SOL    HW198013   4.255   5.925   8.878 -0.1434  1.0554  0.8433
31505SOL    HW298014   4.121   5.967   8.934 -1.1930 -1.3634  0.2683
31506SOL     OW98015   9.833   3.497   6.752 -0.3492  0.0446  0.1895
31506SOL    HW198016   9.814   3.508   6.659 -1.6656  0.7066  0.5053
31506SOL    HW298017   9.761   3.542   6.796  0.7629  0.5950  1.5225
31507SOL     OW98018  10.201   1.224   3.572 -0.2097 -0.0662 -0.0241
31507SOL    HW198019  10.112   1.192   3.589 -0.1870  0.0439  0.3221
31507SOL    HW298020  10.204   1.238   3.478 -0.2109 -1.1327 -0.1963
31508SOL     OW98021   2.693   2.379  10.015 -0.2270 -0.5699  0.2505
31508SOL    HW198022   2.766   2.347   9.963  0.2371 -0.3487  0.7521
31508SOL    HW298023   2.728   2.456  10.060 -1.6397  1.4199 -1.8337
31509SOL     OW98024   5.365   8.648   5.386 -0.0244 -0.2632  0.5077
31509SOL    HW198025   5.439   8.657   5.446 -0.7106 -0.6862  1.4404
31509SOL    HW298026   5.316   8.730   5.396  0.4387  0.1270 -0.3025
31510SOL     OW98027   7.528   7.303   3.070  0.3953 -0.3145 -0.3040
31510SOL    HW198028   7.463   7.361   3.110  1.6325  1.1259 -0.2909
31510SOL    HW298029   7.526   7.224   3.124 -0.0594  0.4210  0.8019
31511SOL     OW98030   8.687   3.963   3.287  0.6467 -0.0341 -0.0569
31511SOL    HW198031   8.749   3.936   3.218  0.7656  0.5453 -0.1838
31511SOL    HW298032   8.601   3.959   3.245  0.5086 -1.4901  0.3134
31512SOL     OW98033   5.228   5.583   8.686  0.3432  0.3287  1.2466
31512SOL    HW198034   5.149   5.551   8.730  0.7916 -1.5648  0.7915
31512SOL    HW298035   5.263   5.650   8.744 -1.0934  0.5410  1.9110
31513SOL     OW98036   1.918   0.321   5.098  0.1296 -0.3229 -0.0825
31513SOL    HW198037   1.952   0.375   5.170 -0.0494  0.1019 -0.3148
31513SOL    HW298038   1.942   0.368   5.019 -2.6692  1.0644 -0.2263
31514SOL     OW98039   7.589   6.360  10.708  0.3142  0.3660  0.3149
31514SOL    HW198040   7.507   6.382  10.664  0.1293 -0.1738  0.3826
31514SOL    HW298041   7.652   6.347  10.636 -0.1920 -1.3552  0.1275
31515SOL     OW98042   5.916   2.856   4.670  0.1236  0.2889  0.4094
31515SOL    HW198043   5.981   2.791   4.696 -1.4307 -1.1127  1.0077
31515SOL    HW298044   5.860   2.866   4.748 -1.5491 -0.0886 -0.6926
31516SOL     OW98045   9.970   1.314   4.071 -0.4437  0.0378 -0.0083
31516SOL    HW198046   9.997   1.256   4.142 -1.0048 -0.6304 -0.3333
31516SOL    HW298047   9.928   1.257   4.007 -0.4264  0.7094 -0.6394
31517SOL     OW98048   7.530   3.879   0.662 -0.6973 -0.0992 -0.3654
31517SOL    HW198049   7.536   3.969   0.629 -0.8877 -0.0972 -0.4006
31517SOL    HW298050   7.443   3.874   0.702 -0.2955  0.0234  0.5250
31518SOL     OW98051   3.730   8.511   7.705 -0.0295  0.2464  0.1113
31518SOL    HW198052   3.762   8.535   7.792  1.1405 -0.7139 -0.0236
31518SOL    HW298053   3.683   8.588   7.674 -0.0866  0.7567  1.4128
31519SOL     OW98054   1.699   4.776   3.173  0.4750  0.0935 -0.1527
31519SOL    HW198055   1.640   4.746   3.242 -0.6510 -0.1124 -1.1663
31519SOL    HW298056   1.728   4.696   3.129  0.7119  0.2549 -0.2948
31520SOL     OW98057   2.486   0.315   5.815  0.1153 -0.4093  0.2933
31520SOL    HW198058   2.457   0.402   5.841  1.6165  0.2061 -0.0134
31520SOL    HW298059   2.497   0.319   5.720  3.6788  0.2759  0.5741
31521SOL     OW98060   4.043   4.938   5.697  0.1446 -0.6145 -0.6011
31521SOL    HW198061   4.111   4.873   5.679 -0.3071 -1.1348 -0.4836
31521SOL    HW298062   4.003   4.907   5.779  1.4873  1.1207  0.7839
31522SOL     OW98063  10.237   4.754   0.986  0.6572 -0.0930  0.1358
31522SOL    HW198064  10.141   4.760   0.990  0.6442 -0.0870 -0.1547
31522SOL    HW298065  10.263   4.731   1.075  0.3747 -0.2274  0.1874
31523SOL     OW98066   0.862   4.429   5.667  0.0315 -0.4458 -0.7379
31523SOL    HW198067   0.782   4.449   5.618 -1.7621 -1.3031  1.6352
31523SOL    HW298068   0.843   4.346   5.711  2.1748 -0.5883  0.0513
31524SOL     OW98069   4.685   2.189   5.529  0.6994 -0.1639  0.1858
31524SOL    HW198070   4.616   2.127   5.505 -0.6368  1.1943  0.3735
31524SOL    HW298071   4.661   2.218   5.617 -0.7589  3.2148 -1.1474
31525SOL     OW98072   1.826   6.741   8.570  0.2648  0.7251  0.2423
31525SOL    HW198073   1.856   6.675   8.632 -0.6230  0.3729  0.3235
31525SOL    HW298074   1.822   6.696   8.486  1.2407  1.1381 -0.0415
31526SOL     OW98075   0.199   5.868  10.510  0.5737 -0.2907  0.8062
31526SOL    HW198076   0.158   5.893  10.427  0.8169  0.0466  0.7860
31526SOL    HW298077   0.139   5.899  10.577  2.3672  3.3794  0.9239
31527SOL     OW98078   7.860   1.214   5.702 -0.5411 -0.0233 -0.3611
31527SOL    HW198079   7.871   1.285   5.638  1.8618 -0.0450 -0.0464
31527SOL    HW298080   7.917   1.144   5.670  1.0644  0.1239  1.9537
31528SOL     OW98081   1.163   7.717   2.898 -0.1026  0.5404  0.3761
31528SOL    HW198082   1.245   7.729   2.946  1.2475  1.3886 -1.9575
31528SOL    HW298083   1.190   7.710   2.807 -2.6050  0.1010 -0.4027
31529SOL     OW98084   8.720   8.863   9.700  0.2645 -0.0093 -0.5505
31529SOL    HW198085   8.713   8.769   9.688 -2.7233  0.0265  0.1941
31529SOL    HW298086   8.715   8.876   9.795 -2.1934  0.9480 -0.7237
31530SOL     OW98087   5.264  10.147  10.566 -0.0843 -0.1511 -0.4299
31530SOL    HW198088   5.338  10.151  10.504  0.2991  3.0877  0.1047
31530SOL    HW298089   5.200  10.208  10.531 -0.5481  0.5421  1.5086
31531SOL     OW98090   9.474   7.218   0.148 -0.4986 -0.1308 -0.4902
31531SOL    HW198091   9.390   7.227   0.103 -0.9105  0.1234  0.3214
31531SOL    HW298092   9.538   7.245   0.082 -1.1733  1.3125 -0.5895
31532SOL     OW98093   3.521   2.517   5.855  0.3481 -0.4002 -0.0777
31532SOL    HW198094   3.493   2.569   5.780 -0.0288  0.1998  0.4754
31532SOL    HW298095   3.592   2.462   5.821  2.9068  2.5742 -0.0578
31533SOL     OW98096   0.220   7.521   2.782  0.2822  0.0875  0.0230
31533SOL    HW198097   0.175   7.455   2.729  0.4097  0.1798 -0.2056
31533SOL    HW298098   0.271   7.471   2.845  0.0554 -0.0224  0.1182
31534SOL     OW98099   5.943   4.902   9.537  0.3429 -0.4443 -0.2190
31534SOL    HW198100   5.935   4.995   9.518  1.6665 -0.1504  0.5030
31534SOL    HW298101   5.942   4.859   9.451 -1.8495  0.0506 -0.4940
31535SOL     OW98102   7.608   7.274   0.262 -0.6591 -0.1097 -0.2212
31535SOL    HW198103   7.643   7.363   0.265  0.3814 -0.5224  1.3367
31535SOL    HW298104   7.639   7.238   0.179 -0.4133  0.7264 -0.4976
31536SOL     OW98105   1.550   9.352  10.805  0.4646  0.3023 -0.6888
31536SOL    HW198106   1.545   9.257  10.814  0.1990  0.4162  0.6094
31536SOL    HW298107   1.612   9.379  10.873  0.2512  1.0832 -0.7947
31537SOL     OW98108  10.798   2.468  10.133 -0.4785  0.0066 -0.1922
31537SOL    HW198109  10.741   2.407  10.086 -0.8007  1.2809 -1.5451
31537SOL    HW298110  10.750   2.551  10.133 -0.1365  0.2345  1.7732
31538SOL     OW98111   2.352   6.852   0.194 -0.5649 -0.6817  0.2506
31538SOL    HW198112   2.323   6.876   0.106 -0.2673 -0.7837  0.1231
31538SOL    HW298113   2.274   6.817   0.237 -0.2811 -2.5383 -0.6479
31539SOL     OW98114   8.130   1.105   3.092 -0.0281 -0.0645  0.3379
31539SOL    HW198115   8.088   1.122   3.176  1.0347  0.0238  0.8594
31539SOL    HW298116   8.113   1.013   3.075 -0.7814  0.0637  0.3293
31540SOL     OW98117   0.228   8.473   7.509  0.4497 -0.4591 -0.1910
31540SOL    HW198118   0.137   8.444   7.508 -0.5147  2.2708 -0.5324
31540SOL    HW298119   0.237   8.519   7.593  1.5801 -0.8163 -0.0958
31541SOL     OW98120   9.346   2.541   4.028 -0.2122  0.1366 -0.2567
31541SOL    HW198121   9.359   2.454   4.066  1.2772 -0.4080 -1.9057
31541SOL    HW298122   9.363   2.530   3.935 -1.4938  1.9082 -0.7610
31542SOL     OW98123   7.088   8.071   8.732 -0.7683  0.0867  0.3865
31542SOL    HW198124   7.132   7.986   8.725  0.1982  0.5202  0.9566
31542SOL    HW298125   7.138   8.128   8.674 -1.4578  0.2600 -0.0458
31543SOL     OW98126   5.655   4.460   0.735 -0.2785  0.0508 -0.4432
31543SOL    HW198127   5.632   4.550   0.715  0.0928 -0.0740 -1.4928
31543SOL    HW298128   5.584   4.408   0.698 -0.5997 -0.0809  0.3461
31544SOL     OW98129   0.331   5.459  10.055 -0.5218  0.4408 -0.2022
31544SOL    HW198130   0.421   5.491  10.050 -1.3972  3.1461 -0.3723
31544SOL    HW298131   0.334   5.384  10.115  1.9860 -0.3284 -1.1772
31545SOL     OW98132   2.446   8.970   7.611  0.0834  0.1172  0.1968
31545SOL    HW198133   2.359   8.945   7.645  0.5750 -0.1013  1.3388
31545SOL    HW298134   2.459   9.059   7.644  0.9819 -0.4538  1.4537
31546SOL     OW98135   3.290   5.612   9.718  0.2359  0.3091  0.5731
31546SOL    HW198136   3.335   5.633   9.800 -1.8545  1.2820  1.5750
31546SOL    HW298137   3.354   5.631   9.650  1.8301  0.1032  1.9499
31547SOL     OW98138  10.152   3.763   6.561 -0.3255  0.1999 -0.1101
31547SOL    HW198139  10.184   3.816   6.634 -1.1341 -0.0210  0.4183
31547SOL    HW298140  10.231   3.738   6.512  0.1189  1.3619 -0.0137
31548SOL     OW98141   5.335   7.104   7.346 -0.7209  1.0831 -0.1287
31548SOL    HW198142   5.316   7.131   7.436 -1.3108  1.5257 -0.3734
31548SOL    HW298143   5.309   7.180   7.293  1.5636  1.6473 -0.5345
31549SOL     OW98144   0.026   0.925   1.167 -0.1066 -0.4140  0.0035
31549SOL    HW198145   0.029   0.953   1.259 -2.1051  3.7748 -0.9491
31549SOL    HW298146  -0.066   0.934   1.142  0.1715 -2.6577 -2.1860
31550SOL     OW98147   7.547   7.599   2.771  0.0438  0.2758 -0.1114
31550SOL    HW198148   7.468   7.641   2.738 -0.5822 -0.9183 -0.2083
31550SOL    HW298149   7.527   7.505   2.769  1.2880 -0.0256  0.3210
31551SOL     OW98150   5.347   1.202   5.646 -0.9002  0.0674 -0.3451
31551SOL    HW198151   5.273   1.248   5.686  0.0873  1.3865  0.0419
31551SOL    HW298152   5.309   1.157   5.570 -2.1066  0.6440 -0.1103
31552SOL     OW98153  10.857  10.738   5.284  0.2776  0.5571 -0.4049
31552SOL    HW198154  10.933  10.708   5.236 -0.5284 -1.5343 -0.4658
31552SOL    HW298155  10.892  10.769   5.368  1.4420  2.1613 -1.4429
31553SOL     OW98156   3.566  10.714   2.718 -0.5090  0.0835 -0.3317
31553SOL    HW198157   3.552  10.650   2.648  0.6877 -1.1471  0.4964
31553SOL    HW298158   3.581  10.796   2.672  1.3546 -0.8846 -1.6466
31554SOL     OW98159   8.311   1.579   4.097  0.1263 -0.0851  0.1460
31554SOL    HW198160   8.393   1.627   4.088 -0.0694  0.0809 -0.9330
31554SOL    HW298161   8.243   1.645   4.086 -0.1547 -0.2756  0.7106
31555SOL     OW98162   8.350  10.910   4.335 -0.0042  0.0566  0.2297
31555SOL    HW198163   8.361  10.962   4.255 -0.3593 -0.6047 -0.2584
31555SOL    HW298164   8.312  10.828   4.305 -0.1068 -0.2156  1.0812
31556SOL     OW98165  10.378   4.367   9.581 -0.1376 -0.0131 -0.1666
31556SOL    HW198166  10.355   4.388   9.671  0.6145 -0.5655  0.1745
31556SOL    HW298167  10.424   4.444   9.549  0.4285 -0.1694  0.2486
31557SOL     OW98168   0.235   2.342   6.185 -0.0338  0.1708  0.1607
31557SOL    HW198169   0.168   2.365   6.121  0.1945  1.4274  0.3509
31557SOL    HW298170   0.262   2.253   6.160  1.2394  1.2029 -2.5351
31558SOL     OW98171   6.506   0.378   2.416 -0.1894  0.4037  0.0830
31558SOL    HW198172   6.436   0.321   2.447 -0.1655 -0.1851 -0.8810
31558SOL    HW298173   6.585   0.342   2.454 -0.3361  0.6969  0.6745
31559SOL     OW98174   4.946  10.344   6.385 -0.2582 -0.1145 -0.5712
31559SOL    HW198175   5.013  10.279   6.366 -0.4574 -0.9239  1.3617
31559SOL    HW298176   4.989  10.428   6.370  0.6721 -0.6451 -0.9423
31560SOL     OW98177   8.232  10.821   9.880 -0.4555  0.2028 -0.2275
31560SOL    HW198178   8.318  10.795   9.847 -1.1352 -0.5232 -1.5114
31560SOL    HW298179   8.195  10.877   9.811 -2.5553 -2.6173 -1.6012
31561SOL     OW98180   7.653   6.359   9.851  0.0953  0.0927 -0.6650
31561SOL    HW198181   7.744   6.370   9.878 -0.2091  2.4890 -0.4212
31561SOL    HW298182   7.658   6.318   9.765  1.5299  1.9580 -1.5375
31562SOL     OW98183   4.891   4.209   7.443 -0.0464 -0.0911  0.1037
31562SOL    HW198184   4.818   4.271   7.447  2.0773  2.5998 -0.1453
31562SOL    HW298185   4.880   4.166   7.358 -1.6147 -0.1429  0.2965
31563SOL     OW98186  10.518   4.173   5.842 -0.0864 -0.1373  0.5266
31563SOL    HW198187  10.483   4.229   5.772 -0.2208  0.1584  0.8275
31563SOL    HW298188  10.507   4.084   5.809  0.8351  0.0331 -0.2982
31564SOL     OW98189   4.960   0.534   4.524 -0.0772  0.4496 -0.0386
31564SOL    HW198190   4.952   0.500   4.614  0.3879  1.5608  0.4389
31564SOL    HW298191   4.946   0.628   4.533 -0.1438  0.5555 -1.1644
31565SOL     OW98192   9.517   9.546   4.510  0.7997  0.3000 -0.5641
31565SOL    HW198193   9.464   9.477   4.550 -0.7959  2.0811  0.5796
31565SOL    HW298194   9.453   9.613   4.485  2.5182  3.3609  2.4344
31566SOL     OW98195   7.980   9.397   0.600  0.4263  0.0310 -0.4693
31566SOL    HW198196   7.963   9.482   0.559  3.5214  0.1841 -1.7144
31566SOL    HW298197   7.977   9.415   0.694 -1.4799  0.8751 -0.6318
31567SOL     OW98198   1.669   8.429   2.378 -0.1340  0.2843  0.5752
31567SOL    HW198199   1.623   8.441   2.462  0.2847  2.5729  0.5471
31567SOL    HW298200   1.600   8.437   2.312 -0.1482  0.6928  0.6362
31568SOL     OW98201   5.046   8.706   5.825 -0.0170  0.5045  0.6732
31568SOL    HW198202   4.958   8.672   5.809 -0.8417  2.1365  1.5122
31568SOL    HW298203   5.032   8.790   5.868  1.9731 -0.1768  2.8652
31569SOL     OW98204   9.808   1.411   3.556 -0.2893  0.3686 -0.0106
31569SOL    HW198205   9.862   1.443   3.483  0.2943  0.3492  0.4072
31569SOL    HW298206   9.815   1.479   3.622  2.1378 -1.1618  1.4828
31570SOL     OW98207   1.581   8.851   4.039 -0.2197 -0.1740 -0.0246
31570SOL    HW198208   1.559   8.930   4.087  0.6195  0.4010 -0.5454
31570SOL    HW298209   1.566   8.873   3.947  1.0575 -0.2273 -0.2744
31571SOL     OW98210   0.872   8.179   8.172 -0.0531  0.2887 -0.0303
31571SOL    HW198211   0.901   8.113   8.109 -0.9045 -0.8456  0.7300
31571SOL    HW298212   0.824   8.130   8.238  1.1831  1.3688  1.7697
31572SOL     OW98213   6.497   8.816   3.715  0.0506 -0.1005 -1.0398
31572SOL    HW198214   6.572   8.784   3.664 -0.3235  0.1146 -1.7477
31572SOL    HW298215   6.535   8.847   3.797  0.7816  0.3024 -1.5177
31573SOL     OW98216   6.973   2.246  10.086 -0.3831 -0.3554  0.3537
31573SOL    HW198217   6.978   2.150  10.091  0.4236 -0.3620 -0.2393
31573SOL    HW298218   6.967   2.275  10.177  0.7523 -0.9279  0.6378
31574SOL     OW98219   1.126   8.229   3.926  0.4742  0.3107 -0.8713
31574SOL    HW198220   1.121   8.218   3.831  1.3872 -0.4832 -0.8362
31574SOL    HW298221   1.219   8.221   3.947  0.2720  0.3420  0.1062
31575SOL     OW98222   2.606   8.235   5.556 -0.2030 -0.1313  0.2758
31575SOL    HW198223   2.648   8.201   5.635 -2.0697 -3.6249 -0.0062
31575SOL    HW298224   2.663   8.206   5.484  0.1032  0.6757  0.1847
31576SOL     OW98225   8.943   6.076   6.941 -0.1816 -0.5023  0.1162
31576SOL    HW198226   8.921   6.158   6.986 -0.7896 -0.9926  0.7295
31576SOL    HW298227   8.875   6.067   6.874  0.2283 -0.2104 -0.3456
31577SOL     OW98228   8.673   4.106   5.765  0.1774 -0.6609 -0.5836
31577SOL    HW198229   8.657   4.017   5.796  0.1496 -0.7264 -0.7850
31577SOL    HW298230   8.663   4.101   5.670 -0.6087 -0.2866 -0.5341
31578SOL     OW98231   0.604   2.507   1.465 -0.2324  0.1301  0.3653
31578SOL    HW198232   0.538   2.500   1.396  1.2880  1.6650 -1.3657
31578SOL    HW298233   0.554   2.527   1.544 -2.0081 -1.2863 -0.3272
31579SOL     OW98234   1.966   8.490   1.850  0.7282 -0.0116  0.0166
31579SOL    HW198235   2.032   8.548   1.813  1.4630 -0.1588  1.0471
31579SOL    HW298236   2.014   8.410   1.871 -0.2931 -1.0887 -1.5189
31580SOL     OW98237  10.013   5.635   3.535 -0.0736 -0.1672  0.5435
31580SOL    HW198238   9.944   5.569   3.541 -0.0504 -0.1573  0.9169
31580SOL    HW298239  10.058   5.632   3.620  0.4889 -0.2863  0.2522
31581SOL     OW98240   7.134   9.748   2.415  0.2781  0.3619 -0.1677
31581SOL    HW198241   7.135   9.789   2.502 -0.6540  0.2392 -0.0890
31581SOL    HW298242   7.220   9.708   2.407 -0.1455 -0.9526  1.3559
31582SOL     OW98243   5.384   0.953  10.524 -0.0452  0.1879 -0.6627
31582SOL    HW198244   5.376   1.048  10.514  3.2929  0.6800  0.1641
31582SOL    HW298245   5.471   0.940  10.562 -0.5997 -3.2014 -0.2401
31583SOL     OW98246   0.097   7.837   7.014 -0.3163 -0.1667  0.0920
31583SOL    HW198247   0.095   7.792   6.930  0.2308  0.0611 -0.0462
31583SOL    HW298248   0.114   7.768   7.078  1.1896 -0.0800 -0.1878
31584SOL     OW98249   9.909   7.806   6.945  0.7378 -0.0577  0.0415
31584SOL    HW198250   9.951   7.882   6.985  0.6256 -0.0297  0.1081
31584SOL    HW298251   9.858   7.842   6.872  0.5176 -0.0413  0.2012
31585SOL     OW98252   4.495   5.125   2.368 -0.0833 -0.1881 -0.1001
31585SOL    HW198253   4.529   5.066   2.436 -0.1788  0.6738  0.7205
31585SOL    HW298254   4.400   5.117   2.375 -0.0960 -1.2200 -1.1620
31586SOL     OW98255   2.561   6.559   5.074 -0.4091  0.8918 -0.0030
31586SOL    HW198256   2.602   6.644   5.063 -0.8679  1.6203  2.9892
31586SOL    HW298257   2.631   6.496   5.056  0.3105  1.9096 -0.8794
31587SOL     OW98258   3.440   6.883   0.216  0.5233  0.0190  0.7620
31587SOL    HW198259   3.448   6.959   0.274 -1.4409 -1.3676  3.0737
31587SOL    HW298260   3.347   6.882   0.191  1.2539  0.4017 -2.3384
31588SOL     OW98261   8.125   6.304   4.694 -0.9209  0.3645  0.1957
31588SOL    HW198262   8.106   6.219   4.655 -0.7346 -0.0170  0.9129
31588SOL    HW298263   8.192   6.286   4.760  0.3228  1.3339 -0.7576
31589SOL     OW98264   3.512  10.152   4.060 -0.1368  0.7169  0.6226
31589SOL    HW198265   3.491  10.215   3.992  0.4659  1.3671  1.0294
31589SOL    HW298266   3.598  10.178   4.092  0.6182 -0.9337  0.0874
31590SOL     OW98267  10.912   0.356   1.512  0.0388 -0.4660 -0.4387
31590SOL    HW198268  10.834   0.304   1.490  0.4765 -1.7596  0.8443
31590SOL    HW298269  10.896   0.384   1.602 -0.1387  1.6191 -1.0825
31591SOL     OW98270   9.783   3.090   0.415 -0.0837 -0.4662  0.0091
31591SOL    HW198271   9.712   3.149   0.439  1.4202  1.5007 -0.1165
31591SOL    HW298272   9.769   3.013   0.470 -0.9848  0.8369  1.7288
31592SOL     OW98273   6.011   1.553   2.118  0.6809  0.3790  0.1600
31592SOL    HW198274   5.947   1.617   2.086  1.4719  1.3767  0.5034
31592SOL    HW298275   6.059   1.600   2.187  1.7674 -0.3421 -0.0829
31593SOL     OW98276   5.708   4.919   9.283  0.2178 -0.3367  0.0844
31593SOL    HW198277   5.757   4.944   9.205 -0.0800  0.2063  0.0680
31593SOL    HW298278   5.744   4.834   9.308 -0.7095 -1.2643 -1.5377
31594SOL     OW98279   3.944   2.961   7.848  0.0008  0.1413  0.1247
31594SOL    HW198280   3.892   2.882   7.861  1.5647 -1.0186 -0.3243
31594SOL    HW298281   3.904   3.004   7.773  0.2634 -1.2496 -0.8426
31595SOL     OW98282   4.658   2.624   0.792  0.5985  0.1456 -0.1978
31595SOL    HW198283   4.747   2.594   0.808  1.2297  1.0773 -1.7234
31595SOL    HW298284   4.660   2.717   0.815 -0.2866 -0.0631  0.7801
31596SOL     OW98285   2.946   4.703   1.395 -0.1360  0.2504  0.5137
31596SOL    HW198286   2.992   4.746   1.466 -0.2671  2.1155 -0.4681
31596SOL    HW298287   2.994   4.729   1.316 -1.2339 -0.0323 -0.2703
31597SOL     OW98288   2.990   1.597   2.307  0.2851 -0.0797  0.3046
31597SOL    HW198289   2.971   1.656   2.233  0.8270 -1.8448 -1.3105
31597SOL    HW298290   3.055   1.536   2.273  0.7276 -0.8196  2.3498
31598SOL     OW98291   6.569   7.544   5.333  0.5070  0.3149  0.0203
31598SOL    HW198292   6.632   7.473   5.347  0.5687  0.7222  2.1539
31598SOL    HW298293   6.622   7.614   5.294  1.5336  0.7570  2.0473
31599SOL     OW98294   3.194   9.939   9.824  0.3350 -0.6945  0.4445
31599SOL    HW198295   3.231   9.877   9.886  1.3774 -0.7433 -0.2079
31599SOL    HW298296   3.102   9.948   9.850  0.5418 -1.3853  1.4338
31600SOL     OW98297   2.639   6.333   2.599  0.1030  0.3599 -0.1536
31600SOL    HW198298   2.570   6.284   2.556  0.9223  0.7919 -2.0347
31600SOL    HW298299   2.719   6.305   2.556  1.1598 -0.1523  2.0047
31601SOL     OW98300   6.789   2.991   3.192  0.3962  0.3401 -0.0652
31601SOL    HW198301   6.844   2.967   3.118  0.5796  1.9689 -0.5077
31601SOL    HW298302   6.700   2.971   3.163  0.5335  0.2213 -0.4063
31602SOL     OW98303   1.122   3.060   6.835 -0.2344  0.0014 -0.0685
31602SOL    HW198304   1.118   3.133   6.897  0.9535  1.4001 -1.5603
31602SOL    HW298305   1.091   3.097   6.752  0.8080 -1.0646 -0.9673
31603SOL     OW98306  10.620  10.547   4.158 -0.0421 -0.6546 -0.1530
31603SOL    HW198307  10.614  10.623   4.100 -0.3618  0.5171  1.3607
31603SOL    HW298308  10.697  10.563   4.212  1.7790 -2.9542 -1.8462
31604SOL     OW98309   2.452   8.512  10.295  0.0745  0.3582 -0.0128
31604SOL    HW198310   2.522   8.456  10.262 -0.2483 -1.3161  1.9507
31604SOL    HW298311   2.486   8.601  10.287  1.5764 -0.2701 -1.0090
31605SOL     OW98312   6.691   6.496  10.907 -0.3831  0.2243  0.5225
31605SOL    HW198313   6.674   6.538  10.991 -0.5867 -0.1790  0.6854
31605SOL    HW298314   6.746   6.558  10.860 -0.1078  0.3687  1.0288
31606SOL     OW98315   2.046   2.934   5.043  0.1155 -0.1011 -0.1603
31606SOL    HW198316   2.036   2.968   4.954 -0.4932 -0.4165 -0.2129
31606SOL    HW298317   2.068   3.011   5.095 -0.9423  0.3352 -0.3335
31607SOL     OW98318   8.698   3.422   4.279  0.7176 -1.1931  0.2989
31607SOL    HW198319   8.720   3.386   4.365  0.4869 -0.5821  0.6213
31607SOL    HW298320   8.614   3.465   4.292  2.0540  1.5504  0.5513
31608SOL     OW98321  10.506   5.325   5.139 -0.3628 -0.0601 -0.5908
31608SOL    HW198322  10.425   5.341   5.188 -0.2858  1.3510 -0.9119
31608SOL    HW298323  10.575   5.363   5.194  0.0119 -0.5793 -0.6880
31609SOL     OW98324   5.118   8.512   5.384  0.2240 -0.1748  0.3638
31609SOL    HW198325   5.204   8.551   5.370  0.2936 -0.5817 -0.3530
31609SOL    HW298326   5.113   8.439   5.322 -1.1524  0.6445 -0.5440
31610SOL     OW98327   1.114   7.697   6.992 -0.3331 -0.6130 -0.4992
31610SOL    HW198328   1.029   7.687   7.035  0.9900 -2.6314  1.9375
31610SOL    HW298329   1.106   7.645   6.911 -1.4409 -0.6768 -0.3622
31611SOL     OW98330  10.636   8.309   8.685 -0.0298  0.6306  0.0087
31611SOL    HW198331  10.665   8.355   8.606  1.4660  0.5102  0.4592
31611SOL    HW298332  10.714   8.304   8.740 -1.0982  0.9454  1.6243
31612SOL     OW98333   2.792  10.017   4.348  0.3220 -0.2056 -0.2313
31612SOL    HW198334   2.702  10.043   4.364  0.7425  0.8883  0.5345
31612SOL    HW298335   2.788   9.960   4.272 -1.0545 -0.5268  0.0586
31613SOL     OW98336   3.721   1.997   7.012 -0.4623 -0.4442  0.4811
31613SOL    HW198337   3.756   2.085   6.998 -2.6442  0.4031 -0.0226
31613SOL    HW298338   3.772   1.962   7.085  0.2641  1.3449  0.8702
31614SOL     OW98339  10.355   6.119   4.178  0.6778  0.2656 -0.3547
31614SOL    HW198340  10.397   6.105   4.093  1.1953  0.8671 -0.2048
31614SOL    HW298341  10.405   6.065   4.239  0.7921  0.4298 -0.3015
31615SOL     OW98342   8.997   4.522   9.235 -0.3179 -0.0034  0.0598
31615SOL    HW198343   9.078   4.561   9.202 -0.3452  0.0194  0.0193
31615SOL    HW298344   8.948   4.499   9.156  0.4169 -1.6579  0.0412
31616SOL     OW98345   0.401  10.142   4.297 -0.0061  0.3716 -0.0901
31616SOL    HW198346   0.496  10.132   4.306  0.0564 -1.3629 -1.8993
31616SOL    HW298347   0.365  10.100   4.375  0.6750  1.3998  0.8148
31617SOL     OW98348   9.766   1.761   1.914 -0.6394 -0.8330  0.2456
31617SOL    HW198349   9.788   1.764   2.007  2.0880 -0.4938 -0.3382
31617SOL    HW298350   9.850   1.766   1.869 -1.9570  0.5358 -2.2820
31618SOL     OW98351   9.889   6.009   5.681 -0.2130  0.6107 -0.5144
31618SOL    HW198352   9.820   5.968   5.733  0.8927 -0.9328 -0.1798
31618SOL    HW298353   9.854   6.094   5.657 -1.0825  1.1161  2.1750
31619SOL     OW98354   2.083   8.011   2.247 -0.8149  0.5009  0.4776
31619SOL    HW198355   2.020   8.004   2.319 -1.9906 -2.1041 -0.6856
31619SOL    HW298356   2.147   7.943   2.265 -0.5378  0.5239 -0.4154
31620SOL     OW98357   8.062   3.858   0.646 -0.1990  0.1967  0.2191
31620SOL    HW198358   8.035   3.767   0.635 -1.1196  0.5653 -0.7717
31620SOL    HW298359   8.085   3.866   0.739  0.9451 -1.3025  0.1011
31621SOL     OW98360   3.087   7.163   4.820  0.0177  0.3432 -0.3912
31621SOL    HW198361   3.058   7.073   4.805  2.1603 -0.2651 -1.3475
31621SOL    HW298362   3.108   7.167   4.913 -0.7493  0.0839 -0.1986
31622SOL     OW98363   1.571  10.776   4.338  0.2787  0.3381  0.2686
31622SOL    HW198364   1.484  10.816   4.337  0.8372  1.6621 -1.2456
31622SOL    HW298365   1.555  10.682   4.338 -1.2105  0.5259 -1.6509
31623SOL     OW98366   2.591   5.402   2.148  0.2043 -0.2803  0.2829
31623SOL    HW198367   2.585   5.477   2.089 -0.1809 -0.3116  0.2778
31623SOL    HW298368   2.601   5.327   2.090  1.1031 -0.1892  0.3042
31624SOL     OW98369  10.600   7.170   0.042  0.1671  0.1412 -0.1798
31624SOL    HW198370  10.576   7.144  -0.047  0.2332  1.8227 -0.7226
31624SOL    HW298371  10.691   7.200   0.035  0.5477 -0.7445  0.6988
31625SOL     OW98372   3.264   3.531   9.850 -0.1530  0.3617  0.2672
31625SOL    HW198373   3.214   3.451   9.837  1.4357 -0.7222  0.5561
31625SOL    HW298374   3.310   3.517   9.933  0.6472  1.3086 -0.0032
31626SOL     OW98375  10.596   2.634  10.372  0.6286 -0.3530  0.6465
31626SOL    HW198376  10.541   2.673  10.439 -1.1521 -1.2932 -0.1761
31626SOL    HW298377  10.551   2.654  10.290  1.5559 -1.1161 -0.0708
31627SOL     OW98378   9.092   6.504   0.176  0.2495  0.2032  0.2833
31627SOL    HW198379   9.007   6.463   0.191  0.1727  0.7140  1.3113
31627SOL    HW298380   9.118   6.538   0.261  2.0066 -0.9198  0.2490
31628SOL     OW98381   5.004   1.008   0.817 -0.0267 -0.3239 -0.5747
31628SOL    HW198382   4.962   0.942   0.871  0.3753  0.6682  1.0162
31628SOL    HW298383   4.976   0.988   0.728 -0.7371 -1.9854 -0.0058
31629SOL     OW98384   9.277   2.943   3.080  0.7652 -0.0457 -0.5365
31629SOL    HW198385   9.331   2.885   3.026  1.5416 -1.9171  2.0540
31629SOL    HW298386   9.339   3.006   3.116  0.7370 -0.4025  0.1548
31630SOL     OW98387   6.734   3.256   7.786  0.3046 -0.1903  0.1446
31630SOL    HW198388   6.685   3.338   7.786 -1.6096 -1.2138  2.1794
31630SOL    HW298389   6.695   3.204   7.716 -1.2627 -0.8032  1.4195
31631SOL     OW98390   5.123   6.628   1.811  0.3197 -0.3500  0.6378
31631SOL    HW198391   5.214   6.637   1.782  0.6024  0.5416  1.7217
31631SOL    HW298392   5.129   6.619   1.906 -0.7646  0.5336  0.8157
31632SOL     OW98393   2.519  10.468   7.779 -0.5139 -0.8999 -0.0590
31632SOL    HW198394   2.462  10.502   7.710 -1.7908 -1.0440  0.8851
31632SOL    HW298395   2.556  10.388   7.742  1.0331  0.4483 -1.5872
31633SOL     OW98396   5.108   7.305  10.355  0.2660 -0.2360  0.0514
31633SOL    HW198397   5.142   7.322  10.442  1.7449 -0.7065 -0.3983
31633SOL    HW298398   5.066   7.386  10.329  2.0017  0.7819  0.2547
31634SOL     OW98399   9.326  10.104   8.535  0.5215  0.4412 -0.1745
31634SOL    HW198400   9.418  10.080   8.531  0.3996 -0.1961  0.6224
31634SOL    HW298401   9.319  10.184   8.483  1.3418 -0.0441 -1.0706
31635SOL     OW98402   9.072   3.743   6.101  0.1962  0.2144 -0.3930
31635SOL    HW198403   9.042   3.718   6.014  0.6903  1.9282 -1.1043
31635SOL    HW298404   9.120   3.825   6.087  0.2576  0.5498  1.4897
31636SOL     OW98405   7.891   8.959  10.475  0.1866  0.3987  0.0466
31636SOL    HW198406   7.796   8.967  10.481 -0.2010 -2.6189 -0.5829
31636SOL    HW298407   7.911   8.981  10.384  0.0652  0.7089  0.0922
31637SOL     OW98408   3.838   8.811   0.915 -0.3031 -0.4772  0.5882
31637SOL    HW198409   3.814   8.719   0.903 -1.4783 -0.0606 -0.4616
31637SOL    HW298410   3.791   8.857   0.846  0.5909  0.8760  0.8486
31638SOL     OW98411   9.219   7.203   4.248  0.2363 -0.0641  0.1635
31638SOL    HW198412   9.209   7.294   4.276 -0.3116 -0.0410 -0.0963
31638SOL    HW298413   9.307   7.199   4.211 -0.5159  0.9344 -1.8937
31639SOL     OW98414   4.410   9.648   6.866 -0.1704  0.3653  0.0038
31639SOL    HW198415   4.438   9.661   6.775  0.8901 -2.6537 -0.1913
31639SOL    HW298416   4.344   9.578   6.861  1.2747 -1.2132  1.6860
31640SOL     OW98417   1.512   8.372  10.646 -0.0238  0.0371  0.3376
31640SOL    HW198418   1.527   8.443  10.709  2.2480 -0.2994  0.2565
31640SOL    HW298419   1.550   8.295  10.687  0.8915 -0.3337 -1.1354
31641SOL     OW98420   3.700   9.611   3.896 -0.0134 -0.2981 -0.2811
31641SOL    HW198421   3.618   9.621   3.847 -0.8833  2.2297  1.4590
31641SOL    HW298422   3.678   9.553   3.969 -0.8477  1.6564  1.1263
31642SOL     OW98423   7.706   5.776   7.218  0.2906  0.3846  0.6294
31642SOL    HW198424   7.654   5.804   7.142  0.9300 -0.6687 -0.2228
31642SOL    HW298425   7.757   5.854   7.242  0.9044  0.4364 -0.7311
31643SOL     OW98426   0.885  10.488   3.920 -0.1579  0.2512 -0.1469
31643SOL    HW198427   0.838  10.467   4.001  0.1333  0.3430  0.0477
31643SOL    HW298428   0.906  10.581   3.929 -0.3382  0.3226 -0.4397
31644SOL     OW98429   6.157   4.798   1.163 -0.1394  0.2092  0.1384
31644SOL    HW198430   6.095   4.871   1.168 -0.0030  0.2485  1.5314
31644SOL    HW298431   6.225   4.828   1.103 -0.9055  0.5764 -0.5816
31645SOL     OW98432   7.681   2.259   3.843 -0.1465 -0.8559  0.0395
31645SOL    HW198433   7.597   2.243   3.799 -0.4029  0.3234  0.0632
31645SOL    HW298434   7.716   2.172   3.859 -0.6341 -1.3541 -1.3792
31646SOL     OW98435   4.215   5.712   4.053 -0.5498  0.5410  0.3504
31646SOL    HW198436   4.249   5.652   4.119 -0.1812  0.7417  0.3504
31646SOL    HW298437   4.214   5.797   4.097  1.8839  1.1408 -0.5496
31647SOL     OW98438   3.760   5.588   6.680  0.3955 -0.1840 -0.3218
31647SOL    HW198439   3.706   5.547   6.612  0.4575 -0.7847 -0.0192
31647SOL    HW298440   3.812   5.653   6.633 -1.5638  1.3832 -0.4052
31648SOL     OW98441   8.664   7.155   0.122 -0.2842  0.1705 -0.0677
31648SOL    HW198442   8.684   7.203   0.202 -0.0601  1.4715 -0.8758
31648SOL    HW298443   8.638   7.068   0.152 -1.0057  0.8801  1.4620
31649SOL     OW98444   0.563   7.566   9.746 -0.1693  0.4535 -0.0839
31649SOL    HW198445   0.653   7.597   9.759 -0.2394  0.8002 -0.4279
31649SOL    HW298446   0.535   7.537   9.833  0.2780  0.3343  0.0231
31650SOL     OW98447   3.348   6.643   6.208  0.4266 -1.1210 -0.0019
31650SOL    HW198448   3.321   6.599   6.128  0.8415  1.2980 -1.5909
31650SOL    HW298449   3.270   6.639   6.264 -0.8751 -0.5193 -1.6504
31651SOL     OW98450   3.362   5.633   5.627 -0.8237  0.0108  0.5847
31651SOL    HW198451   3.435   5.612   5.568 -2.3828  1.6078 -2.1213
31651SOL    HW298452   3.285   5.631   5.571 -2.5417  1.0154  2.7675
31652SOL     OW98453   9.504   1.705   8.173  0.6679  0.3323  0.0246
31652SOL    HW198454   9.440   1.774   8.186  0.4627  0.2653 -0.5678
31652SOL    HW298455   9.569   1.718   8.241  1.1994  1.7592 -0.7217
31653SOL     OW98456  10.654   6.394   9.640  0.2523  0.0214  0.2095
31653SOL    HW198457  10.681   6.486   9.642 -1.3097  0.5014  0.8530
31653SOL    HW298458  10.701   6.354   9.713 -0.7178  0.8426  1.3294
31654SOL     OW98459  10.287   3.293   7.113 -0.2921  0.3104  0.3922
31654SOL    HW198460  10.330   3.229   7.170  2.1489 -0.0771 -1.7015
31654SOL    HW298461  10.324   3.377   7.139  1.1027  0.0914 -0.7556
31655SOL     OW98462   1.688   4.583   7.627  0.0466 -0.0815  0.1481
31655SOL    HW198463   1.679   4.635   7.547  0.2937 -0.8693 -0.4052
31655SOL    HW298464   1.623   4.620   7.687 -0.9898 -0.2578 -0.8384
31656SOL     OW98465   4.065   6.977   8.116  0.7081  0.1668  1.0520
31656SOL    HW198466   4.155   7.009   8.108  0.2958  1.3244  0.8099
31656SOL    HW298467   4.027   7.031   8.186  0.1351 -0.1635  0.9998
31657SOL     OW98468   7.040   5.463  10.115 -0.2801  0.5977  0.1326
31657SOL    HW198469   7.019   5.550  10.082  0.6039  1.5099  1.8500
31657SOL    HW298470   6.956   5.429  10.147 -0.7936  0.4313 -1.3229
31658SOL     OW98471   1.586  10.308   5.467  0.5600 -0.2478 -0.7530
31658SOL    HW198472   1.660  10.303   5.526 -0.2653 -2.6499  0.1760
31658SOL    HW298473   1.511  10.326   5.523  0.2525  1.1026 -1.5506
31659SOL     OW98474   1.250  10.747   5.189 -0.1671 -0.0729 -0.5034
31659SOL    HW198475   1.345  10.736   5.194  0.1501  1.8308 -1.3793
31659SOL    HW298476   1.219  10.725   5.277  0.8964 -1.9194 -0.5195
31660SOL     OW98477  10.014   7.379   1.962 -0.1525  0.4397 -0.9829
31660SOL    HW198478  10.023   7.451   1.899  0.7475 -0.6248 -2.1378
31660SOL    HW298479   9.931   7.337   1.938  0.3541 -0.1703 -1.7120
31661SOL     OW98480   0.999   1.589   9.189 -0.2659  0.3801 -0.0609
31661SOL    HW198481   1.036   1.515   9.236  1.9825  1.3257 -0.2010
31661SOL    HW298482   0.981   1.556   9.101 -1.7606 -0.6274  0.5762
31662SOL     OW98483   7.272   7.062   6.083 -0.1155 -0.0055 -0.1896
31662SOL    HW198484   7.188   7.107   6.071  1.2194  2.6596 -0.1709
31662SOL    HW298485   7.305   7.049   5.994 -0.8793 -1.9271 -0.2578
31663SOL     OW98486   9.583  10.686   5.792  0.0723  0.4976  0.2581
31663SOL    HW198487   9.644  10.634   5.740  3.1138  2.2965  1.7214
31663SOL    HW298488   9.523  10.622   5.831  0.3630 -1.2711 -1.9899
31664SOL     OW98489   0.324  10.124   3.565 -0.5691  0.3589 -0.2990
31664SOL    HW198490   0.287  10.120   3.477  1.4626  1.7574 -1.3035
31664SOL    HW298491   0.411  10.086   3.556 -1.5093 -2.7102  1.9412
31665SOL     OW98492   1.780   3.511   0.209  0.1825  0.1542  0.1539
31665SOL    HW198493   1.730   3.586   0.178 -0.9208 -0.5375  0.2225
31665SOL    HW298494   1.872   3.539   0.202 -0.2159  1.8007  0.9568
31666SOL     OW98495  10.800   2.740   5.806  0.1589  0.6846 -0.1134
31666SOL    HW198496  10.882   2.696   5.782 -0.3732  0.7726 -2.2894
31666SOL    HW298497  10.749   2.741   5.726 -2.1430  0.3728  1.2550
31667SOL     OW98498  10.712   9.941   4.464 -0.6579 -0.0035  0.4042
31667SOL    HW198499  10.709   9.849   4.439  0.1796  0.2066 -0.5338
31667SOL    HW298500  10.627   9.976   4.438 -0.3980 -0.1604 -0.6842
31668SOL     OW98501   6.176   2.799   8.285  0.3005 -0.4936  0.2905
31668SOL    HW198502   6.129   2.737   8.230  1.3921 -0.6458 -0.5137
31668SOL    HW298503   6.229   2.745   8.343  0.7141 -0.3291  0.0726
31669SOL     OW98504   0.174   0.262   3.560  0.0879  0.1488  0.2370
31669SOL    HW198505   0.182   0.343   3.610 -2.0469  0.6342 -0.1207
31669SOL    HW298506   0.182   0.289   3.468 -1.8968  0.2236  0.0355
31670SOL     OW98507   3.245   1.586   4.633  0.8508 -0.5480 -0.1554
31670SOL    HW198508   3.238   1.645   4.708 -1.5699  0.2114 -0.9279
31670SOL    HW298509   3.309   1.627   4.576  0.6368  0.3032  0.2098
31671SOL     OW98510   3.110   4.806   1.561 -0.9866 -0.5258  0.2426
31671SOL    HW198511   3.185   4.755   1.532 -0.3158 -0.6698  2.0857
31671SOL    HW298512   3.142   4.855   1.637 -1.6567  2.5440 -1.2971
31672SOL     OW98513   5.704   2.251   4.545  0.3611 -0.0834  0.2924
31672SOL    HW198514   5.689   2.215   4.457  0.0809 -0.5152  0.5153
31672SOL    HW298515   5.775   2.314   4.533  1.2692 -1.1374  0.0072
31673SOL     OW98516   4.001   9.888   1.075  0.0352  0.2397 -0.2408
31673SOL    HW198517   4.078   9.929   1.036  2.5701 -2.5533  1.3595
31673SOL    HW298518   4.017   9.891   1.169 -2.8520  1.3087  0.3018
31674SOL     OW98519   0.958   6.835   0.884  0.0432  0.7264  0.3415
31674SOL    HW198520   0.927   6.909   0.935 -1.4650  1.0351 -0.9401
31674SOL    HW298521   1.000   6.873   0.807 -1.1402  0.3214 -0.5570
31675SOL     OW98522  11.001   6.897   6.851 -0.0457 -0.8312 -0.1978
31675SOL    HW198523  10.946   6.828   6.815 -0.4043 -0.9018  0.4777
31675SOL    HW298524  11.087   6.856   6.861 -0.3065 -1.2495  0.3854
31676SOL     OW98525   6.635  10.904   9.301 -0.1999  0.4583  0.0599
31676SOL    HW198526   6.626  10.832   9.238  2.2352  0.9296 -0.9214
31676SOL    HW298527   6.564  10.890   9.364 -0.2834 -2.3240 -0.5506
31677SOL     OW98528   2.302   4.076   4.265  0.9247  0.1093  0.2756
31677SOL    HW198529   2.386   4.057   4.223  0.7065 -2.5479  0.8859
31677SOL    HW298530   2.298   4.016   4.340 -2.1200 -0.9847 -0.6050
31678SOL     OW98531   6.811   7.399   4.528  0.0201  0.1415 -0.0260
31678SOL    HW198532   6.883   7.410   4.589 -0.3361 -1.3817  0.7335
31678SOL    HW298533   6.808   7.304   4.511 -1.4268  0.2426 -0.4883
31679SOL     OW98534   3.538   7.902  10.467  0.1086 -0.0759 -0.1246
31679SOL    HW198535   3.631   7.921  10.467 -0.1890  1.5063 -0.5677
31679SOL    HW298536   3.512   7.909  10.376 -0.6708  0.7426  0.1463
31680SOL     OW98537   8.671   7.766   5.883 -0.0640 -0.2228 -0.0805
31680SOL    HW198538   8.615   7.824   5.830  1.6916  0.8685 -0.8370
31680SOL    HW298539   8.679   7.687   5.830 -3.3858 -1.7900  1.4466
31681SOL     OW98540   2.916   3.430   9.124 -0.5107 -0.4399  0.2072
31681SOL    HW198541   2.965   3.512   9.120 -0.8605 -0.1949  0.8563
31681SOL    HW298542   2.964   3.371   9.066 -0.9591  0.5819 -1.2705
31682SOL     OW98543   4.904   1.907   7.114  0.1693  0.2088 -0.0497
31682SOL    HW198544   4.950   1.850   7.052 -0.9041 -0.1708 -0.5213
31682SOL    HW298545   4.812   1.887   7.100 -0.1417  0.9608  0.8730
31683SOL     OW98546   4.198   6.331  10.281 -0.1777  0.1891  0.0320
31683SOL    HW198547   4.171   6.410  10.235  1.4205  0.4260 -0.5779
31683SOL    HW298548   4.156   6.337  10.366  0.2955  1.9574  0.1826
31684SOL     OW98549   6.955   3.739   4.108 -0.0066  0.2352  0.7138
31684SOL    HW198550   6.906   3.672   4.060 -0.2741  1.4123 -0.7283
31684SOL    HW298551   6.955   3.815   4.050 -0.2073  1.6890  2.5279
31685SOL     OW98552   4.512   2.904   3.900 -0.1919  0.1407  0.0808
31685SOL    HW198553   4.570   2.930   3.972 -0.1105  0.7101 -0.1847
31685SOL    HW298554   4.495   2.811   3.915  1.2305 -0.1798 -0.1484
31686SOL     OW98555   4.876   1.897   9.379 -0.7075 -0.0559 -0.4475
31686SOL    HW198556   4.829   1.971   9.340  0.0732 -0.2132 -1.7671
31686SOL    HW298557   4.837   1.819   9.338  0.8166 -0.1803 -1.8034
31687SOL     OW98558   3.740   0.026   0.037 -0.2743  0.4403 -0.2974
31687SOL    HW198559   3.770   0.110   0.003  1.7547 -0.2213 -0.2460
31687SOL    HW298560   3.771   0.024   0.127 -1.8624  0.3532  0.2822
31688SOL     OW98561   5.804   5.040   3.110 -0.2158  0.2959  0.6275
31688SOL    HW198562   5.771   5.041   3.200 -1.4323 -0.2648  0.2150
31688SOL    HW298563   5.748   4.977   3.065  0.4925  0.4335 -0.4880
31689SOL     OW98564   8.629   8.644   5.904 -0.6150 -0.2008 -0.2691
31689SOL    HW198565   8.709   8.662   5.856  0.5308 -0.2764  1.5402
31689SOL    HW298566   8.623   8.548   5.906 -1.2710 -0.1912 -1.1956
31690SOL     OW98567   8.769   5.063   7.741 -0.6256 -0.5068 -0.9526
31690SOL    HW198568   8.759   5.007   7.818  0.3424 -0.3171 -0.6657
31690SOL    HW298569   8.687   5.112   7.736 -0.6325 -0.3763  0.0992
31691SOL     OW98570   0.475   6.976   6.875 -0.0104  0.4242 -0.4684
31691SOL    HW198571   0.532   6.900   6.887 -1.0285 -0.4519 -0.9567
31691SOL    HW298572   0.472   7.018   6.961  1.2551  0.4178 -0.4118
31692SOL     OW98573   9.457  10.856   2.207  0.1129 -0.0314  0.0226
31692SOL    HW198574   9.442  10.763   2.225 -2.3482  0.5518  1.4776
31692SOL    HW298575   9.537  10.877   2.254  0.3875 -1.3010  0.1490
31693SOL     OW98576   1.840   4.125   9.537 -0.1423 -0.0922 -0.0039
31693SOL    HW198577   1.828   4.129   9.442  0.0272 -0.0556 -0.0224
31693SOL    HW298578   1.810   4.037   9.561 -0.0105 -0.1675 -0.1152
31694SOL     OW98579  10.009   6.283   2.906 -0.3745  0.2549  0.3956
31694SOL    HW198580   9.934   6.343   2.909  0.8240  1.8531  0.0761
31694SOL    HW298581  10.085   6.341   2.903  0.8806 -1.3165  0.5851
31695SOL     OW98582   1.993   5.449   2.851 -0.0732  0.5271  0.5259
31695SOL    HW198583   2.003   5.382   2.784 -0.9055  0.0052  0.8988
31695SOL    HW298584   2.049   5.419   2.923  2.3717  2.0796 -0.6020
31696SOL     OW98585   1.952   8.397   2.406  0.1705  0.4496  0.5067
31696SOL    HW198586   1.860   8.374   2.393  0.1057 -0.1287  1.8764
31696SOL    HW298587   1.994   8.317   2.435  1.3356  0.4716 -0.9513
31697SOL     OW98588   5.702   9.128   6.084  0.2368  0.0723 -0.2023
31697SOL    HW198589   5.642   9.065   6.124  0.7355  0.5365  1.3551
31697SOL    HW298590   5.651   9.168   6.014 -1.5895  0.9979  1.5364
31698SOL     OW98591   1.897  10.055  10.573  0.3917  0.1262 -0.3442
31698SOL    HW198592   1.924  10.020  10.488  1.6114  1.2733 -0.4854
31698SOL    HW298593   1.978  10.056  10.624 -0.4812 -1.2752  1.1290
31699SOL     OW98594   8.877   2.694   1.207 -0.1291 -0.3583  0.2430
31699SOL    HW198595   8.784   2.702   1.189  0.1359 -0.4457 -1.3274
31699SOL    HW298596   8.911   2.783   1.203 -0.4642 -0.0501  2.9790
31700SOL     OW98597   5.366   6.396   6.013  0.3789 -0.3716 -0.6871
31700SOL    HW198598   5.392   6.437   5.931  0.1979 -0.3977 -0.7594
31700SOL    HW298599   5.445   6.395   6.066  1.1040 -2.3595 -1.6772
31701SOL     OW98600   3.205   8.543   9.300  0.1015  0.2464  0.1617
31701SOL    HW198601   3.209   8.637   9.319  1.3257  0.2078  0.1634
31701SOL    HW298602   3.123   8.532   9.253 -0.1730  1.2805  0.3656
31702SOL     OW98603  10.126   1.601   0.688 -0.3313 -0.1600  0.1697
31702SOL    HW198604  10.146   1.653   0.610 -0.3497 -1.0000 -0.4095
31702SOL    HW298605  10.032   1.586   0.683 -0.4217  0.2028  0.6341
31703SOL     OW98606   1.756   0.008   7.725  0.6447 -0.1310 -0.1572
31703SOL    HW198607   1.679  -0.046   7.708  0.4345  0.4590 -1.1841
31703SOL    HW298608   1.821  -0.023   7.661  0.5651  0.7124 -0.6695
31704SOL     OW98609   8.073   6.520   1.242 -0.2151 -0.4205  0.3999
31704SOL    HW198610   7.995   6.478   1.205  0.9884 -1.8583 -0.6081
31704SOL    HW298611   8.141   6.452   1.239  1.4637  1.2028 -0.0457
31705SOL     OW98612   5.528   8.439   9.705  0.0949  0.2933 -0.2610
31705SOL    HW198613   5.571   8.357   9.730  0.6330  0.9517  1.0608
31705SOL    HW298614   5.440   8.412   9.678  1.0112 -0.9808 -2.1910
31706SOL     OW98615   8.878   5.798   8.872 -0.4548  0.6946 -0.4048
31706SOL    HW198616   8.822   5.748   8.814  0.7495  0.3880 -1.3448
31706SOL    HW298617   8.862   5.762   8.959  0.2733 -1.2656 -1.0334
31707SOL     OW98618   4.640  10.700   5.246 -0.2515 -0.6533 -0.5701
31707SOL    HW198619   4.671  10.788   5.226 -0.5758 -0.6618 -1.1243
31707SOL    HW298620   4.546  10.709   5.260 -0.0857 -0.7016  0.6837
31708SOL     OW98621   3.650   3.706  10.345 -0.3094 -0.1745 -0.2086
31708SOL    HW198622   3.578   3.649  10.374 -0.9163 -0.0009 -1.3047
31708SOL    HW298623   3.716   3.646  10.311  0.3360 -0.3690  1.3067
31709SOL     OW98624  10.724   8.275   2.846 -0.0030  0.0914  0.0737
31709SOL    HW198625  10.769   8.261   2.930 -1.9328 -1.7634  0.8995
31709SOL    HW298626  10.712   8.369   2.840  0.0459  0.2552  1.9740
31710SOL     OW98627   9.966   2.200   6.682  0.2828 -0.3560  0.4733
31710SOL    HW198628   9.977   2.113   6.643  1.1443  0.1352 -0.4289
31710SOL    HW298629  10.021   2.199   6.760  0.7632 -0.4255  0.1345
31711SOL     OW98630   5.459   5.756   6.539 -0.1922 -0.2863 -0.1658
31711SOL    HW198631   5.488   5.676   6.495 -1.2513 -0.6422 -0.2419
31711SOL    HW298632   5.396   5.726   6.604 -1.0871  0.5389 -0.6268
31712SOL     OW98633   9.212   1.189   1.406  0.2725 -0.3248 -0.3155
31712SOL    HW198634   9.178   1.114   1.358  0.4559 -0.4820 -0.1998
31712SOL    HW298635   9.141   1.253   1.403  0.3049 -0.3084 -0.8473
31713SOL     OW98636   3.376   2.002   8.634 -0.8442 -0.2058  0.4577
31713SOL    HW198637   3.472   2.002   8.624 -0.6967  0.1966  1.6463
31713SOL    HW298638   3.355   1.911   8.653 -0.8461 -0.5067 -0.8956
31714SOL     OW98639   3.868   0.210   5.978  0.3148 -0.4554  0.4100
31714SOL    HW198640   3.836   0.295   6.007 -2.3157 -1.5994  1.1312
31714SOL    HW298641   3.894   0.166   6.059  1.6091 -0.4119  0.0469
31715SOL     OW98642   8.984   6.018   5.957  0.0244  0.4075  0.1680
31715SOL    HW198643   9.062   6.064   5.988 -0.1488  1.2001 -0.5447
31715SOL    HW298644   8.917   6.039   6.023  0.2065  0.3540  0.3724
31716SOL     OW98645   5.429   6.526   9.836 -0.1500 -0.2984 -0.1143
31716SOL    HW198646   5.379   6.457   9.793 -1.0187 -0.1675  0.6637
31716SOL    HW298647   5.502   6.480   9.878  0.2023 -0.5312 -0.9643
31717SOL     OW98648   6.850   1.767   0.466 -0.4717  0.0261 -0.1343
31717SOL    HW198649   6.889   1.852   0.487 -2.1291  0.3062  2.2246
31717SOL    HW298650   6.924   1.706   0.463  0.7012  1.4095 -1.4753
31718SOL     OW98651   7.108   8.159   3.573  0.5300 -0.4715 -0.1843
31718SOL    HW198652   7.159   8.233   3.539 -0.4632 -0.1010 -0.9106
31718SOL    HW298653   7.093   8.182   3.665  0.7930 -0.0851 -0.2329
31719SOL     OW98654   9.516   2.799  10.824  0.4460  0.0188  0.2056
31719SOL    HW198655   9.459   2.872  10.800 -0.1217 -0.8362 -1.1755
31719SOL    HW298656   9.516   2.742  10.747  1.6615 -0.9510  0.8856
31720SOL     OW98657   8.167   0.245   9.825  0.1049  0.2826 -0.5298
31720SOL    HW198658   8.226   0.225   9.898  0.8048  0.3313 -1.0754
31720SOL    HW298659   8.159   0.163   9.777  1.9334  0.9027 -2.0169
31721SOL     OW98660   0.570   1.950   3.231 -0.6357  0.2957  0.0578
31721SOL    HW198661   0.542   1.869   3.273  1.6288  0.5916  2.4078
31721SOL    HW298662   0.561   1.934   3.137  1.4175 -3.3766  0.3277
31722SOL     OW98663   4.037   2.489   5.711  0.4022  0.0249  0.4206
31722SOL    HW198664   4.113   2.431   5.705 -1.1184 -1.9843 -0.7878
31722SOL    HW298665   3.997   2.467   5.796  0.8515  0.6736  0.8034
31723SOL     OW98666   7.533  10.673   8.677 -0.1035  0.2037  0.6423
31723SOL    HW198667   7.454  10.717   8.708  0.5486  0.1213  2.5246
31723SOL    HW298668   7.531  10.686   8.582 -2.7715 -0.5022  0.5154
31724SOL     OW98669   9.102   7.393   7.301 -0.2465  0.2328 -0.0586
31724SOL    HW198670   9.170   7.437   7.351 -1.1033  2.7924 -0.9613
31724SOL    HW298671   9.149   7.338   7.239  0.9646  0.8865  0.2505
31725SOL     OW98672   2.501  10.662   2.709  0.2562 -0.1948  0.0624
31725SOL    HW198673   2.550  10.594   2.755 -0.0883  0.5465  1.6041
31725SOL    HW298674   2.416  10.664   2.754 -0.1959  0.3902 -0.7951
31726SOL     OW98675   1.220   2.137   3.547 -0.0039 -0.3409 -0.0659
31726SOL    HW198676   1.279   2.108   3.617  0.6012  0.6329 -0.1541
31726SOL    HW298677   1.134   2.108   3.575  0.2581 -0.1510  0.9853
31727SOL     OW98678   6.696   7.386   6.158 -0.1957 -0.2084 -0.5062
31727SOL    HW198679   6.748   7.328   6.213 -0.2007 -0.1059 -0.3912
31727SOL    HW298680   6.632   7.425   6.218  0.6875  0.9730 -0.2738
31728SOL     OW98681   6.544   3.917   3.076  0.0575  0.0138 -0.0308
31728SOL    HW198682   6.627   3.870   3.077 -0.7182 -1.4236  0.2543
31728SOL    HW298683   6.525   3.930   2.983  1.8508  2.7914 -0.1240
31729SOL     OW98684   9.019   8.925   3.315 -0.0092 -0.0856  0.5308
31729SOL    HW198685   9.048   8.998   3.261 -1.2758  1.2539  1.5601
31729SOL    HW298686   8.940   8.894   3.271  0.5743 -0.9093  0.0505
31730SOL     OW98687   1.675   1.097   2.237  0.5465 -0.8264  0.3524
31730SOL    HW198688   1.680   1.113   2.142  0.4908 -0.9826  0.3225
31730SOL    HW298689   1.618   1.021   2.245  1.1204 -1.2504  0.4685
31731SOL     OW98690   5.906   6.980   0.582 -0.0134 -0.1004  0.2265
31731SOL    HW198691   5.891   6.899   0.533 -0.8578  0.0036  0.3016
31731SOL    HW298692   5.881   6.959   0.672  1.7562 -0.3608  0.6999
31732SOL     OW98693   6.294   4.247   5.119 -0.4574 -0.1813 -0.7552
31732SOL    HW198694   6.366   4.310   5.126 -0.4972 -0.3333  1.4392
31732SOL    HW298695   6.274   4.246   5.025  0.2200  2.2869 -1.0153
31733SOL     OW98696   9.193   0.723   8.167  0.2066 -0.1386 -0.1714
31733SOL    HW198697   9.148   0.796   8.126  0.0407  0.0014  0.2563
31733SOL    HW298698   9.187   0.740   8.261  0.8958 -0.2670 -0.0966
31734SOL     OW98699   2.774   6.878   4.608 -0.0463 -0.1027 -0.0465
31734SOL    HW198700   2.746   6.969   4.610 -3.3897 -0.9848  1.0088
31734SOL    HW298701   2.861   6.880   4.569  0.6198  3.6325  1.2429
31735SOL     OW98702   5.045  10.613   2.305 -0.4737 -0.5740  0.1376
31735SOL    HW198703   5.048  10.571   2.390 -0.2844 -0.8713 -0.0131
31735SOL    HW298704   5.018  10.703   2.323  3.5190  0.6525  1.0125
31736SOL     OW98705   9.159   4.474  10.371  0.0106 -0.0666 -0.2008
31736SOL    HW198706   9.065   4.462  10.390 -0.2454 -1.9091 -2.1674
31736SOL    HW298707   9.173   4.568  10.376 -2.1642  0.3415 -0.6854
31737SOL     OW98708   3.884   8.913   4.029 -0.6324  0.3341 -0.3294
31737SOL    HW198709   3.852   8.937   3.942 -1.4246  2.2956  0.4538
31737SOL    HW298710   3.930   8.830   4.015 -2.1260 -0.2490 -2.3312
31738SOL     OW98711   0.292   1.905   8.336  0.4392  0.3767  0.2021
31738SOL    HW198712   0.380   1.874   8.359  0.4653  0.4222  0.1649
31738SOL    HW298713   0.258   1.840   8.275  0.2322  0.0690  0.6402
31739SOL     OW98714   4.575  10.227   7.843 -0.0949  0.6479  0.1139
31739SOL    HW198715   4.628  10.193   7.771 -0.3325 -2.0165  1.0728
31739SOL    HW298716   4.486  10.230   7.808  0.0129  0.8128 -0.1486
31740SOL     OW98717   8.291   8.923   8.114  0.4911 -0.1274 -0.0375
31740SOL    HW198718   8.383   8.906   8.094  0.7016  1.3285 -0.3588
31740SOL    HW298719   8.286   8.923   8.209  0.6909 -0.8029 -0.0199
31741SOL     OW98720   4.041   9.976   4.336  0.5436 -0.1646  0.2459
31741SOL    HW198721   4.130   9.993   4.366  0.0333  2.5134  0.5549
31741SOL    HW298722   4.020  10.051   4.281 -0.9126 -1.6563 -1.3264
31742SOL     OW98723   1.349   4.711   4.875 -0.3073 -0.1323 -0.0320
31742SOL    HW198724   1.427   4.687   4.925 -0.9737 -2.4081  0.0009
31742SOL    HW298725   1.276   4.686   4.931 -1.0577 -0.6886 -1.2233
31743SOL     OW98726  10.198  10.068   1.296 -0.1069  0.2327 -0.1498
31743SOL    HW198727  10.285  10.099   1.323  0.3674 -1.6191  0.6368
31743SOL    HW298728  10.140  10.096   1.366 -0.2320  1.6892 -0.7937
31744SOL     OW98729  10.998   2.564   6.289 -0.9906  0.2143 -0.3079
31744SOL    HW198730  10.968   2.532   6.373 -1.3917  2.7116  0.5702
31744SOL    HW298731  10.954   2.648   6.277  0.7578  0.9912 -1.9530
31745SOL     OW98732   8.945   5.851   0.044 -0.1899  0.3135 -0.0268
31745SOL    HW198733   8.852   5.833   0.028 -0.2444  0.3138  0.2880
31745SOL    HW298734   8.991   5.773   0.011 -0.3188  0.2194  0.0155
31746SOL     OW98735  10.824  10.472   4.585 -1.2287 -0.3516  0.7078
31746SOL    HW198736  10.854  10.557   4.617 -0.9264 -0.6489  1.2201
31746SOL    HW298737  10.893  10.411   4.610 -0.2602 -0.3869 -1.7640
31747SOL     OW98738   3.767  10.859   2.504  0.2497 -0.1475 -0.8284
31747SOL    HW198739   3.840  10.914   2.532 -0.0922 -0.0683 -0.0714
31747SOL    HW298740   3.796  10.769   2.523  0.7184 -0.2276 -1.8595
31748SOL     OW98741   0.044   7.388   4.673 -0.8302  0.5922  0.0961
31748SOL    HW198742  -0.032   7.338   4.645 -1.8980  1.7754  0.7753
31748SOL    HW298743   0.118   7.347   4.628 -1.5149 -2.1062  1.2222
31749SOL     OW98744  10.391   9.103   1.759  0.7504 -0.5147  0.2944
31749SOL    HW198745  10.476   9.061   1.752  1.6864  1.2865  0.3897
31749SOL    HW298746  10.409   9.189   1.797 -1.1000 -0.0396  0.2154
31750SOL     OW98747   0.895   4.702   2.433 -0.0174 -0.0748  0.7764
31750SOL    HW198748   0.825   4.685   2.370 -0.2464 -2.3243  1.5508
31750SOL    HW298749   0.976   4.677   2.387  0.1120  0.7749  0.5168
31751SOL     OW98750   9.798   2.716  10.607 -0.0989  0.3457 -0.0842
31751SOL    HW198751   9.726   2.661  10.575  1.0319 -0.7150 -0.9217
31751SOL    HW298752   9.870   2.654  10.623  0.1889  1.1789  2.1736
31752SOL     OW98753   4.847   9.070   0.983  0.4440 -0.1794 -0.3118
31752SOL    HW198754   4.883   9.063   0.895  0.0941  0.2883 -0.4955
31752SOL    HW298755   4.753   9.082   0.970  0.6994  2.9564 -0.0168
31753SOL     OW98756   5.331   2.444  10.451  0.1098  0.2415 -0.0653
31753SOL    HW198757   5.254   2.388  10.446  0.0991  0.2778 -0.3506
31753SOL    HW298758   5.399   2.395  10.404  0.0324  0.5708 -0.5360
31754SOL     OW98759   5.261   9.540   6.601 -0.3027  1.0036  0.1174
31754SOL    HW198760   5.356   9.551   6.600 -0.3056  1.2129  1.0278
31754SOL    HW298761   5.228   9.608   6.543  0.0067  2.1716  1.2631
31755SOL     OW98762   2.044   6.091   1.168  0.0989 -0.2668 -0.2491
31755SOL    HW198763   2.062   6.051   1.254  1.6557 -1.8155 -1.2330
31755SOL    HW298764   2.087   6.033   1.105 -1.5697  0.4663 -2.1605
31756SOL     OW98765   5.860   1.326   0.562  0.3268 -0.2676 -0.0040
31756SOL    HW198766   5.822   1.385   0.627 -0.3936  1.1191 -1.6137
31756SOL    HW298767   5.787   1.272   0.533  0.0847  0.6707 -1.2528
31757SOL     OW98768   4.834   7.122   4.801 -0.2652  0.4342  0.3833
31757SOL    HW198769   4.822   7.120   4.896  0.1748 -0.9143  0.4326
31757SOL    HW298770   4.746   7.109   4.765 -0.3542  0.3982  0.6136
31758SOL     OW98771   4.201   1.848   4.694 -0.1230 -0.1994 -0.6810
31758SOL    HW198772   4.251   1.913   4.645  0.3308 -0.9641 -1.2499
31758SOL    HW298773   4.118   1.892   4.713  0.2492  0.6168 -0.8720
31759SOL     OW98774  10.915   3.695   7.093  0.4541  0.0120 -0.3968
31759SOL    HW198775  10.827   3.719   7.124 -0.2232 -1.2494 -1.2647
31759SOL    HW298776  10.968   3.692   7.173 -0.7539 -1.0598  0.4214
31760SOL     OW98777  10.738   4.446   1.255 -0.1730 -0.3897  0.5384
31760SOL    HW198778  10.689   4.521   1.288  0.1659  0.0373  0.0869
31760SOL    HW298779  10.684   4.370   1.277  0.2194 -0.1621  2.4015
31761SOL     OW98780   7.375   6.849   1.416 -0.5022  0.5800  0.5709
31761SOL    HW198781   7.433   6.789   1.368 -1.8395  0.4107 -0.9262
31761SOL    HW298782   7.328   6.792   1.477  0.6387  0.6683  1.5618
31762SOL     OW98783   7.000   3.114   9.978  0.0225 -0.4068  0.4043
31762SOL    HW198784   6.956   3.031   9.957  2.2912 -1.2020 -1.7464
31762SOL    HW298785   7.020   3.152   9.892  1.3947  1.0441  1.3166
31763SOL     OW98786   2.376   2.231  10.193  0.1645 -0.9023 -0.3507
31763SOL    HW198787   2.465   2.250  10.223 -0.3600  1.5012 -0.1413
31763SOL    HW298788   2.320   2.253  10.268 -0.8801  1.7393 -1.7876
31764SOL     OW98789   6.966   2.269   3.574 -0.3982 -0.2714  0.2903
31764SOL    HW198790   6.871   2.266   3.560  0.0388 -1.1617 -3.7821
31764SOL    HW298791   6.983   2.360   3.601 -2.2957  0.3794 -0.5055
31765SOL     OW98792   1.801   3.088   0.567 -0.5079  0.2243  0.0655
31765SOL    HW198793   1.723   3.141   0.549 -0.3944  0.0770 -0.9051
31765SOL    HW298794   1.826   3.052   0.482  1.0525  0.8637  0.2145
31766SOL     OW98795   1.835   9.098   9.869 -0.4938 -0.6226 -0.6310
31766SOL    HW198796   1.827   9.011   9.909 -2.7708 -0.3049 -0.2819
31766SOL    HW298797   1.813   9.084   9.777 -2.3177 -0.2488 -0.2987
31767SOL     OW98798  10.363   0.775   6.724 -0.1284  0.1051 -0.6644
31767SOL    HW198799  10.271   0.750   6.713  0.2357 -1.5923 -0.1809
31767SOL    HW298800  10.378   0.842   6.657 -1.5358 -0.1051 -1.2245
31768SOL     OW98801   6.137   9.908   9.538  0.2156 -0.1555  0.1042
31768SOL    HW198802   6.050   9.885   9.569  0.5376 -0.2556  0.9655
31768SOL    HW298803   6.161   9.985   9.590  0.3214  0.3708 -0.6977
31769SOL     OW98804   5.697   6.349  10.421  0.6151 -0.1011 -0.8509
31769SOL    HW198805   5.658   6.370  10.336  0.8725 -0.4670 -1.0591
31769SOL    HW298806   5.774   6.297  10.400  0.9798  0.2649 -0.4121
31770SOL     OW98807   8.190   0.956   8.872  0.7135 -0.0721  0.2407
31770SOL    HW198808   8.246   0.898   8.923  1.5853 -0.3569 -0.9869
31770SOL    HW298809   8.247   0.991   8.803 -0.3614  0.4444 -0.4287
31771SOL     OW98810   2.750   3.569   1.424 -0.2858 -0.0330 -0.4108
31771SOL    HW198811   2.785   3.607   1.343 -0.3311  1.6157  0.3049
31771SOL    HW298812   2.672   3.521   1.396 -0.4577  0.7512 -1.3124
31772SOL     OW98813  10.647  10.197   5.910  0.8751  0.5460 -0.4255
31772SOL    HW198814  10.614  10.263   5.849 -0.4725 -0.2637 -0.6035
31772SOL    HW298815  10.675  10.124   5.854  1.3065  0.5139 -0.1720
31773SOL     OW98816   9.265   8.209   9.610  0.2172 -0.1766 -0.3672
31773SOL    HW198817   9.211   8.148   9.560  1.8355  0.1080 -2.6338
31773SOL    HW298818   9.249   8.294   9.569 -0.3816  0.5743  1.3604
31774SOL     OW98819   2.725   2.804   5.921  0.2710  0.5213  0.2852
31774SOL    HW198820   2.742   2.866   5.991 -0.3753  2.5235 -1.2377
31774SOL    HW298821   2.731   2.856   5.841  2.4477 -1.9360 -1.3116
31775SOL     OW98822   6.052   7.168   8.000 -0.1313 -0.4489 -0.2626
31775SOL    HW198823   6.109   7.229   8.048 -1.0602  0.6044 -0.4608
31775SOL    HW298824   5.966   7.210   8.001 -0.8661 -1.8946 -0.1828
31776SOL     OW98825   8.051   7.079   4.705  0.0835 -1.0611 -0.0934
31776SOL    HW198826   7.989   7.050   4.771 -2.4990  2.2438 -0.7666
31776SOL    HW298827   8.097   7.153   4.745  0.4055 -0.6911 -1.0978
31777SOL     OW98828   4.678   9.349   5.689  0.3854  0.1493 -0.4859
31777SOL    HW198829   4.647   9.417   5.628  2.2088 -0.1019 -1.7828
31777SOL    HW298830   4.756   9.388   5.730  0.8749 -0.7806 -0.5105
31778SOL     OW98831  10.606   6.333   6.928  0.1922  0.1475 -0.5708
31778SOL    HW198832  10.521   6.296   6.904  1.5604 -3.6030 -0.3160
31778SOL    HW298833  10.610   6.321   7.023  1.2305 -0.4014 -0.6743
31779SOL     OW98834   9.465   3.604   7.653 -0.3988  0.1468 -0.6467
31779SOL    HW198835   9.390   3.600   7.593 -1.0912 -1.8390  0.2546
31779SOL    HW298836   9.486   3.698   7.659 -3.6623  0.9618  0.0623
31780SOL     OW98837   5.715   9.685  10.163  0.3497  0.0256  0.3700
31780SOL    HW198838   5.730   9.701  10.256 -0.2722 -1.1332  0.6896
31780SOL    HW298839   5.735   9.592  10.151 -1.7899 -0.4204 -0.1422
31781SOL     OW98840   1.226  10.526   3.461  0.8949  0.1719 -0.6017
31781SOL    HW198841   1.223  10.557   3.371  2.1627 -0.3516 -0.8445
31781SOL    HW298842   1.219  10.430   3.454 -1.3758  0.2231  0.0307
31782SOL     OW98843   7.593   5.507   1.731 -0.0991  0.0076 -0.1900
31782SOL    HW198844   7.526   5.575   1.719 -0.9039 -0.8209 -0.5902
31782SOL    HW298845   7.672   5.554   1.755 -1.1246  0.9505  1.5399
31783SOL     OW98846   6.131   5.956   9.037  0.6069  0.0985  0.2247
31783SOL    HW198847   6.099   5.885   9.093 -0.9765  1.0080  0.5420
31783SOL    HW298848   6.181   5.911   8.969  0.6531 -1.2215  1.0728
31784SOL     OW98849   0.841   9.470   2.175  0.1838 -0.3362  0.0463
31784SOL    HW198850   0.920   9.450   2.225  1.1910  0.7471 -1.0600
31784SOL    HW298851   0.823   9.562   2.195 -0.7305 -0.5392  0.1760
31785SOL     OW98852   6.646   9.937   4.731 -0.2510  0.1383 -0.3125
31785SOL    HW198853   6.709   9.984   4.677  0.0404  0.3175  0.1733
31785SOL    HW298854   6.699   9.895   4.799 -0.7086  0.8910  0.5468
31786SOL     OW98855   6.026  10.820   2.599 -0.5568 -0.2115  0.2788
31786SOL    HW198856   5.981  10.736   2.595  0.0662 -0.5488  0.0795
31786SOL    HW298857   6.058  10.834   2.509  1.4854 -0.9884  0.8225
31787SOL     OW98858  10.555   4.984   8.174 -0.7991  0.3905  0.1465
31787SOL    HW198859  10.486   4.957   8.234 -0.8480 -0.1168 -0.1301
31787SOL    HW298860  10.523   4.957   8.088 -0.7635  1.1677 -0.1222
31788SOL     OW98861   2.970  10.019  10.179  0.3796 -0.4407 -0.3926
31788SOL    HW198862   2.944   9.956  10.111  0.2217 -2.5097  1.4955
31788SOL    HW298863   3.040   9.976  10.227 -1.2985 -0.2446  2.4453
31789SOL     OW98864   0.202   1.993   7.492  0.5037 -0.4454 -0.2764
31789SOL    HW198865   0.228   2.084   7.481  0.6679 -0.4534  0.0475
31789SOL    HW298866   0.283   1.947   7.516  0.5045 -0.7504 -0.8443
31790SOL     OW98867  10.786   7.303   1.282 -0.4992 -0.1912  0.0144
31790SOL    HW198868  10.796   7.208   1.274  0.1596 -0.0899 -0.4179
31790SOL    HW298869  10.707   7.314   1.335 -0.9905 -0.9665 -0.5422
31791SOL     OW98870  10.047   4.017   6.469 -0.3078 -0.3817 -0.2271
31791SOL    HW198871  10.026   3.951   6.535 -2.0220 -2.0175 -2.2674
31791SOL    HW298872  10.141   4.007   6.454 -0.1029 -0.7206  1.1750
31792SOL     OW98873   1.885   2.950   9.069  0.1836 -0.2529 -0.3792
31792SOL    HW198874   1.878   3.032   9.022  2.0548  1.4761  2.0827
31792SOL    HW298875   1.972   2.916   9.046  0.6809  0.0800  0.8776
31793SOL     OW98876   6.819   3.526   2.469 -0.1481 -0.1234 -0.0112
31793SOL    HW198877   6.764   3.455   2.502 -0.4973 -0.0631 -0.4506
31793SOL    HW298878   6.854   3.493   2.386 -0.8112  0.4450 -0.5295
31794SOL     OW98879   5.697   3.259   6.518  0.2736  0.2053  0.2619
31794SOL    HW198880   5.700   3.354   6.509  0.1359  0.0889 -1.3155
31794SOL    HW298881   5.751   3.227   6.446  0.1121 -0.9217  0.6276
31795SOL     OW98882   6.024   7.935   6.502  0.1499  0.6428  0.2978
31795SOL    HW198883   6.013   7.954   6.408 -2.2654  1.6344  0.6999
31795SOL    HW298884   6.078   8.007   6.534 -0.5536  1.3440 -0.0348
31796SOL     OW98885   1.286   4.650   4.309  0.5744 -0.2723 -0.3453
31796SOL    HW198886   1.215   4.658   4.246  1.4176  0.7669 -1.1942
31796SOL    HW298887   1.256   4.582   4.370 -2.1862  1.7701  0.7569
31797SOL     OW98888   4.184   9.713   2.707 -0.0524  0.2392 -0.4315
31797SOL    HW198889   4.240   9.720   2.784  0.3818  0.2292 -0.7425
31797SOL    HW298890   4.204   9.791   2.656  0.3577 -0.2240 -0.9909
31798SOL     OW98891   8.376  10.296   8.985  0.2533  0.2228 -0.1089
31798SOL    HW198892   8.452  10.352   8.968 -0.2031  1.7050  2.2174
31798SOL    HW298893   8.407  10.231   9.048  0.9339 -2.7476 -3.1955
31799SOL     OW98894   9.806   8.488   4.550 -0.2202 -0.1865 -0.1911
31799SOL    HW198895   9.809   8.545   4.473  3.5128  1.2600  0.7451
31799SOL    HW298896   9.887   8.438   4.545 -1.1549 -1.9844  1.4875
31800SOL     OW98897   0.765   3.843   3.648 -0.2727 -0.4078  0.0338
31800SOL    HW198898   0.822   3.768   3.632  2.3799  1.1175  1.6256
31800SOL    HW298899   0.684   3.804   3.682 -0.4466 -2.6846 -2.6118
31801SOL     OW98900   1.496   1.137   4.263  0.3802 -0.0075 -0.0845
31801SOL    HW198901   1.543   1.219   4.244 -0.5589  0.1173 -2.1310
31801SOL    HW298902   1.512   1.082   4.186 -2.3750 -0.1355 -0.6692
31802SOL     OW98903   6.591   9.252  10.948 -0.3878  0.0075 -0.2649
31802SOL    HW198904   6.662   9.193  10.974  0.3297  0.9568 -0.0182
31802SOL    HW298905   6.624   9.340  10.967 -1.4560  0.4971 -0.5715
31803SOL     OW98906   5.486  10.138   9.803 -0.3152 -0.0263 -0.6336
31803SOL    HW198907   5.450  10.051   9.785  1.0019 -0.2080 -2.6689
31803SOL    HW298908   5.426  10.198   9.759 -1.1865  0.1346  0.7155
31804SOL     OW98909   9.019   0.705   6.197  0.3187 -0.3857 -0.2587
31804SOL    HW198910   8.976   0.621   6.179 -0.3110 -0.1666  0.1818
31804SOL    HW298911   9.018   0.712   6.293 -2.0481  1.3299 -0.3144
31805SOL     OW98912   2.641   3.918   2.948  0.3981 -0.0963 -0.2521
31805SOL    HW198913   2.546   3.913   2.937  0.2131  1.3286  0.4797
31805SOL    HW298914   2.661   3.849   3.012 -0.1975 -0.1528 -0.1194
31806SOL     OW98915  10.476   7.217   2.641 -0.1813 -0.1968 -0.0282
31806SOL    HW198916  10.445   7.292   2.591  1.0306  0.7931  0.6456
31806SOL    HW298917  10.461   7.241   2.733  1.9206  0.0819  0.2977
31807SOL     OW98918   8.204  10.776   7.537  0.3721  0.7344 -0.4341
31807SOL    HW198919   8.133  10.766   7.600  0.4895  0.4680 -0.3386
31807SOL    HW298920   8.170  10.836   7.471  0.8642  2.4437  0.8035
31808SOL     OW98921   6.297   8.260   3.289  0.1952  0.5200  0.2006
31808SOL    HW198922   6.341   8.181   3.320 -1.5765 -0.2962  0.7749
31808SOL    HW298923   6.280   8.243   3.196  0.7595  0.6831  0.0667
31809SOL     OW98924   2.740   8.885   8.781  0.3024  0.2624 -0.3052
31809SOL    HW198925   2.797   8.809   8.767 -0.2281 -0.0050 -1.0921
31809SOL    HW298926   2.789   8.959   8.745  1.1103  0.4340  1.0609
31810SOL     OW98927   7.065   8.871   2.719 -1.1213 -0.7152 -0.3198
31810SOL    HW198928   7.109   8.926   2.654 -1.9578  0.5828  0.1754
31810SOL    HW298929   7.105   8.896   2.802 -0.9167 -1.4927 -0.1710
31811SOL     OW98930   2.178   1.278   0.958 -0.2075  0.1688 -0.3313
31811SOL    HW198931   2.125   1.317   0.889 -1.5677 -0.8037  0.1324
31811SOL    HW298932   2.254   1.336   0.965 -0.5243  0.8320 -1.9477
31812SOL     OW98933   2.381   6.000   9.861 -0.0018  0.3054  0.5263
31812SOL    HW198934   2.288   6.016   9.852 -0.4146 -1.2059  1.7109
31812SOL    HW298935   2.401   5.936   9.793  0.0075  0.0411  0.7770
31813SOL     OW98936  10.867   5.438   5.883  0.5845  0.5024 -0.4709
31813SOL    HW198937  10.837   5.352   5.854 -0.1157  1.6208 -3.3799
31813SOL    HW298938  10.793   5.475   5.931  1.0615 -0.6150  1.2415
31814SOL     OW98939   0.373   8.123   2.898 -0.7058 -0.1746 -0.2272
31814SOL    HW198940   0.292   8.111   2.948 -0.7617  0.1516 -0.2396
31814SOL    HW298941   0.380   8.044   2.844 -0.9081 -0.2962 -0.0757
31815SOL     OW98942   6.346   1.219   6.632 -0.3138  0.4242 -0.0837
31815SOL    HW198943   6.266   1.179   6.668  1.2151 -2.1685  0.7072
31815SOL    HW298944   6.407   1.221   6.705  1.0814  0.2576 -1.2072
31816SOL     OW98945   5.144   9.426   7.426 -0.3816  0.6356 -0.1676
31816SOL    HW198946   5.139   9.508   7.475  1.8981  1.2142 -0.8165
31816SOL    HW298947   5.114   9.449   7.338  1.8359  1.2316 -0.8128
31817SOL     OW98948  10.457   1.713   1.842  0.2542  0.2689 -0.6188
31817SOL    HW198949  10.546   1.677   1.842  0.0042 -0.3556 -0.1686
31817SOL    HW298950  10.421   1.689   1.927 -0.6349 -0.1927 -1.1110
31818SOL     OW98951   3.327   8.718   4.660 -0.5370  0.0343 -0.3888
31818SOL    HW198952   3.342   8.711   4.754 -2.4087 -0.4500 -0.0782
31818SOL    HW298953   3.251   8.662   4.644  0.1388 -0.4140 -2.3159
31819SOL     OW98954   6.636   5.306   4.616  0.1310  0.2945  0.2235
31819SOL    HW198955   6.730   5.293   4.602  0.1024  0.2297  0.0838
31819SOL    HW298956   6.612   5.243   4.684  0.2966  0.6923  0.6539
31820SOL     OW98957   7.410   1.062   5.320  0.5112  0.0388  0.0823
31820SOL    HW198958   7.338   1.125   5.317 -1.4155 -2.0696 -0.3881
31820SOL    HW298959   7.486   1.115   5.344 -1.2688  2.2816  1.2584
31821SOL     OW98960   0.014   0.895  10.662 -0.3693  0.3289  0.0654
31821SOL    HW198961  -0.062   0.952  10.676 -0.5250  0.8490 -2.3488
31821SOL    HW298962  -0.022   0.807  10.655 -0.3717  0.1713  1.7962
31822SOL     OW98963   3.215   6.293   3.180 -0.5231  0.2789 -0.0302
31822SOL    HW198964   3.174   6.208   3.192 -1.5707  0.5685 -1.3422
31822SOL    HW298965   3.227   6.327   3.269  0.1712 -1.3320  0.5269
31823SOL     OW98966   2.435   3.825   2.145  0.4608 -0.1237 -0.2591
31823SOL    HW198967   2.436   3.882   2.222  0.7798  0.0331 -0.3772
31823SOL    HW298968   2.522   3.834   2.107  0.3531 -0.3128 -0.5575
31824SOL     OW98969   8.758   9.936   6.545 -0.0939  0.4413 -0.2296
31824SOL    HW198970   8.815   9.905   6.615  0.7666 -0.2902 -1.2153
31824SOL    HW298971   8.756  10.031   6.554  0.6501  0.4108  0.2952
31825SOL     OW98972   6.842   0.465   1.136 -0.5650 -0.1329  0.0781
31825SOL    HW198973   6.806   0.545   1.175 -0.3843  0.0738 -0.1722
31825SOL    HW298974   6.869   0.412   1.210 -1.4162 -0.3047  0.2782
31826SOL     OW98975   9.450   0.403   9.636  0.6330 -0.0348  0.6763
31826SOL    HW198976   9.419   0.326   9.587 -1.1364  0.2349  1.3011
31826SOL    HW298977   9.395   0.475   9.605  2.6924  1.1968 -0.3819
31827SOL     OW98978   0.435   4.586   9.146 -0.5487  0.6440  0.1707
31827SOL    HW198979   0.363   4.645   9.125 -1.7349 -0.5298  0.8114
31827SOL    HW298980   0.451   4.538   9.064  0.1409  1.5338 -0.2313
31828SOL     OW98981   0.830   7.726   1.534  0.1157 -0.3099  0.0181
31828SOL    HW198982   0.828   7.802   1.475  0.6573 -0.4820 -0.2338
31828SOL    HW298983   0.901   7.672   1.500 -1.8444 -2.2002 -1.3308
31829SOL     OW98984   7.666   2.991   9.431 -0.3141  0.1512  0.0105
31829SOL    HW198985   7.745   2.985   9.376 -0.1482  1.5977  0.0538
31829SOL    HW298986   7.606   3.046   9.380 -1.9676 -2.2353 -0.7586
31830SOL     OW98987   3.767   7.289   4.182 -0.0239  0.3827  0.5760
31830SOL    HW198988   3.816   7.210   4.160 -0.7453 -0.0221  0.4060
31830SOL    HW298989   3.821   7.333   4.249  1.2255  0.6336 -0.5575
31831SOL     OW98990   1.784   6.509   9.131  0.4255 -0.1785 -0.2802
31831SOL    HW198991   1.850   6.550   9.187 -1.3547  0.1754  1.6688
31831SOL    HW298992   1.769   6.573   9.061  0.1038  1.0280  0.8615
31832SOL     OW98993   6.586   5.896   2.976  0.9840 -0.1579 -0.1844
31832SOL    HW198994   6.625   5.864   3.058 -0.6427  1.4250  1.3029
31832SOL    HW298995   6.523   5.829   2.951 -1.7765  1.2135  2.4329
31833SOL     OW98996   6.695   6.132   6.481  0.0722  0.7955  0.4261
31833SOL    HW198997   6.642   6.059   6.513  0.1678  0.6132  0.1696
31833SOL    HW298998   6.690   6.198   6.550 -2.3435  1.7060 -0.5069
31834SOL     OW98999   9.642   2.469   6.469 -0.4154  0.1190 -0.6414
31834SOL    HW199000   9.599   2.542   6.514  0.2417  0.2101 -0.1459
31834SOL    HW299001   9.735   2.489   6.474 -0.0570 -1.6394  1.1676
31835SOL     OW99002   2.616   6.752   2.177  0.4764 -0.2652  0.3521
31835SOL    HW199003   2.673   6.807   2.124 -0.4133 -0.1502 -0.5229
31835SOL    HW299004   2.610   6.798   2.261  0.5942  0.4196 -0.0047
31836SOL     OW99005   9.435   1.848   3.908  0.1621 -0.1268  0.1511
31836SOL    HW199006   9.360   1.877   3.857  1.5876 -0.7629 -2.4868
31836SOL    HW299007   9.466   1.769   3.863  1.6575 -0.6143  1.9141
31837SOL     OW99008  10.925   4.723   4.908 -0.3588 -0.2410  0.6102
31837SOL    HW199009  10.889   4.811   4.914  0.5994  0.3722 -1.7688
31837SOL    HW299010  10.881   4.675   4.979 -3.0739  1.3687  0.1827
31838SOL     OW99011   6.477   5.323   4.172 -0.0429  0.0228 -0.1230
31838SOL    HW199012   6.524   5.359   4.248  0.2846  1.0348 -0.7801
31838SOL    HW299013   6.505   5.232   4.167  2.4946  0.7689 -0.9263
31839SOL     OW99014   4.365   2.308  10.407 -0.1250  0.4425 -0.7039
31839SOL    HW199015   4.324   2.230  10.371  1.1547 -0.9337  0.7000
31839SOL    HW299016   4.420   2.276  10.478 -0.5016  2.7589  0.7200
31840SOL     OW99017   4.119   9.638   3.494  0.1154 -0.6487  0.5017
31840SOL    HW199018   4.139   9.644   3.400  0.3481 -0.3790  0.5675
31840SOL    HW299019   4.040   9.584   3.498  0.3636 -1.0428  0.1842
31841SOL     OW99020   1.062   2.932   7.540 -0.2915 -0.1999 -0.0788
31841SOL    HW199021   1.052   3.022   7.507 -0.3092 -0.0143  0.4295
31841SOL    HW299022   1.075   2.880   7.461 -2.8616 -0.1388 -0.6348
31842SOL     OW99023   8.715  10.897   9.877 -0.0416 -0.0252 -0.4008
31842SOL    HW199024   8.797  10.945   9.890  0.5626 -1.3060  0.8035
31842SOL    HW299025   8.650  10.945   9.928  0.4563 -0.2082  0.4196
31843SOL     OW99026   8.003   5.640   8.349 -0.3341 -0.1264  0.4302
31843SOL    HW199027   7.993   5.705   8.280  1.0608 -1.8862 -1.5443
31843SOL    HW299028   7.920   5.644   8.398 -0.1900  3.2634  0.6042
31844SOL     OW99029   6.182   3.948   3.394 -0.1091  0.1743  0.3843
31844SOL    HW199030   6.172   3.871   3.338  0.4780 -0.4367  1.0847
31844SOL    HW299031   6.257   3.994   3.357 -0.5540  0.5026 -0.1268
31845SOL     OW99032   9.835   5.857  10.025  0.0651 -0.5798  0.8033
31845SOL    HW199033   9.840   5.772   9.981  0.2591 -0.6616  0.9791
31845SOL    HW299034   9.788   5.839  10.106  0.8348 -0.6894  1.2337
31846SOL     OW99035   2.566   8.770  10.245 -0.8005 -0.1958  0.3355
31846SOL    HW199036   2.611   8.852  10.265 -0.6691 -0.1130 -0.2659
31846SOL    HW299037   2.612   8.735  10.168 -1.3050 -0.4724  0.1486
31847SOL     OW99038   5.520   2.606   3.980  0.2624  0.0240 -0.1820
31847SOL    HW199039   5.597   2.647   4.020 -0.2549  1.3128 -0.4611
31847SOL    HW299040   5.557   2.537   3.924  1.1523 -0.0253  0.4378
31848SOL     OW99041  10.648   8.322   0.540 -0.4295 -0.5919 -0.4348
31848SOL    HW199042  10.561   8.284   0.526 -0.3742 -0.7493 -0.3567
31848SOL    HW299043  10.665   8.372   0.460 -0.5867 -0.5705 -0.4557
31849SOL     OW99044  10.804   2.516   5.973  0.7879  0.3792 -0.3418
31849SOL    HW199045  10.805   2.608   5.946 -0.6935  1.4535  2.7837
31849SOL    HW299046  10.727   2.479   5.930  0.9948  0.7595 -1.0601
31850SOL     OW99047  10.988   3.042   7.234  0.3875 -0.3936 -0.0520
31850SOL    HW199048  10.920   2.980   7.208 -2.0727  1.8042  0.7261
31850SOL    HW299049  10.997   3.100   7.159  0.8840 -0.2469  0.1205
31851SOL     OW99050  10.962   4.891   0.163 -0.1117  0.1039  0.1280
31851SOL    HW199051  11.012   4.809   0.162 -0.5812 -0.1924  0.3101
31851SOL    HW299052  10.879   4.869   0.120  0.2660  0.8311 -1.0001
31852SOL     OW99053   7.519   7.616   6.097  0.0187  0.5209 -0.0557
31852SOL    HW199054   7.506   7.654   6.184  0.3368 -0.5827  0.4937
31852SOL    HW299055   7.602   7.569   6.104 -0.9125 -1.2444 -0.3357
31853SOL     OW99056   5.212   8.739   0.381 -0.6557 -0.3144 -0.0337
31853SOL    HW199057   5.181   8.821   0.419  1.7609  1.2049 -1.0797
31853SOL    HW299058   5.157   8.671   0.420 -2.7508  1.7838  0.8589
31854SOL     OW99059   3.804   0.771   9.389 -0.4048 -0.3127 -0.1478
31854SOL    HW199060   3.813   0.812   9.475  1.8166  1.3448 -1.0798
31854SOL    HW299061   3.865   0.697   9.392 -1.3231 -1.0730  0.1263
31855SOL     OW99062   0.821   9.062   1.572  0.0454 -0.0094 -0.2254
31855SOL    HW199063   0.909   9.095   1.555  0.7119 -0.8750  1.2976
31855SOL    HW299064   0.829   8.967   1.563  0.3427 -0.5323  3.7492
31856SOL     OW99065   1.182   3.549   4.613 -0.2344  0.0717 -0.3755
31856SOL    HW199066   1.165   3.577   4.703  3.0286  0.6186  0.1901
31856SOL    HW299067   1.126   3.606   4.560  0.1273  2.0153  1.1917
31857SOL     OW99068   3.778   2.479   5.278 -0.2372 -0.0507  0.2001
31857SOL    HW199069   3.800   2.555   5.224  0.2965  0.1697  0.7141
31857SOL    HW299070   3.797   2.507   5.367  1.3307 -1.2451  0.2844
31858SOL     OW99071   7.510   8.548   9.301 -0.2217 -0.2550 -0.1988
31858SOL    HW199072   7.598   8.533   9.335 -0.4717 -2.2129 -0.3173
31858SOL    HW299073   7.506   8.496   9.221 -1.0470  0.9369 -0.9674
31859SOL     OW99074   9.393   5.610   5.801 -0.5295 -0.3601 -0.7462
31859SOL    HW199075   9.473   5.662   5.789 -0.4854 -0.7981 -2.7863
31859SOL    HW299076   9.425   5.523   5.826 -0.4531 -0.1819 -0.2125
31860SOL     OW99077   9.258   7.615   4.226 -0.3351  0.3328  0.0816
31860SOL    HW199078   9.341   7.663   4.227  1.0780 -1.9706 -0.7144
31860SOL    HW299079   9.264   7.555   4.300 -0.8363 -0.5227 -0.5525
31861SOL     OW99080  10.951   7.531   8.564  0.1251  0.3128 -0.7226
31861SOL    HW199081  10.911   7.525   8.477  0.3030  1.1130 -0.8734
31861SOL    HW299082  11.045   7.531   8.548  0.1605  0.1722 -0.5118
31862SOL     OW99083   3.753   7.250   3.101 -0.1619  0.2094 -0.6760
31862SOL    HW199084   3.799   7.228   3.182  2.6351  2.5606 -1.4604
31862SOL    HW299085   3.770   7.175   3.043 -0.0084 -0.3536  0.0777
31863SOL     OW99086   5.833   6.374   4.332  0.1609  0.0616 -0.2937
31863SOL    HW199087   5.927   6.371   4.310 -0.0664 -0.8528 -1.2395
31863SOL    HW299088   5.790   6.391   4.248 -0.5410  0.3316  0.1144
31864SOL     OW99089   1.643   8.283   6.126 -0.3491 -0.2126 -0.2444
31864SOL    HW199090   1.686   8.204   6.095 -0.5045 -0.7116  0.7819
31864SOL    HW299091   1.702   8.354   6.100 -0.2538 -0.6435 -1.2560
31865SOL     OW99092  10.438   9.608   2.951 -0.2873  0.1279  0.2567
31865SOL    HW199093  10.378   9.680   2.929 -0.2118  0.2667  0.5009
31865SOL    HW299094  10.425   9.544   2.881 -2.3889 -0.8671  1.4656
31866SOL     OW99095   6.804   0.279   7.049  0.5987 -0.2158  0.0175
31866SOL    HW199096   6.805   0.335   6.971 -0.2886  0.9473  0.7980
31866SOL    HW299097   6.889   0.294   7.090  0.1790  1.0177  0.4919
31867SOL     OW99098   7.347   6.836   9.967 -0.2033  0.2944 -0.5022
31867SOL    HW199099   7.394   6.906  10.012 -2.1621  0.9025  0.7130
31867SOL    HW299100   7.312   6.878   9.888  0.4735  0.0934 -0.9130
31868SOL     OW99101   6.578   1.299   3.903 -0.7353  0.3875 -0.1052
31868SOL    HW199102   6.584   1.206   3.925  0.6206  0.4558 -0.0799
31868SOL    HW299103   6.502   1.305   3.845  0.0959 -1.0091 -1.4365
31869SOL     OW99104   2.012   9.485   7.968  0.2395  0.6823  0.3065
31869SOL    HW199105   2.045   9.451   8.051  1.7273 -0.0829 -0.5548
31869SOL    HW299106   1.949   9.419   7.938  1.4275 -0.2467 -0.2565
31870SOL     OW99107   8.483   3.473   7.542  0.0915  0.1049 -0.2085
31870SOL    HW199108   8.545   3.535   7.504  0.1884  0.0887 -0.0778
31870SOL    HW299109   8.399   3.494   7.501  0.5200 -1.0249 -1.7349
31871SOL     OW99110   0.683   1.049   1.997 -0.2030 -0.4943  0.2910
31871SOL    HW199111   0.739   0.989   2.045  1.4169  2.1417  1.9715
31871SOL    HW299112   0.744   1.113   1.959 -1.9250  1.4988  0.7182
31872SOL     OW99113   4.624   7.449   5.510 -0.1218 -0.1430  0.1326
31872SOL    HW199114   4.710   7.490   5.507  0.2804 -0.9767 -0.0317
31872SOL    HW299115   4.610   7.430   5.603 -0.1810  0.0978  0.1732
31873SOL     OW99116   9.398   6.809   2.542  0.8825 -0.6901  0.2229
31873SOL    HW199117   9.466   6.822   2.608  0.6832 -0.2968  0.3575
31873SOL    HW299118   9.410   6.719   2.512  1.7855 -0.4717 -0.1177
31874SOL     OW99119   6.118  10.983   6.650  0.2760 -0.4605  0.4710
31874SOL    HW199120   6.042  10.948   6.696  0.1896 -0.9147 -0.0100
31874SOL    HW299121   6.177  10.908   6.639 -0.3749 -0.7519 -1.5061
31875SOL     OW99122   0.279  10.087   2.991  0.3251  0.2026 -0.2270
31875SOL    HW199123   0.190  10.120   2.997 -0.2435 -1.3535  0.6194
31875SOL    HW299124   0.335  10.164   2.998 -0.9483  1.2663 -1.3381
31876SOL     OW99125   8.271   5.402   4.803 -0.2289 -0.6172 -0.4340
31876SOL    HW199126   8.195   5.422   4.858 -1.5881 -1.4245 -1.9206
31876SOL    HW299127   8.234   5.359   4.726  1.8414 -1.9144 -0.7908
31877SOL     OW99128   8.130   2.226   0.397 -0.0402 -0.0280  0.3084
31877SOL    HW199129   8.170   2.139   0.390 -0.3527 -0.0982 -0.8600
31877SOL    HW299130   8.113   2.252   0.306 -1.6328  0.4701  0.7092
31878SOL     OW99131   0.719   5.819   8.174 -0.1946 -0.1368 -0.4155
31878SOL    HW199132   0.717   5.810   8.079  0.1135  0.1594 -0.4527
31878SOL    HW299133   0.731   5.913   8.188 -2.1772  0.1031 -0.0725
31879SOL     OW99134   9.203   7.474   8.042  0.3544  0.0501 -0.5417
31879SOL    HW199135   9.203   7.382   8.068 -0.2242 -0.3386 -1.8481
31879SOL    HW299136   9.173   7.474   7.951  2.1938  1.3577 -1.2108
31880SOL     OW99137   9.094   5.832   8.715  0.1828 -0.2416  0.5132
31880SOL    HW199138   9.020   5.801   8.768 -0.8738  1.9258  0.4280
31880SOL    HW299139   9.108   5.922   8.745  1.0537  0.2735 -1.3294
31881SOL     OW99140   9.978   4.136   4.384  0.2084  0.1672 -0.1325
31881SOL    HW199141  10.038   4.210   4.372 -1.4362  1.5480 -0.2893
31881SOL    HW299142   9.962   4.104   4.295  0.3423  0.1121 -0.1367
31882SOL     OW99143   7.960   9.153   1.747 -0.1753  0.1271  0.2964
31882SOL    HW199144   8.019   9.092   1.705 -0.2844 -0.1056  0.4783
31882SOL    HW299145   7.883   9.101   1.770 -1.2494  0.7980 -1.5811
31883SOL     OW99146   2.574   1.162   4.461 -0.3294 -0.4537  0.0365
31883SOL    HW199147   2.601   1.241   4.414  0.3483 -0.4675  0.3963
31883SOL    HW299148   2.495   1.188   4.509 -0.9188 -0.3795 -0.9199
31884SOL     OW99149   3.271   3.662   4.893  0.0874 -0.2094 -0.0602
31884SOL    HW199150   3.180   3.671   4.864 -0.2720  0.6431  1.2775
31884SOL    HW299151   3.320   3.715   4.830 -0.1816 -1.4263 -1.3664
31885SOL     OW99152   1.920   6.993   0.358 -0.4344  0.6092  0.1273
31885SOL    HW199153   1.975   6.996   0.280  0.4142  0.3359  0.6975
31885SOL    HW299154   1.835   7.028   0.329 -0.0913  0.6592 -0.8673
31886SOL     OW99155   2.197   9.497   1.864 -0.1511 -0.3784  0.4331
31886SOL    HW199156   2.117   9.445   1.872 -0.8380  0.7382  1.1350
31886SOL    HW299157   2.246   9.479   1.944 -1.1646  1.2783  1.4617
31887SOL     OW99158  10.987   3.303  10.323 -0.6169  0.1652  0.3485
31887SOL    HW199159  10.938   3.223  10.340 -0.8732  0.0373 -0.8779
31887SOL    HW299160  11.075   3.285  10.354 -0.3220 -1.1099 -1.1350
31888SOL     OW99161  10.661   6.870   3.795 -0.0300  0.0390  0.4171
31888SOL    HW199162  10.574   6.837   3.814 -0.5549  0.3565 -1.2620
31888SOL    HW299163  10.669   6.863   3.700  1.6023  0.4475  0.4917
31889SOL     OW99164   6.162   1.869   5.598  0.2877  0.1123 -0.2383
31889SOL    HW199165   6.219   1.794   5.579  1.6668  0.8089  0.9330
31889SOL    HW299166   6.150   1.913   5.514 -1.7718 -2.1680 -1.2750
31890SOL     OW99167   9.326   5.987   8.508 -0.1306  0.7089  0.2490
31890SOL    HW199168   9.254   6.031   8.554 -0.7325 -0.4226  0.4271
31890SOL    HW299169   9.320   5.896   8.536  0.2560  0.2364 -1.1220
31891SOL     OW99170   2.862   5.853   6.977  0.2781 -0.0478  0.2943
31891SOL    HW199171   2.946   5.899   6.987  1.2720 -1.7369  0.1273
31891SOL    HW299172   2.796   5.922   6.983  1.5581  1.0797  2.4024
31892SOL     OW99173   3.144   4.209   5.373 -0.1286 -0.2875  0.6262
31892SOL    HW199174   3.096   4.290   5.388  0.5144  0.4255 -0.9139
31892SOL    HW299175   3.080   4.139   5.386 -1.6303  0.6223 -1.3638
31893SOL     OW99176   8.297   7.552  10.314  0.2518 -0.6870 -0.7129
31893SOL    HW199177   8.207   7.580  10.297 -0.0855 -0.8982  0.6093
31893SOL    HW299178   8.294   7.457  10.307  0.5380 -0.6457 -1.3950
31894SOL     OW99179   7.485   5.146  10.986  0.8533 -0.4680 -0.6299
31894SOL    HW199180   7.434   5.069  10.959  0.3246 -0.6605  0.8162
31894SOL    HW299181   7.499   5.133  11.080  0.7770  1.1884 -0.3631
31895SOL     OW99182   7.340   1.762   7.470  0.3583  0.3154 -0.3071
31895SOL    HW199183   7.257   1.759   7.422 -0.0282 -0.2559  0.3693
31895SOL    HW299184   7.331   1.836   7.529  0.2271  0.1003 -0.0566
31896SOL     OW99185   1.260   4.529   1.738 -0.2235 -0.5068 -0.1352
31896SOL    HW199186   1.233   4.611   1.696 -0.2977 -0.0863  0.7287
31896SOL    HW299187   1.220   4.461   1.683 -1.3785  0.0608 -0.0358
31897SOL     OW99188   3.822   6.347   8.010  0.3405  0.9074 -0.3827
31897SOL    HW199189   3.728   6.362   8.018  0.2617 -0.0023  0.4977
31897SOL    HW299190   3.840   6.358   7.917 -0.8655 -0.2237 -0.7744
31898SOL     OW99191   7.312   3.889   6.289 -0.0330 -0.2445 -0.5560
31898SOL    HW199192   7.327   3.873   6.382 -2.5407 -0.1491 -0.0818
31898SOL    HW299193   7.351   3.975   6.273  0.5162 -0.3133  0.3650
31899SOL     OW99194   6.445   8.807   0.740 -0.1208 -0.0076  0.3660
31899SOL    HW199195   6.420   8.735   0.681  1.2046 -0.0946 -0.1047
31899SOL    HW299196   6.392   8.881   0.711  0.1139 -0.2024 -0.5893
31900SOL     OW99197   1.840   9.389  10.683 -0.8312  0.4925  0.1171
31900SOL    HW199198   1.923   9.387  10.636 -1.0038 -1.9783 -0.2026
31900SOL    HW299199   1.846   9.317  10.747 -2.2054  1.1306  1.0203
31901SOL     OW99200   5.953   5.312   4.176 -0.7629  0.7325 -0.4144
31901SOL    HW199201   5.952   5.346   4.087 -0.4714  1.1378 -0.2631
31901SOL    HW299202   6.021   5.361   4.220  1.6379 -1.8824 -0.9238
31902SOL     OW99203   3.912   4.483   5.584 -0.4215 -0.3919 -0.1822
31902SOL    HW199204   3.910   4.565   5.534  0.6164 -0.6102 -0.6087
31902SOL    HW299205   3.946   4.509   5.670  0.0984 -0.3980 -0.3817
31903SOL     OW99206   8.195   0.240   7.603 -0.0861  0.9629  0.1945
31903SOL    HW199207   8.115   0.281   7.571 -0.4074  0.2251  0.0375
31903SOL    HW299208   8.168   0.199   7.686 -0.7132 -2.0178 -1.3595
31904SOL     OW99209   5.535   3.939   5.681  0.7474 -0.3491  0.2933
31904SOL    HW199210   5.457   3.884   5.674  1.4170 -1.1216 -2.0675
31904SOL    HW299211   5.547   3.976   5.594  1.8035  1.5209  1.1604
31905SOL     OW99212   5.176  10.978   5.916 -0.2830  0.1831 -0.5152
31905SOL    HW199213   5.246  11.035   5.883  0.3059  0.1467  0.6352
31905SOL    HW299214   5.158  10.918   5.843 -0.8697  1.7562 -1.7368
31906SOL     OW99215   2.600  10.284   5.694 -0.0111 -0.0477 -0.2528
31906SOL    HW199216   2.520  10.237   5.674  1.1833 -1.9341 -0.8822
31906SOL    HW299217   2.606  10.281   5.790 -1.0769  0.8416 -0.1405
31907SOL     OW99218   5.795   6.980   7.203  0.0718  0.1128 -0.3312
31907SOL    HW199219   5.838   6.928   7.135  3.0068  2.3606 -0.4328
31907SOL    HW299220   5.706   6.946   7.208  1.2088 -3.4703 -1.7380
31908SOL     OW99221   0.432   7.168   4.746 -0.1243 -0.2716 -0.1118
31908SOL    HW199222   0.447   7.092   4.802 -1.4154 -0.7858 -0.4363
31908SOL    HW299223   0.471   7.241   4.795 -0.4171 -0.8509  1.0272
31909SOL     OW99224   4.806   6.421   4.661 -0.3290 -0.1068  0.0590
31909SOL    HW199225   4.793   6.436   4.567  0.4677  0.3692  0.0202
31909SOL    HW299226   4.876   6.355   4.665  1.4278  1.6792  0.3249
31910SOL     OW99227   2.078   5.649   2.265  0.1066  0.0421 -0.3104
31910SOL    HW199228   2.056   5.628   2.356  2.2341 -0.3968  0.1620
31910SOL    HW299229   2.083   5.564   2.221 -1.0963  0.2637 -0.9255
31911SOL     OW99230   0.062   3.655   9.747 -0.0686 -0.2124  0.6179
31911SOL    HW199231  -0.018   3.698   9.719  0.1674  1.4985  2.3534
31911SOL    HW299232   0.132   3.706   9.706  0.1649 -0.0618  1.1827
31912SOL     OW99233   6.713   6.089   5.426  0.3675 -0.2164  0.2399
31912SOL    HW199234   6.737   6.178   5.452  1.0359 -0.7792  1.6267
31912SOL    HW299235   6.630   6.073   5.471  0.6405 -0.5690  0.6232
31913SOL     OW99236  10.326   5.401   4.567  0.2335  0.3544 -0.4591
31913SOL    HW199237  10.255   5.460   4.540 -0.1659  0.6100  1.0387
31913SOL    HW299238  10.383   5.457   4.620  0.5194 -0.3186 -0.0561
31914SOL     OW99239   2.984   2.961   2.741 -0.1832 -0.7499  0.0940
31914SOL    HW199240   2.934   3.041   2.758  0.0826 -0.5864  0.1196
31914SOL    HW299241   2.978   2.912   2.823  0.5969 -0.2337  0.4845
31915SOL     OW99242   4.230  10.496   0.755 -0.2449  0.6789 -0.3473
31915SOL    HW199243   4.289  10.463   0.823 -0.9195  1.3833  0.6080
31915SOL    HW299244   4.154  10.528   0.803 -0.1400  2.4993 -1.3160
31916SOL     OW99245   0.197   8.354   8.958 -1.0933  0.1021  0.0483
31916SOL    HW199246   0.146   8.420   9.004 -1.0597  0.0937  0.0978
31916SOL    HW299247   0.251   8.403   8.896 -0.7923  0.1530  0.3488
31917SOL     OW99248   4.146   4.769   0.144  0.2767 -0.1810  0.2370
31917SOL    HW199249   4.081   4.715   0.188 -0.6662  0.1155 -0.7549
31917SOL    HW299250   4.109   4.857   0.144  0.8889  0.0864  0.0545
31918SOL     OW99251   8.205   1.760   4.996  0.2273 -0.0372  0.7360
31918SOL    HW199252   8.149   1.752   4.918  1.9972 -1.5481 -0.4585
31918SOL    HW299253   8.232   1.852   4.997  0.9816 -0.2036 -1.0576
31919SOL     OW99254   0.669   7.680   8.706 -0.5705  0.1222 -0.2613
31919SOL    HW199255   0.713   7.756   8.745  1.9753 -1.2798 -0.1821
31919SOL    HW299256   0.576   7.703   8.707 -0.0278  2.6276  1.0437
31920SOL     OW99257   4.910   1.981   0.577 -0.1452  0.0452 -0.0635
31920SOL    HW199258   4.932   1.929   0.499 -0.5393 -0.5349  0.2093
31920SOL    HW299259   4.912   2.072   0.546 -1.2826 -0.2205 -1.0106
31921SOL     OW99260   3.114   4.186   7.370 -0.5471 -0.1929 -0.6486
31921SOL    HW199261   3.049   4.252   7.347 -0.2288  0.4542  0.2347
31921SOL    HW299262   3.141   4.210   7.459  0.5059 -0.7614 -0.8047
31922SOL     OW99263   6.540   8.327   3.446  0.1744  0.5085 -0.3132
31922SOL    HW199264   6.532   8.409   3.397  1.4021  0.1189 -1.1896
31922SOL    HW299265   6.501   8.347   3.531 -0.6818  1.6257 -0.9378
31923SOL     OW99266   6.242   5.152   9.387 -0.0482 -0.2045  0.2570
31923SOL    HW199267   6.280   5.166   9.474  1.9031 -1.3624 -0.3427
31923SOL    HW299268   6.159   5.108   9.404  0.4029 -0.6174  1.5255
31924SOL     OW99269  10.780   6.798   6.364  0.1576 -0.3717 -0.0482
31924SOL    HW199270  10.692   6.762   6.369 -0.1961  0.4109 -0.4440
31924SOL    HW299271  10.838   6.722   6.364 -0.5009 -0.8870  0.4476
31925SOL     OW99272   1.185   9.144   4.594 -0.1860  0.3270 -0.4971
31925SOL    HW199273   1.171   9.166   4.686 -2.3542  1.0742 -0.9506
31925SOL    HW299274   1.155   9.220   4.546 -0.6662 -0.6787 -1.8631
31926SOL     OW99275   7.290   5.765   8.964 -0.0503  0.0524  0.1449
31926SOL    HW199276   7.204   5.766   8.921  0.6115  1.6673 -1.2446
31926SOL    HW299277   7.316   5.857   8.968  0.7946 -0.2134  2.3467
31927SOL     OW99278   6.421   8.263   7.741 -1.1297  0.4347 -0.2017
31927SOL    HW199279   6.343   8.223   7.779 -1.6300 -0.0149 -1.6166
31927SOL    HW299280   6.398   8.277   7.649  0.9899 -1.2457 -1.0792
31928SOL     OW99281   1.633  10.132  10.559 -0.3894 -0.9813  0.1513
31928SOL    HW199282   1.718  10.092  10.578  0.6422  0.4874 -1.1470
31928SOL    HW299283   1.570  10.060  10.572  0.7998 -1.6857  2.7789
31929SOL     OW99284   1.836   5.473   6.277 -0.8492 -0.5366 -0.1651
31929SOL    HW199285   1.810   5.527   6.352 -2.4989 -0.8847 -0.4492
31929SOL    HW299286   1.930   5.459   6.289 -1.0227 -0.3513  1.6807
31930SOL     OW99287   0.295   6.277   2.269 -0.2696  0.2363  0.2060
31930SOL    HW199288   0.240   6.206   2.235  0.2859 -0.8999  1.5705
31930SOL    HW299289   0.346   6.236   2.339  0.7760  1.7721  0.3883
31931SOL     OW99290   2.232   6.356   2.114 -0.0934  0.8055  0.2138
31931SOL    HW199291   2.303   6.418   2.133  1.3424 -1.0984  1.3942
31931SOL    HW299292   2.255   6.319   2.029 -0.1384  0.7983  0.2051
31932SOL     OW99293   6.074   3.141   5.670  0.2880  0.2727 -0.8783
31932SOL    HW199294   6.168   3.127   5.659  0.4334 -0.1365  0.6510
31932SOL    HW299295   6.048   3.192   5.593  1.4906 -0.7562 -2.0179
31933SOL     OW99296   9.506   6.650   9.022 -0.3979 -0.3887 -0.1944
31933SOL    HW199297   9.465   6.653   8.935  1.3783  1.1139 -1.0476
31933SOL    HW299298   9.470   6.571   9.062 -3.5862  0.4525 -1.0951
31934SOL     OW99299  10.061   9.801   8.168  0.2108 -0.0228 -0.2253
31934SOL    HW199300  10.143   9.827   8.210 -0.1688  1.5408 -0.3791
31934SOL    HW299301  10.005   9.774   8.241  0.4495  0.0909  0.0026
31935SOL     OW99302   5.048  10.395   0.188  0.3973 -0.1026 -0.0888
31935SOL    HW199303   5.117  10.456   0.165 -1.4203  1.6328 -1.2538
31935SOL    HW299304   5.009  10.432   0.268 -0.3846  0.0056 -0.5111
31936SOL     OW99305  10.768   6.876  10.387 -0.2696 -0.4462 -0.0990
31936SOL    HW199306  10.814   6.960  10.386  0.1113 -0.6568 -0.4118
31936SOL    HW299307  10.748   6.859  10.296 -1.8659  0.1216  0.1101
31937SOL     OW99308   3.126   3.171   8.700  0.2924 -0.2544 -0.7209
31937SOL    HW199309   3.035   3.201   8.691  0.2570  0.6928  1.9171
31937SOL    HW299310   3.125   3.081   8.669 -1.3911 -0.0636 -1.3352
31938SOL     OW99311  10.457   4.711  10.408 -0.7380  0.0628  0.0484
31938SOL    HW199312  10.397   4.760  10.352 -0.4093  0.4139 -0.0061
31938SOL    HW299313  10.427   4.730  10.497 -0.1647  0.9806  0.0601
31939SOL     OW99314   5.753   7.989  10.922 -0.7329 -0.2457 -0.3084
31939SOL    HW199315   5.765   8.000  11.016 -0.1872 -0.3299 -0.3604
31939SOL    HW299316   5.699   8.063  10.896  1.0855  1.1766 -0.2981
31940SOL     OW99317  10.901   6.424   3.845  0.1699  0.1611  0.4860
31940SOL    HW199318  10.916   6.431   3.751 -0.2786 -2.5619  0.1243
31940SOL    HW299319  10.814   6.462   3.858 -1.4372 -2.6780 -0.9288
31941SOL     OW99320   8.373   9.752   7.108  0.1076 -0.6003 -0.0018
31941SOL    HW199321   8.382   9.682   7.043  0.2101 -1.6407  1.0751
31941SOL    HW299322   8.287   9.789   7.091  0.5143 -0.2058 -1.3153
31942SOL     OW99323   3.665   3.452   4.937  0.0710 -0.2250 -0.2036
31942SOL    HW199324   3.601   3.459   5.009  0.4324 -1.3017  0.2403
31942SOL    HW299325   3.616   3.415   4.865  0.0375 -0.4447 -0.0687
31943SOL     OW99326   8.569   3.096   0.177  0.1286  0.3161 -0.2644
31943SOL    HW199327   8.638   3.163   0.177  0.3233  0.1174 -0.8831
31943SOL    HW299328   8.521   3.111   0.096  0.5892 -0.7142 -0.7378
31944SOL     OW99329   0.240   5.586   1.797 -0.3251 -0.8345  0.0778
31944SOL    HW199330   0.254   5.648   1.726  0.7161  0.0832  1.0426
31944SOL    HW299331   0.305   5.611   1.864  0.9569 -3.6607  0.0444
31945SOL     OW99332   1.565   6.585   2.557 -0.1783  0.4472  0.1692
31945SOL    HW199333   1.550   6.560   2.649 -2.3846  1.5947  0.2038
31945SOL    HW299334   1.483   6.561   2.513  0.9018 -0.2326 -1.5666
31946SOL     OW99335   0.314   2.584   1.940 -0.3315  0.1305  0.6819
31946SOL    HW199336   0.336   2.575   1.848  0.2252  0.3261  0.7921
31946SOL    HW299337   0.246   2.519   1.955 -1.2880  0.8973 -0.1446
31947SOL     OW99338   5.900   3.527   4.089 -0.0210  0.0376  0.1542
31947SOL    HW199339   5.888   3.474   4.010  1.7577  0.8385 -0.7285
31947SOL    HW299340   5.815   3.526   4.133 -0.0686 -3.6278  0.2791
31948SOL     OW99341   9.491   7.822  10.956 -0.6447 -0.4955 -0.7400
31948SOL    HW199342   9.470   7.800  11.047  0.2014 -1.1427 -0.6934
31948SOL    HW299343   9.406   7.818  10.911 -1.0985  0.0012  0.0421
31949SOL     OW99344   8.167  10.507   1.502  0.0687  0.2967  0.4491
31949SOL    HW199345   8.124  10.488   1.586 -0.3109  0.7497  0.3630
31949SOL    HW299346   8.127  10.446   1.440 -1.4614  1.6058  0.0798
31950SOL     OW99347   8.761   4.859   8.686  0.0313 -0.1084 -0.1761
31950SOL    HW199348   8.735   4.944   8.651  0.8665 -0.0851 -0.7607
31950SOL    HW299349   8.679   4.813   8.702 -0.3813  0.0823 -1.6647
31951SOL     OW99350   3.777   8.773   4.978 -0.4122  0.0701 -0.0704
31951SOL    HW199351   3.803   8.837   5.045 -1.9504  0.1605  0.4729
31951SOL    HW299352   3.784   8.689   5.023  1.4705 -0.1727 -0.7413
31952SOL     OW99353   4.463   9.266  10.055 -0.1044 -0.2968  0.6438
31952SOL    HW199354   4.479   9.241   9.964  0.3318  0.3602  0.5296
31952SOL    HW299355   4.550   9.291  10.088  0.0694 -2.1886  1.7721
31953SOL     OW99356   2.294   2.751   0.730 -0.0524  0.2071  0.1543
31953SOL    HW199357   2.258   2.786   0.811 -0.7084 -1.7926  0.8023
31953SOL    HW299358   2.260   2.807   0.661  0.4697  1.9207  1.2219
31954SOL     OW99359   4.010  10.437   0.266  0.0726 -0.0011 -0.4724
31954SOL    HW199360   3.923  10.398   0.272 -0.2142  0.5432 -1.0102
31954SOL    HW299361   4.026  10.474   0.353 -0.5127  0.4722 -0.5592
31955SOL     OW99362   0.997   5.430   9.247  0.2152 -0.5357  0.3429
31955SOL    HW199363   1.037   5.350   9.280  0.3671 -0.4440  0.3824
31955SOL    HW299364   0.914   5.436   9.294  0.5009 -0.3235  0.8254
31956SOL     OW99365  10.408   3.975   8.168  0.0588  0.0437  0.0877
31956SOL    HW199366  10.441   4.036   8.234  0.1035  1.6710 -1.4051
31956SOL    HW299367  10.314   3.991   8.166 -0.0435 -0.4998  0.2104
31957SOL     OW99368   7.379   8.883   5.321 -0.5876  0.0096 -0.1414
31957SOL    HW199369   7.467   8.916   5.340 -1.4179  2.6138 -0.4794
31957SOL    HW299370   7.337   8.953   5.271 -1.7388 -2.5569 -3.1231
31958SOL     OW99371   8.289   2.870   6.625 -0.4615  0.4205  0.4152
31958SOL    HW199372   8.201   2.902   6.645 -0.3330  1.6051 -0.7768
31958SOL    HW299373   8.332   2.865   6.710 -1.6091  0.0068  0.9935
31959SOL     OW99374   4.367   6.747   6.113  0.8307 -0.9486 -0.0060
31959SOL    HW199375   4.327   6.688   6.049 -1.2885 -0.1089  0.4673
31959SOL    HW299376   4.366   6.699   6.195 -0.8525 -0.3412  0.3694
31960SOL     OW99377   5.247   1.580   5.696 -0.3472  0.5471 -0.5941
31960SOL    HW199378   5.293   1.662   5.712  0.8662 -0.2744  0.3806
31960SOL    HW299379   5.293   1.516   5.751 -1.5446 -0.6912 -0.9724
31961SOL     OW99380  10.882   8.197   6.629 -0.5087  0.2987  0.2746
31961SOL    HW199381  10.841   8.222   6.711  0.0669 -0.7060  0.8849
31961SOL    HW299382  10.878   8.276   6.575 -0.8406  0.9851  1.2873
31962SOL     OW99383   3.110   7.522   0.810  0.4751  0.4139 -0.8171
31962SOL    HW199384   3.188   7.502   0.862  0.1349  0.1830 -0.3826
31962SOL    HW299385   3.119   7.613   0.785 -0.0099  0.9489  0.8295
31963SOL     OW99386   1.639   0.266   5.665  0.1504 -0.3542  0.4232
31963SOL    HW199387   1.700   0.317   5.719  0.1772 -1.2495  1.2542
31963SOL    HW299388   1.554   0.279   5.707  0.1621 -1.0041  0.6602
31964SOL     OW99389   8.996   3.969   6.949 -0.3238 -0.3701  0.1037
31964SOL    HW199390   9.061   3.910   6.910  0.3974 -0.6880  1.6881
31964SOL    HW299391   8.948   4.005   6.874  0.2862 -1.7302 -0.9902
31965SOL     OW99392   7.161   7.190   5.497 -0.4341  0.2531 -0.2246
31965SOL    HW199393   7.068   7.171   5.510 -0.5340 -0.2170 -1.4897
31965SOL    HW299394   7.170   7.200   5.403  0.9514 -0.5526 -0.2053
31966SOL     OW99395   8.756   5.177   0.526 -0.1055  0.5685  0.4246
31966SOL    HW199396   8.707   5.157   0.447 -1.2836  0.6359  1.1116
31966SOL    HW299397   8.797   5.262   0.509  3.4556 -1.3312 -1.8380
31967SOL     OW99398   0.878   2.238   5.628 -0.2706 -0.4890  0.4563
31967SOL    HW199399   0.944   2.171   5.611 -1.8007 -1.8831 -0.2226
31967SOL    HW299400   0.808   2.192   5.675 -2.3333  0.0455 -1.9047
31968SOL     OW99401   7.396   1.470   3.576 -0.0800  0.0824 -0.3042
31968SOL    HW199402   7.373   1.392   3.526  0.3412  0.0674 -0.4765
31968SOL    HW299403   7.446   1.525   3.515 -1.0213  0.8426 -0.4213
31969SOL     OW99404   7.109   0.216   6.695  0.3120  0.4572 -0.0598
31969SOL    HW199405   7.117   0.194   6.602 -0.1103  2.1621 -0.5241
31969SOL    HW299406   7.031   0.168   6.724  1.0414 -0.9212 -0.2987
31970SOL     OW99407  10.215   5.673   4.483  0.0468 -0.3848 -0.3220
31970SOL    HW199408  10.282   5.710   4.539 -0.4118  0.2860 -0.2063
31970SOL    HW299409  10.140   5.732   4.492  0.2302  0.2145 -2.2606
31971SOL     OW99410   5.759   9.492   0.681 -0.3703  0.2206  0.2055
31971SOL    HW199411   5.678   9.495   0.732 -0.7192  0.1527 -0.3339
31971SOL    HW299412   5.762   9.403   0.646 -0.1344  0.2666  0.1106
31972SOL     OW99413   3.853   1.838   2.471  0.2159 -0.0468 -0.1559
31972SOL    HW199414   3.762   1.809   2.461  0.5693 -1.3759  0.2406
31972SOL    HW299415   3.860   1.915   2.414 -1.1756  0.1460 -0.1161
31973SOL     OW99416   6.112   9.267   7.007  0.3625 -0.0208  0.1107
31973SOL    HW199417   6.057   9.194   7.033 -0.8095  1.1561  1.0784
31973SOL    HW299418   6.143   9.245   6.919 -0.4219 -1.3897  0.1611
31974SOL     OW99419   7.718   5.818   0.229 -0.1641  0.3014 -0.4566
31974SOL    HW199420   7.777   5.872   0.176 -0.4853  1.5946  0.4568
31974SOL    HW299421   7.703   5.739   0.176 -0.1082  1.3341 -2.0689
31975SOL     OW99422   0.212   4.687   2.319 -0.3980  0.2479  0.6841
31975SOL    HW199423   0.276   4.688   2.391 -1.3440 -0.2433  1.5565
31975SOL    HW299424   0.233   4.765   2.267 -0.5269  1.3808  2.2538
31976SOL     OW99425   3.563   4.547   7.762 -0.2282  0.4448  0.5019
31976SOL    HW199426   3.483   4.547   7.709 -0.2122 -2.5648  0.3147
31976SOL    HW299427   3.539   4.594   7.841 -1.8805  0.5018  0.0156
31977SOL     OW99428   3.972   8.452   2.867 -0.5859  0.1316 -0.0171
31977SOL    HW199429   4.020   8.503   2.802  0.2598  0.1555  0.6100
31977SOL    HW299430   4.038   8.425   2.931 -1.2730 -0.4973  0.4573
31978SOL     OW99431   2.708   2.282   1.737  0.0006  0.0362  0.2585
31978SOL    HW199432   2.618   2.254   1.754 -0.3310  1.0217  0.2059
31978SOL    HW299433   2.753   2.273   1.821  0.2700 -1.8767 -0.0456
31979SOL     OW99434   4.170   2.558   4.719  0.2123  0.3056 -0.3716
31979SOL    HW199435   4.179   2.568   4.813  0.6895  0.8074 -0.4657
31979SOL    HW299436   4.102   2.622   4.695  0.8108  0.8983 -0.5032
31980SOL     OW99437   5.267   2.523   9.075 -0.1235 -0.2749  0.3056
31980SOL    HW199438   5.229   2.504   8.989 -0.7702  0.1449  0.4968
31980SOL    HW299439   5.217   2.598   9.108 -0.2251 -0.7557  1.2703
31981SOL     OW99440   3.297   2.227   0.231  0.4429 -0.4100 -0.2081
31981SOL    HW199441   3.208   2.252   0.255  0.7262  1.7859 -1.2373
31981SOL    HW299442   3.341   2.309   0.211  2.6600 -1.4524  0.0306
31982SOL     OW99443   9.100   4.019   5.419  0.4554  0.1455  0.8975
31982SOL    HW199444   9.122   3.966   5.343  0.7731  1.3710  0.1123
31982SOL    HW299445   9.110   3.959   5.493  0.4766 -0.9735  0.0221
31983SOL     OW99446   2.163   6.652   3.275  0.1003  0.2475  0.3551
31983SOL    HW199447   2.098   6.587   3.248 -0.9104  1.6219 -0.6691
31983SOL    HW299448   2.158   6.720   3.208  1.1983  1.3488  1.3438
31984SOL     OW99449   8.168   8.068   2.667  0.2746  0.0485  0.5766
31984SOL    HW199450   8.078   8.036   2.674  1.0252 -2.5520 -0.5769
31984SOL    HW299451   8.204   8.058   2.755  0.1522 -1.3016  0.4890
31985SOL     OW99452   6.492   9.145   1.167  0.2828 -0.7341  0.7439
31985SOL    HW199453   6.482   9.237   1.142  0.2743 -0.7064  0.8519
31985SOL    HW299454   6.429   9.099   1.110 -0.5104 -0.5513  1.4560
31986SOL     OW99455   1.405   7.067   3.412  0.4398 -0.0480  0.1108
31986SOL    HW199456   1.467   7.124   3.365  1.5599 -0.3152  1.2062
31986SOL    HW299457   1.411   7.095   3.503 -0.6453 -0.4714  0.3215
31987SOL     OW99458   6.502  10.615   6.679  0.4176  0.3350  0.3460
31987SOL    HW199459   6.557  10.659   6.615  0.6209  0.8023  0.8331
31987SOL    HW299460   6.531  10.649   6.764 -0.4842  0.4527  0.6271
31988SOL     OW99461   2.329   0.017   3.423  0.0334 -0.3947  0.0185
31988SOL    HW199462   2.387  -0.054   3.451 -0.7962  0.0172  3.0534
31988SOL    HW299463   2.389   0.088   3.401  0.7833 -1.2537 -0.8253
31989SOL     OW99464   9.823   3.941   6.127  0.1090 -0.4947  0.4399
31989SOL    HW199465   9.753   3.997   6.093 -0.7566 -0.1948  2.5429
31989SOL    HW299466   9.809   3.856   6.085 -0.1763  0.1260 -0.7780
31990SOL     OW99467   4.447  10.064   6.876 -0.4215 -0.2662  0.4616
31990SOL    HW199468   4.483  10.096   6.793 -1.7432  0.5183  0.1619
31990SOL    HW299469   4.375  10.006   6.850  0.3041 -1.4693  1.0530
31991SOL     OW99470   5.197   0.675   4.141  0.0264 -0.0915  0.1707
31991SOL    HW199471   5.112   0.634   4.126 -0.1727  0.1261  0.6665
31991SOL    HW299472   5.211   0.667   4.235 -0.7298  2.3053  0.5583
31992SOL     OW99473   5.039   7.792   0.183 -0.2347  0.1612  0.2693
31992SOL    HW199474   5.005   7.880   0.168 -3.1353 -1.2095 -2.2633
31992SOL    HW299475   5.132   7.804   0.199 -0.7528  3.7530  1.4206
31993SOL     OW99476   2.394   2.684   7.371 -0.3645 -0.5550  0.4275
31993SOL    HW199477   2.359   2.726   7.293 -1.7738 -1.5251  0.4873
31993SOL    HW299478   2.387   2.590   7.353 -0.6498 -0.7948  1.6620
31994SOL     OW99479   1.080   4.697   5.035  0.1275 -0.1192  0.2460
31994SOL    HW199480   1.099   4.622   5.091 -0.2036  1.1511  2.1522
31994SOL    HW299481   0.985   4.694   5.022  0.0908  0.0577  0.4673
31995SOL     OW99482   2.016   7.611  10.149 -0.5005 -0.3880  0.5838
31995SOL    HW199483   2.110   7.621  10.135 -0.6988 -0.4448 -0.9347
31995SOL    HW299484   1.981   7.589  10.063 -2.2633  2.3780  0.4552
31996SOL     OW99485   0.777   1.397   8.368 -0.3363 -0.8996 -0.4009
31996SOL    HW199486   0.843   1.466   8.373 -1.5612  0.2711  0.5689
31996SOL    HW299487   0.696   1.444   8.346 -1.2492 -1.9898  0.5280
31997SOL     OW99488   8.131   6.377  10.955  0.2029 -0.5061 -0.1669
31997SOL    HW199489   8.143   6.470  10.972  0.1004 -0.3373 -0.9750
31997SOL    HW299490   8.059   6.373  10.891  2.2136 -0.9127 -2.5434
31998SOL     OW99491   0.271   0.701   5.131 -0.1625 -0.0037 -0.2122
31998SOL    HW199492   0.211   0.627   5.126 -0.1853  0.0084 -0.1285
31998SOL    HW299493   0.271   0.738   5.043 -1.2380  0.7399  0.0801
31999SOL     OW99494   1.210   7.908   6.598 -0.7136  0.0214  0.2627
31999SOL    HW199495   1.135   7.851   6.584 -0.7546 -0.2990  1.6405
31999SOL    HW299496   1.247   7.879   6.682  1.8869 -0.9069 -1.0720
32000SOL     OW99497   9.482   6.469  10.667 -0.5667 -0.1345 -0.1939
32000SOL    HW199498   9.557   6.455  10.609 -1.1757 -1.0239 -0.7907
32000SOL    HW299499   9.462   6.383  10.702 -1.5605  0.0180 -0.3545
32001SOL     OW99500   2.147   3.704   8.674  0.1103  0.1174 -0.4169
32001SOL    HW199501   2.197   3.633   8.633  1.6149  0.3571  0.9161
32001SOL    HW299502   2.190   3.784   8.644  0.8829  0.3119  1.1068
32002SOL     OW99503   9.729   6.534   5.530  0.4647  0.5924 -0.5520
32002SOL    HW199504   9.678   6.464   5.569  1.0121  1.1071  1.1484
32002SOL    HW299505   9.814   6.495   5.513  0.7284  0.7949  0.2732
32003SOL     OW99506   6.218   0.329   3.294 -0.6597  0.0595 -0.0181
32003SOL    HW199507   6.251   0.275   3.223  0.1576  0.0922  0.3199
32003SOL    HW299508   6.134   0.361   3.263 -0.5544 -0.3498 -0.7523
32004SOL     OW99509   0.106   6.006   1.331  0.4365 -0.1358 -0.3894
32004SOL    HW199510   0.182   6.039   1.282 -0.1679 -0.2669 -1.4340
32004SOL    HW299511   0.103   6.061   1.409  1.3353  0.1750 -0.5601
32005SOL     OW99512   8.308   5.898   6.344 -0.1522  0.2526 -0.4982
32005SOL    HW199513   8.326   5.804   6.331 -1.3124  0.0948 -1.0751
32005SOL    HW299514   8.227   5.914   6.296  1.4217  2.1654 -2.7452
32006SOL     OW99515   0.370   7.800   7.581  0.0387 -0.0114  0.0627
32006SOL    HW199516   0.427   7.785   7.505 -0.0064 -0.0623  0.0392
32006SOL    HW299517   0.286   7.764   7.555  0.4298 -1.4693  0.7321
32007SOL     OW99518   8.254   5.711   9.735 -0.0708  0.6189  0.6139
32007SOL    HW199519   8.160   5.705   9.720  0.2242  1.7456 -2.2273
32007SOL    HW299520   8.266   5.798   9.774 -0.1142  0.8813  0.0438
32008SOL     OW99521   5.655   2.963  10.595 -0.2558  0.3071  0.0117
32008SOL    HW199522   5.739   2.957  10.550 -0.6345 -0.5662 -0.6146
32008SOL    HW299523   5.625   3.052  10.580 -1.5680 -0.5903 -3.7030
32009SOL     OW99524   8.584   0.768   2.791  0.5785  0.3222  0.3063
32009SOL    HW199525   8.549   0.760   2.880  1.5753 -1.6709  0.5986
32009SOL    HW299526   8.673   0.800   2.803  1.1393 -1.0912  0.1845
32010SOL     OW99527   7.642   6.796   8.250  0.0530 -0.1521  0.5513
32010SOL    HW199528   7.575   6.728   8.252 -0.3815  0.2773  1.4759
32010SOL    HW299529   7.702   6.773   8.321  0.3413 -0.0029  0.3603
32011SOL     OW99530  10.164   0.143  10.577 -0.3322  0.2335 -0.3309
32011SOL    HW199531  10.135   0.052  10.580  0.7233 -0.1735 -1.5124
32011SOL    HW299532  10.215   0.149  10.496  1.6929  1.2319  0.9368
32012SOL     OW99533   0.454   5.724   1.933 -0.5458  0.7864  0.0033
32012SOL    HW199534   0.496   5.695   1.851 -0.7713  1.4027 -0.3340
32012SOL    HW299535   0.527   5.731   1.995 -0.4651 -0.3694  0.0660
32013SOL     OW99536  10.125   1.962   1.514  0.4023  0.2351  0.6666
32013SOL    HW199537  10.177   1.923   1.444 -0.7546  2.3609 -1.5301
32013SOL    HW299538  10.187   1.975   1.586  2.1797 -0.0706 -0.7460
32014SOL     OW99539   6.274   4.783   7.517 -0.2792 -0.2090 -0.5181
32014SOL    HW199540   6.346   4.730   7.552  1.0668  0.4729 -2.0886
32014SOL    HW299541   6.209   4.786   7.587  1.4633 -0.3974  1.1874
32015SOL     OW99542   6.167   5.332   8.831 -0.3288  0.0299 -0.6186
32015SOL    HW199543   6.215   5.406   8.793 -2.1005  2.3400  1.2798
32015SOL    HW299544   6.212   5.314   8.914 -0.7934  0.0560 -0.3533
32016SOL     OW99545   7.926   0.508   4.809 -0.0201 -0.0620  0.1057
32016SOL    HW199546   7.830   0.514   4.806  0.0012  3.6089  1.4375
32016SOL    HW299547   7.953   0.518   4.718 -0.8298 -2.5600 -0.4883
32017SOL     OW99548   7.551   0.885   9.915 -0.5721 -0.1844 -0.3482
32017SOL    HW199549   7.503   0.966   9.893  0.0842  0.6354  1.1139
32017SOL    HW299550   7.548   0.881  10.010 -0.5307 -1.8818 -0.4007
32018SOL     OW99551   7.372   3.975   0.399  0.3357  0.5339  0.2277
32018SOL    HW199552   7.334   4.008   0.481 -1.4228 -0.8077  0.0159
32018SOL    HW299553   7.358   3.880   0.402 -0.0069  0.4759 -1.7215
32019SOL     OW99554   5.613   7.986   0.644  0.1256  0.1432 -0.5207
32019SOL    HW199555   5.695   7.971   0.597 -0.2430 -1.5203 -0.6745
32019SOL    HW299556   5.616   8.079   0.668  1.7936  0.2413 -0.9999
32020SOL     OW99557   4.146   9.050   0.410 -0.4689  0.1610 -0.1867
32020SOL    HW199558   4.208   9.118   0.438 -1.0672  0.0195  1.6493
32020SOL    HW299559   4.132   9.066   0.317  1.2629  1.0430 -0.3261
32021SOL     OW99560   6.613   2.218   8.149 -0.1249 -0.3666 -0.5435
32021SOL    HW199561   6.596   2.307   8.115  0.7697  0.6702  1.5854
32021SOL    HW299562   6.680   2.230   8.216 -1.3705 -2.3797  1.1736
32022SOL     OW99563   8.239   6.039   8.543 -0.1492  0.2945  0.0641
32022SOL    HW199564   8.190   6.114   8.575  1.5343  1.6050 -0.3092
32022SOL    HW299565   8.316   6.034   8.600 -0.8003 -1.9363  0.8831
32023SOL     OW99566   6.649  10.440   6.420  0.5175  0.1055 -0.3034
32023SOL    HW199567   6.711  10.508   6.445  1.5683 -0.8888 -0.0731
32023SOL    HW299568   6.642  10.384   6.497  0.3491 -0.5319 -0.7680
32024SOL     OW99569   6.085   1.474  10.164  0.5603  0.1226 -0.1477
32024SOL    HW199570   6.134   1.542  10.210  1.8649 -1.1419  0.3977
32024SOL    HW299571   5.999   1.474  10.206 -0.0572  2.5037 -1.2420
32025SOL     OW99572   5.144  10.451   0.679 -0.2390  0.0013 -0.0909
32025SOL    HW199573   5.171  10.508   0.751  0.2810 -1.6581  1.0794
32025SOL    HW299574   5.168  10.363   0.708 -2.9934 -1.0911 -0.8697
32026SOL     OW99575   8.961   7.050   9.999 -0.7168  0.2846  0.1572
32026SOL    HW199576   8.883   7.102  10.014 -0.7928  0.4604 -0.8306
32026SOL    HW299577   9.034   7.112  10.011 -0.7648  0.3580  0.0662
32027SOL     OW99578   7.253   3.439   8.802  0.4241  0.3001 -0.0166
32027SOL    HW199579   7.208   3.359   8.775  0.2672  0.5109 -0.3887
32027SOL    HW299580   7.209   3.465   8.882 -0.5153  0.8216 -0.6773
32028SOL     OW99581   7.534   4.659   3.057  0.4865  0.1085 -0.1788
32028SOL    HW199582   7.550   4.742   3.103 -0.2509  0.3974 -0.4286
32028SOL    HW299583   7.569   4.674   2.969  0.0169  0.2985 -0.3397
32029SOL     OW99584   8.172   7.617   5.247  0.1147  0.6293 -0.3734
32029SOL    HW199585   8.107   7.673   5.288  1.3654  0.5373  1.8976
32029SOL    HW299586   8.256   7.653   5.275  0.9907 -2.1047  0.9413
32030SOL     OW99587   6.607   8.636   2.322 -0.2477 -0.5491  0.2660
32030SOL    HW199588   6.639   8.663   2.408 -1.1821 -0.4676  0.5969
32030SOL    HW299589   6.513   8.650   2.325 -0.1224  1.0706 -1.3531
32031SOL     OW99590   5.893   8.342   2.727 -0.2988 -0.2133  0.2144
32031SOL    HW199591   5.868   8.380   2.811 -1.9010 -1.0401  0.1507
32031SOL    HW299592   5.864   8.251   2.732  2.2981 -1.1171 -0.1262
32032SOL     OW99593   7.381   7.089   5.594 -0.2710 -0.0625 -0.0959
32032SOL    HW199594   7.446   7.157   5.574 -0.5810  0.8652  1.7980
32032SOL    HW299595   7.299   7.124   5.558 -0.3505  0.4078  0.5141
32033SOL     OW99596   5.480   6.996   6.672 -0.6325 -0.4256  0.3070
32033SOL    HW199597   5.568   6.963   6.688 -1.1966 -1.3586  1.7050
32033SOL    HW299598   5.423   6.921   6.691 -1.6699 -0.2727 -1.9321
32034SOL     OW99599   1.281   6.621   9.301  0.5756 -0.2999  0.5019
32034SOL    HW199600   1.376   6.619   9.298  0.5483 -1.0832 -0.3682
32034SOL    HW299601   1.256   6.691   9.240  0.5835 -0.6991  0.0317
32035SOL     OW99602   6.361   8.596   6.721  0.3822 -0.3030 -0.6310
32035SOL    HW199603   6.437   8.542   6.698  1.8381  0.5820  1.7126
32035SOL    HW299604   6.294   8.532   6.745  1.5401 -1.1593  0.5240
32036SOL     OW99605   9.164   2.375  10.381  0.1381  0.1183  0.3521
32036SOL    HW199606   9.256   2.352  10.371  0.4755  1.1376  1.0101
32036SOL    HW299607   9.126   2.361  10.294  0.5426 -1.8425  0.4591
32037SOL     OW99608   0.849   1.180   1.631  0.1513 -0.1039 -0.2415
32037SOL    HW199609   0.851   1.084   1.639 -0.0525 -0.0317  0.8776
32037SOL    HW299610   0.935   1.202   1.595 -0.3454 -0.7933 -1.9790
32038SOL     OW99611   4.727   3.002   8.515  0.4838  0.4938 -0.6018
32038SOL    HW199612   4.657   3.054   8.476  0.0695 -1.0716 -2.0614
32038SOL    HW299613   4.797   3.003   8.450  0.3920 -0.8773 -0.7676
32039SOL     OW99614   6.131  10.532   9.042  0.7219 -0.1111 -0.2568
32039SOL    HW199615   6.040  10.506   9.049  0.5337  0.2771 -1.1132
32039SOL    HW299616   6.164  10.485   8.965  0.0762  2.8478 -2.5333
32040SOL     OW99617   4.212   5.753   6.470 -0.6751 -0.1300  0.0940
32040SOL    HW199618   4.250   5.807   6.399 -0.4190  2.2977  1.9442
32040SOL    HW299619   4.126   5.792   6.486 -0.0427  0.5471  2.2155
32041SOL     OW99620   5.861   9.542   2.243 -0.9144 -0.4363 -0.0456
32041SOL    HW199621   5.829   9.624   2.281  2.2092  1.8590 -1.8799
32041SOL    HW299622   5.818   9.537   2.157  1.4727  1.3811 -1.4850
32042SOL     OW99623   8.484  10.221   7.798 -0.0562  0.7242  0.0848
32042SOL    HW199624   8.457  10.294   7.742  1.2721  0.7363 -0.5732
32042SOL    HW299625   8.542  10.168   7.743 -0.2091 -0.2917  0.8722
32043SOL     OW99626   4.841   9.934   2.669 -0.6539  0.2925 -0.0890
32043SOL    HW199627   4.750   9.925   2.694 -0.1502  0.6241  2.0445
32043SOL    HW299628   4.867  10.021   2.700  0.1846  0.5549 -1.4139
32044SOL     OW99629   2.591   7.418   1.898 -0.0780 -0.3065  0.6737
32044SOL    HW199630   2.657   7.387   1.960 -0.5508 -0.0337  1.3202
32044SOL    HW299631   2.508   7.385   1.933 -0.4569  0.7017  0.7358
32045SOL     OW99632   3.415   3.857   7.164  0.2177 -0.1496 -0.3940
32045SOL    HW199633   3.486   3.886   7.106  0.4842 -1.3461 -0.7031
32045SOL    HW299634   3.403   3.765   7.142 -0.4735 -0.3258  0.6588
32046SOL     OW99635   7.697   8.935   0.222  0.1300 -1.0396  0.1023
32046SOL    HW199636   7.784   8.931   0.263  0.5464 -0.7758 -0.7441
32046SOL    HW299637   7.652   8.858   0.256  0.6869 -1.1755  0.5607
32047SOL     OW99638   4.595   0.927   8.206 -0.2155  0.7137  0.3344
32047SOL    HW199639   4.587   1.000   8.146  0.5821 -0.3105 -1.0817
32047SOL    HW299640   4.690   0.916   8.218 -0.3339  0.2075  0.8896
32048SOL     OW99641   3.482  10.119   4.663 -0.2349 -0.5777 -0.1314
32048SOL    HW199642   3.466  10.150   4.574 -0.6206  1.3884  0.5751
32048SOL    HW299643   3.422  10.046   4.674 -0.2886 -0.7531 -1.4336
32049SOL     OW99644   4.799   5.426   6.844 -0.3106 -0.8885  0.5743
32049SOL    HW199645   4.849   5.456   6.920 -0.8343  0.3197  0.4598
32049SOL    HW299646   4.719   5.389   6.882 -0.0535 -1.3598  0.6665
32050SOL     OW99647   1.129   6.577   9.916  0.1295  0.4295 -0.2137
32050SOL    HW199648   1.217   6.550   9.944 -0.0028 -0.0791 -0.2739
32050SOL    HW299649   1.100   6.639   9.983  0.5348  0.5951 -0.1913
32051SOL     OW99650   9.126   6.081   8.794  0.3064 -0.0496  0.0792
32051SOL    HW199651   9.155   6.081   8.885  0.8189 -0.0172 -0.0793
32051SOL    HW299652   9.129   6.173   8.768 -2.0917  0.2640  0.7158
32052SOL     OW99653   4.610   1.736   6.576 -0.0074  0.2819  0.4254
32052SOL    HW199654   4.693   1.779   6.560 -0.3823  0.9366  0.2163
32052SOL    HW299655   4.551   1.806   6.603 -1.0490  0.2101 -1.4555
32053SOL     OW99656   6.539   9.934   6.297 -0.1251  0.4482  0.0938
32053SOL    HW199657   6.634   9.922   6.296 -0.1985 -0.3354  0.9971
32053SOL    HW299658   6.503   9.847   6.277 -0.6540  0.5182  0.6903
32054SOL     OW99659   1.116   2.377  10.559  0.0246 -0.7830 -0.1991
32054SOL    HW199660   1.170   2.456  10.558 -3.3262  1.6704 -0.1264
32054SOL    HW299661   1.094   2.362  10.467 -0.3119 -0.9459 -0.0937
32055SOL     OW99662   4.156   9.778   5.879  0.0877  0.0772  0.8344
32055SOL    HW199663   4.236   9.728   5.867 -0.3876 -0.5592  0.1954
32055SOL    HW299664   4.177   9.865   5.847  0.6894  0.0747  1.2111
32056SOL     OW99665   1.367   4.117   0.726  0.1901 -0.2735 -0.1872
32056SOL    HW199666   1.308   4.192   0.735  0.0341 -0.0592 -2.5372
32056SOL    HW299667   1.310   4.040   0.736  0.1323 -0.0992  0.9343
32057SOL     OW99668   5.823   8.302   8.807  0.0755 -0.2758  0.0553
32057SOL    HW199669   5.805   8.282   8.715  0.0545  1.9928 -0.4949
32057SOL    HW299670   5.740   8.338   8.840  0.2406 -0.5874  0.8312
32058SOL     OW99671   8.943   5.740   1.963 -0.5033  0.1473  0.2391
32058SOL    HW199672   9.010   5.799   1.998  1.8983 -1.7974 -0.8181
32058SOL    HW299673   8.930   5.675   2.032 -0.5654 -0.0523  0.0397
32059SOL     OW99674   6.001   4.131   9.378 -0.3461 -0.0344 -0.1852
32059SOL    HW199675   5.991   4.220   9.411 -1.5158 -0.2991  0.2296
32059SOL    HW299676   5.945   4.078   9.435  0.3000 -1.0285 -0.4520
32060SOL     OW99677   6.645   6.125   4.928  0.0222  0.0824 -0.4650
32060SOL    HW199678   6.585   6.051   4.941 -0.3212  0.1744 -1.4563
32060SOL    HW299679   6.589   6.196   4.897  0.1515  1.1585  1.5635
32061SOL     OW99680   6.399   0.236  10.716 -0.2828  0.2278  0.1422
32061SOL    HW199681   6.313   0.253  10.677 -0.3472  0.8481  0.5389
32061SOL    HW299682   6.442   0.178  10.654 -1.1985 -0.5610  0.2184
32062SOL     OW99683   0.721   8.033  10.497  0.7514 -0.5295  0.0856
32062SOL    HW199684   0.811   8.034  10.463  1.1613  1.9897  0.9905
32062SOL    HW299685   0.685   7.949  10.469  2.8994 -0.9771 -1.5933
32063SOL     OW99686   8.279   3.690   5.314 -0.5020  0.2550  0.3102
32063SOL    HW199687   8.361   3.739   5.322 -1.2455  1.6230  0.0148
32063SOL    HW299688   8.280   3.656   5.225  1.2731 -2.7276  1.3347
32064SOL     OW99689   6.288   1.833   1.963  0.0824  0.1570  0.1614
32064SOL    HW199690   6.274   1.751   2.010  0.5164  0.1810  0.3341
32064SOL    HW299691   6.371   1.867   1.998  1.3369 -0.6735 -1.8333
32065SOL     OW99692   5.484   7.943   5.095 -0.5046 -0.0396  0.2233
32065SOL    HW199693   5.411   7.882   5.083 -1.0773  0.6956 -0.1092
32065SOL    HW299694   5.484   7.963   5.189  0.1545 -1.1029  0.4694
32066SOL     OW99695   9.750   0.730   1.826  0.1524  0.5776 -0.5055
32066SOL    HW199696   9.793   0.704   1.745  1.7599 -0.2272  0.5558
32066SOL    HW299697   9.789   0.814   1.849 -0.4161  0.8832 -0.6159
32067SOL     OW99698   3.507   5.546   0.899  0.0979 -0.1963  0.0873
32067SOL    HW199699   3.436   5.511   0.952 -0.3400 -1.4652 -1.2585
32067SOL    HW299700   3.528   5.630   0.939 -0.1078 -1.1511  2.3158
32068SOL     OW99701   2.617   7.859   1.834  0.3532 -0.1615 -0.1380
32068SOL    HW199702   2.651   7.770   1.821  1.7744  0.4043 -0.5438
32068SOL    HW299703   2.601   7.891   1.745  0.2780  0.1490 -0.0123
32069SOL     OW99704  10.911   9.187   1.626 -0.2752  1.1944 -0.3555
32069SOL    HW199705  10.893   9.107   1.577  1.7520 -0.6420  1.7097
32069SOL    HW299706  10.958   9.243   1.565  3.0587 -1.4066 -0.4393
32070SOL     OW99707   0.129   1.551   8.376 -0.2771 -0.8390  0.2003
32070SOL    HW199708   0.163   1.609   8.309 -0.2131 -0.8711  0.2046
32070SOL    HW299709   0.175   1.577   8.456 -1.5746  0.3332  0.6068
32071SOL     OW99710   0.775   1.374   0.665 -0.7882  0.2601 -0.1035
32071SOL    HW199711   0.798   1.467   0.659 -1.0858  0.3021 -0.6045
32071SOL    HW299712   0.851   1.333   0.707 -0.7968  0.7844  0.4321
32072SOL     OW99713   8.113   4.269   6.861 -0.3462  0.0033 -0.6738
32072SOL    HW199714   8.195   4.280   6.812 -1.0233  0.8424 -1.6704
32072SOL    HW299715   8.078   4.186   6.828 -0.6144  0.3794 -1.3552
32073SOL     OW99716   4.794   0.328   0.277  0.0310 -0.2613  0.3496
32073SOL    HW199717   4.785   0.418   0.310 -0.9479 -0.4631  0.6686
32073SOL    HW299718   4.739   0.276   0.336  0.3210 -1.0167 -0.0443
32074SOL     OW99719   5.393   8.428   0.672  0.7229 -0.3323  0.4524
32074SOL    HW199720   5.414   8.500   0.732  0.7448 -0.4651  0.6070
32074SOL    HW299721   5.308   8.450   0.636 -0.0402 -1.0461  1.7644
32075SOL     OW99722   4.142   5.032   7.617  0.0386 -0.3775  0.1240
32075SOL    HW199723   4.095   4.955   7.649  0.4291 -0.6203  0.1291
32075SOL    HW299724   4.172   5.076   7.696 -0.0512 -0.3076  0.1186
32076SOL     OW99725   4.645   8.982  10.267  0.0352 -0.0407  0.2534
32076SOL    HW199726   4.726   8.994  10.317  0.6080  0.3183 -0.7185
32076SOL    HW299727   4.628   9.068  10.228  1.4335 -0.9739 -2.7603
32077SOL     OW99728   3.990   7.691   2.065 -0.5817 -0.1967  0.0721
32077SOL    HW199729   4.068   7.640   2.044 -1.0136 -1.1034  0.5958
32077SOL    HW299730   4.023   7.777   2.089  0.2105 -0.3886 -0.3033
32078SOL     OW99731   0.759   1.001   2.878  0.6390 -0.1279 -0.3040
32078SOL    HW199732   0.676   0.970   2.912  1.4236 -0.6754  1.1866
32078SOL    HW299733   0.739   1.086   2.837 -0.0402  1.6990  3.4390
32079SOL     OW99734   2.602   6.663   9.219 -0.0328 -0.2361  0.2158
32079SOL    HW199735   2.681   6.698   9.260  1.7966 -1.6441 -1.8251
32079SOL    HW299736   2.576   6.730   9.156 -0.8599  0.4730  1.2739
32080SOL     OW99737   7.983   0.907   4.943 -0.2259 -0.0948  0.0047
32080SOL    HW199738   7.989   0.869   4.855  1.5600  2.0816 -0.9343
32080SOL    HW299739   7.968   0.833   5.001 -0.1308 -1.7615 -1.9981
32081SOL     OW99740   6.827   8.638   3.229  0.2957  0.1908  0.0959
32081SOL    HW199741   6.838   8.624   3.135  2.3732  2.5980 -0.1347
32081SOL    HW299742   6.899   8.590   3.269  2.0250  2.5079  0.0008
32082SOL     OW99743  10.519   0.588   9.415 -0.7377  0.1455 -0.2313
32082SOL    HW199744  10.487   0.620   9.499  1.3804  0.6810  0.4453
32082SOL    HW299745  10.509   0.493   9.420 -2.7555  0.3058 -0.3625
32083SOL     OW99746   4.111   5.342   2.543 -0.1133  0.4023  0.2279
32083SOL    HW199747   4.058   5.301   2.475  0.0866  1.1643 -0.3983
32083SOL    HW299748   4.143   5.269   2.596 -1.1848 -0.1254  0.1812
32084SOL     OW99749   2.357   9.042   2.591 -0.2283 -0.4596 -0.2338
32084SOL    HW199750   2.320   8.975   2.648  1.4929 -1.9009 -0.7240
32084SOL    HW299751   2.378   8.996   2.509 -0.8526  1.1262 -1.3395
32085SOL     OW99752   9.557   9.587   9.277 -0.0464 -0.0978  0.7858
32085SOL    HW199753   9.545   9.679   9.253  0.6762  0.2587  1.7227
32085SOL    HW299754   9.593   9.590   9.366 -0.9437 -1.3137  1.2190
32086SOL     OW99755   9.023   9.357  10.549 -0.0757 -0.8371 -0.0880
32086SOL    HW199756   9.060   9.293  10.609  0.5601 -0.0053  0.4318
32086SOL    HW299757   9.098   9.394  10.502 -0.2157  0.6875  0.8021
32087SOL     OW99758   9.297   2.330   2.381 -0.2052 -0.3968  0.6609
32087SOL    HW199759   9.340   2.312   2.464  1.2717  0.1093  0.0418
32087SOL    HW299760   9.359   2.300   2.315 -1.2193 -0.5065 -0.2773
32088SOL     OW99761   1.665   7.705   5.597 -0.3804  0.4147  0.3432
32088SOL    HW199762   1.576   7.692   5.562 -0.5231 -1.1786  1.1957
32088SOL    HW299763   1.655   7.774   5.663 -1.3317 -0.8088  1.5324
32089SOL     OW99764   3.114   9.947   4.161  0.1568  0.0713  0.1400
32089SOL    HW199765   3.019   9.938   4.149 -0.1007  1.1577  1.1454
32089SOL    HW299766   3.142   9.864   4.199 -0.7892  0.4676  1.8403
32090SOL     OW99767   5.574   2.347   3.138 -0.7299  0.0127 -0.5971
32090SOL    HW199768   5.596   2.300   3.219  1.3910  1.0267 -0.5179
32090SOL    HW299769   5.490   2.309   3.111 -2.1638  0.4477  2.7008
32091SOL     OW99770   1.639   9.763   0.912  0.0154 -0.2192  0.6705
32091SOL    HW199771   1.660   9.808   0.994  1.4737 -1.7251  1.1812
32091SOL    HW299772   1.560   9.713   0.931  0.4061 -0.6449  1.2065
32092SOL     OW99773   7.444   0.784   4.715  0.1078 -0.2212  0.2981
32092SOL    HW199774   7.440   0.868   4.761 -0.9950 -0.7858  1.2831
32092SOL    HW299775   7.357   0.775   4.676  0.4843 -0.5433 -0.4898
32093SOL     OW99776   3.191   0.804  10.371 -0.5097 -0.3774 -0.0522
32093SOL    HW199777   3.230   0.798  10.458  0.9597  1.5158 -0.5080
32093SOL    HW299778   3.263   0.786  10.311 -0.9840  0.4285 -0.8944
32094SOL     OW99779   4.144  10.495  10.095 -0.1819  0.1908  0.1594
32094SOL    HW199780   4.173  10.404  10.097  1.3842  0.6622 -0.0135
32094SOL    HW299781   4.212  10.543  10.143 -1.4532  1.1583  1.0708
32095SOL     OW99782   5.193   6.694   3.770  0.3699 -0.2309 -0.2569
32095SOL    HW199783   5.181   6.789   3.775 -0.6514 -0.2939 -1.1859
32095SOL    HW299784   5.182   6.664   3.860  2.0723  0.6593  0.2801
32096SOL     OW99785   3.579   0.146   3.058  0.1114 -0.3453 -1.0202
32096SOL    HW199786   3.545   0.208   2.993 -0.2323  0.4339 -0.1283
32096SOL    HW299787   3.674   0.148   3.047  0.3249  2.1833  0.5501
32097SOL     OW99788   9.813  10.500   6.524  0.1982  0.4535 -0.1240
32097SOL    HW199789   9.843  10.562   6.458 -0.9155 -1.9129 -3.1146
32097SOL    HW299790   9.723  10.481   6.500  0.0585 -1.2628  1.4968
32098SOL     OW99791   4.377   8.643  10.320  0.1795  0.4029 -0.3187
32098SOL    HW199792   4.392   8.734  10.296  1.6975  0.1730 -0.3589
32098SOL    HW299793   4.370   8.644  10.415  0.4426  0.5380 -0.2992
32099SOL     OW99794  10.475   0.173  10.458 -0.8531  0.1117 -0.0844
32099SOL    HW199795  10.534   0.244  10.431 -1.4430  0.1743 -1.2870
32099SOL    HW299796  10.533   0.105  10.492  0.1020 -0.5139 -2.7668
32100SOL     OW99797   2.673   0.684   8.308  0.9047  0.4387 -0.0253
32100SOL    HW199798   2.704   0.751   8.369  0.0884  0.2308  0.6238
32100SOL    HW299799   2.734   0.611   8.319  1.2200  0.6953 -0.0355
32101SOL     OW99800   7.497   7.177   6.212 -0.2914  0.2634 -0.0568
32101SOL    HW199801   7.500   7.200   6.305  0.0823  0.9789 -0.2356
32101SOL    HW299802   7.419   7.122   6.203 -0.4477  0.3588  0.6379
32102SOL     OW99803   1.984   7.469   5.041  0.3966 -0.2713  0.0929
32102SOL    HW199804   2.015   7.550   5.079 -1.1503  0.0860  0.6841
32102SOL    HW299805   2.060   7.411   5.041  0.8874  0.3039  2.1072
32103SOL     OW99806   7.001   1.263   5.779  0.3519  0.4210  0.0275
32103SOL    HW199807   6.985   1.327   5.848 -1.0946 -1.9019  2.0124
32103SOL    HW299808   6.966   1.181   5.813  1.3059 -1.2942 -2.7280
32104SOL     OW99809   3.047  10.218   0.517 -0.6219 -0.1611  0.1538
32104SOL    HW199810   3.070  10.289   0.576 -0.6962 -0.4743  0.5675
32104SOL    HW299811   2.993  10.160   0.570  1.4138 -1.7861  0.5852
32105SOL     OW99812   2.502   5.003   4.929 -0.1355 -0.3624  0.1641
32105SOL    HW199813   2.547   5.062   4.869  1.7354 -0.1432  1.6546
32105SOL    HW299814   2.553   4.922   4.926  1.1836  0.2463  2.6983
32106SOL     OW99815   0.863   8.629   0.307  0.7459 -0.6051 -0.0022
32106SOL    HW199816   0.811   8.623   0.226  0.0864 -2.3898  0.5087
32106SOL    HW299817   0.906   8.715   0.301 -1.4794  0.5356 -0.9182
32107SOL     OW99818   3.313   8.182   7.914  0.4475  0.0309 -0.3005
32107SOL    HW199819   3.401   8.170   7.877  0.7088 -1.0456  0.5946
32107SOL    HW299820   3.282   8.264   7.877  1.4616 -0.0389 -1.3680
32108SOL     OW99821   7.567   0.862  10.209 -0.3086 -0.5601 -0.2415
32108SOL    HW199822   7.561   0.804  10.285  1.0655 -0.2124  0.1708
32108SOL    HW299823   7.629   0.930  10.236 -0.6837  0.2149 -1.2752
32109SOL     OW99824   8.273   7.367   0.843 -0.3036  0.2827  0.0547
32109SOL    HW199825   8.262   7.287   0.894 -0.6125  0.1815 -0.1711
32109SOL    HW299826   8.256   7.341   0.752  0.0432  0.5059 -0.0763
32110SOL     OW99827   1.603   7.002   3.006 -0.5144 -0.0148 -0.0697
32110SOL    HW199828   1.586   7.095   2.995 -1.3555 -0.0644  0.7222
32110SOL    HW299829   1.620   6.991   3.099  0.9511 -0.4607 -0.3553
32111SOL     OW99830   0.948   8.652   8.266  0.1771 -0.1142 -0.1377
32111SOL    HW199831   0.988   8.617   8.345  0.7773 -0.2220 -0.4876
32111SOL    HW299832   0.935   8.576   8.210 -0.8902 -0.1442  0.1209
32112SOL     OW99833   7.275   9.192   4.500  0.1264  0.4594 -0.4188
32112SOL    HW199834   7.197   9.170   4.450  0.9984  0.3508 -1.7801
32112SOL    HW299835   7.291   9.284   4.481  0.2180  0.5356  0.0180
32113SOL     OW99836   5.807  10.306  10.054  0.1447  0.5481 -0.1933
32113SOL    HW199837   5.801  10.376   9.989 -0.1965  0.4987 -0.2147
32113SOL    HW299838   5.898  10.310  10.085  0.4867  0.1867 -1.1051
32114SOL     OW99839   0.659   3.989  10.485 -0.4776 -0.5037 -0.4388
32114SOL    HW199840   0.601   4.018  10.555 -0.1083  0.1667 -0.4088
32114SOL    HW299841   0.637   3.896  10.474  1.1361 -1.3502  2.2731
32115SOL     OW99842   4.911   2.550   0.867  0.2304 -0.7115 -0.7045
32115SOL    HW199843   4.997   2.515   0.844  1.0009  0.4690  0.2557
32115SOL    HW299844   4.910   2.551   0.963 -0.7960 -0.5723 -0.7078
32116SOL     OW99845   6.133   7.414   7.517 -0.2987 -0.4045 -0.6008
32116SOL    HW199846   6.071   7.343   7.503 -0.5961  0.1076 -1.9692
32116SOL    HW299847   6.092   7.491   7.478  1.1546 -0.0452 -1.5137
32117SOL     OW99848   9.260   8.811   0.638 -0.2274  0.0047  0.0147
32117SOL    HW199849   9.287   8.879   0.576 -0.9363  0.7969  0.5562
32117SOL    HW299850   9.329   8.745   0.633  0.5829  0.8696 -0.3534
32118SOL     OW99851   5.807   6.191   5.591  0.0371 -0.6671 -0.0694
32118SOL    HW199852   5.788   6.170   5.682  1.1777  0.9605  0.5789
32118SOL    HW299853   5.831   6.107   5.551 -1.3295 -1.5430  0.8720
32119SOL     OW99854   3.653   9.669   2.515 -0.4121 -1.0047 -0.0394
32119SOL    HW199855   3.581   9.706   2.565 -1.4062 -1.0265 -1.3870
32119SOL    HW299856   3.725   9.664   2.577 -0.9797  0.8352  0.8607
32120SOL     OW99857   0.467   0.439   9.608  0.0964 -0.2107 -0.6847
32120SOL    HW199858   0.482   0.345   9.597  0.3146 -0.3762  0.8308
32120SOL    HW299859   0.373   0.450   9.593 -0.0913 -0.8188 -0.0125
32121SOL     OW99860   8.107   8.722   0.246  0.0890 -0.2001  0.4999
32121SOL    HW199861   8.047   8.784   0.287  0.0440 -0.3467  0.6590
32121SOL    HW299862   8.162   8.691   0.318 -0.6485 -1.2096  0.6463
32122SOL     OW99863   7.627   9.613   4.161  0.2467  0.3067 -0.1146
32122SOL    HW199864   7.709   9.622   4.209  1.0097  0.9658 -1.4798
32122SOL    HW299865   7.617   9.696   4.115 -1.5637  0.5134  0.5635
32123SOL     OW99866   3.131   8.516   6.100 -0.4219  0.3594 -0.1753
32123SOL    HW199867   3.169   8.538   6.185 -0.2871  2.7129 -0.7696
32123SOL    HW299868   3.143   8.595   6.047 -0.0683 -1.1842 -2.5671
32124SOL     OW99869   2.387   7.997   5.973  0.0466 -0.2032 -0.3927
32124SOL    HW199870   2.479   8.002   5.950  0.4696  1.2969  1.3812
32124SOL    HW299871   2.376   8.062   6.042 -1.8802 -1.7694  0.8936
32125SOL     OW99872   7.359   8.983   7.394 -0.1142 -0.1658  0.6648
32125SOL    HW199873   7.454   8.976   7.390 -0.1742 -1.4398  0.8910
32125SOL    HW299874   7.330   8.975   7.303 -0.0201 -0.2582  0.6427
32126SOL     OW99875   1.945   0.502   4.548  0.9146  0.3357  0.8747
32126SOL    HW199876   1.913   0.555   4.475  0.5311  1.9856  2.1656
32126SOL    HW299877   1.868   0.454   4.577  1.0105 -0.1371  0.3641
32127SOL     OW99878   3.685   3.518   6.034 -0.4161 -0.9002  0.7159
32127SOL    HW199879   3.633   3.438   6.033 -0.7266 -0.7143  1.2861
32127SOL    HW299880   3.704   3.536   5.942 -1.1306 -1.1247  0.5158
32128SOL     OW99881   8.641   8.194   7.842  0.2451  0.4751 -0.0579
32128SOL    HW199882   8.728   8.189   7.881  0.5081  1.4157 -0.5007
32128SOL    HW299883   8.651   8.254   7.768 -0.6150  0.0233 -0.5592
32129SOL     OW99884   1.039   8.186   4.828  0.1310 -0.6689  0.3177
32129SOL    HW199885   0.974   8.117   4.843  0.3762 -1.0722 -0.4725
32129SOL    HW299886   1.102   8.148   4.767  1.9000 -0.7883  2.1128
32130SOL     OW99887   5.173   6.510   7.134 -0.4720 -0.3696 -0.1211
32130SOL    HW199888   5.220   6.445   7.081  0.1049  0.0319 -0.1214
32130SOL    HW299889   5.160   6.468   7.218  0.7197 -0.1810  0.1862
32131SOL     OW99890  10.821   2.174   5.336  0.2686  0.1589  0.3357
32131SOL    HW199891  10.787   2.085   5.345 -2.0775  0.7426 -1.6030
32131SOL    HW299892  10.810   2.213   5.423 -1.1222 -0.6907  0.5747
32132SOL     OW99893   9.488   9.553   2.489 -0.1351 -0.4623 -0.0011
32132SOL    HW199894   9.551   9.524   2.422  0.3561  0.9985 -0.2067
32132SOL    HW299895   9.534   9.540   2.572 -0.0014 -0.4890 -0.0783
32133SOL     OW99896   8.779   4.812   5.841  0.1788 -0.1679  0.1617
32133SOL    HW199897   8.695   4.854   5.825  0.9158  1.2944  0.0328
32133SOL    HW299898   8.837   4.882   5.869  1.9884 -0.6896 -1.9428
32134SOL     OW99899   3.648   7.796   3.605  0.3793  0.0819 -0.5074
32134SOL    HW199900   3.586   7.811   3.676  0.6606  0.4645 -0.3395
32134SOL    HW299901   3.598   7.810   3.525 -0.7142 -3.0706 -0.5091
32135SOL     OW99902   3.459   3.951   3.323 -0.4065  0.5280 -0.2300
32135SOL    HW199903   3.378   3.927   3.279  0.0071 -0.4688 -0.4793
32135SOL    HW299904   3.505   4.008   3.261 -0.6127  0.5390 -0.3702
32136SOL     OW99905   1.387   5.005   8.681 -0.3215 -0.2664 -0.0804
32136SOL    HW199906   1.367   5.033   8.592 -0.5854 -1.1938 -0.3206
32136SOL    HW299907   1.338   4.923   8.692  0.2990 -0.5470  0.6539
32137SOL     OW99908   6.757   3.696   3.386  0.1589 -0.1079 -0.1071
32137SOL    HW199909   6.837   3.647   3.406 -0.6339 -1.4759 -0.1295
32137SOL    HW299910   6.694   3.667   3.452 -0.8125 -0.3686 -1.1136
32138SOL     OW99911   0.427  10.912   1.089 -0.0151  0.3024  0.1390
32138SOL    HW199912   0.364  10.852   1.049 -0.2126  0.2101  0.5794
32138SOL    HW299913   0.378  10.956   1.158  0.0804  1.1039 -0.2933
32139SOL     OW99914   6.488   6.332   2.013 -0.0837 -0.0743 -0.3307
32139SOL    HW199915   6.578   6.340   2.046  0.5356  1.7972 -2.2117
32139SOL    HW299916   6.496   6.276   1.936 -0.7557 -0.8138  0.1213
32140SOL     OW99917   4.836   8.269  10.233 -1.0302  0.2830 -0.7876
32140SOL    HW199918   4.745   8.274  10.202 -0.5418 -0.1896 -2.3978
32140SOL    HW299919   4.848   8.176  10.253  0.1903 -0.5277 -4.4041
32141SOL     OW99920   5.281   4.729   5.320  0.5861  0.4394 -0.5891
32141SOL    HW199921   5.328   4.753   5.400 -0.7485 -1.3419  0.8148
32141SOL    HW299922   5.340   4.754   5.249  1.3526  3.1180  0.8588
32142SOL     OW99923   7.737   7.478   5.805  0.3970 -0.7804 -0.1685
32142SOL    HW199924   7.660   7.423   5.819  0.7190 -1.4232 -0.8726
32142SOL    HW299925   7.701   7.565   5.785 -0.1576 -1.1457 -0.7861
32143SOL     OW99926   3.015   8.734   9.021 -0.1727 -0.0823 -0.0559
32143SOL    HW199927   2.993   8.788   9.096 -0.3166 -0.1460 -0.0504
32143SOL    HW299928   2.945   8.669   9.017  0.0393 -0.3148 -0.0152
32144SOL     OW99929   6.674   7.809   1.534 -0.1509 -0.6775  0.0075
32144SOL    HW199930   6.740   7.855   1.482 -0.2746  0.5238  0.8941
32144SOL    HW299931   6.635   7.876   1.590 -1.5425 -1.5250  0.1144
32145SOL     OW99932   0.022   8.769  10.204 -0.0436  0.6637 -0.0670
32145SOL    HW199933  -0.053   8.783  10.261 -0.3594  4.1936 -1.0804
32145SOL    HW299934   0.095   8.752  10.263 -1.3385 -1.6607  0.9853
32146SOL     OW99935   6.719   0.006   4.430 -0.5158 -0.2623  0.5651
32146SOL    HW199936   6.797   0.008   4.374 -0.8995  0.0334  0.0359
32146SOL    HW299937   6.702  -0.087   4.443  0.3862 -0.3355  1.3375
32147SOL     OW99938   1.943   0.840   9.321 -0.4527 -0.4118 -0.4921
32147SOL    HW199939   2.002   0.781   9.275  0.9633 -0.2424  1.0019
32147SOL    HW299940   1.975   0.928   9.301  1.6944 -0.3612  2.5067
32148SOL     OW99941   4.925  10.222   0.511  0.0940 -0.1051  0.2067
32148SOL    HW199942   4.852  10.259   0.460  0.7155 -0.5791 -1.0907
32148SOL    HW299943   5.003  10.243   0.458  0.8595  0.0414  1.3676
32149SOL     OW99944   7.596   9.268   6.385 -0.3185 -0.5601 -0.1220
32149SOL    HW199945   7.646   9.340   6.346  2.2216 -1.4857  1.2273
32149SOL    HW299946   7.576   9.298   6.474  1.0666 -1.5791  0.5734
32150SOL     OW99947   5.293   0.128   5.719 -0.2480 -0.4975  0.3577
32150SOL    HW199948   5.350   0.166   5.652  1.7144 -2.2756  0.9234
32150SOL    HW299949   5.219   0.093   5.670 -1.0534  2.0330 -0.3768
32151SOL     OW99950   4.242   9.991   6.138 -0.5454 -0.5778  0.2096
32151SOL    HW199951   4.174  10.009   6.202  0.1602 -0.8296  1.0464
32151SOL    HW299952   4.231  10.059   6.071 -0.7983  0.1611  0.9889
32152SOL     OW99953   5.606   6.698   9.712  0.0904  0.2636 -0.1288
32152SOL    HW199954   5.544   6.632   9.743 -0.6297  0.5302 -0.9405
32152SOL    HW299955   5.685   6.648   9.690  0.1707 -0.0858  0.8816
32153SOL     OW99956   7.281  10.466   8.473  0.0533  0.5414  0.4514
32153SOL    HW199957   7.349  10.441   8.535  0.6535  0.0947 -0.3596
32153SOL    HW299958   7.208  10.496   8.527  0.2890 -0.5167  1.3887
32154SOL     OW99959   7.815   1.725   9.364  0.7057 -0.1030  0.9281
32154SOL    HW199960   7.908   1.742   9.378  0.7539  0.7375 -0.3108
32154SOL    HW299961   7.810   1.689   9.276 -0.2271  0.6160  0.6765
32155SOL     OW99962   4.937   3.558   5.607 -0.0309 -0.1937 -0.6251
32155SOL    HW199963   4.953   3.476   5.561 -0.9246 -0.8283  0.1524
32155SOL    HW299964   4.876   3.535   5.677  2.7830  0.2988  2.1910
32156SOL     OW99965   3.470   0.805   6.616 -0.2104  0.3730 -0.0379
32156SOL    HW199966   3.404   0.751   6.658 -1.9950  2.1352 -0.4379
32156SOL    HW299967   3.549   0.792   6.670 -1.4151 -0.2408  1.6650
32157SOL     OW99968   2.860   8.284   0.119 -0.0744 -0.0947  0.0190
32157SOL    HW199969   2.772   8.271   0.155 -0.5284  1.4179 -0.4564
32157SOL    HW299970   2.884   8.198   0.084 -0.7098 -0.9273  1.5268
32158SOL     OW99971   7.401   9.318   5.859  0.2358 -0.4680  0.4403
32158SOL    HW199972   7.460   9.316   5.934 -0.6118 -1.8230  1.1085
32158SOL    HW299973   7.416   9.234   5.815 -0.1157 -0.1757 -0.2386
32159SOL     OW99974   8.780   9.938   9.844  0.6481  0.3585 -0.3626
32159SOL    HW199975   8.806   9.856   9.888 -0.0240  0.3183 -0.0321
32159SOL    HW299976   8.763   9.999   9.915  2.8473  1.3710 -0.5919
32160SOL     OW99977   8.128   7.224   0.330 -0.6881  0.1733  0.7788
32160SOL    HW199978   8.136   7.271   0.248 -1.9303  0.3217  0.7162
32160SOL    HW299979   8.037   7.192   0.330  0.2276 -2.6568  0.5815
32161SOL     OW99980   3.245   6.980   2.904 -0.6197  0.2305 -0.5590
32161SOL    HW199981   3.311   7.020   2.848 -0.1519 -0.7490 -0.7288
32161SOL    HW299982   3.281   6.989   2.993  0.2577 -1.1946 -0.7363
32162SOL     OW99983   8.700   7.540  10.920  0.3919  0.1527  0.4306
32162SOL    HW199984   8.786   7.557  10.882 -0.0341 -0.0026 -0.6227
32162SOL    HW299985   8.684   7.447  10.902 -1.0500  0.7376 -1.6131
32163SOL     OW99986   6.851   9.698   0.301 -0.1763  0.4372 -0.2358
32163SOL    HW199987   6.914   9.694   0.372 -0.8431 -2.6004  0.3531
32163SOL    HW299988   6.895   9.746   0.231  1.5842  1.0110  1.2238
32164SOL     OW99989   9.270   7.191   2.348 -0.1119 -0.4580 -0.3084
32164SOL    HW199990   9.184   7.204   2.388 -0.0630 -2.8058  0.7433
32164SOL    HW299991   9.331   7.193   2.421  0.5884 -0.0470 -0.8904
32165SOL     OW99992   4.855   9.207   5.257  0.3316 -0.3977 -0.3663
32165SOL    HW199993   4.846   9.116   5.230 -2.9754 -0.2062 -0.3117
32165SOL    HW299994   4.839   9.205   5.352  0.3319  0.2343 -0.3514
32166SOL     OW99995   3.389   0.831   3.182  0.3382  0.2312  0.4649
32166SOL    HW199996   3.381   0.838   3.087  1.6371  1.5668  0.4241
32166SOL    HW299997   3.440   0.751   3.196 -1.3956 -0.9964  0.1727
32167SOL     OW99998   5.123   0.504   3.780  0.1213  0.6288  0.2642
32167SOL    HW199999   5.170   0.583   3.807  0.4976  0.3446  0.4440
32167SOL    HW2    0   5.089   0.468   3.862  1.2255 -0.2115  0.3633
32168SOL     OW    1   8.568   1.450   6.472  0.2203  0.8076 -0.2529
32168SOL    HW1    2   8.584   1.364   6.433 -0.3831  1.0501 -1.0745
32168SOL    HW2    3   8.634   1.459   6.541  0.0958 -0.4416  0.0529
32169SOL     OW    4   1.658   3.615   0.664 -0.1074  0.5233  0.0819
32169SOL    HW1    5   1.564   3.619   0.684  0.2171 -0.5002  2.1074
32169SOL    HW2    6   1.687   3.706   0.665 -0.9274  0.7872  0.2896
32170SOL     OW    7  10.308   8.530   9.890 -0.6088  0.1270 -0.0621
32170SOL    HW1    8  10.333   8.442   9.915  0.0253  0.1382 -0.6333
32170SOL    HW2    9  10.349   8.587   9.955 -0.3513  0.0527 -0.1608
32171SOL     OW   10   6.307   5.553   0.130  0.0068  0.1715  0.2899
32171SOL    HW1   11   6.265   5.611   0.192  0.9493  0.2905  0.8334
32171SOL    HW2   12   6.239   5.489   0.107 -0.6190  0.6667  0.7258
32172SOL     OW   13   9.775   9.942   8.650  0.0551 -0.2554 -0.0602
32172SOL    HW1   14   9.768   9.974   8.739 -1.0341 -0.7232  0.0457
32172SOL    HW2   15   9.865   9.912   8.641  0.3724  0.4774  0.6394
32173SOL     OW   16   6.026   7.068   2.650  0.0033 -0.0183  0.0772
32173SOL    HW1   17   6.044   6.987   2.697  0.1746  0.6724  1.2290
32173SOL    HW2   18   5.990   7.127   2.716  1.2711  1.3378 -0.3775
32174SOL     OW   19   7.520   1.602   8.395 -0.5803 -0.0977 -0.4282
32174SOL    HW1   20   7.514   1.660   8.319  1.4484  0.1606 -0.4508
32174SOL    HW2   21   7.558   1.521   8.361  1.8219  0.5452  0.4674
32175SOL     OW   22   7.281   3.211   6.606  0.6401  0.3237 -0.0526
32175SOL    HW1   23   7.350   3.246   6.662  1.0222 -0.2461 -0.1572
32175SOL    HW2   24   7.325   3.147   6.551  0.1159  0.3045 -0.4564
32176SOL     OW   25   0.434   3.466   1.749  0.0788  0.0017 -0.1778
32176SOL    HW1   26   0.367   3.476   1.817 -0.9356  0.6848 -1.2533
32176SOL    HW2   27   0.495   3.401   1.786  0.1309  1.1035  1.8156
32177SOL     OW   28   1.479   6.951   0.326 -0.3941 -0.2190 -0.1217
32177SOL    HW1   29   1.536   6.961   0.249 -0.9646  0.3174 -0.4836
32177SOL    HW2   30   1.471   7.040   0.362 -1.3617 -0.2080 -0.3396
32178SOL     OW   31   3.883   0.848   9.727  0.2927 -0.3213  1.0611
32178SOL    HW1   32   3.968   0.829   9.766  0.1771 -1.0911  0.9514
32178SOL    HW2   33   3.895   0.932   9.683  1.2549 -0.8446  0.2820
32179SOL     OW   34   7.193   4.993   1.113 -0.3552  0.3191 -0.1929
32179SOL    HW1   35   7.286   5.005   1.093 -0.0819  1.0020  1.3735
32179SOL    HW2   36   7.150   5.065   1.067 -0.0948  0.1639 -0.6955
32180SOL     OW   37   1.786   2.185   1.384  0.2509 -0.4199 -0.0035
32180SOL    HW1   38   1.841   2.108   1.368 -1.0508 -1.0432 -1.8369
32180SOL    HW2   39   1.780   2.227   1.298 -0.9160  0.4545  0.4841
32181SOL     OW   40   8.418   8.375   8.358  0.0449  0.3346  0.0000
32181SOL    HW1   41   8.480   8.306   8.381 -0.9426 -0.7193 -0.4404
32181SOL    HW2   42   8.455   8.413   8.278 -0.3304 -0.9071 -0.7868
32182SOL     OW   43   4.970   1.644   5.732  0.0990 -0.1078  0.1633
32182SOL    HW1   44   5.063   1.624   5.723  0.1296 -0.2994  0.8015
32182SOL    HW2   45   4.967   1.735   5.762  0.0328  0.2563 -0.9274
32183SOL     OW   46  10.203   6.663   7.316 -0.1820 -0.2631 -0.3410
32183SOL    HW1   47  10.200   6.649   7.222  1.0435 -0.6882 -0.3326
32183SOL    HW2   48  10.167   6.583   7.354 -2.4298  0.6344 -0.4485
32184SOL     OW   49   4.686   7.913   6.963  0.0427 -0.0497  0.1910
32184SOL    HW1   50   4.736   7.987   6.998  0.4895 -0.3822  0.2628
32184SOL    HW2   51   4.636   7.950   6.891  0.7938  0.1764 -0.2171
32185SOL     OW   52   2.890   7.366   0.195  0.0137 -0.2843  0.3157
32185SOL    HW1   53   2.902   7.280   0.156 -0.7919  0.2418 -1.1617
32185SOL    HW2   54   2.950   7.423   0.147 -1.5861  0.5342 -0.7830
32186SOL     OW   55   7.289   1.960   7.629  0.0564  0.7687  0.4245
32186SOL    HW1   56   7.329   2.036   7.671  0.7511  1.0430 -0.6984
32186SOL    HW2   57   7.195   1.972   7.641  0.1724  1.6395  0.5186
32187SOL     OW   58   5.024   6.973   1.192 -0.4845 -0.4568  0.6815
32187SOL    HW1   59   4.963   7.041   1.219  1.2682  1.5775 -0.2477
32187SOL    HW2   60   4.970   6.907   1.149 -2.3091 -0.0067  2.1723
32188SOL     OW   61   1.062   1.277   2.830 -0.4295 -0.1515 -0.1531
32188SOL    HW1   62   1.066   1.188   2.865 -2.5472  0.0508  0.7367
32188SOL    HW2   63   1.091   1.269   2.739  0.8133 -1.4664  0.3188
32189SOL     OW   64   5.140  10.100   4.099  0.7882  0.4006  0.7548
32189SOL    HW1   65   5.143  10.068   4.189  0.5048  0.6730  0.8639
32189SOL    HW2   66   5.075  10.044   4.056  1.9275 -0.6332  0.3527
32190SOL     OW   67   1.707   2.574   7.374 -0.0607  0.9078 -0.2342
32190SOL    HW1   68   1.691   2.661   7.408  1.5773  0.3991  2.0793
32190SOL    HW2   69   1.793   2.550   7.409  0.6947 -0.6612 -2.8723
32191SOL     OW   70   4.194   9.355   3.664 -1.0235  0.6331  0.6617
32191SOL    HW1   71   4.124   9.348   3.728 -1.4235 -0.2505  0.1409
32191SOL    HW2   72   4.170   9.295   3.594 -0.4713  1.3853 -0.2148
32192SOL     OW   73   3.803   1.146   3.311  0.1606 -0.0168  0.9279
32192SOL    HW1   74   3.711   1.124   3.327 -0.0510  0.6908  0.7175
32192SOL    HW2   75   3.852   1.069   3.342 -0.6006 -1.1973 -0.6705
32193SOL     OW   76   3.015   2.030   8.279 -0.3568  0.1070  0.4199
32193SOL    HW1   77   3.094   2.042   8.332 -0.4890  1.2687  0.3626
32193SOL    HW2   78   3.047   2.015   8.190 -0.2001  0.7199  0.3709
32194SOL     OW   79   5.468  10.839   5.196  0.1515  0.2089  0.7947
32194SOL    HW1   80   5.390  10.870   5.150  0.0569 -1.5163 -0.3097
32194SOL    HW2   81   5.541  10.865   5.140  0.3851  1.6487  1.7293
32195SOL     OW   82   1.831   0.836   3.187  0.0804 -0.1876  0.5152
32195SOL    HW1   83   1.842   0.831   3.092 -0.0459 -1.5678  0.5488
32195SOL    HW2   84   1.751   0.788   3.204 -0.8226  1.4763  1.1900
32196SOL     OW   85   6.809   1.427   8.783 -0.4166 -0.4646 -0.2099
32196SOL    HW1   86   6.844   1.366   8.847  1.5022 -1.4032 -2.0724
32196SOL    HW2   87   6.724   1.391   8.759 -0.9523 -0.3480  1.3978
32197SOL     OW   88   7.270   8.551   8.165 -0.1676  0.0272  0.5385
32197SOL    HW1   89   7.242   8.576   8.077 -0.2582  1.8283  1.0373
32197SOL    HW2   90   7.365   8.551   8.160 -0.0509  2.8167  1.0395
32198SOL     OW   91   2.245   9.483   5.540 -0.1285 -0.1374 -0.3484
32198SOL    HW1   92   2.266   9.515   5.628 -0.2516 -0.3206 -0.2504
32198SOL    HW2   93   2.287   9.545   5.481  0.3247 -0.2586 -0.1585
32199SOL     OW   94   9.880   9.483   4.155  0.6837  0.3775 -0.2616
32199SOL    HW1   95   9.975   9.486   4.167  0.6040 -0.4473  0.6581
32199SOL    HW2   96   9.844   9.527   4.232  0.2826 -0.6048  0.1215
32200SOL     OW   97   4.141  10.214   8.573  0.6378  1.1948 -0.2956
32200SOL    HW1   98   4.232  10.205   8.546 -0.0692 -1.4299 -2.1968
32200SOL    HW2   99   4.095  10.239   8.493 -0.7730 -1.2291 -0.3164
32201SOL     OW  100   2.028   7.754  10.763 -0.4032  0.6612  0.1351
32201SOL    HW1  101   2.057   7.835  10.721  2.4643 -0.1649  0.2942
32201SOL    HW2  102   2.081   7.686  10.722 -0.8826 -0.7872  1.7990
32202SOL     OW  103   4.290   5.663   8.984 -0.0983 -0.0775 -0.3256
32202SOL    HW1  104   4.242   5.622   9.056  1.5679 -0.1388  0.8268
32202SOL    HW2  105   4.251   5.750   8.976  0.7410  0.5653  1.8425
32203SOL     OW  106   5.649   6.023   6.531  0.0176 -0.0740 -0.0799
32203SOL    HW1  107   5.699   5.991   6.605 -0.3544  0.7609  0.5487
32203SOL    HW2  108   5.558   6.008   6.555 -0.0745 -1.9072 -1.3665
32204SOL     OW  109   3.491   1.880   7.370 -0.1137 -0.0173  0.2534
32204SOL    HW1  110   3.506   1.880   7.276  1.3054 -2.7501  0.3726
32204SOL    HW2  111   3.545   1.952   7.403  2.6400 -1.5036 -0.7052
32205SOL     OW  112   6.528  10.490   1.970 -0.0730 -0.2045  0.1194
32205SOL    HW1  113   6.484  10.413   2.007  1.9887 -0.5926  1.9533
32205SOL    HW2  114   6.518  10.557   2.037 -1.4954  1.0735 -1.2994
32206SOL     OW  115   7.760   0.641  10.655  0.0935 -0.4326 -0.1693
32206SOL    HW1  116   7.854   0.638  10.643  0.2311 -0.2776  0.8156
32206SOL    HW2  117   7.727   0.562  10.611  0.7167 -0.6757 -0.1990
32207SOL     OW  118   5.175   1.340   1.693 -0.1296  0.5556  0.2413
32207SOL    HW1  119   5.236   1.266   1.700 -2.7378 -2.2460 -2.9079
32207SOL    HW2  120   5.228   1.411   1.656  1.6962 -0.9945 -0.2938
32208SOL     OW  121   0.760   9.286   4.172 -0.1075 -0.3541  1.0101
32208SOL    HW1  122   0.769   9.307   4.265 -0.1213  0.9988  0.7350
32208SOL    HW2  123   0.744   9.371   4.131 -3.5193 -1.2905  0.1549
32209SOL     OW  124   6.421   5.091   6.736 -0.3152 -0.1123 -0.1972
32209SOL    HW1  125   6.356   5.021   6.745 -0.5589 -0.2287 -2.3023
32209SOL    HW2  126   6.373   5.162   6.694  0.4568  0.5410  0.0122
32210SOL     OW  127   8.549   5.821   5.524  0.0833  1.0007 -0.5160
32210SOL    HW1  128   8.533   5.866   5.607 -1.9538  2.1034 -1.4262
32210SOL    HW2  129   8.642   5.800   5.526  0.2851  1.8136  1.6425
32211SOL     OW  130   0.874   3.927   5.878  0.1473 -0.5729 -0.1978
32211SOL    HW1  131   0.877   4.015   5.917 -0.9857  0.0698 -1.4471
32211SOL    HW2  132   0.957   3.886   5.903  0.7312  0.8834  0.3534
32212SOL     OW  133   3.067   7.289   5.510  0.2913 -0.1527 -0.1745
32212SOL    HW1  134   3.132   7.226   5.541 -1.1311 -0.6473  2.0262
32212SOL    HW2  135   2.989   7.270   5.562 -1.5731  0.5732 -2.5139
32213SOL     OW  136   6.804  10.232   7.763 -0.4521  0.1168 -0.0628
32213SOL    HW1  137   6.736  10.299   7.749 -1.5021 -0.9057 -0.0088
32213SOL    HW2  138   6.818  10.232   7.857 -0.2107  0.4870 -0.0971
32214SOL     OW  139   6.663   8.358   5.230 -0.2716 -0.7741 -0.6236
32214SOL    HW1  140   6.685   8.356   5.323 -0.1925 -4.2833 -0.5945
32214SOL    HW2  141   6.576   8.396   5.227 -0.4895 -1.0578  0.9558
32215SOL     OW  142   5.163  10.830   6.870 -0.3386  0.8783  0.1543
32215SOL    HW1  143   5.173  10.739   6.899  0.0490  0.5733 -0.9109
32215SOL    HW2  144   5.201  10.882   6.941 -0.9479  0.2452  0.9663
32216SOL     OW  145   5.935   7.945   5.872 -0.3471  0.5507 -0.2642
32216SOL    HW1  146   5.992   7.874   5.904 -2.2887 -1.5820 -1.2754
32216SOL    HW2  147   5.978   7.974   5.791 -0.5883 -0.9802 -0.9826
32217SOL     OW  148   9.014   4.373   1.989 -0.2362  0.1578 -0.4511
32217SOL    HW1  149   9.010   4.466   2.012  0.3087  0.2746 -0.7903
32217SOL    HW2  150   8.927   4.339   2.009 -1.4943  1.4204 -3.1401
32218SOL     OW  151  10.308  10.992   8.690  0.3208 -0.5649 -0.1038
32218SOL    HW1  152  10.377  11.058   8.695 -0.3989  0.2410 -0.5992
32218SOL    HW2  153  10.250  11.012   8.763  1.0248 -1.7656  0.8386
32219SOL     OW  154   5.176   6.098   7.993  0.3082  0.0961 -0.4707
32219SOL    HW1  155   5.193   6.083   8.086 -2.7804 -1.4889 -0.0477
32219SOL    HW2  156   5.094   6.146   7.991 -0.2583 -0.8809 -2.3982
32220SOL     OW  157   1.944   8.483   9.325  0.6414 -0.3718  0.2308
32220SOL    HW1  158   1.920   8.392   9.338  0.5764 -0.2232  1.2096
32220SOL    HW2  159   2.040   8.482   9.318  0.6090 -0.5610 -0.2299
32221SOL     OW  160   6.407   2.906   2.161  0.3291 -0.0958 -0.5161
32221SOL    HW1  161   6.408   2.968   2.234  1.5188  0.0136 -0.6041
32221SOL    HW2  162   6.498   2.904   2.130  0.6862 -2.9177  0.3991
32222SOL     OW  163   1.693   6.998   4.707 -0.3290  0.1321 -0.2595
32222SOL    HW1  164   1.687   7.093   4.698 -0.4780  0.3824  1.9470
32222SOL    HW2  165   1.754   6.972   4.638 -0.0274  1.8671 -0.7037
32223SOL     OW  166   1.907   6.925   3.660  0.3463 -0.0188  0.0358
32223SOL    HW1  167   1.849   7.001   3.665 -0.8788 -0.8563 -1.0638
32223SOL    HW2  168   1.930   6.907   3.751 -0.9804  0.4390  0.4792
32224SOL     OW  169   4.922   1.219   9.368  0.3686  0.5658  0.3576
32224SOL    HW1  170   4.910   1.166   9.289  0.1019 -1.3189  1.5889
32224SOL    HW2  171   4.915   1.310   9.338  0.0088 -0.1020 -1.7223
32225SOL     OW  172  10.812   1.530   0.111 -0.2898  0.1065  0.2876
32225SOL    HW1  173  10.741   1.582   0.150 -1.1825 -0.1959 -0.8848
32225SOL    HW2  174  10.768   1.457   0.069  0.7230 -0.0835 -0.4712
32226SOL     OW  175  10.424   5.757   9.321  0.1572 -0.4857  0.1712
32226SOL    HW1  176  10.371   5.740   9.398  0.0712  0.5968  0.3624
32226SOL    HW2  177  10.470   5.838   9.340  0.3258 -0.3299 -0.8176
32227SOL     OW  178   6.816   9.914   3.282  0.0799 -0.3380 -0.3264
32227SOL    HW1  179   6.776   9.899   3.196  0.2468 -1.3635 -0.2340
32227SOL    HW2  180   6.786   9.840   3.335  0.2572  0.1069  0.3995
32228SOL     OW  181   6.344   7.512   0.666  0.2363 -0.2726  0.1920
32228SOL    HW1  182   6.283   7.438   0.662  0.4165 -0.4677  0.8864
32228SOL    HW2  183   6.427   7.474   0.692  0.5166  0.0762 -0.1755
32229SOL     OW  184   0.710   4.867   6.506 -0.2355  0.5654  0.3564
32229SOL    HW1  185   0.651   4.903   6.572 -0.5951  0.6501 -0.0083
32229SOL    HW2  186   0.707   4.930   6.434 -0.8505 -0.1578 -0.2750
32230SOL     OW  187   4.338   9.796   9.169 -0.4708  0.1519 -0.5693
32230SOL    HW1  188   4.280   9.872   9.170 -0.1993  0.3598  0.1554
32230SOL    HW2  189   4.375   9.795   9.081  0.9659  1.9834 -0.0470
32231SOL     OW  190   4.101  10.821   9.673 -0.2156 -0.1466  0.0961
32231SOL    HW1  191   4.065  10.792   9.589 -0.0958 -1.4146  0.4589
32231SOL    HW2  192   4.138  10.907   9.655  0.9379 -0.9203 -1.4952
32232SOL     OW  193   3.979   5.913   6.235 -0.7481  0.1221 -0.3172
32232SOL    HW1  194   3.981   5.821   6.210 -1.3791 -0.3949  1.3960
32232SOL    HW2  195   3.901   5.948   6.191 -0.9595 -0.3613 -0.3294
32233SOL     OW  196   5.923   6.551   6.848  0.3440 -0.6106 -0.4606
32233SOL    HW1  197   5.842   6.510   6.819  0.2050  0.9232 -2.5070
32233SOL    HW2  198   5.982   6.545   6.773  0.8887  1.3284 -0.2649
32234SOL     OW  199   6.612   7.337   2.414 -0.0355 -0.0865  0.0853
32234SOL    HW1  200   6.564   7.277   2.357  0.1681 -1.3720  1.2229
32234SOL    HW2  201   6.594   7.306   2.503 -0.2350  1.7918  0.7409
32235SOL     OW  202   6.775   3.438   1.484 -0.4749 -0.4887  0.3161
32235SOL    HW1  203   6.803   3.469   1.398 -1.1046 -0.4243  0.1307
32235SOL    HW2  204   6.679   3.435   1.478 -0.6444  1.1715  1.5767
32236SOL     OW  205   3.855   9.178   3.588  0.0749 -0.3506 -0.6379
32236SOL    HW1  206   3.890   9.199   3.502  0.0536  0.0106 -0.5610
32236SOL    HW2  207   3.891   9.245   3.646 -0.0636 -0.4768 -0.4027
32237SOL     OW  208   0.037   7.727   9.055 -0.8756 -0.1002 -0.6490
32237SOL    HW1  209   0.119   7.720   9.105 -0.8603 -0.6733 -0.7421
32237SOL    HW2  210  -0.027   7.679   9.109 -0.6698 -1.4622 -1.5668
32238SOL     OW  211   3.322   6.316   0.018  0.4750  0.1104 -0.6429
32238SOL    HW1  212   3.331   6.236   0.069  0.2577  0.2169 -0.4384
32238SOL    HW2  213   3.248   6.299  -0.040  0.1830  0.3078 -0.3296
32239SOL     OW  214   4.068   2.610   9.120  0.1841 -1.4724 -0.1370
32239SOL    HW1  215   4.138   2.654   9.169  1.2343 -1.8617 -1.2244
32239SOL    HW2  216   4.046   2.671   9.050  0.2637 -1.8360 -0.4831
32240SOL     OW  217   5.479   4.984   5.061  0.4400 -0.5018 -0.1331
32240SOL    HW1  218   5.473   4.981   4.965  2.0450 -0.8476 -0.2541
32240SOL    HW2  219   5.471   4.893   5.088  2.4862 -0.7427 -0.1708
32241SOL     OW  220   8.465   2.079   1.891 -0.5877  0.0950 -0.0535
32241SOL    HW1  221   8.431   2.168   1.900  0.2103  0.4447 -0.3776
32241SOL    HW2  222   8.416   2.042   1.817  1.6057  1.5712 -2.4309
32242SOL     OW  223   1.286   4.779   2.079  0.3159  0.3110  0.0194
32242SOL    HW1  224   1.262   4.872   2.074  1.8869  0.9615  2.4838
32242SOL    HW2  225   1.382   4.780   2.075  0.3603 -1.1829  0.4112
32243SOL     OW  226   3.259   2.762   3.002 -0.2189 -0.5385  0.3859
32243SOL    HW1  227   3.292   2.852   3.006 -1.2553 -0.1328  0.0577
32243SOL    HW2  228   3.164   2.770   3.013 -0.5358 -1.4217 -1.3469
32244SOL     OW  229   7.914   7.394   5.995  1.2501 -0.3638  0.1259
32244SOL    HW1  230   7.992   7.450   5.998  0.4813  0.7314  0.4129
32244SOL    HW2  231   7.877   7.408   5.908  1.4252 -0.9715 -0.0528
32245SOL     OW  232   3.513   0.615   7.945  0.1614 -0.1009 -0.1879
32245SOL    HW1  233   3.491   0.653   8.029  0.5232 -0.5826  0.1314
32245SOL    HW2  234   3.581   0.672   7.909 -0.6712  0.6515 -0.5937
32246SOL     OW  235   6.682   5.035   6.409  0.1717 -0.3195  0.3876
32246SOL    HW1  236   6.659   5.088   6.333  1.5256  1.9213  1.4096
32246SOL    HW2  237   6.757   4.983   6.381  0.1000 -0.1667 -0.0850
32247SOL     OW  238   6.892   9.460   5.346 -0.1016  0.1754  1.2713
32247SOL    HW1  239   6.852   9.400   5.409  1.2974 -1.5712  0.5736
32247SOL    HW2  240   6.862   9.428   5.261  0.0087  0.9863  0.9242
32248SOL     OW  241   9.624   4.422   2.887 -0.1111  0.0550  0.4833
32248SOL    HW1  242   9.637   4.464   2.972  0.4507 -0.2966  0.5792
32248SOL    HW2  243   9.529   4.419   2.876 -0.2079 -0.3922  1.3498
32249SOL     OW  244   9.544  10.696   0.818 -0.5613  0.7480  0.0706
32249SOL    HW1  245   9.620  10.661   0.773 -0.9742 -0.5477  0.3269
32249SOL    HW2  246   9.469  10.663   0.768 -0.9824  0.5690  0.8053
32250SOL     OW  247   9.964   1.513   4.798  0.7703 -0.6586 -0.1605
32250SOL    HW1  248   9.934   1.593   4.755  1.9790  0.0187  0.2190
32250SOL    HW2  249  10.054   1.532   4.824  0.6055 -1.6492  1.2096
32251SOL     OW  250  10.075   4.841   9.268 -0.6178 -0.0784  0.3095
32251SOL    HW1  251  10.037   4.754   9.279  3.3070 -2.0159 -0.0210
32251SOL    HW2  252  10.157   4.826   9.222  0.2024  3.8503  0.1689
32252SOL     OW  253  10.777   2.466   7.070 -0.4629  0.1453  0.3612
32252SOL    HW1  254  10.728   2.440   6.993 -1.5229 -0.1643  1.1171
32252SOL    HW2  255  10.742   2.552   7.093  0.4855  0.6481 -0.0202
32253SOL     OW  256   7.644   0.965   2.352  0.2791 -0.7513 -0.1840
32253SOL    HW1  257   7.549   0.959   2.356  0.3020 -0.7062  0.5941
32253SOL    HW2  258   7.674   0.876   2.371  0.3877 -0.9960 -1.3905
32254SOL     OW  259   6.833   3.713   8.510 -0.5065 -1.0522 -0.4494
32254SOL    HW1  260   6.796   3.778   8.450  0.8132 -0.5508 -0.7559
32254SOL    HW2  261   6.916   3.751   8.539 -0.7401 -1.6369  1.0917
32255SOL     OW  262   9.988   3.498   5.454 -0.2822 -0.0565  0.0314
32255SOL    HW1  263   9.937   3.422   5.481  0.0096  0.2652  1.6057
32255SOL    HW2  264  10.075   3.463   5.433 -1.1479 -0.6435 -2.9137
32256SOL     OW  265   9.337   5.734   1.882  0.4267 -0.2092 -0.2226
32256SOL    HW1  266   9.408   5.729   1.818  0.1745 -1.0129 -0.4473
32256SOL    HW2  267   9.258   5.709   1.833  0.2344 -0.8475  0.4021
32257SOL     OW  268   7.669   8.136   9.528 -0.1242 -0.3191  0.3914
32257SOL    HW1  269   7.750   8.093   9.555  0.6856 -1.7248 -3.5866
32257SOL    HW2  270   7.605   8.065   9.520 -0.2485 -0.0739 -1.2617
32258SOL     OW  271   3.848   5.095   7.696  0.2113 -0.0793  0.3032
32258SOL    HW1  272   3.906   5.058   7.763 -0.8442  0.2085  1.3954
32258SOL    HW2  273   3.784   5.026   7.679 -1.3938  0.9304  1.8984
32259SOL     OW  274   0.994   7.542   3.840 -0.8179 -0.1354  0.2761
32259SOL    HW1  275   0.919   7.601   3.840 -0.9426 -0.2890  0.1110
32259SOL    HW2  276   0.987   7.494   3.923 -2.9054 -2.6124 -1.1869
32260SOL     OW  277   4.522   9.825   7.957  0.1179  0.0182 -0.9117
32260SOL    HW1  278   4.439   9.786   7.984 -0.8054  2.4831  0.1029
32260SOL    HW2  279   4.517   9.828   7.861 -1.2009  0.5885 -0.8397
32261SOL     OW  280   4.688   1.342   9.835  0.2626  0.0217  0.3850
32261SOL    HW1  281   4.731   1.300   9.909 -1.2884 -0.1842  1.2209
32261SOL    HW2  282   4.718   1.433   9.838 -0.1918  0.1496  1.6176
32262SOL     OW  283   3.408   5.816   8.638  0.1686 -0.4404  0.4566
32262SOL    HW1  284   3.405   5.748   8.706 -0.3884 -1.3372 -0.4378
32262SOL    HW2  285   3.464   5.884   8.675  0.3069 -1.1422  1.6002
32263SOL     OW  286   6.129  10.112   8.937 -0.0152  0.1413 -0.0530
32263SOL    HW1  287   6.056  10.149   8.889  0.0856 -2.2914 -2.3032
32263SOL    HW2  288   6.090  10.048   8.996  0.1430  0.7992  0.8010
32264SOL     OW  289  10.402   5.937   6.286 -0.0184  0.3911  0.3291
32264SOL    HW1  290  10.368   5.855   6.322  0.2165  0.6274  1.1090
32264SOL    HW2  291  10.330   6.000   6.296 -0.1186  0.3373 -0.0557
32265SOL     OW  292   2.562   1.721   3.098 -0.1481 -0.7423  0.3222
32265SOL    HW1  293   2.489   1.661   3.103 -1.2713  0.0666 -3.4218
32265SOL    HW2  294   2.632   1.679   3.148 -2.9620 -1.6268  3.9020
32266SOL     OW  295   5.844   5.378   8.370 -0.0835  0.5769 -0.0231
32266SOL    HW1  296   5.910   5.367   8.439 -1.2385 -1.8927  0.7670
32266SOL    HW2  297   5.776   5.432   8.410 -0.1612  0.2221  0.3177
32267SOL     OW  298   9.912   4.205   9.111  0.0588  0.0644  0.4360
32267SOL    HW1  299   9.977   4.193   9.042  1.6586  0.2239  1.8465
32267SOL    HW2  300   9.845   4.262   9.072  1.3800  0.8833 -0.7026
32268SOL     OW  301   3.808   2.023   8.055  0.3130 -0.2587  0.4178
32268SOL    HW1  302   3.804   2.007   7.960  0.0330 -1.1065  0.5656
32268SOL    HW2  303   3.793   1.937   8.094 -0.6116  0.2667  1.2548
32269SOL     OW  304  10.343   8.009   9.321  0.7167  0.1846 -0.3064
32269SOL    HW1  305  10.419   7.978   9.370 -0.0650  1.2253  1.6856
32269SOL    HW2  306  10.367   8.098   9.293  0.4614  0.2856 -0.2059
32270SOL     OW  307   6.858   0.365   9.133 -0.2928  0.1612  0.3195
32270SOL    HW1  308   6.816   0.279   9.146  1.1421 -0.6766 -0.3066
32270SOL    HW2  309   6.908   0.380   9.213 -0.8663  0.6173  0.5969
32271SOL     OW  310   8.369   7.045   4.920  0.2046  0.4821  0.2017
32271SOL    HW1  311   8.459   7.064   4.947  1.9056 -0.2631 -4.0964
32271SOL    HW2  312   8.353   6.956   4.949 -0.2668  1.4173  3.1777
32272SOL     OW  313   4.820   8.067   0.741 -0.0318 -0.0532  0.0969
32272SOL    HW1  314   4.766   8.035   0.814  0.3735 -1.3888 -0.1496
32272SOL    HW2  315   4.816   8.162   0.748  0.1726 -0.1333  1.9981
32273SOL     OW  316   4.581   0.536   5.875 -0.4893  0.4290 -0.1985
32273SOL    HW1  317   4.675   0.545   5.892 -0.4803  0.7440 -0.4045
32273SOL    HW2  318   4.552   0.470   5.938 -0.4164  1.4011  0.8888
32274SOL     OW  319  10.282   1.118   6.269 -0.0913  0.0373  0.6805
32274SOL    HW1  320  10.198   1.078   6.290  0.4046 -0.7166  1.2648
32274SOL    HW2  321  10.302   1.172   6.346  2.0713 -3.2790  2.6743
32275SOL     OW  322   9.592   6.269   9.453  0.4183 -0.1442  1.0004
32275SOL    HW1  323   9.573   6.176   9.439  2.2310 -0.8003  2.4918
32275SOL    HW2  324   9.632   6.298   9.372  0.3370 -0.8061  0.7153
32276SOL     OW  325   5.857   2.384   2.285 -0.4948 -0.0917  0.0648
32276SOL    HW1  326   5.883   2.338   2.205  1.1061  1.3771 -0.3152
32276SOL    HW2  327   5.792   2.326   2.325  0.5161 -2.0890 -0.9904
32277SOL     OW  328   1.878  10.253   3.621 -0.0787  0.3414  0.2295
32277SOL    HW1  329   1.917  10.333   3.657 -0.6999 -0.6219  3.3058
32277SOL    HW2  330   1.953  10.194   3.607  0.0484  0.1219  1.7132
32278SOL     OW  331   5.662  10.875   5.831  0.1806  0.0508  0.4588
32278SOL    HW1  332   5.748  10.914   5.817  0.6175 -1.0359  0.0146
32278SOL    HW2  333   5.614  10.939   5.884  1.2107  0.7257  0.5841
32279SOL     OW  334   8.541   9.295   8.099 -0.2551  0.5771  0.1089
32279SOL    HW1  335   8.628   9.326   8.073 -0.0841  1.8814  2.0984
32279SOL    HW2  336   8.551   9.200   8.104  0.6400  0.5778 -1.0509
32280SOL     OW  337   2.616  10.522   3.033  0.3195 -0.0866  0.5109
32280SOL    HW1  338   2.622  10.615   3.013 -2.2414  0.2015  0.7905
32280SOL    HW2  339   2.642  10.478   2.952  1.2988  0.8342  0.3025
32281SOL     OW  340  10.640   1.603   3.573  0.0751 -0.1311 -0.3673
32281SOL    HW1  341  10.599   1.525   3.536 -1.7514  0.1358  0.9350
32281SOL    HW2  342  10.593   1.676   3.532  0.9207  0.2712 -0.6451
32282SOL     OW  343   8.668   2.132   3.620  0.4059 -0.1591  0.1351
32282SOL    HW1  344   8.641   2.222   3.638  1.9968  0.1384  1.3017
32282SOL    HW2  345   8.718   2.106   3.698  2.2588 -1.1060 -1.2804
32283SOL     OW  346   9.313   5.405   6.084 -0.0332 -0.7478 -0.5611
32283SOL    HW1  347   9.247   5.474   6.074  2.0444  2.2604  3.5226
32283SOL    HW2  348   9.265   5.332   6.123 -1.5049  0.2576 -0.4026
32284SOL     OW  349   4.907   5.134   8.200 -0.6848 -0.0945  0.4774
32284SOL    HW1  350   4.961   5.213   8.196 -0.4879 -0.2605 -1.7623
32284SOL    HW2  351   4.948   5.080   8.267  2.1526 -0.3111 -1.2491
32285SOL     OW  352   5.073   5.495   1.816  0.0890  0.0018  0.6364
32285SOL    HW1  353   5.089   5.518   1.908 -0.1454  0.8809  0.4647
32285SOL    HW2  354   5.009   5.424   1.820  2.2818 -2.0959  1.2556
32286SOL     OW  355   9.639   6.375   2.784 -0.2936 -0.4467  0.2407
32286SOL    HW1  356   9.580   6.321   2.837 -1.7651  1.3341  0.5512
32286SOL    HW2  357   9.704   6.407   2.846 -0.8345  0.0349  0.5715
32287SOL     OW  358   9.580   9.455   5.962 -0.3539  0.4214  0.0135
32287SOL    HW1  359   9.565   9.382   5.902 -0.9446 -0.9671  1.7239
32287SOL    HW2  360   9.524   9.525   5.931 -2.1581 -0.9384  0.0238
32288SOL     OW  361  10.406   6.153   7.652  0.1266  0.5582 -0.1583
32288SOL    HW1  362  10.486   6.195   7.682  0.8842  0.6763 -2.2388
32288SOL    HW2  363  10.416   6.061   7.679  0.7965  0.6376 -0.1235
32289SOL     OW  364   8.839   1.611   8.401  0.6917  0.0475  0.4086
32289SOL    HW1  365   8.922   1.655   8.416  0.4808 -0.2353  2.8108
32289SOL    HW2  366   8.810   1.583   8.488 -1.3476 -0.9029 -0.4926
32290SOL     OW  367   3.770   6.670   2.914  0.2501  0.3777  0.5835
32290SOL    HW1  368   3.837   6.707   2.972  0.0711  1.6387  0.0201
32290SOL    HW2  369   3.797   6.579   2.902  0.9441  0.4083  1.6817
32291SOL     OW  370   9.391  10.415   3.563 -0.1000 -0.3236  0.0028
32291SOL    HW1  371   9.337  10.447   3.636  0.0751 -1.8813  0.8491
32291SOL    HW2  372   9.331  10.366   3.508  0.2898 -1.5775  0.6467
32292SOL     OW  373   3.180   5.409   6.257  0.6430  0.1334  0.0612
32292SOL    HW1  374   3.120   5.426   6.330  1.1892  0.3203  0.4734
32292SOL    HW2  375   3.169   5.316   6.239  1.3740 -0.1922  1.1791
32293SOL     OW  376  10.603   7.174   4.033 -0.5102  0.6466  0.0680
32293SOL    HW1  377  10.666   7.102   4.032 -2.2708 -0.9711  0.0535
32293SOL    HW2  378  10.594   7.197   4.125  2.1315  2.8656 -0.1029
32294SOL     OW  379   9.830   9.196   6.341  0.5678  0.6368 -0.1439
32294SOL    HW1  380   9.806   9.288   6.327  0.9368  0.4862 -1.9774
32294SOL    HW2  381   9.907   9.200   6.398  1.0163  1.5165 -0.7892
32295SOL     OW  382  10.675   5.077   9.300  0.6489 -0.0742 -0.6057
32295SOL    HW1  383  10.597   5.028   9.276  1.4002 -0.6577 -1.9908
32295SOL    HW2  384  10.643   5.149   9.354 -0.5216 -2.0012  1.4776
32296SOL     OW  385   5.130   6.102   1.749  0.8762 -0.0722  0.3705
32296SOL    HW1  386   5.207   6.156   1.764  0.0812  1.2612 -0.2140
32296SOL    HW2  387   5.059   6.146   1.795  0.2491 -0.7421  0.0790
32297SOL     OW  388   7.785   6.055   0.072 -0.3545 -0.1048 -0.3201
32297SOL    HW1  389   7.804   6.076  -0.020  0.0169 -2.2240 -0.7675
32297SOL    HW2  390   7.701   6.097   0.089  0.8784  2.7981 -0.6939
32298SOL     OW  391  10.661   6.321   2.021  0.0922  0.7942  0.6401
32298SOL    HW1  392  10.756   6.308   2.014 -0.1022 -0.7110  0.4041
32298SOL    HW2  393  10.637   6.275   2.102 -0.3695  1.6320  0.9867
32299SOL     OW  394   0.684   2.871   2.344  0.0847  0.3094  0.0392
32299SOL    HW1  395   0.715   2.960   2.327  2.3218 -0.5667 -0.8405
32299SOL    HW2  396   0.666   2.870   2.438 -1.6536  2.1297 -0.2047
32300SOL     OW  397   8.072   3.172   8.389 -0.3358 -0.4690  0.1122
32300SOL    HW1  398   8.068   3.077   8.376 -3.1160 -0.2379 -1.6682
32300SOL    HW2  399   7.982   3.202   8.375  0.9581  2.8142 -2.7335
32301SOL     OW  400   9.709   6.283   5.347 -0.0493  0.3553 -0.1272
32301SOL    HW1  401   9.675   6.357   5.297 -0.2263 -0.3295 -1.0539
32301SOL    HW2  402   9.783   6.251   5.295 -1.6074 -1.7788 -1.2419
32302SOL     OW  403   7.073   9.106   0.867 -0.2516 -0.5011  0.0970
32302SOL    HW1  404   7.016   9.155   0.927 -0.6017 -0.5692 -0.1728
32302SOL    HW2  405   7.043   9.132   0.780 -0.3470 -1.0883 -0.0501
32303SOL     OW  406   9.063   0.063   9.001  0.2695 -0.2740 -0.9666
32303SOL    HW1  407   9.113  -0.014   8.971  0.4778 -0.2181 -0.7575
32303SOL    HW2  408   8.989   0.026   9.049  1.4527 -0.3248  0.9027
32304SOL     OW  409   1.321   6.335   0.904 -0.7857 -0.1195 -0.7598
32304SOL    HW1  410   1.324   6.240   0.896  2.1343 -0.3157  1.1967
32304SOL    HW2  411   1.261   6.351   0.977  0.9401 -0.7665  0.9017
32305SOL     OW  412   2.645   0.683   5.790  0.0734 -0.0103 -0.4424
32305SOL    HW1  413   2.578   0.624   5.823  1.5671 -0.3436  2.3096
32305SOL    HW2  414   2.625   0.768   5.830  0.8740  0.0567 -0.1691
32306SOL     OW  415   9.217   4.241   1.873 -0.4125  0.4289  0.5283
32306SOL    HW1  416   9.148   4.286   1.922 -1.0316  0.4312 -0.3432
32306SOL    HW2  417   9.185   4.152   1.863 -0.8699  0.7297 -0.9332
32307SOL     OW  418   4.962   0.203   6.730 -0.1097 -0.3875  0.2288
32307SOL    HW1  419   5.021   0.254   6.675  2.0198 -3.0989 -0.1952
32307SOL    HW2  420   5.001   0.205   6.817  0.3948 -1.7939  0.0561
32308SOL     OW  421   1.888   3.874   9.866  0.6263  0.1002 -0.3731
32308SOL    HW1  422   1.969   3.925   9.860  0.6495 -0.0432 -1.8007
32308SOL    HW2  423   1.849   3.900   9.949  1.2833  1.4679 -0.4615
32309SOL     OW  424   6.982   8.687   5.377  0.1983  0.0564 -0.1025
32309SOL    HW1  425   6.989   8.650   5.465  1.0709 -1.4307 -0.7700
32309SOL    HW2  426   6.898   8.733   5.377 -0.5489 -1.2562  1.0108
32310SOL     OW  427   6.163   8.770   9.648  0.9819 -0.0051 -0.0190
32310SOL    HW1  428   6.099   8.747   9.581  0.9476 -0.0748  0.0364
32310SOL    HW2  429   6.145   8.861   9.669  0.5327 -0.1898  0.4007
32311SOL     OW  430   6.050   7.468   6.210 -0.4621  0.1018 -0.5611
32311SOL    HW1  431   6.005   7.448   6.128  0.3169 -1.1536 -0.6982
32311SOL    HW2  432   6.093   7.387   6.235 -1.8756  0.0086  1.8870
32312SOL     OW  433   9.081   6.511   1.843 -0.0860  0.2177 -0.0561
32312SOL    HW1  434   9.050   6.450   1.775  1.3096  2.4694 -2.9552
32312SOL    HW2  435   9.015   6.579   1.847  0.0248  0.2895  0.5903
32313SOL     OW  436   7.077  10.999  10.129 -0.2012  0.2949  0.2379
32313SOL    HW1  437   7.057  11.089  10.105 -0.3908  0.5158  1.1742
32313SOL    HW2  438   7.003  10.972  10.183 -0.2250 -0.4771 -0.1760
32314SOL     OW  439   3.912   4.833   9.413  0.3227  0.0527 -0.0392
32314SOL    HW1  440   3.884   4.815   9.323  0.4100 -2.9843  0.4302
32314SOL    HW2  441   4.007   4.838   9.408  0.3811 -0.8400 -0.0589
32315SOL     OW  442   1.875   4.201   1.514  0.2533  0.4804 -0.3290
32315SOL    HW1  443   1.786   4.233   1.497 -0.3337 -1.5589 -1.4209
32315SOL    HW2  444   1.875   4.181   1.608  0.4270  2.8413  0.2440
32316SOL     OW  445   3.386   8.313   8.698 -0.1245 -0.5683  0.2209
32316SOL    HW1  446   3.383   8.406   8.722 -1.0491 -0.5256  0.0032
32316SOL    HW2  447   3.305   8.299   8.648  0.2095 -1.3952 -0.1116
32317SOL     OW  448   8.954   7.299   6.069 -0.0501 -0.1070 -0.5475
32317SOL    HW1  449   8.907   7.354   6.007 -0.8052  1.7445  1.5408
32317SOL    HW2  450   9.042   7.336   6.072 -0.8146  1.7724  1.5689
32318SOL     OW  451   8.116   4.736   2.774 -0.0435  0.0845 -0.0965
32318SOL    HW1  452   8.040   4.775   2.818 -0.0023  1.4678 -1.1929
32318SOL    HW2  453   8.125   4.786   2.693  2.6043  0.5675  0.4156
32319SOL     OW  454   4.709  10.358   4.868  0.1862  0.0748  0.5201
32319SOL    HW1  455   4.737  10.267   4.861 -0.8641 -0.1926 -0.7430
32319SOL    HW2  456   4.635  10.356   4.928 -0.3372 -0.0553 -0.1116
32320SOL     OW  457   3.436  10.188   8.230  0.6138 -0.5148  0.3146
32320SOL    HW1  458   3.444  10.118   8.165 -1.1307 -0.3394 -0.1535
32320SOL    HW2  459   3.377  10.152   8.296 -2.2132  1.1927 -1.0733
32321SOL     OW  460   7.756   8.138   5.220  0.2337  0.1379 -0.0956
32321SOL    HW1  461   7.786   8.051   5.195 -0.3798 -1.4539  3.9135
32321SOL    HW2  462   7.672   8.123   5.263 -0.2104  2.8015  0.1272
32322SOL     OW  463   4.861   1.606   1.480 -0.7246 -0.0936 -0.0610
32322SOL    HW1  464   4.830   1.589   1.391 -0.6831  0.6036 -0.2167
32322SOL    HW2  465   4.868   1.701   1.485 -0.8327 -0.1204  0.7298
32323SOL     OW  466   3.153   3.563   2.165 -0.4781  0.7839 -0.3718
32323SOL    HW1  467   3.184   3.645   2.125  0.1804  0.5149 -0.4301
32323SOL    HW2  468   3.197   3.494   2.114 -1.1469  0.3912 -0.4194
32324SOL     OW  469   2.076   4.740   6.144 -0.0965 -0.0030  0.1203
32324SOL    HW1  470   2.148   4.677   6.148  1.2513  1.5313  3.0789
32324SOL    HW2  471   2.119   4.826   6.143 -1.8518  0.9235  0.6377
32325SOL     OW  472   7.548   6.716   1.037 -0.2349  0.2519  0.0542
32325SOL    HW1  473   7.554   6.671   0.953 -2.8025  2.7474 -1.6547
32325SOL    HW2  474   7.532   6.808   1.014 -0.3091  1.1858  3.2942
32326SOL     OW  475   0.632   6.340   2.565  0.0990 -0.2707  0.0124
32326SOL    HW1  476   0.591   6.325   2.480 -0.0577  1.7045 -0.2981
32326SOL    HW2  477   0.652   6.434   2.567  1.1371 -0.4742  1.7003
32327SOL     OW  478   2.788   2.456   4.791  0.2601 -0.0438  0.0670
32327SOL    HW1  479   2.878   2.426   4.779  0.6063  0.7158  0.6691
32327SOL    HW2  480   2.772   2.516   4.718  0.8661  1.1946  0.9205
32328SOL     OW  481   4.482   7.572   9.069  0.2556 -0.5419 -0.2718
32328SOL    HW1  482   4.411   7.599   9.011  1.3110  0.5547 -1.1258
32328SOL    HW2  483   4.555   7.631   9.046  1.1481 -1.0198  1.2017
32329SOL     OW  484   7.818   3.066   6.946  0.2176  0.4895  0.3440
32329SOL    HW1  485   7.854   3.096   6.862  0.0481 -1.5320 -0.5328
32329SOL    HW2  486   7.724   3.078   6.938  0.2655  0.9919  0.5438
32330SOL     OW  487   7.522   3.627   1.551  0.0348 -0.3609  0.5915
32330SOL    HW1  488   7.430   3.631   1.524  0.2107 -1.3231 -0.2105
32330SOL    HW2  489   7.526   3.683   1.628 -0.7959  1.3643 -0.5562
32331SOL     OW  490   8.102   3.138   4.969  0.5530 -0.0911 -0.7281
32331SOL    HW1  491   8.074   3.060   4.920  0.0941  0.0219 -0.6476
32331SOL    HW2  492   8.021   3.179   4.998  0.8021  0.2575 -0.5129
32332SOL     OW  493  10.445   1.881  10.467 -0.1426 -0.7483 -0.0730
32332SOL    HW1  494  10.482   1.874  10.380 -2.7202  1.4248 -1.5058
32332SOL    HW2  495  10.480   1.963  10.502 -0.4991 -0.6974  0.1725
32333SOL     OW  496   8.650   2.163   0.486 -0.5404  0.6349  0.1779
32333SOL    HW1  497   8.739   2.164   0.451 -0.6602  2.2746 -0.1345
32333SOL    HW2  498   8.662   2.163   0.581 -0.2309 -1.7032  0.2059
32334SOL     OW  499   0.642   5.063   2.078  0.0227 -0.5607  0.5159
32334SOL    HW1  500   0.593   5.142   2.054  0.4896 -0.7351 -1.0710
32334SOL    HW2  501   0.724   5.070   2.030  0.7676 -1.2389  1.6368
32335SOL     OW  502   2.324   8.010   6.829 -0.5731  0.4061  0.3388
32335SOL    HW1  503   2.324   8.104   6.813  1.1766  1.0326  3.2525
32335SOL    HW2  504   2.415   7.983   6.817 -0.9284 -0.7806  0.1665
32336SOL     OW  505   6.599   8.187   6.702 -0.6690  0.4410  0.0810
32336SOL    HW1  506   6.542   8.143   6.639  0.7032 -0.9202 -0.2644
32336SOL    HW2  507   6.654   8.117   6.738  0.4800  1.6300  0.7348
32337SOL     OW  508   4.136   4.405   6.186  0.2178 -0.3062  0.6625
32337SOL    HW1  509   4.180   4.402   6.101  2.0332  2.3511  1.3530
32337SOL    HW2  510   4.187   4.346   6.242  0.4749 -0.2790  0.4593
32338SOL     OW  511   3.013   3.141  10.079 -0.4502  0.7399 -0.5938
32338SOL    HW1  512   3.080   3.164  10.144 -2.0211 -1.2716  1.9428
32338SOL    HW2  513   3.061   3.090  10.014  0.7287  0.3842  0.4965
32339SOL     OW  514   0.255   1.955   7.980  0.3007  0.0944  0.1936
32339SOL    HW1  515   0.331   1.921   8.028 -0.2228 -0.5698  0.5616
32339SOL    HW2  516   0.226   1.883   7.925  0.5670  0.6838 -0.7416
32340SOL     OW  517   3.059   7.196   5.202  0.2511  0.3176  0.0014
32340SOL    HW1  518   3.069   7.266   5.137 -0.3192  0.7540  0.3714
32340SOL    HW2  519   3.085   7.236   5.285 -1.2587  0.4927  0.4293
32341SOL     OW  520   3.880   1.682   7.027  0.2658  0.4099  0.4600
32341SOL    HW1  521   3.900   1.771   7.056  0.4908  0.7387 -0.6583
32341SOL    HW2  522   3.948   1.662   6.963 -0.1861 -0.2977  0.1966
32342SOL     OW  523   6.957   0.380   5.640  0.1381 -0.3948  0.7328
32342SOL    HW1  524   7.030   0.411   5.587 -1.5177 -0.0569 -1.4819
32342SOL    HW2  525   6.918   0.461   5.675 -1.0272 -0.2904 -0.7171
32343SOL     OW  526   1.417   2.568   9.316 -0.2778 -0.5322 -0.2034
32343SOL    HW1  527   1.388   2.630   9.250 -0.3668  0.0461  0.3706
32343SOL    HW2  528   1.344   2.507   9.327 -0.4053 -0.4073 -0.3711
32344SOL     OW  529   1.841   5.715   0.425 -0.4432  0.4439  0.1986
32344SOL    HW1  530   1.853   5.658   0.500  1.7858  0.8121  0.1647
32344SOL    HW2  531   1.898   5.789   0.441  1.4150 -0.2369 -2.5815
32345SOL     OW  532   6.009   4.398   7.279  0.6100  0.0149  0.1049
32345SOL    HW1  533   5.968   4.483   7.298 -0.3768 -0.5229  0.4329
32345SOL    HW2  534   5.966   4.369   7.199  0.7041 -0.3371  0.1837
32346SOL     OW  535   0.715   4.473   8.689  0.0732  0.2896  0.2594
32346SOL    HW1  536   0.745   4.563   8.703  0.2989  0.0787  1.2300
32346SOL    HW2  537   0.662   4.477   8.610  0.7906  1.1131 -0.1963
32347SOL     OW  538   9.580  10.501   8.483 -0.4658 -0.3230  0.3742
32347SOL    HW1  539   9.669  10.525   8.459 -0.2749 -1.3898 -0.0312
32347SOL    HW2  540   9.528  10.579   8.463  0.3563  0.3058  0.5973
32348SOL     OW  541   3.327   6.741   4.548 -0.0013 -0.0974 -0.2083
32348SOL    HW1  542   3.335   6.659   4.499  1.1368  0.8450 -1.6612
32348SOL    HW2  543   3.233   6.753   4.559 -0.2129 -1.1209 -0.7906
32349SOL     OW  544   4.392   6.780   8.138  0.3028  0.4710 -1.0750
32349SOL    HW1  545   4.352   6.695   8.155 -0.2644  0.9779  0.2069
32349SOL    HW2  546   4.388   6.789   8.043  1.7752 -1.5936 -1.4319
32350SOL     OW  547   1.152   5.316   7.850  0.4049 -0.0886  0.1638
32350SOL    HW1  548   1.182   5.284   7.765 -0.2439  0.7372 -0.3925
32350SOL    HW2  549   1.072   5.266   7.868  0.2196  0.1497  0.0077
32351SOL     OW  550   4.253   4.460   9.622 -0.0024  0.5407  0.0752
32351SOL    HW1  551   4.272   4.524   9.691 -0.6742  0.0715  0.7143
32351SOL    HW2  552   4.165   4.429   9.642 -0.2800  0.5260 -1.1141
32352SOL     OW  553   9.074   9.991   5.838 -0.1944  0.5490 -0.0682
32352SOL    HW1  554   9.036  10.079   5.845  2.1435  1.5096  2.1683
32352SOL    HW2  555   9.124   9.992   5.757 -1.8063  0.5408 -1.0988
32353SOL     OW  556   2.564   2.509   5.259 -0.7509  0.4093  0.3512
32353SOL    HW1  557   2.651   2.500   5.220 -0.3759 -1.1217  1.4330
32353SOL    HW2  558   2.578   2.567   5.334 -0.4364 -0.5207  1.0432
32354SOL     OW  559   6.963   2.042   2.086 -0.0607  0.3750  0.4849
32354SOL    HW1  560   7.002   2.127   2.069  0.5594 -0.0779 -0.4436
32354SOL    HW2  561   6.980   1.991   2.007  2.3259 -1.6072  2.0843
32355SOL     OW  562   4.151   3.049   2.017  0.8541 -0.3281 -0.2235
32355SOL    HW1  563   4.066   3.022   1.982 -0.4503  0.5512  2.0445
32355SOL    HW2  564   4.208   2.974   2.000 -0.8628 -1.7326 -0.1332
32356SOL     OW  565   1.023   6.710   7.952  0.1460  0.2119  0.3701
32356SOL    HW1  566   1.109   6.748   7.969  0.3181 -0.1216  0.2500
32356SOL    HW2  567   1.040   6.616   7.939 -0.1365  0.2509 -0.3712
32357SOL     OW  568   7.981   6.561   9.627  0.5159 -0.1938 -0.3627
32357SOL    HW1  569   8.030   6.624   9.574  1.0143 -0.3227 -0.0618
32357SOL    HW2  570   7.890   6.571   9.599  0.6179  0.5289 -0.4377
32358SOL     OW  571  10.571   1.788   3.351 -0.2661 -0.2564 -0.5220
32358SOL    HW1  572  10.625   1.761   3.276 -0.6854 -2.3247 -0.1477
32358SOL    HW2  573  10.481   1.777   3.321 -0.4398 -1.6458  0.4151
32359SOL     OW  574   5.306   9.393   1.401 -0.0119 -0.6477  0.3081
32359SOL    HW1  575   5.241   9.342   1.352  0.0510  0.5665 -1.0926
32359SOL    HW2  576   5.255   9.461   1.444  0.3556  0.8843 -1.5427
32360SOL     OW  577  10.026  10.069  10.750  0.0854  0.2408  0.0932
32360SOL    HW1  578   9.947  10.029  10.713 -0.7228 -0.0635  2.0104
32360SOL    HW2  579  10.013  10.063  10.845  1.5557  1.9069  0.4508
32361SOL     OW  580   2.010   9.823   7.750 -0.2937  0.6101 -0.4715
32361SOL    HW1  581   2.054   9.738   7.760  0.5117  0.8928 -1.3782
32361SOL    HW2  582   2.041   9.855   7.665 -2.1344  0.9192 -1.0726
32362SOL     OW  583  10.838   5.029   5.355  0.4444  0.3261  0.7897
32362SOL    HW1  584  10.933   5.032   5.355  0.4696 -0.1394  0.0860
32362SOL    HW2  585  10.813   5.029   5.447  0.9938  3.5651  1.0612
32363SOL     OW  586   7.370   0.241   8.652 -0.4562  0.0565 -0.0737
32363SOL    HW1  587   7.277   0.251   8.675 -0.5339  0.2999 -0.4868
32363SOL    HW2  588   7.415   0.239   8.736 -0.5845  2.4147  0.1370
32364SOL     OW  589   4.777   8.336   0.448  0.2421  0.0817  0.2167
32364SOL    HW1  590   4.789   8.390   0.370  0.6367  1.3435  1.1141
32364SOL    HW2  591   4.709   8.273   0.424 -0.7516  1.4295 -0.6530
32365SOL     OW  592   8.268   1.358   6.441 -0.7461 -0.2781  0.2467
32365SOL    HW1  593   8.336   1.348   6.507  1.0676  0.8747 -1.3134
32365SOL    HW2  594   8.253   1.269   6.408 -0.6520 -0.6644  1.2313
32366SOL     OW  595   7.311   4.647   5.313 -0.3004 -0.6078  0.0149
32366SOL    HW1  596   7.369   4.720   5.287  0.9744 -1.0897  1.3723
32366SOL    HW2  597   7.315   4.587   5.239  3.0962 -1.8650  1.0266
32367SOL     OW  598  10.534  10.377   5.701  0.0262 -0.2746  0.1267
32367SOL    HW1  599  10.513  10.341   5.615  0.1315 -1.4920  0.5841
32367SOL    HW2  600  10.620  10.417   5.691  1.3499 -2.8800  0.3009
32368SOL     OW  601   3.066   3.977   0.956 -0.1451 -0.3485 -0.3122
32368SOL    HW1  602   3.050   3.948   1.046  0.2128 -2.3760 -0.8431
32368SOL    HW2  603   3.048   4.071   0.958  1.3237 -0.0245  2.2029
32369SOL     OW  604   5.712  10.979   5.422  0.3019  0.5020  0.1881
32369SOL    HW1  605   5.764  10.976   5.342 -0.0389  1.6455 -0.0916
32369SOL    HW2  606   5.757  11.042   5.478  2.0275 -2.1408  2.0171
32370SOL     OW  607   8.915   0.610   4.356 -0.1687 -0.0983 -0.3126
32370SOL    HW1  608   9.000   0.637   4.391 -0.2036  2.1283 -1.7964
32370SOL    HW2  609   8.856   0.612   4.432  1.0165 -1.6233  0.7266
32371SOL     OW  610   0.128   6.100   1.773  0.5168  0.1694  0.1181
32371SOL    HW1  611   0.222   6.099   1.791  0.9466 -1.6319 -1.8166
32371SOL    HW2  612   0.095   6.021   1.814 -0.3895  1.2739  1.6078
32372SOL     OW  613  10.179   0.697   9.711  0.5471  0.2424  0.2342
32372SOL    HW1  614  10.110   0.763   9.715 -0.4161 -0.6329 -1.0286
32372SOL    HW2  615  10.165   0.642   9.788 -1.0011 -0.6747 -0.6539
32373SOL     OW  616   0.086   7.799   5.823 -0.3409  0.2107 -0.1796
32373SOL    HW1  617   0.050   7.838   5.903 -1.4211 -1.2729  0.1088
32373SOL    HW2  618   0.172   7.840   5.813 -0.4176  0.8435  1.4268
32374SOL     OW  619   4.800   9.476   0.616 -0.4922 -0.3342  0.1598
32374SOL    HW1  620   4.783   9.570   0.626 -0.8812 -0.3209 -0.5011
32374SOL    HW2  621   4.789   9.440   0.704  0.3573  0.3391  0.5577
32375SOL     OW  622   5.341  10.159   1.594 -0.0864 -0.0536 -0.6344
32375SOL    HW1  623   5.318  10.250   1.612  0.0482  0.0811 -1.1182
32375SOL    HW2  624   5.430  10.148   1.627 -0.4665 -0.2943  0.3372
32376SOL     OW  625   8.470   0.284   3.777 -0.4306 -0.1636 -0.3738
32376SOL    HW1  626   8.527   0.220   3.820 -1.8688 -0.4850  1.1657
32376SOL    HW2  627   8.479   0.265   3.684  1.7660 -0.3438 -0.1592
32377SOL     OW  628   2.676   1.816   2.403  0.2316  0.1099 -0.4915
32377SOL    HW1  629   2.730   1.867   2.463  0.4904 -1.6331  0.8542
32377SOL    HW2  630   2.714   1.728   2.405 -1.7101 -0.7925 -0.7044
32378SOL     OW  631   5.064   3.716   6.671  0.4720  0.3071  0.1719
32378SOL    HW1  632   5.025   3.680   6.591 -0.3744 -0.7726  1.0255
32378SOL    HW2  633   4.989   3.737   6.727  1.0561  0.8021  0.7891
32379SOL     OW  634   6.100   8.135  10.585 -0.4625 -0.1252  0.4076
32379SOL    HW1  635   6.120   8.094  10.501  0.9251 -0.8933  1.0854
32379SOL    HW2  636   6.094   8.062  10.646  0.0323  0.5366  1.2608
32380SOL     OW  637   2.571   4.109   1.927  0.5464 -0.6017 -0.0308
32380SOL    HW1  638   2.594   4.038   1.986  0.8965 -0.9510 -0.5818
32380SOL    HW2  639   2.648   4.166   1.926  0.4285 -0.4401  0.0816
32381SOL     OW  640   3.920   0.904   1.699  0.2597  0.2996  0.2199
32381SOL    HW1  641   3.826   0.893   1.687  0.1661  0.5569  0.7040
32381SOL    HW2  642   3.929   0.971   1.766  0.8192  1.4525 -0.9683
32382SOL     OW  643   9.122   1.594   6.725  0.0475 -0.3249 -0.2608
32382SOL    HW1  644   9.066   1.568   6.652  1.2911  0.6988 -1.6541
32382SOL    HW2  645   9.085   1.678   6.754  0.3393 -0.0754 -0.6058
32383SOL     OW  646   3.380   7.761   6.426 -0.0257  0.4354  0.4146
32383SOL    HW1  647   3.448   7.752   6.492  1.3591  2.0904 -0.6879
32383SOL    HW2  648   3.382   7.678   6.378 -0.2580 -0.3239  1.6610
32384SOL     OW  649   1.097   7.079   5.502 -0.5826  0.6840 -0.8003
32384SOL    HW1  650   1.177   7.112   5.543 -0.8879  0.1116  0.2988
32384SOL    HW2  651   1.044   7.157   5.487 -0.1613  0.9780 -0.7920
32385SOL     OW  652   5.501   5.526   5.448 -0.5299 -0.2855  0.0685
32385SOL    HW1  653   5.520   5.525   5.354 -0.4975 -1.3908  0.0674
32385SOL    HW2  654   5.466   5.613   5.465  0.7454  0.4059 -0.7087
32386SOL     OW  655   9.652   3.344   9.238 -0.0172 -0.3447  0.1713
32386SOL    HW1  656   9.631   3.288   9.313  0.2283 -0.3456  0.2398
32386SOL    HW2  657   9.597   3.311   9.167 -0.3728 -0.2413  0.3928
32387SOL     OW  658   4.128   9.317  10.707 -0.2898 -0.0844  0.1107
32387SOL    HW1  659   4.175   9.234  10.715 -1.0831 -0.5810 -0.3730
32387SOL    HW2  660   4.050   9.297  10.657  0.5272  1.3626 -1.8678
32388SOL     OW  661  10.185   8.056  10.468 -0.2699 -0.7621  0.2637
32388SOL    HW1  662  10.169   8.008  10.387  1.0313  0.1897 -0.6040
32388SOL    HW2  663  10.209   7.990  10.532 -0.3789 -1.4430 -0.3907
32389SOL     OW  664   8.120   6.262   0.206  0.2707  0.1439 -0.2904
32389SOL    HW1  665   8.113   6.302   0.120  0.0010 -2.4957 -1.6154
32389SOL    HW2  666   8.195   6.202   0.198  1.5099  1.2497  1.9887
32390SOL     OW  667   5.306   2.745   2.119  0.2030 -0.6702 -0.1254
32390SOL    HW1  668   5.307   2.676   2.185  1.7402  0.0904  0.6899
32390SOL    HW2  669   5.345   2.705   2.041 -0.0725 -1.0696 -0.0630
32391SOL     OW  670   4.238   7.707   1.958 -0.5016 -0.5597 -0.4764
32391SOL    HW1  671   4.222   7.618   1.927 -1.5919 -0.4173 -0.3563
32391SOL    HW2  672   4.301   7.743   1.896 -0.1433 -1.3699 -0.5931
32392SOL     OW  673   4.022   7.857   5.070 -0.4752 -0.0577 -0.7071
32392SOL    HW1  674   4.109   7.816   5.077 -0.4246  0.1775  0.2436
32392SOL    HW2  675   3.990   7.860   5.160 -0.7582  1.3939 -0.8307
32393SOL     OW  676   7.039  10.496   1.168 -0.6986 -0.1502 -0.2808
32393SOL    HW1  677   7.001  10.528   1.250  0.0500  1.3482 -0.4963
32393SOL    HW2  678   7.047  10.573   1.113  0.3116 -0.8598 -1.1764
32394SOL     OW  679   3.802   1.090   3.002  0.3987  0.0784 -0.3762
32394SOL    HW1  680   3.785   1.166   2.947 -0.8710  0.1591  0.1030
32394SOL    HW2  681   3.830   1.126   3.086 -1.0610  0.0741  0.1411
32395SOL     OW  682   3.890   8.085   3.371 -0.0840  0.0270  0.4233
32395SOL    HW1  683   3.881   8.180   3.374 -0.5610  0.0649 -1.1592
32395SOL    HW2  684   3.800   8.052   3.370  0.0818 -0.4673  1.3898
32396SOL     OW  685   1.158  10.784   6.157  0.0984 -0.5191 -0.9448
32396SOL    HW1  686   1.188  10.711   6.212  1.3004 -0.0225 -0.9061
32396SOL    HW2  687   1.238  10.833   6.137 -0.6072  0.4421 -1.4825
32397SOL     OW  688   9.299  10.724   3.792 -0.0915  0.2679  0.0632
32397SOL    HW1  689   9.241  10.796   3.818 -0.4472 -0.4790  1.4511
32397SOL    HW2  690   9.383  10.766   3.775 -0.8076  1.2749 -1.2491
32398SOL     OW  691   0.044   3.229   5.410  0.1332 -0.0604  0.2458
32398SOL    HW1  692   0.059   3.185   5.494  1.1667 -3.2617 -1.4239
32398SOL    HW2  693   0.132   3.251   5.378 -0.0446 -0.8910 -0.8977
32399SOL     OW  694   6.596   8.855   8.413  0.3246 -0.2569 -0.3329
32399SOL    HW1  695   6.649   8.854   8.493 -1.5726 -1.6101  1.0006
32399SOL    HW2  696   6.519   8.803   8.435 -0.9109  0.4665 -2.6358
32400SOL     OW  697   4.768   2.046   3.260  0.3599 -0.4274 -0.0627
32400SOL    HW1  698   4.849   2.010   3.294  1.2545 -0.7083 -2.3448
32400SOL    HW2  699   4.749   1.995   3.182 -1.6305  0.1219 -0.0014
32401SOL     OW  700   4.116   2.601   1.408 -0.0986 -0.4198  0.0888
32401SOL    HW1  701   4.033   2.649   1.401  0.6534  1.0095  0.5248
32401SOL    HW2  702   4.147   2.620   1.496  0.9460 -0.4801 -0.2489
32402SOL     OW  703   2.632   5.018   9.251  0.0367  0.2580 -0.1041
32402SOL    HW1  704   2.640   4.928   9.222  3.2089  0.0730  0.9361
32402SOL    HW2  705   2.642   5.070   9.172 -0.0394 -0.3125 -0.4891
32403SOL     OW  706   2.126  11.001   3.620  0.3143 -0.1033  0.2981
32403SOL    HW1  707   2.197  11.001   3.556  0.7567  2.1533  0.7029
32403SOL    HW2  708   2.132  11.087   3.663 -1.0387 -0.8730  2.1716
32404SOL     OW  709   4.971   2.015  10.092 -0.9358 -0.0912 -0.6318
32404SOL    HW1  710   5.021   2.090  10.124 -0.6561 -0.6847  0.3605
32404SOL    HW2  711   5.007   1.997  10.005  0.1461 -0.1259 -0.1826
32405SOL     OW  712   8.668   0.384   1.726 -0.0302  0.1439  0.3024
32405SOL    HW1  713   8.751   0.338   1.720 -1.0376 -1.6963 -0.4974
32405SOL    HW2  714   8.627   0.349   1.805 -0.5387  0.1512  0.0452
32406SOL     OW  715   8.701   1.108  10.238 -0.1567 -0.1654 -0.0885
32406SOL    HW1  716   8.767   1.083  10.302  0.5517 -2.1351 -1.5045
32406SOL    HW2  717   8.621   1.122  10.289  0.4928 -1.2320  1.2611
32407SOL     OW  718   6.126   3.353   3.747  0.1570  0.0661 -0.9267
32407SOL    HW1  719   6.103   3.348   3.840  0.7219 -0.6817 -0.8189
32407SOL    HW2  720   6.085   3.434   3.717 -0.3179  0.1445 -0.1078
32408SOL     OW  721  10.710   6.993   7.555  0.3297  0.1284 -0.0792
32408SOL    HW1  722  10.783   7.053   7.574  0.3868 -0.2356  0.9135
32408SOL    HW2  723  10.690   7.009   7.463  0.6215  1.3710  0.0495
32409SOL     OW  724   3.098   4.311   0.243  0.1256 -0.1892  0.5087
32409SOL    HW1  725   3.088   4.400   0.278  0.5109  0.1034 -0.1143
32409SOL    HW2  726   3.071   4.254   0.315  0.3094  0.4222  1.0741
32410SOL     OW  727   1.557  10.053   4.820 -0.2493  0.4282  0.6397
32410SOL    HW1  728   1.490   9.993   4.786  0.3764 -0.4190  0.8696
32410SOL    HW2  729   1.510  10.134   4.836 -1.4709 -0.4716  1.8163
32411SOL     OW  730   2.473   4.427   4.863 -0.1710 -0.1706 -0.2826
32411SOL    HW1  731   2.525   4.347   4.875 -1.9276 -1.0284  2.5340
32411SOL    HW2  732   2.411   4.427   4.936 -1.1770  3.0977 -0.9605
32412SOL     OW  733  10.069   2.684   6.090 -0.6445  0.2448 -0.0620
32412SOL    HW1  734  10.090   2.600   6.132 -1.2215  0.2627  0.2738
32412SOL    HW2  735  10.148   2.736   6.099  0.4987 -0.9886 -2.1477
32413SOL     OW  736   1.389   2.450   8.957 -0.4981 -0.2052  0.1386
32413SOL    HW1  737   1.415   2.471   8.868 -0.1948 -0.4089  0.1805
32413SOL    HW2  738   1.364   2.535   8.995 -1.0117 -0.1724 -0.2580
32414SOL     OW  739  10.362   4.608   5.933  0.4425  0.3543 -0.5963
32414SOL    HW1  740  10.437   4.562   5.895  0.2275 -0.4890 -0.0252
32414SOL    HW2  741  10.337   4.555   6.008 -1.2914  0.1264 -1.2848
32415SOL     OW  742   2.480   0.147   4.685  0.2711 -0.4373 -0.1092
32415SOL    HW1  743   2.567   0.106   4.679  1.1719  1.3317  0.2833
32415SOL    HW2  744   2.434   0.094   4.750  0.3698 -2.4956 -1.5995
32416SOL     OW  745   1.567   6.776   0.492  0.4404  0.2748  0.4507
32416SOL    HW1  746   1.615   6.713   0.439 -2.2891 -3.1221  1.6353
32416SOL    HW2  747   1.546   6.847   0.432  0.7478 -1.5664 -1.9834
32417SOL     OW  748  10.435   9.365   3.689  0.0812  0.2606 -0.1823
32417SOL    HW1  749  10.435   9.302   3.616  3.6278 -2.3905  1.7439
32417SOL    HW2  750  10.385   9.321   3.758  1.5364  0.0373  0.7726
32418SOL     OW  751  10.433   7.216   4.952  0.0530  0.0915  0.5973
32418SOL    HW1  752  10.337   7.224   4.957 -0.0124 -0.7316  0.8792
32418SOL    HW2  753  10.450   7.125   4.975  0.9219  0.2712  0.6923
32419SOL     OW  754   3.600   7.464   8.151  0.0038 -0.1944  0.3393
32419SOL    HW1  755   3.654   7.385   8.163 -0.3673 -0.6831 -1.0119
32419SOL    HW2  756   3.514   7.430   8.128 -0.8185  0.5926  2.0442
32420SOL     OW  757   3.817  10.470   2.227 -0.6301  0.5649  0.3840
32420SOL    HW1  758   3.738  10.476   2.172  0.1621 -0.4656 -0.9543
32420SOL    HW2  759   3.889  10.472   2.164  0.4255  1.5163  1.5923
32421SOL     OW  760   6.930   7.325   5.599  0.4441  0.1304 -0.4879
32421SOL    HW1  761   6.954   7.417   5.602  0.8671  0.0081  0.0521
32421SOL    HW2  762   6.942   7.299   5.508 -1.1598  0.9865 -0.9909
32422SOL     OW  763   1.666   6.361   8.737 -0.2422  0.2736  0.4389
32422SOL    HW1  764   1.739   6.316   8.694  1.5237  3.0584  0.2712
32422SOL    HW2  765   1.620   6.292   8.784  2.2646 -1.6895  0.2494
32423SOL     OW  766   7.200   4.738  10.669  0.3220  0.2976 -0.7488
32423SOL    HW1  767   7.165   4.796  10.601  0.4779  0.9395 -0.2911
32423SOL    HW2  768   7.149   4.760  10.747  0.0159 -0.5690 -0.7020
32424SOL     OW  769   0.814  10.011   2.317  0.7157  1.1076 -0.0413
32424SOL    HW1  770   0.906   9.991   2.296  0.3086 -0.6773 -0.2059
32424SOL    HW2  771   0.808   9.998   2.411  0.7614  1.8863  0.0818
32425SOL     OW  772   0.084   2.532   0.516  0.5099 -0.8908  0.2166
32425SOL    HW1  773   0.062   2.564   0.604  3.8465 -0.1034  0.8998
32425SOL    HW2  774   0.065   2.438   0.519 -0.3472 -0.6955  1.4436
32426SOL     OW  775   6.085   5.088   0.845  0.2292 -0.6256  0.2726
32426SOL    HW1  776   6.002   5.054   0.813 -0.4074  2.1218 -1.3410
32426SOL    HW2  777   6.150   5.056   0.781 -0.1079 -0.1241 -0.3284
32427SOL     OW  778   1.812   4.896   8.552  0.1670  0.1958 -0.0377
32427SOL    HW1  779   1.883   4.900   8.488 -1.0461 -0.2102 -1.4949
32427SOL    HW2  780   1.825   4.973   8.607  1.1105  0.7283 -0.9583
32428SOL     OW  781   9.578   9.088   5.548  0.1783 -0.2681 -0.4017
32428SOL    HW1  782   9.615   9.079   5.636  0.3617  1.4521 -0.2719
32428SOL    HW2  783   9.497   9.037   5.550 -0.3843  0.6282  1.1334
32429SOL     OW  784   4.135   5.692   0.452  0.7675  0.4090 -0.2229
32429SOL    HW1  785   4.197   5.757   0.486  1.0739 -0.2249  0.4603
32429SOL    HW2  786   4.049   5.733   0.462  0.8526  0.2586  1.3025
32430SOL     OW  787   0.097   4.414   0.096 -0.3741  0.2111 -0.1337
32430SOL    HW1  788   0.175   4.445   0.143 -0.5007 -0.5544  0.6005
32430SOL    HW2  789   0.083   4.325   0.128 -1.6634  0.3988 -0.1074
32431SOL     OW  790   6.742  10.336   2.001 -0.3594 -0.0890 -0.3363
32431SOL    HW1  791   6.664  10.383   1.971 -1.1028 -1.2260 -0.2818
32431SOL    HW2  792   6.739  10.253   1.953 -0.6751 -1.2710  1.6144
32432SOL     OW  793   8.456   5.443   3.567  0.0064 -1.1535 -0.1030
32432SOL    HW1  794   8.520   5.428   3.497 -1.3220  0.7951 -1.8609
32432SOL    HW2  795   8.390   5.375   3.555  0.7468 -1.9937  0.4995
32433SOL     OW  796   8.115   2.940   4.724 -0.1823  0.1494 -0.2836
32433SOL    HW1  797   8.204   2.975   4.712 -0.0872 -0.3700 -1.2228
32433SOL    HW2  798   8.128   2.845   4.734 -0.7179 -0.1740 -2.1794
32434SOL     OW  799  10.060   5.249   5.390 -0.4142 -0.2937  0.7669
32434SOL    HW1  800   9.971   5.266   5.358 -0.7555 -1.1018  1.2507
32434SOL    HW2  801  10.049   5.179   5.454  0.4705  0.1853  1.4603
32435SOL     OW  802   5.892   2.571   9.687 -0.4801 -0.4476  0.3416
32435SOL    HW1  803   5.829   2.526   9.743 -2.0133 -0.1046 -1.0052
32435SOL    HW2  804   5.841   2.596   9.610  0.2048  3.6297  0.9913
32436SOL     OW  805   2.230   3.863   9.682 -0.6826 -0.0138  0.2795
32436SOL    HW1  806   2.271   3.865   9.769 -0.5518  0.4974  0.2104
32436SOL    HW2  807   2.195   3.775   9.675  0.4443 -0.4927  0.3264
32437SOL     OW  808   9.525   8.288  10.525 -0.0459 -0.4299 -0.8608
32437SOL    HW1  809   9.604   8.340  10.510  0.4951 -0.7969  0.5281
32437SOL    HW2  810   9.557   8.209  10.568 -1.3216  0.1939  1.3593
32438SOL     OW  811   8.018   6.600   0.095 -0.2064 -0.6011 -0.3196
32438SOL    HW1  812   8.022   6.640   0.182 -0.1899 -1.1395 -0.0735
32438SOL    HW2  813   8.069   6.659   0.040  0.0494 -0.4239  0.0997
32439SOL     OW  814   6.039  10.114   5.507  0.7012 -0.2903  0.0422
32439SOL    HW1  815   6.066  10.078   5.423  2.8751  0.2967  0.4088
32439SOL    HW2  816   6.074  10.052   5.572 -2.9036 -1.9946  0.5865
32440SOL     OW  817   8.829   1.675   8.942  0.2935 -0.1202  0.0708
32440SOL    HW1  818   8.902   1.700   8.885  0.0677 -2.6982 -1.4985
32440SOL    HW2  819   8.871   1.632   9.017  0.4454 -0.3511 -0.1459
32441SOL     OW  820   7.003   7.435   0.381 -0.4181  0.6248 -0.0762
32441SOL    HW1  821   7.034   7.346   0.392  0.8543  1.0120 -0.3147
32441SOL    HW2  822   7.020   7.477   0.465  0.5224  1.0609 -0.4644
32442SOL     OW  823   7.960   2.113   6.137 -0.1879 -0.2179  0.3317
32442SOL    HW1  824   8.049   2.141   6.159  0.1687 -0.2026 -1.0223
32442SOL    HW2  825   7.922   2.188   6.091  0.3602 -1.4353 -2.2710
32443SOL     OW  826  10.139   5.255   4.379  0.2495  0.5116 -0.0560
32443SOL    HW1  827  10.085   5.195   4.430  0.8053  0.5645  0.6026
32443SOL    HW2  828  10.076   5.309   4.331 -0.2613 -0.5827 -0.6630
32444SOL     OW  829   8.803   8.618   9.278 -0.6689  0.4373 -0.5015
32444SOL    HW1  830   8.868   8.564   9.233  0.7583  1.5187  0.1751
32444SOL    HW2  831   8.765   8.561   9.344  0.6441  0.1802  0.0529
32445SOL     OW  832   9.592   6.268   1.169 -0.0029 -0.5092 -0.1430
32445SOL    HW1  833   9.652   6.263   1.243  0.2521  1.4520 -0.1630
32445SOL    HW2  834   9.510   6.300   1.206  0.2320  0.8461 -0.7281
32446SOL     OW  835  10.960   8.847   1.547  0.4308  0.0482  0.0004
32446SOL    HW1  836  11.030   8.840   1.611  1.6981 -0.3357 -1.3692
32446SOL    HW2  837  10.985   8.787   1.477 -0.0052  1.7041 -1.6609
32447SOL     OW  838   1.023   5.785   4.749  0.3127 -0.0393 -0.4697
32447SOL    HW1  839   1.114   5.798   4.724  0.4279 -0.2354 -0.1543
32447SOL    HW2  840   1.009   5.847   4.821 -0.0384  0.5748 -1.0550
32448SOL     OW  841   4.146   1.851   7.932 -0.6107  0.2364 -0.0211
32448SOL    HW1  842   4.100   1.851   8.016 -1.8885  0.5537 -0.6944
32448SOL    HW2  843   4.118   1.933   7.890 -0.4380 -0.1867 -0.9899
32449SOL     OW  844   5.168   5.477  10.257  0.0300 -0.0544  0.5601
32449SOL    HW1  845   5.175   5.508  10.347  1.8382  1.1316  0.0664
32449SOL    HW2  846   5.119   5.546  10.212 -0.1672 -0.2530  0.4676
32450SOL     OW  847   0.966   6.060   1.135  0.3919  0.0981 -0.1131
32450SOL    HW1  848   0.987   6.100   1.220  0.6121 -0.0483 -0.0976
32450SOL    HW2  849   0.877   6.089   1.116 -1.1973 -2.8711  1.9709
32451SOL     OW  850   5.390   7.951   1.208 -0.4482  0.2482 -0.2315
32451SOL    HW1  851   5.420   8.041   1.219 -1.9409  0.5361  2.4139
32451SOL    HW2  852   5.381   7.939   1.114 -0.8835  3.1064 -0.6364
32452SOL     OW  853   6.690   2.530   9.545 -1.0085 -0.5396 -0.5542
32452SOL    HW1  854   6.675   2.609   9.494  0.2266 -0.7708 -1.3429
32452SOL    HW2  855   6.670   2.555   9.635 -0.3210  0.7828 -0.7374
32453SOL     OW  856   2.322   7.289   3.072 -0.5575 -0.1033  0.6830
32453SOL    HW1  857   2.380   7.308   2.998  0.6123  0.1739  1.6503
32453SOL    HW2  858   2.252   7.355   3.065  0.1527  0.6372  0.4655
32454SOL     OW  859   7.491   1.315   6.963  0.3745 -0.4317 -0.3804
32454SOL    HW1  860   7.415   1.352   7.010 -1.6281 -1.7583 -2.3831
32454SOL    HW2  861   7.515   1.383   6.900 -0.5871 -0.8329 -1.2046
32455SOL     OW  862   1.364   4.068  10.607  0.6143  0.0093  0.4248
32455SOL    HW1  863   1.387   4.145  10.555 -1.9609 -0.4530 -1.6467
32455SOL    HW2  864   1.356   4.100  10.696 -3.1344  2.9389 -0.7171
32456SOL     OW  865   0.436   8.086  10.015  0.5647 -0.0861 -0.5683
32456SOL    HW1  866   0.373   8.155   9.993 -0.3475 -0.5735  0.4407
32456SOL    HW2  867   0.502   8.130  10.068 -0.8186 -0.2287  1.3830
32457SOL     OW  868   5.751   9.571   4.989  0.0013  0.2133 -0.9150
32457SOL    HW1  869   5.707   9.488   4.969  1.0761 -0.0680 -2.3078
32457SOL    HW2  870   5.804   9.589   4.911  2.5840  0.3744  0.7413
32458SOL     OW  871  10.780  10.101   7.943 -0.1658 -0.2503  0.0676
32458SOL    HW1  872  10.811  10.061   8.024 -0.0570 -0.1735  0.0647
32458SOL    HW2  873  10.705  10.048   7.917  0.2603 -0.7442 -0.1829
32459SOL     OW  874   5.493   4.707   5.106 -0.3418 -0.1694  0.4539
32459SOL    HW1  875   5.433   4.671   5.041  0.1935  1.2492 -0.8646
32459SOL    HW2  876   5.580   4.688   5.071 -0.0300 -0.1483  1.2020
32460SOL     OW  877   4.691   7.291   3.743 -0.0580  0.1719 -0.2670
32460SOL    HW1  878   4.638   7.318   3.668 -0.6652 -2.5462 -0.9226
32460SOL    HW2  879   4.637   7.313   3.819  0.5642  2.9602 -0.5323
32461SOL     OW  880   1.334   5.317   4.982  0.0741  0.5959 -0.5138
32461SOL    HW1  881   1.344   5.293   4.889  0.7353  0.1841 -0.3466
32461SOL    HW2  882   1.359   5.237   5.030 -0.2779  0.8027  0.0169
32462SOL     OW  883   8.855   1.286   8.050 -0.2331  0.0944 -0.2964
32462SOL    HW1  884   8.807   1.338   7.986  1.2026  0.3060 -1.2667
32462SOL    HW2  885   8.830   1.322   8.135 -1.0932  0.7649 -0.8249
32463SOL     OW  886  10.035   3.359   6.604 -0.2225  0.4579  0.1267
32463SOL    HW1  887   9.950   3.396   6.625 -1.4715 -1.3686 -1.3878
32463SOL    HW2  888  10.023   3.317   6.519  1.7746 -1.1140  0.5344
32464SOL     OW  889   8.376   7.818   6.445 -0.0072  0.5160 -0.0750
32464SOL    HW1  890   8.323   7.893   6.471  1.7247  1.1222  2.0847
32464SOL    HW2  891   8.465   7.842   6.472  0.8265 -1.7491 -0.5990
32465SOL     OW  892   5.836   4.097   9.721  0.4257  0.0977  0.1174
32465SOL    HW1  893   5.923   4.094   9.760 -0.4035 -4.4126  2.1594
32465SOL    HW2  894   5.828   4.016   9.672 -3.2269 -0.7127  1.6850
32466SOL     OW  895   4.750   8.416   2.645  0.2359 -0.7250  0.1153
32466SOL    HW1  896   4.841   8.410   2.676  1.0247  1.2759 -1.5213
32466SOL    HW2  897   4.756   8.392   2.552 -0.8873 -0.4283 -0.0390
32467SOL     OW  898   0.453   5.632   1.299  0.0018 -0.1161  0.3249
32467SOL    HW1  899   0.380   5.579   1.332 -0.4340 -0.0698 -0.5486
32467SOL    HW2  900   0.412   5.714   1.271  0.3259 -0.2583 -0.5708
32468SOL     OW  901   0.376   4.688   6.894  0.5158  0.3394  0.4597
32468SOL    HW1  902   0.378   4.608   6.840  0.1507 -0.1787  1.1978
32468SOL    HW2  903   0.301   4.737   6.861  0.8549  0.4748 -0.1251
32469SOL     OW  904   5.832   3.148   3.508  0.0161 -0.1091 -0.1703
32469SOL    HW1  905   5.862   3.182   3.424  1.4522 -1.6283 -0.3149
32469SOL    HW2  906   5.903   3.091   3.538 -1.2323 -1.0141  1.2175
32470SOL     OW  907   8.005   6.804   1.741 -0.0158 -0.0094  0.0427
32470SOL    HW1  908   8.035   6.806   1.650 -1.8433  1.3396 -0.5909
32470SOL    HW2  909   8.075   6.759   1.788  1.8531  0.9147 -1.6981
32471SOL     OW  910  10.532  10.427   2.407 -0.2381 -0.0078 -0.4282
32471SOL    HW1  911  10.446  10.392   2.382 -0.0197  0.1822 -1.4749
32471SOL    HW2  912  10.594  10.363   2.373  0.0731  0.2191 -0.2890
32472SOL     OW  913   3.358   8.008   8.936  0.1400 -0.1804 -0.1582
32472SOL    HW1  914   3.407   7.949   8.994  1.5024  1.0608 -0.0045
32472SOL    HW2  915   3.373   8.095   8.971 -0.1229  0.4728 -1.5928
32473SOL     OW  916   1.500   7.958   4.513  0.3857  0.4759 -0.2816
32473SOL    HW1  917   1.545   7.983   4.593  0.5253  2.1000 -0.8161
32473SOL    HW2  918   1.472   7.868   4.527 -0.0651  0.9002  1.7953
32474SOL     OW  919  10.266   0.438   4.622  0.4809 -0.0308 -0.6232
32474SOL    HW1  920  10.325   0.419   4.695 -0.1153  1.4367  0.2984
32474SOL    HW2  921  10.323   0.441   4.545  1.1933 -1.1712 -0.1576
32475SOL     OW  922   9.262   4.218  10.449 -0.2538 -0.0689 -0.3266
32475SOL    HW1  923   9.211   4.294  10.423  0.4640  0.5083 -0.0803
32475SOL    HW2  924   9.335   4.254  10.500 -0.1052 -0.9468  0.1059
32476SOL     OW  925   6.219   8.806   2.087 -0.1568  0.3957 -0.4519
32476SOL    HW1  926   6.291   8.750   2.058 -1.3030 -0.6433 -1.4299
32476SOL    HW2  927   6.222   8.800   2.182 -0.0658 -1.1374 -0.5176
32477SOL     OW  928   2.590   0.889   4.893 -0.0979  0.1182  0.0765
32477SOL    HW1  929   2.556   0.965   4.846  0.8365  1.4579  1.5014
32477SOL    HW2  930   2.539   0.815   4.859 -1.0847  1.3797 -1.2760
32478SOL     OW  931   3.439   2.073   5.690  0.1080 -0.2053 -0.2253
32478SOL    HW1  932   3.507   2.139   5.700 -0.4007  0.1951  0.6928
32478SOL    HW2  933   3.483   1.999   5.648  1.0550  0.1298  0.1572
32479SOL     OW  934   6.259   4.273   7.307  0.7107  0.5104 -0.3985
32479SOL    HW1  935   6.188   4.336   7.307  1.2851  1.1777 -0.5989
32479SOL    HW2  936   6.330   4.317   7.260  1.0074 -0.4237 -0.8534
32480SOL     OW  937   5.174   0.354   8.034 -0.1108 -0.2026  0.0680
32480SOL    HW1  938   5.200   0.439   7.999  0.0428 -0.8837 -1.5825
32480SOL    HW2  939   5.224   0.344   8.115 -0.2659  1.3360  0.3700
32481SOL     OW  940   9.572   5.672   2.106 -0.5665 -0.5162 -0.4518
32481SOL    HW1  941   9.484   5.664   2.070 -0.6364 -0.0116 -0.4035
32481SOL    HW2  942   9.560   5.719   2.189 -0.4083 -1.6750  0.2429
32482SOL     OW  943   0.318   0.751   6.556 -0.6503 -0.1003  0.3975
32482SOL    HW1  944   0.355   0.804   6.486 -0.9581  0.9241  0.9925
32482SOL    HW2  945   0.235   0.793   6.577 -0.3993 -0.1820  1.6175
32483SOL     OW  946   4.449   7.877   7.462 -0.5862  0.1372 -0.0182
32483SOL    HW1  947   4.495   7.868   7.378  0.6959 -1.9142  0.8129
32483SOL    HW2  948   4.438   7.972   7.473  0.2447  0.5151 -1.9559
32484SOL     OW  949   2.470   9.536   7.051  0.7138 -0.1358 -0.0121
32484SOL    HW1  950   2.405   9.539   6.981  1.6671  1.9571 -0.9069
32484SOL    HW2  951   2.461   9.449   7.089 -3.2833  0.3791  0.6303
32485SOL     OW  952   8.507   0.295   5.891 -0.2486 -0.0140  0.3893
32485SOL    HW1  953   8.516   0.390   5.880 -0.7963 -0.0551 -0.4089
32485SOL    HW2  954   8.501   0.260   5.802  2.0923 -1.0326  0.5443
32486SOL     OW  955   9.669   5.594   0.318 -0.6314 -0.1777  0.4514
32486SOL    HW1  956   9.762   5.616   0.320 -0.7476  0.5580 -1.0604
32486SOL    HW2  957   9.666   5.499   0.325  0.2468 -0.2214  0.3129
32487SOL     OW  958   5.125   3.088   4.203 -0.2174 -0.3438  0.0997
32487SOL    HW1  959   5.217   3.090   4.176 -0.4183  0.5389 -0.6008
32487SOL    HW2  960   5.105   2.996   4.215  0.8113 -0.5332  0.4338
32488SOL     OW  961   9.241   2.778   9.279  0.7035  0.6080 -0.4007
32488SOL    HW1  962   9.218   2.728   9.358  1.3419  2.3088  0.9140
32488SOL    HW2  963   9.192   2.860   9.287  1.0643  0.9542 -1.6000
32489SOL     OW  964   5.328   9.115   3.305  0.3401  0.1582  0.9383
32489SOL    HW1  965   5.370   9.151   3.383 -1.7030 -0.5816  2.4578
32489SOL    HW2  966   5.239   9.094   3.333 -0.5686  0.1591 -1.6931
32490SOL     OW  967   9.790   7.120   7.640  0.2467 -0.4973 -0.1250
32490SOL    HW1  968   9.884   7.132   7.634  0.0921  1.9871  1.0210
32490SOL    HW2  969   9.760   7.111   7.550  1.4301 -0.0119 -0.5730
32491SOL     OW  970   6.835   1.307   8.233 -0.1546  0.2303 -0.0851
32491SOL    HW1  971   6.924   1.327   8.205  0.2406 -0.5283  0.5968
32491SOL    HW2  972   6.825   1.213   8.217 -1.1092  0.4482 -0.8851
32492SOL     OW  973   6.039  10.892   2.342  0.0298 -0.0239 -0.1972
32492SOL    HW1  974   6.095  10.828   2.298  0.5215 -0.0675  0.4659
32492SOL    HW2  975   6.028  10.963   2.278  0.0718 -0.4402 -0.6721
32493SOL     OW  976  10.082   4.115   0.292  0.1048 -0.0594  0.0435
32493SOL    HW1  977  10.159   4.133   0.239  0.9569  1.0881  1.5936
32493SOL    HW2  978  10.064   4.022   0.278  0.8727 -0.0004 -1.4761
32494SOL     OW  979   9.399   0.801   6.156  0.5019 -0.1571  0.7305
32494SOL    HW1  980   9.380   0.739   6.226  1.0568 -0.0163  1.0080
32494SOL    HW2  981   9.352   0.766   6.080  0.0447 -0.4067  1.1211
32495SOL     OW  982   0.322  10.074   5.292  0.0066  0.1696 -0.3920
32495SOL    HW1  983   0.275  10.008   5.241  0.9766  0.1292 -1.2740
32495SOL    HW2  984   0.255  10.134   5.322 -0.6586 -0.1354 -1.2351
32496SOL     OW  985   9.889   0.138   1.774  0.2234  0.4828  0.1697
32496SOL    HW1  986   9.814   0.148   1.832  0.3340  1.0201  0.2202
32496SOL    HW2  987   9.854   0.093   1.697  0.4920 -2.3126  1.5259
32497SOL     OW  988  10.483   9.339   7.124 -0.3947 -0.3129  0.0074
32497SOL    HW1  989  10.454   9.267   7.067 -1.0766  1.3535 -1.8419
32497SOL    HW2  990  10.571   9.313   7.151  0.3420 -0.7846 -2.5779
32498SOL     OW  991   8.549   9.676   2.152  1.1045  0.5524  0.1385
32498SOL    HW1  992   8.587   9.763   2.142  0.1802  0.9373 -0.1634
32498SOL    HW2  993   8.526   9.649   2.063  0.0195  0.6513  0.3663
32499SOL     OW  994   5.652   8.343   5.662  0.1504 -0.1535  0.4073
32499SOL    HW1  995   5.575   8.318   5.610 -0.0777 -0.6556  0.9650
32499SOL    HW2  996   5.709   8.387   5.600 -0.4298 -0.0972 -0.1052
32500SOL     OW  997   1.812   0.655   0.405  0.1378  0.4475  0.4666
32500SOL    HW1  998   1.803   0.560   0.417  0.9134  0.5433  1.9593
32500SOL    HW2  999   1.762   0.694   0.477 -0.5897  1.1956 -0.4196
32501SOL     OW 1000   0.276  10.582   6.794 -0.0020  0.1828  0.0054
32501SOL    HW1 1001   0.213  10.613   6.729 -1.2272 -0.9428  0.6141
32501SOL    HW2 1002   0.237  10.501   6.829  1.9213 -0.6998  0.2023
32502SOL     OW 1003   8.225  10.175  10.205 -0.1830 -0.0889 -0.3295
32502SOL    HW1 1004   8.165  10.118  10.254  0.9725 -0.6875  0.4550
32502SOL    HW2 1005   8.252  10.122  10.130  0.7459 -0.5369  0.2989
32503SOL     OW 1006   2.914   2.799   0.080  0.3190  0.3349  0.4494
32503SOL    HW1 1007   2.826   2.765   0.062  0.9452 -1.2037  0.2299
32503SOL    HW2 1008   2.967   2.722   0.099  2.1973  0.9909 -1.7672
32504SOL     OW 1009  10.504   4.699  10.872 -0.4781 -0.1184 -0.4333
32504SOL    HW1 1010  10.491   4.769  10.809  0.8150 -1.4385 -2.2673
32504SOL    HW2 1011  10.485   4.619  10.824  1.9628 -1.2769  0.3534
32505SOL     OW 1012  10.867   5.453   5.601 -0.1642  0.0326  0.3866
32505SOL    HW1 1013  10.776   5.456   5.571 -0.0161  2.1387 -0.0312
32505SOL    HW2 1014  10.869   5.383   5.666 -1.9815 -0.3193  0.1043
32506SOL     OW 1015   2.413   2.179   9.061  0.4382  0.0039  0.1697
32506SOL    HW1 1016   2.456   2.237   8.998 -2.0382  1.5113 -0.2394
32506SOL    HW2 1017   2.484   2.152   9.120  2.1546  1.3999 -1.1335
32507SOL     OW 1018   5.482   6.516   7.393  0.0332  0.2220 -0.1672
32507SOL    HW1 1019   5.531   6.545   7.316  3.0671  0.9693  1.8262
32507SOL    HW2 1020   5.546   6.465   7.443 -1.4865  0.5829  2.2836
32508SOL     OW 1021  10.218   9.578   1.029  0.0370 -0.1810 -0.3599
32508SOL    HW1 1022  10.256   9.493   1.009 -1.1087 -0.3476 -2.0274
32508SOL    HW2 1023  10.127   9.572   0.999  0.1071  1.8401 -1.2034
32509SOL     OW 1024   8.273   2.039   0.695  0.1923 -0.9407 -0.0357
32509SOL    HW1 1025   8.287   2.048   0.790 -0.2619  1.4976 -0.1400
32509SOL    HW2 1026   8.279   2.128   0.662 -1.6447 -1.4954 -2.0415
32510SOL     OW 1027   6.024   9.271   3.121 -0.9326 -0.3191 -0.2233
32510SOL    HW1 1028   6.035   9.323   3.201 -0.3572 -0.9370  0.1094
32510SOL    HW2 1029   5.955   9.208   3.143 -0.1059 -1.1235  0.1301
32511SOL     OW 1030   7.088   0.771   2.786  0.0283  0.0027 -0.3239
32511SOL    HW1 1031   7.051   0.832   2.851  0.5220  1.1929 -1.1294
32511SOL    HW2 1032   7.026   0.698   2.784 -0.4590  0.3573  0.8373
32512SOL     OW 1033   3.456   9.434   2.710 -0.0691  0.1925 -0.0822
32512SOL    HW1 1034   3.539   9.478   2.730  0.3962 -1.1644  1.1753
32512SOL    HW2 1035   3.406   9.439   2.791 -0.7801  0.0470 -0.5037
32513SOL     OW 1036   7.973   0.752   9.807  0.3859  0.5214 -0.3945
32513SOL    HW1 1037   7.880   0.736   9.823  0.3456  1.0751 -0.0622
32513SOL    HW2 1038   7.999   0.681   9.747 -0.4618  0.8976 -1.2398
32514SOL     OW 1039   5.708   9.140   1.901 -0.1161  0.1332  0.0729
32514SOL    HW1 1040   5.799   9.158   1.926  0.1133 -1.2718  0.3555
32514SOL    HW2 1041   5.659   9.215   1.933  0.6864  0.0333  1.6402
32515SOL     OW 1042   3.398   1.598   0.520 -0.4608  0.1935 -0.3696
32515SOL    HW1 1043   3.452   1.676   0.534  1.3867 -1.0862  0.1025
32515SOL    HW2 1044   3.392   1.558   0.607 -2.0173  0.1886 -0.4658
32516SOL     OW 1045   9.627   6.223   9.134  0.3904 -0.3683  0.0325
32516SOL    HW1 1046   9.644   6.129   9.140  0.5628 -0.2714  1.8000
32516SOL    HW2 1047   9.532   6.230   9.123  0.4935 -0.7487 -1.2488
32517SOL     OW 1048   3.410   6.024   5.432 -0.6246 -0.5486  0.4151
32517SOL    HW1 1049   3.391   5.951   5.372  0.2277 -1.2113  0.9285
32517SOL    HW2 1050   3.463   6.084   5.380 -0.8489 -0.5700  0.1598
32518SOL     OW 1051   1.002   5.653   7.065 -0.3070  0.2550 -0.9257
32518SOL    HW1 1052   1.046   5.630   6.984  1.7234 -1.6619  0.6022
32518SOL    HW2 1053   0.946   5.578   7.084 -0.6750  0.6318 -0.4788
32519SOL     OW 1054   9.351   2.870   7.065  0.2712 -0.4019  0.2465
32519SOL    HW1 1055   9.282   2.935   7.047  3.5192  3.8270  1.5141
32519SOL    HW2 1056   9.338   2.847   7.157  0.2060 -0.0161  0.3375
32520SOL     OW 1057   8.135   1.093   7.195  0.1394 -0.5804 -0.3849
32520SOL    HW1 1058   8.078   1.078   7.119  2.5491 -0.4668 -2.3503
32520SOL    HW2 1059   8.158   1.186   7.190  1.4039 -0.8772 -0.3479
32521SOL     OW 1060  10.244   9.693   9.448  0.1456 -0.3149 -0.2644
32521SOL    HW1 1061  10.273   9.744   9.524  0.8780 -0.5998 -0.3438
32521SOL    HW2 1062  10.201   9.757   9.391 -4.7108 -0.7736  2.3840
32522SOL     OW 1063   0.282   5.193   9.278 -0.4863  0.0732 -0.1427
32522SOL    HW1 1064   0.278   5.249   9.355 -0.7571  0.1719 -0.2290
32522SOL    HW2 1065   0.371   5.156   9.280 -0.5063  0.0446  0.2336
32523SOL     OW 1066   5.649   7.202   5.980 -0.5525 -0.1054 -0.1448
32523SOL    HW1 1067   5.625   7.230   6.068  0.8028  0.8925 -0.0578
32523SOL    HW2 1068   5.595   7.125   5.963 -0.5390 -0.5621  1.7164
32524SOL     OW 1069   7.946   0.258  10.008  0.2695 -0.3112 -0.1899
32524SOL    HW1 1070   8.017   0.262   9.945  1.3452  0.0485  0.9919
32524SOL    HW2 1071   7.934   0.348  10.037 -0.1169 -0.4844  0.2160
32525SOL     OW 1072   5.283   8.090   8.336  0.4353  0.3294 -0.0154
32525SOL    HW1 1073   5.339   8.166   8.322 -1.2648  1.4085 -1.3917
32525SOL    HW2 1074   5.327   8.019   8.290  0.8667  1.0778 -0.7987
32526SOL     OW 1075   3.120   1.867   3.530  0.8064 -0.6797 -0.1662
32526SOL    HW1 1076   3.213   1.845   3.521  1.0492 -0.0812  0.6835
32526SOL    HW2 1077   3.106   1.874   3.625 -0.3889 -1.8763 -0.2333
32527SOL     OW 1078   3.531   8.941   8.904 -0.3779  0.2545  0.0219
32527SOL    HW1 1079   3.626   8.938   8.899 -0.3419  2.2242 -1.8310
32527SOL    HW2 1080   3.501   8.891   8.828 -1.0061 -2.8800  2.1255
32528SOL     OW 1081   8.321   9.163   0.215 -0.3199  0.4402  0.1375
32528SOL    HW1 1082   8.262   9.133   0.284 -0.4631  1.2955  0.3990
32528SOL    HW2 1083   8.374   9.230   0.257  0.9923 -0.4576 -0.0365
32529SOL     OW 1084   5.104   9.315   9.552 -0.1070  0.2821 -0.5349
32529SOL    HW1 1085   5.047   9.386   9.581 -0.4194  0.1486 -0.8140
32529SOL    HW2 1086   5.048   9.260   9.497  0.4312  0.4442 -1.2615
32530SOL     OW 1087   4.449   5.321   3.833 -0.3540 -0.4110 -0.2327
32530SOL    HW1 1088   4.396   5.278   3.901  0.3951  0.5722  1.0270
32530SOL    HW2 1089   4.514   5.255   3.809 -0.3061 -0.5994  0.3865
32531SOL     OW 1090   3.527   2.412   9.925 -0.0068 -0.0003 -0.1427
32531SOL    HW1 1091   3.595   2.420   9.859  1.1801  0.6826  1.0976
32531SOL    HW2 1092   3.549   2.478   9.991 -2.6881  1.2489 -0.3488
32532SOL     OW 1093   2.772   1.814   5.481  0.1262 -0.0696 -0.2519
32532SOL    HW1 1094   2.809   1.758   5.412  0.9737 -0.6330  0.6269
32532SOL    HW2 1095   2.800   1.902   5.458  1.1487 -0.3584 -0.1800
32533SOL     OW 1096   1.376   3.701  10.770 -0.5870  0.4796  0.7741
32533SOL    HW1 1097   1.435   3.674  10.700 -1.7561 -0.2915  0.0351
32533SOL    HW2 1098   1.293   3.658  10.749 -1.4044  1.4817  1.7961
32534SOL     OW 1099   2.041   6.485   7.809 -0.5397 -0.2987  0.0803
32534SOL    HW1 1100   2.044   6.395   7.843  0.4916 -0.0225  0.7777
32534SOL    HW2 1101   2.009   6.476   7.719 -1.6224 -1.2349  0.5361
32535SOL     OW 1102   0.720  10.845   4.534 -0.1228  0.0200 -0.0575
32535SOL    HW1 1103   0.725  10.759   4.576 -0.1769  1.0437  2.1563
32535SOL    HW2 1104   0.812  10.872   4.526 -0.1176 -0.1316 -0.5615
32536SOL     OW 1105   9.670   9.366   9.069  0.0370  0.0737 -0.2860
32536SOL    HW1 1106   9.626   9.390   9.151 -0.0174 -1.4660  0.1607
32536SOL    HW2 1107   9.644   9.434   9.007 -1.2187  0.3896  0.5543
32537SOL     OW 1108   1.600   4.706   5.356 -0.9036 -0.0456  0.0844
32537SOL    HW1 1109   1.606   4.665   5.442 -1.5987 -0.4046 -0.0238
32537SOL    HW2 1110   1.509   4.691   5.329 -1.1090  1.3520 -0.0798
32538SOL     OW 1111   9.016   8.131   6.904 -0.3894 -0.1705  0.1061
32538SOL    HW1 1112   8.986   8.190   6.835 -2.1518  1.6132  2.2161
32538SOL    HW2 1113   8.980   8.046   6.881 -1.6707  0.5683 -0.7458
32539SOL     OW 1114   9.709   5.822  10.264 -0.1147  0.0203  0.2113
32539SOL    HW1 1115   9.757   5.779  10.334 -0.4640 -0.7770 -0.0292
32539SOL    HW2 1116   9.620   5.787  10.271  0.3099 -1.6791 -1.9160
32540SOL     OW 1117   5.169  10.608   6.503 -0.1700  0.0453 -0.2336
32540SOL    HW1 1118   5.209  10.529   6.466  0.2587 -0.1829  0.6983
32540SOL    HW2 1119   5.216  10.680   6.463 -1.1324 -0.1189 -1.7579
32541SOL     OW 1120   1.370  10.433   3.112  0.6480  0.3110 -0.3839
32541SOL    HW1 1121   1.433  10.506   3.106  0.7615  0.2115 -0.4063
32541SOL    HW2 1122   1.291  10.473   3.149  0.1754  0.7869 -1.8432
32542SOL     OW 1123   5.235   2.576   7.483 -0.3485 -0.1324  0.1948
32542SOL    HW1 1124   5.221   2.614   7.569  0.1079 -0.1157  0.2618
32542SOL    HW2 1125   5.165   2.511   7.474 -1.4684  1.0844 -0.1455
32543SOL     OW 1126   7.369   3.741   9.608 -0.7877  0.4609 -0.3973
32543SOL    HW1 1127   7.372   3.688   9.688 -0.6186 -2.3947 -2.1324
32543SOL    HW2 1128   7.290   3.794   9.617 -1.2872 -0.4844  1.2766
32544SOL     OW 1129   8.577  10.262   9.384  0.0337  0.4806 -0.7566
32544SOL    HW1 1130   8.524  10.202   9.333  0.5388 -0.0434 -0.6684
32544SOL    HW2 1131   8.515  10.328   9.416 -0.6255 -0.2975 -0.3971
32545SOL     OW 1132   1.676   9.600   3.625  0.5653 -0.1234 -0.5049
32545SOL    HW1 1133   1.636   9.675   3.581 -1.0874 -0.4695  0.3278
32545SOL    HW2 1134   1.678   9.624   3.717  2.6109 -0.0154 -0.5249
32546SOL     OW 1135   3.302   5.871   3.993  0.2906 -0.2024 -0.1082
32546SOL    HW1 1136   3.374   5.922   3.955  0.9829  0.7387  2.2270
32546SOL    HW2 1137   3.345   5.812   4.055 -0.6931 -2.2144 -1.2732
32547SOL     OW 1138   0.210   1.602   9.028 -0.3498 -0.5034 -0.0315
32547SOL    HW1 1139   0.238   1.542   9.097  0.2478 -0.8608 -0.5642
32547SOL    HW2 1140   0.210   1.548   8.948 -1.0289 -0.1040 -0.3127
32548SOL     OW 1141   4.702   4.405   7.438  0.0110 -0.3917 -0.1659
32548SOL    HW1 1142   4.688   4.382   7.346  0.4002 -0.4227 -0.2189
32548SOL    HW2 1143   4.615   4.397   7.477 -0.1857 -0.2431 -0.5592
32549SOL     OW 1144   0.863   7.622   9.722  0.1386 -0.6587  0.3964
32549SOL    HW1 1145   0.931   7.597   9.785  0.5801  0.0269  0.1980
32549SOL    HW2 1146   0.872   7.558   9.652  0.5674 -0.5865  0.3816
32550SOL     OW 1147   2.944   6.350   2.404 -0.6741 -0.0701  0.4141
32550SOL    HW1 1148   3.020   6.394   2.442 -0.2541 -0.0494 -0.4317
32550SOL    HW2 1149   2.911   6.410   2.338  1.0105 -1.6846 -2.0836
32551SOL     OW 1150   4.768   3.323   4.933 -0.1051 -0.2699  0.4970
32551SOL    HW1 1151   4.853   3.321   4.889  0.1856  0.9179  0.9528
32551SOL    HW2 1152   4.721   3.395   4.891 -0.5806 -0.4080  0.7897
32552SOL     OW 1153   6.479   7.391   4.107 -0.0809  0.3540 -0.6048
32552SOL    HW1 1154   6.550   7.436   4.153 -0.1080  0.5857 -0.7861
32552SOL    HW2 1155   6.409   7.455   4.101  0.3153  0.7174 -1.9127
32553SOL     OW 1156   2.461   8.727  10.997  0.2362  0.1112 -0.5338
32553SOL    HW1 1157   2.550   8.695  11.013 -0.1944 -0.9820 -0.2391
32553SOL    HW2 1158   2.456   8.740  10.903  0.4617 -0.5793 -0.6407
32554SOL     OW 1159   3.981   3.721  10.370 -1.1556  0.3851 -0.2431
32554SOL    HW1 1160   4.023   3.748  10.452 -2.6839  0.9224  0.3912
32554SOL    HW2 1161   3.934   3.641  10.392  0.8165 -1.1520 -1.3593
32555SOL     OW 1162   3.289   7.487   2.154 -0.1844  0.3272  0.0691
32555SOL    HW1 1163   3.284   7.569   2.104 -1.0401  0.1492 -0.1610
32555SOL    HW2 1164   3.245   7.423   2.099  1.0728 -0.4575 -0.0559
32556SOL     OW 1165   4.285   0.963   4.053  0.3024 -0.0383 -0.6628
32556SOL    HW1 1166   4.253   1.042   4.009  0.0915 -0.1040 -0.6265
32556SOL    HW2 1167   4.210   0.903   4.053  0.0266  0.2807  0.5621
32557SOL     OW 1168   4.477  10.156   6.349  0.0883 -0.4439 -0.4791
32557SOL    HW1 1169   4.494  10.128   6.439  0.5718 -0.8483 -0.6892
32557SOL    HW2 1170   4.509  10.083   6.295 -0.8890 -0.5343 -0.9527
32558SOL     OW 1171   1.646   5.169   1.279 -0.1696  0.1548 -0.6390
32558SOL    HW1 1172   1.725   5.127   1.314 -0.9855  0.0131  1.1441
32558SOL    HW2 1173   1.595   5.098   1.242  0.3521  0.2050 -1.5080
32559SOL     OW 1174   9.258   7.650   0.825  0.3148 -0.0971 -0.4494
32559SOL    HW1 1175   9.312   7.571   0.821 -2.4762 -2.2466  1.0845
32559SOL    HW2 1176   9.218   7.648   0.912 -0.8527  2.3245 -0.8482
32560SOL     OW 1177   0.415   5.525   8.136 -0.2677 -0.3569  0.0089
32560SOL    HW1 1178   0.351   5.514   8.207 -0.6878  2.2583  0.1350
32560SOL    HW2 1179   0.483   5.580   8.174  1.3677 -1.8461 -0.6085
32561SOL     OW 1180   5.454   9.554   0.802 -0.0042  0.1032 -0.3753
32561SOL    HW1 1181   5.393   9.621   0.770 -0.2632 -0.3190 -0.7739
32561SOL    HW2 1182   5.418   9.471   0.770  0.4016 -0.2162 -0.0211
32562SOL     OW 1183   0.811   7.433   2.406 -0.0677  0.1578 -0.1601
32562SOL    HW1 1184   0.847   7.345   2.414 -0.2103  0.1373  0.2669
32562SOL    HW2 1185   0.719   7.424   2.430  0.1986  0.6376  1.0920
32563SOL     OW 1186   2.203   0.288   4.055 -0.3181  0.1867 -0.0466
32563SOL    HW1 1187   2.222   0.252   4.141  0.1132  0.6280  0.0484
32563SOL    HW2 1188   2.120   0.333   4.066  0.7542  2.0771  0.7118
32564SOL     OW 1189   6.837   7.758   5.190  0.0377 -0.1782  0.3074
32564SOL    HW1 1190   6.920   7.721   5.160 -0.8296 -0.5496 -1.7535
32564SOL    HW2 1191   6.847   7.852   5.177 -0.8908 -0.4242 -2.9053
32565SOL     OW 1192   4.804   8.169   7.046  0.3674 -0.1722  0.5357
32565SOL    HW1 1193   4.735   8.226   7.081  0.8139 -0.5673  2.1394
32565SOL    HW2 1194   4.850   8.223   6.982 -0.7351  0.4603  0.2505
32566SOL     OW 1195   1.667   1.765  10.028 -0.3048  0.2071 -0.4692
32566SOL    HW1 1196   1.699   1.686  10.071 -1.4244  0.7267  1.4323
32566SOL    HW2 1197   1.716   1.769   9.946  1.0989 -1.4524  0.2283
32567SOL     OW 1198   1.951   2.629   8.287 -0.3654 -0.2621 -0.6791
32567SOL    HW1 1199   1.855   2.620   8.290 -0.5770  1.7606  0.6657
32567SOL    HW2 1200   1.966   2.722   8.274  1.4233 -0.3908  0.1118
32568SOL     OW 1201   1.570   2.214   3.902  0.5040 -0.3887  0.0334
32568SOL    HW1 1202   1.632   2.172   3.962  2.1757  1.3227 -0.3643
32568SOL    HW2 1203   1.612   2.298   3.880 -1.3573  0.2521 -1.3471
32569SOL     OW 1204   8.716   1.243   3.572 -0.2588 -0.5238  0.0048
32569SOL    HW1 1205   8.629   1.282   3.559 -0.7609 -1.7515 -0.4395
32569SOL    HW2 1206   8.700   1.149   3.574  1.2862 -0.8982 -2.0390
32570SOL     OW 1207   1.344   8.824   5.897  0.1018  0.5971 -0.2987
32570SOL    HW1 1208   1.371   8.887   5.831 -1.2033  2.1099  0.5348
32570SOL    HW2 1209   1.386   8.854   5.978  0.0223 -0.0071 -0.0280
32571SOL     OW 1210   7.877   3.874   3.123  0.0937  0.2433  0.0638
32571SOL    HW1 1211   7.816   3.808   3.157 -0.7743  1.4584  0.9956
32571SOL    HW2 1212   7.857   3.879   3.030 -2.1525  1.4612  0.5430
32572SOL     OW 1213   2.571   8.527   3.362  0.3128 -0.5442 -0.3546
32572SOL    HW1 1214   2.594   8.449   3.413 -0.4171 -0.9570 -0.6330
32572SOL    HW2 1215   2.606   8.510   3.275 -1.2922 -1.3388 -0.8796
32573SOL     OW 1216   8.598   1.791   4.460  0.2949 -0.1392 -0.4399
32573SOL    HW1 1217   8.631   1.718   4.409 -2.9301 -1.8277 -0.4170
32573SOL    HW2 1218   8.673   1.822   4.511  2.2109 -2.1892 -1.8680
32574SOL     OW 1219   6.113   3.815   0.889 -0.2486 -0.1460  0.1349
32574SOL    HW1 1220   6.086   3.813   0.980  0.2371 -0.5852  0.2773
32574SOL    HW2 1221   6.149   3.727   0.873  0.1547  0.0938 -0.3225
32575SOL     OW 1222   6.019   8.882   7.295  0.3717  0.4672 -0.8532
32575SOL    HW1 1223   5.973   8.919   7.219 -1.0303 -2.7947 -1.7643
32575SOL    HW2 1224   6.030   8.790   7.273 -0.5928 -0.7784  3.1190
32576SOL     OW 1225   8.118   1.558   3.804  0.0413 -0.7722  0.2405
32576SOL    HW1 1226   8.092   1.606   3.883  0.5051 -0.8993  0.4780
32576SOL    HW2 1227   8.200   1.515   3.829  0.6023 -0.1976 -0.5431
32577SOL     OW 1228   1.670   6.868   6.281 -0.0785 -0.5436  0.5718
32577SOL    HW1 1229   1.747   6.815   6.260  0.4607 -0.2134  1.6334
32577SOL    HW2 1230   1.617   6.867   6.201  2.1361  1.1573 -1.0167
32578SOL     OW 1231   3.673   9.818   2.871  0.2238 -0.2468 -0.2357
32578SOL    HW1 1232   3.670   9.725   2.849  1.9371 -0.1461 -1.0777
32578SOL    HW2 1233   3.749   9.852   2.822 -0.3960  1.6002  0.0048
32579SOL     OW 1234   1.548   1.004   3.362 -0.2675  0.1636 -0.2953
32579SOL    HW1 1235   1.544   0.913   3.335  0.1644  0.1307 -0.2659
32579SOL    HW2 1236   1.458   1.036   3.355 -0.4793 -0.3568  0.0295
32580SOL     OW 1237   4.647   0.696   7.450 -0.1465 -0.1690  0.0834
32580SOL    HW1 1238   4.621   0.638   7.521  0.3487 -0.1891  0.2477
32580SOL    HW2 1239   4.729   0.735   7.479  2.1942 -3.0430 -2.0476
32581SOL     OW 1240   0.184   8.596   7.737  0.2797 -0.8559  0.6976
32581SOL    HW1 1241   0.191   8.512   7.781 -0.2714  0.1372  2.8434
32581SOL    HW2 1242   0.122   8.646   7.791  1.8107  1.4731  0.4522
32582SOL     OW 1243   0.773   2.962   0.570 -0.5112  0.7259  0.1631
32582SOL    HW1 1244   0.835   2.891   0.550 -0.1626  1.1164 -0.1584
32582SOL    HW2 1245   0.813   3.040   0.531 -0.3997  1.2935  1.3598
32583SOL     OW 1246   7.293   7.894  10.996 -0.2136 -0.1084  0.2662
32583SOL    HW1 1247   7.209   7.938  11.008  0.8808  1.9784  0.8103
32583SOL    HW2 1248   7.299   7.834  11.071 -1.5921 -0.9925 -0.2967
32584SOL     OW 1249   8.703   4.546   5.883  0.4797 -0.3639  0.3304
32584SOL    HW1 1250   8.725   4.518   5.971  1.9246  0.8341  0.3855
32584SOL    HW2 1251   8.693   4.641   5.889 -3.5447 -0.5865  0.0051
32585SOL     OW 1252   7.265   4.574   1.139 -0.5294  0.6122 -0.7262
32585SOL    HW1 1253   7.271   4.496   1.085 -1.5940  0.0677 -0.1044
32585SOL    HW2 1254   7.176   4.606   1.125 -1.6214 -0.7299  2.1771
32586SOL     OW 1255   4.826   3.142   8.210  0.4647  0.6020  0.0790
32586SOL    HW1 1256   4.872   3.058   8.212 -1.0055 -0.2227  0.5133
32586SOL    HW2 1257   4.832   3.171   8.119 -0.3273 -0.7382 -0.4253
32587SOL     OW 1258  10.828   8.801  10.454  0.7999 -0.2463 -0.0170
32587SOL    HW1 1259  10.860   8.882  10.495 -2.0895  0.1407  1.6812
32587SOL    HW2 1260  10.826   8.737  10.525 -0.0606 -0.8831 -0.6013
32588SOL     OW 1261   5.026   9.710   1.337  0.2063  0.1600 -0.3972
32588SOL    HW1 1262   5.025   9.698   1.432 -0.2778 -0.9221 -0.5236
32588SOL    HW2 1263   4.955   9.655   1.304 -0.4147  1.4376 -1.3096
32589SOL     OW 1264   7.224   4.884   4.530  0.0019  0.1902  0.2219
32589SOL    HW1 1265   7.148   4.931   4.565  1.1089  1.2379  1.3152
32589SOL    HW2 1266   7.188   4.800   4.498 -1.6828  0.8994  0.1511
32590SOL     OW 1267   5.656   7.791   8.385  0.6303 -0.0439 -0.4137
32590SOL    HW1 1268   5.637   7.699   8.367 -1.5020  0.2811 -0.0605
32590SOL    HW2 1269   5.733   7.788   8.443  1.6104 -1.4902 -1.7063
32591SOL     OW 1270   5.491   5.476   4.738 -0.8905  0.6320 -0.2866
32591SOL    HW1 1271   5.487   5.495   4.644  0.9260 -1.3032 -0.8355
32591SOL    HW2 1272   5.469   5.382   4.744 -2.2510  1.0053  1.4059
32592SOL     OW 1273   8.841   2.005   8.854 -1.1897 -0.0030  0.3427
32592SOL    HW1 1274   8.905   1.942   8.820 -1.8928  0.7193 -2.6010
32592SOL    HW2 1275   8.890   2.056   8.919  1.5521  0.9301 -2.2190
32593SOL     OW 1276   5.480   5.459   7.078 -0.8480 -0.0720 -0.0756
32593SOL    HW1 1277   5.414   5.523   7.106  0.4765  0.6855  1.4881
32593SOL    HW2 1278   5.429   5.383   7.049 -2.4317  1.2042 -0.8068
32594SOL     OW 1279   6.511   8.617   9.720 -0.0957  0.2122 -0.1994
32594SOL    HW1 1280   6.471   8.675   9.656 -0.8816  2.5789  2.2308
32594SOL    HW2 1281   6.437   8.580   9.768  0.4414 -2.1282 -1.0519
32595SOL     OW 1282  10.742   9.856  10.565  0.0196 -0.3147  0.2897
32595SOL    HW1 1283  10.658   9.845  10.519  0.1721 -0.4069  0.0306
32595SOL    HW2 1284  10.730   9.935  10.617 -0.1652 -0.2205  0.1080
32596SOL     OW 1285  10.200   3.887   8.796  0.1232  0.4157 -0.0603
32596SOL    HW1 1286  10.244   3.858   8.876 -0.9531 -1.1465  0.0098
32596SOL    HW2 1287  10.161   3.971   8.820 -1.2527 -0.6044  1.5078
32597SOL     OW 1288   6.346   4.909   7.299 -0.3784  0.3596 -0.2249
32597SOL    HW1 1289   6.313   4.855   7.371 -1.0994 -0.5827 -1.2316
32597SOL    HW2 1290   6.268   4.935   7.251  0.1782 -0.4241 -1.6252
32598SOL     OW 1291   3.611   5.974   8.753  0.2634 -0.3169  0.0919
32598SOL    HW1 1292   3.674   5.933   8.693  0.2038  0.5275 -0.5720
32598SOL    HW2 1293   3.658   6.049   8.789  0.6501 -1.3900  1.9239
32599SOL     OW 1294   2.221   9.585   5.802  0.1710  0.1020 -0.1916
32599SOL    HW1 1295   2.238   9.640   5.879 -1.2744 -0.6351  0.7070
32599SOL    HW2 1296   2.206   9.498   5.837 -2.1221  0.0511 -1.0930
32600SOL     OW 1297   7.745   1.308   4.907 -0.3669  0.8125 -0.0373
32600SOL    HW1 1298   7.748   1.396   4.942  0.9168  0.6077  0.4208
32600SOL    HW2 1299   7.769   1.251   4.980 -3.0014 -0.1425  0.2264
32601SOL     OW 1300   2.584   3.291   2.569 -0.4289 -0.1708 -0.1698
32601SOL    HW1 1301   2.539   3.258   2.491  1.2826  0.0331 -1.3090
32601SOL    HW2 1302   2.675   3.261   2.558  0.2836  1.5391  0.7478
32602SOL     OW 1303   1.247   8.300  10.581 -0.2489  0.5847 -0.4134
32602SOL    HW1 1304   1.211   8.388  10.580  0.7263  1.0537  1.1410
32602SOL    HW2 1305   1.338   8.312  10.609 -0.7067 -1.0530  2.1678
32603SOL     OW 1306   0.745   2.982   8.342 -0.1053  0.0339  0.8837
32603SOL    HW1 1307   0.725   3.022   8.257  1.7547 -2.7569 -1.0713
32603SOL    HW2 1308   0.839   2.997   8.354  0.3387 -2.2768  0.7776
32604SOL     OW 1309   0.859   8.263   3.058 -0.1414  0.2840 -0.2802
32604SOL    HW1 1310   0.865   8.321   2.981 -0.4575  1.6180  0.6610
32604SOL    HW2 1311   0.766   8.252   3.072 -0.1409 -2.1374 -1.6039
32605SOL     OW 1312   7.930   3.907   3.452 -0.2027  0.2194 -0.2783
32605SOL    HW1 1313   7.837   3.928   3.440  0.1265  2.7225  0.9626
32605SOL    HW2 1314   7.974   3.952   3.380  0.2897  1.5014  0.8051
32606SOL     OW 1315   0.487   9.624   3.030 -0.4948 -0.2100  0.1051
32606SOL    HW1 1316   0.534   9.569   2.967  0.6273  1.5875 -0.7019
32606SOL    HW2 1317   0.401   9.636   2.992 -0.6808 -1.1689  0.1794
32607SOL     OW 1318   2.025   1.923   3.082  0.1933  0.0290  0.1261
32607SOL    HW1 1319   2.090   1.968   3.027  0.8361  0.6184  1.3399
32607SOL    HW2 1320   1.951   1.907   3.023  0.0094  2.5215 -0.4354
32608SOL     OW 1321   7.265   5.464   3.944  0.0574 -0.2510  0.1398
32608SOL    HW1 1322   7.336   5.528   3.939 -0.1936 -0.0452 -2.2523
32608SOL    HW2 1323   7.193   5.512   3.987  0.7650  0.1175  0.9485
32609SOL     OW 1324   8.791   6.180   8.210  0.4070  0.4233 -0.5262
32609SOL    HW1 1325   8.783   6.134   8.127  0.8164  0.9900 -0.8817
32609SOL    HW2 1326   8.717   6.149   8.262  0.5696 -0.4928 -0.8298
32610SOL     OW 1327   4.505   1.779   3.148  0.1311 -0.0743  0.1309
32610SOL    HW1 1328   4.445   1.763   3.220  0.1879 -1.8029 -0.1590
32610SOL    HW2 1329   4.592   1.764   3.184  0.2962  0.8790  0.1538
32611SOL     OW 1330   1.103   6.812   8.908  0.2337 -0.4852 -0.1284
32611SOL    HW1 1331   1.094   6.869   8.832  0.3092 -0.1013  0.1467
32611SOL    HW2 1332   1.020   6.821   8.954  0.4355 -0.1943  0.1856
32612SOL     OW 1333   7.422   2.548   5.904  0.0716  0.2050 -0.6687
32612SOL    HW1 1334   7.375   2.630   5.916  0.0239  0.3928 -1.9872
32612SOL    HW2 1335   7.451   2.550   5.812  2.4315 -0.0027  0.0005
32613SOL     OW 1336   2.941   5.476   5.670  0.1924 -0.1158 -0.0798
32613SOL    HW1 1337   2.986   5.530   5.605  1.5451  0.6461  1.4518
32613SOL    HW2 1338   2.985   5.391   5.664  1.1491  0.3179  0.6838
32614SOL     OW 1339   4.325   8.295  10.643  0.0252  0.4751 -0.1850
32614SOL    HW1 1340   4.295   8.217  10.690 -0.5177  1.2655  0.8263
32614SOL    HW2 1341   4.252   8.318  10.585  0.1216  0.3112 -0.3683
32615SOL     OW 1342  11.005   3.134   6.820 -0.3057 -1.2535 -0.0016
32615SOL    HW1 1343  11.036   3.171   6.737 -1.2355  0.6175  0.4500
32615SOL    HW2 1344  11.085   3.100   6.861  1.4928  3.6479  1.2607
32616SOL     OW 1345   8.142   4.189   7.291  0.0583 -0.0468  0.1209
32616SOL    HW1 1346   8.155   4.111   7.345  0.9662  0.2039  0.2800
32616SOL    HW2 1347   8.206   4.180   7.220 -0.0490  0.3991 -0.0352
32617SOL     OW 1348   5.851   6.070   8.445  0.1919  0.7513 -0.3046
32617SOL    HW1 1349   5.927   6.054   8.389  0.2864  1.8398 -0.5181
32617SOL    HW2 1350   5.807   6.144   8.404 -1.1328 -0.0313 -0.3185
32618SOL     OW 1351   8.651   4.840   7.028  0.2276 -0.2096 -0.1000
32618SOL    HW1 1352   8.696   4.786   7.092 -0.7740  1.8526  2.5382
32618SOL    HW2 1353   8.710   4.844   6.953  2.7067 -0.6478  1.7167
32619SOL     OW 1354   5.884   3.194   1.476  0.0970  0.0071 -0.4191
32619SOL    HW1 1355   5.912   3.258   1.411  0.7801  0.3767  0.2241
32619SOL    HW2 1356   5.921   3.225   1.558 -0.6246 -0.5341  0.1283
32620SOL     OW 1357   6.900   4.102  10.092 -0.3745 -0.0131 -0.0864
32620SOL    HW1 1358   6.863   4.066  10.173 -1.4732 -0.0382 -0.5878
32620SOL    HW2 1359   6.844   4.176  10.071 -0.7049 -0.5967 -1.3454
32621SOL     OW 1360   2.613   6.597   8.621 -0.2849  0.1779 -0.2436
32621SOL    HW1 1361   2.574   6.637   8.544  3.0940 -0.3330 -2.4274
32621SOL    HW2 1362   2.599   6.662   8.691 -0.5520  2.2194 -2.0941
32622SOL     OW 1363   2.965   9.436   6.343 -0.6093 -0.6774  0.7111
32622SOL    HW1 1364   2.956   9.376   6.417 -1.3772 -2.2241 -0.5595
32622SOL    HW2 1365   2.988   9.379   6.269 -0.0039  0.7945 -0.2851
32623SOL     OW 1366   7.700   0.439   5.053  0.4123  0.1163 -0.1539
32623SOL    HW1 1367   7.624   0.416   5.105 -0.0393  0.8517 -0.4794
32623SOL    HW2 1368   7.681   0.405   4.965 -0.1718  1.5211 -0.5881
32624SOL     OW 1369  10.429   9.108   4.654 -0.5228  0.2910 -0.1560
32624SOL    HW1 1370  10.378   9.189   4.646 -0.2412  0.2900 -2.9659
32624SOL    HW2 1371  10.497   9.115   4.587 -0.5098 -2.2853 -0.5222
32625SOL     OW 1372   4.408   6.945   9.866 -0.1412  0.0480  0.4563
32625SOL    HW1 1373   4.355   6.914   9.793 -0.7079  0.4241  0.7026
32625SOL    HW2 1374   4.496   6.956   9.829 -0.1089 -1.0646  0.1717
32626SOL     OW 1375   4.523   7.003   0.555 -0.6144 -0.4665  0.0561
32626SOL    HW1 1376   4.541   6.935   0.490  0.8620 -0.2362  0.1880
32626SOL    HW2 1377   4.468   7.067   0.510  0.9114  0.0233 -1.2044
32627SOL     OW 1378   4.616   5.721   5.373  0.0457 -0.4020 -0.3216
32627SOL    HW1 1379   4.666   5.794   5.410 -0.4976  0.7340 -1.7438
32627SOL    HW2 1380   4.616   5.737   5.279  1.2406 -3.1132 -0.8794
32628SOL     OW 1381   7.604  10.379   7.416 -0.5663  0.2296 -0.3520
32628SOL    HW1 1382   7.691  10.356   7.385 -0.9273  0.1736 -1.3530
32628SOL    HW2 1383   7.611  10.376   7.511  0.7497  1.0636 -0.3967
32629SOL     OW 1384   1.266   1.180   9.301  0.0284  0.3688 -0.7900
32629SOL    HW1 1385   1.253   1.269   9.333 -1.4513  0.1243 -0.6712
32629SOL    HW2 1386   1.215   1.125   9.360  0.6769 -0.5409 -1.0491
32630SOL     OW 1387   2.266   7.708   3.897  0.3522 -0.1030  0.2522
32630SOL    HW1 1388   2.358   7.704   3.870  0.7196  0.9442  1.2769
32630SOL    HW2 1389   2.250   7.625   3.940  0.3445 -0.9470 -1.2881
32631SOL     OW 1390   6.826   1.128  10.207  0.6471 -0.4373 -0.7764
32631SOL    HW1 1391   6.914   1.108  10.237  0.5677  1.1609  0.5993
32631SOL    HW2 1392   6.833   1.215  10.167 -0.5665  0.3701  0.6907
32632SOL     OW 1393   4.241   6.438   9.811 -0.2168 -0.1035  0.2163
32632SOL    HW1 1394   4.180   6.383   9.859 -2.1916 -1.2437 -3.2287
32632SOL    HW2 1395   4.274   6.382   9.741  1.5768  1.7333 -0.5043
32633SOL     OW 1396   3.880  10.117   0.543  0.3323 -0.4935  0.2948
32633SOL    HW1 1397   3.787  10.104   0.529  0.3965  0.4646 -1.2976
32633SOL    HW2 1398   3.900  10.068   0.623 -0.8561 -3.5934 -1.1325
32634SOL     OW 1399   4.377   0.069  10.903  0.1057  0.6816 -0.3435
32634SOL    HW1 1400   4.468   0.067  10.874 -0.0155  1.8788 -0.8438
32634SOL    HW2 1401   4.332   0.008  10.843  0.5767  0.0182 -0.0372
32635SOL     OW 1402   6.155   9.610  10.045  0.2652  0.0555 -0.0303
32635SOL    HW1 1403   6.201   9.553   9.983  0.3902 -0.2849  0.3683
32635SOL    HW2 1404   6.066   9.576  10.048 -0.5296  1.7539 -2.0968
32636SOL     OW 1405   0.470   6.232  10.992 -0.3066 -0.0235  0.0769
32636SOL    HW1 1406   0.391   6.241  10.939 -0.0401 -0.1989 -0.3529
32636SOL    HW2 1407   0.542   6.252  10.932 -0.0926  1.7616  0.8504
32637SOL     OW 1408   1.209   2.497   1.512 -0.4950  0.0897 -0.4151
32637SOL    HW1 1409   1.292   2.543   1.502 -0.1285 -0.5974 -0.5538
32637SOL    HW2 1410   1.210   2.430   1.443 -0.4628 -0.9513  0.5687
32638SOL     OW 1411   5.917   8.458   1.081 -0.1158 -0.4563 -0.0296
32638SOL    HW1 1412   5.939   8.549   1.062 -0.8918  0.0916  1.4878
32638SOL    HW2 1413   5.930   8.412   0.999 -0.9279  1.2575 -1.1789
32639SOL     OW 1414   5.982   9.213   8.089 -0.1339  0.3961  0.2938
32639SOL    HW1 1415   6.043   9.175   8.027 -0.9114  0.7109 -0.6868
32639SOL    HW2 1416   5.982   9.153   8.164 -1.0101 -1.3223 -1.0193
32640SOL     OW 1417   1.690   4.367   9.502 -0.1789 -0.7586  0.0725
32640SOL    HW1 1418   1.742   4.292   9.530  1.5116  0.9584  1.8247
32640SOL    HW2 1419   1.712   4.379   9.410  0.9433 -1.3174  0.2514
32641SOL     OW 1420   2.848   2.929   6.136  0.3067 -0.2844 -0.2875
32641SOL    HW1 1421   2.934   2.909   6.172 -0.3104 -1.2298  0.7123
32641SOL    HW2 1422   2.823   3.012   6.177  1.9888  1.7060 -2.8932
32642SOL     OW 1423   0.908   6.415   2.757 -0.2254  0.0623  0.7124
32642SOL    HW1 1424   0.829   6.457   2.723  1.4818  0.2747 -3.6246
32642SOL    HW2 1425   0.875   6.339   2.806 -3.0979  0.8475  0.2287
32643SOL     OW 1426  10.949   3.766   0.417 -0.2188 -0.5056 -0.2624
32643SOL    HW1 1427  10.907   3.694   0.369  0.7123  0.0166 -1.9491
32643SOL    HW2 1428  11.009   3.805   0.353  1.6071 -0.1954  1.5579
32644SOL     OW 1429   0.662   3.112   1.654 -1.0079 -0.5170 -0.0653
32644SOL    HW1 1430   0.669   3.202   1.686  0.0333 -0.2060 -1.1064
32644SOL    HW2 1431   0.684   3.118   1.561 -0.9727 -1.8444 -0.1573
32645SOL     OW 1432   0.199   5.068   2.967  0.4894  0.4341  0.3672
32645SOL    HW1 1433   0.201   5.003   2.897  2.9122  0.9172 -0.0982
32645SOL    HW2 1434   0.263   5.035   3.031  1.8537  2.3679  0.0685
32646SOL     OW 1435   2.632   6.998   0.198  0.0614 -0.1154 -0.2042
32646SOL    HW1 1436   2.699   7.034   0.140  1.0407  0.4073  1.2238
32646SOL    HW2 1437   2.589   7.074   0.236  0.3018 -0.4458  0.7481
32647SOL     OW 1438   8.997   8.957   2.725  0.3104  0.6263  0.0675
32647SOL    HW1 1439   9.034   9.012   2.794 -0.2454  1.1135 -0.0111
32647SOL    HW2 1440   8.953   9.019   2.666  0.4172  0.1753 -0.4899
32648SOL     OW 1441   2.269   2.436   9.052 -0.0471  0.2495 -0.2146
32648SOL    HW1 1442   2.271   2.341   9.062 -1.1026  0.0261 -1.7364
32648SOL    HW2 1443   2.181   2.461   9.079  0.3921  0.8756  0.6718
32649SOL     OW 1444   7.599  10.952   8.769 -0.4313  0.0578 -0.3181
32649SOL    HW1 1445   7.547  10.915   8.840 -1.0827  0.3592 -0.6326
32649SOL    HW2 1446   7.663  10.884   8.748 -1.0710 -0.5519 -0.3223
32650SOL     OW 1447   3.381   4.051   8.802 -0.2216 -0.1226  0.0915
32650SOL    HW1 1448   3.410   4.129   8.850  0.2858  0.2416 -0.7725
32650SOL    HW2 1449   3.291   4.071   8.776 -1.2565 -1.1543  2.5761
32651SOL     OW 1450   3.031   8.127   6.521 -0.1483  0.3602  0.2871
32651SOL    HW1 1451   3.074   8.059   6.471  0.3257  1.2185 -0.5012
32651SOL    HW2 1452   3.054   8.108   6.612 -0.7892 -1.0508  0.1820
32652SOL     OW 1453   0.433   0.309   3.274  0.1996 -0.5272 -0.6553
32652SOL    HW1 1454   0.490   0.232   3.274  0.4336 -0.3546 -0.0307
32652SOL    HW2 1455   0.452   0.353   3.357 -1.1031 -0.6593 -0.2762
32653SOL     OW 1456   9.142   1.146   6.142  0.1784 -0.2339 -0.4805
32653SOL    HW1 1457   9.201   1.119   6.072  1.7800 -0.7036  0.9689
32653SOL    HW2 1458   9.099   1.224   6.109  2.0366  0.4599 -1.4101
32654SOL     OW 1459   9.929   0.759   4.929 -0.5256 -0.4040  0.7665
32654SOL    HW1 1460  10.009   0.810   4.940 -0.5687 -0.0713 -0.3050
32654SOL    HW2 1461   9.859   0.822   4.938 -0.5528  0.7003 -4.2356
32655SOL     OW 1462   6.545   5.686   5.396  0.1795  0.6828  0.6543
32655SOL    HW1 1463   6.586   5.602   5.373 -1.3417  0.5527 -2.0883
32655SOL    HW2 1464   6.614   5.736   5.439  1.7835 -1.1633  0.3899
32656SOL     OW 1465   2.889  10.306   2.648  0.0191 -0.1307 -0.5708
32656SOL    HW1 1466   2.948  10.258   2.589 -0.3978  1.1752 -2.1158
32656SOL    HW2 1467   2.912  10.398   2.636 -0.4185  0.2116  0.9716
32657SOL     OW 1468   8.465   9.829   2.424  0.0197  0.1987 -0.4152
32657SOL    HW1 1469   8.395   9.785   2.375 -0.5506  1.4099 -0.7359
32657SOL    HW2 1470   8.531   9.848   2.358  1.3650 -2.2000  0.1243
32658SOL     OW 1471   6.614   3.819   2.805  0.4103  0.2930 -0.3607
32658SOL    HW1 1472   6.537   3.873   2.789 -0.7514 -0.8548  1.1017
32658SOL    HW2 1473   6.630   3.775   2.721  1.1355  2.4887 -1.4581
32659SOL     OW 1474   0.589   3.485   8.216  0.3112 -0.2723  0.2948
32659SOL    HW1 1475   0.627   3.571   8.195  1.8114 -1.3393 -1.7836
32659SOL    HW2 1476   0.511   3.480   8.161 -0.2309  0.0693  1.0270
32660SOL     OW 1477  10.830   9.022   9.938  0.1460  0.2178  0.9319
32660SOL    HW1 1478  10.799   9.096   9.885 -0.8738 -1.5546 -1.1004
32660SOL    HW2 1479  10.769   9.018  10.011  0.4409  1.5815  1.2763
32661SOL     OW 1480   3.153  10.417   0.922  0.6565 -0.1017  0.3617
32661SOL    HW1 1481   3.243  10.430   0.890  0.1572  0.5584 -0.8251
32661SOL    HW2 1482   3.149  10.468   1.003  0.5734  2.2404 -1.0148
32662SOL     OW 1483   9.075   4.434   6.057 -0.3357 -0.1002 -0.1466
32662SOL    HW1 1484   9.130   4.512   6.063  0.6564 -0.8223  0.5212
32662SOL    HW2 1485   9.066   4.419   5.963 -0.1101  0.5272 -0.2774
32663SOL     OW 1486   0.820   6.251   6.826  0.6018  0.0535  0.4827
32663SOL    HW1 1487   0.747   6.285   6.878 -0.3801 -0.4837 -0.4858
32663SOL    HW2 1488   0.833   6.162   6.859  0.1256 -0.2099 -0.0262
32664SOL     OW 1489   2.072   4.241   8.374 -0.0710 -0.0434 -0.1956
32664SOL    HW1 1490   2.045   4.157   8.411 -0.3063 -0.2873 -0.9076
32664SOL    HW2 1491   2.019   4.251   8.295 -2.1388  2.1103  1.3400
32665SOL     OW 1492   2.088  10.716   5.470  0.3383  0.3514 -0.4781
32665SOL    HW1 1493   2.038  10.651   5.519  0.1955  0.7029 -0.1512
32665SOL    HW2 1494   2.025  10.786   5.451  0.0460 -0.3345 -2.2810
32666SOL     OW 1495   9.135   0.905   0.529  0.2264 -0.3808  0.4842
32666SOL    HW1 1496   9.078   0.974   0.495  2.4067  1.2535 -0.0574
32666SOL    HW2 1497   9.075   0.834   0.552 -1.9912  1.1623 -0.1816
32667SOL     OW 1498   2.296   9.604   0.389  0.3125 -0.4068  0.1689
32667SOL    HW1 1499   2.256   9.612   0.475 -1.2158 -2.7886 -0.2316
32667SOL    HW2 1500   2.224   9.615   0.327  1.3560  1.1422 -0.8851
32668SOL     OW 1501   8.033   8.269   2.973 -0.0432  0.1522  0.1364
32668SOL    HW1 1502   8.042   8.341   3.036 -0.8815  0.0092  0.4183
32668SOL    HW2 1503   8.117   8.223   2.978  0.0289  0.3531  0.8822
32669SOL     OW 1504   9.046   7.069  10.338 -0.3856 -0.1342  0.1783
32669SOL    HW1 1505   9.009   7.147  10.296 -2.2388 -0.2154  1.5245
32669SOL    HW2 1506   9.136   7.093  10.359 -0.9756  1.7555  0.7574
32670SOL     OW 1507   2.475   5.919   3.836 -0.0649 -0.1745 -0.3715
32670SOL    HW1 1508   2.555   5.868   3.854 -0.1165 -0.4196 -0.8235
32670SOL    HW2 1509   2.487   6.000   3.885 -0.3517 -0.9531  1.0667
32671SOL     OW 1510   3.412   0.919   1.462  0.5015  0.8802  0.2683
32671SOL    HW1 1511   3.372   0.832   1.466  0.3347  0.8309 -1.6234
32671SOL    HW2 1512   3.498   0.904   1.422  1.0107  1.4376  1.1156
32672SOL     OW 1513   8.022  10.135   2.402 -0.8574 -0.0782 -0.2334
32672SOL    HW1 1514   8.106  10.091   2.420  0.8008  2.5496 -0.9910
32672SOL    HW2 1515   7.956  10.069   2.425  1.3326 -1.8004  1.7738
32673SOL     OW 1516   3.157   1.066   9.649  0.3633  0.2379  0.3002
32673SOL    HW1 1517   3.146   1.109   9.564  0.9062  1.4973  0.8374
32673SOL    HW2 1518   3.244   1.026   9.645  0.2099 -0.0746  0.1052
32674SOL     OW 1519   0.714  10.395  10.511  0.0189  0.2258 -0.7062
32674SOL    HW1 1520   0.625  10.419  10.485 -0.4330 -1.5216 -0.9174
32674SOL    HW2 1521   0.726  10.307  10.475  0.7800 -0.7269  1.7153
32675SOL     OW 1522   0.185   8.838   9.783 -0.2461 -0.5565 -0.2337
32675SOL    HW1 1523   0.206   8.878   9.868  0.6996 -0.0090 -0.7142
32675SOL    HW2 1524   0.094   8.864   9.767 -1.1070 -2.2164  1.4535
32676SOL     OW 1525   3.662   8.464  10.867  0.4819  0.4752 -0.1214
32676SOL    HW1 1526   3.643   8.438  10.777  1.0454  1.3486 -0.5171
32676SOL    HW2 1527   3.602   8.536  10.884  1.5615  1.4863 -0.4459
32677SOL     OW 1528   4.568   3.974   0.235  0.0076  0.0745 -0.0515
32677SOL    HW1 1529   4.483   4.019   0.238 -0.0073  0.0075  0.6920
32677SOL    HW2 1530   4.558   3.911   0.163 -0.2341  0.7172 -0.6051
32678SOL     OW 1531   7.305   6.453   7.292 -0.5388 -0.1029 -0.1875
32678SOL    HW1 1532   7.247   6.414   7.356 -0.7330 -0.4792 -0.5896
32678SOL    HW2 1533   7.257   6.447   7.209 -0.0043 -0.2615 -0.4906
32679SOL     OW 1534  10.884   1.976   5.599 -0.1570 -0.1942 -0.2527
32679SOL    HW1 1535  10.793   1.950   5.586 -0.3407 -0.3161  1.0956
32679SOL    HW2 1536  10.911   1.931   5.679  0.6314  0.9497  0.1591
32680SOL     OW 1537   2.547   7.805   8.123  0.2649  0.6424  0.5500
32680SOL    HW1 1538   2.542   7.884   8.068 -1.6967 -2.2348 -4.0070
32680SOL    HW2 1539   2.641   7.789   8.133  0.8236  1.0728 -2.6937
32681SOL     OW 1540   9.790   5.128   1.678  0.3082 -0.4472  0.4041
32681SOL    HW1 1541   9.868   5.118   1.623  0.6219 -0.5606  0.8624
32681SOL    HW2 1542   9.725   5.168   1.621  0.9095  0.2510  0.1979
32682SOL     OW 1543   8.841   3.736   5.657  0.3730 -0.8433 -0.0264
32682SOL    HW1 1544   8.772   3.790   5.695  1.6031 -0.0841  1.2399
32682SOL    HW2 1545   8.814   3.722   5.566  0.6349  3.1246 -0.8734
32683SOL     OW 1546   3.208   9.802   3.048 -0.1836 -0.4863 -1.0162
32683SOL    HW1 1547   3.241   9.846   3.127  1.9995 -0.4826 -1.8702
32683SOL    HW2 1548   3.161   9.726   3.081  1.0039 -0.6876  0.3058
32684SOL     OW 1549   1.352  10.594   3.682 -0.0181 -0.3053 -0.2930
32684SOL    HW1 1550   1.307  10.575   3.600 -2.3778  0.8968  0.6233
32684SOL    HW2 1551   1.391  10.680   3.669  0.6068 -0.6227 -0.5334
32685SOL     OW 1552   1.199   8.637   4.027 -0.0332 -0.5187 -0.7900
32685SOL    HW1 1553   1.211   8.615   3.935 -1.2614 -0.5004 -0.9734
32685SOL    HW2 1554   1.129   8.578   4.057  0.2214 -0.3967  0.0793
32686SOL     OW 1555   1.744   3.849   1.646  0.6341 -0.5552  0.3576
32686SOL    HW1 1556   1.825   3.802   1.667 -0.5521 -1.5002  3.3788
32686SOL    HW2 1557   1.751   3.932   1.693  0.4525  0.0299 -0.6172
32687SOL     OW 1558   8.471   3.282   6.850 -0.3621  0.0350 -0.3668
32687SOL    HW1 1559   8.553   3.243   6.821 -0.0450  0.6808 -0.3450
32687SOL    HW2 1560   8.469   3.266   6.944 -0.6272 -0.6428 -0.4789
32688SOL     OW 1561   6.994   6.074   2.986  0.0532 -0.2625 -0.2085
32688SOL    HW1 1562   7.026   6.009   2.924  0.7978  1.8869 -2.2491
32688SOL    HW2 1563   7.073   6.115   3.021 -0.3720 -1.1166  1.9028
32689SOL     OW 1564   2.738   2.843  10.066 -0.0719 -0.1214 -0.0861
32689SOL    HW1 1565   2.699   2.803  10.144 -2.2904  2.5733  0.3465
32689SOL    HW2 1566   2.763   2.931  10.094  1.8555 -0.0820 -1.7116
32690SOL     OW 1567   9.642   9.590   6.824  0.2257  0.5954 -0.3343
32690SOL    HW1 1568   9.642   9.540   6.906  0.0290  0.0500 -0.6596
32690SOL    HW2 1569   9.621   9.679   6.850  3.8985  1.3301  0.7225
32691SOL     OW 1570   5.328   4.804   0.054 -0.4668 -0.6711  0.2187
32691SOL    HW1 1571   5.406   4.757   0.025  1.7184  2.7993 -0.0798
32691SOL    HW2 1572   5.281   4.825  -0.027  1.2720  1.8533 -0.2555
32692SOL     OW 1573   6.641  10.043   3.985  0.5020 -0.6211  0.2489
32692SOL    HW1 1574   6.583   9.975   3.951  0.8471 -1.0933  0.5925
32692SOL    HW2 1575   6.694  10.069   3.909 -0.4710  0.1575 -0.1878
32693SOL     OW 1576   7.523   6.522   5.876  0.2125  0.0641 -0.2974
32693SOL    HW1 1577   7.446   6.471   5.901  0.0198 -0.8542 -2.5385
32693SOL    HW2 1578   7.492   6.579   5.805  1.4221  0.2095 -0.7243
32694SOL     OW 1579   9.351   5.987   5.158 -0.1977  0.3719  0.1834
32694SOL    HW1 1580   9.366   6.068   5.110 -1.7864  1.0596  0.7985
32694SOL    HW2 1581   9.435   5.968   5.200 -0.3911  3.0145  2.0028
32695SOL     OW 1582   9.845   2.370   2.252 -0.3206  0.3794 -1.0623
32695SOL    HW1 1583   9.775   2.435   2.251 -0.2095  0.7841  2.6065
32695SOL    HW2 1584   9.804   2.291   2.216 -1.8930  1.2240 -1.2556
32696SOL     OW 1585   3.870   6.250   5.425 -0.4085 -0.0352 -0.1138
32696SOL    HW1 1586   3.872   6.311   5.352 -0.9011 -0.2444 -0.3026
32696SOL    HW2 1587   3.831   6.171   5.389  2.8737 -1.5518 -0.6883
32697SOL     OW 1588   2.128   6.863   6.007  0.1123 -0.6408  0.1433
32697SOL    HW1 1589   2.053   6.804   6.007  1.1078 -1.9442 -0.2238
32697SOL    HW2 1590   2.185   6.830   6.077  0.1314  0.6355  0.7555
32698SOL     OW 1591   3.097   9.229  10.637  0.0697  0.8258 -0.1418
32698SOL    HW1 1592   3.174   9.279  10.664  1.3145 -1.4666  0.8615
32698SOL    HW2 1593   3.131   9.167  10.572 -0.1282 -2.2987  2.4909
32699SOL     OW 1594   6.369   6.795   8.489  0.3601  0.0880  0.5663
32699SOL    HW1 1595   6.389   6.823   8.400  2.0338  0.3868  1.0106
32699SOL    HW2 1596   6.287   6.840   8.510 -0.6426 -0.7894 -1.1526
32700SOL     OW 1597   9.612   4.604   3.087  0.1348 -0.5415  0.2760
32700SOL    HW1 1598   9.655   4.687   3.064  1.1551 -0.4742  2.2072
32700SOL    HW2 1599   9.540   4.629   3.144  1.6279 -1.0132  2.5065
32701SOL     OW 1600  10.831   3.951   3.295 -0.2789 -0.4423  0.1835
32701SOL    HW1 1601  10.839   3.948   3.390 -0.5907  1.4204  0.2999
32701SOL    HW2 1602  10.921   3.949   3.263 -0.1810 -1.3540  0.4833
32702SOL     OW 1603   4.981  10.937   9.075  0.5594 -0.4006  1.1897
32702SOL    HW1 1604   4.973  10.896   8.989 -0.9678  0.7572  0.7358
32702SOL    HW2 1605   4.961  10.866   9.137 -0.2696 -0.7798  0.5060
32703SOL     OW 1606   5.156   3.229   6.626 -0.5769 -0.0515 -0.3657
32703SOL    HW1 1607   5.196   3.299   6.574  1.1910 -1.8412 -1.5922
32703SOL    HW2 1608   5.131   3.163   6.561 -0.9979 -1.1258  0.8446
32704SOL     OW 1609   8.985   0.106   6.228  0.1221 -0.1107 -0.1514
32704SOL    HW1 1610   9.061   0.162   6.212  1.2177 -1.7046 -0.6682
32704SOL    HW2 1611   8.985   0.093   6.322 -1.5116  2.5619  0.3344
32705SOL     OW 1612   2.805  10.551   3.748 -0.0972 -0.7100 -0.0500
32705SOL    HW1 1613   2.879  10.501   3.782 -1.0966 -1.5940  0.9272
32705SOL    HW2 1614   2.729  10.494   3.762 -1.2621  0.9905  0.9468
32706SOL     OW 1615  10.185   8.041   8.263  0.2505  0.1985 -0.1994
32706SOL    HW1 1616  10.188   7.996   8.179  1.8866  0.5716 -0.3729
32706SOL    HW2 1617  10.102   8.013   8.302 -1.1297  0.9571 -2.4169
32707SOL     OW 1618   1.211   3.941   8.334  0.4223  0.4819 -0.2252
32707SOL    HW1 1619   1.301   3.949   8.366  0.2825  0.0251  0.2962
32707SOL    HW2 1620   1.193   4.026   8.294  1.6906  0.0034 -1.9582
32708SOL     OW 1621   6.146   2.445   2.361 -0.2972 -0.3781 -0.1259
32708SOL    HW1 1622   6.119   2.353   2.367  0.6975 -0.8026 -1.4904
32708SOL    HW2 1623   6.100   2.478   2.284 -1.5513  0.6353  1.0160
32709SOL     OW 1624   3.788   4.301   3.029 -0.5399  0.2248 -0.2300
32709SOL    HW1 1625   3.730   4.329   2.959 -2.1851  0.1349  1.0495
32709SOL    HW2 1626   3.853   4.371   3.035 -0.6165  0.4407 -1.5191
32710SOL     OW 1627   4.415   4.443   6.680  0.0849  0.1967 -0.2901
32710SOL    HW1 1628   4.368   4.505   6.735  0.2445  1.0099 -1.0405
32710SOL    HW2 1629   4.489   4.494   6.645  0.0822 -0.3405 -1.1064
32711SOL     OW 1630   9.976   7.299   1.586  0.4102  0.3673  0.4765
32711SOL    HW1 1631  10.044   7.251   1.633 -0.1091 -0.8257  0.0570
32711SOL    HW2 1632   9.945   7.365   1.648  0.4356 -0.5069  1.4351
32712SOL     OW 1633   9.946   2.383   9.589  0.3197 -0.6558  0.3582
32712SOL    HW1 1634   9.887   2.308   9.585 -2.2882  1.2642  0.1808
32712SOL    HW2 1635   9.907   2.447   9.529  2.9180  0.5568 -0.1708
32713SOL     OW 1636   4.313   5.509   6.755 -0.5122  0.4081  0.2302
32713SOL    HW1 1637   4.226   5.510   6.716 -0.5830 -2.1978  0.1790
32713SOL    HW2 1638   4.298   5.501   6.849 -0.3677 -1.0702  0.1478
32714SOL     OW 1639  10.464   2.525   1.939 -0.2068  0.1177  0.4756
32714SOL    HW1 1640  10.485   2.433   1.956 -0.7827 -0.2048 -0.4619
32714SOL    HW2 1641  10.503   2.572   2.012  1.6223 -0.6807  0.0828
32715SOL     OW 1642   7.676   5.466   0.988 -0.3711  0.4459  0.0988
32715SOL    HW1 1643   7.714   5.545   0.951  0.7359 -0.6091 -1.1369
32715SOL    HW2 1644   7.746   5.428   1.041  0.0631 -1.0171 -1.4264
32716SOL     OW 1645   9.783   9.831   5.414 -0.4028 -0.4057 -0.0974
32716SOL    HW1 1646   9.802   9.864   5.326  1.1290 -2.2082 -0.5088
32716SOL    HW2 1647   9.712   9.768   5.401 -0.8740  0.0699  0.1339
32717SOL     OW 1648   8.363   1.669   3.518 -0.0533 -0.0399 -0.2722
32717SOL    HW1 1649   8.295   1.724   3.478 -0.4425 -1.0497 -1.0229
32717SOL    HW2 1650   8.428   1.732   3.549 -1.0376  0.9214 -0.0662
32718SOL     OW 1651   8.298   7.111   8.193  0.0933 -0.0318  0.4342
32718SOL    HW1 1652   8.353   7.059   8.134 -0.3516 -0.2128  0.1727
32718SOL    HW2 1653   8.342   7.196   8.198  1.0710 -0.5635  1.2225
32719SOL     OW 1654   0.402   2.325   5.274 -0.4095 -0.2375 -0.1102
32719SOL    HW1 1655   0.405   2.295   5.364 -1.6069  0.1362  0.0772
32719SOL    HW2 1656   0.338   2.396   5.274  0.7752  0.8760 -0.9544
32720SOL     OW 1657   0.571   7.554   5.106 -0.0911 -0.1969  0.1527
32720SOL    HW1 1658   0.508   7.578   5.174  0.9302  0.4401  0.9058
32720SOL    HW2 1659   0.653   7.595   5.133  0.5809 -0.7253 -0.9759
32721SOL     OW 1660   8.612   0.833   4.105 -0.0712  0.1838  0.1456
32721SOL    HW1 1661   8.597   0.738   4.107 -1.8898  0.4179  2.1900
32721SOL    HW2 1662   8.605   0.860   4.197 -1.5757  2.5516 -0.5696
32722SOL     OW 1663   0.254   2.884   4.856  0.0356  0.0930  0.1887
32722SOL    HW1 1664   0.342   2.865   4.826 -0.1205  0.6934 -0.6612
32722SOL    HW2 1665   0.250   2.845   4.944  1.1535  0.1076  0.2576
32723SOL     OW 1666   9.697   7.201  10.940 -0.0980  0.2557  0.1810
32723SOL    HW1 1667   9.716   7.108  10.927 -0.1993  0.1858  0.5091
32723SOL    HW2 1668   9.709   7.241  10.854 -1.2663 -0.2704 -0.2503
32724SOL     OW 1669   6.031   8.551   9.065  0.1512  0.4629  0.6145
32724SOL    HW1 1670   6.110   8.557   9.011  1.1954 -1.8213  1.7596
32724SOL    HW2 1671   6.060   8.509   9.146 -1.7175  2.1567  2.2846
32725SOL     OW 1672   5.495   7.901   7.678  0.1849  0.5343  0.1845
32725SOL    HW1 1673   5.408   7.878   7.646  0.9568 -2.5211 -0.0865
32725SOL    HW2 1674   5.483   7.914   7.772 -0.7926  1.7321 -0.0901
32726SOL     OW 1675   9.149   6.993   6.337  0.0038 -0.0854 -0.2637
32726SOL    HW1 1676   9.224   7.005   6.396 -0.6198 -0.9373  0.7242
32726SOL    HW2 1677   9.073   7.012   6.391 -0.6273 -1.6173 -0.5688
32727SOL     OW 1678   6.535   9.782   7.818 -0.0232 -0.1091  0.9049
32727SOL    HW1 1679   6.585   9.714   7.862 -1.6795 -0.1503  2.8987
32727SOL    HW2 1680   6.546   9.764   7.725 -0.7432 -3.4097  1.3305
32728SOL     OW 1681   1.654   6.491   0.190  0.1191 -0.0080 -0.7400
32728SOL    HW1 1682   1.598   6.442   0.250  1.9021  1.5072  2.4161
32728SOL    HW2 1683   1.596   6.520   0.120 -2.3061 -1.1239  0.7067
32729SOL     OW 1684   8.456   9.927   3.230  0.5767  0.3131 -0.6934
32729SOL    HW1 1685   8.539   9.955   3.190  0.3709  1.4678 -0.3590
32729SOL    HW2 1686   8.451   9.833   3.212  0.5174  0.7474 -3.2929
32730SOL     OW 1687   9.611   2.171   7.787  0.4478  0.1842 -0.0392
32730SOL    HW1 1688   9.553   2.098   7.768  0.6989  0.0963 -0.4811
32730SOL    HW2 1689   9.635   2.159   7.879  2.6021 -1.8281 -0.7506
32731SOL     OW 1690   4.242   1.900   6.363 -0.2602  0.2213  1.1404
32731SOL    HW1 1691   4.334   1.917   6.342 -0.1102  0.2570  1.7985
32731SOL    HW2 1692   4.198   1.895   6.278 -0.2628  3.5543  0.7918
32732SOL     OW 1693   3.431   7.293   5.037  0.7617 -0.3666  0.4848
32732SOL    HW1 1694   3.459   7.275   4.947  2.0000  0.7767  0.6140
32732SOL    HW2 1695   3.351   7.345   5.026  1.3774  0.5161  0.0039
32733SOL     OW 1696   7.583  10.529   5.363 -0.1297 -0.0855 -0.3859
32733SOL    HW1 1697   7.562  10.531   5.456  1.8345 -0.8578  0.1199
32733SOL    HW2 1698   7.599  10.621   5.340  0.2642  0.0079  0.2567
32734SOL     OW 1699  10.389   6.925   3.904 -0.4971  0.3824  0.2972
32734SOL    HW1 1700  10.464   6.984   3.918  0.8040 -1.5416  1.9339
32734SOL    HW2 1701  10.355   6.908   3.991 -2.1789  0.2976 -0.3360
32735SOL     OW 1702   6.570   8.450   6.641 -0.3041 -0.0288 -0.5846
32735SOL    HW1 1703   6.588   8.358   6.660  0.6300  0.4305  0.9708
32735SOL    HW2 1704   6.630   8.498   6.699 -3.0614  1.5714  1.1783
32736SOL     OW 1705  10.562   9.938   7.895  0.0700  0.7017  0.2770
32736SOL    HW1 1706  10.486   9.992   7.917 -0.0504  0.4327  0.5338
32736SOL    HW2 1707  10.543   9.905   7.807 -0.3741  0.1926  0.5543
32737SOL     OW 1708   2.850   7.976   7.555  0.1243  0.3704 -0.3507
32737SOL    HW1 1709   2.828   7.903   7.613  1.9124 -0.5869 -0.8030
32737SOL    HW2 1710   2.795   7.963   7.478  0.0571 -0.1967 -0.2097
32738SOL     OW 1711   5.386   0.537  10.545 -0.1730  0.4494  0.0614
32738SOL    HW1 1712   5.323   0.584  10.600 -1.5980 -2.0175  0.6524
32738SOL    HW2 1713   5.347   0.539  10.458 -0.8394 -0.5908  0.3177
32739SOL     OW 1714   6.188   5.224   2.094  1.0999  0.1597  0.0675
32739SOL    HW1 1715   6.235   5.180   2.023  1.2955  0.8358 -0.2280
32739SOL    HW2 1716   6.253   5.230   2.165  1.2000  0.3523 -0.0416
32740SOL     OW 1717   4.353   4.652   7.594 -0.2570 -0.0866 -0.6865
32740SOL    HW1 1718   4.369   4.733   7.642 -1.2465 -0.6609  0.6850
32740SOL    HW2 1719   4.258   4.640   7.598 -0.1870 -0.9945 -1.3976
32741SOL     OW 1720   6.607   2.153   6.390  0.4300  0.0436  0.8700
32741SOL    HW1 1721   6.587   2.076   6.443 -0.3144 -1.1576 -1.0369
32741SOL    HW2 1722   6.693   2.182   6.421  2.0259 -3.1855 -0.0991
32742SOL     OW 1723   4.931  10.820   4.471  0.5285  0.0706 -0.0789
32742SOL    HW1 1724   5.011  10.833   4.421  0.4574  1.2114  0.0709
32742SOL    HW2 1725   4.886  10.748   4.427 -0.1624  1.8700 -2.4719
32743SOL     OW 1726   6.757   4.050   2.401  0.2810  0.6095 -0.1541
32743SOL    HW1 1727   6.749   4.004   2.317 -1.6465 -0.1573  0.3923
32743SOL    HW2 1728   6.780   3.981   2.463 -1.4288  0.5273  0.4594
32744SOL     OW 1729   5.553   2.286   1.196  0.2555  0.1938 -0.5151
32744SOL    HW1 1730   5.639   2.273   1.235 -0.0563  1.2234  0.5762
32744SOL    HW2 1731   5.491   2.271   1.268 -0.5562 -1.3479 -1.4668
32745SOL     OW 1732   1.263   8.318   7.049 -0.3853  0.3748  0.2120
32745SOL    HW1 1733   1.322   8.291   7.120  2.1155  1.1925 -1.4068
32745SOL    HW2 1734   1.310   8.390   7.007 -1.1084 -0.9251 -3.0701
32746SOL     OW 1735   7.397   1.700   3.738  0.1744 -0.8397 -0.2834
32746SOL    HW1 1736   7.362   1.623   3.693  0.3995 -1.2522  0.2327
32746SOL    HW2 1737   7.324   1.732   3.791  0.4716 -1.5290  0.5704
32747SOL     OW 1738   4.515   2.242   8.838  0.4399 -0.5018 -0.2918
32747SOL    HW1 1739   4.602   2.209   8.815  1.6044  1.6911  0.6972
32747SOL    HW2 1740   4.532   2.323   8.886 -2.1724  0.1099 -0.2677
32748SOL     OW 1741   3.108   0.209   7.881 -0.0805  0.2153 -0.1699
32748SOL    HW1 1742   3.040   0.213   7.948 -0.6461  1.1497 -0.7771
32748SOL    HW2 1743   3.113   0.298   7.846 -0.9226 -0.5457 -2.4624
32749SOL     OW 1744  10.476   8.452   3.246 -0.4805  0.2335 -0.0097
32749SOL    HW1 1745  10.402   8.410   3.290 -0.3247 -0.8808 -0.7810
32749SOL    HW2 1746  10.464   8.431   3.154  1.4698 -1.0360 -0.0281
32750SOL     OW 1747   6.904   4.503   2.033  0.5111 -0.0081 -0.0987
32750SOL    HW1 1748   6.875   4.560   2.105 -0.5256  0.4375 -0.8416
32750SOL    HW2 1749   6.948   4.563   1.972  1.7089 -0.4432  0.3138
32751SOL     OW 1750   6.926   1.479   5.985  0.4753 -0.0384  0.5473
32751SOL    HW1 1751   6.935   1.561   6.033  1.5842  1.2012 -1.6328
32751SOL    HW2 1752   6.832   1.474   5.963  0.6055  1.4363 -0.5123
32752SOL     OW 1753   0.065   4.864   9.745  0.0788 -0.4238 -0.6145
32752SOL    HW1 1754   0.015   4.793   9.785 -1.7587 -0.5736 -2.9478
32752SOL    HW2 1755   0.019   4.944   9.772  1.0547 -0.2237  0.5226
32753SOL     OW 1756   2.256   7.090   3.988  0.1783  0.1045  0.0942
32753SOL    HW1 1757   2.224   7.166   3.941 -0.6121 -0.8702 -0.9749
32753SOL    HW2 1758   2.277   7.026   3.920 -2.2976 -1.8683  1.0183
32754SOL     OW 1759   5.777   0.488   3.531  0.3656 -0.3669 -0.3733
32754SOL    HW1 1760   5.735   0.486   3.618  1.9259  2.0137  0.5149
32754SOL    HW2 1761   5.707   0.516   3.472 -0.3653 -0.6648  0.3221
32755SOL     OW 1762   0.694  10.497   9.522 -0.4511  0.1547 -0.6034
32755SOL    HW1 1763   0.666  10.407   9.537  1.6826 -0.2590  1.3762
32755SOL    HW2 1764   0.615  10.541   9.489 -2.1260 -1.9304  0.3679
32756SOL     OW 1765   2.076   2.564   0.549  0.2263  0.0922 -0.3288
32756SOL    HW1 1766   2.026   2.565   0.467  0.8031  1.0702 -0.6892
32756SOL    HW2 1767   2.165   2.539   0.522  1.1130  3.0703 -0.4762
32757SOL     OW 1768  10.818   3.404   5.106  0.5886 -0.2708  0.1518
32757SOL    HW1 1769  10.750   3.463   5.075  0.8703 -0.3818 -0.7092
32757SOL    HW2 1770  10.876   3.459   5.159  0.4630  0.0712 -0.0664
32758SOL     OW 1771   5.596   5.182   7.255  0.3623 -0.5112 -0.0948
32758SOL    HW1 1772   5.668   5.232   7.218  1.8594 -2.0408  0.5978
32758SOL    HW2 1773   5.560   5.133   7.181 -0.2297  0.5497 -0.5170
32759SOL     OW 1774   1.863   7.212   2.830 -0.5253 -0.2749 -0.4221
32759SOL    HW1 1775   1.873   7.128   2.787 -0.2510  0.1768 -1.2593
32759SOL    HW2 1776   1.864   7.192   2.924 -1.2348 -1.2812 -0.6152
32760SOL     OW 1777   5.404   9.819   6.338  0.1468 -0.1974  0.2868
32760SOL    HW1 1778   5.318   9.804   6.376 -0.3729  0.8180 -0.4448
32760SOL    HW2 1779   5.392   9.801   6.244  0.5089  0.7409  0.0475
32761SOL     OW 1780   2.017  10.500   4.862 -0.1859 -0.1951  0.6121
32761SOL    HW1 1781   2.070  10.435   4.909 -1.0831 -0.8688  0.7280
32761SOL    HW2 1782   1.970  10.448   4.797  0.3536  0.5998 -0.4342
32762SOL     OW 1783   3.359  10.093   7.916 -0.6887 -0.2114 -0.0660
32762SOL    HW1 1784   3.391  10.036   7.986 -1.6087 -0.2420  0.3508
32762SOL    HW2 1785   3.404  10.063   7.837  0.5681 -0.0090  0.5518
32763SOL     OW 1786   1.175   7.147   6.833 -0.7324 -0.6805 -0.1354
32763SOL    HW1 1787   1.079   7.149   6.830 -0.7353 -0.1378  0.1670
32763SOL    HW2 1788   1.201   7.147   6.741 -1.0266 -1.0575 -0.2204
32764SOL     OW 1789   3.562   1.717   8.949  0.3826  0.1688 -0.1235
32764SOL    HW1 1790   3.542   1.765   8.869  0.5792  0.0886 -0.2192
32764SOL    HW2 1791   3.645   1.753   8.979  0.4081  0.0597 -0.0610
32765SOL     OW 1792   8.024   2.402   8.245 -0.5000 -0.2266  0.5073
32765SOL    HW1 1793   8.068   2.321   8.269 -1.2103 -0.3232  1.5232
32765SOL    HW2 1794   7.931   2.383   8.253 -0.7280  0.2858 -0.5984
32766SOL     OW 1795   4.229   2.899   9.924  0.4404 -0.3087 -0.0957
32766SOL    HW1 1796   4.135   2.911   9.918  0.3015  2.8006  3.9610
32766SOL    HW2 1797   4.267   2.973   9.876  0.7289 -0.1620  0.3533
32767SOL     OW 1798   4.724   1.436   0.119 -0.0381 -0.0543 -0.4087
32767SOL    HW1 1799   4.782   1.512   0.114  0.0695 -0.2035 -1.7576
32767SOL    HW2 1800   4.669   1.453   0.196  0.4155  1.0781 -0.3151
32768SOL     OW 1801   1.649   8.447   3.384  0.2776 -0.3573 -0.3131
32768SOL    HW1 1802   1.627   8.538   3.363  0.2692 -0.4597 -0.7418
32768SOL    HW2 1803   1.716   8.454   3.452 -2.5893 -0.0059  2.8020
32769SOL     OW 1804   7.537   2.249   6.282  0.2596  0.0795 -0.7628
32769SOL    HW1 1805   7.451   2.216   6.256 -0.4557  1.4980 -0.3417
32769SOL    HW2 1806   7.579   2.274   6.200  0.2385 -0.5344 -0.9635
32770SOL     OW 1807   3.395   1.993   7.849 -0.4859  0.3945 -0.4144
32770SOL    HW1 1808   3.464   2.055   7.825  0.1879 -0.0322  0.3374
32770SOL    HW2 1809   3.431   1.907   7.826 -0.6986  0.1550  0.1147
32771SOL     OW 1810   9.144   2.333   0.640 -0.3980  0.0436 -0.6784
32771SOL    HW1 1811   9.155   2.424   0.668 -1.2761  0.1214 -0.5399
32771SOL    HW2 1812   9.049   2.318   0.644 -0.1440 -1.6036  1.6757
32772SOL     OW 1813   7.861   2.649   6.764  0.6639  0.2285 -0.0159
32772SOL    HW1 1814   7.832   2.706   6.693 -1.2469  0.5366  0.9482
32772SOL    HW2 1815   7.912   2.706   6.822 -0.8778  0.9336  0.7186
32773SOL     OW 1816   2.259   7.807   2.259 -0.3497  0.4551 -0.0343
32773SOL    HW1 1817   2.270   7.715   2.236  0.2054  0.8910 -1.7112
32773SOL    HW2 1818   2.347   7.843   2.257 -0.3218  0.6900  2.4182
32774SOL     OW 1819   3.676   9.870   0.497 -0.2956  0.2229 -0.2953
32774SOL    HW1 1820   3.582   9.866   0.481 -0.1584  0.6645 -1.3104
32774SOL    HW2 1821   3.688   9.833   0.585 -1.1719 -2.0981 -1.0699
32775SOL     OW 1822   8.903   2.217   0.414  0.2458 -0.2358 -0.3250
32775SOL    HW1 1823   8.954   2.240   0.336 -0.4819 -2.1914 -1.4372
32775SOL    HW2 1824   8.955   2.149   0.457 -0.2289 -0.4817 -0.1337
32776SOL     OW 1825   1.962   8.991   0.436  0.3092  0.1577 -0.1448
32776SOL    HW1 1826   1.946   8.934   0.512 -0.2702 -1.6877 -1.5562
32776SOL    HW2 1827   2.043   8.957   0.398  1.0387  1.5982  0.0895
32777SOL     OW 1828   9.161   7.104   8.846 -0.5340  0.1026  0.3291
32777SOL    HW1 1829   9.173   7.058   8.929 -0.2683 -2.0202 -0.8157
32777SOL    HW2 1830   9.222   7.061   8.786  1.3021  3.3769 -0.3626
32778SOL     OW 1831   4.921   5.041   0.822 -0.1349 -0.2335 -0.6359
32778SOL    HW1 1832   4.943   4.958   0.780 -0.0496  0.3561 -1.7841
32778SOL    HW2 1833   4.832   5.026   0.856 -0.5482 -0.4726 -1.7516
32779SOL     OW 1834   7.664  10.679   9.152  0.4205 -0.7083  0.0085
32779SOL    HW1 1835   7.630  10.762   9.186  1.9537 -0.2139  0.4137
32779SOL    HW2 1836   7.629  10.673   9.063  0.3411  0.4072 -0.0521
32780SOL     OW 1837   2.400   2.713   6.454 -0.2717  0.1050  0.5809
32780SOL    HW1 1838   2.432   2.650   6.390  0.9204 -0.1787  1.4211
32780SOL    HW2 1839   2.443   2.796   6.429 -0.0285  0.0575  0.8361
32781SOL     OW 1840   2.269   3.825   5.985  0.6355  0.2123  0.2891
32781SOL    HW1 1841   2.191   3.855   6.031  0.9952 -1.4349  2.1433
32781SOL    HW2 1842   2.342   3.849   6.043  1.1676 -1.3312  0.3291
32782SOL     OW 1843   0.746  10.130  10.345 -0.3528  0.2227 -0.0781
32782SOL    HW1 1844   0.659  10.150  10.310 -0.8781 -0.0249  1.0411
32782SOL    HW2 1845   0.737  10.044  10.385  0.8476 -0.5422 -1.3538
32783SOL     OW 1846   7.711   4.747   8.957 -0.7820  0.1617  0.2813
32783SOL    HW1 1847   7.706   4.696   9.038 -0.7574 -1.2349 -0.5574
32783SOL    HW2 1848   7.712   4.681   8.887  0.1015  1.2916 -0.8290
32784SOL     OW 1849   3.276   7.068   4.242 -0.1283  0.1800  0.2880
32784SOL    HW1 1850   3.246   6.985   4.206  0.3182  0.3452 -0.4954
32784SOL    HW2 1851   3.340   7.100   4.178 -1.1994  1.7235 -0.0767
32785SOL     OW 1852   1.834   3.447   8.947  0.2420 -0.0865  0.0894
32785SOL    HW1 1853   1.868   3.528   8.908  0.6402 -0.8175 -1.1149
32785SOL    HW2 1854   1.906   3.385   8.942 -0.6767 -1.1381 -0.9304
32786SOL     OW 1855   2.693   4.579   9.751  0.0244 -0.5146  0.1371
32786SOL    HW1 1856   2.774   4.549   9.709 -0.1314 -0.0415 -0.5133
32786SOL    HW2 1857   2.704   4.556   9.843  0.5774 -1.1330 -0.0781
32787SOL     OW 1858   9.653   3.651   3.335  0.0974 -0.2611  0.1220
32787SOL    HW1 1859   9.699   3.568   3.343  1.3229  0.3077 -0.6556
32787SOL    HW2 1860   9.632   3.676   3.425 -0.0532 -1.2697  0.3796
32788SOL     OW 1861   5.209   8.969   9.760  0.5885  0.3579 -0.1013
32788SOL    HW1 1862   5.262   8.922   9.823 -0.0186 -0.6980 -0.3638
32788SOL    HW2 1863   5.138   9.008   9.812 -0.3433 -1.1420 -0.2074
32789SOL     OW 1864   5.591   5.369   5.230  0.2063  0.4161  0.2127
32789SOL    HW1 1865   5.600   5.413   5.145  0.7677 -0.0151  0.0407
32789SOL    HW2 1866   5.528   5.299   5.214  0.9928 -0.2389 -0.0928
32790SOL     OW 1867   3.829   7.108  10.623  0.1088  0.5607 -0.2236
32790SOL    HW1 1868   3.865   7.030  10.665 -0.2385 -0.9527 -2.5572
32790SOL    HW2 1869   3.906   7.163  10.604  0.3427  0.9102  1.5417
32791SOL     OW 1870   4.779   0.947   0.502  0.0886 -0.0130 -0.2525
32791SOL    HW1 1871   4.757   0.950   0.409  0.8343 -0.9357 -0.4630
32791SOL    HW2 1872   4.866   0.908   0.506  0.8296  1.5915  0.7278
32792SOL     OW 1873   1.788  10.423   8.858 -0.1842 -0.0192  0.6154
32792SOL    HW1 1874   1.798  10.334   8.893  0.8144 -0.2267 -0.1740
32792SOL    HW2 1875   1.844  10.425   8.780 -0.0301  1.3664  0.7377
32793SOL     OW 1876   0.459   3.181   9.131  0.2520 -0.1983 -0.1163
32793SOL    HW1 1877   0.543   3.211   9.099  0.2866  0.7128  0.7641
32793SOL    HW2 1878   0.403   3.258   9.128  0.7714  0.5564  3.6835
32794SOL     OW 1879  10.477   7.085   9.754  0.1789  0.3621 -0.0875
32794SOL    HW1 1880  10.534   7.018   9.715 -0.2765  0.0087 -0.1510
32794SOL    HW2 1881  10.429   7.038   9.822 -0.8556  0.3885 -0.7783
32795SOL     OW 1882   2.107   3.555   3.311  0.2088 -0.2678  0.9341
32795SOL    HW1 1883   2.048   3.579   3.382 -0.3517  0.8302  0.1328
32795SOL    HW2 1884   2.122   3.462   3.323 -2.9540 -0.9982  0.2992
32796SOL     OW 1885   0.321   9.044   9.964 -0.2608 -0.6088 -0.2472
32796SOL    HW1 1886   0.324   9.137   9.985 -0.8276 -0.7140  0.3441
32796SOL    HW2 1887   0.233   9.016   9.989 -0.2920 -1.1843 -0.9520
32797SOL     OW 1888   7.042   8.184   4.952 -0.0523  0.3670  0.3097
32797SOL    HW1 1889   7.030   8.113   5.015  0.5473 -0.4637 -0.4885
32797SOL    HW2 1890   7.105   8.243   4.993 -0.5475  0.4462  0.9738
32798SOL     OW 1891   0.101   4.249   6.883  0.3627 -0.3999  0.3724
32798SOL    HW1 1892   0.008   4.243   6.907  0.1343  1.1569 -0.0224
32798SOL    HW2 1893   0.105   4.323   6.822  1.5504 -1.7270 -1.2462
32799SOL     OW 1894   5.898   3.539  10.236  0.5647  0.0587 -0.5148
32799SOL    HW1 1895   5.959   3.556  10.164 -0.8178  0.8981 -1.5309
32799SOL    HW2 1896   5.930   3.595  10.307  1.1230  0.3019 -0.9423
32800SOL     OW 1897   5.767   7.670   4.526 -0.1135  0.9512 -0.1560
32800SOL    HW1 1898   5.825   7.631   4.592  0.0280  0.7939 -0.3710
32800SOL    HW2 1899   5.824   7.728   4.475 -0.0588  0.5042 -0.6118
32801SOL     OW 1900   4.122   0.457   6.072  0.2677  0.0707 -0.0784
32801SOL    HW1 1901   4.059   0.427   6.007 -1.5100 -0.8970  1.9485
32801SOL    HW2 1902   4.069   0.477   6.150  2.4518 -1.0153  1.8291
32802SOL     OW 1903   6.678   3.453   7.440  0.0337  0.8565  0.1418
32802SOL    HW1 1904   6.628   3.523   7.399 -0.2389  0.8123  0.3959
32802SOL    HW2 1905   6.761   3.452   7.392 -0.4441  0.5151 -0.6884
32803SOL     OW 1906   3.880   7.721   3.041  0.2449 -1.1017 -0.3320
32803SOL    HW1 1907   3.805   7.662   3.034 -0.9175  0.4077 -1.3396
32803SOL    HW2 1908   3.886   7.742   3.134 -0.9506 -0.8141 -0.3050
32804SOL     OW 1909   1.417   8.123   6.623 -0.0291 -0.2049 -0.0972
32804SOL    HW1 1910   1.365   8.046   6.643  0.2348 -0.3609 -0.0102
32804SOL    HW2 1911   1.484   8.092   6.562 -0.4366  0.1304 -0.7321
32805SOL     OW 1912   3.003   8.981   6.441  0.0570 -0.1793  0.7393
32805SOL    HW1 1913   2.924   9.006   6.490  0.1598  1.1062  0.2735
32805SOL    HW2 1914   2.970   8.944   6.359 -0.0729 -0.3174  0.8527
32806SOL     OW 1915   9.211   8.384   0.344 -0.6946  0.1630  0.0732
32806SOL    HW1 1916   9.160   8.411   0.420 -0.5671 -0.7458  0.4952
32806SOL    HW2 1917   9.147   8.382   0.272 -0.9402  0.4471  0.2811
32807SOL     OW 1918  10.325   8.089   0.189 -0.0002  0.2623  0.1426
32807SOL    HW1 1919  10.418   8.071   0.175  0.2467  1.2374  0.4661
32807SOL    HW2 1920  10.295   8.124   0.105  0.4522  1.9673  0.6416
32808SOL     OW 1921   8.955  10.851  10.180 -0.0107  0.0140  0.2984
32808SOL    HW1 1922   8.931  10.882  10.268  0.9318 -1.7785  1.2395
32808SOL    HW2 1923   9.003  10.925  10.141  0.9210  0.2937  1.8963
32809SOL     OW 1924  10.668   7.901   6.668  0.0745  0.1860 -0.1564
32809SOL    HW1 1925  10.613   7.846   6.723 -0.1432 -0.5405 -1.0650
32809SOL    HW2 1926  10.625   7.986   6.669 -0.5723 -0.1322 -0.1327
32810SOL     OW 1927   8.638   6.167   1.338  0.0942 -0.2348  0.8891
32810SOL    HW1 1928   8.685   6.125   1.266  1.6013  0.1024  1.6389
32810SOL    HW2 1929   8.668   6.258   1.337 -1.5587  0.3516  0.5865
32811SOL     OW 1930  10.729   9.194   6.481  0.0233 -0.3897 -0.3036
32811SOL    HW1 1931  10.662   9.226   6.421  1.0769  1.2852 -0.6576
32811SOL    HW2 1932  10.708   9.235   6.565  0.2008 -0.4127 -0.2475
32812SOL     OW 1933   6.414  11.001   9.084  0.2659 -0.5303  0.9492
32812SOL    HW1 1934   6.372  10.920   9.056  0.1955 -1.0305  2.4197
32812SOL    HW2 1935   6.458  11.033   9.005 -1.4325 -0.8757 -0.1885
32813SOL     OW 1936   0.040  10.800   2.853  0.0587 -0.4348 -0.2632
32813SOL    HW1 1937   0.038  10.709   2.824  0.6768 -0.9339  1.1508
32813SOL    HW2 1938   0.111  10.840   2.804 -0.0038 -0.8011 -0.6574
32814SOL     OW 1939   5.813   5.013   9.051  0.0267  0.7784  0.4282
32814SOL    HW1 1940   5.735   5.068   9.046  0.3621  1.2484  0.3183
32814SOL    HW2 1941   5.886   5.073   9.035  0.3437  0.1584 -0.5071
32815SOL     OW 1942   6.075   0.739   2.367 -0.4359  0.2272  0.9286
32815SOL    HW1 1943   6.128   0.817   2.385  0.1534  0.1853 -0.4761
32815SOL    HW2 1944   6.135   0.678   2.326 -1.1810 -0.5117  0.9083
32816SOL     OW 1945   4.148  10.769   0.138 -0.2319  0.3654  0.0916
32816SOL    HW1 1946   4.241  10.753   0.149  0.1406  0.8335 -1.9185
32816SOL    HW2 1947   4.136  10.860   0.165 -0.5799 -0.3316  2.4978
32817SOL     OW 1948   6.983   1.285   1.997  0.0011  0.3377  0.2212
32817SOL    HW1 1949   7.058   1.335   2.031 -0.5861  2.2749 -1.1425
32817SOL    HW2 1950   7.017   1.241   1.919  0.1588 -0.2842  0.6323
32818SOL     OW 1951   6.351   8.664   2.375  0.1761  0.2572  0.0986
32818SOL    HW1 1952   6.313   8.579   2.397  1.4881 -0.6397 -0.9829
32818SOL    HW2 1953   6.285   8.727   2.403 -0.2935 -1.0309  2.1094
32819SOL     OW 1954   5.160   0.468   6.836 -0.5882  0.1051  0.0484
32819SOL    HW1 1955   5.248   0.432   6.830 -0.3323  0.5995  0.7158
32819SOL    HW2 1956   5.126   0.464   6.747 -0.6682 -1.9977  0.1287
32820SOL     OW 1957   7.285   4.318  10.472  0.4700  0.1736 -0.0028
32820SOL    HW1 1958   7.334   4.280  10.544  1.0184  0.5787 -0.1558
32820SOL    HW2 1959   7.204   4.350  10.512 -0.1740 -1.4696  0.0623
32821SOL     OW 1960   6.720   2.436   8.545 -0.2396  0.1290 -0.5406
32821SOL    HW1 1961   6.627   2.423   8.527 -0.3309 -0.0234  0.0211
32821SOL    HW2 1962   6.730   2.530   8.556 -0.0420  0.3161 -2.1114
32822SOL     OW 1963   1.882   8.970   6.952  0.4430 -0.0650  0.2621
32822SOL    HW1 1964   1.900   8.900   6.890  0.6425  0.0061  0.2387
32822SOL    HW2 1965   1.853   9.043   6.899 -0.6003 -0.3970  0.3541
32823SOL     OW 1966   5.994   2.527   8.938 -0.0898  0.4070  0.1016
32823SOL    HW1 1967   5.954   2.549   9.023 -2.5502 -3.6101  0.2776
32823SOL    HW2 1968   5.945   2.578   8.874  0.4221  1.9544  0.8890
32824SOL     OW 1969   8.891   4.123   0.202  0.1955  0.3891 -0.0823
32824SOL    HW1 1970   8.953   4.195   0.212  1.3446 -0.3220 -1.6366
32824SOL    HW2 1971   8.805   4.163   0.217  0.7428  2.2775 -1.5366
32825SOL     OW 1972   6.700   0.605  10.006  0.0249 -0.9230 -0.1582
32825SOL    HW1 1973   6.692   0.699   9.990 -0.0240 -1.1684 -1.7752
32825SOL    HW2 1974   6.787   0.583   9.973 -0.0850 -1.4900 -0.0703
32826SOL     OW 1975   7.750   8.932   6.056 -0.4978 -0.3398 -0.4469
32826SOL    HW1 1976   7.729   8.893   6.140  0.4377  1.3573  0.6422
32826SOL    HW2 1977   7.720   9.023   6.064  1.8325  0.5377 -0.9884
32827SOL     OW 1978   4.411   7.184   7.740 -0.1202  0.2985 -0.0891
32827SOL    HW1 1979   4.395   7.278   7.735  3.1550  0.9250 -1.2460
32827SOL    HW2 1980   4.455   7.173   7.825  3.1530  0.6637 -1.5484
32828SOL     OW 1981   2.923   3.282   2.491 -0.0752 -0.2422  0.7403
32828SOL    HW1 1982   2.875   3.345   2.437 -1.6453  0.4104  2.7849
32828SOL    HW2 1983   3.015   3.307   2.480 -0.5548  1.5904  0.4863
32829SOL     OW 1984   5.166   9.062   2.947 -0.3685  0.3186  0.0494
32829SOL    HW1 1985   5.131   9.140   2.988 -1.7718 -0.5982  0.6810
32829SOL    HW2 1986   5.260   9.078   2.940 -0.7239  2.3696 -0.5801
32830SOL     OW 1987   5.852   8.449   7.047 -0.4094 -0.1977  0.1168
32830SOL    HW1 1988   5.779   8.427   6.989  0.1039 -0.0486 -0.5930
32830SOL    HW2 1989   5.918   8.382   7.029 -0.2054 -0.0914  0.4572
32831SOL     OW 1990   3.079   0.995  10.595  0.6746  0.0110  0.1064
32831SOL    HW1 1991   3.095   0.954  10.510  1.5373  0.9067 -0.1851
32831SOL    HW2 1992   3.044   0.924  10.650  1.2712 -0.8823 -0.6340
32832SOL     OW 1993   7.942   3.572   0.948 -0.5411 -0.8743  0.5056
32832SOL    HW1 1994   7.886   3.650   0.938  0.2761 -0.3292  0.0514
32832SOL    HW2 1995   7.881   3.499   0.945 -1.2919 -0.2704  0.5398
32833SOL     OW 1996   8.869  10.243  10.657  0.2956 -0.3628 -0.6741
32833SOL    HW1 1997   8.779  10.233  10.624  0.3743 -0.6691 -0.7983
32833SOL    HW2 1998   8.903  10.319  10.610  0.1058 -0.2536 -0.6361
32834SOL     OW 1999   7.595   2.696   3.178 -0.6325 -0.4569 -1.0997
32834SOL    HW1 2000   7.600   2.647   3.096 -2.7312  1.7488 -2.6885
32834SOL    HW2 2001   7.502   2.691   3.203 -0.9730  2.4838 -1.3520
32835SOL     OW 2002   4.415   6.443   1.125  0.1817  0.1649  0.0578
32835SOL    HW1 2003   4.388   6.534   1.135 -2.4265 -0.7222  2.3789
32835SOL    HW2 2004   4.400   6.404   1.211  0.4141 -2.6684 -1.0736
32836SOL     OW 2005  10.169   0.211   3.428 -0.2234 -0.2670  0.3397
32836SOL    HW1 2006  10.108   0.148   3.468 -0.1432 -0.1338  0.6758
32836SOL    HW2 2007  10.249   0.160   3.415 -0.1256 -0.2084  0.7064
32837SOL     OW 2008   9.717   9.348   9.820  0.2757 -0.0711 -0.3094
32837SOL    HW1 2009   9.717   9.262   9.863 -0.8249  0.5297  0.9786
32837SOL    HW2 2010   9.777   9.401   9.872  1.0390 -0.0649 -1.1707
32838SOL     OW 2011   8.360   8.086   7.043  0.6503  0.4241  0.1092
32838SOL    HW1 2012   8.344   8.096   7.136 -1.4151  1.3606 -0.2831
32838SOL    HW2 2013   8.363   8.176   7.009  1.0587  0.0979 -0.7659
32839SOL     OW 2014   1.917   7.252   3.182 -0.3354 -0.3506 -0.4222
32839SOL    HW1 2015   1.992   7.304   3.214  2.9322 -3.5672 -2.1023
32839SOL    HW2 2016   1.896   7.193   3.254 -0.0362 -0.6025 -0.5367
32840SOL     OW 2017   5.988   0.110   9.458  0.0627  0.3987 -0.1963
32840SOL    HW1 2018   5.943   0.122   9.374  1.1351  1.0504 -0.6980
32840SOL    HW2 2019   6.043   0.034   9.445  0.4656  0.6874 -0.1952
32841SOL     OW 2020   7.644   8.954   2.625  0.3001 -0.1573  0.0849
32841SOL    HW1 2021   7.701   8.877   2.633 -0.5837 -0.6228  3.1304
32841SOL    HW2 2022   7.703   9.026   2.603  1.7862 -0.9748  1.2205
32842SOL     OW 2023   2.358   1.413   3.883  0.0453 -0.5336 -0.2955
32842SOL    HW1 2024   2.451   1.438   3.885 -0.1594  0.2119  0.1279
32842SOL    HW2 2025   2.335   1.400   3.975 -0.6993  0.9289 -0.2507
32843SOL     OW 2026   6.859   7.644   9.974  0.0779 -0.3614  0.3476
32843SOL    HW1 2027   6.835   7.726  10.018 -0.8789  0.3552 -1.3965
32843SOL    HW2 2028   6.845   7.662   9.881  1.3344 -2.0397 -0.2110
32844SOL     OW 2029   8.333   2.015   4.077  0.6443 -0.4785  0.2820
32844SOL    HW1 2030   8.293   2.056   4.001  2.1077 -0.9051 -0.7752
32844SOL    HW2 2031   8.263   2.011   4.142 -0.9943 -1.1131 -1.4178
32845SOL     OW 2032   7.738   1.136  10.559 -0.7021  0.2394 -0.3922
32845SOL    HW1 2033   7.700   1.213  10.601 -2.5505  0.0612 -1.5987
32845SOL    HW2 2034   7.686   1.063  10.593 -0.4668 -0.2055 -0.9818
32846SOL     OW 2035   4.071   9.420   4.439 -0.5787 -0.9117  0.2797
32846SOL    HW1 2036   4.042   9.507   4.412  0.7747 -0.0359  1.5061
32846SOL    HW2 2037   4.116   9.385   4.362  1.4913  0.7368  0.6575
32847SOL     OW 2038   7.707   0.168   2.783 -0.6787  0.3018 -0.5742
32847SOL    HW1 2039   7.634   0.199   2.835  0.5328  2.1499  0.1081
32847SOL    HW2 2040   7.671   0.095   2.731 -2.8598  0.9147  0.0072
32848SOL     OW 2041   9.118   1.189   7.128 -0.2765 -0.4636 -0.4417
32848SOL    HW1 2042   9.036   1.160   7.089 -0.6340  1.4254 -1.1939
32848SOL    HW2 2043   9.092   1.244   7.202  0.2277  1.2850 -1.5096
32849SOL     OW 2044   3.401   2.825  10.809 -0.2185  0.2694 -0.4834
32849SOL    HW1 2045   3.374   2.787  10.725 -0.7561  1.7324 -1.0082
32849SOL    HW2 2046   3.332   2.889  10.830 -0.4217 -0.4947  1.3991
32850SOL     OW 2047   9.347   4.189  10.141  0.4541  0.2461 -0.1009
32850SOL    HW1 2048   9.422   4.225  10.187  2.1198 -0.9514 -1.7199
32850SOL    HW2 2049   9.292   4.151  10.209  0.9962  1.6570  1.1672
32851SOL     OW 2050   6.777   3.241   4.205 -0.0464  0.0310 -0.9817
32851SOL    HW1 2051   6.719   3.197   4.267  0.6959 -1.2183 -1.1393
32851SOL    HW2 2052   6.767   3.334   4.225 -1.8452 -0.1651 -0.8059
32852SOL     OW 2053   3.401   7.999   6.785 -0.3935 -0.1522  0.3419
32852SOL    HW1 2054   3.465   8.030   6.848 -0.0116 -0.0536 -0.0893
32852SOL    HW2 2055   3.382   7.909   6.811 -1.0198  0.2134  1.2099
32853SOL     OW 2056   6.246  10.757   6.359 -0.3167  0.0124  0.1898
32853SOL    HW1 2057   6.150  10.752   6.351 -0.3142  0.8489 -0.4864
32853SOL    HW2 2058   6.277  10.676   6.319 -0.7291 -0.0805  0.0474
32854SOL     OW 2059  10.962   1.989   8.779 -0.0045  0.0446  0.4804
32854SOL    HW1 2060  10.903   2.048   8.827 -0.2312  0.7169 -0.5910
32854SOL    HW2 2061  11.014   1.947   8.847 -0.1440  1.1639  1.3039
32855SOL     OW 2062  10.727   8.937   6.492 -0.4606 -0.0952  0.0938
32855SOL    HW1 2063  10.744   9.030   6.503  1.5228 -0.4111  0.0838
32855SOL    HW2 2064  10.703   8.927   6.400  2.2873  0.0764 -0.7201
32856SOL     OW 2065   1.525   5.441  10.379 -0.0162 -0.1806 -0.3251
32856SOL    HW1 2066   1.458   5.407  10.320  0.6489  0.4738 -1.4990
32856SOL    HW2 2067   1.478   5.465  10.458 -0.9932 -0.7238 -0.7216
32857SOL     OW 2068  10.594   0.965   8.309 -0.4437  0.1119  0.7723
32857SOL    HW1 2069  10.647   0.959   8.389  0.9550 -1.1955 -0.1757
32857SOL    HW2 2070  10.601   0.878   8.270 -0.0504  1.0490 -1.3894
32858SOL     OW 2071   2.666   6.218  10.422  0.2317  0.4248 -0.1652
32858SOL    HW1 2072   2.713   6.150  10.469 -1.3380 -0.1594  0.6298
32858SOL    HW2 2073   2.577   6.215  10.458  0.1312  2.9741 -0.0037
32859SOL     OW 2074   1.027   7.011   2.558 -0.2426 -0.2943 -0.1476
32859SOL    HW1 2075   1.049   7.009   2.651  0.2960 -1.6942 -0.2740
32859SOL    HW2 2076   1.053   6.924   2.526  0.0096  0.3302 -1.6989
32860SOL     OW 2077   9.446   2.002   6.976 -0.1338  0.7151  0.7719
32860SOL    HW1 2078   9.507   2.075   6.964 -0.5710  0.9330 -0.1428
32860SOL    HW2 2079   9.392   2.002   6.898  0.9628 -1.6638 -0.0690
32861SOL     OW 2080   4.087   4.134   9.567 -0.0328  0.3934  0.0956
32861SOL    HW1 2081   4.061   4.223   9.588  0.0304  0.0871  1.5791
32861SOL    HW2 2082   4.032   4.110   9.492 -1.5117  0.9758  0.9472
32862SOL     OW 2083   3.645   3.994   4.802  0.4077  0.2763 -0.0419
32862SOL    HW1 2084   3.677   3.906   4.819 -0.2105 -0.4705 -2.3551
32862SOL    HW2 2085   3.571   4.005   4.862  0.5065 -0.7681  0.2917
32863SOL     OW 2086   8.753   4.545   7.112  0.2937  0.4424  0.7587
32863SOL    HW1 2087   8.689   4.481   7.080  0.8067 -1.7750  3.7505
32863SOL    HW2 2088   8.825   4.541   7.049 -1.3144  1.0508 -1.2262
32864SOL     OW 2089   2.164   3.370   0.128 -0.0524  0.5017 -0.5105
32864SOL    HW1 2090   2.075   3.380   0.163 -0.5144  0.3453 -1.5681
32864SOL    HW2 2091   2.205   3.455   0.140  0.6961 -0.2070  2.6454
32865SOL     OW 2092   6.137   1.056   3.619  0.3913  0.3698  0.0349
32865SOL    HW1 2093   6.059   1.015   3.655  0.5513 -2.2737 -2.2338
32865SOL    HW2 2094   6.210   1.007   3.657  0.7160  0.1603 -0.8219
32866SOL     OW 2095   5.095   2.476   6.303 -0.4854  0.0732  0.5062
32866SOL    HW1 2096   5.013   2.525   6.315  0.4504  1.7531  0.3061
32866SOL    HW2 2097   5.108   2.472   6.209  0.2129  0.7782  0.5649
32867SOL     OW 2098   9.971   5.383   7.988  0.2968 -0.2679  0.1960
32867SOL    HW1 2099  10.046   5.323   7.997  1.5036  1.1461 -0.0297
32867SOL    HW2 2100   9.928   5.355   7.907  1.2396 -0.4166 -0.2647
32868SOL     OW 2101   1.203   9.701   4.078 -0.1493 -0.1270  0.0137
32868SOL    HW1 2102   1.291   9.664   4.080 -0.4518 -1.0497 -2.0518
32868SOL    HW2 2103   1.155   9.654   4.146  0.1116 -1.9305 -1.0028
32869SOL     OW 2104   3.029   5.161   8.086 -0.2845 -0.0084 -0.1850
32869SOL    HW1 2105   2.943   5.196   8.061  0.5479  1.4332 -1.1811
32869SOL    HW2 2106   3.039   5.185   8.178 -0.2232  1.4846 -0.5399
32870SOL     OW 2107  10.633   9.162   4.478  0.2779  0.7906 -0.0847
32870SOL    HW1 2108  10.726   9.163   4.500  0.0037  1.0767  1.1130
32870SOL    HW2 2109  10.630   9.180   4.384  1.4437  0.4153 -0.2035
32871SOL     OW 2110   6.161   3.085   0.950 -0.2322 -0.0496  0.2253
32871SOL    HW1 2111   6.169   3.074   1.045 -0.8690  0.0473  0.2976
32871SOL    HW2 2112   6.188   3.001   0.914  2.8192  0.7726  0.3066
32872SOL     OW 2113   7.449   2.225   3.703 -0.0690  0.2695  1.1817
32872SOL    HW1 2114   7.461   2.303   3.649 -0.5218  0.8703  1.9118
32872SOL    HW2 2115   7.360   2.195   3.682  0.5292 -0.7597  0.0337
32873SOL     OW 2116   1.589   6.335   3.646 -0.1837 -0.5109 -0.6838
32873SOL    HW1 2117   1.647   6.271   3.604  1.6048  1.1850 -0.9616
32873SOL    HW2 2118   1.518   6.347   3.583  0.0847 -1.3051 -1.1586
32874SOL     OW 2119   3.986  10.284   1.707 -0.2823 -0.0336 -0.0660
32874SOL    HW1 2120   4.007  10.247   1.793 -0.1836  0.6749  0.2261
32874SOL    HW2 2121   3.911  10.234   1.676  0.4230 -1.0986 -0.1108
32875SOL     OW 2122   1.888   6.852   9.088 -0.1720  0.0414 -0.4455
32875SOL    HW1 2123   1.869   6.806   9.170 -0.0454  0.7579 -0.0100
32875SOL    HW2 2124   1.967   6.902   9.106  2.8059 -3.4863 -2.4632
32876SOL     OW 2125   8.611  10.765   7.424  0.3441  1.0854 -0.1980
32876SOL    HW1 2126   8.572  10.791   7.341 -0.2699 -0.7737 -0.5378
32876SOL    HW2 2127   8.642  10.676   7.410 -1.2819  0.0666  2.0069
32877SOL     OW 2128   5.088   6.150   0.517  0.3330 -0.0688  0.6950
32877SOL    HW1 2129   5.070   6.198   0.436 -0.1294  0.3206  1.0260
32877SOL    HW2 2130   5.003   6.142   0.560  0.7875  1.0409  1.8542
32878SOL     OW 2131  10.718   3.915   1.872 -0.3025 -0.2177  0.2661
32878SOL    HW1 2132  10.639   3.861   1.865 -0.7288  0.1338  1.9506
32878SOL    HW2 2133  10.780   3.860   1.920  0.3350 -0.3275 -0.6681
32879SOL     OW 2134   6.814   2.295   8.329 -0.5698  0.2350  0.0924
32879SOL    HW1 2135   6.795   2.345   8.408 -1.8876 -0.3690  0.1870
32879SOL    HW2 2136   6.904   2.266   8.340 -0.0670  1.8612  0.4173
32880SOL     OW 2137   7.910   6.466  10.749  0.1025  0.0965  0.5734
32880SOL    HW1 2138   7.879   6.552  10.721  0.6446  0.6405  1.6134
32880SOL    HW2 2139   7.832   6.410  10.744 -0.1147  0.4661 -0.7414
32881SOL     OW 2140   2.808   9.007   9.344  0.1225  0.3913 -0.0977
32881SOL    HW1 2141   2.771   9.019   9.431  0.3510 -0.4868  0.1364
32881SOL    HW2 2142   2.755   8.937   9.305  0.9241 -0.2187 -0.1134
32882SOL     OW 2143   6.312   9.475   6.191 -0.0092 -0.0805  0.4180
32882SOL    HW1 2144   6.374   9.522   6.247 -0.8801  1.5941  0.0731
32882SOL    HW2 2145   6.241   9.450   6.251  1.3412 -2.8180  0.9976
32883SOL     OW 2146   1.752   8.365   8.962 -0.0755 -0.3778  0.1426
32883SOL    HW1 2147   1.771   8.371   9.056 -0.6350 -2.2859  0.4125
32883SOL    HW2 2148   1.693   8.439   8.945  0.5929  0.4111  1.1195
32884SOL     OW 2149   6.734   6.771   9.111 -0.0654 -0.5603 -0.3868
32884SOL    HW1 2150   6.781   6.721   9.178  0.8879  1.3164  0.4118
32884SOL    HW2 2151   6.772   6.740   9.029  0.3803 -1.2585  0.0649
32885SOL     OW 2152   7.122   5.314   4.837 -0.5595 -0.0971 -0.0415
32885SOL    HW1 2153   7.183   5.268   4.779 -0.6608 -1.3777  0.8362
32885SOL    HW2 2154   7.105   5.397   4.792  0.9937 -0.1614 -0.8186
32886SOL     OW 2155   6.774   0.398   6.787 -0.8359 -0.5790 -0.1278
32886SOL    HW1 2156   6.798   0.466   6.724 -0.5073 -1.2956 -0.7971
32886SOL    HW2 2157   6.686   0.371   6.761 -1.4743  0.4411  0.9050
32887SOL     OW 2158  10.224   5.884   7.326  0.2951 -0.2146 -1.1642
32887SOL    HW1 2159  10.255   5.971   7.350  3.5121 -1.3370 -0.8278
32887SOL    HW2 2160  10.285   5.824   7.368 -2.7987 -2.8015  0.0355
32888SOL     OW 2161   3.997   0.591   0.886  0.1614  0.1788  0.5609
32888SOL    HW1 2162   4.039   0.577   0.971  0.8239 -1.3630  0.0192
32888SOL    HW2 2163   3.996   0.504   0.845 -2.3846  0.3902 -0.0073
32889SOL     OW 2164   8.425   4.079   3.077 -0.3718  0.1754  0.2021
32889SOL    HW1 2165   8.330   4.078   3.085 -0.4596  0.1177 -0.6961
32889SOL    HW2 2166   8.448   4.172   3.074 -0.4803  0.1874 -0.3491
32890SOL     OW 2167   2.118   2.313   3.520 -0.1847  0.0797  0.1438
32890SOL    HW1 2168   2.134   2.304   3.614 -1.9346  0.0142  0.4661
32890SOL    HW2 2169   2.205   2.316   3.482  0.6124 -2.5218  1.5177
32891SOL     OW 2170   5.422  10.559   6.960  0.1986 -0.1419  0.8655
32891SOL    HW1 2171   5.493  10.508   6.921  1.5212  1.2552  1.3671
32891SOL    HW2 2172   5.416  10.527   7.050 -0.8360 -1.2683  0.4334
32892SOL     OW 2173   0.414   6.247   5.322 -0.0626 -0.2661  0.2904
32892SOL    HW1 2174   0.452   6.173   5.274 -2.4864 -1.1760 -0.4270
32892SOL    HW2 2175   0.324   6.218   5.340 -1.6835  3.1038 -1.4763
32893SOL     OW 2176   4.363   1.566  10.327  0.0545  0.0621 -0.0521
32893SOL    HW1 2177   4.436   1.550  10.267  1.3980  0.2166  1.4746
32893SOL    HW2 2178   4.404   1.590  10.410 -1.6283 -2.3657  1.6481
32894SOL     OW 2179   1.202   4.306   1.543  0.2751  0.7737 -0.2784
32894SOL    HW1 2180   1.282   4.260   1.571  0.6521 -1.2099 -3.9660
32894SOL    HW2 2181   1.212   4.315   1.449 -2.3386  3.7471 -0.4073
32895SOL     OW 2182   9.104   9.737   0.785 -0.0190 -0.0718  0.2515
32895SOL    HW1 2183   9.061   9.789   0.852 -2.5877 -0.0523 -1.2948
32895SOL    HW2 2184   9.189   9.779   0.774 -0.4314  1.3249  1.8420
32896SOL     OW 2185   4.095   2.428  10.440  0.3540 -0.6773 -0.3124
32896SOL    HW1 2186   4.114   2.522  10.431  0.6954 -0.7230 -0.0971
32896SOL    HW2 2187   4.181   2.387  10.444  0.2266 -0.8517  1.0886
32897SOL     OW 2188   7.323  10.395   7.361  0.4704  0.2666 -0.1608
32897SOL    HW1 2189   7.304  10.388   7.267 -0.1244 -0.6497  0.0191
32897SOL    HW2 2190   7.412  10.362   7.370 -0.0618 -1.2362 -0.1907
32898SOL     OW 2191   3.517   3.251   4.836  0.5356 -0.5668  0.1168
32898SOL    HW1 2192   3.428   3.253   4.799  0.8855  1.2923 -0.7302
32898SOL    HW2 2193   3.574   3.240   4.760  1.1112  0.1058  0.4418
32899SOL     OW 2194   9.124   8.747   2.577  0.3502 -0.3601 -0.1317
32899SOL    HW1 2195   9.122   8.663   2.624  1.7930 -0.3715 -0.0408
32899SOL    HW2 2196   9.080   8.808   2.636  0.6656 -0.7302  0.4953
32900SOL     OW 2197   3.325  10.080   1.997 -0.3179 -0.8144  0.2808
32900SOL    HW1 2198   3.337  10.063   1.904  0.8138  0.8228  0.0849
32900SOL    HW2 2199   3.410  10.061   2.036  0.1390  1.3873  0.4776
32901SOL     OW 2200   0.378   7.458   5.353 -0.7462 -0.2386  0.2736
32901SOL    HW1 2201   0.344   7.436   5.266 -0.3142 -1.0568  0.3046
32901SOL    HW2 2202   0.338   7.394   5.412  0.1362 -0.6485  0.4394
32902SOL     OW 2203   1.288   2.428   5.348  0.3131  0.6959 -0.1219
32902SOL    HW1 2204   1.362   2.375   5.318  0.2604 -1.7058  3.3857
32902SOL    HW2 2205   1.298   2.512   5.302  3.9596 -0.2448 -1.3741
32903SOL     OW 2206   6.684   0.097   1.518 -0.2901 -0.5732 -0.1460
32903SOL    HW1 2207   6.619   0.033   1.491  0.1700 -0.5955 -1.2444
32903SOL    HW2 2208   6.697   0.080   1.612 -1.1556 -1.1861 -0.1280
32904SOL     OW 2209   9.774   1.254   9.374 -0.6311  0.3129  0.2831
32904SOL    HW1 2210   9.796   1.294   9.290  1.0357 -3.0590 -1.0847
32904SOL    HW2 2211   9.700   1.196   9.354 -0.1025 -0.6691  1.0481
32905SOL     OW 2212   6.575   8.911   2.217  0.8046  0.3205  0.0072
32905SOL    HW1 2213   6.612   8.826   2.242 -1.1906 -0.6769 -0.2188
32905SOL    HW2 2214   6.523   8.937   2.293  0.7201  0.9044 -0.2494
32906SOL     OW 2215   0.769   1.670   9.331  0.3386  0.3874 -0.3483
32906SOL    HW1 2216   0.770   1.723   9.411  0.1019  0.0306 -0.1049
32906SOL    HW2 2217   0.862   1.660   9.308  0.6164 -1.6976  1.3631
32907SOL     OW 2218   1.300  10.236   9.232  0.0184 -0.2804 -0.0502
32907SOL    HW1 2219   1.281  10.168   9.167  0.2827 -0.4766  0.0750
32907SOL    HW2 2220   1.220  10.288   9.236 -0.3108 -0.7861  0.1007
32908SOL     OW 2221   9.520   2.955   4.605 -0.2602  0.0794 -0.0288
32908SOL    HW1 2222   9.484   3.025   4.551 -0.9280  0.2927  0.6678
32908SOL    HW2 2223   9.615   2.967   4.601 -0.2801 -0.1559 -1.4566
32909SOL     OW 2224   9.707   0.190   0.869  0.2065  0.2078 -0.2714
32909SOL    HW1 2225   9.664   0.105   0.860  0.7275 -0.1687  0.6799
32909SOL    HW2 2226   9.751   0.203   0.786  0.2740 -0.5385 -0.3605
32910SOL     OW 2227   3.397   2.581   6.108 -0.7573 -0.4915 -0.1860
32910SOL    HW1 2228   3.472   2.632   6.137 -2.6068  1.1923  2.0298
32910SOL    HW2 2229   3.433   2.496   6.083  1.9028  0.4278  0.2285
32911SOL     OW 2230   3.251   5.302   1.726 -0.8137 -0.2684  0.2862
32911SOL    HW1 2231   3.245   5.232   1.662 -1.1379 -0.0334  0.0529
32911SOL    HW2 2232   3.305   5.267   1.797  0.3010 -0.2269 -0.5185
32912SOL     OW 2233   5.604   0.367   2.653 -0.0772 -0.0814 -0.1762
32912SOL    HW1 2234   5.583   0.296   2.713  0.8160 -1.6795 -1.6814
32912SOL    HW2 2235   5.548   0.352   2.577 -1.2031  1.9137  0.1786
32913SOL     OW 2236   4.742   7.285  10.116  0.3742  0.0336 -0.6571
32913SOL    HW1 2237   4.721   7.352  10.181  0.8566  1.4578 -1.9387
32913SOL    HW2 2238   4.838   7.281  10.116  0.4149  0.6574 -1.8567
32914SOL     OW 2239   7.620  10.086   7.623 -0.1774 -0.1463  0.1515
32914SOL    HW1 2240   7.666  10.165   7.650  0.3698 -1.2990  3.0223
32914SOL    HW2 2241   7.527  10.105   7.640  0.0739 -0.5057  2.2312
32915SOL     OW 2242   2.090   9.194   7.591 -0.1461 -0.3493  0.5371
32915SOL    HW1 2243   2.179   9.204   7.624  0.4571 -1.3646 -0.6697
32915SOL    HW2 2244   2.096   9.219   7.499 -0.4880 -2.8502 -0.2498
32916SOL     OW 2245   8.014  10.887   5.280  0.4887  0.2268  0.5310
32916SOL    HW1 2246   7.925  10.921   5.265 -0.2820 -2.0374 -0.4063
32916SOL    HW2 2247   8.011  10.854   5.370 -0.5027 -2.1699 -0.3104
32917SOL     OW 2248   8.362   7.822   9.141  0.1477 -0.2472  0.7461
32917SOL    HW1 2249   8.286   7.771   9.168  1.0826 -2.1269 -0.0393
32917SOL    HW2 2250   8.335   7.866   9.060  0.4151 -2.3255 -0.5249
32918SOL     OW 2251   0.012   9.749   6.057 -0.0517 -0.4217  0.1995
32918SOL    HW1 2252   0.091   9.696   6.046 -0.3750 -0.6400 -1.2449
32918SOL    HW2 2253   0.043   9.830   6.097  0.4726 -1.5924  2.3608
32919SOL     OW 2254   1.325   2.299   3.338  0.4660 -0.4490 -0.1007
32919SOL    HW1 2255   1.295   2.239   3.407 -1.2966  1.4852  0.9140
32919SOL    HW2 2256   1.260   2.287   3.268  0.3903 -0.0805 -0.0928
32920SOL     OW 2257   4.137   4.541   6.532 -0.5319  0.5480 -0.3681
32920SOL    HW1 2258   4.169   4.485   6.461  0.1998  0.6377 -0.1123
32920SOL    HW2 2259   4.115   4.624   6.490 -1.3009  0.1928 -0.6941
32921SOL     OW 2260   0.396   0.980   1.056 -0.0448 -0.4328 -0.6072
32921SOL    HW1 2261   0.427   0.979   1.146  2.2174 -2.3571 -1.3058
32921SOL    HW2 2262   0.342   0.902   1.048  2.5494 -2.2939 -1.6483
32922SOL     OW 2263   4.497   1.729   1.676  0.3232  0.6245 -0.6349
32922SOL    HW1 2264   4.528   1.738   1.766  1.4524  0.5382 -0.9989
32922SOL    HW2 2265   4.535   1.647   1.645 -0.0030  0.6802 -1.2123
32923SOL     OW 2266   5.562   3.737   0.883 -0.2062 -0.0354 -0.4582
32923SOL    HW1 2267   5.561   3.696   0.797 -1.8393  1.6895 -1.3215
32923SOL    HW2 2268   5.654   3.741   0.907  0.1279 -2.9838 -0.8559
32924SOL     OW 2269   3.058   5.435   6.503 -0.2226 -0.1963 -0.1209
32924SOL    HW1 2270   2.986   5.498   6.497  0.6028  0.7779 -0.1098
32924SOL    HW2 2271   3.022   5.362   6.553 -1.8482 -0.6852 -1.8762
32925SOL     OW 2272   6.103   6.686   5.501  0.1619  0.0555  0.1335
32925SOL    HW1 2273   6.053   6.624   5.448  0.4614  0.9135 -1.1892
32925SOL    HW2 2274   6.193   6.655   5.495  0.1432 -0.0789  0.4979
32926SOL     OW 2275   2.242   2.840   0.981 -0.9597  0.6318  0.0638
32926SOL    HW1 2276   2.201   2.819   1.065 -2.3468  1.4260 -0.3837
32926SOL    HW2 2277   2.178   2.895   0.936 -1.4113 -1.8024 -2.5569
32927SOL     OW 2278  10.645   1.977   7.486  0.0177 -0.3362 -0.3075
32927SOL    HW1 2279  10.564   2.007   7.444  0.9197  0.8315 -1.2767
32927SOL    HW2 2280  10.713   1.993   7.421  0.6676 -4.2396 -0.8080
32928SOL     OW 2281   8.499   2.850   6.037 -0.2444  0.3876  0.5488
32928SOL    HW1 2282   8.459   2.781   6.089 -1.2472  0.7099  0.2296
32928SOL    HW2 2283   8.587   2.860   6.074  1.6062 -3.8627 -1.9296
32929SOL     OW 2284   1.798   4.705   1.183  0.6848 -0.0181  0.5445
32929SOL    HW1 2285   1.797   4.800   1.167  0.5065 -0.1612 -0.3395
32929SOL    HW2 2286   1.706   4.680   1.183  0.7078 -0.1347  1.2166
32930SOL     OW 2287   9.534   3.020   0.565  0.4701  0.2942  0.1706
32930SOL    HW1 2288   9.535   3.106   0.522 -0.5788  0.1769 -0.1291
32930SOL    HW2 2289   9.454   2.978   0.532  1.3297 -1.0919 -0.2485
32931SOL     OW 2290   7.701   9.270   5.393 -0.3500  0.5075  0.0286
32931SOL    HW1 2291   7.618   9.313   5.412  0.4151  1.8589  0.4820
32931SOL    HW2 2292   7.766   9.322   5.441  0.7236 -0.6882 -0.0836
32932SOL     OW 2293   7.342   2.797  10.645  0.4975  0.1496  0.0667
32932SOL    HW1 2294   7.289   2.877  10.646 -1.3335 -0.9430 -1.3894
32932SOL    HW2 2295   7.432   2.827  10.657  0.2577  2.8099 -3.2944
32933SOL     OW 2296  10.541   1.535  10.168 -0.4612  0.1241 -0.3285
32933SOL    HW1 2297  10.596   1.473  10.214 -0.3623  0.5805  0.1850
32933SOL    HW2 2298  10.523   1.494  10.084  0.1140 -0.3165 -0.2411
32934SOL     OW 2299   1.999   5.430   7.693 -0.0148  0.2357 -0.6950
32934SOL    HW1 2300   1.926   5.368   7.698  1.3443 -1.3347  0.5550
32934SOL    HW2 2301   2.026   5.428   7.601 -1.1197  0.3516 -1.0365
32935SOL     OW 2302   1.287   0.946   5.076  0.2217 -0.8786  0.1900
32935SOL    HW1 2303   1.273   0.972   4.985  1.5123  0.6678  0.3887
32935SOL    HW2 2304   1.204   0.908   5.104 -0.8238  0.4106 -1.0574
32936SOL     OW 2305   6.508   9.585   4.806  0.0037  0.1572  0.1723
32936SOL    HW1 2306   6.561   9.513   4.842 -0.9191 -1.7999 -2.0932
32936SOL    HW2 2307   6.525   9.583   4.712 -0.8475  2.2888 -0.0846
32937SOL     OW 2308   8.058   8.055   0.236  0.0897  0.0026 -0.0981
32937SOL    HW1 2309   8.099   8.043   0.150  0.4923  1.3526 -0.1185
32937SOL    HW2 2310   8.075   8.146   0.258 -0.8157 -0.0742  1.0074
32938SOL     OW 2311   7.104   0.490   0.332 -0.1805  0.5549 -0.0889
32938SOL    HW1 2312   7.131   0.401   0.353 -2.5017 -0.4299 -1.0182
32938SOL    HW2 2313   7.011   0.493   0.353 -0.8825  1.7936 -2.8998
32939SOL     OW 2314   7.881   4.918   2.482  0.4297 -0.7786  0.8327
32939SOL    HW1 2315   7.830   4.974   2.541  0.7633 -0.1446  0.5238
32939SOL    HW2 2316   7.843   4.831   2.493 -2.1113  0.0075 -0.9200
32940SOL     OW 2317   4.023   2.154   0.664  0.0684 -0.3310 -0.2573
32940SOL    HW1 2318   3.980   2.077   0.700  0.6629 -0.5842 -0.0846
32940SOL    HW2 2319   4.076   2.188   0.736 -1.7054  1.4108  0.3244
32941SOL     OW 2320   6.291   8.036   2.800 -0.1662  0.0791 -0.0949
32941SOL    HW1 2321   6.248   8.101   2.745 -0.2045 -0.3526 -0.5797
32941SOL    HW2 2322   6.368   8.081   2.835  0.2960  0.1183 -1.1279
32942SOL     OW 2323   5.012   4.856  10.101  0.0323  0.2580  0.0203
32942SOL    HW1 2324   5.035   4.791  10.035  1.9594  0.4199  0.4706
32942SOL    HW2 2325   5.066   4.932  10.080 -1.6180  1.4859 -0.0383
32943SOL     OW 2326  10.940   1.440  10.823  0.6583  0.2642 -0.1213
32943SOL    HW1 2327  11.026   1.410  10.850  0.0442  1.5963  4.1327
32943SOL    HW2 2328  10.954   1.528  10.789  1.0257  0.3369  0.2197
32944SOL     OW 2329   5.955   8.488   6.729  0.9693  0.0603 -0.0731
32944SOL    HW1 2330   5.872   8.444   6.748 -1.4177  3.8666 -0.6297
32944SOL    HW2 2331   5.993   8.436   6.658 -1.4542 -1.2628 -0.5427
32945SOL     OW 2332   8.146   0.387   0.007 -0.0584 -0.2091  0.5651
32945SOL    HW1 2333   8.059   0.348  -0.004  0.6615 -1.8972  0.5692
32945SOL    HW2 2334   8.193   0.325   0.062  1.1598  0.6930  0.5809
32946SOL     OW 2335   1.436   5.956   2.825  0.6002  0.0984  0.1409
32946SOL    HW1 2336   1.389   6.032   2.792  0.5272 -0.1920 -0.4361
32946SOL    HW2 2337   1.395   5.937   2.909 -1.0372 -0.7675 -0.7925
32947SOL     OW 2338   6.128   0.412   2.428 -0.6271 -0.0802  0.8075
32947SOL    HW1 2339   6.056   0.400   2.489 -0.7198 -0.4367  0.6326
32947SOL    HW2 2340   6.086   0.425   2.343 -0.5166  1.1021  0.9215
32948SOL     OW 2341   6.988   2.558   5.112 -0.0325  0.5354  0.1150
32948SOL    HW1 2342   6.894   2.542   5.098  0.2350 -1.3533  0.3171
32948SOL    HW2 2343   6.993   2.596   5.200 -0.4918 -0.8291  0.7519
32949SOL     OW 2344   7.884   7.334   9.012  0.1278  0.1217  0.5922
32949SOL    HW1 2345   7.913   7.425   9.008  2.8981 -0.7213 -0.7523
32949SOL    HW2 2346   7.850   7.316   8.925 -0.1732 -0.2141  0.7757
32950SOL     OW 2347   5.437   3.734   5.030 -1.2112  0.2633 -0.0346
32950SOL    HW1 2348   5.484   3.709   5.110 -0.1299  1.1452 -0.3587
32950SOL    HW2 2349   5.476   3.681   4.961 -0.6839  0.9796 -0.3014
32951SOL     OW 2350   4.711   8.952   7.054 -0.1666  0.0241  0.0011
32951SOL    HW1 2351   4.782   8.950   7.118  1.4605 -1.4584 -1.7495
32951SOL    HW2 2352   4.698   8.860   7.030 -1.4082  0.4558 -1.1056
32952SOL     OW 2353  10.868  10.659   1.130  0.1992 -0.3992 -0.2525
32952SOL    HW1 2354  10.829  10.692   1.048  2.5442  0.9735 -0.9339
32952SOL    HW2 2355  10.945  10.611   1.101  1.0550  0.0926  1.1374
32953SOL     OW 2356  10.004   1.980  10.481 -0.6504  0.4462  0.2119
32953SOL    HW1 2357   9.941   1.974  10.408  0.0088 -0.9316 -0.2627
32953SOL    HW2 2358  10.078   2.029  10.444 -1.8213  3.0755  1.0948
32954SOL     OW 2359   9.145  10.391  10.536  0.0530  0.7855  0.2160
32954SOL    HW1 2360   9.053  10.395  10.510 -0.5512 -0.6106  1.9527
32954SOL    HW2 2361   9.143  10.389  10.631  1.8481 -0.1436  0.2787
32955SOL     OW 2362   6.608   3.187   4.392 -0.2313  0.2600 -0.1917
32955SOL    HW1 2363   6.607   3.162   4.485 -0.1306  0.6029 -0.0972
32955SOL    HW2 2364   6.538   3.253   4.384 -1.0045 -0.5839 -0.5940
32956SOL     OW 2365   0.264   6.800   9.155 -0.0633  0.1541 -0.5448
32956SOL    HW1 2366   0.178   6.843   9.154 -1.1340 -1.8037  0.3737
32956SOL    HW2 2367   0.321   6.858   9.105 -1.1195  3.1267  1.3970
32957SOL     OW 2368   8.419   4.914   3.450 -0.6904 -0.1219  0.0285
32957SOL    HW1 2369   8.425   4.824   3.416  0.5940 -0.1576  0.3168
32957SOL    HW2 2370   8.376   4.904   3.535  0.0575 -0.5566  0.3674
32958SOL     OW 2371   4.658   1.297   6.484  0.5966  0.9168 -0.2640
32958SOL    HW1 2372   4.734   1.256   6.526 -2.0466 -2.6960  1.5756
32958SOL    HW2 2373   4.615   1.346   6.554 -1.8614 -2.1190  0.5608
32959SOL     OW 2374   9.691   6.693   0.699  0.0479  0.5268 -0.3112
32959SOL    HW1 2375   9.684   6.760   0.631  0.2013 -1.0189 -1.9006
32959SOL    HW2 2376   9.723   6.615   0.653 -0.1900 -0.6721  1.4724
32960SOL     OW 2377   6.089   9.072   4.224 -0.2016  0.2991 -0.0056
32960SOL    HW1 2378   6.093   8.983   4.189 -1.0452  1.0992 -2.3195
32960SOL    HW2 2379   6.051   9.062   4.311  1.5897 -1.7665  0.6224
32961SOL     OW 2380   8.440   9.397   0.322 -0.0162 -0.0467  0.0540
32961SOL    HW1 2381   8.476   9.357   0.401 -1.5657 -0.5409  0.5611
32961SOL    HW2 2382   8.454   9.491   0.334  0.7312 -0.2002  0.4116
32962SOL     OW 2383   8.560   0.333   8.395  0.0755  0.4037 -0.2844
32962SOL    HW1 2384   8.611   0.401   8.439  0.8806 -0.2732 -0.1559
32962SOL    HW2 2385   8.479   0.327   8.447  1.3036 -0.8927  1.5901
32963SOL     OW 2386   3.866   0.865  10.009 -0.1185  0.4576 -0.0394
32963SOL    HW1 2387   3.851   0.958  10.028  0.6892  0.4748  0.5385
32963SOL    HW2 2388   3.924   0.865   9.933  0.7100  0.4525  0.5760
32964SOL     OW 2389   1.751   5.413   9.289 -0.0109 -0.0688 -0.4244
32964SOL    HW1 2390   1.790   5.496   9.261 -2.0136  1.0191 -0.1441
32964SOL    HW2 2391   1.818   5.374   9.346  2.0375  0.0581 -2.5550
32965SOL     OW 2392   8.040   3.483   7.311 -0.0039 -0.3314  0.0505
32965SOL    HW1 2393   7.948   3.466   7.329 -0.5328  0.0018 -2.0881
32965SOL    HW2 2394   8.045   3.492   7.216  2.0617  0.6827  0.1918
32966SOL     OW 2395   4.731   9.325  10.074  0.1316  0.1792  0.4298
32966SOL    HW1 2396   4.757   9.298   9.986  0.6706 -1.1349  0.9690
32966SOL    HW2 2397   4.813   9.342  10.119 -0.1362  0.6334  0.7530
32967SOL     OW 2398   5.607   1.077   5.251 -0.0580 -0.2857  0.3062
32967SOL    HW1 2399   5.630   1.170   5.256 -1.1386  0.0137  0.0228
32967SOL    HW2 2400   5.662   1.043   5.180 -1.3203  0.7023 -1.2336
32968SOL     OW 2401   0.399   6.120   4.297  0.2925  0.3068 -0.5652
32968SOL    HW1 2402   0.411   6.030   4.328  0.3950  1.0886  1.9121
32968SOL    HW2 2403   0.307   6.139   4.317 -0.7181 -0.2445 -4.1242
32969SOL     OW 2404   8.469  10.240   1.683 -0.0998  0.1944 -0.7270
32969SOL    HW1 2405   8.412  10.178   1.637  0.3242  0.6792 -1.9517
32969SOL    HW2 2406   8.485  10.310   1.619  1.5768  0.2387 -0.3086
32970SOL     OW 2407   2.858   7.694   5.910 -0.2100 -0.2850  0.6682
32970SOL    HW1 2408   2.786   7.747   5.944 -0.2073  0.5985 -0.6575
32970SOL    HW2 2409   2.931   7.755   5.901  0.1116 -0.7380  0.1298
32971SOL     OW 2410   5.540   4.689   2.429 -0.0143  0.4524 -0.0478
32971SOL    HW1 2411   5.587   4.686   2.513 -1.8697 -1.9874  1.0034
32971SOL    HW2 2412   5.448   4.686   2.452 -0.7484  2.7217 -2.1639
32972SOL     OW 2413   2.560   7.408   9.988  0.5297  0.4852 -0.3010
32972SOL    HW1 2414   2.541   7.368   9.903  0.5380  0.4972 -0.3084
32972SOL    HW2 2415   2.572   7.501   9.968  2.2154  0.2433 -0.5440
32973SOL     OW 2416   3.818  10.161   7.158 -0.7063  0.1066  0.2556
32973SOL    HW1 2417   3.841  10.098   7.090 -1.6200  0.3162 -0.2639
32973SOL    HW2 2418   3.723  10.152   7.168 -0.7085  0.7140  0.8707
32974SOL     OW 2419   6.991   6.167   4.193  0.1389  0.0701  0.1288
32974SOL    HW1 2420   6.944   6.157   4.276  0.8617  1.4669  0.7324
32974SOL    HW2 2421   6.940   6.116   4.130 -1.5723  0.6593  0.9881
32975SOL     OW 2422   5.434   4.545   6.842 -0.4781 -0.3869  0.5978
32975SOL    HW1 2423   5.379   4.567   6.767 -0.7426  0.0146  0.9066
32975SOL    HW2 2424   5.409   4.455   6.864 -0.6456 -0.3849  0.4226
32976SOL     OW 2425   8.248   7.748   8.654  0.1310 -0.0401 -0.6636
32976SOL    HW1 2426   8.191   7.711   8.721  0.7240 -0.0396 -0.1484
32976SOL    HW2 2427   8.191   7.801   8.600 -0.0743  1.4386  0.9078
32977SOL     OW 2428  10.543   8.206   7.413  0.8373 -0.2034 -0.4009
32977SOL    HW1 2429  10.456   8.196   7.373  0.0519  0.4003  1.0752
32977SOL    HW2 2430  10.592   8.260   7.351  0.1890 -0.6106 -1.2884
32978SOL     OW 2431   9.231   8.366   9.836  0.0396  0.4448 -0.4573
32978SOL    HW1 2432   9.244   8.342   9.744 -0.7145  0.1270 -0.4877
32978SOL    HW2 2433   9.240   8.461   9.837  0.2998  0.4283 -0.8135
32979SOL     OW 2434  10.464  10.743   6.629 -0.3962  0.0582  0.5144
32979SOL    HW1 2435  10.537  10.782   6.582 -0.4442 -1.8128 -1.2142
32979SOL    HW2 2436  10.386  10.772   6.581 -0.4957 -1.2512 -0.1553
32980SOL     OW 2437   8.399   2.144   1.187 -0.4133 -0.3622 -0.3294
32980SOL    HW1 2438   8.492   2.128   1.203 -0.2874  0.4314 -0.2687
32980SOL    HW2 2439   8.368   2.064   1.144  0.3969 -0.4401 -0.7821
32981SOL     OW 2440   3.667   5.151   9.153  0.3341 -0.4405 -0.0521
32981SOL    HW1 2441   3.633   5.090   9.218  0.5889 -0.8942 -0.3395
32981SOL    HW2 2442   3.640   5.237   9.185  0.7457 -0.6250  0.8379
32982SOL     OW 2443   6.442   9.797   3.192  0.3664 -0.0295  0.4276
32982SOL    HW1 2444   6.352   9.774   3.169 -0.1352  1.7203  0.4693
32982SOL    HW2 2445   6.493   9.719   3.171 -0.7730 -0.2333 -1.9717
32983SOL     OW 2446   4.136   8.976   5.792  0.1677 -0.1976 -0.0129
32983SOL    HW1 2447   4.127   9.071   5.799 -1.0814 -0.2945 -0.0269
32983SOL    HW2 2448   4.135   8.945   5.882 -0.2878 -0.2582 -0.0368
32984SOL     OW 2449   6.605   6.906   7.888 -0.3985  0.1758 -0.1459
32984SOL    HW1 2450   6.627   6.896   7.980 -1.2013  0.2637  0.0630
32984SOL    HW2 2451   6.672   6.965   7.854 -0.0715  0.1098  0.3674
32985SOL     OW 2452   5.431   3.368   4.161  0.3133 -0.2831 -0.4888
32985SOL    HW1 2453   5.426   3.429   4.087 -0.0067  0.0999 -0.1571
32985SOL    HW2 2454   5.407   3.283   4.124  0.1051 -0.0844 -0.8123
32986SOL     OW 2455   6.167   9.986   7.732 -0.0660 -0.1128  0.3361
32986SOL    HW1 2456   6.119   9.939   7.664 -1.8179 -0.1333  1.5331
32986SOL    HW2 2457   6.237  10.031   7.685 -2.0375  0.9877 -1.7198
32987SOL     OW 2458   8.448   6.116   9.498 -0.1745  0.4562 -0.5774
32987SOL    HW1 2459   8.359   6.094   9.471  0.6640 -1.8861 -1.7350
32987SOL    HW2 2460   8.437   6.172   9.575 -2.6338  2.3653 -2.1773
32988SOL     OW 2461   7.869   2.500  10.601 -0.5451  0.0095 -0.6186
32988SOL    HW1 2462   7.952   2.534  10.633 -0.5999  0.6616 -1.1540
32988SOL    HW2 2463   7.880   2.405  10.602  0.4121  0.1065 -1.2449
32989SOL     OW 2464   0.863   6.203   7.971 -0.1137 -0.5534  0.4468
32989SOL    HW1 2465   0.818   6.126   7.935 -1.8935 -0.3446  2.0603
32989SOL    HW2 2466   0.919   6.167   8.040  0.8847 -0.6081 -0.3580
32990SOL     OW 2467   3.787   7.637   0.455  0.5475 -0.0120  0.3185
32990SOL    HW1 2468   3.763   7.703   0.390  1.2187 -0.2373 -0.1669
32990SOL    HW2 2469   3.777   7.553   0.410  0.7651 -0.1836  0.5853
32991SOL     OW 2470   3.865   2.446   7.026  0.1309 -0.2366  0.3964
32991SOL    HW1 2471   3.896   2.442   6.935  0.3207 -0.3528  0.4641
32991SOL    HW2 2472   3.904   2.526   7.060 -0.1802 -0.0390  0.2900
32992SOL     OW 2473   3.936   7.217   5.351  0.0068 -0.2120 -0.4252
32992SOL    HW1 2474   4.031   7.216   5.359 -0.0266  0.0591  0.0340
32992SOL    HW2 2475   3.907   7.134   5.390  0.0106  0.0227  0.0877
32993SOL     OW 2476   7.686   0.042   4.222 -0.2017  0.5865  0.4044
32993SOL    HW1 2477   7.720   0.132   4.230 -0.3416  0.6974 -0.2290
32993SOL    HW2 2478   7.686   0.024   4.128 -1.2089  0.3215  0.4417
32994SOL     OW 2479   5.994   3.197   4.672 -0.5539 -0.0712 -0.3702
32994SOL    HW1 2480   6.005   3.283   4.713 -0.3771 -0.3850  0.2518
32994SOL    HW2 2481   6.072   3.147   4.698 -1.6241 -1.1034  1.0128
32995SOL     OW 2482   6.193   9.114   4.491  0.1402  0.4898 -0.2051
32995SOL    HW1 2483   6.237   9.139   4.410 -0.1527  2.0743  0.0899
32995SOL    HW2 2484   6.199   9.019   4.493  0.4844  0.4406 -1.8915
32996SOL     OW 2485   2.820   3.791   9.264  0.3850 -0.1090  0.6992
32996SOL    HW1 2486   2.767   3.871   9.268  0.3188 -0.0982 -0.1772
32996SOL    HW2 2487   2.895   3.809   9.321  1.3320  1.3221 -0.9036
32997SOL     OW 2488   9.711   5.316   4.551 -0.6083 -0.7548  0.0312
32997SOL    HW1 2489   9.714   5.235   4.500 -1.0792 -0.6355 -0.1916
32997SOL    HW2 2490   9.679   5.289   4.637 -0.2453 -0.8852  0.1288
32998SOL     OW 2491   1.149   2.119   7.420  0.4002  0.0668 -0.4078
32998SOL    HW1 2492   1.180   2.209   7.427  0.1134  0.1244  0.1774
32998SOL    HW2 2493   1.226   2.066   7.440 -0.0490  0.2126  2.1466
32999SOL     OW 2494   2.680   1.327   8.872  0.3999  0.0162  0.3971
32999SOL    HW1 2495   2.740   1.355   8.802 -0.9516  1.8487 -0.1109
32999SOL    HW2 2496   2.686   1.395   8.938 -2.6510  1.4802 -0.6519
33000SOL     OW 2497   2.308   7.570   8.486  0.1787  0.2054  0.6193
33000SOL    HW1 2498   2.238   7.524   8.532  0.5049 -1.1701 -0.2069
33000SOL    HW2 2499   2.348   7.626   8.553  1.2163 -2.3522  2.2644
33001SOL     OW 2500   1.944   4.966   7.668  0.2464  0.0568 -0.2021
33001SOL    HW1 2501   1.982   4.886   7.631  0.7193  0.8442 -1.4738
33001SOL    HW2 2502   1.993   5.037   7.626 -0.2611  1.0241  0.8032
33002SOL     OW 2503   2.368   1.336  10.468 -0.1490  0.1619 -0.3542
33002SOL    HW1 2504   2.414   1.420  10.455 -0.5326  0.3735 -0.3612
33002SOL    HW2 2505   2.380   1.317  10.561 -1.6334  1.1780  0.0828
33003SOL     OW 2506  11.003   3.329  10.941  0.2259 -0.0128  0.1314
33003SOL    HW1 2507  11.008   3.397  10.874 -1.4976  0.9743  0.9402
33003SOL    HW2 2508  10.948   3.261  10.901 -1.3019  0.8388  0.6994
33004SOL     OW 2509   5.149   1.180   6.949  0.0674 -0.5392  0.0943
33004SOL    HW1 2510   5.210   1.186   6.876  0.4888 -3.2499  0.1243
33004SOL    HW2 2511   5.201   1.207   7.025  0.2580  0.2612 -0.3131
33005SOL     OW 2512   7.476   0.564   9.093  0.3424 -0.2878  0.0848
33005SOL    HW1 2513   7.543   0.626   9.064  0.0052  1.2153  2.3115
33005SOL    HW2 2514   7.454   0.515   9.014  3.2477 -0.0996 -0.9814
33006SOL     OW 2515   6.001   4.277   4.817 -0.0419 -0.4879  0.2622
33006SOL    HW1 2516   6.020   4.359   4.862  0.6187 -0.9115  0.7687
33006SOL    HW2 2517   5.951   4.226   4.880 -2.8732  0.5166 -0.9595
33007SOL     OW 2518   1.850   8.593   5.541  0.1631 -0.3488 -0.3877
33007SOL    HW1 2519   1.893   8.535   5.603  0.0000 -0.6561 -0.5571
33007SOL    HW2 2520   1.910   8.667   5.531  0.2921 -0.4058 -0.0382
33008SOL     OW 2521   5.536   0.622   1.416  0.6904  0.3078  0.0387
33008SOL    HW1 2522   5.518   0.601   1.507  0.2386  0.9616  0.1019
33008SOL    HW2 2523   5.466   0.578   1.367 -0.2267  1.5846  0.1672
33009SOL     OW 2524   6.244   7.310   2.530  0.4330  0.1459  0.5187
33009SOL    HW1 2525   6.205   7.396   2.548 -0.7668  0.0452 -1.3076
33009SOL    HW2 2526   6.185   7.270   2.466  0.5367 -2.3736  1.8693
33010SOL     OW 2527   8.230   3.290   6.208 -0.0225 -0.2980  0.1094
33010SOL    HW1 2528   8.306   3.238   6.233 -0.5058 -0.8480  0.4495
33010SOL    HW2 2529   8.180   3.234   6.150  0.8412  0.7900 -1.7814
33011SOL     OW 2530   2.811   9.474   5.284 -0.1874  0.0707  0.4152
33011SOL    HW1 2531   2.821   9.547   5.344 -0.4326 -0.1902  0.7780
33011SOL    HW2 2532   2.838   9.508   5.199  1.3862  0.0792  0.8996
33012SOL     OW 2533   4.869   7.237   4.488  0.4944  0.7626  0.2883
33012SOL    HW1 2534   4.846   7.202   4.574  1.4490  0.5108  0.4573
33012SOL    HW2 2535   4.797   7.295   4.466  0.6402  1.5151  1.6557
33013SOL     OW 2536   3.908   9.698   2.693  0.0062 -0.1684  0.2082
33013SOL    HW1 2537   3.996   9.683   2.727  0.0526  0.0130  0.1693
33013SOL    HW2 2538   3.898   9.793   2.693 -0.8118 -0.2283  1.7681
33014SOL     OW 2539   9.802   4.225   7.330  0.0553 -0.1904 -0.5267
33014SOL    HW1 2540   9.835   4.149   7.282 -0.0418 -0.8026  0.3482
33014SOL    HW2 2541   9.799   4.295   7.265  2.8683 -0.1315 -0.7175
33015SOL     OW 2542   0.239  10.730   1.720 -0.1731 -0.4001 -0.3168
33015SOL    HW1 2543   0.189  10.791   1.666  1.0108  0.5007 -0.4151
33015SOL    HW2 2544   0.252  10.775   1.803  1.1144 -0.2968 -0.5509
33016SOL     OW 2545   8.154   6.554  10.636 -0.4961  0.3560 -0.2279
33016SOL    HW1 2546   8.079   6.525  10.688  0.5356 -1.7009  0.2418
33016SOL    HW2 2547   8.193   6.473  10.604  3.9021  0.8673  2.9342
33017SOL     OW 2548   5.996   7.577   8.465 -0.1508  0.5881 -0.3957
33017SOL    HW1 2549   5.987   7.486   8.493  0.5564  1.1376  1.8279
33017SOL    HW2 2550   5.986   7.574   8.370  1.0404 -1.9614 -0.5315
33018SOL     OW 2551   4.920   5.625   0.656 -0.6652 -0.0984  0.0646
33018SOL    HW1 2552   4.950   5.695   0.599 -0.2554 -0.2176  0.1331
33018SOL    HW2 2553   4.917   5.548   0.599 -0.0972 -0.2536  0.2388
33019SOL     OW 2554  10.463   3.757   1.894 -0.0927  0.0571 -0.2976
33019SOL    HW1 2555  10.441   3.677   1.846 -0.9527  0.9162 -1.3899
33019SOL    HW2 2556  10.407   3.754   1.972 -0.5040 -0.1579 -0.5960
33020SOL     OW 2557   0.564   2.021   6.017 -0.2635  0.1018  0.2890
33020SOL    HW1 2558   0.488   2.058   6.062 -0.8398 -0.5850 -0.0865
33020SOL    HW2 2559   0.548   1.926   6.017  0.3495 -0.0108 -0.2292
33021SOL     OW 2560   3.013   9.286   4.503 -0.1470  0.4253 -0.2628
33021SOL    HW1 2561   3.067   9.323   4.433 -1.5248  2.1638 -0.4902
33021SOL    HW2 2562   2.975   9.207   4.465  1.1021 -0.0551 -0.5701
33022SOL     OW 2563   7.045   4.738   9.887  0.1849  0.5193  0.5192
33022SOL    HW1 2564   7.063   4.708   9.977 -0.0737  0.5031  0.5643
33022SOL    HW2 2565   7.097   4.818   9.879  1.4057 -0.2816  0.1700
33023SOL     OW 2566   7.858   2.192   4.421 -0.1014 -0.2425  0.4165
33023SOL    HW1 2567   7.890   2.277   4.451  0.2447  0.1020 -0.8394
33023SOL    HW2 2568   7.855   2.200   4.325 -1.0468 -1.3014  0.3295
33024SOL     OW 2569  10.164   3.954   8.369 -0.0487  0.2366  0.5185
33024SOL    HW1 2570  10.171   3.860   8.381 -0.9595  0.0856 -0.0310
33024SOL    HW2 2571  10.072   3.969   8.348  0.3945  1.0463 -0.9863
33025SOL     OW 2572   6.779   0.945   4.890  0.0992  0.0068 -0.2362
33025SOL    HW1 2573   6.765   1.011   4.822  0.8433  0.6238  0.1922
33025SOL    HW2 2574   6.856   0.976   4.938 -0.2482 -0.5652  0.7153
33026SOL     OW 2575   0.658   2.185   1.621  0.0254 -0.3633 -0.5702
33026SOL    HW1 2576   0.738   2.137   1.603 -0.1937 -1.3216  0.8026
33026SOL    HW2 2577   0.673   2.224   1.708  0.1029  1.8914 -1.5338
33027SOL     OW 2578   7.473   1.054   4.912  0.0048  0.2629  0.4818
33027SOL    HW1 2579   7.471   1.125   4.975 -0.0907  0.6156  0.0838
33027SOL    HW2 2580   7.557   1.063   4.868 -0.0947  0.2603  0.2872
33028SOL     OW 2581   2.978  10.206   0.975 -0.1123  0.5440  0.2331
33028SOL    HW1 2582   3.063  10.249   0.962 -0.7380  1.3339 -1.6661
33028SOL    HW2 2583   2.919  10.277   0.999 -0.2593 -0.0113  1.6092
33029SOL     OW 2584   5.850   3.632  10.844 -0.6165 -0.5247 -0.0019
33029SOL    HW1 2585   5.913   3.683  10.792 -0.1418 -1.1139 -0.0250
33029SOL    HW2 2586   5.890   3.627  10.931 -0.9298 -0.3848  0.1506
33030SOL     OW 2587   4.011   5.353   8.260 -0.7757 -0.0370  0.2354
33030SOL    HW1 2588   3.928   5.304   8.253 -0.9097 -0.0624  1.6283
33030SOL    HW2 2589   4.002   5.402   8.342  1.4966 -1.8540  1.7040
33031SOL     OW 2590   9.828   5.363   5.996 -0.8790  0.0159 -1.1095
33031SOL    HW1 2591   9.749   5.381   6.047  0.1826  1.7738  0.0269
33031SOL    HW2 2592   9.832   5.433   5.932  0.5627  0.9278 -0.0926
33032SOL     OW 2593   4.388   7.981  10.356 -0.0720  0.5271 -0.6284
33032SOL    HW1 2594   4.450   7.964  10.286 -0.2621  0.7555 -0.8550
33032SOL    HW2 2595   4.442   7.992  10.434  0.1471  0.3847 -0.7601
33033SOL     OW 2596   5.229   1.938   7.613 -0.1115  0.0691  0.5354
33033SOL    HW1 2597   5.230   2.030   7.638  1.9637  0.3972 -0.5158
33033SOL    HW2 2598   5.137   1.913   7.619 -1.0748  2.7498 -0.9861
33034SOL     OW 2599   5.595   9.587   8.607  0.0575 -0.3220  0.0632
33034SOL    HW1 2600   5.550   9.551   8.684  0.2663  0.2632  0.4703
33034SOL    HW2 2601   5.573   9.527   8.536 -0.4366 -0.6725  0.5013
33035SOL     OW 2602   1.327   7.832   3.100 -0.4455  0.1122  0.4512
33035SOL    HW1 2603   1.365   7.911   3.137 -2.6359  1.0613  0.8664
33035SOL    HW2 2604   1.386   7.762   3.126  0.3389  1.3098  2.0596
33036SOL     OW 2605   3.908   1.827   8.443  0.4541 -0.2012  0.7854
33036SOL    HW1 2606   3.864   1.890   8.500  1.4704  0.3495  0.9887
33036SOL    HW2 2607   3.843   1.759   8.427 -0.4141  0.5215  1.1780
33037SOL     OW 2608   4.135   7.045   1.630 -0.8087 -0.2243  0.3111
33037SOL    HW1 2609   4.059   7.042   1.689 -0.4117 -1.0294  0.7872
33037SOL    HW2 2610   4.103   7.093   1.553 -2.2623 -1.8325 -0.1542
33038SOL     OW 2611   6.320   9.548   2.331  0.0462 -0.1530  0.0405
33038SOL    HW1 2612   6.263   9.566   2.406  0.1546 -2.0663  0.6379
33038SOL    HW2 2613   6.261   9.512   2.265  0.5089 -2.1110  0.6474
33039SOL     OW 2614   6.110   2.370   1.182 -0.2836  0.0603  0.3584
33039SOL    HW1 2615   6.151   2.314   1.248 -1.2011 -0.0541  0.8483
33039SOL    HW2 2616   6.092   2.310   1.109 -2.2373 -0.5644  1.2970
33040SOL     OW 2617   0.958   6.979   5.844 -0.0022  0.5742  0.0813
33040SOL    HW1 2618   1.012   7.057   5.832 -0.9563  1.4589  1.2182
33040SOL    HW2 2619   0.872   7.013   5.867 -0.1905 -0.8098  1.6323
33041SOL     OW 2620   4.898  10.478   6.030  0.7204 -0.9664 -0.1609
33041SOL    HW1 2621   4.837  10.546   6.058  3.1790  1.1953  0.2738
33041SOL    HW2 2622   4.886  10.474   5.935  0.5402  0.1046 -0.2023
33042SOL     OW 2623   6.065   3.612   6.309 -0.2313  0.6793 -0.0145
33042SOL    HW1 2624   6.157   3.602   6.332 -0.2182 -0.0387 -0.3378
33042SOL    HW2 2625   6.026   3.527   6.330 -1.1079  1.3948  1.3910
33043SOL     OW 2626   4.274   0.288   5.652  0.7815  0.0807 -0.5411
33043SOL    HW1 2627   4.317   0.366   5.687  1.7452 -0.9435  0.6587
33043SOL    HW2 2628   4.338   0.251   5.590  0.4257  0.1011 -0.9283
33044SOL     OW 2629   5.685   1.572   6.680  0.2369  0.1699  0.1521
33044SOL    HW1 2630   5.772   1.540   6.659 -0.8733 -2.6498 -0.5546
33044SOL    HW2 2631   5.650   1.602   6.596 -0.0127 -0.0992  0.1602
33045SOL     OW 2632   1.749   4.211  10.399  0.1008  0.4224  0.2930
33045SOL    HW1 2633   1.694   4.285  10.426 -0.7974  0.3087 -1.1306
33045SOL    HW2 2634   1.836   4.232  10.435 -0.5049  1.3737  1.2635
33046SOL     OW 2635   5.340   1.920   7.007 -0.0265 -0.2384  0.2994
33046SOL    HW1 2636   5.261   1.925   7.061  0.2201 -0.9463  0.7309
33046SOL    HW2 2637   5.409   1.895   7.067  1.2207  3.2640  0.5929
33047SOL     OW 2638   9.551   7.179   2.325  0.0318  0.3976 -0.5354
33047SOL    HW1 2639   9.485   7.112   2.310 -0.6911  0.8780  0.3986
33047SOL    HW2 2640   9.633   7.131   2.338 -0.5964 -0.3759  0.7959
33048SOL     OW 2641  10.075   5.370   2.030  0.4439  0.4924 -0.0526
33048SOL    HW1 2642  10.139   5.323   1.977 -1.1627 -0.0308 -1.6462
33048SOL    HW2 2643   9.995   5.369   1.977 -1.3441 -0.2379  2.4638
33049SOL     OW 2644   9.105   0.013   1.737  0.1551 -0.1085  0.7114
33049SOL    HW1 2645   9.066  -0.074   1.733  0.4368 -0.2849  1.5919
33049SOL    HW2 2646   9.065   0.054   1.814 -0.0237  0.5648  0.2652
33050SOL     OW 2647   4.139   3.251   3.466  0.8357  0.1232 -0.2667
33050SOL    HW1 2648   4.204   3.260   3.397  1.4118 -1.3623  0.0565
33050SOL    HW2 2649   4.185   3.275   3.546  0.5348  0.5772 -0.2265
33051SOL     OW 2650   4.544   9.935   9.407 -0.0499 -0.1117  0.3122
33051SOL    HW1 2651   4.531   9.872   9.478  1.1240 -0.3406  0.3388
33051SOL    HW2 2652   4.501  10.015   9.437 -0.4511 -0.5174  0.8280
33052SOL     OW 2653   7.761   9.874   0.528 -0.0566 -0.3497  0.3226
33052SOL    HW1 2654   7.785   9.910   0.613  0.1081  1.8156 -0.5918
33052SOL    HW2 2655   7.750   9.950   0.471  0.8518 -1.7527 -1.8768
33053SOL     OW 2656   3.650   5.292   2.483 -0.2715 -0.0191  0.4945
33053SOL    HW1 2657   3.674   5.337   2.402  3.9488 -0.5973  1.1953
33053SOL    HW2 2658   3.687   5.347   2.553 -1.8370 -0.7044  1.9388
33054SOL     OW 2659   6.148   0.176   1.114  0.1838 -1.1643  0.5159
33054SOL    HW1 2660   6.097   0.225   1.179 -0.9406  0.2237 -1.2794
33054SOL    HW2 2661   6.081   0.132   1.060  0.8626 -0.2000 -1.2157
33055SOL     OW 2662   5.556   5.314   9.266 -0.1153 -0.5414  0.0446
33055SOL    HW1 2663   5.625   5.304   9.332  1.3068  1.1984 -1.0990
33055SOL    HW2 2664   5.475   5.315   9.317  0.8431 -0.4382  1.6580
33056SOL     OW 2665   0.302  10.466   5.294 -0.2835 -0.1762  0.2652
33056SOL    HW1 2666   0.345  10.396   5.245 -0.8313 -1.0079  0.9302
33056SOL    HW2 2667   0.371  10.531   5.309  0.2890 -0.6692 -0.1905
33057SOL     OW 2668   2.157   9.988   1.726 -0.0819  0.0846  0.0485
33057SOL    HW1 2669   2.134  10.080   1.710 -0.8084  0.4229  2.5447
33057SOL    HW2 2670   2.246   9.992   1.762  0.6281 -0.4241 -1.5336
33058SOL     OW 2671   4.479   0.960   0.230 -0.3590 -0.0436  0.0831
33058SOL    HW1 2672   4.472   0.996   0.319 -1.7172  0.1742 -0.0884
33058SOL    HW2 2673   4.498   1.036   0.175  2.6439 -0.4594  0.3900
33059SOL     OW 2674   7.122   7.647   4.067  0.1452 -0.1867  0.5864
33059SOL    HW1 2675   7.181   7.601   4.007  0.1786 -0.7583  1.0366
33059SOL    HW2 2676   7.181   7.694   4.126  0.1057  0.6188 -0.0071
33060SOL     OW 2677   5.454   6.303   2.539 -0.3211  0.1778  0.6373
33060SOL    HW1 2678   5.548   6.305   2.558 -0.1457  0.5851 -0.2333
33060SOL    HW2 2679   5.428   6.396   2.536 -0.5525  0.0981 -0.0312
33061SOL     OW 2680   6.929   7.842   8.170 -0.9456  0.4697 -0.4037
33061SOL    HW1 2681   6.845   7.875   8.139 -0.4686  0.7434 -1.4478
33061SOL    HW2 2682   6.981   7.920   8.187 -1.5222  0.3844  2.1932
33062SOL     OW 2683   4.393   1.508   7.534 -0.1287 -0.0181 -0.3024
33062SOL    HW1 2684   4.362   1.509   7.624  0.5149  0.4378 -0.0830
33062SOL    HW2 2685   4.351   1.431   7.495  1.8255 -1.9606  1.1828
33063SOL     OW 2686   7.104   0.007   5.653 -0.5010 -0.0208 -0.1543
33063SOL    HW1 2687   7.036   0.065   5.688 -0.5763  0.8089 -1.5855
33063SOL    HW2 2688   7.082  -0.002   5.560  0.4232 -1.0763 -0.2926
33064SOL     OW 2689   7.566   5.789  10.235 -0.1276  0.1480  0.3417
33064SOL    HW1 2690   7.478   5.768  10.265  0.6165 -1.2976  1.6182
33064SOL    HW2 2691   7.611   5.705  10.231  0.4702  0.4795 -2.9127
33065SOL     OW 2692   9.102   6.728   4.818  0.5560 -0.7513 -0.5198
33065SOL    HW1 2693   9.127   6.817   4.844  1.0932 -0.4036 -2.1481
33065SOL    HW2 2694   9.167   6.672   4.859  1.1661 -0.2488 -0.7793
33066SOL     OW 2695   0.741   1.963   3.837 -0.2704  0.7617 -0.0762
33066SOL    HW1 2696   0.718   1.992   3.748 -1.1505  2.7334  0.7399
33066SOL    HW2 2697   0.822   2.010   3.858  0.8451 -0.9207 -0.3680
33067SOL     OW 2698   5.642   6.549   2.574 -0.2626 -0.5073  0.5604
33067SOL    HW1 2699   5.674   6.467   2.610 -0.5268 -0.2511  1.4036
33067SOL    HW2 2700   5.716   6.585   2.526 -0.1711 -1.2687  0.1149
33068SOL     OW 2701   4.336  10.937   2.537 -0.0639  0.2216  0.1898
33068SOL    HW1 2702   4.326  10.938   2.441 -1.5800 -1.1434  0.2886
33068SOL    HW2 2703   4.309  11.024   2.565  1.0623  0.8714 -0.6540
33069SOL     OW 2704   0.630   9.747   4.307  0.0770 -0.3924 -0.0560
33069SOL    HW1 2705   0.649   9.713   4.219 -1.0061  1.6514 -1.1626
33069SOL    HW2 2706   0.664   9.836   4.306  2.0141 -1.0040  2.4121
33070SOL     OW 2707   5.534   9.604   7.199 -0.0032 -0.3793 -0.2391
33070SOL    HW1 2708   5.608   9.658   7.227 -0.6385 -0.1967  1.1394
33070SOL    HW2 2709   5.479   9.664   7.149  0.4678 -0.3629 -0.7493
33071SOL     OW 2710   1.288   1.121  10.488  0.1897  0.4478  0.5717
33071SOL    HW1 2711   1.359   1.173  10.452 -0.1061  2.3710  2.5488
33071SOL    HW2 2712   1.253   1.174  10.560 -0.2841 -2.3622  2.6065
33072SOL     OW 2713   3.422   0.157   4.319 -0.1776  0.5444  0.1989
33072SOL    HW1 2714   3.409   0.063   4.329  1.7552  0.2328  0.1480
33072SOL    HW2 2715   3.342   0.188   4.277 -0.9724 -1.0096  0.4905
33073SOL     OW 2716  10.848   6.777  10.819 -0.0075 -0.9104  0.1885
33073SOL    HW1 2717  10.838   6.868  10.792 -0.5740 -0.6859  1.1111
33073SOL    HW2 2718  10.775   6.731  10.777 -0.6934 -0.6207  1.0152
33074SOL     OW 2719   7.116   9.268   5.845 -0.0962 -0.3968  0.0372
33074SOL    HW1 2720   7.150   9.203   5.783  0.0944  1.9371 -2.4684
33074SOL    HW2 2721   7.189   9.285   5.904 -0.1025 -2.2831  0.6610
33075SOL     OW 2722   1.582   8.618   6.173  0.2712  0.4395 -0.0021
33075SOL    HW1 2723   1.655   8.654   6.123  0.6529 -1.0148 -0.5708
33075SOL    HW2 2724   1.548   8.548   6.117  1.5213 -2.1542  2.2473
33076SOL     OW 2725  10.896   3.248   7.061 -0.5212 -0.6279  0.3835
33076SOL    HW1 2726  10.814   3.297   7.055  0.4723  1.0132 -0.5027
33076SOL    HW2 2727  10.919   3.228   6.970  0.3566 -0.5484  0.5780
33077SOL     OW 2728   3.209   3.809   4.082 -0.3959 -0.2710  0.2270
33077SOL    HW1 2729   3.141   3.784   4.018 -0.2744 -2.7674  0.9814
33077SOL    HW2 2730   3.171   3.787   4.167  0.7859 -0.2865  0.7662
33078SOL     OW 2731   2.447   2.397   1.581  0.0028  0.1023 -0.3857
33078SOL    HW1 2732   2.473   2.350   1.661 -0.4445 -0.5153 -0.5972
33078SOL    HW2 2733   2.373   2.347   1.547  0.8232 -0.2317 -1.7496
33079SOL     OW 2734   9.060   9.916   1.320  0.5696  0.2070  0.0475
33079SOL    HW1 2735   9.058   9.960   1.405  0.7381 -1.1925  0.8202
33079SOL    HW2 2736   9.125   9.964   1.270  0.1997  1.2861  0.5723
33080SOL     OW 2737   2.577   3.704   3.791 -0.4750 -0.2615 -0.1980
33080SOL    HW1 2738   2.619   3.699   3.876 -1.3434  0.0011  0.2619
33080SOL    HW2 2739   2.644   3.675   3.729  0.3881  0.2086  0.4892
33081SOL     OW 2740  10.215   6.567  10.859  0.1686 -0.1390  0.1876
33081SOL    HW1 2741  10.265   6.643  10.886 -0.3778  0.8914 -1.5258
33081SOL    HW2 2742  10.270   6.525  10.792 -1.0873  0.9093 -1.5883
33082SOL     OW 2743   3.900  10.351   2.460 -0.1447  0.6152 -0.5280
33082SOL    HW1 2744   3.823  10.319   2.507  0.7159 -1.0061 -0.1401
33082SOL    HW2 2745   3.865  10.395   2.383 -1.5090  1.4966  0.5449
33083SOL     OW 2746   9.177   8.658  10.598  0.4725 -0.1230  0.2375
33083SOL    HW1 2747   9.169   8.721  10.669  1.9592  1.1760 -0.6944
33083SOL    HW2 2748   9.183   8.573  10.643  3.3622  0.7957  1.8371
33084SOL     OW 2749   9.925   4.319   9.967 -0.0454  0.2710 -0.1988
33084SOL    HW1 2750   9.862   4.258   9.928  0.2709 -0.3032  0.1971
33084SOL    HW2 2751   9.890   4.337  10.054 -0.2924  0.8941 -0.4143
33085SOL     OW 2752   3.760   0.123   3.344  0.3616  0.5371  0.4788
33085SOL    HW1 2753   3.709   0.044   3.364 -0.3977  1.4229  2.2801
33085SOL    HW2 2754   3.849   0.102   3.373  0.4077 -0.0061 -0.0280
33086SOL     OW 2755   8.953   0.102   5.109 -0.1940 -0.8168  0.2626
33086SOL    HW1 2756   8.925   0.069   5.024  2.4635  0.3697 -1.1858
33086SOL    HW2 2757   8.951   0.026   5.167  1.1746 -2.4651 -1.7390
33087SOL     OW 2758   6.088  10.594   8.112 -0.6400  0.2094  0.0693
33087SOL    HW1 2759   6.109  10.514   8.161  0.4995  0.1499 -0.4866
33087SOL    HW2 2760   5.995  10.609   8.130 -1.1292 -1.7673 -0.5666
33088SOL     OW 2761   6.301   6.571   3.108 -0.3148 -0.7705 -0.2318
33088SOL    HW1 2762   6.351   6.489   3.104 -0.4285 -0.9403  1.2022
33088SOL    HW2 2763   6.337   6.617   3.183 -1.8094 -0.5736  0.4092
33089SOL     OW 2764   9.148   2.814   1.393  0.1509  0.5045  0.1130
33089SOL    HW1 2765   9.105   2.884   1.342  0.3025  0.5809  0.0893
33089SOL    HW2 2766   9.225   2.791   1.341 -1.3872 -1.6705 -1.3470
33090SOL     OW 2767  10.287   7.275   5.484 -0.9053 -0.2169 -0.1465
33090SOL    HW1 2768  10.264   7.184   5.465 -0.0298 -0.7983  1.4074
33090SOL    HW2 2769  10.230   7.300   5.557  0.4914 -0.3432  1.0258
33091SOL     OW 2770  10.174  10.805  10.258  0.0415 -0.0087  0.1357
33091SOL    HW1 2771  10.197  10.890  10.296 -0.6224 -0.1732  0.9404
33091SOL    HW2 2772  10.087  10.787  10.292  0.0735 -0.8934 -0.2411
33092SOL     OW 2773   3.086   9.490   6.927  0.5411 -0.5361 -0.6675
33092SOL    HW1 2774   3.085   9.567   6.870 -1.0806  0.9703  1.2884
33092SOL    HW2 2775   2.997   9.456   6.924  0.4788 -0.5501  0.8024
33093SOL     OW 2776   4.078   9.295   7.855 -0.2480 -0.2643 -0.4455
33093SOL    HW1 2777   3.985   9.295   7.876 -0.5528 -2.5710 -1.5828
33093SOL    HW2 2778   4.082   9.288   7.760  1.1114  0.2217 -0.4537
33094SOL     OW 2779   9.290   9.613   7.015 -0.1948 -0.1608 -0.4063
33094SOL    HW1 2780   9.195   9.606   7.026 -0.2318 -0.2372 -0.7477
33094SOL    HW2 2781   9.308   9.565   6.934 -0.0345  1.0187 -1.0827
33095SOL     OW 2782  10.418   3.457   2.726  0.0698 -0.2983  0.0930
33095SOL    HW1 2783  10.498   3.502   2.755  1.1103 -2.5784  1.0369
33095SOL    HW2 2784  10.430   3.446   2.632  0.6308 -0.1536  0.1426
33096SOL     OW 2785   3.849   3.057   3.158 -0.0226  0.2718 -0.6247
33096SOL    HW1 2786   3.906   3.045   3.233  0.2295 -0.0798 -0.8710
33096SOL    HW2 2787   3.885   3.000   3.090 -0.5118  0.2414 -0.8667
33097SOL     OW 2788   2.134   6.874   3.101  0.4312  0.4164  0.2892
33097SOL    HW1 2789   2.044   6.880   3.070  0.2142  2.3325  1.1553
33097SOL    HW2 2790   2.181   6.829   3.031 -1.3247 -1.4547  0.2043
33098SOL     OW 2791   5.516   1.289   7.594  0.4136 -0.2024  0.4772
33098SOL    HW1 2792   5.429   1.272   7.556  1.2484 -3.6944 -0.2736
33098SOL    HW2 2793   5.575   1.294   7.519  1.1057  0.3497  1.0418
33099SOL     OW 2794   6.808   6.715   2.814 -0.2078  0.3467  0.3731
33099SOL    HW1 2795   6.864   6.748   2.743  0.6403  0.9045  1.2687
33099SOL    HW2 2796   6.826   6.621   2.816 -2.0743 -0.1127 -1.7058
33100SOL     OW 2797   5.825   5.639   9.686  0.1880  0.6217 -0.1430
33100SOL    HW1 2798   5.899   5.603   9.734 -0.9856  0.3386  1.5110
33100SOL    HW2 2799   5.853   5.637   9.594  2.5862  1.3967  0.4927
33101SOL     OW 2800   0.488   1.968   8.636  0.0041 -0.3731 -0.7874
33101SOL    HW1 2801   0.394   1.966   8.617 -0.5573 -0.5522  1.6497
33101SOL    HW2 2802   0.525   1.895   8.588 -1.6007 -1.9861  0.3243
33102SOL     OW 2803   9.834   7.722   7.633  0.2358 -0.0689 -0.8356
33102SOL    HW1 2804   9.772   7.775   7.582 -0.7199  0.0523  0.4053
33102SOL    HW2 2805   9.779   7.672   7.694  1.1794 -1.8264 -1.3395
33103SOL     OW 2806   4.100  10.895  10.149 -0.4424 -0.3520  0.3852
33103SOL    HW1 2807   4.144  10.897  10.234 -0.4447  0.2715  0.3780
33103SOL    HW2 2808   4.162  10.852  10.091 -0.1110 -0.0620  0.5229
33104SOL     OW 2809   6.462   9.368  10.730 -0.1943  0.2943  0.1447
33104SOL    HW1 2810   6.518   9.315  10.787  0.4685 -0.1283 -0.8668
33104SOL    HW2 2811   6.482   9.459  10.755  0.1719  0.1196  0.5022
33105SOL     OW 2812   9.970   0.041   3.516 -0.1399 -0.7506 -0.2457
33105SOL    HW1 2813   9.920  -0.003   3.447 -0.6535  0.7863 -0.9120
33105SOL    HW2 2814   9.942  -0.000   3.597 -0.6602 -1.5702 -0.8265
33106SOL     OW 2815   1.542   9.896   4.194  0.0606  0.2099 -0.7615
33106SOL    HW1 2816   1.555   9.982   4.236  1.3967  0.4954 -1.6970
33106SOL    HW2 2817   1.461   9.863   4.233 -0.1506  1.6164  0.0873
33107SOL     OW 2818   4.157   9.207   7.207  0.4648  0.3918 -0.4654
33107SOL    HW1 2819   4.106   9.170   7.135  0.1482 -0.2469  0.0734
33107SOL    HW2 2820   4.095   9.213   7.280  1.1592 -0.4713  0.2253
33108SOL     OW 2821   3.000   7.859   8.507 -0.0940 -0.3634 -0.1605
33108SOL    HW1 2822   3.079   7.826   8.464  0.1354 -0.6932  0.4941
33108SOL    HW2 2823   3.017   7.847   8.601 -0.0583  1.5133  0.1127
33109SOL     OW 2824  10.686   8.763   6.724  0.1581 -0.2890 -0.1229
33109SOL    HW1 2825  10.767   8.714   6.736  0.4963  0.1921 -0.4171
33109SOL    HW2 2826  10.701   8.816   6.646 -0.6072 -0.5296 -0.4425
33110SOL     OW 2827   2.194   3.532   1.217 -0.1411 -0.1381  0.1244
33110SOL    HW1 2828   2.161   3.447   1.188 -0.4726  0.5598 -1.6935
33110SOL    HW2 2829   2.192   3.528   1.312 -2.5066 -1.2664  0.0889
33111SOL     OW 2830   5.201   6.737   7.602 -0.2660  0.3219  0.2212
33111SOL    HW1 2831   5.268   6.736   7.671 -1.4689  0.9803  1.4379
33111SOL    HW2 2832   5.238   6.793   7.534 -0.5466  2.7324  1.9387
33112SOL     OW 2833   0.277   2.632   3.018  0.1684 -0.1774  0.4495
33112SOL    HW1 2834   0.309   2.543   3.008  0.1950 -0.1184 -0.0244
33112SOL    HW2 2835   0.307   2.659   3.104 -1.2871 -1.2143  1.3296
33113SOL     OW 2836   1.920   1.839   4.560  0.5787  0.3120  0.5214
33113SOL    HW1 2837   1.867   1.760   4.561 -0.2118  0.8021 -0.5599
33113SOL    HW2 2838   1.868   1.903   4.609  0.9368  0.3452  0.8681
33114SOL     OW 2839   7.343   4.114   3.107  0.4000 -0.3804 -0.1822
33114SOL    HW1 2840   7.364   4.054   3.035  0.6198  0.4019 -0.7736
33114SOL    HW2 2841   7.422   4.167   3.118  0.8660 -1.3338  1.5095
33115SOL     OW 2842   1.086   0.721   4.967 -0.0446  0.1778 -1.1011
33115SOL    HW1 2843   1.083   0.704   4.873  2.6509  1.6174 -1.5461
33115SOL    HW2 2844   1.175   0.696   4.992 -0.1094  1.5989  0.6934
33116SOL     OW 2845   3.540   6.836   8.249  0.0198 -0.0720  0.3339
33116SOL    HW1 2846   3.564   6.928   8.244  1.3006 -0.4457 -1.6126
33116SOL    HW2 2847   3.615   6.794   8.291 -0.6033 -0.2515  1.3071
33117SOL     OW 2848   7.378   9.883   3.994 -0.0064  0.3005 -0.4748
33117SOL    HW1 2849   7.457   9.895   3.941  0.4339 -0.0017  0.0900
33117SOL    HW2 2850   7.328   9.816   3.947 -0.0264  0.6395 -0.9448
33118SOL     OW 2851   0.571   5.210   8.770  0.1355 -0.3424  0.4383
33118SOL    HW1 2852   0.590   5.168   8.686  0.0726  0.2633  0.1111
33118SOL    HW2 2853   0.604   5.150   8.836  0.9506 -0.4401 -0.0514
33119SOL     OW 2854   1.186   4.491   5.181 -0.0881 -0.3829  0.2036
33119SOL    HW1 2855   1.131   4.413   5.189  0.9204 -1.1853 -0.4766
33119SOL    HW2 2856   1.275   4.457   5.171  0.5669  0.8880  1.3532
33120SOL     OW 2857   1.664   4.813   7.358  0.1508 -0.6178  0.4069
33120SOL    HW1 2858   1.662   4.875   7.284  0.4816 -0.4668  0.5247
33120SOL    HW2 2859   1.645   4.867   7.435 -0.1705 -0.7721  0.4357
33121SOL     OW 2860   3.825   2.517   5.551 -0.3470 -0.0837 -0.6533
33121SOL    HW1 2861   3.772   2.459   5.606  1.1591 -0.9578 -0.0425
33121SOL    HW2 2862   3.914   2.506   5.585  0.3629  0.6486 -2.1971
33122SOL     OW 2863   9.232   3.336   5.341  0.4974  0.1608  0.4481
33122SOL    HW1 2864   9.180   3.255   5.344 -0.9730  1.0901  1.3491
33122SOL    HW2 2865   9.314   3.310   5.299 -0.0139 -1.7495  0.5257
33123SOL     OW 2866   2.186   7.527   2.176 -0.1292 -0.8904  0.2084
33123SOL    HW1 2867   2.103   7.505   2.218 -1.2365  4.8557  1.8222
33123SOL    HW2 2868   2.168   7.519   2.082 -2.6063  0.3155  0.5153
33124SOL     OW 2869   1.146   5.642   6.513 -0.4100 -0.1222 -0.1738
33124SOL    HW1 2870   1.234   5.653   6.547 -0.8355  1.2843  0.5731
33124SOL    HW2 2871   1.152   5.570   6.451  0.8306 -1.4308  1.3859
33125SOL     OW 2872   6.944   6.472   5.549  0.4204  0.1294 -0.1740
33125SOL    HW1 2873   6.866   6.464   5.494 -1.4167 -2.5677  2.5153
33125SOL    HW2 2874   6.994   6.393   5.531  0.0483 -0.5412  1.5445
33126SOL     OW 2875   9.110   9.328   4.632 -0.4684  0.7704  0.6413
33126SOL    HW1 2876   9.049   9.358   4.565 -0.5435  1.5791  1.0469
33126SOL    HW2 2877   9.054   9.296   4.703 -0.3898 -1.6268 -0.3006
33127SOL     OW 2878   3.478   2.797   9.501  0.2830 -0.4965 -0.4666
33127SOL    HW1 2879   3.459   2.846   9.421 -0.8983  1.8933  1.1451
33127SOL    HW2 2880   3.483   2.864   9.570  2.3142 -2.3133  1.3489
33128SOL     OW 2881   4.366   1.411  10.737  0.0969 -0.0940  0.0594
33128SOL    HW1 2882   4.318   1.430  10.818  0.1332 -1.1153  0.3469
33128SOL    HW2 2883   4.442   1.361  10.767  0.4948  0.1585 -0.5389
33129SOL     OW 2884   6.579   9.553   4.552 -0.0781  0.2534  0.2470
33129SOL    HW1 2885   6.633   9.631   4.545 -1.8154  1.3775 -2.0060
33129SOL    HW2 2886   6.563   9.527   4.461 -1.3478 -1.4284  0.9004
33130SOL     OW 2887   6.499   8.197   2.215 -0.0138  0.2964 -0.2286
33130SOL    HW1 2888   6.478   8.115   2.261  0.4258 -0.9024 -2.0626
33130SOL    HW2 2889   6.595   8.201   2.215  0.0325 -0.2711 -1.8965
33131SOL     OW 2890   8.635   4.601   1.174  0.6408  0.0216 -0.2084
33131SOL    HW1 2891   8.626   4.538   1.244 -0.3516 -0.2320 -0.5502
33131SOL    HW2 2892   8.607   4.684   1.212 -1.3509 -0.3818 -0.6803
33132SOL     OW 2893   0.443   1.026   5.577 -0.4088  0.1983  0.1667
33132SOL    HW1 2894   0.420   1.082   5.502  1.4964  0.7124 -0.0905
33132SOL    HW2 2895   0.425   1.081   5.654  0.3457  0.7567 -0.0429
33133SOL     OW 2896   3.839   4.411   9.123 -0.2210  0.1583 -0.4225
33133SOL    HW1 2897   3.867   4.325   9.093 -1.0331  0.2748 -1.5898
33133SOL    HW2 2898   3.769   4.393   9.186 -0.2770 -0.0433 -0.5416
33134SOL     OW 2899  10.595   5.429   6.012  0.1399  0.2104  0.6955
33134SOL    HW1 2900  10.549   5.463   6.089  2.1929  0.1770  2.0295
33134SOL    HW2 2901  10.541   5.357   5.981 -0.3532 -0.3329  2.6491
33135SOL     OW 2902   9.969   4.681   6.662 -0.3075  0.1935 -0.0918
33135SOL    HW1 2903  10.049   4.654   6.616  3.5019  2.1172  4.5137
33135SOL    HW2 2904   9.961   4.774   6.642 -0.6133  0.2772  0.4044
33136SOL     OW 2905  10.057   8.571  10.791 -0.4588 -0.1898 -0.1440
33136SOL    HW1 2906  10.013   8.579  10.875  0.7106 -2.4601  0.7726
33136SOL    HW2 2907  10.006   8.505  10.744  0.6760 -1.2743  0.0948
33137SOL     OW 2908  10.902   8.914   3.466  0.3952  0.2345  0.5859
33137SOL    HW1 2909  10.972   8.953   3.517 -1.4510  2.9702  1.1953
33137SOL    HW2 2910  10.890   8.973   3.391  0.6883 -1.8173 -1.1986
33138SOL     OW 2911   0.338   6.941   3.359 -0.0602  0.0779 -0.3220
33138SOL    HW1 2912   0.325   6.963   3.266 -3.1272  2.1858  0.4608
33138SOL    HW2 2913   0.282   6.864   3.373 -1.9943  1.5171  0.3092
33139SOL     OW 2914   0.032   2.419   4.951  0.1543  0.6987  0.1557
33139SOL    HW1 2915   0.050   2.441   4.860  0.7591  1.9343  0.5481
33139SOL    HW2 2916   0.101   2.358   4.975 -0.2417  0.0564 -0.3234
33140SOL     OW 2917   1.292   7.483   0.577 -0.2893  0.2438  0.1508
33140SOL    HW1 2918   1.273   7.478   0.483 -0.1143 -1.6847  0.1767
33140SOL    HW2 2919   1.226   7.428   0.618 -1.1849  2.1157  1.3442
33141SOL     OW 2920   3.439   9.046   2.935  0.1673 -0.5494 -0.6585
33141SOL    HW1 2921   3.439   9.044   3.030 -1.1920  0.2962 -0.6214
33141SOL    HW2 2922   3.508   8.984   2.910  0.7468 -0.5596  0.8597
33142SOL     OW 2923   8.080   8.495   7.889 -0.0990 -0.2787  0.4506
33142SOL    HW1 2924   8.130   8.554   7.946 -0.6623 -1.1854  1.9259
33142SOL    HW2 2925   7.988   8.516   7.908 -0.3788  1.2925 -2.1413
33143SOL     OW 2926   1.914   8.355   5.384 -0.4391 -0.5183 -0.2399
33143SOL    HW1 2927   1.850   8.305   5.434  0.9867 -0.9919  1.2002
33143SOL    HW2 2928   1.877   8.444   5.382 -0.3202 -0.3201  2.2336
33144SOL     OW 2929   8.965   9.699   0.336 -0.2629  0.0290  0.7134
33144SOL    HW1 2930   8.963   9.790   0.366 -1.2017  0.6353 -1.0413
33144SOL    HW2 2931   8.895   9.694   0.270  0.9223 -1.4765 -0.5124
33145SOL     OW 2932   0.634  10.184   3.702 -0.3118 -0.3192 -0.1440
33145SOL    HW1 2933   0.566  10.242   3.669  0.6099 -0.2333 -2.0226
33145SOL    HW2 2934   0.708  10.241   3.720  0.4111 -0.8035 -1.4553
33146SOL     OW 2935   5.108  10.778   1.777 -0.4986 -0.1161  0.3073
33146SOL    HW1 2936   5.065  10.753   1.695 -1.0409  0.2425  0.4771
33146SOL    HW2 2937   5.074  10.865   1.796  0.4976  0.2715  0.3243
33147SOL     OW 2938   3.842   3.222   8.751 -0.0579 -0.1020  0.8061
33147SOL    HW1 2939   3.872   3.306   8.786 -0.2090  0.4473 -0.3388
33147SOL    HW2 2940   3.836   3.165   8.828  0.4333  0.8116  1.5467
33148SOL     OW 2941   1.799   2.980  10.702 -0.6747  0.5008 -0.6337
33148SOL    HW1 2942   1.763   2.892  10.693 -0.0073  0.1283  0.3015
33148SOL    HW2 2943   1.777   3.023  10.619 -1.4349 -0.3772 -0.9013
33149SOL     OW 2944   5.729   8.198   8.580 -0.1542 -0.0104  0.0722
33149SOL    HW1 2945   5.660   8.183   8.515  1.8566 -0.6516 -2.0354
33149SOL    HW2 2946   5.809   8.169   8.537  1.6010  1.5754  2.0658
33150SOL     OW 2947   6.650   4.826   3.270  0.0275 -0.2858  0.2776
33150SOL    HW1 2948   6.702   4.780   3.204 -1.0320  1.1762 -1.6851
33150SOL    HW2 2949   6.599   4.757   3.312  0.1372 -1.2047 -1.0239
33151SOL     OW 2950   7.769   1.091   1.263 -0.2161  0.3109  0.1784
33151SOL    HW1 2951   7.808   1.126   1.183 -0.9752  0.5710 -0.0828
33151SOL    HW2 2952   7.844   1.058   1.314  0.3665  1.0101 -0.2107
33152SOL     OW 2953   8.081   9.947  10.624  0.0595 -0.2437  0.1456
33152SOL    HW1 2954   8.069   9.930  10.717 -0.0253  3.5364  0.9678
33152SOL    HW2 2955   8.175   9.936  10.609  0.1625 -0.2890  0.8044
33153SOL     OW 2956   3.616   2.103   1.940 -0.1588  0.8813  0.2325
33153SOL    HW1 2957   3.704   2.141   1.933 -0.4039  1.3774 -0.2416
33153SOL    HW2 2958   3.619   2.049   2.019  1.0609 -0.3852 -0.6378
33154SOL     OW 2959   4.429   2.746   5.162 -0.3093  0.1325 -0.7754
33154SOL    HW1 2960   4.378   2.697   5.227  0.4644  0.8452  0.3983
33154SOL    HW2 2961   4.472   2.678   5.110 -0.9603 -0.4537 -0.5710
33155SOL     OW 2962   7.303   6.206   1.979  0.0754 -0.0115  0.6728
33155SOL    HW1 2963   7.329   6.196   1.888 -2.3678  0.6929 -0.1714
33155SOL    HW2 2964   7.249   6.129   1.998 -1.1689  0.8626  0.8231
33156SOL     OW 2965   2.970   9.128  10.991  0.2969  0.0584 -0.4140
33156SOL    HW1 2966   2.902   9.190  11.017 -0.2471 -0.3683 -0.7926
33156SOL    HW2 2967   2.976   9.067  11.064  1.5159  1.0813  0.3952
33157SOL     OW 2968   5.233   2.337   5.808 -0.5309 -0.8351  0.1203
33157SOL    HW1 2969   5.192   2.330   5.722  0.1560  1.7107 -0.5052
33157SOL    HW2 2970   5.307   2.276   5.805  0.1994  0.0783 -1.5722
33158SOL     OW 2971   5.671   0.514   3.922  0.6131  0.0010  0.4332
33158SOL    HW1 2972   5.712   0.432   3.891 -1.8146 -1.0810 -0.1170
33158SOL    HW2 2973   5.635   0.554   3.843  0.8697  1.1067  0.8605
33159SOL     OW 2974   6.882   8.472   4.050 -0.0491  0.0305  0.1005
33159SOL    HW1 2975   6.791   8.442   4.049  0.0452 -0.2719  0.4468
33159SOL    HW2 2976   6.911   8.462   3.959 -0.4860  0.5270 -0.1027
33160SOL     OW 2977  10.193   9.087   7.576  0.0010 -0.1742  0.0725
33160SOL    HW1 2978  10.146   9.158   7.532 -0.5679  0.5706  1.7845
33160SOL    HW2 2979  10.129   9.017   7.583  0.1986 -0.4282 -0.5519
33161SOL     OW 2980   8.032   1.118  10.447  0.5838 -0.1680  0.0837
33161SOL    HW1 2981   8.030   1.196  10.391  0.2094  0.2903  0.7188
33161SOL    HW2 2982   7.955   1.127  10.504  0.8884 -0.6834  0.5908
33162SOL     OW 2983   1.004   2.388   6.442 -0.0365  0.1416  0.2046
33162SOL    HW1 2984   1.069   2.343   6.388 -0.9570 -2.1748  0.8895
33162SOL    HW2 2985   0.920   2.359   6.407 -0.6461 -0.4694  2.0732
33163SOL     OW 2986   9.355   4.552  10.950  0.0256  0.0838 -0.5297
33163SOL    HW1 2987   9.443   4.574  10.920 -0.2812  2.6229  0.2350
33163SOL    HW2 2988   9.300   4.624  10.919 -1.4620 -0.5218  0.5546
33164SOL     OW 2989   3.673   7.646   9.397  0.0660  0.4570  0.2565
33164SOL    HW1 2990   3.604   7.705   9.367 -0.2049  0.1290  0.2235
33164SOL    HW2 2991   3.748   7.666   9.341 -0.1336  0.5335  0.0164
33165SOL     OW 2992   4.472   0.386   0.631  0.5332  0.1137  0.1711
33165SOL    HW1 2993   4.389   0.389   0.678 -0.2767 -0.5063 -1.1345
33165SOL    HW2 2994   4.539   0.402   0.697 -0.6116  0.3460  1.3026
33166SOL     OW 2995   3.342   4.175   2.698 -0.0047 -0.0747  0.3408
33166SOL    HW1 2996   3.356   4.257   2.650 -1.1309  0.2087  0.4634
33166SOL    HW2 2997   3.340   4.202   2.790 -1.2147 -0.0942  0.3361
33167SOL     OW 2998   9.354   9.483   2.869 -0.2577  0.0217 -0.0241
33167SOL    HW1 2999   9.420   9.451   2.807 -0.2478 -2.7149  1.2384
33167SOL    HW2 3000   9.398   9.484   2.953 -1.4385 -0.5837  0.6328
33168SOL     OW 3001   6.060   4.728   3.638  0.0562 -0.0663  0.1384
33168SOL    HW1 3002   6.000   4.679   3.581  0.0862  1.0509 -0.8849
33168SOL    HW2 3003   6.143   4.728   3.591 -0.1657  1.6979 -0.3410
33169SOL     OW 3004   5.306   2.049   5.407  0.4148 -0.1864 -0.6661
33169SOL    HW1 3005   5.275   1.966   5.372  5.1856 -1.6896 -2.0939
33169SOL    HW2 3006   5.352   2.090   5.334  1.0887  2.1261  0.9401
33170SOL     OW 3007   9.811   5.628   6.159 -0.0770 -0.4909  0.6488
33170SOL    HW1 3008   9.869   5.623   6.083  2.5520 -1.4228  2.5371
33170SOL    HW2 3009   9.745   5.693   6.135 -1.1138 -2.7149 -3.4356
33171SOL     OW 3010  10.994   5.504   1.374 -0.1883  0.1515 -0.0487
33171SOL    HW1 3011  10.918   5.522   1.317 -1.2029 -0.7198  0.9870
33171SOL    HW2 3012  11.035   5.590   1.386 -0.0807  0.4033 -1.8850
33172SOL     OW 3013   8.340   9.014   4.581  0.3798 -0.3084  0.4017
33172SOL    HW1 3014   8.382   9.007   4.495 -2.3857  3.7395 -1.6053
33172SOL    HW2 3015   8.267   8.951   4.576 -0.0757  0.2743 -0.4708
33173SOL     OW 3016   3.081   8.663   1.407 -0.3954  0.3430  0.1052
33173SOL    HW1 3017   3.109   8.643   1.496  0.6738  0.3967 -0.2084
33173SOL    HW2 3018   3.041   8.582   1.376  0.7525 -0.2284  0.0635
33174SOL     OW 3019   2.386   5.220   2.846 -0.0228  0.2876  0.1884
33174SOL    HW1 3020   2.396   5.234   2.940 -2.8252  2.7235  0.2906
33174SOL    HW2 3021   2.349   5.132   2.839  2.1457 -0.7569  1.1250
33175SOL     OW 3022   5.508   1.638   3.189  0.2478 -0.1133  0.2584
33175SOL    HW1 3023   5.526   1.555   3.145  0.6973  0.6278 -1.0132
33175SOL    HW2 3024   5.592   1.684   3.189  0.2011  0.0402  1.6801
33176SOL     OW 3025   1.494   8.920   0.776  0.2323  0.5372 -0.5387
33176SOL    HW1 3026   1.530   8.849   0.723  1.7918  0.7939  0.1129
33176SOL    HW2 3027   1.489   8.884   0.864 -1.8642  0.2794 -0.7070
33177SOL     OW 3028   0.128   4.848   4.520 -0.0645 -0.4418  0.0882
33177SOL    HW1 3029   0.141   4.765   4.566  0.5877 -0.9798 -1.0146
33177SOL    HW2 3030   0.081   4.823   4.440  1.2045  0.0690 -0.8412
33178SOL     OW 3031   4.108   8.812   0.142  0.2954  0.2839  0.9297
33178SOL    HW1 3032   4.049   8.871   0.096 -0.7012 -0.2492  1.4875
33178SOL    HW2 3033   4.195   8.833   0.108 -0.2549  0.8228 -0.1857
33179SOL     OW 3034   0.296   2.845   3.827  0.4907  0.7666  0.0244
33179SOL    HW1 3035   0.275   2.937   3.811 -0.2693  0.7776  0.9731
33179SOL    HW2 3036   0.300   2.806   3.740  1.9674  1.9211 -0.4607
33180SOL     OW 3037   5.561   6.144   4.659  0.1860 -0.1778 -0.2606
33180SOL    HW1 3038   5.475   6.142   4.617  0.3312  0.4825 -0.6200
33180SOL    HW2 3039   5.621   6.171   4.589  0.4937  0.5554  0.2689
33181SOL     OW 3040   8.524  10.942   8.826  0.0228 -0.4238 -0.0192
33181SOL    HW1 3041   8.499  10.969   8.738 -0.4623 -0.3368  0.1420
33181SOL    HW2 3042   8.548  11.023   8.870  0.7326 -0.5255 -0.2191
33182SOL     OW 3043  10.347   2.726   3.034  0.3381  0.3442 -0.1535
33182SOL    HW1 3044  10.365   2.769   2.951 -0.4110  2.3148  0.6493
33182SOL    HW2 3045  10.373   2.790   3.101 -1.1550 -0.2730  1.0959
33183SOL     OW 3046   7.028   4.649   5.455 -0.0607  0.6419 -0.2875
33183SOL    HW1 3047   7.009   4.592   5.380 -0.5126  0.9057 -0.3843
33183SOL    HW2 3048   7.079   4.721   5.417  0.4667  0.3292 -0.1748
33184SOL     OW 3049   7.848   6.567   2.750  0.1401 -0.2265 -0.1391
33184SOL    HW1 3050   7.757   6.591   2.733 -0.3788 -0.7079  1.7569
33184SOL    HW2 3051   7.887   6.558   2.663 -1.4331  0.6480 -0.9721
33185SOL     OW 3052   2.558   2.210   9.845  0.0002  0.3847  0.1852
33185SOL    HW1 3053   2.538   2.161   9.924 -1.2265  0.8168  0.1602
33185SOL    HW2 3054   2.603   2.289   9.876  1.1087 -0.2604  0.2925
33186SOL     OW 3055   1.319   6.397   6.471 -0.3319  0.4254 -0.5999
33186SOL    HW1 3056   1.297   6.304   6.460 -1.1131  0.5924 -0.4945
33186SOL    HW2 3057   1.398   6.396   6.525 -0.9836 -0.1571  0.3778
33187SOL     OW 3058   3.137   5.218   9.838  0.6212 -0.3502 -0.4733
33187SOL    HW1 3059   3.130   5.257   9.925 -1.5658 -0.4261 -0.5438
33187SOL    HW2 3060   3.220   5.171   9.839  1.6705  1.3943  0.8107
33188SOL     OW 3061   0.199  10.336  10.405  0.3412 -0.3359 -0.6733
33188SOL    HW1 3062   0.206  10.241  10.399 -0.2990 -0.3156 -1.8804
33188SOL    HW2 3063   0.138  10.361  10.337 -1.6793  0.7091  1.3860
33189SOL     OW 3064   6.907   7.805   3.960 -0.0347  0.4755 -0.1657
33189SOL    HW1 3065   6.834   7.759   4.003 -1.3209  0.8879 -1.8026
33189SOL    HW2 3066   6.985   7.756   3.986 -1.1739 -1.6479 -0.5384
33190SOL     OW 3067   9.401   5.210   5.401  0.1541  0.0482 -0.2539
33190SOL    HW1 3068   9.450   5.244   5.477 -0.7608 -0.2140  0.4728
33190SOL    HW2 3069   9.343   5.282   5.376 -0.2534 -0.2099 -0.0674
33191SOL     OW 3070   7.965   5.440   8.677  0.2487 -0.6779 -0.1757
33191SOL    HW1 3071   7.952   5.440   8.582 -0.5780  0.8015 -0.1017
33191SOL    HW2 3072   8.005   5.355   8.696 -0.0443 -1.2141 -1.7764
33192SOL     OW 3073  10.873   7.993  10.779 -0.1444 -0.1004  0.5696
33192SOL    HW1 3074  10.891   8.077  10.821 -0.4529  0.5293 -0.5139
33192SOL    HW2 3075  10.837   7.938  10.849  1.5309  0.1343  1.6725
33193SOL     OW 3076   0.244   0.916   9.693 -0.8402  0.1037  0.6374
33193SOL    HW1 3077   0.182   0.855   9.735 -0.3256 -0.8502  0.0448
33193SOL    HW2 3078   0.202   0.939   9.610 -1.6610  1.6557  1.4433
33194SOL     OW 3079   0.059   4.077   3.792 -0.3155  0.7874  0.3316
33194SOL    HW1 3080   0.052   4.033   3.877 -0.6255  3.0111  1.5487
33194SOL    HW2 3081   0.036   4.168   3.811 -0.4137  1.3507 -2.1718
33195SOL     OW 3082   7.611   2.342   6.047 -0.0807 -0.1500 -0.2410
33195SOL    HW1 3083   7.581   2.432   6.034  0.6118  0.1628  0.3039
33195SOL    HW2 3084   7.704   2.343   6.024  0.3340 -0.3507  1.3002
33196SOL     OW 3085   8.497   6.054   8.193  0.6501  1.1236  0.2853
33196SOL    HW1 3086   8.485   5.963   8.219 -0.1343  1.0561 -0.2994
33196SOL    HW2 3087   8.449   6.104   8.260  1.7305  1.1720  1.0567
33197SOL     OW 3088   1.863   5.591   6.575 -0.2121  0.9422  0.4033
33197SOL    HW1 3089   1.774   5.625   6.561 -0.1433  1.3283  0.8958
33197SOL    HW2 3090   1.860   5.552   6.662  0.0496  0.7938  0.3449
33198SOL     OW 3091   2.105   5.814   9.201 -0.0394 -0.0226  0.3625
33198SOL    HW1 3092   2.044   5.887   9.209  2.5091  2.7265 -2.2715
33198SOL    HW2 3093   2.191   5.856   9.195  1.4910 -3.0924 -2.6145
33199SOL     OW 3094   6.098  10.769  10.418  0.0591  0.5246  0.1117
33199SOL    HW1 3095   6.019  10.807  10.380  1.1139  2.2072 -0.5311
33199SOL    HW2 3096   6.142  10.844  10.459  0.8543 -0.5548  1.2960
33200SOL     OW 3097   3.034   7.689   1.510  0.3665  0.4808 -0.3452
33200SOL    HW1 3098   3.043   7.780   1.484  0.0236  0.4613 -0.5338
33200SOL    HW2 3099   2.986   7.648   1.438  3.1224 -0.5307 -1.7657
33201SOL     OW 3100   5.007   0.327   3.614  0.3587 -0.2880 -0.4741
33201SOL    HW1 3101   4.963   0.272   3.679 -0.1079  0.3112 -0.2765
33201SOL    HW2 3102   5.057   0.390   3.666 -1.8098  1.6602 -0.6234
33202SOL     OW 3103   3.250   2.773   1.733 -0.7632 -0.2219  0.1306
33202SOL    HW1 3104   3.324   2.754   1.790 -0.7190 -0.7349 -0.0912
33202SOL    HW2 3105   3.187   2.703   1.752 -2.1800  1.4364  1.9871
33203SOL     OW 3106   9.580   9.519   0.616  0.2001 -0.1680 -0.6649
33203SOL    HW1 3107   9.613   9.431   0.597  0.4531 -0.1649 -0.2490
33203SOL    HW2 3108   9.615   9.573   0.545  1.8640  0.0127  0.2347
33204SOL     OW 3109   3.696   0.785   3.231 -0.1497 -0.3798  0.0977
33204SOL    HW1 3110   3.632   0.716   3.212 -2.0066  0.7665  1.7992
33204SOL    HW2 3111   3.741   0.755   3.310 -1.2901  0.5060  1.1189
33205SOL     OW 3112   3.314   9.370  10.707 -0.6344 -0.1180 -0.2400
33205SOL    HW1 3113   3.320   9.379  10.802  0.7774 -1.5687 -0.1539
33205SOL    HW2 3114   3.405   9.360  10.677 -1.1848 -2.9604 -1.3328
33206SOL     OW 3115   6.385   6.299   7.197  0.1838  0.1864 -0.7962
33206SOL    HW1 3116   6.471   6.315   7.238  0.5672 -0.0623 -1.4811
33206SOL    HW2 3117   6.391   6.210   7.162 -0.6128 -0.0965 -0.2356
33207SOL     OW 3118   9.430   3.830   8.769  0.4707  0.1266  0.2734
33207SOL    HW1 3119   9.483   3.909   8.756  0.0936  0.3633  0.1591
33207SOL    HW2 3120   9.478   3.780   8.835  1.0022  0.1894 -0.0506
33208SOL     OW 3121  10.202   1.477   4.022  0.2192 -0.1542 -0.3199
33208SOL    HW1 3122  10.230   1.410   4.084  1.4618  1.8490  1.4553
33208SOL    HW2 3123  10.109   1.460   4.008 -0.0423 -0.9134  1.9130
33209SOL     OW 3124   3.244   6.814   4.142  0.4577  0.0329 -0.0375
33209SOL    HW1 3125   3.306   6.744   4.122  0.6523 -0.0315  0.7721
33209SOL    HW2 3126   3.159   6.769   4.149  0.4013  0.0415 -0.5871
33210SOL     OW 3127  10.610   5.962   3.677 -0.2820  0.2864  0.0302
33210SOL    HW1 3128  10.704   5.982   3.675 -0.1494 -0.3667 -0.3210
33210SOL    HW2 3129  10.601   5.883   3.624 -0.7592 -0.7223  1.5425
33211SOL     OW 3130   7.332   3.962   8.500 -0.3883 -0.4128 -0.0769
33211SOL    HW1 3131   7.383   4.031   8.542  2.4472 -0.4058 -3.0916
33211SOL    HW2 3132   7.397   3.894   8.480 -1.8283 -1.1037 -2.8166
33212SOL     OW 3133   1.518   7.987   3.236  0.0128  0.2223  0.3789
33212SOL    HW1 3134   1.536   8.081   3.243 -0.8827  0.4853 -0.5115
33212SOL    HW2 3135   1.481   7.963   3.321 -1.9069  1.2153 -0.1063
33213SOL     OW 3136  10.163   0.976   4.687  0.2673  0.0475 -0.4774
33213SOL    HW1 3137  10.099   1.038   4.652  0.8702  0.4082 -0.9534
33213SOL    HW2 3138  10.156   0.986   4.782 -0.0484  0.4198 -0.5345
33214SOL     OW 3139   6.841   0.153   0.479 -0.3544  0.2112  0.0634
33214SOL    HW1 3140   6.828   0.166   0.385  0.3438  2.2648  0.1829
33214SOL    HW2 3141   6.756   0.174   0.518 -0.1942  1.0801 -0.0216
33215SOL     OW 3142   2.230   9.936   2.581 -0.3309 -0.0105  0.3197
33215SOL    HW1 3143   2.164   9.936   2.650  0.3182  0.0566  0.9547
33215SOL    HW2 3144   2.181   9.958   2.501 -1.3780 -1.7280  0.4451
33216SOL     OW 3145   0.863   0.381   9.521  0.1062 -0.8994  0.2002
33216SOL    HW1 3146   0.866   0.365   9.616 -0.9136  0.9343  0.6077
33216SOL    HW2 3147   0.786   0.331   9.491 -0.4958 -0.2724  0.6519
33217SOL     OW 3148   8.877   1.323  10.121  0.5087  0.1908  0.1440
33217SOL    HW1 3149   8.851   1.258  10.186 -0.7418 -3.5465 -3.6416
33217SOL    HW2 3150   8.796   1.366  10.096  0.2261 -1.2560 -1.6119
33218SOL     OW 3151   5.237   1.331   2.819 -0.4053 -0.2258 -0.7021
33218SOL    HW1 3152   5.228   1.236   2.812  0.1978 -0.4789  1.4074
33218SOL    HW2 3153   5.254   1.347   2.912 -2.7686  2.1389 -0.5497
33219SOL     OW 3154   3.954   7.548   8.927 -0.0943  0.4030  0.2600
33219SOL    HW1 3155   3.953   7.501   8.843  0.5422 -0.2138  0.5856
33219SOL    HW2 3156   3.961   7.640   8.903  0.2608  0.2182 -0.3668
33220SOL     OW 3157   7.429   5.613   6.523  0.0152  0.2343 -0.2845
33220SOL    HW1 3158   7.385   5.685   6.477 -1.0935 -1.1590 -1.5447
33220SOL    HW2 3159   7.359   5.570   6.572  1.0609  1.2685  2.2954
33221SOL     OW 3160   4.999   1.935   6.150  0.1529  0.0810 -0.2084
33221SOL    HW1 3161   5.059   1.892   6.212 -0.2565  0.5479  0.5257
33221SOL    HW2 3162   5.055   1.994   6.100  0.2977  0.5949  0.5482
33222SOL     OW 3163   8.165   2.192   7.393  0.3472  0.2714 -0.3260
33222SOL    HW1 3164   8.147   2.220   7.483  0.1026 -1.1917  0.1040
33222SOL    HW2 3165   8.259   2.205   7.382  0.3931  0.3951  0.1656
33223SOL     OW 3166   6.933   9.801  10.019 -0.2620  0.4390  0.1633
33223SOL    HW1 3167   6.857   9.857  10.031  0.0096  0.7594  0.3801
33223SOL    HW2 3168   6.996   9.830  10.085 -0.5421 -0.8524  1.0317
33224SOL     OW 3169   6.699   3.219   8.538 -0.2152 -0.2770  0.2995
33224SOL    HW1 3170   6.722   3.305   8.502 -0.9141 -0.3307 -0.3057
33224SOL    HW2 3171   6.663   3.171   8.464  0.4937 -1.2254  0.5579
33225SOL     OW 3172   4.382   3.112   1.808  0.2276 -0.0473  0.1118
33225SOL    HW1 3173   4.423   3.187   1.851 -1.3800  1.4022 -0.7536
33225SOL    HW2 3174   4.292   3.112   1.841 -0.5196 -0.0347 -1.7973
33226SOL     OW 3175   5.832   8.170   2.406 -0.0569  0.1266  0.0753
33226SOL    HW1 3176   5.867   8.119   2.478 -1.9465 -0.6382  0.4966
33226SOL    HW2 3177   5.808   8.105   2.340  0.2107  0.7125 -0.6180
33227SOL     OW 3178  10.339   7.922  10.928 -0.0293 -0.3530 -0.2157
33227SOL    HW1 3179  10.413   7.916  10.989  1.1082  0.6825 -1.4101
33227SOL    HW2 3180  10.305   8.011  10.941  0.1355 -0.1726 -0.9665
33228SOL     OW 3181   0.413   0.433   0.196  0.9396 -0.0070  0.7259
33228SOL    HW1 3182   0.328   0.471   0.218  2.1594  3.3537  0.1653
33228SOL    HW2 3183   0.422   0.448   0.102  2.2164 -0.2275  0.8038
33229SOL     OW 3184   0.067   2.630   6.021 -0.3344 -0.7520 -0.0161
33229SOL    HW1 3185   0.081   2.542   5.985  1.5120 -0.2280 -0.6968
33229SOL    HW2 3186   0.038   2.614   6.111  1.3309 -2.1040  0.3520
33230SOL     OW 3187   6.060   7.679   3.861  0.7573 -0.3915  0.0203
33230SOL    HW1 3188   6.130   7.613   3.860  0.4792 -0.8582 -4.2547
33230SOL    HW2 3189   5.988   7.636   3.908  1.2653 -2.4000 -0.9349
33231SOL     OW 3190   8.439   9.601   7.909 -0.6264 -0.5892  0.2133
33231SOL    HW1 3191   8.419   9.541   7.837 -0.0250 -1.3121  0.6326
33231SOL    HW2 3192   8.360   9.601   7.964 -0.8278 -0.5691 -0.0782
33232SOL     OW 3193   7.555   4.160   4.204  0.7844  0.0418  0.3048
33232SOL    HW1 3194   7.632   4.211   4.180  1.0614 -0.3747  0.3043
33232SOL    HW2 3195   7.513   4.211   4.273  1.5530 -0.1691  0.9400
33233SOL     OW 3196   8.329   6.027   1.098  0.5505  0.0132 -0.6385
33233SOL    HW1 3197   8.239   6.012   1.071  0.0129 -0.7930  1.4304
33233SOL    HW2 3198   8.381   5.974   1.038 -0.2247  1.1181 -2.3818
33234SOL     OW 3199   6.849   0.860   6.247 -0.0985  0.5421 -0.1605
33234SOL    HW1 3200   6.900   0.848   6.327 -1.2803  1.9330  0.8623
33234SOL    HW2 3201   6.904   0.825   6.177  0.9902 -0.6554  1.2485
33235SOL     OW 3202   5.454   5.278   6.180  0.3730  0.7156  0.2884
33235SOL    HW1 3203   5.439   5.299   6.088  1.1204 -1.1820 -0.3232
33235SOL    HW2 3204   5.366   5.277   6.219 -0.0073  0.9811 -0.5410
33236SOL     OW 3205   2.544  10.838   0.301 -0.2430  0.2107 -0.0289
33236SOL    HW1 3206   2.484  10.771   0.268 -1.1850  1.0912 -0.1588
33236SOL    HW2 3207   2.491  10.888   0.364 -0.4459  2.5486 -1.9313
33237SOL     OW 3208   9.949   0.836   2.117 -0.1891  0.3186  0.0164
33237SOL    HW1 3209  10.000   0.912   2.091 -0.0581 -0.2885 -1.6590
33237SOL    HW2 3210   9.994   0.762   2.078 -1.8537 -0.3211 -0.8112
33238SOL     OW 3211   5.909   1.939   8.652  0.4792  0.2376 -0.5661
33238SOL    HW1 3212   5.979   1.999   8.679  0.0837  0.0598  0.9401
33238SOL    HW2 3213   5.828   1.985   8.674  0.1467 -0.1437 -0.9818
33239SOL     OW 3214   4.034   4.118   5.390 -0.4170 -0.3148  0.3498
33239SOL    HW1 3215   4.119   4.132   5.348 -0.5738 -0.3553  0.0166
33239SOL    HW2 3216   3.970   4.144   5.324 -0.6638 -0.2665  0.6064
33240SOL     OW 3217   4.431   4.341  10.052 -0.6147  0.8461 -0.1988
33240SOL    HW1 3218   4.390   4.355  10.138 -0.2704  1.9829 -0.2001
33240SOL    HW2 3219   4.383   4.268  10.014  1.2724 -1.9302  2.2536
33241SOL     OW 3220   0.598   1.943   0.833 -0.1131 -0.6052  0.1904
33241SOL    HW1 3221   0.659   2.015   0.849  0.5098 -0.8769 -0.8622
33241SOL    HW2 3222   0.517   1.985   0.804 -0.5380 -0.2307  1.8279
33242SOL     OW 3223   9.053   0.590   0.860 -0.4750 -0.9278 -0.2319
33242SOL    HW1 3224   9.102   0.604   0.779  1.4722 -0.5108  0.9476
33242SOL    HW2 3225   8.995   0.517   0.841 -1.1829  0.1231 -2.4533
33243SOL     OW 3226   7.938   6.473   6.480 -0.6109 -0.0799  0.2658
33243SOL    HW1 3227   7.879   6.543   6.450 -1.5893 -1.6751 -1.8757
33243SOL    HW2 3228   7.956   6.494   6.571 -3.6850  1.0944  0.7314
33244SOL     OW 3229   3.981   7.100   4.979  0.4208  0.1446  0.0875
33244SOL    HW1 3230   4.031   7.029   4.939 -0.2264  0.6669 -1.7860
33244SOL    HW2 3231   4.047   7.167   5.000  0.6810  0.4524 -1.5166
33245SOL     OW 3232   6.310  10.680   5.253 -0.3038  0.0161  0.2404
33245SOL    HW1 3233   6.273  10.610   5.198 -0.2327  1.4082 -1.6945
33245SOL    HW2 3234   6.403  10.680   5.231 -0.3607  0.9165 -0.0470
33246SOL     OW 3235  10.804   7.313   3.882  0.0665  0.4899  0.2269
33246SOL    HW1 3236  10.734   7.302   3.946 -1.1284  0.0623 -1.0939
33246SOL    HW2 3237  10.831   7.404   3.891  0.7521  0.1309  2.1239
33247SOL     OW 3238   2.239   1.990  10.099 -0.1858  0.0404 -0.6857
33247SOL    HW1 3239   2.304   1.942  10.048  0.3374 -0.6499  0.5799
33247SOL    HW2 3240   2.285   2.067  10.131 -0.6663  0.7566 -1.6606
33248SOL     OW 3241   0.611   1.017  10.345  0.1316 -0.3060 -0.5370
33248SOL    HW1 3242   0.656   1.041  10.426  1.2124 -2.4349 -0.4361
33248SOL    HW2 3243   0.607   1.098  10.295  3.7491  0.1771 -0.3366
33249SOL     OW 3244   4.768   6.517   7.702  0.0662  0.1939 -0.0665
33249SOL    HW1 3245   4.819   6.445   7.740  1.2673  0.9338 -0.2173
33249SOL    HW2 3246   4.833   6.584   7.681 -1.0442  1.4583  0.3330
33250SOL     OW 3247   4.415   2.816   2.446  0.5863  0.4403  0.7095
33250SOL    HW1 3248   4.438   2.744   2.504  0.9297  0.1574  0.2272
33250SOL    HW2 3249   4.436   2.784   2.358 -1.4253  0.2389  0.2531
33251SOL     OW 3250   1.921   9.533   3.919 -0.7322  0.4953 -0.9091
33251SOL    HW1 3251   1.979   9.553   3.993 -0.4319  0.9534 -1.2607
33251SOL    HW2 3252   1.964   9.461   3.874 -0.9889  0.1194 -0.5579
33252SOL     OW 3253   0.226  10.409   5.569 -0.5275  0.3719  1.0807
33252SOL    HW1 3254   0.153  10.357   5.536  0.5052 -0.6942  0.3859
33252SOL    HW2 3255   0.269  10.444   5.491  1.8639 -2.0603  1.1454
33253SOL     OW 3256   2.484   9.962   5.632 -0.1481 -0.9005  0.1103
33253SOL    HW1 3257   2.417   9.958   5.700  0.3814  0.2453  0.7452
33253SOL    HW2 3258   2.441  10.005   5.558  0.0887  0.6216  0.8213
33254SOL     OW 3259   4.509   9.466   3.005  0.0786  0.4547 -0.0516
33254SOL    HW1 3260   4.518   9.382   2.959 -0.6343  0.4985 -0.2956
33254SOL    HW2 3261   4.546   9.450   3.092  0.1833 -0.0371 -0.1811
33255SOL     OW 3262   9.266   9.709   9.148  0.3851 -0.1496  0.0175
33255SOL    HW1 3263   9.271   9.653   9.225  0.4398  0.1820  0.2604
33255SOL    HW2 3264   9.350   9.755   9.147 -0.1429  0.8569  0.5473
33256SOL     OW 3265   0.501   8.918  10.810  0.5029 -0.3250 -0.2165
33256SOL    HW1 3266   0.475   9.009  10.796 -0.0380 -0.5656 -0.7958
33256SOL    HW2 3267   0.492   8.877  10.724  1.3049 -0.7922 -0.0865
33257SOL     OW 3268   5.243   4.273   5.805 -0.3384  0.1892 -0.7071
33257SOL    HW1 3269   5.206   4.331   5.738  0.2572  2.4551  0.8284
33257SOL    HW2 3270   5.201   4.300   5.886  2.6044  1.0365  0.6561
33258SOL     OW 3271   8.280   0.541   4.135 -0.3450 -0.4805 -0.1557
33258SOL    HW1 3272   8.216   0.609   4.113  2.1259  1.5357 -1.7180
33258SOL    HW2 3273   8.282   0.484   4.057  0.7799  0.3577 -0.7643
33259SOL     OW 3274   6.209   1.330   0.632 -0.3734 -0.5411  0.3385
33259SOL    HW1 3275   6.227   1.237   0.649 -1.4036 -0.7557  0.3186
33259SOL    HW2 3276   6.218   1.372   0.717 -0.9627 -0.8486  0.5612
33260SOL     OW 3277   5.773   4.410   7.861 -0.1384  0.2931  0.6403
33260SOL    HW1 3278   5.726   4.463   7.925 -0.4012  0.3277  0.4189
33260SOL    HW2 3279   5.824   4.473   7.810 -2.4915  0.7149 -1.4171
33261SOL     OW 3280   1.977   2.896   7.659  0.1895  0.1347  0.0702
33261SOL    HW1 3281   1.919   2.967   7.685  0.2321  0.2357 -0.1153
33261SOL    HW2 3282   1.970   2.892   7.564 -0.4262 -0.6268  0.1355
33262SOL     OW 3283   7.822   4.071   6.840  0.1796  0.5232  0.6940
33262SOL    HW1 3284   7.834   4.138   6.908 -1.3402  0.1856  1.3437
33262SOL    HW2 3285   7.739   4.094   6.798 -0.7065 -1.2867  1.3606
33263SOL     OW 3286   7.454   0.171   9.539  0.2206  0.0615  0.4060
33263SOL    HW1 3287   7.534   0.176   9.591  0.9747  0.7800 -0.7613
33263SOL    HW2 3288   7.442   0.077   9.522  0.2935 -0.1265  1.3383
33264SOL     OW 3289  10.116   4.303   8.608 -0.8042 -0.1270  0.5273
33264SOL    HW1 3290  10.199   4.259   8.588  0.1561  1.6013  0.4895
33264SOL    HW2 3291  10.094   4.272   8.696  0.3739  0.0480  0.9126
33265SOL     OW 3292  10.172   6.662   9.889 -0.0587  0.1346 -0.2730
33265SOL    HW1 3293  10.167   6.666   9.794 -1.7725  2.4333 -0.1672
33265SOL    HW2 3294  10.129   6.579   9.912 -2.2438  0.8661 -1.4320
33266SOL     OW 3295   0.644   1.630  10.917  0.8921 -0.2303  0.0542
33266SOL    HW1 3296   0.590   1.709  10.921  1.8693  0.4389  0.5220
33266SOL    HW2 3297   0.664   1.610  11.008  2.0244 -0.0315 -0.1351
33267SOL     OW 3298  10.895   0.376   4.318  0.6473 -0.1535  0.2911
33267SOL    HW1 3299  10.842   0.297   4.315 -1.4892  1.2391 -0.7644
33267SOL    HW2 3300  10.922   0.391   4.227 -0.6830  1.3825  0.1141
33268SOL     OW 3301   2.164   7.375   9.146 -0.4221  0.1582  0.2196
33268SOL    HW1 3302   2.195   7.331   9.225 -0.8882  0.3298  0.5006
33268SOL    HW2 3303   2.068   7.371   9.152 -0.4643 -0.5416 -0.7357
33269SOL     OW 3304   9.639   3.266   1.178  0.1811  0.3767  0.2527
33269SOL    HW1 3305   9.641   3.271   1.273 -0.1049  0.9220  0.2363
33269SOL    HW2 3306   9.705   3.329   1.149  0.1001  0.3871  0.0893
33270SOL     OW 3307   3.636   4.443   0.241  0.2569  0.2769  0.0157
33270SOL    HW1 3308   3.552   4.444   0.287  2.0775 -0.0470  3.8058
33270SOL    HW2 3309   3.646   4.353   0.211 -1.0188  0.5023 -1.1698
33271SOL     OW 3310   8.888   0.664   5.297  0.7147 -0.4542 -0.3687
33271SOL    HW1 3311   8.873   0.660   5.203 -0.7739 -0.3922 -0.1598
33271SOL    HW2 3312   8.960   0.726   5.308  0.1648  0.3801 -1.3891
33272SOL     OW 3313   0.548  10.574   0.847 -0.2131  0.0067 -0.3605
33272SOL    HW1 3314   0.584  10.658   0.819  0.1524  0.2366  0.7440
33272SOL    HW2 3315   0.603  10.508   0.805  1.1152  0.3491  0.7849
33273SOL     OW 3316   1.267  10.931   2.069 -0.1535 -0.1630 -0.2280
33273SOL    HW1 3317   1.290  10.990   2.140  0.5718 -0.0641 -0.5306
33273SOL    HW2 3318   1.351  10.907   2.030 -0.5801  0.6517 -1.7442
33274SOL     OW 3319   1.750   6.167   3.506  0.1730 -0.2477 -0.2529
33274SOL    HW1 3320   1.761   6.232   3.436  0.5010 -1.8740 -1.7539
33274SOL    HW2 3321   1.819   6.104   3.492  1.2440  0.1782  2.5498
33275SOL     OW 3322   2.392   8.510   6.203 -0.3014 -0.1112 -0.2453
33275SOL    HW1 3323   2.444   8.581   6.239  0.0440 -1.2492  1.6233
33275SOL    HW2 3324   2.301   8.533   6.223 -0.2294  0.0339 -0.0851
33276SOL     OW 3325   3.730   0.905   6.997  0.1957  0.4161 -0.4133
33276SOL    HW1 3326   3.748   0.982   7.050 -1.0891  0.8844 -0.6392
33276SOL    HW2 3327   3.791   0.912   6.924  1.9677 -0.2281  0.9314
33277SOL     OW 3328   8.582   7.102   6.620  0.3815  0.0601  0.3908
33277SOL    HW1 3329   8.608   7.160   6.692  0.6184  0.9692 -0.3977
33277SOL    HW2 3330   8.618   7.145   6.542  2.1781 -2.0951 -0.0729
33278SOL     OW 3331   7.089   3.273   1.537 -0.8838  0.4789  0.5305
33278SOL    HW1 3332   7.165   3.221   1.511 -0.9438  0.8618 -0.4524
33278SOL    HW2 3333   7.123   3.361   1.552 -1.0186  0.4905  0.7818
33279SOL     OW 3334   2.372   8.972   0.568  0.3423 -0.8453 -0.5197
33279SOL    HW1 3335   2.308   8.905   0.592  1.5076 -1.0971  2.3487
33279SOL    HW2 3336   2.344   9.050   0.617  0.6370 -0.1058 -1.5014
33280SOL     OW 3337   6.643   3.849   9.129  0.0851  0.4432 -0.2960
33280SOL    HW1 3338   6.714   3.831   9.068  0.2340  0.0552 -0.0152
33280SOL    HW2 3339   6.567   3.804   9.091 -0.0294  0.8979 -0.6207
33281SOL     OW 3340   3.624   4.145   2.613  0.5600  0.0582 -0.2969
33281SOL    HW1 3341   3.616   4.167   2.521  0.6043 -1.1548 -0.6176
33281SOL    HW2 3342   3.710   4.102   2.620  1.1173  1.2632  0.5621
33282SOL     OW 3343   4.241   8.653   8.904 -0.2032 -0.2372 -0.1773
33282SOL    HW1 3344   4.265   8.708   8.978  1.7219  0.0887 -0.9743
33282SOL    HW2 3345   4.147   8.641   8.912 -0.2201  0.7681  1.6341
33283SOL     OW 3346   8.308   8.491   0.932 -0.4903 -0.2004 -0.1827
33283SOL    HW1 3347   8.350   8.555   0.988  0.3705 -0.5994 -0.3631
33283SOL    HW2 3348   8.330   8.518   0.843  0.5664 -1.1955 -0.2390
33284SOL     OW 3349   5.181   6.921   7.858  0.0465 -0.2404  0.2209
33284SOL    HW1 3350   5.153   6.945   7.947 -0.9639 -2.1545  0.4770
33284SOL    HW2 3351   5.104   6.879   7.820  0.7470 -0.2221 -1.2594
33285SOL     OW 3352   3.313   2.233   9.419  0.6570  0.3672 -0.1720
33285SOL    HW1 3353   3.394   2.281   9.439  0.6460  0.4409 -0.3024
33285SOL    HW2 3354   3.270   2.287   9.353  0.1859  0.6659  0.3678
33286SOL     OW 3355   7.690   4.374  10.417 -0.6271  0.0222  0.1591
33286SOL    HW1 3356   7.783   4.373  10.439 -0.3713 -0.3922 -0.8500
33286SOL    HW2 3357   7.674   4.288  10.378 -1.7964 -0.4948  1.6765
33287SOL     OW 3358   8.077   8.390   2.651 -0.2412  0.0249  0.0028
33287SOL    HW1 3359   8.011   8.321   2.655 -1.8073  1.3298 -1.3912
33287SOL    HW2 3360   8.051   8.453   2.717 -0.1156  0.3160 -0.2193
33288SOL     OW 3361   6.868   6.882   5.954 -0.2141 -0.2280  0.3271
33288SOL    HW1 3362   6.776   6.900   5.970 -0.2389 -0.2512  0.2118
33288SOL    HW2 3363   6.901   6.845   6.036 -0.0966  0.6092  0.6704
33289SOL     OW 3364   5.944   1.505  10.798  0.6375 -0.0218 -0.0930
33289SOL    HW1 3365   6.011   1.494  10.730  0.0104 -1.3869 -0.5337
33289SOL    HW2 3366   5.990   1.548  10.870  1.6049  0.4315 -0.9565
33290SOL     OW 3367   2.150   4.403   3.389 -0.2232  0.3496 -0.0617
33290SOL    HW1 3368   2.108   4.345   3.326 -1.0909  1.5753 -0.6711
33290SOL    HW2 3369   2.108   4.383   3.472 -0.1237 -0.2639 -0.1564
33291SOL     OW 3370   3.020   8.132   4.353 -0.7574  0.1033  0.4025
33291SOL    HW1 3371   2.954   8.197   4.378 -0.4619  1.5484 -2.3050
33291SOL    HW2 3372   3.050   8.159   4.267  2.3410 -1.3660  0.8785
33292SOL     OW 3373   9.048   8.011   8.226  0.5490 -0.2476  0.0385
33292SOL    HW1 3374   9.083   8.080   8.282  0.1409 -0.4530  0.5515
33292SOL    HW2 3375   9.117   7.995   8.162 -0.4229  2.7161 -1.9765
33293SOL     OW 3376   7.609   5.968  10.590 -0.7481 -0.0567 -0.2499
33293SOL    HW1 3377   7.584   6.028  10.519 -1.1195  0.3048  0.1722
33293SOL    HW2 3378   7.621   5.883  10.547  0.5282  0.4601 -0.9879
33294SOL     OW 3379   5.630   4.011   9.872 -0.8394 -0.3360  0.0324
33294SOL    HW1 3380   5.713   4.042   9.835 -0.1688 -0.8110  1.0975
33294SOL    HW2 3381   5.628   4.047   9.960 -1.3391 -1.0842  0.3314
33295SOL     OW 3382   7.256   6.506   2.314 -0.4339  0.0365 -0.0000
33295SOL    HW1 3383   7.178   6.455   2.290  0.3131 -1.5011  0.7099
33295SOL    HW2 3384   7.325   6.470   2.258 -0.2267  1.4795 -0.7198
33296SOL     OW 3385   5.137   2.243   6.977 -0.2720  0.3554 -0.1469
33296SOL    HW1 3386   5.133   2.158   7.023  0.6114  0.4657  0.1599
33296SOL    HW2 3387   5.201   2.229   6.908 -1.9633  0.0433 -1.7296
33297SOL     OW 3388   9.013   4.568   2.775 -0.4276  0.2080 -0.4473
33297SOL    HW1 3389   9.010   4.474   2.758  2.9657  0.0600 -0.8201
33297SOL    HW2 3390   9.021   4.608   2.688 -0.6038  0.7642 -0.2156
33298SOL     OW 3391   1.294   8.557   9.899  0.4032 -0.2002  0.3647
33298SOL    HW1 3392   1.277   8.481   9.844 -0.6195  0.8171 -0.7914
33298SOL    HW2 3393   1.327   8.623   9.838  2.1365  0.0389  1.4837
33299SOL     OW 3394  10.382   8.137   0.978 -0.1317 -0.1025  0.3969
33299SOL    HW1 3395  10.454   8.085   1.014  0.3751  0.4580  0.2220
33299SOL    HW2 3396  10.388   8.220   1.024 -0.8159 -0.1315  0.5425
33300SOL     OW 3397   1.891   9.823   9.008 -0.4001 -0.1646 -0.1957
33300SOL    HW1 3398   1.938   9.750   8.968  0.8237 -0.3719  1.4942
33300SOL    HW2 3399   1.956   9.864   9.066 -1.7966  0.6950  0.8207
33301SOL     OW 3400   6.085   1.814   9.713  0.5160 -0.1489  0.4502
33301SOL    HW1 3401   6.152   1.771   9.765  0.1939 -0.4180  0.6536
33301SOL    HW2 3402   6.098   1.908   9.728 -0.7333 -0.2249  2.5591
33302SOL     OW 3403   3.821   2.133   6.333 -0.0063  0.7546  0.2679
33302SOL    HW1 3404   3.779   2.219   6.327 -0.2596  0.6456  0.4143
33302SOL    HW2 3405   3.911   2.147   6.305 -0.0612  1.0576  0.2422
33303SOL     OW 3406   0.395   1.991   0.618  0.3983  0.6688  0.0808
33303SOL    HW1 3407   0.412   2.085   0.620  0.0021  0.7712 -0.9901
33303SOL    HW2 3408   0.332   1.979   0.547 -1.8809 -0.0379  2.0655
33304SOL     OW 3409   5.947   5.671   0.286 -0.2261  0.9934  0.4970
33304SOL    HW1 3410   5.914   5.663   0.376 -0.9354 -1.1165  0.0892
33304SOL    HW2 3411   5.869   5.684   0.233  0.2573  3.0270  0.2200
33305SOL     OW 3412   5.887   7.619   7.793 -0.5034  0.3596 -0.3126
33305SOL    HW1 3413   5.972   7.622   7.749 -0.2302 -0.2570  0.1443
33305SOL    HW2 3414   5.824   7.603   7.723 -0.4584  2.4194 -0.8857
33306SOL     OW 3415   2.652   3.178   2.119  0.5701 -0.6500 -0.1974
33306SOL    HW1 3416   2.702   3.096   2.114 -0.1606 -1.1713  0.6483
33306SOL    HW2 3417   2.679   3.228   2.042  0.4305 -2.0332 -1.1852
33307SOL     OW 3418   9.493   9.720   7.133 -0.3087 -0.0365  0.1901
33307SOL    HW1 3419   9.551   9.644   7.132 -0.9776 -0.5819 -2.1206
33307SOL    HW2 3420   9.415   9.692   7.086 -0.4086  2.1769 -1.1211
33308SOL     OW 3421   5.841   3.263   2.589  0.1994 -0.2174  0.3077
33308SOL    HW1 3422   5.761   3.300   2.553 -0.5897  0.1591  2.3042
33308SOL    HW2 3423   5.824   3.169   2.593 -0.1052 -0.1561  0.5656
33309SOL     OW 3424   0.598   9.923   3.749  0.4109 -0.0562  0.3071
33309SOL    HW1 3425   0.609  10.017   3.736  0.4790 -0.0782  0.2071
33309SOL    HW2 3426   0.686   9.891   3.773 -0.1116  0.3490  3.1149
33310SOL     OW 3427   1.583   5.792   0.439  0.0915  0.1324  0.4591
33310SOL    HW1 3428   1.673   5.761   0.425 -0.5404 -1.3210 -0.5826
33310SOL    HW2 3429   1.550   5.738   0.512 -0.3882 -0.3402 -0.0994
33311SOL     OW 3430   6.942  10.935   6.906  0.1559 -0.0699 -0.0073
33311SOL    HW1 3431   6.883  10.981   6.846 -1.4502 -0.7219  1.0027
33311SOL    HW2 3432   7.010  10.898   6.850 -0.4607  0.6077 -1.2346
33312SOL     OW 3433   2.313   3.361   6.627 -0.3649 -0.4664 -0.1567
33312SOL    HW1 3434   2.249   3.298   6.660 -0.9074  0.8966  1.5681
33312SOL    HW2 3435   2.284   3.445   6.662  2.8314  0.1090  1.5388
33313SOL     OW 3436   4.755   2.234   6.482  0.5025 -0.2542  0.1831
33313SOL    HW1 3437   4.687   2.240   6.415  0.5893 -0.9314  0.0261
33313SOL    HW2 3438   4.765   2.140   6.498 -0.5041 -0.0793  2.1603
33314SOL     OW 3439   3.675   1.709   9.904 -0.8084 -0.4568 -0.0751
33314SOL    HW1 3440   3.661   1.738   9.814  1.6158  0.3726 -0.2461
33314SOL    HW2 3441   3.704   1.788   9.950 -0.4830 -1.2110  1.0461
33315SOL     OW 3442  10.784   2.935   6.845 -0.1111 -0.0772 -0.0689
33315SOL    HW1 3443  10.707   2.973   6.803  0.0819 -0.7970 -1.1059
33315SOL    HW2 3444  10.858   2.986   6.813  0.0626 -0.7834 -0.8091
33316SOL     OW 3445   9.005   3.925   1.529  0.3526  0.2454  0.2259
33316SOL    HW1 3446   8.948   3.922   1.453  2.0472 -0.1005 -1.1037
33316SOL    HW2 3447   8.972   3.998   1.581 -1.4137 -0.0942 -0.3411
33317SOL     OW 3448   3.178   6.213   4.992 -0.2488  0.5994  0.0339
33317SOL    HW1 3449   3.113   6.191   4.926  0.1882  2.3581 -1.0554
33317SOL    HW2 3450   3.261   6.183   4.955 -0.2281 -0.1161  0.6518
33318SOL     OW 3451  10.752  10.271   7.336  0.0751  0.2072 -0.0325
33318SOL    HW1 3452  10.675  10.319   7.306  1.1369  0.7311 -2.1565
33318SOL    HW2 3453  10.721  10.180   7.344 -1.2203  0.7199  1.1185
33319SOL     OW 3454   2.926   3.495   5.590 -0.0650  0.2026  0.2249
33319SOL    HW1 3455   2.892   3.578   5.623 -1.6479  0.0846 -1.0361
33319SOL    HW2 3456   2.981   3.519   5.515 -2.8722  0.0188 -2.0355
33320SOL     OW 3457   4.385   6.211   5.467 -0.0516  0.2122  0.5336
33320SOL    HW1 3458   4.355   6.160   5.392 -1.1220  0.6644  0.6387
33320SOL    HW2 3459   4.305   6.230   5.516  0.4288  1.3286  0.9048
33321SOL     OW 3460   4.114   8.417   5.480 -0.6004  0.1969  0.3394
33321SOL    HW1 3461   4.171   8.494   5.482 -0.5417  0.1506  0.4427
33321SOL    HW2 3462   4.158   8.357   5.420 -0.1817 -0.1169  0.9550
33322SOL     OW 3463   1.897  10.627   8.638  0.0800 -0.0836  0.0930
33322SOL    HW1 3464   1.887  10.722   8.646 -0.9048  0.1643 -2.8293
33322SOL    HW2 3465   1.930  10.614   8.549 -0.4572 -2.5010  0.1848
33323SOL     OW 3466   8.225   3.417   2.062 -0.3682 -0.2615 -0.2689
33323SOL    HW1 3467   8.219   3.478   2.136 -2.4471  0.8610 -1.2605
33323SOL    HW2 3468   8.173   3.341   2.090  0.3651 -0.6330  0.1056
33324SOL     OW 3469   0.238   9.705   9.393  0.3186 -0.1903 -0.4036
33324SOL    HW1 3470   0.221   9.761   9.468 -0.4518 -1.1395  0.1608
33324SOL    HW2 3471   0.322   9.735   9.358  0.9259 -0.0631  1.1269
33325SOL     OW 3472   6.902   1.890   9.258  0.1506  0.7931 -0.3439
33325SOL    HW1 3473   6.903   1.919   9.350 -0.0631 -1.2526  0.3390
33325SOL    HW2 3474   6.896   1.795   9.263 -1.0962  0.7078 -2.5026
33326SOL     OW 3475   8.106   7.073   9.758 -0.2698 -0.1837  0.1617
33326SOL    HW1 3476   8.067   7.119   9.683  0.9886 -0.2867 -0.5889
33326SOL    HW2 3477   8.117   7.140   9.825  0.3680  0.3446 -0.4578
33327SOL     OW 3478   7.972   4.303   4.857 -0.2959  0.0091 -0.6828
33327SOL    HW1 3479   7.973   4.210   4.880  2.9105  0.0846 -0.0560
33327SOL    HW2 3480   8.004   4.306   4.767 -0.4658  0.5113 -0.7318
33328SOL     OW 3481   0.026   6.268   3.326  0.2565  0.2799 -0.0884
33328SOL    HW1 3482  -0.050   6.220   3.292  0.3815  1.2674 -1.8599
33328SOL    HW2 3483   0.027   6.350   3.277  2.2001  0.4964  0.2259
33329SOL     OW 3484   6.165  10.667  10.667  0.2692  0.0624  0.0216
33329SOL    HW1 3485   6.163  10.688  10.574 -1.5371 -0.7649 -0.1717
33329SOL    HW2 3486   6.255  10.684  10.694  0.6473  0.9922 -1.7046
33330SOL     OW 3487   3.875   0.379   2.547 -0.2661 -0.4470  0.0427
33330SOL    HW1 3488   3.864   0.469   2.516 -1.2852 -0.7865 -0.6280
33330SOL    HW2 3489   3.892   0.329   2.467  0.9966 -0.7721  0.4796
33331SOL     OW 3490   9.669   6.396   8.931  0.0910 -0.6097  0.5278
33331SOL    HW1 3491   9.584   6.428   8.900  0.2286 -1.9393 -1.4287
33331SOL    HW2 3492   9.652   6.369   9.021 -1.8047 -1.5522 -0.0395
33332SOL     OW 3493   3.124   4.238   9.637 -0.3583 -0.0357 -0.4171
33332SOL    HW1 3494   3.144   4.170   9.701 -1.6367  0.8094  0.9373
33332SOL    HW2 3495   3.079   4.192   9.566  0.7534 -0.9232 -0.5779
33333SOL     OW 3496   7.855  10.456   3.909  0.1493  0.8442  0.8695
33333SOL    HW1 3497   7.940  10.498   3.895  0.6860 -0.8152 -1.6780
33333SOL    HW2 3498   7.866  10.404   3.988  1.3516  1.0606  0.8646
33334SOL     OW 3499   7.929   1.804   5.113  0.3404  0.8440  0.0440
33334SOL    HW1 3500   7.917   1.877   5.174  0.2842 -0.4302  1.6418
33334SOL    HW2 3501   8.024   1.792   5.109  0.3943  1.5267 -0.8852
33335SOL     OW 3502   9.895   8.972   6.711  0.3630 -0.0631  0.2185
33335SOL    HW1 3503   9.982   8.993   6.677  0.3220 -0.1082  0.0868
33335SOL    HW2 3504   9.868   8.894   6.662 -0.0352  0.3482 -0.2189
33336SOL     OW 3505   8.502   6.164   6.294  0.6036  0.5701 -0.7051
33336SOL    HW1 3506   8.486   6.221   6.219 -0.8372  0.9737 -0.1180
33336SOL    HW2 3507   8.448   6.087   6.277 -0.0295  0.8302  0.0802
33337SOL     OW 3508   6.284   8.782   8.361 -0.1042 -0.5352  0.1780
33337SOL    HW1 3509   6.206   8.781   8.416 -0.6580 -0.6369 -0.6089
33337SOL    HW2 3510   6.296   8.691   8.334 -0.3261 -0.3532 -0.5583
33338SOL     OW 3511   4.575   9.051   8.332  0.1255 -0.3205 -0.7890
33338SOL    HW1 3512   4.616   9.132   8.303 -1.7490  0.5595 -1.1556
33338SOL    HW2 3513   4.485   9.056   8.299 -0.8483 -1.2822  1.4658
33339SOL     OW 3514   1.467   6.407   2.769 -0.4198 -0.0016 -0.1174
33339SOL    HW1 3515   1.511   6.334   2.813  0.8819  1.2505  0.7502
33339SOL    HW2 3516   1.374   6.388   2.777 -0.2597  0.0954  3.1400
33340SOL     OW 3517   7.975   2.830  10.503 -0.3652 -0.1397 -0.0578
33340SOL    HW1 3518   7.916   2.756  10.485  1.7285 -1.4986 -1.9720
33340SOL    HW2 3519   7.993   2.824  10.596 -1.4536 -1.0854  0.1219
33341SOL     OW 3520   8.761   7.343   8.077 -0.1930  0.4295  0.2542
33341SOL    HW1 3521   8.828   7.277   8.093  0.9167  1.6059  0.7119
33341SOL    HW2 3522   8.798   7.423   8.113 -1.6706  1.2210  0.0986
33342SOL     OW 3523   2.280  10.255   1.543 -0.1862  0.1529  1.0388
33342SOL    HW1 3524   2.358  10.298   1.579  0.5700 -0.6237  0.3636
33342SOL    HW2 3525   2.310  10.167   1.518 -1.6072 -0.6935  2.0889
33343SOL     OW 3526   6.956   9.876   0.095  0.1324 -0.2035  0.4018
33343SOL    HW1 3527   7.025   9.941   0.083  0.3751 -0.2616  1.4161
33343SOL    HW2 3528   6.876   9.928   0.102  0.2867 -0.0209  0.8848
33344SOL     OW 3529  10.022   1.442   0.956  0.5254 -0.4763 -0.4146
33344SOL    HW1 3530   9.945   1.385   0.955  0.9427 -1.0798 -1.7697
33344SOL    HW2 3531  10.066   1.424   0.872  1.0317  1.3756 -0.5939
33345SOL     OW 3532   9.537   8.888   1.596  0.0521 -0.0462  0.4419
33345SOL    HW1 3533   9.583   8.830   1.535  1.3825 -0.5168  1.8204
33345SOL    HW2 3534   9.463   8.836   1.627  0.3283 -0.4422  0.4611
33346SOL     OW 3535   4.384   8.057   2.503  0.6827  0.3312  0.1305
33346SOL    HW1 3536   4.372   7.964   2.484 -0.8882  0.1803  1.6624
33346SOL    HW2 3537   4.329   8.102   2.438  2.8246  0.3674 -1.8045
33347SOL     OW 3538   3.871   2.898   1.856 -0.3254 -0.1833  0.3243
33347SOL    HW1 3539   3.826   2.815   1.868 -0.6721  0.3214  3.0645
33347SOL    HW2 3540   3.820   2.961   1.907  1.6636  1.0711  0.8766
33348SOL     OW 3541   7.499   7.776  10.455 -0.2161  0.3828  0.0439
33348SOL    HW1 3542   7.469   7.700  10.405  0.6234 -1.0820  1.6731
33348SOL    HW2 3543   7.573   7.809  10.404 -1.4623  1.0322 -1.4235
33349SOL     OW 3544   7.404   6.093   0.183 -0.2408  0.0732 -0.3700
33349SOL    HW1 3545   7.449   6.134   0.109 -0.7068  0.4349 -0.4609
33349SOL    HW2 3546   7.312   6.090   0.156 -0.1265 -1.8125 -0.7181
33350SOL     OW 3547   1.004   0.530   2.330 -0.0170 -0.6317 -0.5274
33350SOL    HW1 3548   1.079   0.479   2.299  1.2393  0.3463  0.7852
33350SOL    HW2 3549   0.998   0.603   2.268  0.6026 -0.3028 -0.2042
33351SOL     OW 3550   8.363   1.120   6.641  0.3459  0.2513  0.4940
33351SOL    HW1 3551   8.312   1.039   6.643  1.7624 -0.6835  0.9371
33351SOL    HW2 3552   8.453   1.091   6.660  1.3583  1.5794 -1.8766
33352SOL     OW 3553   9.617   0.565   4.941 -0.6210 -0.3805 -0.2912
33352SOL    HW1 3554   9.635   0.546   4.849 -2.7247 -0.6165 -0.7138
33352SOL    HW2 3555   9.591   0.657   4.942  0.2812 -0.1127  0.2477
33353SOL     OW 3556   6.372   8.102   3.658 -0.2098  0.3187 -0.0230
33353SOL    HW1 3557   6.440   8.074   3.596 -1.3849 -0.5448 -0.9711
33353SOL    HW2 3558   6.349   8.023   3.706 -0.9684  0.4573 -0.1434
33354SOL     OW 3559   6.278   5.865   4.187 -0.6908 -0.0971 -0.2014
33354SOL    HW1 3560   6.263   5.817   4.268  1.6832  0.9347  0.9337
33354SOL    HW2 3561   6.236   5.950   4.202  0.6571  0.4797  0.4095
33355SOL     OW 3562   8.148   9.831   0.240 -0.6386  0.0511 -0.4630
33355SOL    HW1 3563   8.193   9.828   0.156  0.3321  2.1253 -0.0736
33355SOL    HW2 3564   8.113   9.743   0.251 -0.0109 -0.5305 -2.5999
33356SOL     OW 3565   7.142   6.728   8.917  0.0693  0.3285  0.2296
33356SOL    HW1 3566   7.233   6.699   8.908  0.0981  0.5529 -0.2392
33356SOL    HW2 3567   7.149   6.822   8.936 -0.0925  0.5949 -0.9905
33357SOL     OW 3568   0.076   7.677   9.568  0.2646 -0.1275 -0.0192
33357SOL    HW1 3569   0.013   7.749   9.559  0.4650  0.3120  1.7048
33357SOL    HW2 3570   0.154   7.708   9.523 -0.2806 -0.0899 -0.9652
33358SOL     OW 3571   9.956   2.125   1.917 -0.1769 -0.6784 -0.0924
33358SOL    HW1 3572   9.903   2.048   1.935  0.3768 -1.6660 -2.3386
33358SOL    HW2 3573  10.024   2.125   1.983 -0.4719 -1.8498  0.2220
33359SOL     OW 3574   8.348   2.402   6.373  0.2486 -0.2862 -0.2227
33359SOL    HW1 3575   8.298   2.471   6.416 -1.1224 -0.7415 -1.0160
33359SOL    HW2 3576   8.403   2.449   6.309  0.4745  0.1813  0.3055
33360SOL     OW 3577   4.112   4.522   2.626 -0.6070  0.2138 -0.1886
33360SOL    HW1 3578   4.116   4.537   2.720 -1.8210 -0.2600 -0.0331
33360SOL    HW2 3579   4.049   4.587   2.594  1.1293  1.5900 -0.9918
33361SOL     OW 3580   5.234   8.290   6.898 -0.2825 -0.9275  0.4023
33361SOL    HW1 3581   5.183   8.216   6.865 -1.6561 -0.4046  1.2216
33361SOL    HW2 3582   5.207   8.297   6.990 -0.4185  0.7632  0.2560
33362SOL     OW 3583   0.073   9.825   6.690  0.0796 -0.1979  0.3068
33362SOL    HW1 3584  -0.021   9.810   6.680  0.2960 -1.3776 -0.1480
33362SOL    HW2 3585   0.090   9.906   6.641 -0.6286 -0.1947  0.0526
33363SOL     OW 3586   9.668   9.038   8.131  0.2181  0.3333 -0.0109
33363SOL    HW1 3587   9.643   9.097   8.202 -2.6798  0.0356 -0.6220
33363SOL    HW2 3588   9.672   8.952   8.171  0.8388  0.4586  0.2022
33364SOL     OW 3589   2.159   0.928   3.946 -0.0084  0.1527 -0.4480
33364SOL    HW1 3590   2.182   0.863   3.880  2.4704 -0.7884  1.1969
33364SOL    HW2 3591   2.219   1.000   3.931 -2.5227  2.0930 -2.0524
33365SOL     OW 3592   4.036   1.328   2.705 -0.0517 -0.3422  0.0888
33365SOL    HW1 3593   4.102   1.351   2.771 -0.7430  1.1212  0.3080
33365SOL    HW2 3594   4.083   1.272   2.644  0.9744 -0.6300  1.0936
33366SOL     OW 3595   1.887   6.684   6.009 -0.1457 -0.5746  0.4816
33366SOL    HW1 3596   1.906   6.665   5.917 -1.6998 -1.6793  0.3570
33366SOL    HW2 3597   1.792   6.680   6.015 -0.1465  0.8710  1.8673
33367SOL     OW 3598   8.693  10.147   6.320  0.0491  0.1668 -0.3251
33367SOL    HW1 3599   8.761  10.080   6.328  1.1571  1.1291 -1.2708
33367SOL    HW2 3600   8.662  10.140   6.230 -0.5857  0.2199 -0.1153
33368SOL     OW 3601   6.516  10.278   7.947 -0.5050 -0.2101  0.0785
33368SOL    HW1 3602   6.544  10.197   7.905 -2.8677 -0.9352 -0.2701
33368SOL    HW2 3603   6.527  10.262   8.041  0.2486 -0.4409 -0.0479
33369SOL     OW 3604   8.879   8.715   5.788 -0.3022  0.4789 -0.4413
33369SOL    HW1 3605   8.868   8.789   5.847 -3.1306  0.0799 -0.2980
33369SOL    HW2 3606   8.869   8.752   5.700  0.0416  0.5181 -0.4640
33370SOL     OW 3607   2.802   4.516   9.992 -0.1116  0.7160 -0.3650
33370SOL    HW1 3608   2.896   4.500   9.999 -0.3987 -0.6908  1.1704
33370SOL    HW2 3609   2.777   4.551  10.078 -1.2674 -0.8513 -0.0036
33371SOL     OW 3610   3.321  10.081   7.447  0.3809 -0.2202 -0.0451
33371SOL    HW1 3611   3.355  10.042   7.528 -1.2534  1.1557  1.3853
33371SOL    HW2 3612   3.375  10.159   7.434  0.3853 -0.2236 -0.0472
33372SOL     OW 3613   5.002   6.821   0.225 -0.3249  0.6170  0.4219
33372SOL    HW1 3614   5.067   6.804   0.156 -0.1902  1.2177  0.3900
33372SOL    HW2 3615   5.003   6.742   0.279 -0.9450 -0.1616 -0.6638
33373SOL     OW 3616   6.649   0.879   2.623  0.1389 -0.3190 -0.2108
33373SOL    HW1 3617   6.656   0.930   2.542 -0.9637 -0.0331 -0.1395
33373SOL    HW2 3618   6.634   0.789   2.593  2.0397 -0.6399 -0.3365
33374SOL     OW 3619   8.187   5.449   4.519  0.0267 -0.3691 -0.2083
33374SOL    HW1 3620   8.247   5.442   4.445  1.4627  0.5821  0.7962
33374SOL    HW2 3621   8.172   5.544   4.528 -0.3504 -0.4906  0.5306
33375SOL     OW 3622   0.845   7.118   7.971  0.0340 -0.0418 -0.2635
33375SOL    HW1 3623   0.754   7.138   7.947 -0.1680  0.3623  0.7875
33375SOL    HW2 3624   0.844   7.113   8.066  0.9929 -0.6854 -0.2697
33376SOL     OW 3625   8.901   1.415  10.500 -0.3559  0.5024 -0.3371
33376SOL    HW1 3626   8.985   1.401  10.456 -0.7056 -0.7543 -0.6373
33376SOL    HW2 3627   8.903   1.507  10.527 -0.3835  1.5353 -3.4977
33377SOL     OW 3628   1.768   6.674   2.151 -0.1240  0.3990  0.0463
33377SOL    HW1 3629   1.690   6.619   2.158 -0.8888  1.1907 -1.6513
33377SOL    HW2 3630   1.740   6.759   2.187  0.9476 -0.1538  2.3532
33378SOL     OW 3631   0.397   5.702   5.533  0.1384  0.6342 -0.1144
33378SOL    HW1 3632   0.346   5.726   5.611 -1.3421  1.7211 -1.3464
33378SOL    HW2 3633   0.483   5.740   5.548 -0.8474  3.0144 -0.0420
33379SOL     OW 3634   5.959   6.441   2.037  0.7231 -0.4998  0.1669
33379SOL    HW1 3635   5.869   6.447   2.069  1.1477 -2.0046  1.8741
33379SOL    HW2 3636   5.954   6.379   1.964  0.3268 -0.2664 -0.0080
33380SOL     OW 3637   9.768   7.661   1.984  0.3378  0.2714 -0.3700
33380SOL    HW1 3638   9.763   7.647   1.889 -0.9830  0.0517 -0.2898
33380SOL    HW2 3639   9.677   7.667   2.012  0.6345 -1.7202  1.2049
33381SOL     OW 3640   3.228   9.221   4.285  0.3253  0.5005  0.1073
33381SOL    HW1 3641   3.312   9.263   4.305  0.1039  0.4885  1.0960
33381SOL    HW2 3642   3.235   9.134   4.323 -0.0994  0.4636  0.1034
33382SOL     OW 3643   5.288   8.345   0.341  0.2360 -0.0150 -0.0082
33382SOL    HW1 3644   5.236   8.353   0.261  0.1433 -2.2917 -0.2438
33382SOL    HW2 3645   5.224   8.338   0.411  0.3175  1.9970  0.3441
33383SOL     OW 3646   6.932   3.932   9.753 -0.6702  0.3200 -0.3792
33383SOL    HW1 3647   6.844   3.933   9.715 -0.5778  1.3497 -0.5838
33383SOL    HW2 3648   6.918   3.898   9.842 -1.4614  1.5949  0.0075
33384SOL     OW 3649   6.796   6.621  10.254 -0.4008  0.2270  0.2389
33384SOL    HW1 3650   6.825   6.536  10.219 -1.9371 -1.3628  2.5141
33384SOL    HW2 3651   6.736   6.655  10.188  0.2773 -0.4055 -0.7415
33385SOL     OW 3652   0.421   0.315   6.261  0.0104  0.0752  0.0731
33385SOL    HW1 3653   0.408   0.348   6.172 -0.9310  2.1317  0.9084
33385SOL    HW2 3654   0.516   0.302   6.267  0.1258  0.1939 -1.1197
33386SOL     OW 3655  10.092  11.000   4.333 -0.2145  0.1104 -0.6281
33386SOL    HW1 3656  10.162  11.063   4.349  0.1777 -0.3294 -0.5855
33386SOL    HW2 3657  10.114  10.925   4.388 -0.8375  0.0512 -0.4525
33387SOL     OW 3658   9.125   7.727   1.922 -0.0755  0.2579 -0.9781
33387SOL    HW1 3659   9.064   7.656   1.943 -0.4174  0.5750 -0.8903
33387SOL    HW2 3660   9.075   7.786   1.865  0.1916  0.4487 -1.0167
33388SOL     OW 3661  10.117   8.049   6.865  0.2035  0.4070  0.1075
33388SOL    HW1 3662  10.182   8.007   6.808 -0.2885  0.2774 -0.3758
33388SOL    HW2 3663  10.096   8.131   6.820 -0.4773  0.1222 -0.1178
33389SOL     OW 3664   9.491  10.937   9.104 -0.4262  0.3689  0.1269
33389SOL    HW1 3665   9.433  11.013   9.094  0.2155  0.9023  0.2948
33389SOL    HW2 3666   9.534  10.928   9.019 -1.5162 -0.6872 -0.3340
33390SOL     OW 3667   8.906   3.135  10.314 -0.0792 -0.3055  0.0955
33390SOL    HW1 3668   8.963   3.145  10.238 -0.7117 -1.3625 -0.5568
33390SOL    HW2 3669   8.829   3.187  10.294 -1.5269 -2.8009 -1.3838
33391SOL     OW 3670   3.914   7.117   1.768 -0.1867 -0.3238  0.6736
33391SOL    HW1 3671   3.896   7.106   1.675  1.2275  1.0826  0.2000
33391SOL    HW2 3672   3.888   7.207   1.788 -2.1785 -1.1431  2.1015
33392SOL     OW 3673   5.713   2.121   4.790  0.0296  1.0559  0.1038
33392SOL    HW1 3674   5.769   2.043   4.782 -2.0753 -0.5545  0.3073
33392SOL    HW2 3675   5.708   2.155   4.700  0.7851  0.8296 -0.0326
33393SOL     OW 3676  10.754   6.754   7.437  0.2592 -0.1936  0.6173
33393SOL    HW1 3677  10.662   6.733   7.447  0.2347  0.2442  1.4552
33393SOL    HW2 3678  10.769   6.825   7.500  1.4136 -1.0520  1.3626
33394SOL     OW 3679   9.737   1.741   4.211  0.3451  0.2679  0.1094
33394SOL    HW1 3680   9.719   1.656   4.170  0.4836  0.0421  0.5051
33394SOL    HW2 3681   9.813   1.724   4.268 -0.1221  0.4528  0.8060
33395SOL     OW 3682   2.748   8.667   3.051 -0.0302 -0.1948 -0.5687
33395SOL    HW1 3683   2.811   8.685   2.981 -0.3354 -0.2669 -0.8654
33395SOL    HW2 3684   2.687   8.603   3.013 -1.3371  1.1993 -0.9074
33396SOL     OW 3685   8.007   6.797   5.715  0.1273 -0.2202  0.5748
33396SOL    HW1 3686   7.916   6.825   5.713 -0.4229 -1.8848  0.9089
33396SOL    HW2 3687   8.013   6.728   5.649  1.4040  0.5346 -0.1487
33397SOL     OW 3688   9.105   1.859   6.957  0.2589  0.2739  0.4956
33397SOL    HW1 3689   9.098   1.883   6.864  0.8318 -0.3445  0.2875
33397SOL    HW2 3690   9.095   1.942   7.003 -1.4731  0.4051 -0.0399
33398SOL     OW 3691   1.542   4.378   2.152  0.3940 -0.4545 -0.1545
33398SOL    HW1 3692   1.574   4.339   2.234 -3.2226 -0.5651  1.3729
33398SOL    HW2 3693   1.525   4.469   2.174 -2.2093 -0.8703 -0.1613
33399SOL     OW 3694   5.279   0.977   3.254  0.1699 -0.1351  0.3542
33399SOL    HW1 3695   5.365   1.009   3.229 -0.0859 -0.5356 -1.1539
33399SOL    HW2 3696   5.259   1.022   3.336  1.0369  1.3449 -0.2091
33400SOL     OW 3697   3.500   0.466   1.315  0.1345  0.6736 -0.4430
33400SOL    HW1 3698   3.595   0.460   1.312  0.1438  0.9211 -0.7549
33400SOL    HW2 3699   3.470   0.376   1.329  0.3664  0.3247 -1.9714
33401SOL     OW 3700  10.556   2.234   4.294  0.1280  0.2552  0.3695
33401SOL    HW1 3701  10.497   2.210   4.366 -0.0537 -2.1777 -0.4916
33401SOL    HW2 3702  10.640   2.197   4.320  0.3990  0.5901 -0.0260
33402SOL     OW 3703   4.127   8.099   3.756 -0.3261  0.4887  0.1068
33402SOL    HW1 3704   4.196   8.155   3.722  1.4010 -0.4757  1.8444
33402SOL    HW2 3705   4.061   8.160   3.790 -0.1885  1.4213 -1.2346
33403SOL     OW 3706   3.428  10.572   8.328  0.2973 -0.8381 -0.0857
33403SOL    HW1 3707   3.478  10.511   8.382 -0.5243 -2.4050 -1.0491
33403SOL    HW2 3708   3.419  10.528   8.244  1.6465  1.5884 -1.6177
33404SOL     OW 3709   0.961   8.947  10.829 -0.4078 -0.6213  0.0997
33404SOL    HW1 3710   0.913   8.989  10.900  0.0661  0.9705 -0.4690
33404SOL    HW2 3711   0.915   8.976  10.750  1.3981  0.9157 -0.4619
33405SOL     OW 3712   1.564   2.042  10.429 -0.1180  0.4222 -0.3335
33405SOL    HW1 3713   1.519   2.116  10.389 -1.6686 -0.1215  0.3441
33405SOL    HW2 3714   1.656   2.069  10.431 -0.3307  1.4423 -2.0168
33406SOL     OW 3715  10.268   9.695   1.772  0.0815  0.0551 -0.3842
33406SOL    HW1 3716  10.190   9.707   1.826 -0.8404 -0.5587 -1.5080
33406SOL    HW2 3717  10.285   9.601   1.777  1.2947  0.3074  0.5457
33407SOL     OW 3718  10.569   4.151   7.243 -0.1261 -0.8567 -0.1321
33407SOL    HW1 3719  10.596   4.219   7.180  0.8067 -1.0023  0.0944
33407SOL    HW2 3720  10.476   4.137   7.225 -0.4293  0.7304  0.0486
33408SOL     OW 3721  10.291  10.367   2.331 -0.3031  0.3045 -0.1622
33408SOL    HW1 3722  10.251  10.373   2.244 -0.4089  0.7839 -0.0802
33408SOL    HW2 3723  10.222  10.331   2.387 -0.6734  1.2429  0.0057
33409SOL     OW 3724   9.788   0.475   6.539  0.3153 -0.2926 -0.4753
33409SOL    HW1 3725   9.777   0.527   6.459  1.1929 -1.0105 -1.0814
33409SOL    HW2 3726   9.796   0.541   6.608 -1.6136  0.3283 -0.7805
33410SOL     OW 3727   4.381   1.262  10.424 -0.0589 -0.0897  0.0518
33410SOL    HW1 3728   4.456   1.212  10.391  0.1796 -0.2450  0.8098
33410SOL    HW2 3729   4.335   1.291  10.345  1.3287  0.8272 -0.4502
33411SOL     OW 3730   4.587   1.804   4.712  0.1635  0.0992 -0.2610
33411SOL    HW1 3731   4.651   1.796   4.642 -0.6704 -1.6527 -0.9037
33411SOL    HW2 3732   4.542   1.887   4.694  1.5568  0.8614 -0.3625
33412SOL     OW 3733   0.825   7.896   8.800 -0.2366  0.5113 -0.4664
33412SOL    HW1 3734   0.875   7.934   8.727  1.0828  0.9452  0.6043
33412SOL    HW2 3735   0.889   7.842   8.847 -1.2097 -0.2369  0.0237
33413SOL     OW 3736   6.010   8.361   5.117  0.4355 -0.1622 -0.3292
33413SOL    HW1 3737   5.942   8.329   5.058  1.2699  1.1295 -2.0947
33413SOL    HW2 3738   6.087   8.309   5.095  0.8763  0.6478 -0.7570
33414SOL     OW 3739   5.681   4.699   1.611  0.1979 -0.0457  0.7957
33414SOL    HW1 3740   5.593   4.692   1.574 -0.3915 -0.9461  2.2741
33414SOL    HW2 3741   5.739   4.684   1.537 -0.8604  1.2324 -0.3443
33415SOL     OW 3742   8.347   7.882   0.665 -0.0269 -0.4912 -0.3709
33415SOL    HW1 3743   8.272   7.832   0.697  0.0367 -0.2045  0.2390
33415SOL    HW2 3744   8.317   7.918   0.581 -0.7674  0.0360  0.0966
33416SOL     OW 3745   1.192  10.942   4.094  0.1748  0.4257 -0.6578
33416SOL    HW1 3746   1.213  10.883   4.022 -0.4221 -1.0801  0.3486
33416SOL    HW2 3747   1.099  10.959   4.085 -0.1571 -0.7026  0.3794
33417SOL     OW 3748   1.148   5.429   0.740  0.1410  0.0736 -0.8249
33417SOL    HW1 3749   1.147   5.468   0.828 -0.4040  1.6029 -1.4691
33417SOL    HW2 3750   1.065   5.381   0.735  0.5134 -0.6627 -0.2641
33418SOL     OW 3751   7.157   5.736   6.113 -0.0668  0.0513 -0.6507
33418SOL    HW1 3752   7.246   5.770   6.116  0.4375 -1.2786  1.2227
33418SOL    HW2 3753   7.132   5.742   6.021  2.2420 -0.2718 -1.3481
33419SOL     OW 3754   0.267   8.947   7.681 -0.3692  0.3331  0.0718
33419SOL    HW1 3755   0.219   8.981   7.757  0.1100  1.4472 -0.0963
33419SOL    HW2 3756   0.319   8.875   7.715  0.1522  1.0830  0.9026
33420SOL     OW 3757   4.749   7.048   9.030  0.2639  0.7920 -0.6661
33420SOL    HW1 3758   4.779   6.960   9.010  0.1371  0.6853 -0.3858
33420SOL    HW2 3759   4.756   7.095   8.947 -0.0669  0.4078 -0.9097
33421SOL     OW 3760   7.673   3.776   7.814 -0.3665  0.1627 -0.4455
33421SOL    HW1 3761   7.768   3.789   7.812 -0.5544  1.7991 -0.6963
33421SOL    HW2 3762   7.643   3.809   7.729 -1.0607 -1.5118 -0.8825
33422SOL     OW 3763   5.470   7.297   9.817  0.7891 -0.2257 -0.4020
33422SOL    HW1 3764   5.484   7.341   9.734  0.7619  0.3005 -0.1339
33422SOL    HW2 3765   5.463   7.204   9.795 -0.0715 -0.0077 -1.0926
33423SOL     OW 3766   4.567   5.643   9.561 -0.0173  0.5120  0.2401
33423SOL    HW1 3767   4.541   5.722   9.512  0.0065 -1.0549 -2.4880
33423SOL    HW2 3768   4.657   5.626   9.533 -0.4421 -1.1631 -0.1819
33424SOL     OW 3769   1.215   2.738   1.060  0.5375 -0.1495 -0.1244
33424SOL    HW1 3770   1.188   2.783   1.140  1.2967 -0.0318  0.0714
33424SOL    HW2 3771   1.263   2.804   1.010 -0.1174 -0.1581 -0.7881
33425SOL     OW 3772   2.052   3.785   9.476  0.5801  0.5469 -0.5780
33425SOL    HW1 3773   2.115   3.830   9.533 -0.9957  0.1388  1.5979
33425SOL    HW2 3774   1.969   3.829   9.493 -0.8549 -2.4765  0.9812
33426SOL     OW 3775   9.053   1.139   3.902  0.4903  0.0572 -0.5765
33426SOL    HW1 3776   8.964   1.174   3.905  0.3336 -0.2234 -1.6749
33426SOL    HW2 3777   9.055   1.084   3.824  0.9924 -1.7227  0.6224
33427SOL     OW 3778   1.315   7.362   3.100  0.1971 -0.0199  0.6766
33427SOL    HW1 3779   1.268   7.289   3.139 -0.2135 -0.8586 -1.2830
33427SOL    HW2 3780   1.387   7.321   3.052  0.4459  0.9281  0.2146
33428SOL     OW 3781   1.587   9.814   3.927 -0.1355 -0.2334  0.0939
33428SOL    HW1 3782   1.605   9.722   3.912  2.0731 -0.0214  1.0574
33428SOL    HW2 3783   1.573   9.820   4.022  0.1027  0.4675  0.0903
33429SOL     OW 3784   8.166   2.835   6.209  0.1452 -0.1938  0.0361
33429SOL    HW1 3785   8.168   2.740   6.193  0.1885 -0.0464 -0.9171
33429SOL    HW2 3786   8.252   2.855   6.243  0.1242 -0.5036  0.2802
33430SOL     OW 3787   1.693   3.755   0.101 -0.4124  0.1956  0.2594
33430SOL    HW1 3788   1.662   3.759   0.191  0.9852  2.1533  0.7207
33430SOL    HW2 3789   1.735   3.840   0.086  1.4101 -0.9229 -1.4993
33431SOL     OW 3790   9.610  10.312   9.233  0.0903 -0.3746  0.1302
33431SOL    HW1 3791   9.609  10.218   9.219 -1.3990 -0.4244  0.4189
33431SOL    HW2 3792   9.607  10.323   9.328  0.3908 -0.0347  0.1042
33432SOL     OW 3793   0.825   9.063   4.634  0.3623  0.1217 -0.1770
33432SOL    HW1 3794   0.754   9.126   4.626 -0.3804 -0.8529 -1.4101
33432SOL    HW2 3795   0.905   9.117   4.630 -0.2694  1.1505  0.5956
33433SOL     OW 3796   9.518   9.877   6.754 -0.8853  0.6775 -0.3971
33433SOL    HW1 3797   9.461   9.915   6.821 -3.0888  0.2217 -1.9034
33433SOL    HW2 3798   9.586   9.943   6.741 -0.2298  0.6840  2.3733
33434SOL     OW 3799   1.456   5.552   3.415  0.2977 -0.0508 -0.3168
33434SOL    HW1 3800   1.499   5.627   3.456  0.1691  0.3399 -0.8819
33434SOL    HW2 3801   1.494   5.547   3.327 -0.4537  0.0050 -0.6570
33435SOL     OW 3802   9.672   0.100   3.092 -0.1086  0.2270  0.2654
33435SOL    HW1 3803   9.727   0.022   3.102 -0.3054 -0.1574 -1.4690
33435SOL    HW2 3804   9.583   0.067   3.086 -0.7750  0.8804  3.7618
33436SOL     OW 3805   9.781  10.668   0.645 -0.5559 -0.0760  0.0015
33436SOL    HW1 3806   9.856  10.667   0.586  0.3112 -0.6895  1.0884
33436SOL    HW2 3807   9.728  10.593   0.617 -0.0122 -0.5284  0.1628
33437SOL     OW 3808   5.968   5.394   2.519  0.1707  0.2396  0.0873
33437SOL    HW1 3809   5.925   5.476   2.494  1.0956  0.5021 -0.6856
33437SOL    HW2 3810   6.055   5.421   2.550 -0.4868 -0.1903  2.4891
33438SOL     OW 3811   8.751   3.277   4.035 -0.1234 -0.1085  0.7298
33438SOL    HW1 3812   8.745   3.322   4.119 -1.6633  0.0186  0.5912
33438SOL    HW2 3813   8.796   3.195   4.054 -0.1115  0.0949  1.5995
33439SOL     OW 3814  10.392   8.117   3.411  0.3370  0.3964 -0.2589
33439SOL    HW1 3815  10.348   8.043   3.452 -1.5623  1.8260  0.4345
33439SOL    HW2 3816  10.449   8.151   3.480  1.4696 -0.5587 -0.6833
33440SOL     OW 3817   7.325  10.222   4.164 -0.0047 -0.1912 -0.0507
33440SOL    HW1 3818   7.307  10.282   4.092 -0.2788 -1.3396 -0.9601
33440SOL    HW2 3819   7.283  10.263   4.240 -0.8939  0.3542 -0.8180
33441SOL     OW 3820   6.042   4.262   6.395 -0.3195  0.3799 -0.3947
33441SOL    HW1 3821   6.113   4.326   6.402 -1.5817  1.6639  1.8567
33441SOL    HW2 3822   6.084   4.183   6.360  1.9021  1.5244 -0.4793
33442SOL     OW 3823   4.252  10.176   5.426  0.1283 -0.3672 -0.6748
33442SOL    HW1 3824   4.343  10.159   5.399  0.1218 -0.2187 -0.7922
33442SOL    HW2 3825   4.251  10.158   5.520  0.8026  1.7105 -0.2254
33443SOL     OW 3826   6.646   3.626   5.756  0.3029 -0.0236 -0.0814
33443SOL    HW1 3827   6.607   3.560   5.813 -1.3903  1.9883  1.2101
33443SOL    HW2 3828   6.577   3.649   5.694  0.3529  1.5591  0.4159
33444SOL     OW 3829   6.259   7.002   2.425 -0.2465  0.1830 -0.3251
33444SOL    HW1 3830   6.205   6.961   2.357 -0.7770  1.9285 -1.0179
33444SOL    HW2 3831   6.207   6.993   2.505  0.6776 -2.4855  0.0701
33445SOL     OW 3832   6.144   9.236   1.346  0.0042  0.3030  0.2568
33445SOL    HW1 3833   6.084   9.190   1.289 -1.3087  0.8787  1.1190
33445SOL    HW2 3834   6.193   9.295   1.288  0.8818 -1.2890 -0.6716
33446SOL     OW 3835   8.244   0.375   6.616  0.0389 -0.0046  0.1696
33446SOL    HW1 3836   8.333   0.349   6.639  0.2698  0.1693 -0.5134
33446SOL    HW2 3837   8.200   0.293   6.593  0.0636 -0.0747  0.3741
33447SOL     OW 3838   2.493   8.299  10.937 -0.1001  0.4063 -0.1127
33447SOL    HW1 3839   2.567   8.355  10.914  0.0589  0.0722 -0.4376
33447SOL    HW2 3840   2.416   8.351  10.917  0.0334  1.2754  1.4995
33448SOL     OW 3841   6.948   9.203   3.780  0.1112 -0.2132  0.7937
33448SOL    HW1 3842   6.881   9.259   3.741  1.4828  1.0147  0.0769
33448SOL    HW2 3843   6.913   9.115   3.772 -0.2923  0.0855 -2.0674
33449SOL     OW 3844   9.829   1.488   6.741 -0.1756  0.1072  0.2054
33449SOL    HW1 3845   9.799   1.571   6.703 -0.2246 -0.2060 -0.4513
33449SOL    HW2 3846   9.925   1.491   6.732 -0.1489  0.2459  0.5107
33450SOL     OW 3847   2.634   4.767   9.089  0.3475 -0.1844  0.0229
33450SOL    HW1 3848   2.696   4.721   9.146  0.6085 -0.0872 -0.1808
33450SOL    HW2 3849   2.572   4.700   9.061 -0.5030 -0.0085  1.3796
33451SOL     OW 3850   9.893   4.324   4.627  0.1960  0.3505  0.3149
33451SOL    HW1 3851   9.937   4.316   4.543  1.8842 -3.5777  1.3395
33451SOL    HW2 3852   9.825   4.257   4.626 -2.8042  3.1469  0.5889
33452SOL     OW 3853   3.864   6.312   0.401 -0.2909 -0.3317  0.3091
33452SOL    HW1 3854   3.883   6.398   0.362  0.2231 -0.5622  0.0372
33452SOL    HW2 3855   3.916   6.311   0.482  0.0010 -0.5281  0.1232
33453SOL     OW 3856  10.460   2.093   3.455  0.5230 -0.5679 -0.0326
33453SOL    HW1 3857  10.389   2.135   3.504  0.8995 -0.2748  0.2592
33453SOL    HW2 3858  10.523   2.065   3.522 -0.1868 -2.5337 -0.1091
33454SOL     OW 3859   1.590   6.410   6.977  0.5372 -0.3029  0.2925
33454SOL    HW1 3860   1.619   6.393   6.887  0.3624  1.4046 -0.1267
33454SOL    HW2 3861   1.510   6.360   6.986  0.9793 -1.1286 -0.2333
33455SOL     OW 3862   1.043   9.165   9.114  0.2477  0.5234 -0.1766
33455SOL    HW1 3863   0.979   9.214   9.166 -1.8182 -0.5130 -1.5785
33455SOL    HW2 3864   1.016   9.074   9.123  1.6886  0.0299 -0.6478
33456SOL     OW 3865  10.026   6.498   1.202  0.2833  0.2418  0.3782
33456SOL    HW1 3866  10.081   6.555   1.255  1.0027 -0.3159  0.2530
33456SOL    HW2 3867   9.949   6.551   1.181  0.5552  0.8771  0.9513
33457SOL     OW 3868  10.282   1.578   0.155  0.2253  0.8319  0.6247
33457SOL    HW1 3869  10.287   1.673   0.143  0.4949  0.6971 -0.5344
33457SOL    HW2 3870  10.194   1.554   0.128  0.1049  0.7684  1.0676
33458SOL     OW 3871   4.982   9.112   9.349 -0.1556 -0.6317  0.2665
33458SOL    HW1 3872   5.052   9.096   9.285  1.5475  0.4007  1.7785
33458SOL    HW2 3873   4.940   9.192   9.318 -0.1637 -0.8206 -0.2255
33459SOL     OW 3874   6.412   9.091  10.394 -0.1823  0.3281  0.0806
33459SOL    HW1 3875   6.433   9.184  10.401  1.2440  0.0371 -0.1790
33459SOL    HW2 3876   6.426   9.070  10.302  4.5419 -1.2300  0.8837
33460SOL     OW 3877   2.196   6.719   0.577 -0.1774  0.5103  0.2477
33460SOL    HW1 3878   2.158   6.716   0.489 -0.6832  0.8324  0.4565
33460SOL    HW2 3879   2.207   6.627   0.601 -0.0861  0.4201 -0.1278
33461SOL     OW 3880   5.534   5.942   3.897  0.5807 -0.1334 -0.5239
33461SOL    HW1 3881   5.607   5.881   3.913 -1.1994 -2.6155 -1.2567
33461SOL    HW2 3882   5.494   5.954   3.983 -0.3292 -1.7888 -0.6820
33462SOL     OW 3883   0.615   5.639   7.913 -0.1875  0.4988 -0.2020
33462SOL    HW1 3884   0.686   5.575   7.918 -0.0120  0.6718 -0.4922
33462SOL    HW2 3885   0.618   5.673   7.824 -0.8783  0.2326 -0.3405
33463SOL     OW 3886   3.716   9.212   5.165  0.1270  0.1038 -0.0008
33463SOL    HW1 3887   3.628   9.175   5.162  0.0685  0.3100 -1.2647
33463SOL    HW2 3888   3.723   9.250   5.253 -0.6256 -0.9005  0.5089
33464SOL     OW 3889   3.520   7.262   4.770  0.2225 -0.0047  0.0538
33464SOL    HW1 3890   3.501   7.175   4.735 -2.1122 -0.7073  2.7161
33464SOL    HW2 3891   3.552   7.312   4.695  1.0973 -2.9603 -1.6858
33465SOL     OW 3892   4.485   9.845   5.974  0.4400 -0.4305 -0.6344
33465SOL    HW1 3893   4.445   9.763   5.946  1.0349 -0.8819 -0.1863
33465SOL    HW2 3894   4.426   9.879   6.041  0.9156 -1.2174  0.2046
33466SOL     OW 3895   3.254   4.276   6.280 -0.4963 -1.1813 -0.2930
33466SOL    HW1 3896   3.334   4.306   6.237 -0.6071 -1.1078 -0.4513
33466SOL    HW2 3897   3.184   4.303   6.220 -0.7087 -0.4327  0.2841
33467SOL     OW 3898   5.979   1.127   3.092  0.1494 -0.2196  0.0182
33467SOL    HW1 3899   5.972   1.113   2.998  0.3142  0.3959 -0.0926
33467SOL    HW2 3900   6.072   1.118   3.111  0.0765 -0.6606  0.1788
33468SOL     OW 3901   3.777   5.710   7.613  0.3161 -0.3061 -0.0382
33468SOL    HW1 3902   3.854   5.725   7.559  0.6298 -1.8307 -0.0437
33468SOL    HW2 3903   3.802   5.744   7.700 -0.6902  3.4775 -1.0549
33469SOL     OW 3904   9.734   3.337   4.558  0.3684  0.0829  0.1926
33469SOL    HW1 3905   9.786   3.338   4.638  1.2076 -1.1495 -0.2952
33469SOL    HW2 3906   9.643   3.341   4.587  0.6956  1.9901  1.0821
33470SOL     OW 3907   6.152  10.248   6.593 -0.3202  0.7771 -0.2201
33470SOL    HW1 3908   6.090  10.271   6.663  0.0013  0.4279  0.1836
33470SOL    HW2 3909   6.238  10.252   6.634 -0.1130  0.7697 -0.6503
33471SOL     OW 3910   6.465   5.077   0.692 -0.0986  0.1893  0.2169
33471SOL    HW1 3911   6.514   5.140   0.745 -1.2400  0.9375  0.4202
33471SOL    HW2 3912   6.477   5.106   0.602 -2.2359  1.9784  0.4118
33472SOL     OW 3913   1.011   8.823   6.920  0.0207  0.3255  0.4002
33472SOL    HW1 3914   1.016   8.729   6.933 -0.8850  0.2882  0.5837
33472SOL    HW2 3915   1.093   8.847   6.877 -0.3881 -0.7688 -1.0391
33473SOL     OW 3916   6.880   0.253   3.624  0.0050 -0.1559 -0.7654
33473SOL    HW1 3917   6.925   0.249   3.540  2.1729  0.3496  0.3004
33473SOL    HW2 3918   6.848   0.343   3.631  1.7449  0.4577 -0.1675
33474SOL     OW 3919   3.400  10.852   8.635  0.0498 -0.2150 -0.3553
33474SOL    HW1 3920   3.357  10.934   8.611 -0.1706 -0.1943  0.0974
33474SOL    HW2 3921   3.465  10.838   8.566  0.0566  0.3150 -0.4612
33475SOL     OW 3922   9.618   2.671   1.514 -0.3829  0.0845  0.0758
33475SOL    HW1 3923   9.639   2.617   1.438 -0.3909 -0.3485  0.3779
33475SOL    HW2 3924   9.667   2.752   1.500  1.0255 -0.6681  0.4813
33476SOL     OW 3925   3.013   4.083   6.912  0.4902 -0.2340 -0.1979
33476SOL    HW1 3926   2.974   4.155   6.962  2.0207  1.1849 -0.9647
33476SOL    HW2 3927   3.050   4.025   6.978 -0.3990 -0.1158  0.4187
33477SOL     OW 3928   6.996   0.611   2.044 -0.3909 -0.4922 -0.2532
33477SOL    HW1 3929   6.983   0.546   2.113 -0.6506 -1.1221 -0.8821
33477SOL    HW2 3930   6.960   0.569   1.965 -0.1212  0.2251 -0.7612
33478SOL     OW 3931   0.477   2.608  10.076  0.6214 -0.8939  0.2460
33478SOL    HW1 3932   0.539   2.624  10.147  0.9890 -1.2681  0.0076
33478SOL    HW2 3933   0.501   2.523  10.040  0.3269 -0.7899 -0.2162
33479SOL     OW 3934   2.362   6.824   1.500 -0.1010  0.7399  0.0312
33479SOL    HW1 3935   2.334   6.900   1.448  0.7229 -0.1144 -1.7638
33479SOL    HW2 3936   2.456   6.834   1.509  0.1485 -0.4571 -0.9659
33480SOL     OW 3937   0.145   9.443   5.664  0.2489  0.0065  0.3386
33480SOL    HW1 3938   0.239   9.454   5.656  0.0417  0.7510 -1.5146
33480SOL    HW2 3939   0.118   9.399   5.584 -1.2164  1.6337 -0.1349
33481SOL     OW 3940   3.916   5.713   0.219 -0.3033  0.2806  0.2862
33481SOL    HW1 3941   4.006   5.708   0.186  0.4519 -0.7879  2.3182
33481SOL    HW2 3942   3.863   5.671   0.151  0.9586 -0.4792 -0.2589
33482SOL     OW 3943   0.216   9.752  10.251 -0.1786  0.1916  0.1862
33482SOL    HW1 3944   0.293   9.781  10.299 -1.6412  1.4553  1.9031
33482SOL    HW2 3945   0.171   9.693  10.311 -0.9281  0.0443 -0.5077
33483SOL     OW 3946   8.067   4.488   9.908 -0.1093 -0.2069 -0.6904
33483SOL    HW1 3947   7.997   4.474   9.972  2.1388  0.5409  2.1388
33483SOL    HW2 3948   8.022   4.521   9.830 -2.8349  0.8333  1.1734
33484SOL     OW 3949   6.503   1.580   8.468  0.2624  0.1321 -0.3188
33484SOL    HW1 3950   6.574   1.609   8.412 -0.6599  0.9046 -1.1191
33484SOL    HW2 3951   6.547   1.534   8.540  1.5378  0.3038 -0.9551
33485SOL     OW 3952   7.573   7.580   3.989  0.2335  0.1628 -0.4067
33485SOL    HW1 3953   7.504   7.557   3.927  1.4403 -2.0185 -1.0651
33485SOL    HW2 3954   7.638   7.509   3.979  2.1444  1.6551  0.7816
33486SOL     OW 3955   0.720   4.731   4.578  0.2542  0.4179 -0.0806
33486SOL    HW1 3956   0.700   4.746   4.485  1.1349  0.6812 -0.2281
33486SOL    HW2 3957   0.670   4.798   4.625  0.7143  1.0197 -0.4431
33487SOL     OW 3958   7.927   0.196   1.973 -0.1930 -0.2304 -0.0702
33487SOL    HW1 3959   7.903   0.117   1.926 -2.2667 -0.0066  0.4909
33487SOL    HW2 3960   7.941   0.262   1.905 -1.8192 -0.2551 -0.4679
33488SOL     OW 3961   8.114   9.488   4.737 -0.0649 -0.5715  0.0127
33488SOL    HW1 3962   8.182   9.425   4.713 -0.4656 -1.4036  0.9435
33488SOL    HW2 3963   8.158   9.553   4.791  0.2563 -0.3513 -0.5198
33489SOL     OW 3964   4.472   9.163   3.540 -0.1407  0.3729  0.1239
33489SOL    HW1 3965   4.495   9.075   3.570  0.2415  0.0349 -1.1004
33489SOL    HW2 3966   4.379   9.157   3.517 -0.1537  0.3387  0.1849
33490SOL     OW 3967   1.439   0.227   4.005  0.1285 -0.4281  0.1430
33490SOL    HW1 3968   1.430   0.234   3.910  1.5426 -0.9960 -0.0515
33490SOL    HW2 3969   1.349   0.230   4.037 -0.3430  0.3661 -1.1624
33491SOL     OW 3970   5.945   0.106  10.524  0.0450  0.3915  0.1838
33491SOL    HW1 3971   6.025   0.056  10.543 -0.1779 -0.4864 -1.0821
33491SOL    HW2 3972   5.896   0.051  10.463 -1.8730  0.6065  1.4577
33492SOL     OW 3973  10.145  10.650   1.132  0.0353  0.1723 -0.0893
33492SOL    HW1 3974  10.086  10.590   1.087 -0.1867 -0.2056  0.6741
33492SOL    HW2 3975  10.176  10.600   1.208  0.6453  0.6723 -0.0003
33493SOL     OW 3976   9.029   8.921   4.022  0.1253  0.2132  0.0630
33493SOL    HW1 3977   9.048   8.979   3.948 -2.9663 -1.1551 -1.9900
33493SOL    HW2 3978   8.968   8.972   4.076 -1.5794 -0.5261 -1.0720
33494SOL     OW 3979   2.438   3.054   0.499  0.0414  0.5845  0.2706
33494SOL    HW1 3980   2.365   3.104   0.536 -1.3162 -0.4619 -0.8801
33494SOL    HW2 3981   2.411   3.033   0.410  2.3206  1.2300 -0.6392
33495SOL     OW 3982   6.405   0.226   3.613 -0.2489  0.2503  0.3561
33495SOL    HW1 3983   6.317   0.200   3.585 -0.5021  0.8618  0.5643
33495SOL    HW2 3984   6.448   0.253   3.532 -1.0051  2.0840  0.5212
33496SOL     OW 3985  10.748   1.748   2.704  0.5047 -0.1773 -0.1831
33496SOL    HW1 3986  10.819   1.734   2.766 -1.3196 -0.6758  1.9391
33496SOL    HW2 3987  10.723   1.660   2.676  0.7274 -0.0020 -0.9580
33497SOL     OW 3988  10.893   9.660   4.025 -0.6117 -0.4155 -0.6362
33497SOL    HW1 3989  10.958   9.730   4.034 -1.9334  0.6474  1.4243
33497SOL    HW2 3990  10.864   9.666   3.934  1.1504 -0.0193 -1.2101
33498SOL     OW 3991   1.904   1.576   2.822 -0.0565  0.0260 -0.5004
33498SOL    HW1 3992   1.983   1.551   2.774  0.2610 -0.4897  0.2616
33498SOL    HW2 3993   1.874   1.657   2.780  0.2347 -0.3793 -1.5184
33499SOL     OW 3994   2.475   3.640   2.728  0.3362 -0.8560  0.4312
33499SOL    HW1 3995   2.570   3.640   2.729  0.3587  0.5688  0.0577
33499SOL    HW2 3996   2.451   3.650   2.635 -0.1044  1.8776  0.7628
33500SOL     OW 3997   3.347   4.715   7.436 -0.2979  0.2467  0.0787
33500SOL    HW1 3998   3.366   4.633   7.481 -1.8387  0.1148  0.5466
33500SOL    HW2 3999   3.253   4.710   7.416 -0.6229  2.2687  0.9009
33501SOL     OW 4000   1.905   4.476  10.364 -0.1507 -0.5964 -0.1491
33501SOL    HW1 4001   1.817   4.454  10.395  0.0902 -0.2191  0.8430
33501SOL    HW2 4002   1.961   4.408  10.403  0.2534  0.2832  0.8799
33502SOL     OW 4003   5.214   7.288   0.243  0.4513 -0.4625 -0.4881
33502SOL    HW1 4004   5.255   7.239   0.314 -0.2219  0.4118  0.5317
33502SOL    HW2 4005   5.158   7.224   0.199 -2.7647 -0.1105  2.6400
33503SOL     OW 4006   5.836   3.767   0.508  0.2414 -0.2659  0.1244
33503SOL    HW1 4007   5.753   3.755   0.553 -0.3813  1.1065 -0.5890
33503SOL    HW2 4008   5.831   3.708   0.432 -1.0217  1.3015 -1.0822
33504SOL     OW 4009   6.306   9.979  10.866  0.0142  0.3573 -0.2164
33504SOL    HW1 4010   6.265  10.030  10.935  1.3196  0.6218  0.3953
33504SOL    HW2 4011   6.334   9.899  10.908 -1.7923 -0.8180 -1.1184
33505SOL     OW 4012   2.652  10.666   1.040 -0.0756  0.0712  0.3310
33505SOL    HW1 4013   2.666  10.598   1.105 -1.9697 -0.8316 -0.1444
33505SOL    HW2 4014   2.601  10.733   1.085 -0.0830  0.1502  0.2057
33506SOL     OW 4015   5.236   0.872  10.779  0.5077  1.2942 -0.1749
33506SOL    HW1 4016   5.285   0.879  10.697  0.9283 -0.1148 -0.0731
33506SOL    HW2 4017   5.150   0.908  10.759 -1.0105 -3.0291 -2.6481
33507SOL     OW 4018   1.233   4.791   3.130 -0.1506  0.3149  0.1048
33507SOL    HW1 4019   1.162   4.764   3.072  0.4832  1.3940 -1.2329
33507SOL    HW2 4020   1.266   4.872   3.092  0.4292  0.9658  1.8871
33508SOL     OW 4021   2.238   9.801   5.455 -0.5031  0.1906 -0.4942
33508SOL    HW1 4022   2.319   9.754   5.438 -0.4889 -0.3763  1.0540
33508SOL    HW2 4023   2.262   9.894   5.453  0.4772  0.0056  1.2420
33509SOL     OW 4024   4.957   6.336   2.703 -0.2791 -0.4697  0.1553
33509SOL    HW1 4025   4.922   6.295   2.782  0.4766 -0.8741  0.2814
33509SOL    HW2 4026   4.879   6.358   2.652 -0.7260 -2.4744 -0.1301
33510SOL     OW 4027   1.423   2.821   9.793  0.0877 -0.5518 -0.0632
33510SOL    HW1 4028   1.417   2.912   9.820  2.2328 -0.4302  0.1818
33510SOL    HW2 4029   1.408   2.771   9.874 -0.8056 -0.4181 -0.1422
33511SOL     OW 4030   4.951   2.421   4.854  0.4845 -0.5399  0.4919
33511SOL    HW1 4031   4.956   2.417   4.950 -1.5160  0.1072  0.6631
33511SOL    HW2 4032   5.040   2.402   4.825  1.3257  0.0493  2.5048
33512SOL     OW 4033  10.407   8.456   5.012 -0.3154  0.3507  0.1492
33512SOL    HW1 4034  10.469   8.513   5.058 -1.0004  0.5386  0.8520
33512SOL    HW2 4035  10.363   8.408   5.082  0.8691 -1.7292 -0.4353
33513SOL     OW 4036   4.724   6.331   3.935  0.1313 -0.5175  0.4738
33513SOL    HW1 4037   4.756   6.418   3.913 -0.4839 -0.8978 -2.2802
33513SOL    HW2 4038   4.704   6.290   3.851 -2.2092 -2.3343  1.7649
33514SOL     OW 4039   7.021   0.341   7.197 -0.1546  0.1161 -0.2996
33514SOL    HW1 4040   7.116   0.343   7.182 -0.0855  1.3859  0.1171
33514SOL    HW2 4041   7.011   0.303   7.285 -0.0930 -0.7682 -0.6695
33515SOL     OW 4042   6.074   0.232   1.613 -0.2083  0.1845 -0.2289
33515SOL    HW1 4043   6.142   0.199   1.673 -0.1658 -0.2946 -0.5355
33515SOL    HW2 4044   6.059   0.159   1.553  0.1517  0.8699 -1.1571
33516SOL     OW 4045  10.914   3.127   4.492  0.0232 -0.2547 -0.5613
33516SOL    HW1 4046  10.927   3.076   4.571 -0.2230  1.2421  0.4879
33516SOL    HW2 4047  10.823   3.158   4.497  0.2597  0.5572 -0.9850
33517SOL     OW 4048   6.496   0.066   6.812  0.1470 -0.7029 -0.2305
33517SOL    HW1 4049   6.489   0.089   6.904 -0.1395  0.0810 -0.4369
33517SOL    HW2 4050   6.413   0.023   6.791  0.3680 -1.2284 -0.0315
33518SOL     OW 4051   8.199   6.315   2.814  0.1090 -0.6850 -0.0121
33518SOL    HW1 4052   8.205   6.363   2.897  0.6062 -0.7699  0.0065
33518SOL    HW2 4053   8.120   6.263   2.822 -0.6488  0.4162 -0.1850
33519SOL     OW 4054   7.290   9.155   0.633  0.1671  0.8847 -0.2086
33519SOL    HW1 4055   7.267   9.080   0.688  0.4735  0.1095 -1.1165
33519SOL    HW2 4056   7.385   9.150   0.624 -0.0625 -0.4262 -2.7517
33520SOL     OW 4057  10.766   8.292   6.868 -0.8512 -0.0640  0.3788
33520SOL    HW1 4058  10.795   8.313   6.956 -0.8133  1.8188 -0.0255
33520SOL    HW2 4059  10.692   8.350   6.853 -1.1621 -0.6998 -0.6636
33521SOL     OW 4060  10.703  10.130  10.381 -0.0920 -0.2804  0.3139
33521SOL    HW1 4061  10.780  10.078  10.357 -0.5644 -1.0316  0.3787
33521SOL    HW2 4062  10.631  10.067  10.380 -0.8000  0.5098 -0.2581
33522SOL     OW 4063   4.658   3.494  10.832  0.5011  0.8566 -0.1139
33522SOL    HW1 4064   4.742   3.449  10.820 -0.2108 -0.5212 -0.1182
33522SOL    HW2 4065   4.604   3.431  10.878 -0.2703  2.0634  0.6760
33523SOL     OW 4066   9.864   7.854   9.572 -0.1176  0.1280 -0.4026
33523SOL    HW1 4067   9.860   7.798   9.650  0.5575 -0.5873 -0.8548
33523SOL    HW2 4068   9.789   7.912   9.580  0.4720  0.7417  1.2827
33524SOL     OW 4069   5.591   1.098   4.859 -0.5046 -0.2556  0.3315
33524SOL    HW1 4070   5.563   1.153   4.786 -0.6358 -1.7870 -0.8241
33524SOL    HW2 4071   5.684   1.082   4.843 -0.7090 -1.2265  0.0570
33525SOL     OW 4072   7.460   3.180   0.769 -0.3404  0.1499 -0.5607
33525SOL    HW1 4073   7.506   3.120   0.827 -0.0018  1.0958  0.1561
33525SOL    HW2 4074   7.502   3.168   0.684 -0.4410 -0.8022 -0.4889
33526SOL     OW 4075   9.078   2.349   3.669  0.1756  0.3535  0.2864
33526SOL    HW1 4076   9.130   2.422   3.635  1.4906 -0.7953 -0.2549
33526SOL    HW2 4077   9.138   2.302   3.728 -0.4522 -0.5988  0.1912
33527SOL     OW 4078   9.195   1.095   3.257 -0.2297 -0.3388  0.1506
33527SOL    HW1 4079   9.106   1.108   3.290 -0.2290 -0.3951  0.1763
33527SOL    HW2 4080   9.247   1.076   3.336  0.0676  1.0249  0.3074
33528SOL     OW 4081   4.387   0.795  10.756  0.3436 -0.1408  0.7821
33528SOL    HW1 4082   4.372   0.856  10.683  2.0014  0.1638  0.6517
33528SOL    HW2 4083   4.403   0.852  10.831  1.9227 -0.3771  0.6562
33529SOL     OW 4084   5.288   3.455   7.084 -0.5392 -0.5810  0.1649
33529SOL    HW1 4085   5.245   3.531   7.123 -1.1364 -0.9362  0.2142
33529SOL    HW2 4086   5.229   3.427   7.014  1.2240  0.9684 -2.0844
33530SOL     OW 4087   9.733   6.495   1.888  0.0178  0.1393 -0.0787
33530SOL    HW1 4088   9.654   6.530   1.928 -1.0643 -3.8717  1.7804
33530SOL    HW2 4089   9.804   6.530   1.942 -0.7583  0.9676  0.4406
33531SOL     OW 4090   8.352   3.753   7.931  0.5553  0.0283 -0.3968
33531SOL    HW1 4091   8.391   3.678   7.888  0.4028  0.0347 -0.5480
33531SOL    HW2 4092   8.278   3.777   7.875 -0.4931 -0.8183  0.5997
33532SOL     OW 4093   0.750   5.410   5.666  0.1292  0.6982 -0.0364
33532SOL    HW1 4094   0.656   5.430   5.670 -0.3633 -1.0369 -1.5177
33532SOL    HW2 4095   0.781   5.422   5.756 -1.4736  1.4148  0.4588
33533SOL     OW 4096   3.709   0.045   4.504  0.3942 -0.0612  0.1032
33533SOL    HW1 4097   3.762  -0.014   4.559 -0.5052 -2.0372 -1.0338
33533SOL    HW2 4098   3.620   0.011   4.513  0.2264 -0.5351 -2.5927
33534SOL     OW 4099   0.463   4.082   2.927  0.1545  0.6043 -0.2947
33534SOL    HW1 4100   0.545   4.129   2.940 -0.2067  1.0529  0.3900
33534SOL    HW2 4101   0.407   4.109   3.000  0.3593 -1.8554  0.8898
33535SOL     OW 4102   7.786   7.374   6.448  0.3238  0.4637 -0.1313
33535SOL    HW1 4103   7.803   7.468   6.459  1.7950  0.0479  1.5983
33535SOL    HW2 4104   7.872   7.336   6.433 -0.2799 -0.6332 -0.9564
33536SOL     OW 4105   4.785   2.268   8.822 -0.1025 -0.0391  0.2771
33536SOL    HW1 4106   4.778   2.324   8.900  0.2119 -0.6420  0.7446
33536SOL    HW2 4107   4.804   2.329   8.751  0.3910  0.4413  0.8033
33537SOL     OW 4108   6.213   9.652   3.167  0.5869 -0.1648  0.0876
33537SOL    HW1 4109   6.160   9.578   3.196  0.9864 -0.8316 -0.8462
33537SOL    HW2 4110   6.158   9.699   3.105  0.5657 -0.0382  0.2014
33538SOL     OW 4111   4.973   6.794   4.923  1.0291  0.1210 -0.5403
33538SOL    HW1 4112   5.040   6.757   4.979  1.1778  1.3774  0.1512
33538SOL    HW2 4113   4.937   6.867   4.974 -0.6869 -0.3700 -0.9928
33539SOL     OW 4114   7.947   0.947   2.139  0.0025  0.1052  0.2217
33539SOL    HW1 4115   7.971   0.980   2.225  2.0291  1.4741 -0.7732
33539SOL    HW2 4116   7.873   1.002   2.112  0.8584  1.2912  0.1868
33540SOL     OW 4117   6.547   4.686   1.788 -0.4056  0.9120  0.3041
33540SOL    HW1 4118   6.459   4.695   1.752 -0.4068 -1.0401 -0.2967
33540SOL    HW2 4119   6.536   4.626   1.862  0.7060 -1.4639 -1.3126
33541SOL     OW 4120  10.097   8.401   7.588  0.4132 -0.0835  0.2691
33541SOL    HW1 4121  10.045   8.321   7.585  0.2591  0.0164 -2.3216
33541SOL    HW2 4122  10.048   8.464   7.535  1.6887  0.9675  0.2591
33542SOL     OW 4123   0.469   1.064   5.926  0.3355 -0.3153  0.2764
33542SOL    HW1 4124   0.453   1.154   5.954  2.0323  0.4816 -1.1032
33542SOL    HW2 4125   0.382   1.029   5.906 -0.2859  1.3663 -0.1334
33543SOL     OW 4126   6.093   5.717  10.518  0.2360 -0.1701  0.1857
33543SOL    HW1 4127   6.009   5.678  10.498  2.1936 -3.7767 -1.9903
33543SOL    HW2 4128   6.121   5.759  10.436  1.1852 -0.3678  0.3900
33544SOL     OW 4129   0.670   1.518   6.069  0.0248 -0.2169 -0.5530
33544SOL    HW1 4130   0.705   1.513   5.980  1.9615  1.3003  0.0534
33544SOL    HW2 4131   0.593   1.574   6.062  0.8325  0.8354 -1.1055
33545SOL     OW 4132   8.969   0.203   3.398  0.0459  0.2245 -0.0299
33545SOL    HW1 4133   9.028   0.235   3.466  2.4263  0.0023 -1.8466
33545SOL    HW2 4134   8.990   0.256   3.321 -1.8538 -0.1692 -0.8647
33546SOL     OW 4135  10.645   4.569   3.091 -0.7812 -0.2805 -0.4792
33546SOL    HW1 4136  10.634   4.535   3.180 -1.6720  1.0227 -0.0699
33546SOL    HW2 4137  10.721   4.522   3.057 -1.7869 -2.4711  0.1271
33547SOL     OW 4138   7.232  10.807   5.832 -0.7379  0.1430 -0.5345
33547SOL    HW1 4139   7.255  10.724   5.789 -0.1122  0.8031 -1.4996
33547SOL    HW2 4140   7.203  10.864   5.761  3.0381  2.2252 -0.6820
33548SOL     OW 4141   4.377   8.836  10.148 -0.0229 -0.1750 -0.1224
33548SOL    HW1 4142   4.320   8.913  10.155 -0.0075  0.0149 -1.6554
33548SOL    HW2 4143   4.427   8.851  10.068  1.9016 -0.5371  0.9517
33549SOL     OW 4144   2.456   5.414   0.291  0.3929  0.0938 -0.1480
33549SOL    HW1 4145   2.395   5.351   0.253  1.9343 -1.0974 -0.7997
33549SOL    HW2 4146   2.450   5.491   0.234 -0.7071  0.1282 -0.0049
33550SOL     OW 4147   9.820   9.845   1.710 -0.2264  0.1258  0.4136
33550SOL    HW1 4148   9.810   9.914   1.644 -0.9758 -1.2052 -0.9451
33550SOL    HW2 4149   9.731   9.827   1.740  0.0100  0.0668  1.0912
33551SOL     OW 4150   8.807   1.090   8.755 -0.0801  0.4270  0.3965
33551SOL    HW1 4151   8.801   1.057   8.845  0.4046 -0.4052  0.1246
33551SOL    HW2 4152   8.810   1.012   8.700 -1.1700  0.9287 -0.4096
33552SOL     OW 4153   0.804   9.440   9.018  0.4737 -0.7284 -0.6252
33552SOL    HW1 4154   0.892   9.472   8.999  0.3739 -1.2211 -2.0353
33552SOL    HW2 4155   0.793   9.364   8.960 -0.8061 -0.8004 -0.3194
33553SOL     OW 4156   1.024   3.776   2.562  0.1378  0.0800 -0.0857
33553SOL    HW1 4157   0.993   3.832   2.491  1.2868  0.9940  0.0977
33553SOL    HW2 4158   0.995   3.820   2.642  2.1680  1.2196  0.1109
33554SOL     OW 4159   9.683   8.016   7.741  0.6200 -0.2704  0.1110
33554SOL    HW1 4160   9.714   8.007   7.651 -0.0874  1.6464 -0.3745
33554SOL    HW2 4161   9.599   7.972   7.742  0.4251  0.0852 -0.2986
33555SOL     OW 4162  10.256   2.384   8.052 -0.0914 -0.2049  0.1279
33555SOL    HW1 4163  10.310   2.305   8.059 -1.1625 -0.8774  1.1421
33555SOL    HW2 4164  10.202   2.383   8.131 -0.1448  1.5425  0.1431
33556SOL     OW 4165   9.816   5.564   2.260 -0.5229 -0.0004 -0.4457
33556SOL    HW1 4166   9.778   5.601   2.340 -0.9857 -2.6924  0.6966
33556SOL    HW2 4167   9.747   5.573   2.194 -1.0022  0.2458  0.0839
33557SOL     OW 4168   0.756   2.277  10.115  0.0197 -0.5536 -0.5049
33557SOL    HW1 4169   0.719   2.335  10.048 -1.6145 -0.3507  0.5200
33557SOL    HW2 4170   0.681   2.247  10.165  1.0433 -2.0063  0.2366
33558SOL     OW 4171   5.023   3.982   1.761  0.4030 -0.0671 -0.1456
33558SOL    HW1 4172   5.035   4.048   1.693 -1.0738  0.1253 -0.2341
33558SOL    HW2 4173   5.113   3.960   1.788  1.0102  0.1635 -1.8327
33559SOL     OW 4174   6.504   1.647   4.956  0.3758 -0.6099 -0.2835
33559SOL    HW1 4175   6.476   1.730   4.917  0.1919 -1.0645 -1.1403
33559SOL    HW2 4176   6.545   1.600   4.884  1.4576 -0.8320  0.4494
33560SOL     OW 4177   9.247  10.769  10.754 -0.7279  0.0854  0.3826
33560SOL    HW1 4178   9.232  10.775  10.848 -0.5243  0.0900  0.4153
33560SOL    HW2 4179   9.203  10.846  10.718 -0.1427  0.5171  0.5580
33561SOL     OW 4180   1.198   2.414   9.339 -0.1934 -0.0728 -0.4028
33561SOL    HW1 4181   1.150   2.363   9.403  0.4376  1.9231  1.7772
33561SOL    HW2 4182   1.131   2.461   9.290 -0.6043 -0.5121 -0.2745
33562SOL     OW 4183   2.441   6.580   0.506 -0.3323  0.0732  0.5975
33562SOL    HW1 4184   2.477   6.542   0.586  0.1943 -0.4078  0.1397
33562SOL    HW2 4185   2.348   6.556   0.509 -0.2358 -0.2807  0.8693
33563SOL     OW 4186   4.691   8.834   0.526 -0.6977  0.5360 -0.1368
33563SOL    HW1 4187   4.742   8.857   0.448 -0.4699  1.1622  0.1859
33563SOL    HW2 4188   4.629   8.768   0.495 -1.2657  1.4638 -1.0980
33564SOL     OW 4189   3.983   2.182   7.041 -0.1596 -0.2223 -0.2286
33564SOL    HW1 4190   3.943   2.268   7.056  0.0482 -0.1004 -0.3610
33564SOL    HW2 4191   4.061   2.182   7.097 -0.2501 -0.3902 -0.1014
33565SOL     OW 4192   6.311   7.088   8.621  0.3939 -0.4220  0.3301
33565SOL    HW1 4193   6.255   7.023   8.578  1.4880 -1.6091  0.6323
33565SOL    HW2 4194   6.250   7.150   8.661 -0.6788 -0.0799 -1.6886
33566SOL     OW 4195   3.147   8.076   5.420 -0.2634  0.1475  0.4419
33566SOL    HW1 4196   3.086   8.108   5.486 -1.3827 -1.5052  0.2908
33566SOL    HW2 4197   3.227   8.057   5.468 -0.5001  0.5442  1.0094
33567SOL     OW 4198   5.088   2.118   8.479 -0.1283 -0.6842  0.1063
33567SOL    HW1 4199   5.148   2.189   8.455  0.0779 -0.5757  0.9032
33567SOL    HW2 4200   5.116   2.045   8.424  0.5620 -0.5527  0.2614
33568SOL     OW 4201   4.404   4.299   4.806 -0.0024  0.6311  0.6071
33568SOL    HW1 4202   4.452   4.373   4.768  1.2629  0.2690  1.4287
33568SOL    HW2 4203   4.344   4.339   4.869 -0.3239  1.0405  0.0529
33569SOL     OW 4204   8.588   5.443  10.618  0.1928  0.2456  0.0167
33569SOL    HW1 4205   8.601   5.524  10.569  2.1352 -0.6150 -1.0045
33569SOL    HW2 4206   8.529   5.391  10.563 -1.8496  1.2752  1.1288
33570SOL     OW 4207   2.875   6.465   3.166  0.1279 -0.2130 -0.1312
33570SOL    HW1 4208   2.789   6.437   3.197 -0.1036  0.2890 -0.3052
33570SOL    HW2 4209   2.874   6.447   3.072  0.0907  0.0908 -0.1901
33571SOL     OW 4210   7.130   6.143   7.291 -0.6543  0.2268  0.2415
33571SOL    HW1 4211   7.050   6.178   7.251 -1.3999  1.3373  2.5516
33571SOL    HW2 4212   7.140   6.192   7.373  1.7339 -0.7455  0.6224
33572SOL     OW 4213   3.541   3.993  10.869  0.4602  0.7330  0.3836
33572SOL    HW1 4214   3.565   3.906  10.837  0.1933  0.5964  0.5530
33572SOL    HW2 4215   3.619   4.046  10.854 -0.4338  1.3373 -2.8181
33573SOL     OW 4216   5.903   6.627   2.507 -0.2677  0.1939 -0.1035
33573SOL    HW1 4217   5.892   6.642   2.413 -0.6565  2.5635  0.2498
33573SOL    HW2 4218   5.997   6.628   2.521 -0.1792 -0.9131 -0.5500
33574SOL     OW 4219   6.877   2.004   7.419 -0.4557  0.1331  0.6324
33574SOL    HW1 4220   6.949   2.034   7.364 -0.5060 -0.3866  0.2723
33574SOL    HW2 4221   6.914   1.933   7.471 -1.0987 -1.2849 -0.7477
33575SOL     OW 4222   2.985   3.792   7.931 -0.1114  0.9410 -0.1499
33575SOL    HW1 4223   3.023   3.863   7.880 -0.8036  1.5805  0.2081
33575SOL    HW2 4224   2.891   3.805   7.925 -0.2131  1.4733  1.8476
33576SOL     OW 4225   4.396   2.577   2.283  0.4748 -0.6974  0.2731
33576SOL    HW1 4226   4.398   2.490   2.323 -0.1328 -0.4611  0.8360
33576SOL    HW2 4227   4.319   2.619   2.323  0.1287 -0.2921 -0.8047
33577SOL     OW 4228   0.943   0.357   4.187 -0.3880  0.8857  0.0859
33577SOL    HW1 4229   0.939   0.261   4.192 -3.4023  0.9501  0.8579
33577SOL    HW2 4230   0.873   0.381   4.127  0.3037  2.6417 -0.0807
33578SOL     OW 4231   0.056   0.090   0.639  0.3392 -0.0047 -0.5736
33578SOL    HW1 4232   0.142   0.128   0.618  0.4540 -0.0308 -0.1594
33578SOL    HW2 4233   0.022   0.145   0.709 -1.0256  1.4477 -2.2856
33579SOL     OW 4234  10.934  10.252   4.279  0.0404 -0.0705 -0.7031
33579SOL    HW1 4235  10.920  10.346   4.268  0.5272 -0.0960 -1.6924
33579SOL    HW2 4236  11.016  10.235   4.233 -0.7705 -1.2087 -1.8004
33580SOL     OW 4237   4.070   7.171   9.256  0.4816 -0.6790  0.2949
33580SOL    HW1 4238   4.141   7.229   9.230  0.8661 -1.6509 -0.9241
33580SOL    HW2 4239   3.997   7.194   9.199  0.2564 -0.6109  0.6054
33581SOL     OW 4240   2.024   6.730   0.802 -0.5252 -0.1126  0.6668
33581SOL    HW1 4241   1.947   6.755   0.751 -0.1601 -0.2640  0.0307
33581SOL    HW2 4242   2.094   6.720   0.737  0.3101  1.0691  1.3332
33582SOL     OW 4243   8.940  10.864   2.552  0.0756 -0.2218  0.7682
33582SOL    HW1 4244   9.011  10.883   2.491  0.0253 -0.6562  0.5695
33582SOL    HW2 4245   8.942  10.769   2.562 -0.1711 -0.1895  1.1331
33583SOL     OW 4246   8.794   8.586   3.401 -0.0893  0.5327 -0.5243
33583SOL    HW1 4247   8.756   8.567   3.315 -1.3617  1.1267 -0.1171
33583SOL    HW2 4248   8.768   8.512   3.455 -1.0062  1.1207 -0.1474
33584SOL     OW 4249   0.189   0.672  10.291  0.4939 -0.0165  0.4702
33584SOL    HW1 4250   0.106   0.663  10.338  1.0494  0.3568  1.5782
33584SOL    HW2 4251   0.208   0.766  10.296 -1.2915  0.7978 -3.8722
33585SOL     OW 4252   1.610   6.620   5.977  0.0214 -0.5572  1.0238
33585SOL    HW1 4253   1.559   6.677   5.919 -0.3931  0.0372  1.9474
33585SOL    HW2 4254   1.543   6.568   6.023  0.3403 -0.8865  1.1207
33586SOL     OW 4255   1.123   1.393   8.976 -0.3524 -0.4349  0.2317
33586SOL    HW1 4256   1.032   1.417   8.959 -0.0317  0.8209  0.2231
33586SOL    HW2 4257   1.133   1.306   8.936 -1.6368 -0.7403  0.5567
33587SOL     OW 4258   8.525   1.892   2.177 -0.1718  0.4056 -0.1014
33587SOL    HW1 4259   8.496   1.946   2.104  2.9110 -0.1542 -1.9273
33587SOL    HW2 4260   8.459   1.823   2.183 -1.2000  1.2072 -1.4666
33588SOL     OW 4261   7.799   1.930   8.948  0.1912 -0.5616 -0.0266
33588SOL    HW1 4262   7.737   1.915   9.019 -0.3638 -0.2992 -0.4478
33588SOL    HW2 4263   7.760   2.001   8.897  0.5913 -0.7392 -0.5864
33589SOL     OW 4264   6.113   2.961   4.484 -0.2052 -0.2285 -0.1674
33589SOL    HW1 4265   6.035   2.978   4.538 -1.4206  1.4632 -2.3166
33589SOL    HW2 4266   6.150   3.048   4.468  1.2016 -0.8749 -0.5511
33590SOL     OW 4267   4.621  10.057   8.101  0.0743 -0.2465  0.0052
33590SOL    HW1 4268   4.613   9.987   8.036  0.2763 -0.2360 -0.0324
33590SOL    HW2 4269   4.585  10.134   8.057  0.4372 -0.1835 -0.1855
33591SOL     OW 4270   5.878   8.451   2.997 -0.5990 -0.1377 -0.2090
33591SOL    HW1 4271   5.905   8.387   3.064 -0.9909  0.3685  0.4414
33591SOL    HW2 4272   5.841   8.523   3.047 -2.5552 -0.5195 -1.0259
33592SOL     OW 4273  10.706   9.403   0.942  0.3487 -0.1552  0.6635
33592SOL    HW1 4274  10.720   9.442   1.028 -0.0789  0.3627  0.5053
33592SOL    HW2 4275  10.654   9.468   0.895  0.3791 -0.5399  0.0955
33593SOL     OW 4276   3.875   6.674   4.095 -0.1119  0.3015 -0.6313
33593SOL    HW1 4277   3.805   6.631   4.144 -0.4405  0.5758 -0.8595
33593SOL    HW2 4278   3.924   6.601   4.055 -0.1036  0.0994 -0.2563
33594SOL     OW 4279   1.342   0.226   5.764  0.1101 -0.1948  0.4077
33594SOL    HW1 4280   1.269   0.215   5.703 -0.0209 -0.5834  0.6352
33594SOL    HW2 4281   1.345   0.145   5.815  0.0804  0.2094  1.0715
33595SOL     OW 4282   8.994   0.065   6.777 -0.6287  0.1975 -0.7156
33595SOL    HW1 4283   9.004  -0.030   6.784 -0.4730  0.0868 -2.2226
33595SOL    HW2 4284   9.038   0.099   6.855  0.1452 -0.9204 -0.6367
33596SOL     OW 4285   5.647  10.799   8.691  0.3185  0.6610 -0.0976
33596SOL    HW1 4286   5.709  10.773   8.759  0.2149 -1.8891 -0.8800
33596SOL    HW2 4287   5.701  10.837   8.622  0.7593  0.4915  0.1510
33597SOL     OW 4288   2.641   9.061   0.728 -0.2996  0.2088  0.2651
33597SOL    HW1 4289   2.653   9.124   0.658 -2.2000  0.3805  0.0497
33597SOL    HW2 4290   2.548   9.038   0.725 -0.4014  0.0718  2.5991
33598SOL     OW 4291   0.101   1.035   3.580 -0.8474 -0.4129 -0.4479
33598SOL    HW1 4292   0.084   1.095   3.652  0.2883 -0.2023 -0.3420
33598SOL    HW2 4293   0.104   1.091   3.502  1.9177 -0.0180 -0.1480
33599SOL     OW 4294   7.158   9.382   9.370  0.4214  0.1164  0.3185
33599SOL    HW1 4295   7.117   9.400   9.285  2.5028  0.3004 -0.7120
33599SOL    HW2 4296   7.209   9.460   9.388  0.5465 -0.2117  1.4172
33600SOL     OW 4297   4.994  10.935   0.401 -0.6678  0.1721 -0.2209
33600SOL    HW1 4298   5.017  10.934   0.494 -0.9347  1.5135 -0.1237
33600SOL    HW2 4299   4.967  10.845   0.382 -0.5079 -0.1426  0.9675
33601SOL     OW 4300   2.490   4.384   9.743  0.3586 -0.2685 -0.4337
33601SOL    HW1 4301   2.558   4.450   9.743  0.5779 -0.4925 -1.0668
33601SOL    HW2 4302   2.445   4.395   9.660  0.3266 -0.8404 -0.4987
33602SOL     OW 4303   2.185   8.624   4.728  0.3890  0.5603 -0.0807
33602SOL    HW1 4304   2.242   8.686   4.773  2.0680 -0.2205 -1.0302
33602SOL    HW2 4305   2.119   8.601   4.793  2.2120  0.1328  1.7536
33603SOL     OW 4306  10.329   8.925   4.306 -0.0071 -0.3729 -0.2850
33603SOL    HW1 4307  10.389   8.911   4.378  0.1106  1.4939  0.0232
33603SOL    HW2 4308  10.251   8.964   4.346 -0.5916 -0.8007 -0.9620
33604SOL     OW 4309   6.077   8.849   2.779 -0.6995 -0.4925 -0.1826
33604SOL    HW1 4310   6.157   8.899   2.764 -1.6332  0.8958 -0.7737
33604SOL    HW2 4311   6.107   8.761   2.804  1.0367  0.7179  2.4109
33605SOL     OW 4312  10.875   9.645   7.039  0.2127  0.7950 -0.4345
33605SOL    HW1 4313  10.949   9.585   7.034 -0.2192  0.1115  0.9444
33605SOL    HW2 4314  10.830   9.621   7.120  0.0857  3.0396  0.2267
33606SOL     OW 4315  10.165   1.233   8.303  0.3285  0.1822 -0.6283
33606SOL    HW1 4316  10.089   1.205   8.354  0.4238 -3.2134 -2.1179
33606SOL    HW2 4317  10.129   1.262   8.220  0.5818 -0.3830 -0.9383
33607SOL     OW 4318   6.273   8.340   3.553 -0.1962  0.2166 -0.2857
33607SOL    HW1 4319   6.291   8.260   3.602  0.4788  0.8533  0.5577
33607SOL    HW2 4320   6.276   8.313   3.462 -0.0936 -0.7416 -0.0163
33608SOL     OW 4321   6.302   5.813   8.063  0.1835  0.7416  0.2134
33608SOL    HW1 4322   6.229   5.875   8.054  1.3816  2.1662 -0.0242
33608SOL    HW2 4323   6.349   5.820   7.980  0.6431 -0.1227  0.3963
33609SOL     OW 4324   0.589   0.593   1.035 -0.5244  0.1362  1.2221
33609SOL    HW1 4325   0.591   0.684   1.003 -0.3257  0.0117  0.8742
33609SOL    HW2 4326   0.603   0.601   1.129 -1.0458  0.5052  1.2704
33610SOL     OW 4327   9.581   9.390   2.729  0.1193 -0.4107  0.3284
33610SOL    HW1 4328   9.676   9.400   2.724  0.1947 -1.5893 -1.1089
33610SOL    HW2 4329   9.564   9.300   2.700 -1.5144  0.1310 -0.5297
33611SOL     OW 4330   3.610   9.572   4.795  0.3651  0.1547 -0.0129
33611SOL    HW1 4331   3.560   9.520   4.732  1.5835 -1.0187 -0.0563
33611SOL    HW2 4332   3.638   9.649   4.745 -2.7021  1.7411  0.4480
33612SOL     OW 4333   0.038   2.236   1.226 -0.8501  0.0528  0.4839
33612SOL    HW1 4334   0.029   2.171   1.156  1.1855 -0.0282  0.2305
33612SOL    HW2 4335   0.037   2.184   1.306  1.8504 -0.5246  0.2418
33613SOL     OW 4336   4.244   3.706   3.760  0.3202 -0.0407  0.3659
33613SOL    HW1 4337   4.227   3.726   3.667 -1.6149 -0.2734  0.6384
33613SOL    HW2 4338   4.309   3.636   3.757  0.7085  0.3306 -0.7943
33614SOL     OW 4339  10.525   3.097   7.213 -0.2034  0.5836  0.2640
33614SOL    HW1 4340  10.609   3.108   7.257 -0.0399 -0.3879  0.2249
33614SOL    HW2 4341  10.539   3.132   7.125  0.1479  0.4776  0.2768
33615SOL     OW 4342   2.338   8.009   7.206  0.7286 -0.3087  0.1834
33615SOL    HW1 4343   2.317   7.968   7.290  1.0246  0.6621  0.7461
33615SOL    HW2 4344   2.335   8.103   7.224  0.0183 -0.0663 -1.0844
33616SOL     OW 4345   2.582   9.893   2.942  0.4650 -0.7995  0.2355
33616SOL    HW1 4346   2.561   9.800   2.926  0.7557 -1.2609  2.2976
33616SOL    HW2 4347   2.625   9.894   3.027 -0.5234  1.3701  0.7859
33617SOL     OW 4348   1.533   3.822   3.464 -0.1158 -0.5775  0.1158
33617SOL    HW1 4349   1.545   3.749   3.403 -3.2170 -1.9010  0.8969
33617SOL    HW2 4350   1.567   3.790   3.547 -2.4318 -1.6727  0.7181
33618SOL     OW 4351   8.906   6.715   1.856 -0.0786  0.9300 -0.3758
33618SOL    HW1 4352   8.827   6.704   1.909  0.2834  0.3530  0.0636
33618SOL    HW2 4353   8.954   6.786   1.898 -0.6304  1.6820 -0.9881
33619SOL     OW 4354   0.597   2.158   7.737  0.1860  0.0151  0.2643
33619SOL    HW1 4355   0.605   2.121   7.649 -0.4927 -0.1850  0.2810
33619SOL    HW2 4356   0.565   2.247   7.722 -0.3331 -0.1552  0.3156
33620SOL     OW 4357   7.863   7.415   0.842  0.5141  0.2776  0.0063
33620SOL    HW1 4358   7.899   7.328   0.860 -0.5758 -0.6471 -1.9896
33620SOL    HW2 4359   7.930   7.459   0.790 -0.0181 -0.3672 -1.2416
33621SOL     OW 4360   8.313  10.028  10.002 -0.4871  0.3820  0.1847
33621SOL    HW1 4361   8.284  10.084   9.930 -1.5635 -0.7832 -0.3287
33621SOL    HW2 4362   8.335   9.944   9.960  1.3312  0.4642  0.8954
33622SOL     OW 4363   8.933   6.352   5.593  0.0205  0.2220 -0.2147
33622SOL    HW1 4364   9.024   6.324   5.583  0.2176  0.7521  0.0364
33622SOL    HW2 4365   8.896   6.346   5.505  0.7391  1.4698 -0.6288
33623SOL     OW 4366   0.221   4.442   5.800 -0.5698 -0.3526  0.1164
33623SOL    HW1 4367   0.306   4.448   5.757 -0.6481 -0.6265 -0.0834
33623SOL    HW2 4368   0.172   4.517   5.766  0.1836  0.8683  1.6025
33624SOL     OW 4369   8.630   9.046  10.651 -0.0790  0.0635 -0.4612
33624SOL    HW1 4370   8.658   9.113  10.589 -0.3268  0.4128 -0.2030
33624SOL    HW2 4371   8.608   9.095  10.731 -1.7673 -0.1311 -0.7608
33625SOL     OW 4372   6.446   1.628  10.849 -0.6662 -0.9552  0.1757
33625SOL    HW1 4373   6.433   1.571  10.773 -1.0087 -1.4762  0.6156
33625SOL    HW2 4374   6.510   1.581  10.902 -0.3913 -0.5684  0.1844
33626SOL     OW 4375   4.539   0.689   6.879 -0.3509  0.2188  0.0670
33626SOL    HW1 4376   4.609   0.683   6.944 -0.4857 -0.0632  0.1918
33626SOL    HW2 4377   4.584   0.704   6.796  0.1391 -2.9343 -0.3903
33627SOL     OW 4378   3.279   1.542   1.803  0.3443  0.5005 -0.5462
33627SOL    HW1 4379   3.203   1.496   1.839 -1.3906  2.3351 -1.6595
33627SOL    HW2 4380   3.304   1.605   1.871 -0.2850  1.1272 -0.8930
33628SOL     OW 4381  10.493   6.566   6.106 -0.3637  0.0683 -0.4005
33628SOL    HW1 4382  10.540   6.551   6.024 -1.8503 -0.8571 -1.1311
33628SOL    HW2 4383  10.425   6.630   6.084  0.0592  0.8190  0.4430
33629SOL     OW 4384   8.786   2.743   8.692 -0.3734 -0.1146  0.6118
33629SOL    HW1 4385   8.822   2.731   8.604 -0.1930  0.5891  0.5794
33629SOL    HW2 4386   8.742   2.661   8.712  1.0948 -0.9207  0.5810
33630SOL     OW 4387   9.745   1.092   6.737  0.1483 -0.4348  0.3823
33630SOL    HW1 4388   9.805   1.057   6.670  0.0108  1.4532 -0.8132
33630SOL    HW2 4389   9.717   1.176   6.701  0.4921  0.9304  3.0854
33631SOL     OW 4390   2.427   5.447   0.830  0.0477 -0.2958  0.3901
33631SOL    HW1 4391   2.492   5.392   0.788  1.1537 -0.1134  1.7790
33631SOL    HW2 4392   2.394   5.503   0.760  0.8538 -0.8816 -0.4887
33632SOL     OW 4393   5.993   4.711   2.835  0.0720 -0.4365  0.5443
33632SOL    HW1 4394   5.958   4.797   2.814  0.9714 -0.4142 -1.0064
33632SOL    HW2 4395   6.020   4.718   2.927 -1.3342  0.3994  0.9327
33633SOL     OW 4396   2.983   6.866   2.508  0.2400  0.3520  0.3252
33633SOL    HW1 4397   2.918   6.829   2.449 -0.2395  1.5205  0.0938
33633SOL    HW2 4398   3.055   6.803   2.507 -0.2239 -0.1869 -0.6332
33634SOL     OW 4399   2.617   7.865   0.431  0.2240  0.4364  0.1783
33634SOL    HW1 4400   2.600   7.786   0.380 -0.4928  0.1389  0.8572
33634SOL    HW2 4401   2.706   7.853   0.465  0.5203  0.4175 -0.5905
33635SOL     OW 4402   4.870   6.244   1.796  0.3688 -0.2378 -0.2266
33635SOL    HW1 4403   4.801   6.206   1.742  0.1846  0.2379 -0.3350
33635SOL    HW2 4404   4.892   6.327   1.753 -0.4638  0.6194  0.9264
33636SOL     OW 4405   4.976   0.383   3.971  0.5675 -0.2785  0.4414
33636SOL    HW1 4406   5.018   0.365   4.055  1.3476 -0.1724  0.0799
33636SOL    HW2 4407   4.893   0.335   3.975  0.7363 -0.5217  1.1473
33637SOL     OW 4408   2.238   6.913   4.663  0.1733 -0.2276  0.1163
33637SOL    HW1 4409   2.201   6.858   4.594  2.3099 -0.5836 -0.8056
33637SOL    HW2 4410   2.278   6.852   4.724  0.5946  0.2174  0.2901
33638SOL     OW 4411   5.067  10.130   0.142  0.2911 -0.1041 -0.1238
33638SOL    HW1 4412   5.159  10.111   0.124  0.1593 -1.7535  0.7306
33638SOL    HW2 4413   5.060  10.225   0.137  1.5408 -0.0753 -2.4663
33639SOL     OW 4414   6.899   2.135   9.105 -0.1331 -0.7173  0.2436
33639SOL    HW1 4415   6.862   2.207   9.157 -0.2451 -0.7048  0.1482
33639SOL    HW2 4416   6.923   2.069   9.169 -2.0494 -1.5297  0.1887
33640SOL     OW 4417   5.977   9.478   7.087 -0.3951  0.1664 -0.3875
33640SOL    HW1 4418   6.016   9.556   7.049  2.1425 -0.3767  0.9101
33640SOL    HW2 4419   6.030   9.406   7.053 -2.2899 -0.9826 -1.0640
33641SOL     OW 4420   0.370   3.519   8.053  0.0334 -0.1699 -0.2232
33641SOL    HW1 4421   0.422   3.548   7.979  1.9656 -1.3629  0.6087
33641SOL    HW2 4422   0.289   3.571   8.047  0.7372  0.7792 -2.3029
33642SOL     OW 4423   0.486   9.887   1.459 -0.3399 -0.6813 -0.2941
33642SOL    HW1 4424   0.575   9.901   1.491 -0.3965  1.3744 -0.9038
33642SOL    HW2 4425   0.431   9.891   1.537 -0.1823  1.1995 -0.2519
33643SOL     OW 4426   9.424   5.629   0.181  0.1774  0.1842  0.3059
33643SOL    HW1 4427   9.408   5.540   0.150 -2.0379  0.5154  0.3727
33643SOL    HW2 4428   9.499   5.620   0.240  1.2799 -1.2744 -1.1979
33644SOL     OW 4429   6.678  10.913   2.565  0.1921 -0.0872  0.5621
33644SOL    HW1 4430   6.689  11.005   2.541 -1.5636  0.0373  0.1314
33644SOL    HW2 4431   6.585  10.895   2.551  1.0376 -2.9362 -3.0139
33645SOL     OW 4432   9.767   8.970   7.884 -0.3320 -0.3072  0.2748
33645SOL    HW1 4433   9.746   8.997   7.973 -1.1984  0.0283 -0.0201
33645SOL    HW2 4434   9.684   8.941   7.847 -0.2805  0.9291 -0.8864
33646SOL     OW 4435   0.596   5.796   8.617 -0.1257 -0.3941 -0.1010
33646SOL    HW1 4436   0.567   5.765   8.532  0.8054 -2.3238  0.2297
33646SOL    HW2 4437   0.608   5.717   8.669  0.0321  0.6925  1.5968
33647SOL     OW 4438   9.711   1.892   9.673  0.9309  0.0146  0.0574
33647SOL    HW1 4439   9.759   1.960   9.627  0.8500  0.4344  0.5876
33647SOL    HW2 4440   9.620   1.905   9.647  1.1595 -1.3179 -1.6368
33648SOL     OW 4441  10.811   9.532   8.077  0.1721 -0.2384  0.6232
33648SOL    HW1 4442  10.772   9.609   8.035 -0.4446  0.7390  2.8190
33648SOL    HW2 4443  10.904   9.554   8.085  0.4064 -0.6797 -0.6721
33649SOL     OW 4444   6.524   9.444   2.182  0.2158 -0.3323 -0.2620
33649SOL    HW1 4445   6.603   9.495   2.197  0.0827 -0.1904 -0.0368
33649SOL    HW2 4446   6.470   9.460   2.260  0.4990 -1.4253  0.1719
33650SOL     OW 4447   1.137  10.350   2.301 -0.3376  0.1978  0.2714
33650SOL    HW1 4448   1.185  10.323   2.379 -0.7842 -1.0412  0.1332
33650SOL    HW2 4449   1.081  10.422   2.331  0.3421  0.5170  0.8146
33651SOL     OW 4450   2.751   3.292   0.406 -0.1312 -0.0696 -0.2107
33651SOL    HW1 4451   2.772   3.230   0.336 -0.2684 -1.7581  1.1815
33651SOL    HW2 4452   2.720   3.370   0.360  0.7166 -0.7526 -2.0438
33652SOL     OW 4453   1.284   6.774   7.990  0.3159 -0.3006 -0.0329
33652SOL    HW1 4454   1.317   6.807   7.906 -1.1476 -2.0062 -1.3693
33652SOL    HW2 4455   1.362   6.765   8.045  1.1132  2.4407 -0.5790
33653SOL     OW 4456   0.733  10.525   2.395 -0.3679 -0.1449  0.1395
33653SOL    HW1 4457   0.659  10.541   2.454  0.2991 -0.6523  1.1380
33653SOL    HW2 4458   0.736  10.430   2.385 -1.4562 -0.0023 -2.0389
33654SOL     OW 4459   8.819   6.337   9.564  0.2312  0.1793 -0.3383
33654SOL    HW1 4460   8.884   6.400   9.593  1.4092 -1.2162  0.1680
33654SOL    HW2 4461   8.807   6.278   9.639 -1.6608  0.4118 -0.4058
33655SOL     OW 4462   8.284   0.054   9.010  0.2189  0.1952  0.1945
33655SOL    HW1 4463   8.302  -0.032   9.048 -1.5225  0.4946  1.8792
33655SOL    HW2 4464   8.271   0.037   8.917  1.4320 -1.0934  0.2276
33656SOL     OW 4465  10.744  10.959   9.003  0.4527  0.1136  0.4387
33656SOL    HW1 4466  10.767  11.046   8.970 -1.9740  0.6156 -0.0972
33656SOL    HW2 4467  10.651  10.949   8.982  0.4476 -2.2532  1.3073
33657SOL     OW 4468   3.804   1.825   9.612  0.8731 -0.1410  0.4986
33657SOL    HW1 4469   3.719   1.869   9.615  1.4003  0.9234  0.6519
33657SOL    HW2 4470   3.812   1.794   9.522  1.3555  1.9757 -0.2535
33658SOL     OW 4471   0.166   2.932   7.410  0.5023  0.2785 -0.5538
33658SOL    HW1 4472   0.093   2.958   7.354  0.4741  0.6539 -0.3501
33658SOL    HW2 4473   0.146   2.842   7.435  0.3497  0.2196 -0.8779
33659SOL     OW 4474   9.750   7.217   2.610 -0.4698  0.2873  0.1783
33659SOL    HW1 4475   9.703   7.291   2.570  1.7814  1.9501  0.4610
33659SOL    HW2 4476   9.707   7.204   2.694 -1.4813  0.6488 -0.2653
33660SOL     OW 4477   9.398   9.656   5.865 -0.4655  0.8816  0.0023
33660SOL    HW1 4478   9.455   9.684   5.936 -0.4217 -0.3831  0.4853
33660SOL    HW2 4479   9.313   9.693   5.886 -0.8319 -0.6821  1.5525
33661SOL     OW 4480   9.148   2.853   5.760 -0.5776  0.9980 -0.0824
33661SOL    HW1 4481   9.099   2.796   5.701 -0.5059 -1.4701  2.0824
33661SOL    HW2 4482   9.237   2.819   5.759 -0.7556  0.3596  1.9982
33662SOL     OW 4483   3.393   0.577   2.081  0.2705 -0.0083 -0.0192
33662SOL    HW1 4484   3.378   0.648   2.018 -1.8690  1.9999  2.5004
33662SOL    HW2 4485   3.307   0.538   2.093  0.4233  0.2491  2.2386
33663SOL     OW 4486   2.995   9.540   4.186  0.0571  0.2360 -0.3995
33663SOL    HW1 4487   2.935   9.545   4.260 -0.0769  2.0407 -0.5854
33663SOL    HW2 4488   2.969   9.460   4.139  0.2924 -1.0656  1.5714
33664SOL     OW 4489   4.805   9.531   8.818 -0.0129  0.0508  0.3673
33664SOL    HW1 4490   4.843   9.574   8.895  1.2537  0.3629 -0.4044
33664SOL    HW2 4491   4.851   9.447   8.813  0.8487  0.5569 -0.7496
33665SOL     OW 4492  10.338   5.108   1.245  0.0866 -0.2549  0.2482
33665SOL    HW1 4493  10.433   5.120   1.246  0.0849 -0.1908 -0.0675
33665SOL    HW2 4494  10.319   5.084   1.154 -0.1799 -0.4256  0.3498
33666SOL     OW 4495   4.871   3.197   7.926  0.5536 -0.3659 -0.3107
33666SOL    HW1 4496   4.861   3.292   7.922  0.7698 -0.3767 -1.2850
33666SOL    HW2 4497   4.926   3.175   7.851 -1.0845 -1.4630 -1.2789
33667SOL     OW 4498   0.410   3.366   4.897  0.2615 -0.3871  0.0562
33667SOL    HW1 4499   0.478   3.338   4.835  2.4629 -0.8447  2.5140
33667SOL    HW2 4500   0.354   3.288   4.907  0.8897 -0.8637 -0.0718
33668SOL     OW 4501   8.096   9.939   6.361  0.1360  0.5793 -0.5739
33668SOL    HW1 4502   8.113  10.021   6.408  1.9929 -0.8397  1.4176
33668SOL    HW2 4503   8.174   9.924   6.308 -0.6357  0.5711 -1.7558
33669SOL     OW 4504   9.521   4.575   3.361 -0.4919 -0.1968  0.3662
33669SOL    HW1 4505   9.458   4.577   3.432 -0.7604  0.1666  0.1245
33669SOL    HW2 4506   9.592   4.518   3.392 -0.2616  0.5263  1.2038
33670SOL     OW 4507   0.956   1.928   0.310  0.4985  0.4771 -0.0241
33670SOL    HW1 4508   1.029   1.879   0.274  0.6704 -0.3527  1.3580
33670SOL    HW2 4509   0.920   1.870   0.378 -1.6521  0.7009 -0.8677
33671SOL     OW 4510   0.528   3.569   5.052  0.2740 -0.3108  0.6944
33671SOL    HW1 4511   0.464   3.637   5.074 -0.2457  0.4187 -2.5724
33671SOL    HW2 4512   0.474   3.493   5.031  0.7390 -0.9648  1.7695
33672SOL     OW 4513   8.329   5.340   2.911  0.2918  0.0470  0.1724
33672SOL    HW1 4514   8.370   5.289   2.841 -2.0270 -1.4113 -0.2315
33672SOL    HW2 4515   8.322   5.428   2.874  0.5535 -0.3206 -0.8071
33673SOL     OW 4516   0.504   7.754   3.822  0.8054 -0.0389 -0.4943
33673SOL    HW1 4517   0.532   7.681   3.877  1.4078 -0.0360 -0.7964
33673SOL    HW2 4518   0.408   7.747   3.820  0.8008 -0.2264  0.2905
33674SOL     OW 4519  10.355   7.749   4.214 -0.2409  0.3393  0.1464
33674SOL    HW1 4520  10.407   7.695   4.274 -0.3503 -2.8405 -2.3431
33674SOL    HW2 4521  10.417   7.777   4.147 -0.4819  2.2868  0.6835
33675SOL     OW 4522   5.728   9.274   0.077  0.0311 -0.4210 -0.2739
33675SOL    HW1 4523   5.807   9.245   0.032  0.6416  2.3546 -1.1399
33675SOL    HW2 4524   5.687   9.336   0.018 -1.2757  0.3666  1.3670
33676SOL     OW 4525   6.192   3.303   3.380  0.0465 -0.2392  0.2690
33676SOL    HW1 4526   6.160   3.390   3.405 -1.0253 -0.7639  0.8081
33676SOL    HW2 4527   6.231   3.268   3.460  0.6072 -0.2043  0.0149
33677SOL     OW 4528  10.274  10.329   7.096  0.9174  0.3220  0.6261
33677SOL    HW1 4529  10.186  10.355   7.067 -0.2966 -1.0213  2.8512
33677SOL    HW2 4530  10.289  10.245   7.054  1.6399  1.0240 -0.5844
33678SOL     OW 4531   8.535   5.702   3.589  1.2912  0.4795 -0.7197
33678SOL    HW1 4532   8.512   5.609   3.594  1.2321  0.5248  2.7503
33678SOL    HW2 4533   8.630   5.703   3.598  1.1929  0.7121  0.5926
33679SOL     OW 4534   0.900   7.457   5.216 -0.1551  0.4145  0.1770
33679SOL    HW1 4535   0.979   7.494   5.255 -0.0976 -0.4944  0.9612
33679SOL    HW2 4536   0.887   7.375   5.263 -1.8223  0.7577  0.3614
33680SOL     OW 4537   4.366  10.910   6.039  0.5852 -0.4402 -0.0503
33680SOL    HW1 4538   4.327  10.925   6.125  1.0005  1.1705 -0.1047
33680SOL    HW2 4539   4.308  10.957   5.978  1.1890 -0.1925 -0.4415
33681SOL     OW 4540   4.098   9.180   6.875 -0.3039 -0.6962 -0.4120
33681SOL    HW1 4541   4.006   9.169   6.901 -0.2207 -2.7586 -0.8544
33681SOL    HW2 4542   4.109   9.123   6.799  0.9123  0.9332 -1.5288
33682SOL     OW 4543   7.970   7.103  10.473 -0.2256  0.1975 -0.8775
33682SOL    HW1 4544   7.950   7.187  10.430 -1.2224  0.4253  0.0058
33682SOL    HW2 4545   8.000   7.047  10.401  0.7980  1.3929 -1.4350
33683SOL     OW 4546   0.677   9.460   6.784 -0.2420  0.2759  0.4498
33683SOL    HW1 4547   0.712   9.371   6.781  0.6755  0.6199  0.5978
33683SOL    HW2 4548   0.746   9.514   6.745 -0.7118  0.9408  0.5264
33684SOL     OW 4549   4.902   7.546   0.780 -0.1558 -0.6631 -0.8789
33684SOL    HW1 4550   4.936   7.635   0.765 -0.1382 -0.6068 -0.5149
33684SOL    HW2 4551   4.953   7.513   0.853 -1.3482 -0.3055  0.1648
33685SOL     OW 4552  10.930  10.618   6.793 -0.3437  0.0177 -0.7221
33685SOL    HW1 4553  10.971  10.647   6.711  2.4522  0.7154  0.8263
33685SOL    HW2 4554  10.848  10.668   6.797  0.5537  1.7108 -1.9849
33686SOL     OW 4555   7.238   7.857   0.689  0.7153  0.0029  0.0197
33686SOL    HW1 4556   7.319   7.843   0.641  0.4308 -0.3066 -0.3814
33686SOL    HW2 4557   7.237   7.787   0.755 -0.6018 -1.8697 -1.8471
33687SOL     OW 4558  10.465   7.881   0.435 -0.5251  0.4397 -0.3080
33687SOL    HW1 4559  10.491   7.799   0.477  0.1224  1.3731  1.2120
33687SOL    HW2 4560  10.533   7.898   0.370 -0.7373 -0.2984 -0.7230
33688SOL     OW 4561   6.369   6.506   0.584  0.2469 -0.0878  0.0644
33688SOL    HW1 4562   6.310   6.548   0.646  0.7614  0.1381  0.4110
33688SOL    HW2 4563   6.372   6.566   0.509  1.1503  0.6197  0.6506
33689SOL     OW 4564   6.876  10.238   7.116 -0.1366  0.0884 -0.4485
33689SOL    HW1 4565   6.871  10.288   7.035  0.9570  0.1752 -0.4770
33689SOL    HW2 4566   6.919  10.296   7.178  1.9746 -1.0515 -0.7304
33690SOL     OW 4567   2.705   4.466   2.164 -0.2474  0.5653  0.5115
33690SOL    HW1 4568   2.738   4.547   2.126  0.2318  0.9137  1.6204
33690SOL    HW2 4569   2.610   4.477   2.164 -0.2958  0.2988 -1.0976
33691SOL     OW 4570   0.450  10.122  10.522  0.7711 -0.2002  0.1475
33691SOL    HW1 4571   0.514  10.051  10.526 -0.0042 -0.9914 -1.1300
33691SOL    HW2 4572   0.408  10.122  10.608  0.6251 -1.4362  0.0867
33692SOL     OW 4573   8.354   9.822   7.653 -0.2713  0.2776  0.0588
33692SOL    HW1 4574   8.434   9.780   7.686 -0.2863  0.2269  0.0299
33692SOL    HW2 4575   8.368   9.830   7.558  0.3149  1.5973  0.2432
33693SOL     OW 4576   7.778   3.223   4.812  0.1047 -0.6940 -0.7690
33693SOL    HW1 4577   7.795   3.140   4.768 -1.6755 -0.5113 -1.8859
33693SOL    HW2 4578   7.688   3.245   4.790  0.3488  1.2849 -0.0629
33694SOL     OW 4579   3.824   8.805   9.077 -0.2070  0.3494 -0.5164
33694SOL    HW1 4580   3.831   8.724   9.026 -0.4358  1.4482 -2.3994
33694SOL    HW2 4581   3.904   8.807   9.129  0.8895 -0.0526 -2.0847
33695SOL     OW 4582   8.258  10.377   2.151 -0.0956 -0.1164  0.2386
33695SOL    HW1 4583   8.320  10.450   2.147 -0.4041  0.2471  1.7041
33695SOL    HW2 4584   8.268  10.333   2.066  1.2144  0.7028 -0.0660
33696SOL     OW 4585   3.135   0.092   1.114 -0.4592 -0.8395  0.3661
33696SOL    HW1 4586   3.064   0.034   1.085 -1.8919  1.0180 -0.0390
33696SOL    HW2 4587   3.108   0.122   1.200  0.3031 -0.8267  0.6069
33697SOL     OW 4588   4.833   0.840   0.199  0.2647 -0.0483  0.1741
33697SOL    HW1 4589   4.841   0.813   0.108  0.9422  0.8352 -0.0403
33697SOL    HW2 4590   4.859   0.933   0.199 -1.5843  0.5188  0.9406
33698SOL     OW 4591   2.102   4.041   8.808  0.0606  0.6885  0.0352
33698SOL    HW1 4592   2.190   4.029   8.773 -0.1511  1.8835 -0.9966
33698SOL    HW2 4593   2.045   4.031   8.732 -0.6321  0.7239  0.5410
33699SOL     OW 4594   5.449   4.277   8.983  0.1959 -0.5191 -0.2891
33699SOL    HW1 4595   5.456   4.237   8.896 -0.2497  2.2831 -1.7269
33699SOL    HW2 4596   5.537   4.268   9.020  0.4377 -1.6284 -1.0538
33700SOL     OW 4597   5.829  10.803   4.997  0.3492 -0.1682  0.0125
33700SOL    HW1 4598   5.908  10.854   4.977  0.0235  0.6149  0.6725
33700SOL    HW2 4599   5.845  10.768   5.084  0.4399 -0.9587 -0.3165
33701SOL     OW 4600   9.423   6.659   6.478 -0.3057  0.0423  0.1032
33701SOL    HW1 4601   9.507   6.623   6.505 -0.6164  0.1675  1.2808
33701SOL    HW2 4602   9.438   6.753   6.471 -0.1015 -0.0362 -0.6916
33702SOL     OW 4603   4.903   8.191   1.264  0.1809  0.7922 -0.1828
33702SOL    HW1 4604   4.833   8.127   1.277  1.0641 -0.4427 -1.2239
33702SOL    HW2 4605   4.949   8.194   1.348  0.4777 -0.4150 -0.2827
33703SOL     OW 4606   1.625  10.631   5.872  0.0130  0.5173  0.0984
33703SOL    HW1 4607   1.546  10.638   5.926 -0.4282  1.7126 -0.6632
33703SOL    HW2 4608   1.668  10.551   5.903 -3.4863 -2.5676 -2.1006
33704SOL     OW 4609  10.362   9.599   0.484  0.4299 -0.0523  0.0529
33704SOL    HW1 4610  10.442   9.577   0.531  1.1842  1.1414 -0.6130
33704SOL    HW2 4611  10.353   9.694   0.495  0.0106  0.0756 -1.2503
33705SOL     OW 4612   1.387   4.178   2.042 -0.3566 -0.3254  0.1237
33705SOL    HW1 4613   1.437   4.246   2.087 -1.1814 -0.5585  1.4376
33705SOL    HW2 4614   1.310   4.224   2.007  0.7495  0.0588 -2.0066
33706SOL     OW 4615   8.695   6.438   4.626  0.0671 -0.4414  0.3010
33706SOL    HW1 4616   8.778   6.479   4.650 -0.2055  0.6319 -0.5083
33706SOL    HW2 4617   8.696   6.437   4.530  0.3943 -3.0500  0.2762
33707SOL     OW 4618  10.991   8.591   9.635  0.5487 -0.1533 -0.1134
33707SOL    HW1 4619  11.067   8.573   9.690  1.3408 -0.0479 -1.1459
33707SOL    HW2 4620  10.970   8.683   9.653  0.4574 -0.2731  0.4112
33708SOL     OW 4621   1.527   6.807  10.259 -0.7108 -0.0592  0.1915
33708SOL    HW1 4622   1.500   6.884  10.208 -0.3676  0.3247  0.5902
33708SOL    HW2 4623   1.622   6.812  10.261 -0.7311  0.0642  1.0858
33709SOL     OW 4624   5.913   3.190   4.393  0.1065 -0.7628  1.3192
33709SOL    HW1 4625   6.009   3.191   4.387  0.0179  0.1326 -1.9929
33709SOL    HW2 4626   5.891   3.277   4.425  0.3769 -0.1270 -0.1624
33710SOL     OW 4627   6.894   7.217   8.614  0.3020  0.0020 -0.2263
33710SOL    HW1 4628   6.960   7.282   8.591  0.4862 -0.7867 -2.0740
33710SOL    HW2 4629   6.813   7.251   8.577 -0.1096  0.3633  0.9642
33711SOL     OW 4630   6.862   3.110   6.532  0.2697  0.2138 -0.0693
33711SOL    HW1 4631   6.935   3.168   6.510  0.7614 -0.7715 -1.0863
33711SOL    HW2 4632   6.787   3.147   6.485  0.4037  0.4658 -0.0874
33712SOL     OW 4633   8.950  10.642   2.087  0.0845  0.3089 -0.0630
33712SOL    HW1 4634   8.915  10.698   2.157 -0.5423 -0.5805  0.3579
33712SOL    HW2 4635   8.968  10.558   2.130  1.2898  0.2581 -0.6178
33713SOL     OW 4636   4.511   3.005   6.589  0.0146  0.3968 -0.2178
33713SOL    HW1 4637   4.554   2.995   6.504 -0.0758 -2.7909  0.0043
33713SOL    HW2 4638   4.421   2.976   6.574  0.1705 -0.8341  1.0586
33714SOL     OW 4639   9.906   5.512   4.488  0.2237 -0.0414 -0.3482
33714SOL    HW1 4640   9.945   5.467   4.413  1.3936  0.6838 -0.1974
33714SOL    HW2 4641   9.827   5.461   4.508  1.4128 -1.9398 -0.2596
33715SOL     OW 4642   0.364   7.548   9.570  0.0717 -0.1028 -0.5792
33715SOL    HW1 4643   0.419   7.567   9.646  0.1334  0.2163 -0.7016
33715SOL    HW2 4644   0.287   7.503   9.606 -0.6277  1.3771 -0.1252
33716SOL     OW 4645   9.172   3.920   4.309  0.4914  0.3204 -0.2580
33716SOL    HW1 4646   9.125   3.950   4.231  0.6499 -0.5063 -0.6851
33716SOL    HW2 4647   9.249   3.875   4.274  0.8112  0.3478  0.3962
33717SOL     OW 4648   6.242   6.092   0.290 -0.1017 -0.0107 -0.2693
33717SOL    HW1 4649   6.310   6.111   0.225  0.5462  1.2231  0.7513
33717SOL    HW2 4650   6.230   5.997   0.284  0.1923  0.0298 -1.9391
33718SOL     OW 4651   3.852   6.355   2.366  0.2377 -0.0587  0.5410
33718SOL    HW1 4652   3.931   6.320   2.406 -0.2389 -1.5119  0.2610
33718SOL    HW2 4653   3.781   6.320   2.421 -0.3054 -0.3861 -0.3569
33719SOL     OW 4654   3.626   3.141   8.266 -0.1636 -0.6380  0.2514
33719SOL    HW1 4655   3.716   3.150   8.298 -0.6136 -0.5030  1.4984
33719SOL    HW2 4656   3.575   3.117   8.343 -1.2250 -0.6115 -0.4269
33720SOL     OW 4657   6.158   4.517   2.672  0.5092  0.1844  0.2717
33720SOL    HW1 4658   6.095   4.570   2.719 -0.6064 -0.0493 -0.9182
33720SOL    HW2 4659   6.151   4.430   2.712  0.0726  0.1582  0.1366
33721SOL     OW 4660   6.619   3.338   2.903 -0.6959  0.6128  0.7967
33721SOL    HW1 4661   6.547   3.275   2.906 -0.0000 -0.3252 -0.8621
33721SOL    HW2 4662   6.598   3.396   2.829 -0.4593  1.2471  1.2171
33722SOL     OW 4663   8.520   5.497   7.717  0.2651  0.2465 -0.4945
33722SOL    HW1 4664   8.461   5.449   7.775 -1.0772  0.6883 -1.4419
33722SOL    HW2 4665   8.476   5.580   7.700  1.9456  1.3113  0.0640
33723SOL     OW 4666   3.089   6.127   7.639 -0.4593  0.2339  0.1178
33723SOL    HW1 4667   3.172   6.141   7.593 -0.0883  0.1918  0.7602
33723SOL    HW2 4668   3.076   6.033   7.639  0.5214  0.0538  1.7419
33724SOL     OW 4669   1.613   5.805  10.072 -0.1724  0.3681  0.9919
33724SOL    HW1 4670   1.601   5.898  10.055  1.7913  0.6590  1.0489
33724SOL    HW2 4671   1.590   5.795  10.165 -0.9346  0.6745  0.8432
33725SOL     OW 4672   6.138   0.705   4.343  0.7747 -0.0813  0.0695
33725SOL    HW1 4673   6.101   0.623   4.375 -0.0643 -0.0879 -0.8924
33725SOL    HW2 4674   6.119   0.768   4.412  1.1371 -0.6052  0.6671
33726SOL     OW 4675   1.690   2.578   9.404 -0.0354  0.4376  0.3578
33726SOL    HW1 4676   1.611   2.562   9.352  0.4292  0.8916 -0.5057
33726SOL    HW2 4677   1.660   2.636   9.475 -0.2599  1.5846 -0.6417
33727SOL     OW 4678   9.577   9.073   4.736 -0.8832 -0.4989  0.5472
33727SOL    HW1 4679   9.636   9.148   4.745 -0.7369 -0.6880  1.2440
33727SOL    HW2 4680   9.589   9.043   4.646 -1.2791  0.5882  0.1151
33728SOL     OW 4681   6.391   1.564   7.593 -0.1551 -0.4874 -0.3945
33728SOL    HW1 4682   6.309   1.611   7.582  0.7751  1.4844  0.5839
33728SOL    HW2 4683   6.374   1.478   7.556 -2.2530  0.2757 -1.3921
33729SOL     OW 4684   6.358   1.590   4.484  0.2129  0.2530  0.1457
33729SOL    HW1 4685   6.339   1.681   4.461 -0.7081  0.2916  1.0272
33729SOL    HW2 4686   6.441   1.571   4.439  0.4163  1.5205 -0.0453
33730SOL     OW 4687   3.041   4.856   4.099  0.3862  0.1459 -0.1846
33730SOL    HW1 4688   2.981   4.888   4.031  0.7671 -0.7555 -0.9711
33730SOL    HW2 4689   3.023   4.762   4.103  2.1540 -0.2444 -0.8555
33731SOL     OW 4690   2.545   3.917   3.319  0.0743  0.1062  0.5208
33731SOL    HW1 4691   2.452   3.897   3.333  0.3619 -0.3528  2.0636
33731SOL    HW2 4692   2.576   3.848   3.260 -0.1579 -0.9070  1.5419
33732SOL     OW 4693   1.676   8.016   6.322 -0.3748 -0.2067  0.1968
33732SOL    HW1 4694   1.737   8.020   6.395 -0.6289 -0.2431  0.4119
33732SOL    HW2 4695   1.590   8.009   6.363 -0.5939  0.6522 -0.0958
33733SOL     OW 4696   3.275   8.126   8.193  0.5267 -0.2143  0.0439
33733SOL    HW1 4697   3.360   8.082   8.187  1.7044  2.0296 -0.6743
33733SOL    HW2 4698   3.260   8.162   8.105 -1.2372 -0.6136  0.1325
33734SOL     OW 4699   6.303   5.786   6.860  0.4695  0.1294 -0.5321
33734SOL    HW1 4700   6.288   5.880   6.850  2.0842  0.6215  1.1738
33734SOL    HW2 4701   6.215   5.749   6.873 -0.1232  1.5086 -0.3913
33735SOL     OW 4702   0.084   7.969   7.367  0.0293  0.0461  0.3265
33735SOL    HW1 4703   0.055   8.016   7.445 -0.2764 -1.2622  1.0343
33735SOL    HW2 4704   0.015   7.984   7.303  0.3059  1.1759  0.2648
33736SOL     OW 4705   4.875   4.780   8.764  0.2605  0.3713  0.0683
33736SOL    HW1 4706   4.808   4.788   8.832  0.0116 -0.1112 -0.1174
33736SOL    HW2 4707   4.870   4.862   8.716  0.4825  0.7486  0.6694
33737SOL     OW 4708   1.537   6.604   8.604  0.1942 -0.4431  0.4639
33737SOL    HW1 4709   1.473   6.629   8.671 -1.0448 -1.0033 -0.4573
33737SOL    HW2 4710   1.610   6.567   8.653 -0.5338 -0.5248  1.5323
33738SOL     OW 4711   7.492   4.477   4.001  0.1954  0.2086 -0.0751
33738SOL    HW1 4712   7.453   4.390   3.985  0.6810 -0.0450  0.0914
33738SOL    HW2 4713   7.585   4.459   4.012  0.0929  0.5357  1.6045
33739SOL     OW 4714  10.945   6.941   4.835 -0.2920  0.2632 -0.1310
33739SOL    HW1 4715  11.020   6.882   4.843 -0.5462 -0.0615 -0.1366
33739SOL    HW2 4716  10.872   6.885   4.810 -0.6782  0.4821  0.4680
33740SOL     OW 4717   2.438   0.074   5.170  0.1151  0.3359 -0.3047
33740SOL    HW1 4718   2.465   0.039   5.255  0.4128 -0.2631 -0.6437
33740SOL    HW2 4719   2.486   0.156   5.162  0.9225 -0.1356 -0.3677
33741SOL     OW 4720   9.342   4.729   3.100 -0.4443  0.2241  0.0144
33741SOL    HW1 4721   9.389   4.758   3.179  1.6614 -0.8167 -0.7611
33741SOL    HW2 4722   9.337   4.808   3.045  1.9223  0.0894 -0.5330
33742SOL     OW 4723   8.861   4.844  10.705  0.3949  0.7582  0.7102
33742SOL    HW1 4724   8.780   4.892  10.722  1.2970  1.5047  3.2870
33742SOL    HW2 4725   8.907   4.895  10.639 -0.8146  0.7693 -0.1590
33743SOL     OW 4726   6.732   6.612   1.837 -0.1248 -0.0989 -0.7342
33743SOL    HW1 4727   6.666   6.572   1.780  0.1087  1.3646 -2.1079
33743SOL    HW2 4728   6.732   6.704   1.812  0.7078  0.3941  0.9822
33744SOL     OW 4729  10.473   9.013   3.898  0.3742  0.0784  0.1370
33744SOL    HW1 4730  10.552   9.026   3.845 -0.1579  0.4179 -0.5939
33744SOL    HW2 4731  10.439   9.101   3.912 -0.4231 -0.1282 -0.4275
33745SOL     OW 4732   9.256   1.732   1.031  0.3796  0.4269 -0.3098
33745SOL    HW1 4733   9.291   1.810   1.075  1.8229 -0.0835 -0.5059
33745SOL    HW2 4734   9.306   1.659   1.067 -0.4649 -0.3342 -0.6511
33746SOL     OW 4735   1.508   7.752   6.228 -0.1888 -0.0767  0.6696
33746SOL    HW1 4736   1.464   7.690   6.286 -2.0683  1.3338  0.8383
33746SOL    HW2 4737   1.487   7.838   6.265  0.6684  0.7541 -0.6929
33747SOL     OW 4738   0.003   6.443   4.348  0.0647 -0.2537 -0.6031
33747SOL    HW1 4739  -0.051   6.402   4.416 -0.2573  0.3690 -0.4852
33747SOL    HW2 4740   0.047   6.515   4.393 -0.2074  0.2073 -1.0727
33748SOL     OW 4741   0.536   3.036   5.511  0.1768 -0.4994 -0.0199
33748SOL    HW1 4742   0.537   3.131   5.501  1.8632 -0.5705 -0.9547
33748SOL    HW2 4743   0.444   3.011   5.500 -0.6864  1.1813  2.5272
33749SOL     OW 4744   1.237   7.937   6.880  0.2100  0.1173 -0.1101
33749SOL    HW1 4745   1.197   8.017   6.913  1.6388  0.2081  1.5533
33749SOL    HW2 4746   1.185   7.866   6.917  1.7176  0.2223  2.4353
33750SOL     OW 4747   1.650   8.394   7.440  0.4117  0.1704 -0.1161
33750SOL    HW1 4748   1.664   8.424   7.530  0.7501  2.3018 -0.8106
33750SOL    HW2 4749   1.707   8.450   7.387 -2.6625  1.7489 -2.0346
33751SOL     OW 4750   9.377  10.197   1.749 -0.2977 -0.7855  0.0639
33751SOL    HW1 4751   9.410  10.157   1.669 -1.2198 -1.9413  0.2179
33751SOL    HW2 4752   9.283  10.211   1.732  0.0657  1.8156 -0.1480
33752SOL     OW 4753   5.164   9.688   4.276  0.2227 -0.4230  0.2544
33752SOL    HW1 4754   5.153   9.594   4.289 -0.9182 -0.3511 -0.0362
33752SOL    HW2 4755   5.152   9.726   4.363  0.0810 -0.5028  0.2699
33753SOL     OW 4756   4.838   4.316   3.048 -0.2805  0.1788  0.4283
33753SOL    HW1 4757   4.763   4.297   2.993  0.2731  0.4987 -0.4604
33753SOL    HW2 4758   4.911   4.325   2.987  0.4255  0.1667  1.2451
33754SOL     OW 4759   0.585   3.328   9.782  0.2414  0.4148  0.5169
33754SOL    HW1 4760   0.587   3.385   9.859 -1.1092 -1.4941  2.0468
33754SOL    HW2 4761   0.573   3.388   9.709  0.1802  2.1925  1.9095
33755SOL     OW 4762  10.987   7.658   4.708 -0.1416  0.8363 -1.1097
33755SOL    HW1 4763  11.064   7.693   4.662  0.4243 -0.1360 -0.9253
33755SOL    HW2 4764  11.001   7.564   4.711 -1.6693  0.5733 -1.6264
33756SOL     OW 4765   0.512   7.725  10.224 -0.2552 -0.0819 -0.1207
33756SOL    HW1 4766   0.547   7.769  10.301 -1.3420  3.2873 -1.3477
33756SOL    HW2 4767   0.589   7.711  10.168  0.3566 -1.4276  1.0059
33757SOL     OW 4768  10.410   6.584   3.181  0.0925 -0.4055  0.7022
33757SOL    HW1 4769  10.481   6.533   3.142  1.1819  0.6212  1.2909
33757SOL    HW2 4770  10.345   6.519   3.206  0.9079 -1.3904  0.3320
33758SOL     OW 4771   6.047   6.920   1.911 -0.0155  0.3411 -0.2062
33758SOL    HW1 4772   6.095   6.943   1.832  0.9564 -1.1547 -0.0989
33758SOL    HW2 4773   6.059   6.825   1.920 -2.1548  0.0574  0.3943
33759SOL     OW 4774   0.193   8.595  10.401  0.0088 -0.1048 -0.0595
33759SOL    HW1 4775   0.276   8.613  10.357 -1.4405  1.2716 -2.4964
33759SOL    HW2 4776   0.156   8.521  10.353 -1.6299  1.4414 -1.3414
33760SOL     OW 4777   6.442   8.934   9.151 -0.5531  0.1309 -0.1140
33760SOL    HW1 4778   6.371   8.872   9.169  0.5653 -1.7118 -1.6956
33760SOL    HW2 4779   6.398   9.010   9.114 -1.7971 -0.5441 -0.0906
33761SOL     OW 4780   0.115   0.212   4.064 -0.4641 -0.0708 -0.0500
33761SOL    HW1 4781   0.169   0.161   4.124  1.2226  1.5815 -0.1075
33761SOL    HW2 4782   0.118   0.163   3.982  1.8372  0.4739 -0.3547
33762SOL     OW 4783  10.540   8.456   0.094 -0.6800 -0.4970 -0.1802
33762SOL    HW1 4784  10.514   8.370   0.059  1.0554 -0.4711 -1.7081
33762SOL    HW2 4785  10.493   8.519   0.039 -0.4413 -0.4740 -0.3610
33763SOL     OW 4786   1.307   0.871   5.577  0.1291 -0.2016  0.5248
33763SOL    HW1 4787   1.375   0.810   5.546  1.4856  0.9861  1.0170
33763SOL    HW2 4788   1.225   0.833   5.547  0.8713 -2.4876  1.1718
33764SOL     OW 4789   8.774   9.475   4.727 -0.0997 -0.5101  0.0251
33764SOL    HW1 4790   8.827   9.542   4.684 -0.4248  0.2142  0.7158
33764SOL    HW2 4791   8.836   9.428   4.783 -0.0810  0.0320  0.4750
33765SOL     OW 4792   4.175   7.291   3.504  0.6698  0.0180 -0.4696
33765SOL    HW1 4793   4.093   7.339   3.513  1.3145  1.1217 -0.2562
33765SOL    HW2 4794   4.243   7.359   3.501  1.6441 -0.8856  0.1335
33766SOL     OW 4795   6.961   6.086   0.471 -0.3980 -0.2959  0.3646
33766SOL    HW1 4796   6.899   6.156   0.494 -2.3021 -1.6836 -0.2950
33766SOL    HW2 4797   7.032   6.132   0.426 -1.1309  1.3179  0.7501
33767SOL     OW 4798  10.833   5.835   1.572  0.2460  0.0232  0.3353
33767SOL    HW1 4799  10.855   5.928   1.573  0.7545 -0.0971  0.2916
33767SOL    HW2 4800  10.811   5.814   1.663 -0.0778  0.2322  0.3071
33768SOL     OW 4801   5.129   7.986   3.792 -0.2063  0.2634 -0.7608
33768SOL    HW1 4802   5.216   7.995   3.831  0.3205 -0.7445 -1.6560
33768SOL    HW2 4803   5.075   7.950   3.863 -0.3116  2.3623  0.2819
33769SOL     OW 4804   9.377   8.553   1.082  0.7554  0.4866  0.3167
33769SOL    HW1 4805   9.410   8.465   1.069 -1.6022 -0.4197 -0.1581
33769SOL    HW2 4806   9.325   8.571   1.004  0.3259  1.8571  0.8777
33770SOL     OW 4807   3.881   3.338   7.880 -0.3802 -0.1738 -0.2175
33770SOL    HW1 4808   3.948   3.337   7.812  1.8847  0.7769  1.8538
33770SOL    HW2 4809   3.823   3.410   7.855 -0.1764 -0.4602 -1.6082
33771SOL     OW 4810   9.735  10.336   1.729 -0.2521 -0.1938  0.1968
33771SOL    HW1 4811   9.718  10.247   1.760 -0.9360  0.4875  1.9531
33771SOL    HW2 4812   9.682  10.345   1.650 -1.0267 -1.0054  0.6060
33772SOL     OW 4813   9.936   2.305   7.857  0.1392  0.1812  0.3548
33772SOL    HW1 4814   9.963   2.389   7.895  0.2388 -0.1985  1.1286
33772SOL    HW2 4815   9.840   2.308   7.858  0.1121  0.8832 -0.9772
33773SOL     OW 4816   4.679   4.863  10.642  0.0241 -0.3253  0.3587
33773SOL    HW1 4817   4.658   4.889  10.731 -2.9255 -0.3074 -0.2477
33773SOL    HW2 4818   4.686   4.945  10.593 -1.9945 -0.3756 -0.0928
33774SOL     OW 4819   5.762  10.291   3.297 -0.2223  0.1303 -0.2033
33774SOL    HW1 4820   5.813  10.215   3.270 -0.8432  0.0205 -1.1368
33774SOL    HW2 4821   5.671  10.262   3.293 -0.3751  0.2188  1.7745
33775SOL     OW 4822   1.028   5.590   0.468  0.2371  0.2982  0.0111
33775SOL    HW1 4823   1.099   5.534   0.437 -1.0256 -1.1923 -0.3091
33775SOL    HW2 4824   0.948   5.545   0.441 -0.8699  2.7385 -1.0857
33776SOL     OW 4825   7.760   4.552   9.176  0.1609 -0.0569  0.3213
33776SOL    HW1 4826   7.780   4.490   9.106  0.3523 -0.8823  1.0850
33776SOL    HW2 4827   7.775   4.502   9.257  0.4170  1.0118  0.9549
33777SOL     OW 4828   2.474   5.385   6.089  0.4671 -0.2565 -0.4234
33777SOL    HW1 4829   2.444   5.381   5.998  0.2102 -1.0048 -0.3127
33777SOL    HW2 4830   2.437   5.467   6.123  0.2733 -0.1476 -0.8886
33778SOL     OW 4831   3.247  10.840   5.281  0.1674 -0.0058  0.2206
33778SOL    HW1 4832   3.298  10.912   5.243  0.6030 -0.9875 -1.1494
33778SOL    HW2 4833   3.160  10.849   5.243 -0.3608  0.9501  1.6080
33779SOL     OW 4834  10.683   5.639   0.200 -0.4770  0.1083  0.4542
33779SOL    HW1 4835  10.611   5.582   0.173 -0.7320  0.5069  0.2952
33779SOL    HW2 4836  10.705   5.609   0.288 -1.5157  0.6432  0.9066
33780SOL     OW 4837   4.947   3.822   4.420  0.0087  0.0247 -0.2937
33780SOL    HW1 4838   4.993   3.896   4.460  0.1848 -0.8244  1.1315
33780SOL    HW2 4839   4.915   3.771   4.494 -1.2091 -0.6629 -1.2639
33781SOL     OW 4840   4.980   4.050   8.963 -0.4545  0.0948 -0.6097
33781SOL    HW1 4841   5.003   3.986   9.031  0.0404  0.2407 -0.6353
33781SOL    HW2 4842   5.047   4.038   8.896 -0.0151  1.0486 -0.3525
33782SOL     OW 4843   9.149   7.409   1.195 -0.7770 -0.3581  0.2396
33782SOL    HW1 4844   9.065   7.376   1.163 -1.2203 -0.3182  1.3217
33782SOL    HW2 4845   9.206   7.332   1.198 -0.6554 -0.3305 -0.7993
33783SOL     OW 4846   9.775   5.007   9.154 -0.5079  0.2702 -0.8527
33783SOL    HW1 4847   9.797   4.919   9.124  0.7273  0.0256  0.6012
33783SOL    HW2 4848   9.856   5.057   9.142  0.2020  0.0580  2.1770
33784SOL     OW 4849   6.548   7.081   8.491 -0.5244  0.2597  0.1187
33784SOL    HW1 4850   6.519   7.049   8.406 -0.0172  0.4389 -0.1290
33784SOL    HW2 4851   6.470   7.078   8.546 -0.3849 -1.9271  0.2751
33785SOL     OW 4852   5.592   3.924   1.344 -0.8138 -0.1213  0.3654
33785SOL    HW1 4853   5.623   3.851   1.398  0.0455 -0.8768 -1.0787
33785SOL    HW2 4854   5.638   4.001   1.378 -1.7549 -0.2088  1.9284
33786SOL     OW 4855   8.152   6.047   4.609  0.2357  0.4815 -0.4750
33786SOL    HW1 4856   8.184   6.040   4.519  0.4784 -0.4005 -0.3329
33786SOL    HW2 4857   8.231   6.036   4.663  0.4937  3.3539 -0.1591
33787SOL     OW 4858  10.089   4.930   9.549  0.2703  0.2036 -0.3527
33787SOL    HW1 4859  10.078   4.914   9.456 -0.5270 -2.3582  0.0989
33787SOL    HW2 4860  10.023   4.874   9.591  2.0176 -0.3991  1.7873
33788SOL     OW 4861   9.903   5.865  10.928  0.1492  0.0194  0.6705
33788SOL    HW1 4862   9.830   5.900  10.877  1.7110  2.5896  0.0303
33788SOL    HW2 4863   9.965   5.832  10.863  1.3476  1.6597  0.9146
33789SOL     OW 4864   4.263  10.929   6.313 -0.0017 -0.1136 -0.7636
33789SOL    HW1 4865   4.200  10.969   6.373  1.0925  0.2974  0.1697
33789SOL    HW2 4866   4.240  10.837   6.312 -0.1004 -0.1107  0.2377
33790SOL     OW 4867   9.081   8.101   5.074 -0.0786 -0.2903  0.1115
33790SOL    HW1 4868   9.016   8.152   5.123 -0.5432 -0.2093 -0.5794
33790SOL    HW2 4869   9.141   8.068   5.141 -0.2145  0.5283  0.6437
33791SOL     OW 4870   2.262   8.404   1.648  0.8133 -0.1434 -0.3356
33791SOL    HW1 4871   2.206   8.332   1.621  1.0287  0.3313 -2.1718
33791SOL    HW2 4872   2.314   8.425   1.570  0.7702  1.9609  0.1288
33792SOL     OW 4873   6.650   3.090   3.990 -0.3491 -0.3792 -0.3494
33792SOL    HW1 4874   6.665   3.131   4.075 -0.7993 -0.7678 -0.0723
33792SOL    HW2 4875   6.602   3.010   4.011 -0.5681 -0.4190 -0.9821
33793SOL     OW 4876   4.151   8.193   0.178  0.1037 -0.1992  0.3794
33793SOL    HW1 4877   4.127   8.265   0.119  0.5298 -1.6300 -1.6323
33793SOL    HW2 4878   4.119   8.114   0.133  1.5254 -1.4463  1.4880
33794SOL     OW 4879  10.150   5.282   0.419  0.1755  0.0652  0.7987
33794SOL    HW1 4880  10.238   5.257   0.391 -0.1554 -0.6555  0.3630
33794SOL    HW2 4881  10.143   5.248   0.508  0.8764  1.4963  1.4406
33795SOL     OW 4882   3.868   6.205   7.714 -0.2956 -0.0304  0.0968
33795SOL    HW1 4883   3.944   6.211   7.771  1.0108 -2.1585 -1.3043
33795SOL    HW2 4884   3.875   6.120   7.672 -2.7633  0.2503 -1.0929
33796SOL     OW 4885   4.580  10.386   3.254 -0.0916  0.4230 -0.4128
33796SOL    HW1 4886   4.635  10.436   3.314 -0.4006  0.9391 -0.5547
33796SOL    HW2 4887   4.624  10.392   3.169 -0.5378  1.1306 -0.6031
33797SOL     OW 4888   8.800  10.206   6.639  0.7243 -0.1531 -0.2282
33797SOL    HW1 4889   8.805  10.251   6.555  0.0646  0.9731  0.3108
33797SOL    HW2 4890   8.850  10.262   6.699 -1.1356  0.5877  0.7306
33798SOL     OW 4891   4.858   1.564   5.410  0.2278 -0.0444 -0.4801
33798SOL    HW1 4892   4.821   1.613   5.337 -1.6650 -1.6042 -0.6581
33798SOL    HW2 4893   4.953   1.566   5.395  0.1983  2.8105 -0.8664
33799SOL     OW 4894   1.047   5.482   2.524  0.0407  0.4517 -0.0361
33799SOL    HW1 4895   1.054   5.517   2.435  1.6204 -0.9343 -0.4925
33799SOL    HW2 4896   0.955   5.496   2.547 -0.4321  0.7706 -1.9096
33800SOL     OW 4897   6.834   4.327   2.429 -0.7601 -0.3261  0.3599
33800SOL    HW1 4898   6.915   4.324   2.377 -0.8899  1.4758 -0.0071
33800SOL    HW2 4899   6.809   4.235   2.440  0.4605 -0.8390 -0.8917
33801SOL     OW 4900   3.945   9.609   5.760 -0.8193  0.3189 -0.2471
33801SOL    HW1 4901   4.014   9.660   5.803  0.7565 -0.3183 -1.8846
33801SOL    HW2 4902   3.926   9.657   5.680  0.5754 -1.4529 -1.7373
33802SOL     OW 4903   1.291   4.734   8.699  0.3820  0.0012 -0.3637
33802SOL    HW1 4904   1.296   4.659   8.758  1.3413  2.4526  2.9499
33802SOL    HW2 4905   1.198   4.740   8.676 -0.1981 -0.5412  1.6609
33803SOL     OW 4906   5.458   3.552   9.970 -0.0895 -0.0374 -0.5942
33803SOL    HW1 4907   5.516   3.562   9.895  0.9128  1.4228  0.3060
33803SOL    HW2 4908   5.517   3.556  10.046 -1.3919  3.4872  0.4640
33804SOL     OW 4909   6.651  10.569   8.026  0.3273  0.0272  0.0942
33804SOL    HW1 4910   6.575  10.611   8.067 -0.2892  1.7305 -2.5402
33804SOL    HW2 4911   6.640  10.476   8.044 -2.5797  0.1692 -0.4009
33805SOL     OW 4912   8.526   3.838   5.252 -0.0038 -0.4636  0.1624
33805SOL    HW1 4913   8.557   3.856   5.341  1.3422 -0.1201 -0.3478
33805SOL    HW2 4914   8.603   3.850   5.197 -0.8903 -0.3387 -1.1015
33806SOL     OW 4915   9.005   5.160  10.808  0.1668 -0.6139  0.2895
33806SOL    HW1 4916   9.082   5.133  10.757 -0.1325  0.6148 -0.8686
33806SOL    HW2 4917   9.039   5.180  10.895  1.1151 -0.2877 -0.1468
33807SOL     OW 4918   1.565   8.237   5.714 -0.0062 -0.1101  1.1525
33807SOL    HW1 4919   1.621   8.267   5.785  0.8028  0.5141  0.2736
33807SOL    HW2 4920   1.483   8.286   5.726 -0.1769 -0.6020  2.0992
33808SOL     OW 4921   2.314   5.595   3.114  0.0856  0.0935 -0.0995
33808SOL    HW1 4922   2.333   5.519   3.058 -1.0158  0.5787 -1.1792
33808SOL    HW2 4923   2.287   5.558   3.198  1.5907 -0.6559  0.0841
33809SOL     OW 4924   9.709   9.905   2.509  0.2628 -0.0195 -0.1954
33809SOL    HW1 4925   9.784   9.934   2.561 -0.6305  0.9823  0.5819
33809SOL    HW2 4926   9.723   9.942   2.423  1.3619 -1.0302 -0.4782
33810SOL     OW 4927   5.215   9.600   1.551 -0.1720 -0.2840  0.2455
33810SOL    HW1 4928   5.257   9.685   1.567  1.0512 -0.9383  0.6299
33810SOL    HW2 4929   5.257   9.540   1.612 -3.1715 -0.6032  2.2173
33811SOL     OW 4930   6.313   4.633  10.697  0.8455  0.6439  0.3320
33811SOL    HW1 4931   6.319   4.538  10.692 -2.5268  0.2950  0.6049
33811SOL    HW2 4932   6.289   4.660  10.608 -1.5635  0.7870  0.9634
33812SOL     OW 4933   3.379   0.061   5.174  0.3105 -0.1954 -0.1856
33812SOL    HW1 4934   3.414   0.013   5.098 -0.3517  0.0858 -0.6785
33812SOL    HW2 4935   3.322   0.128   5.135 -0.6608 -0.5495  0.5925
33813SOL     OW 4936   1.235   4.018   1.051  0.0067  0.1749 -0.4878
33813SOL    HW1 4937   1.233   4.026   0.956 -1.1971 -0.2814 -0.5158
33813SOL    HW2 4938   1.326   3.993   1.071  0.4365  0.9212 -1.4490
33814SOL     OW 4939   7.766  10.729   3.306 -0.1537  0.0655  0.1784
33814SOL    HW1 4940   7.701  10.727   3.236  0.1910 -1.8622 -0.1667
33814SOL    HW2 4941   7.802  10.817   3.303 -0.6272  0.2462 -1.6152
33815SOL     OW 4942   4.660   8.193   8.158  0.3906  0.5491  0.3739
33815SOL    HW1 4943   4.628   8.269   8.207 -2.3887  0.7880 -1.5489
33815SOL    HW2 4944   4.587   8.131   8.160  1.9029 -1.3226  0.3168
33816SOL     OW 4945   2.335   4.913   4.261  0.7070  0.0972  0.0933
33816SOL    HW1 4946   2.425   4.884   4.275  0.9961  0.8735 -0.0584
33816SOL    HW2 4947   2.286   4.878   4.335  0.9024 -1.2812 -0.4148
33817SOL     OW 4948   7.540   3.504   2.447 -0.0926 -0.3326 -0.7767
33817SOL    HW1 4949   7.477   3.441   2.481 -2.7624  1.8257 -1.3398
33817SOL    HW2 4950   7.582   3.540   2.525 -2.2758  0.7491 -0.0044
33818SOL     OW 4951   8.014   3.649  10.178 -0.2460 -0.1680 -0.0315
33818SOL    HW1 4952   7.989   3.726  10.127  0.5905 -0.5197 -1.0152
33818SOL    HW2 4953   8.037   3.583  10.112  1.9664 -0.2729  0.7575
33819SOL     OW 4954   7.836   2.376   2.940 -0.0444  0.1411  0.1221
33819SOL    HW1 4955   7.867   2.389   2.851  0.5985  1.0963  0.4704
33819SOL    HW2 4956   7.829   2.464   2.977 -1.6751 -0.1309  0.5795
33820SOL     OW 4957   2.523   3.467   1.329  0.0779 -0.2997 -0.3317
33820SOL    HW1 4958   2.464   3.417   1.386  1.0219 -0.3922  0.5998
33820SOL    HW2 4959   2.489   3.452   1.241 -0.7993 -1.0167  0.1044
33821SOL     OW 4960   8.456   5.504   5.615  0.1576 -0.3553 -0.1247
33821SOL    HW1 4961   8.416   5.584   5.650  1.3547  0.3876 -0.3961
33821SOL    HW2 4962   8.538   5.495   5.663  0.0076 -1.4865 -0.0468
33822SOL     OW 4963   8.214   8.252   0.834  0.2240 -0.3115 -0.4129
33822SOL    HW1 4964   8.145   8.277   0.772  0.0114  0.4216  0.0971
33822SOL    HW2 4965   8.245   8.336   0.869  1.5323 -0.6279 -0.7920
33823SOL     OW 4966   4.625   5.195   5.775 -0.2382 -0.2110 -0.0167
33823SOL    HW1 4967   4.623   5.102   5.794  1.3456 -0.6097 -1.5297
33823SOL    HW2 4968   4.535   5.218   5.755 -0.8120 -1.1633  1.3501
33824SOL     OW 4969   5.132   8.320   2.464 -0.6667 -0.2440  0.2220
33824SOL    HW1 4970   5.167   8.231   2.461  2.7788  0.9224  1.1110
33824SOL    HW2 4971   5.115   8.337   2.556  0.6379  0.6017  0.3454
33825SOL     OW 4972   3.743   3.249   9.793  0.0419  0.2642 -0.4716
33825SOL    HW1 4973   3.791   3.243   9.876  0.4229 -1.5053 -0.7757
33825SOL    HW2 4974   3.651   3.247   9.819  0.1569 -0.8177 -0.0967
33826SOL     OW 4975   3.282   6.321  10.037  0.2413  0.2788 -0.6739
33826SOL    HW1 4976   3.322   6.328   9.951 -2.1904  2.1685 -1.7796
33826SOL    HW2 4977   3.193   6.289  10.021  0.1462 -0.6220  1.2927
33827SOL     OW 4978  10.759   7.848   9.796 -0.2009  0.4374  0.4778
33827SOL    HW1 4979  10.838   7.882   9.754 -1.0917  1.8530 -0.1149
33827SOL    HW2 4980  10.761   7.754   9.778  1.2127  0.4816  0.2717
33828SOL     OW 4981   3.119   3.418   0.565 -0.0192 -0.2794  0.3650
33828SOL    HW1 4982   3.084   3.490   0.617  0.1827  1.0403 -1.2304
33828SOL    HW2 4983   3.201   3.395   0.608  0.1405  0.7767  0.6520
33829SOL     OW 4984   1.079   6.186   8.783 -0.0473 -0.2382  0.2044
33829SOL    HW1 4985   1.108   6.140   8.704  0.2930 -2.3227  1.4761
33829SOL    HW2 4986   0.985   6.201   8.769 -0.1256 -1.1577 -0.3141
33830SOL     OW 4987   0.232   7.447   3.675  0.0750  0.2641 -0.5835
33830SOL    HW1 4988   0.235   7.363   3.722  1.1207  0.3648 -0.4385
33830SOL    HW2 4989   0.191   7.426   3.591 -0.6594 -0.1712 -0.1240
33831SOL     OW 4990   6.208   7.040   0.599  0.6607  0.3001 -0.4187
33831SOL    HW1 4991   6.114   7.028   0.588  0.2702  0.7034  1.9384
33831SOL    HW2 4992   6.247   7.000   0.522 -1.3410 -1.8733 -0.3971
33832SOL     OW 4993   3.575   4.124   3.134 -0.2546  0.3381  0.4750
33832SOL    HW1 4994   3.548   4.096   3.046 -0.9611  0.2523  0.7151
33832SOL    HW2 4995   3.664   4.158   3.122  0.5449 -1.7226  0.1043
33833SOL     OW 4996   0.854   1.758   0.489 -0.0071  0.3705  0.0093
33833SOL    HW1 4997   0.883   1.746   0.579  1.6768  0.3706 -0.5091
33833SOL    HW2 4998   0.790   1.687   0.476 -0.0040  0.1478  1.0752
33834SOL     OW 4999  10.116   5.123   9.986 -0.0035  0.4634  0.3311
33834SOL    HW1 5000  10.141   5.112  10.077 -0.9658 -0.4587  0.5063
33834SOL    HW2 5001  10.183   5.076   9.937  0.1802  0.4413  0.6031
33835SOL     OW 5002   2.794   7.704   0.750  0.0945  0.0401 -0.5868
33835SOL    HW1 5003   2.832   7.771   0.693  1.3244 -0.4996 -0.4199
33835SOL    HW2 5004   2.741   7.650   0.692  0.4095  0.1866 -1.0159
33836SOL     OW 5005   6.868   4.964   9.655  0.3879  0.1185  0.2313
33836SOL    HW1 5006   6.924   4.977   9.731 -0.0429 -0.5856  0.6808
33836SOL    HW2 5007   6.800   5.030   9.663  0.3476  0.0492  0.4585
33837SOL     OW 5008   9.169   5.785  10.357  0.2410  0.5872  0.4467
33837SOL    HW1 5009   9.184   5.741  10.273 -0.1955  0.2865  0.5275
33837SOL    HW2 5010   9.252   5.774  10.404 -0.7024 -2.6145  1.5924
33838SOL     OW 5011   3.769   8.680   8.692 -0.2938 -0.0238  0.4776
33838SOL    HW1 5012   3.845   8.664   8.636 -2.1329  1.1920 -2.6155
33838SOL    HW2 5013   3.796   8.647   8.778  3.9114  0.8656 -0.2485
33839SOL     OW 5014   5.040   9.593   9.339 -0.0627  0.0296 -0.3129
33839SOL    HW1 5015   5.089   9.613   9.260  1.7269 -0.8481  0.5221
33839SOL    HW2 5016   5.104   9.596   9.409 -1.3050 -0.6857  0.9074
33840SOL     OW 5017   9.123   8.772   9.396 -0.1265 -0.4713  0.4123
33840SOL    HW1 5018   9.064   8.797   9.467 -1.8522  0.1035 -1.1328
33840SOL    HW2 5019   9.203   8.822   9.412 -0.3234 -0.6438  2.1191
33841SOL     OW 5020   4.525   9.542   8.075 -0.0521  0.6302  0.3784
33841SOL    HW1 5021   4.620   9.548   8.072 -0.0953  1.2455  0.0165
33841SOL    HW2 5022   4.507   9.450   8.094  0.5993  0.2975 -0.5301
33842SOL     OW 5023   5.857   5.825   7.028  0.2447 -0.1908  0.4302
33842SOL    HW1 5024   5.862   5.843   7.122  0.5300  0.9174  0.2178
33842SOL    HW2 5025   5.763   5.814   7.012  0.2899 -1.6770  1.0567
33843SOL     OW 5026   5.380   2.860   9.618 -0.4714  0.2425 -0.2580
33843SOL    HW1 5027   5.457   2.811   9.645 -0.0538  1.4181  0.7634
33843SOL    HW2 5028   5.337   2.804   9.553  0.4125 -1.0971  0.2778
33844SOL     OW 5029  10.465   2.017   0.784 -0.0370  0.6771 -0.3316
33844SOL    HW1 5030  10.558   1.995   0.775  0.4683  1.6480  1.9294
33844SOL    HW2 5031  10.464   2.100   0.832 -2.0718  0.6185 -0.1954
33845SOL     OW 5032   2.878   8.674   3.287  0.3950 -0.3759  0.0073
33845SOL    HW1 5033   2.924   8.758   3.296  1.3884 -1.0582  1.6060
33845SOL    HW2 5034   2.823   8.686   3.210  1.9667  1.0826 -0.9813
33846SOL     OW 5035  10.869   6.668   6.748 -0.0974  0.4235 -0.8550
33846SOL    HW1 5036  10.938   6.604   6.731 -0.0445  0.4528 -0.7578
33846SOL    HW2 5037  10.788   6.618   6.744 -0.0874  0.4343 -1.1989
33847SOL     OW 5038   2.719   4.091   0.748 -0.2678 -0.1521  0.5576
33847SOL    HW1 5039   2.739   4.143   0.826  0.6843 -0.4350  0.5079
33847SOL    HW2 5040   2.654   4.144   0.701  0.4176  0.8360  0.6898
33848SOL     OW 5041   4.662   4.714   2.859  0.5905 -0.2021  0.1226
33848SOL    HW1 5042   4.738   4.656   2.857  0.7805  0.0622 -0.2941
33848SOL    HW2 5043   4.677   4.777   2.789  0.1566  0.0674  0.2650
33849SOL     OW 5044   0.439   7.430   7.462 -0.2816 -0.1049 -0.5058
33849SOL    HW1 5045   0.370   7.432   7.396 -0.1946  1.1081 -0.5829
33849SOL    HW2 5046   0.392   7.424   7.545 -0.5133  0.9544 -0.5434
33850SOL     OW 5047   4.377   3.445   3.650 -0.1165  0.2665  0.1191
33850SOL    HW1 5048   4.439   3.394   3.701 -1.1809 -0.3826  0.8087
33850SOL    HW2 5049   4.430   3.489   3.584  0.7787 -2.7916 -1.4170
33851SOL     OW 5050   0.567   1.926   9.817  0.2552 -0.4131 -0.1451
33851SOL    HW1 5051   0.613   1.909   9.899  1.1176  0.8633 -0.3273
33851SOL    HW2 5052   0.488   1.871   9.821  0.6564 -0.9251  1.1903
33852SOL     OW 5053   9.547   3.264   8.990 -0.3138 -1.0293  0.0459
33852SOL    HW1 5054   9.546   3.224   8.904 -1.2805  1.4862 -1.2186
33852SOL    HW2 5055   9.455   3.284   9.009 -0.2589 -2.4622  2.1839
33853SOL     OW 5056   3.427   2.730   3.891 -0.1665  0.6971  0.0111
33853SOL    HW1 5057   3.346   2.755   3.846  0.2736  0.7893 -0.7582
33853SOL    HW2 5058   3.438   2.796   3.960  0.0862  1.6408 -0.9068
33854SOL     OW 5059  10.395   3.888   1.233 -0.1571 -0.2430 -0.5251
33854SOL    HW1 5060  10.306   3.864   1.257  1.1008 -3.0738  2.0029
33854SOL    HW2 5061  10.422   3.820   1.171  0.3696  0.4106 -1.0298
33855SOL     OW 5062   2.062   8.960   2.525 -0.0658 -0.7813 -0.6037
33855SOL    HW1 5063   2.099   8.993   2.443  2.4747 -0.5651  0.5227
33855SOL    HW2 5064   1.979   9.006   2.533 -0.5942 -1.1029 -3.2094
33856SOL     OW 5065   9.989   5.025   5.532 -0.0938  0.3457 -0.6797
33856SOL    HW1 5066   9.994   4.963   5.459 -0.1559 -0.6182  0.1212
33856SOL    HW2 5067   9.934   4.981   5.597 -0.8352  1.5963 -0.4352
33857SOL     OW 5068   1.133   3.005   0.419  0.0211  0.4474  0.1674
33857SOL    HW1 5069   1.084   3.003   0.337 -0.1370  0.4700  0.2608
33857SOL    HW2 5070   1.155   3.097   0.432  1.0668  0.3068 -0.4493
33858SOL     OW 5071   4.829   6.354  10.824 -0.3914 -0.7125 -0.3514
33858SOL    HW1 5072   4.835   6.444  10.856  1.7322 -1.5574  1.9376
33858SOL    HW2 5073   4.796   6.363  10.734 -1.3111  2.2232  0.1513
33859SOL     OW 5074   5.698   7.034   8.511 -0.4454  0.0481  0.0682
33859SOL    HW1 5075   5.660   7.108   8.559 -2.1498 -0.9938  0.4099
33859SOL    HW2 5076   5.688   6.960   8.570  1.0801 -0.5093 -0.3411
33860SOL     OW 5077   6.548   0.284   6.692 -0.4292  0.8979 -0.5961
33860SOL    HW1 5078   6.525   0.202   6.735  0.8431  1.3790  1.1280
33860SOL    HW2 5079   6.516   0.275   6.603 -0.1308 -1.5526 -0.5009
33861SOL     OW 5080  10.257   3.206   9.490  0.3775  0.4408  0.0254
33861SOL    HW1 5081  10.277   3.286   9.441 -0.1132  2.4175  2.7870
33861SOL    HW2 5082  10.169   3.181   9.462 -0.3199  2.1330  0.5539
33862SOL     OW 5083  10.925   5.874   8.957 -0.4818  0.0540  0.4865
33862SOL    HW1 5084  10.955   5.826   9.035 -1.2930 -0.3548  0.5607
33862SOL    HW2 5085  10.896   5.805   8.897 -0.3792  0.3958  0.0407
33863SOL     OW 5086   4.717   5.586   9.220 -0.2985  0.5074 -0.5165
33863SOL    HW1 5087   4.704   5.563   9.128 -1.8367  0.3995 -0.2942
33863SOL    HW2 5088   4.705   5.503   9.267  0.6170  0.5354 -0.2152
33864SOL     OW 5089   4.639   7.290  10.780  0.1301 -0.2947 -0.0793
33864SOL    HW1 5090   4.714   7.313  10.834  0.0913 -2.4138  0.9763
33864SOL    HW2 5091   4.666   7.312  10.691  2.2188 -1.4092  0.2171
33865SOL     OW 5092  10.636   0.691   0.885 -0.4360  0.0857  0.0586
33865SOL    HW1 5093  10.714   0.726   0.844  0.3040 -0.0433  1.3178
33865SOL    HW2 5094  10.612   0.616   0.830 -0.7633  1.2027 -1.3812
33866SOL     OW 5095   4.757   8.669   2.263  0.5625 -0.6346  0.6796
33866SOL    HW1 5096   4.837   8.633   2.224  0.2881  1.5072 -2.2061
33866SOL    HW2 5097   4.690   8.602   2.246  1.2208 -1.3464  0.8286
33867SOL     OW 5098   0.767  10.731   6.915  0.0437  0.5592 -0.3707
33867SOL    HW1 5099   0.740  10.639   6.912 -2.0998  1.0918  0.4501
33867SOL    HW2 5100   0.688  10.780   6.892  0.4029  2.2611  1.6437
33868SOL     OW 5101  10.389   3.795  10.850  0.0487 -0.6812  1.2526
33868SOL    HW1 5102  10.480   3.777  10.873  0.2842 -0.8547  0.2464
33868SOL    HW2 5103  10.374   3.744  10.770 -0.7727 -0.2491  1.1216
33869SOL     OW 5104   0.607  10.397   4.779  0.6310 -0.4936 -0.2115
33869SOL    HW1 5105   0.687  10.398   4.832  1.4782 -0.1105 -1.4557
33869SOL    HW2 5106   0.539  10.367   4.839  1.2667  1.2789  1.5093
33870SOL     OW 5107   3.258   6.115   9.252  0.5368  0.1798  0.3602
33870SOL    HW1 5108   3.193   6.166   9.203  0.1795  1.8918  2.4292
33870SOL    HW2 5109   3.334   6.173   9.257  0.5077  0.1227  1.8966
33871SOL     OW 5110   0.606   6.239   0.242 -0.3077  0.8557 -0.1596
33871SOL    HW1 5111   0.537   6.237   0.174 -0.7261  1.3732  0.2472
33871SOL    HW2 5112   0.688   6.231   0.193 -0.6240  0.8935 -0.7049
33872SOL     OW 5113   0.737   5.679   1.214 -0.4066  0.7429 -0.3852
33872SOL    HW1 5114   0.644   5.660   1.231 -0.2913  0.0624 -0.4994
33872SOL    HW2 5115   0.759   5.747   1.278 -0.8595  0.5676 -0.0361
33873SOL     OW 5116   2.411   9.681   1.827 -0.2030 -0.0087  0.3431
33873SOL    HW1 5117   2.319   9.660   1.839 -0.0484 -0.3921  0.8669
33873SOL    HW2 5118   2.411   9.755   1.766 -0.8622  0.1100  0.4861
33874SOL     OW 5119  10.576   7.503   3.241  0.1690 -0.6094 -0.3150
33874SOL    HW1 5120  10.614   7.415   3.241  1.7886  0.0436 -1.4485
33874SOL    HW2 5121  10.495   7.494   3.292  0.5725 -2.6175  0.0618
33875SOL     OW 5122  10.860   8.831   3.111  0.0385  0.1553 -0.5045
33875SOL    HW1 5123  10.916   8.769   3.158  1.3604  0.6428 -1.3791
33875SOL    HW2 5124  10.792   8.777   3.073 -0.2095 -0.4339  0.7217
33876SOL     OW 5125   5.590   5.636   7.663  0.4129 -0.5403  0.3133
33876SOL    HW1 5126   5.606   5.549   7.699  0.3144 -1.3137 -1.4113
33876SOL    HW2 5127   5.675   5.662   7.627  0.8494  0.7778  2.1438
33877SOL     OW 5128   5.379  10.237   1.137 -0.5861 -0.0701  0.4814
33877SOL    HW1 5129   5.422  10.268   1.057 -0.4956  0.5197  0.7578
33877SOL    HW2 5130   5.444  10.178   1.177  0.2960  1.3853  1.2783
33878SOL     OW 5131   8.541   7.526   4.680 -0.2306 -1.1208  0.6453
33878SOL    HW1 5132   8.585   7.607   4.653 -1.8748 -0.0192  1.1217
33878SOL    HW2 5133   8.582   7.503   4.764  1.1234 -1.5342 -0.0952
33879SOL     OW 5134   5.990  10.909   8.742  0.8238  0.6124 -0.0661
33879SOL    HW1 5135   5.997  10.986   8.799 -0.0215 -0.3354  1.4001
33879SOL    HW2 5136   5.944  10.844   8.796  0.3192 -0.4640 -1.7275
33880SOL     OW 5137   9.061   6.832   2.504  0.7467  0.3758  0.1358
33880SOL    HW1 5138   9.002   6.864   2.435  1.2183  2.3365  0.5878
33880SOL    HW2 5139   9.148   6.831   2.463  0.7448 -0.4319  0.1232
33881SOL     OW 5140   1.673   7.258   4.674  0.3436  0.1199  0.3753
33881SOL    HW1 5141   1.700   7.282   4.585 -1.1449 -0.3407 -0.2256
33881SOL    HW2 5142   1.675   7.340   4.723 -0.1935  0.6347 -0.4536
33882SOL     OW 5143   1.402   6.463   9.940 -0.0471 -0.0165  0.3572
33882SOL    HW1 5144   1.389   6.518   9.862 -0.5390 -1.3773 -0.5666
33882SOL    HW2 5145   1.469   6.400   9.914 -1.3346 -1.4825  0.4531
33883SOL     OW 5146   4.927   3.300  10.031  0.2319  0.3114  0.2352
33883SOL    HW1 5147   5.019   3.325  10.029  0.5352 -0.5389  2.0393
33883SOL    HW2 5148   4.925   3.215  10.074 -1.0256 -1.7829 -3.4410
33884SOL     OW 5149   0.966   3.485   2.659  0.4246 -0.5657 -0.2860
33884SOL    HW1 5150   0.924   3.469   2.744  1.5124  0.7934  0.5515
33884SOL    HW2 5151   0.987   3.579   2.660  2.0252 -0.8789 -1.3262
33885SOL     OW 5152   4.310   4.312   7.238  0.6663  0.0380  0.2109
33885SOL    HW1 5153   4.232   4.358   7.268  1.3463  0.7159  0.9721
33885SOL    HW2 5154   4.370   4.381   7.210  2.1651 -0.2187  2.4759
33886SOL     OW 5155   1.672   4.415   8.956 -0.1590  0.3102  0.3249
33886SOL    HW1 5156   1.694   4.324   8.935  0.0445  0.0232  1.7022
33886SOL    HW2 5157   1.755   4.453   8.986 -0.5841  0.4939  1.2832
33887SOL     OW 5158   9.057   4.890   8.298  0.2648 -0.4144 -0.0874
33887SOL    HW1 5159   9.147   4.921   8.301  0.0524  0.5011 -1.7788
33887SOL    HW2 5160   9.033   4.895   8.205 -2.3556  1.8206  0.5730
33888SOL     OW 5161   9.572   4.805   9.996  0.0632 -0.5650 -0.1075
33888SOL    HW1 5162   9.652   4.775  10.038 -0.4074 -0.6862  0.7242
33888SOL    HW2 5163   9.556   4.740   9.927  0.2385 -1.0032  0.2556
33889SOL     OW 5164   3.839  10.158   5.878  0.1275 -0.3073 -0.2323
33889SOL    HW1 5165   3.785  10.128   5.806 -0.2006 -1.2465  0.3895
33889SOL    HW2 5166   3.791  10.132   5.957  1.1445 -0.5549  0.3265
33890SOL     OW 5167   6.045   6.396   8.470 -0.4529 -0.5016 -0.1569
33890SOL    HW1 5168   6.119   6.355   8.426 -0.9326 -2.6091  0.8579
33890SOL    HW2 5169   6.035   6.346   8.551 -2.2540  0.4764  0.2684
33891SOL     OW 5170   4.620   6.299   0.607  0.2677  0.0741 -0.1116
33891SOL    HW1 5171   4.644   6.210   0.631  2.2516 -0.1766 -2.5481
33891SOL    HW2 5172   4.589   6.339   0.688 -1.3886 -2.9907  0.9186
33892SOL     OW 5173   6.321   1.790   8.552 -0.1272 -0.4494 -0.1895
33892SOL    HW1 5174   6.380   1.718   8.532 -0.9154 -0.9713 -0.7327
33892SOL    HW2 5175   6.243   1.772   8.499 -0.5901  0.4600  0.1563
33893SOL     OW 5176   1.019   8.184   3.418  0.2746 -0.1582 -0.6469
33893SOL    HW1 5177   0.924   8.192   3.429  0.1244 -0.2918 -1.6759
33893SOL    HW2 5178   1.030   8.105   3.364  1.0474 -0.7553  0.3482
33894SOL     OW 5179   4.987   0.606   1.560  0.1257 -0.1077  0.3024
33894SOL    HW1 5180   4.986   0.520   1.520 -0.3823 -0.2722  0.6529
33894SOL    HW2 5181   4.980   0.667   1.487 -0.6420 -0.3982  0.1274
33895SOL     OW 5182   8.227   1.517   0.522  0.0069  0.1183  0.2939
33895SOL    HW1 5183   8.265   1.560   0.599 -3.1549 -0.8340  2.6312
33895SOL    HW2 5184   8.211   1.427   0.551  1.1289 -1.0569 -2.4729
33896SOL     OW 5185   8.615  10.568   4.921 -0.5533  0.2740  0.7715
33896SOL    HW1 5186   8.562  10.600   4.849 -0.2796 -2.1452 -0.6064
33896SOL    HW2 5187   8.552  10.527   4.981 -0.5158 -0.4588  0.3279
33897SOL     OW 5188   3.789   7.129   6.659 -0.3436  0.0767 -0.0019
33897SOL    HW1 5189   3.769   7.209   6.708  0.8435 -0.4692  1.4603
33897SOL    HW2 5190   3.712   7.073   6.673 -1.4675  1.1412 -1.5613
33898SOL     OW 5191   0.729   5.221   1.670  0.3328 -0.2604 -1.1958
33898SOL    HW1 5192   0.652   5.257   1.712  1.7019  0.0415  1.2143
33898SOL    HW2 5193   0.795   5.289   1.676  1.2825 -1.0915 -1.7562
33899SOL     OW 5194   1.647   6.729   3.325 -0.0869  0.0195  0.5953
33899SOL    HW1 5195   1.725   6.691   3.286 -1.2045 -0.0733 -1.7442
33899SOL    HW2 5196   1.631   6.809   3.275 -0.9721  0.5220  1.6319
33900SOL     OW 5197   9.746   8.251   2.481  0.3818 -0.2060 -0.9140
33900SOL    HW1 5198   9.671   8.221   2.428 -0.4492 -1.6264  0.9700
33900SOL    HW2 5199   9.819   8.198   2.450 -0.0986 -1.0465 -0.6466
33901SOL     OW 5200   5.865   6.923   2.270 -0.4056  0.4020 -0.4408
33901SOL    HW1 5201   5.896   6.833   2.258  0.0262  0.4863  0.0243
33901SOL    HW2 5202   5.831   6.947   2.184  1.1863  0.4348 -1.1083
33902SOL     OW 5203   4.098   7.414   4.083  0.4659 -0.4276  0.2087
33902SOL    HW1 5204   4.063   7.393   3.996 -0.0651 -0.9893  0.5440
33902SOL    HW2 5205   4.081   7.335   4.135 -0.7766  0.5010  1.2853
33903SOL     OW 5206   8.693   0.904   5.251  0.5948 -0.1152  0.6269
33903SOL    HW1 5207   8.727   0.965   5.316 -0.3444  1.1406 -0.0208
33903SOL    HW2 5208   8.616   0.947   5.216  0.3272 -1.3616 -0.3860
33904SOL     OW 5209   4.418   0.439   3.122  0.3102 -0.0902 -0.0806
33904SOL    HW1 5210   4.329   0.413   3.098  0.8337 -1.1626 -0.9361
33904SOL    HW2 5211   4.475   0.390   3.062  1.5762 -0.9762  1.7429
33905SOL     OW 5212   1.884   9.192   3.201  0.1246 -0.2481  0.3459
33905SOL    HW1 5213   1.978   9.174   3.208  0.3003  0.4328 -0.1793
33905SOL    HW2 5214   1.855   9.138   3.127  0.4012  0.6517 -0.4289
33906SOL     OW 5215   0.221   6.254   0.254  0.0524  0.0654  0.0583
33906SOL    HW1 5216   0.135   6.270   0.216  1.0195  2.2217 -1.4198
33906SOL    HW2 5217   0.260   6.341   0.264  0.9175 -0.5692  3.6680
33907SOL     OW 5218   4.244   2.938   1.431  0.6952 -0.2922 -0.0991
33907SOL    HW1 5219   4.149   2.946   1.421  0.7609 -0.2606 -0.7275
33907SOL    HW2 5220   4.271   2.877   1.363  1.3409  0.9968 -1.0412
33908SOL     OW 5221   6.456   3.646   3.498  0.3729  0.4412  0.1734
33908SOL    HW1 5222   6.449   3.721   3.557 -0.2249  1.0832 -0.7054
33908SOL    HW2 5223   6.367   3.633   3.465  0.6624 -0.0520 -0.4206
33909SOL     OW 5224   5.751   7.813  10.233  0.0886  0.4522 -0.7938
33909SOL    HW1 5225   5.723   7.750  10.300 -1.6086  0.9093 -1.0209
33909SOL    HW2 5226   5.838   7.783  10.207  0.2025 -0.5564  0.6022
33910SOL     OW 5227   3.600   7.865   7.902 -0.1046 -0.0731  0.5614
33910SOL    HW1 5228   3.665   7.915   7.853  0.5457 -0.2793  1.1902
33910SOL    HW2 5229   3.649   7.829   7.977 -0.9730 -0.0957  1.1355
33911SOL     OW 5230  10.564   9.597   0.800  0.0847 -0.3571 -0.0916
33911SOL    HW1 5231  10.476   9.569   0.825 -0.3714  1.4099  0.4334
33911SOL    HW2 5232  10.573   9.573   0.708 -0.9442 -0.5450 -0.1473
33912SOL     OW 5233   8.682  10.878   6.783 -0.1675 -0.3652  0.1024
33912SOL    HW1 5234   8.596  10.919   6.779 -0.4362 -0.9673 -0.4097
33912SOL    HW2 5235   8.689  10.829   6.702  0.1241 -1.3807  0.7309
33913SOL     OW 5236  10.608   3.684   4.501 -0.2193  0.6570  0.4547
33913SOL    HW1 5237  10.578   3.747   4.436  0.4586  1.2640  0.7221
33913SOL    HW2 5238  10.530   3.630   4.519 -0.6793  1.1148 -0.1119
33914SOL     OW 5239   7.849   9.399   9.353  0.1701  0.0564 -0.2980
33914SOL    HW1 5240   7.895   9.419   9.271  0.3686 -1.4916 -0.6000
33914SOL    HW2 5241   7.758   9.421   9.335  0.0515 -1.1172 -1.2813
33915SOL     OW 5242   6.372   0.367   8.612 -0.5981 -0.0662 -1.0835
33915SOL    HW1 5243   6.299   0.336   8.666 -1.2002  0.4133 -1.6053
33915SOL    HW2 5244   6.365   0.317   8.531  0.6059 -1.1455 -0.5548
33916SOL     OW 5245   0.085  10.212   5.377  0.1670 -0.1592  0.0841
33916SOL    HW1 5246   0.018  10.144   5.369  0.2419 -0.2382  0.1316
33916SOL    HW2 5247   0.038  10.288   5.410  0.2212 -0.4119  0.7662
33917SOL     OW 5248   7.665   3.849   3.681 -0.2039  0.1612  0.4482
33917SOL    HW1 5249   7.682   3.941   3.700 -1.7514  0.8396 -1.1776
33917SOL    HW2 5250   7.576   3.835   3.714 -0.1264 -0.6514  0.3214
33918SOL     OW 5251  10.432   6.789   5.964  0.2767  0.0984 -0.2594
33918SOL    HW1 5252  10.412   6.749   5.880 -1.0681  0.2895 -0.0588
33918SOL    HW2 5253  10.479   6.869   5.942 -0.0450  0.1367 -0.8286
33919SOL     OW 5254  10.432   3.563   1.176  0.8453 -0.3642 -0.4672
33919SOL    HW1 5255  10.361   3.523   1.227 -0.2689  1.0384 -0.8585
33919SOL    HW2 5256  10.414   3.538   1.085 -0.6128  1.9798 -0.8901
33920SOL     OW 5257   4.457   9.802   6.309 -0.0934 -0.3665  0.4886
33920SOL    HW1 5258   4.437   9.724   6.256  0.3868  0.2669 -0.6659
33920SOL    HW2 5259   4.403   9.871   6.270 -1.1376 -0.2682  2.0116
33921SOL     OW 5260   3.733   0.412   5.511  0.2674 -0.0833  0.2418
33921SOL    HW1 5261   3.811   0.356   5.519 -0.3338 -1.0153 -0.3142
33921SOL    HW2 5262   3.668   0.369   5.566  0.4680  1.3269  1.6403
33922SOL     OW 5263   0.816   8.687   9.280  0.5824  0.4010 -0.7124
33922SOL    HW1 5264   0.742   8.670   9.221 -2.1807  0.6878  2.3955
33922SOL    HW2 5265   0.853   8.601   9.297 -2.2668 -0.5745  1.4031
33923SOL     OW 5266   9.655   1.413   6.381 -0.1734 -0.6591  0.3837
33923SOL    HW1 5267   9.671   1.319   6.381 -0.9165 -0.8501  2.7053
33923SOL    HW2 5268   9.736   1.450   6.346 -0.2334 -2.1619 -1.4939
33924SOL     OW 5269   1.657   3.907  10.035  0.2200 -0.0827 -0.0587
33924SOL    HW1 5270   1.620   3.982   9.988  0.9611  0.3473  0.0150
33924SOL    HW2 5271   1.669   3.840   9.968  2.0819  0.8262 -0.7251
33925SOL     OW 5272  10.616   8.224   4.132  0.3048 -0.0931  0.3526
33925SOL    HW1 5273  10.644   8.180   4.051  0.2569  0.1644  0.1981
33925SOL    HW2 5274  10.591   8.152   4.190 -0.4787 -0.2464 -0.1570
33926SOL     OW 5275  10.471   1.749   1.123  0.0987 -0.3602  0.1598
33926SOL    HW1 5276  10.405   1.734   1.055 -0.1908 -0.0152  0.3572
33926SOL    HW2 5277  10.498   1.662   1.151  0.7176 -0.5078 -0.8748
33927SOL     OW 5278  10.808   8.951   7.753 -0.0392  0.1666 -0.1609
33927SOL    HW1 5279  10.782   9.032   7.709 -1.0724  1.0722  2.0178
33927SOL    HW2 5280  10.744   8.886   7.724 -1.2129  0.9526  0.6263
33928SOL     OW 5281   9.367   4.394   0.747  0.0184  0.5436 -0.2268
33928SOL    HW1 5282   9.357   4.489   0.744  0.1541  0.6331  1.1627
33928SOL    HW2 5283   9.459   4.378   0.729 -0.2538  0.5591 -1.7579
33929SOL     OW 5284  10.538   2.128  10.540 -0.7097 -0.0499  0.5022
33929SOL    HW1 5285  10.623   2.164  10.514 -1.7222  1.3309 -1.1115
33929SOL    HW2 5286  10.519   2.168  10.624  0.0196 -0.0201  0.6592
33930SOL     OW 5287   9.398   1.029   4.323  0.5587 -0.0461  0.0690
33930SOL    HW1 5288   9.310   1.066   4.316  0.8300  0.8342  1.1224
33930SOL    HW2 5289   9.408   0.977   4.243 -0.0676  1.6536 -1.1752
33931SOL     OW 5290  10.852   1.060   6.539  0.0592  0.1992 -0.1818
33931SOL    HW1 5291  10.836   1.062   6.633 -0.8371  0.9915 -0.3241
33931SOL    HW2 5292  10.770   1.027   6.502  0.2058  0.4100 -0.7024
33932SOL     OW 5293   3.762   0.864   4.866 -0.2831 -0.2932  0.1447
33932SOL    HW1 5294   3.750   0.870   4.961 -0.3066 -1.8961  0.2753
33932SOL    HW2 5295   3.686   0.815   4.836  0.0626 -0.3793 -0.6072
33933SOL     OW 5296   3.920   7.288   4.732 -0.0797 -0.7874 -0.0257
33933SOL    HW1 5297   3.839   7.321   4.692  0.8468  0.9681 -0.5622
33933SOL    HW2 5298   3.935   7.346   4.806  0.8281 -0.9296 -0.0869
33934SOL     OW 5299   6.442   9.469   3.207 -0.1642 -0.2771 -0.1835
33934SOL    HW1 5300   6.392   9.387   3.206 -1.2162  0.3150  1.3857
33934SOL    HW2 5301   6.377   9.537   3.187  0.4889  0.2974 -0.3874
33935SOL     OW 5302   6.772   1.583   6.373  0.3532 -0.8822  0.1727
33935SOL    HW1 5303   6.714   1.641   6.423  0.1956 -0.6799 -0.2439
33935SOL    HW2 5304   6.778   1.503   6.426 -1.4600 -1.4840 -0.4500
33936SOL     OW 5305   3.327   4.439   2.177  0.1240  0.1583  0.1701
33936SOL    HW1 5306   3.265   4.389   2.230 -0.2176  0.0416 -0.3390
33936SOL    HW2 5307   3.327   4.526   2.218 -1.7554  0.7096 -0.8894
33937SOL     OW 5308   0.887   9.811   0.596 -0.0496 -0.0445 -0.0398
33937SOL    HW1 5309   0.847   9.729   0.567 -0.3761  0.1397 -0.1210
33937SOL    HW2 5310   0.975   9.787   0.623 -0.0151 -0.3597 -0.4229
33938SOL     OW 5311   2.325   6.971   2.549  0.5093 -0.2289  0.7243
33938SOL    HW1 5312   2.384   7.020   2.606  0.1137  1.4212 -0.2201
33938SOL    HW2 5313   2.254   6.942   2.606 -0.0792  1.7243  1.0510
33939SOL     OW 5314   3.885   6.464   0.105 -0.3318  0.4115 -0.2599
33939SOL    HW1 5315   3.879   6.371   0.129 -0.8540  0.6302  0.4623
33939SOL    HW2 5316   3.796   6.487   0.078 -0.0824  0.5683 -0.9598
33940SOL     OW 5317   1.848  10.656   3.317 -0.7844  0.2130  0.2783
33940SOL    HW1 5318   1.876  10.688   3.403  0.6598  0.4285 -0.2423
33940SOL    HW2 5319   1.835  10.562   3.329 -1.4399  0.3802  0.9286
33941SOL     OW 5320   9.338   3.681   2.767  0.2655 -0.6274  0.2678
33941SOL    HW1 5321   9.414   3.694   2.823 -0.1491 -1.1753  0.9685
33941SOL    HW2 5322   9.375   3.668   2.679  1.1454 -3.0732  0.9287
33942SOL     OW 5323  10.700   8.562   7.435 -0.5291  0.2083  0.4147
33942SOL    HW1 5324  10.735   8.626   7.373 -1.2259  0.5258  0.3346
33942SOL    HW2 5325  10.690   8.481   7.385  0.9859 -0.1659  0.6847
33943SOL     OW 5326   2.801   8.067   3.994 -0.6672 -0.0609  0.1778
33943SOL    HW1 5327   2.807   7.974   4.017  0.8079  0.0356  0.2401
33943SOL    HW2 5328   2.742   8.069   3.919  0.0652 -1.1707 -0.4515
33944SOL     OW 5329   5.096   8.535   1.130 -0.1335 -0.3737 -0.1480
33944SOL    HW1 5330   5.027   8.560   1.191  0.7020  1.1900  0.2236
33944SOL    HW2 5331   5.137   8.618   1.105  0.2330 -1.0658 -2.0304
33945SOL     OW 5332   2.720   0.821   8.995 -0.0739 -0.3461 -0.0241
33945SOL    HW1 5333   2.702   0.892   8.933 -1.0528 -1.6755 -1.3212
33945SOL    HW2 5334   2.731   0.866   9.080 -1.9268  1.2644 -0.5548
33946SOL     OW 5335   5.844   9.406   1.304  0.2363  0.3456  0.4005
33946SOL    HW1 5336   5.819   9.431   1.215  0.8437 -0.7721 -0.1044
33946SOL    HW2 5337   5.923   9.457   1.322  0.6434 -0.1034 -0.0697
33947SOL     OW 5338   0.846   7.434   4.933  0.6213 -0.2849 -0.3547
33947SOL    HW1 5339   0.836   7.340   4.919 -0.0087 -0.2607 -0.0975
33947SOL    HW2 5340   0.872   7.442   5.025 -0.8339 -0.1288  0.0606
33948SOL     OW 5341   7.974   1.326   3.800  0.1597  0.2713 -0.2498
33948SOL    HW1 5342   8.000   1.418   3.810  0.9479  0.0935 -0.6028
33948SOL    HW2 5343   7.922   1.307   3.879  2.6459  0.1328  1.4700
33949SOL     OW 5344   6.373   0.224  10.000 -0.4397 -0.1282 -0.0904
33949SOL    HW1 5345   6.400   0.143  10.042 -0.5681 -0.0627  0.1215
33949SOL    HW2 5346   6.372   0.289  10.071 -0.7996 -0.0495 -0.1615
33950SOL     OW 5347   9.645   1.412   4.669  0.6001 -0.7878  0.1967
33950SOL    HW1 5348   9.663   1.464   4.747 -0.5296  0.0036 -0.0377
33950SOL    HW2 5349   9.555   1.435   4.645  0.8171 -1.2459 -1.1589
33951SOL     OW 5350   7.921   8.372   5.219 -0.0767  0.0526 -0.0888
33951SOL    HW1 5351   7.932   8.407   5.130 -0.5819  1.6225  0.4216
33951SOL    HW2 5352   7.866   8.295   5.208 -0.7677  0.6669 -1.0783
33952SOL     OW 5353   2.771   6.905   9.844  0.8017 -0.0386 -0.5056
33952SOL    HW1 5354   2.681   6.902   9.877  0.3946  1.2085 -1.4276
33952SOL    HW2 5355   2.798   6.997   9.856  2.6452 -0.7573  1.4930
33953SOL     OW 5356   6.971  10.784   6.371 -0.0107  0.3714 -0.1683
33953SOL    HW1 5357   7.048  10.826   6.410 -0.4734 -0.2935  1.5445
33953SOL    HW2 5358   7.004  10.743   6.291  1.6615 -0.7408  1.0320
33954SOL     OW 5359   0.952   5.585   4.380 -0.0520  0.0727  0.4178
33954SOL    HW1 5360   0.971   5.569   4.473  0.9397  1.1102  0.4164
33954SOL    HW2 5361   0.927   5.677   4.377  2.7299  0.9074 -0.7044
33955SOL     OW 5362   5.329   4.071   3.140 -0.2028  0.4351  1.1321
33955SOL    HW1 5363   5.265   4.002   3.119 -0.7496  1.3483 -0.3305
33955SOL    HW2 5364   5.373   4.088   3.057 -0.0337  1.7988  1.4842
33956SOL     OW 5365   4.801   3.438   3.337 -1.0249 -0.7050  0.0105
33956SOL    HW1 5366   4.895   3.438   3.353 -1.1798  2.4888  1.8249
33956SOL    HW2 5367   4.791   3.485   3.254 -1.0359 -0.2274  0.2784
33957SOL     OW 5368   0.574   7.175   0.344  0.0735  0.6558 -1.0948
33957SOL    HW1 5369   0.523   7.207   0.419  0.6252 -0.1982 -0.3284
33957SOL    HW2 5370   0.579   7.080   0.358  1.0926  0.6155 -1.6483
33958SOL     OW 5371   6.558  10.378   9.009 -0.3917 -0.3179 -0.6508
33958SOL    HW1 5372   6.587  10.357   8.920 -0.0844 -2.9236 -0.0393
33958SOL    HW2 5373   6.513  10.298   9.038  0.8211 -0.1192  2.0477
33959SOL     OW 5374   3.696   9.561   2.827 -0.4232 -0.4866 -0.5497
33959SOL    HW1 5375   3.700   9.522   2.915 -0.2761 -0.5287 -0.5742
33959SOL    HW2 5376   3.786   9.553   2.794  0.6295  3.2530  0.8917
33960SOL     OW 5377   7.513   4.340  10.662  0.0186 -0.3867 -0.2911
33960SOL    HW1 5378   7.573   4.354  10.589  1.8879  0.0221  1.2468
33960SOL    HW2 5379   7.489   4.428  10.690  2.2105 -0.3550  1.7995
33961SOL     OW 5380   2.074   4.067   9.938  0.1065 -0.3970  0.0894
33961SOL    HW1 5381   2.150   4.126   9.939  0.4350 -0.8159  0.4867
33961SOL    HW2 5382   2.007   4.113   9.989 -0.0627  0.1743 -0.6395
33962SOL     OW 5383   1.826   7.961   9.949  0.1059  0.2257 -0.1411
33962SOL    HW1 5384   1.887   7.891   9.927  1.4009  0.8239  1.3408
33962SOL    HW2 5385   1.879   8.041   9.949 -0.6098  0.7482  1.2841
33963SOL     OW 5386   2.701   8.022   2.041 -0.0999 -0.2010 -0.0511
33963SOL    HW1 5387   2.795   8.039   2.041  0.1147 -1.0397  2.3363
33963SOL    HW2 5388   2.690   7.951   1.978  0.9520 -0.4371  0.0075
33964SOL     OW 5389   3.674  10.459   1.234 -0.2171  0.0078  0.5093
33964SOL    HW1 5390   3.742  10.396   1.210 -0.2903 -0.3071  1.0909
33964SOL    HW2 5391   3.614  10.409   1.289 -1.3188  0.0931 -0.5783
33965SOL     OW 5392   4.674   4.653   9.447  0.0144  0.0284 -0.3590
33965SOL    HW1 5393   4.736   4.714   9.487 -0.6380 -0.0537  0.8364
33965SOL    HW2 5394   4.660   4.586   9.514 -0.0420 -0.8935 -1.2715
33966SOL     OW 5395   8.351   3.928   9.822 -0.1840  0.0070  0.1162
33966SOL    HW1 5396   8.442   3.944   9.801 -0.1213 -1.6093 -0.9624
33966SOL    HW2 5397   8.353   3.887   9.909  0.0900  0.1081  0.1569
33967SOL     OW 5398   1.074   1.960   1.805  0.3836 -0.1910  0.2490
33967SOL    HW1 5399   1.010   1.893   1.832 -0.3542  0.5864  0.4687
33967SOL    HW2 5400   1.081   2.017   1.881  1.2007 -0.1546  0.1487
33968SOL     OW 5401   3.105   0.090   6.233  0.2853  0.2988  0.1672
33968SOL    HW1 5402   3.079   0.052   6.317  0.0174  0.3405  0.1047
33968SOL    HW2 5403   3.023   0.097   6.184  0.6167 -0.8581 -0.5672
33969SOL     OW 5404   2.724   1.562   9.027 -0.8734 -0.3560  0.0175
33969SOL    HW1 5405   2.673   1.641   9.009  2.3791  2.2481  1.2499
33969SOL    HW2 5406   2.739   1.564   9.121  1.5742 -0.8752 -0.3112
33970SOL     OW 5407   7.883  10.445   6.206  0.4161  0.5247  0.2282
33970SOL    HW1 5408   7.921  10.358   6.203 -1.3300 -0.2898  0.5005
33970SOL    HW2 5409   7.945  10.500   6.158  1.3484 -0.9353 -0.3055
33971SOL     OW 5410   0.171   6.400   2.520  0.4277  0.2106 -0.2865
33971SOL    HW1 5411   0.207   6.314   2.496 -1.0691 -1.4770  2.8005
33971SOL    HW2 5412   0.076   6.388   2.513  0.0840  0.7827  2.3016
33972SOL     OW 5413   8.117   1.788   4.709  0.3541  0.1137 -0.4977
33972SOL    HW1 5414   8.078   1.853   4.650  0.0564 -1.3138 -1.9499
33972SOL    HW2 5415   8.211   1.802   4.701  0.3004  0.2276 -0.9436
33973SOL     OW 5416   6.241   4.308  10.005 -0.4652  0.0567  0.2934
33973SOL    HW1 5417   6.254   4.384  10.062  0.6270 -1.2604  1.9284
33973SOL    HW2 5418   6.147   4.293  10.006 -0.5911  0.8029  0.7445
33974SOL     OW 5419   2.119   7.167   0.184 -0.3551  0.2511 -0.4202
33974SOL    HW1 5420   2.162   7.186   0.267 -1.2887 -0.3787  0.2368
33974SOL    HW2 5421   2.189   7.169   0.119  0.3975  0.7202  0.3886
33975SOL     OW 5422   4.493   2.501   5.020 -0.3913  0.3728  0.0228
33975SOL    HW1 5423   4.564   2.540   4.969 -0.4357  0.0290 -0.3114
33975SOL    HW2 5424   4.515   2.408   5.024 -1.3270  0.0883 -0.9572
33976SOL     OW 5425   3.303   2.039   8.342 -0.1830 -0.2834  0.2494
33976SOL    HW1 5426   3.357   2.024   8.265 -0.6268  0.8774 -0.3178
33976SOL    HW2 5427   3.364   2.033   8.416  0.3503 -0.8533 -0.2336
33977SOL     OW 5428   7.140   5.871   6.989 -0.1394  0.5313  0.4083
33977SOL    HW1 5429   7.175   5.917   6.913  0.0642 -2.4028 -1.4014
33977SOL    HW2 5430   7.210   5.812   7.016 -1.2802 -0.5958  1.0025
33978SOL     OW 5431   8.364   5.786   1.777 -0.5394 -0.3338  0.2851
33978SOL    HW1 5432   8.302   5.840   1.727 -1.2691 -0.4434  1.0522
33978SOL    HW2 5433   8.448   5.797   1.731 -1.3984 -1.3024 -1.6244
33979SOL     OW 5434   6.561   2.601   1.270 -0.4970 -0.4951 -0.2778
33979SOL    HW1 5435   6.471   2.578   1.246 -0.3719 -1.1259 -0.1531
33979SOL    HW2 5436   6.614   2.565   1.199 -0.3249 -0.2961 -0.2500
33980SOL     OW 5437   2.807   7.513  10.443  0.2067 -0.6024  0.1173
33980SOL    HW1 5438   2.797   7.418  10.434 -1.7821 -0.3130 -1.5253
33980SOL    HW2 5439   2.814   7.527  10.537  1.3267 -2.4116  0.3536
33981SOL     OW 5440   1.428   5.130   5.177 -0.0782  0.2439  0.2021
33981SOL    HW1 5441   1.354   5.070   5.172  0.5046 -0.4419 -0.5272
33981SOL    HW2 5442   1.405   5.191   5.247 -2.8156  2.1444 -2.1652
33982SOL     OW 5443   4.035  10.728   0.576  0.1478 -0.7964 -0.3222
33982SOL    HW1 5444   4.100  10.726   0.646 -1.4136 -2.7468  1.1892
33982SOL    HW2 5445   4.061  10.659   0.516  1.3023  0.6622 -1.5733
33983SOL     OW 5446   7.101   0.618   7.897  0.3231  0.8180 -0.3649
33983SOL    HW1 5447   7.105   0.714   7.894  0.8999  0.8705  0.9911
33983SOL    HW2 5448   7.155   0.595   7.973 -0.8372 -0.5137  0.1016
33984SOL     OW 5449  10.106   0.168   2.855  0.2930 -0.0384 -0.1113
33984SOL    HW1 5450  10.142   0.251   2.821 -0.8668 -0.5210 -2.8134
33984SOL    HW2 5451  10.019   0.191   2.885  0.3757 -0.0842  0.1635
33985SOL     OW 5452   6.190   5.109   5.242 -0.4724  0.4336 -0.0515
33985SOL    HW1 5453   6.208   5.143   5.330 -1.2308  0.1435  0.2201
33985SOL    HW2 5454   6.225   5.177   5.184  1.2683  0.0107  0.4398
33986SOL     OW 5455   7.841   8.591   7.969  0.1764 -0.0518 -0.2715
33986SOL    HW1 5456   7.802   8.624   8.050 -0.7135  1.4342 -1.2479
33986SOL    HW2 5457   7.836   8.496   7.977 -1.8366  0.0646  0.5349
33987SOL     OW 5458  10.066   3.083   8.607 -0.3289  0.1172 -0.5688
33987SOL    HW1 5459   9.979   3.060   8.639 -0.6223 -0.1568 -1.5419
33987SOL    HW2 5460  10.073   3.041   8.522  0.7199  0.2254 -0.5542
33988SOL     OW 5461   4.764   8.723   6.597  0.0420 -0.1541  0.7679
33988SOL    HW1 5462   4.745   8.817   6.597  1.7086  0.2177  1.9501
33988SOL    HW2 5463   4.827   8.712   6.526 -1.2569 -0.6794 -0.3641
33989SOL     OW 5464   7.325  10.863   9.970  0.3805 -0.4152 -0.5793
33989SOL    HW1 5465   7.247  10.814   9.942  0.1767 -1.5296  1.6772
33989SOL    HW2 5466   7.312  10.876  10.064  1.6984  1.7375 -0.6350
33990SOL     OW 5467   9.891   2.925   6.389  0.1421  0.4904  0.0621
33990SOL    HW1 5468   9.940   2.847   6.415 -0.3803  0.3128  0.5365
33990SOL    HW2 5469   9.866   2.908   6.298 -0.6380 -0.2594  0.3948
33991SOL     OW 5470   0.276   6.724   5.565  0.1706 -0.0311 -0.0874
33991SOL    HW1 5471   0.196   6.671   5.559 -0.3212  0.6711  0.2448
33991SOL    HW2 5472   0.300   6.721   5.657  0.5004 -0.1872 -0.1760
33992SOL     OW 5473   8.910   8.496   8.521  0.1641 -0.0027 -0.0968
33992SOL    HW1 5474   9.004   8.498   8.506  0.1478 -1.5168 -0.5428
33992SOL    HW2 5475   8.887   8.587   8.541  1.9407  0.1582  1.5180
33993SOL     OW 5476   4.302  10.995   2.274  0.1267 -0.0589 -0.2990
33993SOL    HW1 5477   4.373  10.939   2.242  0.4528  0.3929 -0.3820
33993SOL    HW2 5478   4.299  11.067   2.210  1.9996  1.8537  1.5805
33994SOL     OW 5479   7.575   7.588   0.816  0.4089 -0.8634  0.2856
33994SOL    HW1 5480   7.650   7.535   0.791  2.6468  1.7264  1.0229
33994SOL    HW2 5481   7.611   7.654   0.876 -2.1836  1.3824 -0.4300
33995SOL     OW 5482   4.780   4.297   7.716  0.1506 -0.0859 -0.2635
33995SOL    HW1 5483   4.813   4.236   7.649  0.6976  1.0519 -1.0714
33995SOL    HW2 5484   4.769   4.379   7.669 -2.8519 -0.0955  0.2194
33996SOL     OW 5485   9.864   9.189   4.390  0.3242 -0.3472  0.3394
33996SOL    HW1 5486   9.935   9.252   4.403  0.5470 -0.6902  0.8538
33996SOL    HW2 5487   9.847   9.191   4.296  0.8197 -0.0476  0.2497
33997SOL     OW 5488   5.563   0.353   4.952 -0.0436  0.1077  0.1610
33997SOL    HW1 5489   5.581   0.419   4.885  0.8832 -0.1498  0.1395
33997SOL    HW2 5490   5.633   0.364   5.016 -1.1090  0.5812  1.2889
33998SOL     OW 5491   5.100   6.045  10.570  0.5870  0.3711  0.6451
33998SOL    HW1 5492   5.107   5.954  10.542 -0.7194  0.4337  0.0535
33998SOL    HW2 5493   5.090   6.095  10.489  0.8793  0.9930  0.9853
33999SOL     OW 5494   5.646   3.227   8.341  0.0383 -0.3990  0.0035
33999SOL    HW1 5495   5.706   3.296   8.312  1.4675 -1.7731 -0.4244
33999SOL    HW2 5496   5.651   3.161   8.272 -2.0757 -0.5206 -0.0810
34000SOL     OW 5497   8.006   3.785   2.394  0.1507 -0.7104 -0.0626
34000SOL    HW1 5498   7.910   3.788   2.399  0.1040  0.2966 -1.1807
34000SOL    HW2 5499   8.024   3.700   2.353 -0.2692 -0.8377  0.0024
34001SOL     OW 5500   9.777   4.240   2.181  0.5674  0.4788  0.2391
34001SOL    HW1 5501   9.856   4.286   2.210  1.6544 -2.4762  2.4297
34001SOL    HW2 5502   9.752   4.185   2.255 -1.6172 -1.1898 -1.5827
34002SOL     OW 5503   5.787   4.787   6.716 -0.3360  0.1843 -0.3444
34002SOL    HW1 5504   5.858   4.850   6.702 -0.1098  0.6097  2.2300
34002SOL    HW2 5505   5.818   4.732   6.787 -2.1433 -0.3605  0.0733
34003SOL     OW 5506   8.003   5.198   3.992  0.4706  0.2092 -0.1212
34003SOL    HW1 5507   7.989   5.242   4.076 -0.6577 -0.6797  0.1963
34003SOL    HW2 5508   8.097   5.202   3.978  0.7402  0.0159  1.4079
34004SOL     OW 5509   6.762  10.396   0.394  0.3810  0.2715 -0.0335
34004SOL    HW1 5510   6.778  10.304   0.372  0.2831  0.0892  0.6326
34004SOL    HW2 5511   6.730  10.394   0.484  0.2246  0.9483 -0.0671
34005SOL     OW 5512   6.352   5.387   2.898  0.4815  0.0450 -0.9980
34005SOL    HW1 5513   6.340   5.293   2.890 -2.3300  0.3574 -1.5098
34005SOL    HW2 5514   6.341   5.405   2.992  0.1283 -0.0383 -1.0239
34006SOL     OW 5515   8.116  10.813   4.983 -0.7696 -0.1109 -0.1065
34006SOL    HW1 5516   8.119  10.730   5.030 -0.9349  0.9697  1.9293
34006SOL    HW2 5517   8.026  10.819   4.951 -1.1637 -0.1007  0.9648
34007SOL     OW 5518   4.170   9.874   4.619 -0.1596  0.1690 -0.1996
34007SOL    HW1 5519   4.215   9.789   4.626  1.8310  1.1350 -0.5345
34007SOL    HW2 5520   4.084   9.853   4.582  0.6486 -1.6027 -1.2050
34008SOL     OW 5521   5.343   8.256   9.959 -0.3269  0.2501  0.1227
34008SOL    HW1 5522   5.314   8.320   9.894 -0.2787  2.2864  1.9581
34008SOL    HW2 5523   5.262   8.215   9.989 -0.5441  0.5994  0.0330
34009SOL     OW 5524   9.195   1.434  10.850  0.0301 -0.1714 -0.2409
34009SOL    HW1 5525   9.247   1.514  10.856  0.9390 -0.5021 -2.5096
34009SOL    HW2 5526   9.107   1.460  10.876  0.5538  1.2949  0.1340
34010SOL     OW 5527   3.119   4.909   0.020  0.1380 -0.0733 -0.2733
34010SOL    HW1 5528   3.054   4.971   0.053  1.1921  1.3445 -0.7341
34010SOL    HW2 5529   3.074   4.824   0.021 -0.4041  0.1086  3.1991
34011SOL     OW 5530   8.880   3.380  10.045  0.9621  0.3872 -0.4954
34011SOL    HW1 5531   8.877   3.285  10.040  0.2126  0.3615  0.1777
34011SOL    HW2 5532   8.969   3.403  10.018  1.1559 -0.5011 -0.6396
34012SOL     OW 5533   3.752   4.126  10.201  0.6309 -0.1753  0.0493
34012SOL    HW1 5534   3.703   4.045  10.187  1.2712 -0.4277 -0.8040
34012SOL    HW2 5535   3.829   4.100  10.251 -0.0793  0.2220  1.3934
34013SOL     OW 5536   7.508   4.020   7.008  0.2431 -0.7346 -0.3994
34013SOL    HW1 5537   7.584   4.064   7.046 -1.8617  0.6165  2.7025
34013SOL    HW2 5538   7.464   4.089   6.957  0.3861 -1.1191 -1.0441
34014SOL     OW 5539   3.895   1.291  10.407  0.3540 -0.3964 -0.6742
34014SOL    HW1 5540   3.890   1.216  10.467  0.9576  0.1009  0.0119
34014SOL    HW2 5541   3.968   1.343  10.439 -1.6644  1.9253  0.5411
34015SOL     OW 5542   4.784   6.875   5.880  0.0101  0.3900  0.0212
34015SOL    HW1 5543   4.711   6.919   5.835 -0.3678 -1.2901 -1.0918
34015SOL    HW2 5544   4.780   6.909   5.970 -1.1118  1.5519 -0.4286
34016SOL     OW 5545   7.845   5.834   5.579 -0.0825  0.0473 -0.1630
34016SOL    HW1 5546   7.880   5.868   5.496  1.4082  0.0315  0.4317
34016SOL    HW2 5547   7.804   5.751   5.555  0.4016  0.0023 -0.8829
34017SOL     OW 5548   6.759   5.555  10.019 -0.5875  0.1136  0.0881
34017SOL    HW1 5549   6.826   5.509   9.967 -0.6076 -0.2904  0.4077
34017SOL    HW2 5550   6.801   5.636  10.046  0.5452 -1.0282  2.0105
34018SOL     OW 5551   0.350   6.863  10.886  0.0413 -0.0150  0.0321
34018SOL    HW1 5552   0.403   6.858  10.965  0.1195 -0.2543 -0.0324
34018SOL    HW2 5553   0.280   6.925  10.907 -0.2569 -0.4906  0.4795
34019SOL     OW 5554   8.728   8.166   3.291 -0.1980 -0.7529 -0.3547
34019SOL    HW1 5555   8.765   8.237   3.239 -0.5495 -0.3018 -0.0080
34019SOL    HW2 5556   8.664   8.210   3.348  0.4864 -1.1703  0.7523
34020SOL     OW 5557   2.614   6.105   4.793  0.1724  0.6481 -0.9728
34020SOL    HW1 5558   2.575   6.048   4.727 -1.5736 -2.5440  2.4606
34020SOL    HW2 5559   2.543   6.163   4.820  0.1218  0.2246 -0.1775
34021SOL     OW 5560   7.570   7.059   7.882  0.9079  0.0191 -0.5403
34021SOL    HW1 5561   7.478   7.079   7.870  0.8872  1.0188  0.9289
34021SOL    HW2 5562   7.576   6.964   7.870 -0.2720 -0.0345 -0.8331
34022SOL     OW 5563   2.111   8.050   7.720  0.3710 -0.8734  0.1503
34022SOL    HW1 5564   2.205   8.040   7.704  0.6815 -1.2564  1.9530
34022SOL    HW2 5565   2.075   7.963   7.703  0.3963 -0.8161 -0.2021
34023SOL     OW 5566   7.400   2.622   5.510 -0.4034  0.1988  0.6626
34023SOL    HW1 5567   7.483   2.622   5.558 -0.7753  0.3153  1.3252
34023SOL    HW2 5568   7.398   2.705   5.464  0.4722 -0.3945 -0.4824
34024SOL     OW 5569   1.868   9.823   4.491 -0.1219  0.1371 -0.3843
34024SOL    HW1 5570   1.906   9.891   4.435  1.6619  0.4483  1.0914
34024SOL    HW2 5571   1.863   9.863   4.578  1.2245 -1.6440  0.5876
34025SOL     OW 5572   0.316   0.142   0.568 -0.6771  0.0073 -0.3021
34025SOL    HW1 5573   0.337   0.104   0.653 -0.5486  0.3551 -0.1739
34025SOL    HW2 5574   0.391   0.197   0.547 -0.4969 -0.4442 -0.8656
34026SOL     OW 5575   5.799   4.541  10.378  0.1328 -0.7441 -0.3115
34026SOL    HW1 5576   5.892   4.535  10.356  0.1040  0.5284 -0.8417
34026SOL    HW2 5577   5.796   4.581  10.464  0.1192 -2.6752  0.6408
34027SOL     OW 5578   3.790   3.935   3.612 -0.1756 -0.0548  0.0595
34027SOL    HW1 5579   3.699   3.906   3.616 -0.0532 -0.5346 -0.4742
34027SOL    HW2 5580   3.787   4.028   3.636 -0.9513  0.2275 -1.0556
34028SOL     OW 5581   8.749   6.587   9.119 -0.4293 -0.0784  0.6302
34028SOL    HW1 5582   8.722   6.678   9.112 -1.6046 -0.5151 -1.4990
34028SOL    HW2 5583   8.692   6.550   9.187 -0.6421  0.5378  0.7889
34029SOL     OW 5584   9.601   7.289   9.614  0.1518  0.2201  0.5841
34029SOL    HW1 5585   9.506   7.302   9.620  0.1630  0.4081  0.3365
34029SOL    HW2 5586   9.639   7.376   9.626  0.2525  0.3090 -0.2772
34030SOL     OW 5587   8.231   7.270   3.544  0.3154 -0.0054  0.2703
34030SOL    HW1 5588   8.308   7.261   3.489 -1.3528  1.5134 -2.5754
34030SOL    HW2 5589   8.265   7.277   3.633  3.2908 -1.0639 -0.6722
34031SOL     OW 5590   7.959  10.494   7.572 -0.1845 -0.1373  0.4552
34031SOL    HW1 5591   7.945  10.432   7.644  0.2230 -0.2090  0.4741
34031SOL    HW2 5592   7.972  10.578   7.615  1.0264 -0.3392  0.5264
34032SOL     OW 5593   6.144   2.366  10.686 -0.2359  0.1920 -0.4176
34032SOL    HW1 5594   6.049   2.357  10.689 -0.2997  0.5528 -1.2081
34032SOL    HW2 5595   6.169   2.330  10.601  0.3180  0.2390 -0.2750
34033SOL     OW 5596   2.949   9.435   0.770 -0.3746 -0.0321  0.4402
34033SOL    HW1 5597   2.896   9.429   0.690 -0.2794  0.0227  0.3732
34033SOL    HW2 5598   2.941   9.349   0.810  0.9315 -0.6116 -0.4738
34034SOL     OW 5599   3.064   4.660  10.466  0.3979 -0.1346  0.8408
34034SOL    HW1 5600   3.127   4.613  10.412  0.9834  0.9650  0.5330
34034SOL    HW2 5601   3.086   4.752  10.453 -1.4138  0.3004  0.5415
34035SOL     OW 5602   8.385  10.726   5.917  0.3318 -0.6872  0.0174
34035SOL    HW1 5603   8.365  10.634   5.901  0.9964 -1.6025  3.5781
34035SOL    HW2 5604   8.302  10.764   5.945  0.4078 -0.6554  0.2042
34036SOL     OW 5605   6.489   0.597   1.126 -0.3656  0.0765 -0.1884
34036SOL    HW1 5606   6.432   0.630   1.195  1.7721  4.3083 -0.1618
34036SOL    HW2 5607   6.574   0.586   1.169  0.3004 -0.2053 -1.5347
34037SOL     OW 5608   6.837   9.789   4.867  0.1556  1.1146 -0.0989
34037SOL    HW1 5609   6.842   9.706   4.914 -0.3746  1.6512  0.9576
34037SOL    HW2 5610   6.880   9.773   4.783 -1.5779 -0.7829 -0.7144
34038SOL     OW 5611   7.961   9.947   2.696  0.0915 -0.0530  0.0496
34038SOL    HW1 5612   7.982  10.038   2.718  0.6766 -0.0441 -0.5118
34038SOL    HW2 5613   7.892   9.923   2.757 -0.3163  0.8846 -0.0235
34039SOL     OW 5614   0.855   5.666   0.741  0.3365  0.3332  0.4458
34039SOL    HW1 5615   0.905   5.589   0.718  2.3180  1.5330  0.5171
34039SOL    HW2 5616   0.867   5.726   0.667 -1.7091  0.3676  0.0820
34040SOL     OW 5617  10.753   5.533   9.446  0.5702 -0.4151  0.2132
34040SOL    HW1 5618  10.746   5.627   9.461 -0.2159  0.0257 -2.3273
34040SOL    HW2 5619  10.847   5.516   9.437  0.6813  0.2198  0.1741
34041SOL     OW 5620  10.469   2.817   5.748  0.4032 -0.6184  0.4167
34041SOL    HW1 5621  10.483   2.745   5.810  0.9179 -0.3314  0.6382
34041SOL    HW2 5622  10.441   2.773   5.668 -3.1765 -0.8408  1.6240
34042SOL     OW 5623   7.331   4.554   8.327 -0.2729 -0.3421  0.0513
34042SOL    HW1 5624   7.241   4.560   8.357  0.0932  0.4407  1.0511
34042SOL    HW2 5625   7.341   4.462   8.300 -1.2286 -0.5447  0.3502
34043SOL     OW 5626   7.128   3.863   7.106  0.0303 -0.5488  0.2890
34043SOL    HW1 5627   7.187   3.788   7.116  1.2055  0.2093 -0.8626
34043SOL    HW2 5628   7.171   3.934   7.153 -0.1888 -0.1028 -0.1842
34044SOL     OW 5629   3.393   4.250  10.950  0.0430 -0.1150  0.0319
34044SOL    HW1 5630   3.437   4.180  10.997  1.1980  1.5026  1.4784
34044SOL    HW2 5631   3.376   4.214  10.863  2.2574 -1.5384  0.1290
34045SOL     OW 5632   1.397   5.110   9.969 -0.3272 -0.5425  0.0952
34045SOL    HW1 5633   1.385   5.186  10.026 -0.4159  0.1126 -0.7961
34045SOL    HW2 5634   1.342   5.042  10.009 -0.0694 -0.2200  1.0240
34046SOL     OW 5635   9.899   0.103  10.343  0.2032 -0.1629  0.3607
34046SOL    HW1 5636   9.928   0.047  10.414 -1.0333  0.2716  1.2287
34046SOL    HW2 5637   9.920   0.192  10.371 -1.0457  0.0850  0.5917
34047SOL     OW 5638   7.684  10.228   6.207 -0.0309  0.3067  0.0310
34047SOL    HW1 5639   7.765  10.199   6.250 -0.4833 -2.3557 -0.7372
34047SOL    HW2 5640   7.712  10.301   6.151  1.7510 -0.2374  0.1445
34048SOL     OW 5641   2.406   7.904   2.808  0.2357 -0.3317 -0.0572
34048SOL    HW1 5642   2.389   7.920   2.901  1.2672 -0.5387  0.1787
34048SOL    HW2 5643   2.473   7.968   2.785  0.2932 -0.5689 -0.5472
34049SOL     OW 5644   4.593   5.161   6.809  0.6015  0.6445 -0.2785
34049SOL    HW1 5645   4.669   5.127   6.761  0.4788  1.1895 -0.8740
34049SOL    HW2 5646   4.627   5.181   6.896  0.6683 -1.0423  0.1273
34050SOL     OW 5647   6.236   2.354   8.349  0.0041 -0.3129  0.0312
34050SOL    HW1 5648   6.228   2.342   8.254 -0.1218 -0.6719  0.0842
34050SOL    HW2 5649   6.214   2.268   8.386  0.7158 -0.3631  0.3545
34051SOL     OW 5650   9.404   4.633   7.834 -0.3668 -0.2633 -0.5853
34051SOL    HW1 5651   9.436   4.546   7.812 -1.7787 -0.5979 -1.3911
34051SOL    HW2 5652   9.480   4.677   7.873  1.0962 -0.9808 -2.4944
34052SOL     OW 5653   4.198   4.624   1.230  0.5442 -0.1254  0.6687
34052SOL    HW1 5654   4.239   4.623   1.316  1.1594 -1.2241  0.3758
34052SOL    HW2 5655   4.269   4.649   1.170  0.1102  0.6779  0.4655
34053SOL     OW 5656   8.687   7.788   9.838 -0.0355  0.3681  0.0171
34053SOL    HW1 5657   8.718   7.698   9.853  0.9709  0.5266 -1.0039
34053SOL    HW2 5658   8.767   7.840   9.834 -0.6389  1.5591  1.8976
34054SOL     OW 5659  10.997   3.499   2.317 -0.0176  0.1967 -0.1498
34054SOL    HW1 5660  10.917   3.465   2.358  1.1118 -0.6116  1.4970
34054SOL    HW2 5661  11.046   3.421   2.290  3.0451  0.0794  4.5180
34055SOL     OW 5662   6.204   3.305   0.495 -0.5572  0.5619  0.2944
34055SOL    HW1 5663   6.213   3.246   0.420  1.5839 -1.5318  2.0326
34055SOL    HW2 5664   6.110   3.305   0.514 -1.2276  1.4716 -2.5095
34056SOL     OW 5665   8.712   2.996   6.956  0.0987 -0.1311 -0.7336
34056SOL    HW1 5666   8.655   2.943   7.013  0.5252  1.2073  1.0229
34056SOL    HW2 5667   8.795   3.002   7.004  1.2215 -0.7271 -2.5203
34057SOL     OW 5668   5.665   7.895   6.301  0.1491 -0.1226  0.5690
34057SOL    HW1 5669   5.630   7.928   6.219  0.0775  1.1792  1.1087
34057SOL    HW2 5670   5.685   7.803   6.283  1.2864  0.4325 -1.2719
34058SOL     OW 5671   3.147   7.054   1.324  0.7266 -0.5884  0.2465
34058SOL    HW1 5672   3.123   6.993   1.394  1.3701 -0.5480  0.5091
34058SOL    HW2 5673   3.068   7.061   1.270  0.4481 -1.1647  0.5701
34059SOL     OW 5674   9.553   9.182  10.424  0.1300  0.3689  0.2066
34059SOL    HW1 5675   9.529   9.211  10.512  2.8266 -1.6608  1.7711
34059SOL    HW2 5676   9.527   9.090  10.421  0.8540  0.1716 -0.7861
34060SOL     OW 5677   4.578   2.134   8.347  0.2550  0.1452  0.4415
34060SOL    HW1 5678   4.507   2.189   8.379  1.1822  0.9270  1.1983
34060SOL    HW2 5679   4.646   2.141   8.413  1.1875 -0.3040 -0.4439
34061SOL     OW 5680   0.058   2.378   5.936 -0.0824  0.5640  0.1790
34061SOL    HW1 5681   0.081   2.319   5.864 -0.4764  0.0577  0.4634
34061SOL    HW2 5682  -0.033   2.357   5.956  0.1649  0.3660  1.1354
34062SOL     OW 5683   9.311   7.942  10.599 -0.4145 -0.3167 -0.1148
34062SOL    HW1 5684   9.327   7.901  10.683  2.5725  1.2109  0.2013
34062SOL    HW2 5685   9.279   8.030  10.621  0.0058 -0.0448 -0.5689
34063SOL     OW 5686   1.131   5.830   2.156 -0.7130  0.2020 -0.4356
34063SOL    HW1 5687   1.082   5.912   2.161 -1.7651 -0.4464  0.2673
34063SOL    HW2 5688   1.214   5.849   2.200 -0.7630  1.0024 -0.6702
34064SOL     OW 5689   9.807   3.470   1.051 -0.0901  0.1058  0.1646
34064SOL    HW1 5690   9.770   3.537   0.993  0.0336 -1.1157 -1.4197
34064SOL    HW2 5691   9.901   3.484   1.047 -0.1038  0.2329  0.3244
34065SOL     OW 5692   7.015   0.070  10.480 -0.1631  0.3226 -0.0595
34065SOL    HW1 5693   7.066   0.088  10.559 -2.0782  0.0171  1.3187
34065SOL    HW2 5694   6.999   0.156  10.442  0.6009  0.4918 -0.0215
34066SOL     OW 5695   5.059   4.832   7.419 -0.4646  0.2241  0.1424
34066SOL    HW1 5696   5.011   4.750   7.405  0.6554 -0.9599  2.5869
34066SOL    HW2 5697   5.038   4.886   7.343  0.5145 -3.1324 -2.7708
34067SOL     OW 5698   1.600   8.339   8.041  0.2367  0.2422  0.2101
34067SOL    HW1 5699   1.550   8.274   8.091  1.6135 -2.1023 -1.3181
34067SOL    HW2 5700   1.668   8.368   8.102 -0.2859  0.1680  0.8483
34068SOL     OW 5701   9.546   5.798   7.270 -0.3150 -0.1951 -0.4391
34068SOL    HW1 5702   9.477   5.829   7.210 -0.8124  0.0931  0.2654
34068SOL    HW2 5703   9.549   5.864   7.339 -0.1164 -0.7843  0.1277
34069SOL     OW 5704   9.826   8.275   1.322  0.1044 -0.5280 -0.0972
34069SOL    HW1 5705   9.888   8.332   1.277 -1.6777  1.7365  0.0769
34069SOL    HW2 5706   9.876   8.235   1.392  2.1484 -1.5728 -2.0255
34070SOL     OW 5707   4.042   2.948   6.976  0.1093 -0.4015  0.3572
34070SOL    HW1 5708   3.955   2.928   6.941 -0.4738 -0.1124  1.5722
34070SOL    HW2 5709   4.025   2.979   7.065  1.3952  0.5026  0.3179
34071SOL     OW 5710   9.683   1.964   3.986 -0.2055 -0.0488  0.0029
34071SOL    HW1 5711   9.593   1.943   3.963  0.1414 -0.7946 -0.6979
34071SOL    HW2 5712   9.701   1.913   4.065 -0.0861 -0.6726 -0.4212
34072SOL     OW 5713   4.961   7.189   3.754  0.3800 -0.5447 -0.0318
34072SOL    HW1 5714   4.869   7.203   3.731  0.8255  0.2233 -1.5020
34072SOL    HW2 5715   4.975   7.243   3.832  0.4834  2.4721 -1.9725
34073SOL     OW 5716   2.515   5.865   0.818 -0.6525  0.3978  0.2335
34073SOL    HW1 5717   2.563   5.833   0.895 -0.7862  0.4650  0.3458
34073SOL    HW2 5718   2.460   5.791   0.792 -1.9500  0.9443  1.2915
34074SOL     OW 5719   6.894   8.392   5.725 -0.5265  0.2165 -0.4859
34074SOL    HW1 5720   6.988   8.407   5.717 -0.3550  0.0286  0.9486
34074SOL    HW2 5721   6.881   8.366   5.816 -1.7905 -1.0959 -0.9981
34075SOL     OW 5722   8.243   3.364   8.499  0.3618  0.4643  0.1386
34075SOL    HW1 5723   8.301   3.387   8.426 -0.8435  2.3520 -0.3052
34075SOL    HW2 5724   8.170   3.317   8.458  1.5308 -2.0223  0.7110
34076SOL     OW 5725   9.427   9.317   4.633 -0.0526 -0.0535 -0.2547
34076SOL    HW1 5726   9.349   9.314   4.689  0.2346  2.5314  0.3868
34076SOL    HW2 5727   9.466   9.230   4.643 -1.9255 -0.8392  0.7524
34077SOL     OW 5728   9.489   4.159   2.547 -0.2619 -0.2259 -0.2003
34077SOL    HW1 5729   9.463   4.218   2.477  1.0564 -0.1998 -0.6915
34077SOL    HW2 5730   9.441   4.190   2.624 -1.4577 -0.0423 -0.9969
34078SOL     OW 5731  10.634   2.769   9.616 -0.4061  0.4061  0.3274
34078SOL    HW1 5732  10.633   2.702   9.684 -0.8270  0.9554  0.8694
34078SOL    HW2 5733  10.546   2.805   9.616 -0.0854  1.2020  0.2798
34079SOL     OW 5734   2.817   5.594   6.926  0.7538 -0.0670  0.0603
34079SOL    HW1 5735   2.830   5.686   6.950  0.2634  0.2266 -0.7471
34079SOL    HW2 5736   2.723   5.579   6.941  0.8045 -0.3927  0.0491
34080SOL     OW 5737   4.742   2.988   2.137 -0.3847  0.1057 -0.4659
34080SOL    HW1 5738   4.834   3.013   2.144 -0.7547  1.3644  0.2364
34080SOL    HW2 5739   4.709   3.040   2.063 -0.2078 -1.4436 -1.6812
34081SOL     OW 5740  10.876  10.673   3.896  0.2240  0.1195 -0.2644
34081SOL    HW1 5741  10.865  10.767   3.879 -1.6226  0.1078  0.6395
34081SOL    HW2 5742  10.850  10.631   3.814 -0.8411  0.3431 -0.0499
34082SOL     OW 5743   4.320   4.029   4.902 -0.0093  0.5293 -0.0974
34082SOL    HW1 5744   4.382   3.979   4.848 -0.4092 -0.4863  0.3557
34082SOL    HW2 5745   4.310   4.112   4.856 -1.0273 -0.6120 -2.1174
34083SOL     OW 5746   6.213   0.553   9.146  0.5679 -0.0539  0.1508
34083SOL    HW1 5747   6.276   0.559   9.217  1.6832  0.3426 -0.8426
34083SOL    HW2 5748   6.217   0.639   9.102 -2.1760  0.7669  1.2703
34084SOL     OW 5749   8.063   2.086   3.135 -0.2210  0.2136 -0.0727
34084SOL    HW1 5750   8.019   2.148   3.193 -0.8287  0.0715 -0.3700
34084SOL    HW2 5751   7.995   2.023   3.112  0.2821 -0.3191 -0.1159
34085SOL     OW 5752   0.767   6.601   4.961  0.0935  0.7801  0.0788
34085SOL    HW1 5753   0.759   6.555   4.877 -1.5952  0.7272  0.2257
34085SOL    HW2 5754   0.817   6.680   4.941 -0.5126  0.8967 -1.0424
34086SOL     OW 5755   0.090   0.960   0.793  0.6858  0.6147  0.2899
34086SOL    HW1 5756   0.135   1.030   0.839  0.9636  1.2962 -0.9629
34086SOL    HW2 5757   0.041   1.004   0.724  0.2256 -0.3606 -0.0271
34087SOL     OW 5758   0.538   1.793   2.988 -0.3844  0.3159  0.1834
34087SOL    HW1 5759   0.607   1.740   2.950  1.4143 -0.9278  4.5998
34087SOL    HW2 5760   0.474   1.730   3.021 -0.8904  1.1641  0.8800
34088SOL     OW 5761   0.428   7.226   9.205 -0.1805 -0.2297 -0.3811
34088SOL    HW1 5762   0.480   7.255   9.280 -0.2155  0.7771 -0.7424
34088SOL    HW2 5763   0.353   7.181   9.244  0.0256 -0.1024  0.1719
34089SOL     OW 5764  10.126   8.725  10.419 -0.1799  0.4281  0.2564
34089SOL    HW1 5765  10.097   8.797  10.474 -2.2116  1.0475 -1.4857
34089SOL    HW2 5766  10.218   8.744  10.401 -0.5491  2.3434  0.2298
34090SOL     OW 5767   2.102   6.830   9.785 -0.0553  0.7077 -0.0367
34090SOL    HW1 5768   2.182   6.813   9.737 -0.4799  0.1729 -0.5737
34090SOL    HW2 5769   2.036   6.777   9.741 -0.3350 -0.3101  1.5460
34091SOL     OW 5770   0.553   8.383  10.727 -0.1612 -0.0855  0.4720
34091SOL    HW1 5771   0.555   8.477  10.742  0.5884 -0.1193  0.6254
34091SOL    HW2 5772   0.552   8.345  10.815 -1.4642 -0.2140  0.4167
34092SOL     OW 5773   7.661   7.503  10.402  0.8464  0.4068  0.5593
34092SOL    HW1 5774   7.714   7.470  10.329 -0.4316 -0.6486  0.0542
34092SOL    HW2 5775   7.579   7.531  10.361  0.5381  0.8681  1.4651
34093SOL     OW 5776   7.577   5.165   2.073  0.3334  0.0267  0.2317
34093SOL    HW1 5777   7.544   5.079   2.099  0.5212 -0.3445 -0.7168
34093SOL    HW2 5778   7.669   5.150   2.051  0.8694  0.8276  1.7596
34094SOL     OW 5779  10.497   9.234  10.057  0.7271 -0.9280  0.3850
34094SOL    HW1 5780  10.549   9.309  10.085  0.1410 -0.7557  1.0383
34094SOL    HW2 5781  10.549   9.158  10.082  1.5404 -0.7539 -0.6979
34095SOL     OW 5782   2.780   8.779  10.495  0.1854  0.4258 -0.0255
34095SOL    HW1 5783   2.716   8.710  10.511  3.0856 -2.0555  2.2841
34095SOL    HW2 5784   2.754   8.851  10.551 -1.3182  0.0535 -0.2199
34096SOL     OW 5785   4.256   6.421   7.387 -0.1221 -0.3785 -0.1159
34096SOL    HW1 5786   4.270   6.337   7.343  0.1884 -0.5103  0.2328
34096SOL    HW2 5787   4.339   6.467   7.378 -0.8823  0.7144 -2.0363
34097SOL     OW 5788   9.870   5.736   7.811  0.4047  0.4610 -0.1411
34097SOL    HW1 5789   9.937   5.699   7.753  0.5061  0.5640 -0.0916
34097SOL    HW2 5790   9.836   5.811   7.762  0.3011  0.3880 -0.1803
34098SOL     OW 5791   3.723   3.873  10.556  0.0940  0.8284 -0.2994
34098SOL    HW1 5792   3.680   3.840  10.635  1.3557  0.6751  0.3347
34098SOL    HW2 5793   3.688   3.818  10.486  1.2387 -1.1102  0.5643
34099SOL     OW 5794   8.461   4.742   4.655  0.3397 -1.0391  0.4067
34099SOL    HW1 5795   8.447   4.807   4.586  1.0758 -2.3460 -1.0157
34099SOL    HW2 5796   8.488   4.795   4.731 -0.0837  0.3953 -0.3979
34100SOL     OW 5797   9.940   1.920   3.160 -0.0547 -0.1494 -0.4273
34100SOL    HW1 5798   9.965   1.830   3.140  1.2969  0.3310 -0.9679
34100SOL    HW2 5799  10.022   1.964   3.180 -0.6993  0.9714 -0.1787
34101SOL     OW 5800   0.160   8.042   3.056 -0.0387  0.7001 -0.1300
34101SOL    HW1 5801   0.203   7.959   3.034 -2.3499 -0.1949 -1.6378
34101SOL    HW2 5802   0.116   8.025   3.139 -0.7566  0.2921 -0.5851
34102SOL     OW 5803   1.257   3.799   0.476 -0.6412 -0.0157 -0.1375
34102SOL    HW1 5804   1.311   3.853   0.417  0.1286 -1.0307 -0.4048
34102SOL    HW2 5805   1.179   3.851   0.492 -0.4511  0.6740 -1.3337
34103SOL     OW 5806   9.078   7.326   4.793 -0.0882 -0.2575  0.2679
34103SOL    HW1 5807   9.013   7.370   4.739 -0.6099  1.5946  2.2525
34103SOL    HW2 5808   9.155   7.318   4.736 -1.2705 -0.3719 -1.3826
34104SOL     OW 5809   8.079   0.461   8.945  0.2772 -0.3264 -0.4037
34104SOL    HW1 5810   8.069   0.368   8.924 -1.0011 -0.2223 -0.3557
34104SOL    HW2 5811   8.156   0.465   9.001  0.2485 -1.3863 -0.2703
34105SOL     OW 5812   0.590   8.318   2.856  0.4017 -0.1311 -0.7117
34105SOL    HW1 5813   0.496   8.300   2.863  0.7997 -2.1374  0.1527
34105SOL    HW2 5814   0.603   8.397   2.907 -0.2534 -2.1622  2.9717
34106SOL     OW 5815   1.028   0.231   0.889 -0.4113 -0.5299  0.1023
34106SOL    HW1 5816   1.023   0.210   0.982  1.2876  0.4122  0.4368
34106SOL    HW2 5817   0.951   0.286   0.873 -0.3961 -0.1886  1.0958
34107SOL     OW 5818   5.179   0.502   5.154 -0.0861 -0.3622 -0.0711
34107SOL    HW1 5819   5.131   0.421   5.136 -0.0062 -0.4471  0.0893
34107SOL    HW2 5820   5.217   0.487   5.241 -1.3353  0.4469  0.6372
34108SOL     OW 5821   6.034   9.224   6.303 -0.0098  0.2407  0.5789
34108SOL    HW1 5822   5.997   9.184   6.381 -1.4865  0.2982 -0.0659
34108SOL    HW2 5823   5.984   9.188   6.231  1.1793  0.3563 -0.3477
34109SOL     OW 5824   0.302  11.005   9.231  0.2272  0.1961  0.4793
34109SOL    HW1 5825   0.378  10.960   9.266 -0.2898 -0.3543  0.9292
34109SOL    HW2 5826   0.317  11.098   9.251  1.4151  0.2775 -0.6864
34110SOL     OW 5827   7.148   1.282   1.247 -0.0724  0.5479 -0.2833
34110SOL    HW1 5828   7.234   1.309   1.213  0.9748 -1.3849  0.6928
34110SOL    HW2 5829   7.155   1.188   1.259 -1.2422  0.7380  2.8069
34111SOL     OW 5830   0.865   9.770   2.009 -0.2658  0.2698  0.3172
34111SOL    HW1 5831   0.831   9.809   2.089 -1.1162  0.2635 -0.0292
34111SOL    HW2 5832   0.798   9.708   1.982  0.8313 -1.0567  0.5683
34112SOL     OW 5833  10.653   7.835   5.768  0.2554  0.4121 -0.4539
34112SOL    HW1 5834  10.687   7.791   5.846  0.7003 -0.0726 -0.9124
34112SOL    HW2 5835  10.726   7.888   5.736  0.2141  0.2762 -0.7810
34113SOL     OW 5836   1.132   4.154   3.120  0.8657 -0.9366 -0.6042
34113SOL    HW1 5837   1.225   4.175   3.133  0.6464 -0.4795  0.2900
34113SOL    HW2 5838   1.122   4.068   3.160  0.9303 -1.0376 -0.8056
34114SOL     OW 5839   7.242   5.616   0.926 -0.0374  0.3506  0.0606
34114SOL    HW1 5840   7.310   5.600   0.992  0.3748  0.5801 -0.3032
34114SOL    HW2 5841   7.271   5.694   0.880  0.5197 -0.6909 -1.4401
34115SOL     OW 5842   6.219   9.355   6.754 -0.7231 -0.0797 -0.3625
34115SOL    HW1 5843   6.164   9.322   6.683 -1.5500  0.0236  0.2175
34115SOL    HW2 5844   6.221   9.449   6.740 -1.2418 -0.0120 -0.0090
34116SOL     OW 5845   8.379   2.199   9.444 -0.0629 -0.0751 -0.1232
34116SOL    HW1 5846   8.364   2.199   9.538 -0.5818  1.2495 -0.1893
34116SOL    HW2 5847   8.401   2.289   9.423 -0.5990 -0.2194 -1.3749
34117SOL     OW 5848   2.455   5.045   6.113  0.0886 -0.4936  0.2855
34117SOL    HW1 5849   2.502   5.127   6.099  1.9681 -1.6976 -0.7581
34117SOL    HW2 5850   2.496   5.008   6.191  1.7667 -2.0856 -1.2663
34118SOL     OW 5851   6.225   3.741   3.147  0.4069  0.6180  0.1428
34118SOL    HW1 5852   6.181   3.805   3.091  1.9840  0.4947 -1.3163
34118SOL    HW2 5853   6.313   3.733   3.111  0.6804 -1.4107  1.0771
34119SOL     OW 5854  10.251   6.660   6.430  0.2701 -0.2836 -0.4074
34119SOL    HW1 5855  10.205   6.686   6.509  0.2504  0.4624 -0.6545
34119SOL    HW2 5856  10.190   6.682   6.359  0.0936 -1.3822 -0.6011
34120SOL     OW 5857   1.233   1.017   2.575  0.5960 -0.4968 -0.3890
34120SOL    HW1 5858   1.184   1.099   2.571  0.9902 -0.2481 -0.2459
34120SOL    HW2 5859   1.170   0.950   2.549 -0.0862 -0.2990  0.6817
34121SOL     OW 5860   2.508   6.365   0.708  0.2180 -0.0277 -0.5859
34121SOL    HW1 5861   2.419   6.358   0.745 -0.7525  0.6920 -2.6552
34121SOL    HW2 5862   2.552   6.428   0.764 -0.6335 -0.2174  0.3419
34122SOL     OW 5863   3.600   4.597   1.029  0.1172  0.0596 -0.1674
34122SOL    HW1 5864   3.600   4.690   1.007 -0.8693  0.0240 -0.3508
34122SOL    HW2 5865   3.671   4.588   1.093 -1.2975  1.3897  1.6988
34123SOL     OW 5866   2.409   2.941   8.103 -0.5941 -0.5552  0.0689
34123SOL    HW1 5867   2.478   3.005   8.122 -2.6674  1.1394  2.5121
34123SOL    HW2 5868   2.346   2.988   8.049 -1.2199 -1.1733  0.2508
34124SOL     OW 5869  10.497   6.614   2.665 -0.1372 -0.0351  0.2591
34124SOL    HW1 5870  10.440   6.616   2.742  0.2840  1.1560  0.5694
34124SOL    HW2 5871  10.577   6.657   2.694  0.6091 -0.9617 -0.4149
34125SOL     OW 5872   6.709  10.424   4.195 -0.1448  0.0302  0.1896
34125SOL    HW1 5873   6.647  10.427   4.122 -0.9816  1.1221  0.9230
34125SOL    HW2 5874   6.748  10.337   4.188 -1.3796 -0.4986 -0.6007
34126SOL     OW 5875   6.322   6.002  10.631 -0.7806  0.2399 -0.2497
34126SOL    HW1 5876   6.374   5.979  10.554 -2.7313 -0.7923 -1.3111
34126SOL    HW2 5877   6.253   6.059  10.597 -1.2770  0.3185  0.8520
34127SOL     OW 5878   5.533   9.404   7.368  0.2647  0.2538  0.9258
34127SOL    HW1 5879   5.595   9.442   7.430  0.4805 -0.5565  1.2146
34127SOL    HW2 5880   5.534   9.464   7.293  0.7836  0.6813  1.2696
34128SOL     OW 5881   1.653   2.568   3.011 -0.1728 -0.3693  0.6172
34128SOL    HW1 5882   1.594   2.641   2.995 -0.4149  0.1971  3.4927
34128SOL    HW2 5883   1.711   2.598   3.081  1.5057 -2.0163  0.0325
34129SOL     OW 5884   0.711   4.776   2.139 -0.3542  1.0935  0.2020
34129SOL    HW1 5885   0.702   4.869   2.121  2.4707  1.5776  0.8313
34129SOL    HW2 5886   0.800   4.754   2.109 -0.4869 -1.1017  1.2086
34130SOL     OW 5887   8.700   6.128  10.816 -0.1826  0.1451 -0.0503
34130SOL    HW1 5888   8.772   6.095  10.763  0.2832 -1.2493  1.3876
34130SOL    HW2 5889   8.645   6.051  10.833 -0.3968  0.5720  1.3324
34131SOL     OW 5890   3.544   0.934   2.045  0.4994  0.1475 -0.2369
34131SOL    HW1 5891   3.514   0.915   1.956  0.3091 -1.1198  0.0789
34131SOL    HW2 5892   3.494   1.012   2.071  0.8306  0.7489 -1.3620
34132SOL     OW 5893   3.097   4.781   5.174  0.1893 -0.4286 -0.4006
34132SOL    HW1 5894   3.002   4.786   5.170  0.1470  0.7819  0.9755
34132SOL    HW2 5895   3.117   4.688   5.172 -0.9664 -0.6781 -1.3710
34133SOL     OW 5896   9.954   3.127   7.552  0.1610  0.5677 -0.1435
34133SOL    HW1 5897   9.984   3.202   7.501 -0.3218  1.4509  0.8403
34133SOL    HW2 5898   9.939   3.162   7.640  2.4933 -1.2250  1.0840
34134SOL     OW 5899   3.937   7.837   1.311 -0.5005  0.1765  0.3528
34134SOL    HW1 5900   3.964   7.846   1.220 -1.0013 -0.4607  0.1299
34134SOL    HW2 5901   3.961   7.748   1.335  0.3445  0.5877  1.1028
34135SOL     OW 5902   3.816   8.640   6.710 -0.2996 -0.6294 -0.2281
34135SOL    HW1 5903   3.728   8.658   6.679 -0.7110 -0.2344  1.0909
34135SOL    HW2 5904   3.827   8.546   6.700 -0.3240 -0.4995 -1.7102
34136SOL     OW 5905   4.640   2.851   9.677  0.7166  0.2371 -0.2014
34136SOL    HW1 5906   4.700   2.870   9.605 -0.6388 -0.0713 -1.4635
34136SOL    HW2 5907   4.637   2.756   9.683 -0.5538  0.1937 -1.0036
34137SOL     OW 5908   1.965   9.221   8.723 -0.1983  0.4287  0.1301
34137SOL    HW1 5909   2.052   9.259   8.731 -0.2114  0.8033 -1.2315
34137SOL    HW2 5910   1.975   9.131   8.756  1.0249  0.0593 -1.1406
34138SOL     OW 5911   8.490   9.747   1.357 -0.5362  0.1456  0.0496
34138SOL    HW1 5912   8.584   9.729   1.354 -0.8007 -1.2035 -1.0417
34138SOL    HW2 5913   8.449   9.662   1.371 -1.6168  0.6838  0.2996
34139SOL     OW 5914   1.137   2.879   2.839  0.3256 -0.4431  0.6245
34139SOL    HW1 5915   1.116   2.835   2.922 -2.4151  0.1185  0.3266
34139SOL    HW2 5916   1.224   2.916   2.853 -0.0963 -0.2498  3.3210
34140SOL     OW 5917  10.040  10.920   1.040  0.3297  0.0600 -0.1742
34140SOL    HW1 5918  10.132  10.941   1.024  0.6938 -1.4020 -0.1349
34140SOL    HW2 5919  10.043  10.838   1.090 -1.0083 -0.2853 -0.6259
34141SOL     OW 5920   3.780  10.503   3.462  0.3053  0.4210  0.1372
34141SOL    HW1 5921   3.721  10.569   3.497  0.5218 -0.4660  2.3046
34141SOL    HW2 5922   3.814  10.457   3.538  0.6170 -1.8240 -1.2433
34142SOL     OW 5923   1.383   3.583   0.603 -0.3314  0.1491 -0.3884
34142SOL    HW1 5924   1.338   3.619   0.527 -1.2317  0.5310  0.3104
34142SOL    HW2 5925   1.325   3.601   0.677  0.5872 -0.0930  0.4203
34143SOL     OW 5926   9.242  10.452   2.601 -0.2784  0.3097 -0.1346
34143SOL    HW1 5927   9.176  10.508   2.561 -0.6680  0.6190  0.9057
34143SOL    HW2 5928   9.221  10.364   2.570 -1.2934  0.3778  0.3165
34144SOL     OW 5929   1.636   8.251   3.202  0.5150 -0.1870 -0.4276
34144SOL    HW1 5930   1.632   8.306   3.280 -0.0542  1.7036 -1.7027
34144SOL    HW2 5931   1.725   8.262   3.170  0.5206 -0.3239 -0.4568
34145SOL     OW 5932   4.341   4.762   4.647  0.1391  0.6444  0.3711
34145SOL    HW1 5933   4.325   4.668   4.637  2.2310  0.4129 -1.4547
34145SOL    HW2 5934   4.257   4.803   4.630 -0.5516 -0.8424  0.0900
34146SOL     OW 5935   5.745   2.239   4.024 -0.2656 -0.4014  0.3942
34146SOL    HW1 5936   5.834   2.217   3.995 -0.3863  0.2866 -0.5722
34146SOL    HW2 5937   5.727   2.323   3.980 -1.3359 -0.4665  0.7004
34147SOL     OW 5938   8.141   8.665   6.354  0.5988  0.1083  0.1746
34147SOL    HW1 5939   8.106   8.685   6.267 -0.8290  2.2722  1.1384
34147SOL    HW2 5940   8.112   8.576   6.372  0.4770 -0.1867 -1.3517
34148SOL     OW 5941   3.406   8.558   0.781  0.5508 -0.2080 -0.3551
34148SOL    HW1 5942   3.467   8.487   0.763  0.9712  0.4682 -1.7231
34148SOL    HW2 5943   3.323   8.528   0.742 -0.0587 -1.1348  1.5173
34149SOL     OW 5944   4.223   2.036   3.928  0.1097  0.4178 -0.1373
34149SOL    HW1 5945   4.316   2.057   3.916 -0.3695  1.5174 -2.6123
34149SOL    HW2 5946   4.222   1.940   3.933  1.2601  0.1625 -2.6616
34150SOL     OW 5947   3.528   2.609   7.114 -0.2803  0.2421 -0.2328
34150SOL    HW1 5948   3.618   2.622   7.085  0.0270  0.8719  0.9355
34150SOL    HW2 5949   3.474   2.645   7.044  0.4202  1.5657 -0.1122
34151SOL     OW 5950   8.296   0.816  10.698  0.0835 -0.7569 -0.1991
34151SOL    HW1 5951   8.384   0.821  10.735 -0.5026  0.1077  1.1544
34151SOL    HW2 5952   8.284   0.899  10.653 -0.1338 -0.7683 -0.1629
34152SOL     OW 5953   2.265   9.092   4.899 -0.0461 -0.4952 -0.4683
34152SOL    HW1 5954   2.300   9.178   4.923  0.3253 -0.3029 -1.6410
34152SOL    HW2 5955   2.191   9.112   4.841 -2.8664 -0.8342  2.6678
34153SOL     OW 5956   8.621   7.775   8.017  0.3119 -0.5021  0.0118
34153SOL    HW1 5957   8.602   7.867   8.001 -0.3682 -0.4777  0.8408
34153SOL    HW2 5958   8.668   7.774   8.101 -0.1843 -0.9347  0.2993
34154SOL     OW 5959   6.198   8.136   0.810 -0.1970 -0.3143  0.8198
34154SOL    HW1 5960   6.121   8.096   0.771 -1.1532  0.6115  1.7008
34154SOL    HW2 5961   6.179   8.138   0.904  1.3326 -0.9848  1.1724
34155SOL     OW 5962   2.172   5.147   3.588  0.3330 -0.1615  0.1888
34155SOL    HW1 5963   2.083   5.152   3.624  0.6441 -0.2037  0.9801
34155SOL    HW2 5964   2.176   5.061   3.546 -0.4905  0.4519 -1.2077
34156SOL     OW 5965   1.773   1.180   0.080  0.4227 -0.9587 -0.1114
34156SOL    HW1 5966   1.819   1.259   0.106  0.6407 -0.9479 -0.5193
34156SOL    HW2 5967   1.682   1.195   0.107  0.4282 -0.4962 -0.3424
34157SOL     OW 5968  10.691   3.115   7.953 -0.3306  0.1940 -0.2879
34157SOL    HW1 5969  10.620   3.103   7.889 -0.3184 -2.2394  0.0719
34157SOL    HW2 5970  10.646   3.116   8.038 -0.0488 -0.0405 -0.1356
34158SOL     OW 5971   7.771   1.151   2.479 -0.0603  0.3955  0.4099
34158SOL    HW1 5972   7.714   1.225   2.502 -1.3641 -0.1043 -0.9996
34158SOL    HW2 5973   7.713   1.091   2.433  0.8038 -1.8503  2.0785
34159SOL     OW 5974   2.508   0.660   4.792  0.0764 -0.2986  0.0057
34159SOL    HW1 5975   2.480   0.592   4.854  0.8963 -0.4426  0.2424
34159SOL    HW2 5976   2.566   0.614   4.731  2.5499  0.5595  1.5476
34160SOL     OW 5977   2.716   6.797   7.250 -0.5204 -0.5424  0.6568
34160SOL    HW1 5978   2.787   6.750   7.295  0.1169 -1.2055 -0.9627
34160SOL    HW2 5979   2.734   6.889   7.267  0.2931 -0.7378  0.8988
34161SOL     OW 5980  10.567   6.707   5.008 -0.1695 -0.1029  0.2113
34161SOL    HW1 5981  10.515   6.639   4.965 -2.1930  0.8259  1.0834
34161SOL    HW2 5982  10.508   6.746   5.072  1.7533  0.7536  1.5464
34162SOL     OW 5983   2.673   1.178   4.959  0.1362 -1.0537 -0.1214
34162SOL    HW1 5984   2.663   1.149   5.049 -0.4493 -0.8362 -0.1153
34162SOL    HW2 5985   2.584   1.193   4.928  0.2893 -1.7373 -0.9429
34163SOL     OW 5986  10.828   0.338   9.294 -0.6874 -0.5742 -0.4646
34163SOL    HW1 5987  10.873   0.311   9.214 -0.9567 -0.6323 -0.5972
34163SOL    HW2 5988  10.811   0.431   9.282 -0.5733 -0.5438 -0.3986
34164SOL     OW 5989  10.556   5.226  10.890  0.1757  0.2811 -0.1009
34164SOL    HW1 5990  10.505   5.249  10.812 -0.4689 -2.3487 -0.5599
34164SOL    HW2 5991  10.623   5.294  10.896 -0.5749  1.2957 -2.1774
34165SOL     OW 5992   5.811   9.951   0.975  0.5507  0.9199  0.4413
34165SOL    HW1 5993   5.832   9.906   1.057 -0.5224  1.0070  0.7841
34165SOL    HW2 5994   5.760   9.887   0.925  1.1429  0.8885 -0.1466
34166SOL     OW 5995   6.424   0.194   2.082  0.0834  0.5434 -0.0844
34166SOL    HW1 5996   6.335   0.225   2.067 -0.1236  0.4324  0.8532
34166SOL    HW2 5997   6.414   0.100   2.101  0.2613  0.7529  1.1432
34167SOL     OW 5998   2.141   7.937   3.624 -0.0434 -0.4482 -0.1475
34167SOL    HW1 5999   2.070   7.993   3.594  0.6411  0.5068 -0.0342
34167SOL    HW2 6000   2.201   7.997   3.670  1.1085 -1.1297 -0.7210
34168SOL     OW 6001   4.340   8.152   0.345 -0.0318 -0.4686 -0.0450
34168SOL    HW1 6002   4.253   8.159   0.305  0.5845  0.5869 -1.2864
34168SOL    HW2 6003   4.326   8.177   0.436 -1.1999 -1.3535  0.0417
34169SOL     OW 6004   2.649  10.487   4.765 -0.6349 -0.2176  0.5769
34169SOL    HW1 6005   2.726  10.521   4.810 -0.3835 -1.4468  1.1233
34169SOL    HW2 6006   2.587  10.469   4.835 -1.2812  0.4020  0.1713
34170SOL     OW 6007   4.658   5.250   4.484  0.2678  0.2151  0.5423
34170SOL    HW1 6008   4.724   5.247   4.415  0.4784  0.3908  0.7358
34170SOL    HW2 6009   4.577   5.224   4.440  0.5243 -0.3382  0.3783
34171SOL     OW 6010   4.878   6.382   0.476  0.2712 -0.0441 -0.0108
34171SOL    HW1 6011   4.788   6.388   0.508 -0.8303 -1.0564 -2.5631
34171SOL    HW2 6012   4.871   6.327   0.398  3.6779 -3.2703  1.6716
34172SOL     OW 6013  10.589   7.322  10.339  0.0832 -0.0279  0.2274
34172SOL    HW1 6014  10.552   7.380  10.273  1.4033  1.0254  0.3658
34172SOL    HW2 6015  10.617   7.381  10.409  0.5612 -0.9335  0.8197
34173SOL     OW 6016   0.981  10.575   3.584 -0.0016  0.2607  0.1234
34173SOL    HW1 6017   1.064  10.556   3.540  1.2337  3.0164  1.0774
34173SOL    HW2 6018   0.930  10.624   3.520 -0.5388 -0.6145 -0.1344
34174SOL     OW 6019   0.776   8.211   1.508  0.4384  0.0857 -0.4279
34174SOL    HW1 6020   0.795   8.234   1.599  0.5554 -3.0066  0.4482
34174SOL    HW2 6021   0.697   8.261   1.487 -0.6478 -0.4461  2.0279
34175SOL     OW 6022  10.128   7.196   2.129  0.2023 -0.6585  0.4074
34175SOL    HW1 6023  10.052   7.140   2.111  0.5978 -1.0624 -0.0479
34175SOL    HW2 6024  10.122   7.267   2.065  0.4761 -0.9645  0.0365
34176SOL     OW 6025   7.774   2.172   5.055  0.0470 -0.2774 -0.0980
34176SOL    HW1 6026   7.789   2.261   5.086  0.7666 -0.8388  1.2094
34176SOL    HW2 6027   7.680   2.159   5.063 -0.2550  0.7638 -1.4831
34177SOL     OW 6028   6.998   8.313   9.819 -0.2556 -0.1133  0.1856
34177SOL    HW1 6029   6.930   8.273   9.764  0.1348 -1.8570  0.8975
34177SOL    HW2 6030   7.045   8.372   9.759 -1.8795  0.5348 -0.5018
34178SOL     OW 6031   4.449   6.645   9.712 -0.0871 -0.3267  0.2684
34178SOL    HW1 6032   4.537   6.611   9.730  0.0416  0.3372  1.0023
34178SOL    HW2 6033   4.391   6.571   9.728  0.3194 -0.6895  0.0831
34179SOL     OW 6034   7.685   7.533   0.269  0.4335  0.6106 -0.6182
34179SOL    HW1 6035   7.712   7.569   0.185 -0.0954  0.5415 -0.8220
34179SOL    HW2 6036   7.645   7.607   0.314  1.4692  0.8675 -0.0743
34180SOL     OW 6037   3.977   2.982   2.291 -0.2484 -0.4211 -0.1982
34180SOL    HW1 6038   3.949   3.072   2.276 -0.3104 -0.0520  1.8949
34180SOL    HW2 6039   3.943   2.934   2.215  1.6074  1.6167 -2.4686
34181SOL     OW 6040   7.703   5.929   8.471 -0.2685 -0.1978 -0.0608
34181SOL    HW1 6041   7.761   5.982   8.417 -0.1095 -0.5679 -0.2620
34181SOL    HW2 6042   7.628   5.985   8.489 -0.0778  0.1104 -0.2247
34182SOL     OW 6043   7.624   0.538   9.311 -0.1872  0.4169 -0.4034
34182SOL    HW1 6044   7.637   0.631   9.329  1.7932  0.3087 -1.0854
34182SOL    HW2 6045   7.567   0.536   9.234 -2.0755  0.9871  0.9115
34183SOL     OW 6046  10.879   2.600   5.055  0.3291 -0.5995  0.0343
34183SOL    HW1 6047  10.953   2.539   5.059 -1.1803 -2.4795  0.3052
34183SOL    HW2 6048  10.892   2.648   4.973  2.4256 -0.0758  0.6158
34184SOL     OW 6049   6.597   1.677   6.573 -0.5347  0.0555  0.3184
34184SOL    HW1 6050   6.593   1.739   6.646  1.2074  0.3184  0.2160
34184SOL    HW2 6051   6.573   1.593   6.612  1.0851  0.0536  1.3765
34185SOL     OW 6052   8.754   3.962   4.884 -0.0206  0.2786 -0.0711
34185SOL    HW1 6053   8.801   3.907   4.946 -0.1518  0.3070  0.0528
34185SOL    HW2 6054   8.728   4.039   4.935 -1.2214 -0.2687  0.1533
34186SOL     OW 6055   0.182   2.988   7.960 -0.5502  0.2589 -0.2658
34186SOL    HW1 6056   0.097   2.988   7.916 -0.1495 -1.0463 -1.0971
34186SOL    HW2 6057   0.189   2.901   7.999  0.2241  0.5129  0.1915
34187SOL     OW 6058   8.041   7.370  10.411  0.3948 -0.4918 -0.5087
34187SOL    HW1 6059   8.028   7.432  10.482  1.2180 -0.0277 -0.7436
34187SOL    HW2 6060   8.015   7.416  10.332 -0.3288 -0.9367 -0.5359
34188SOL     OW 6061   5.938   0.712   8.229 -0.0947 -0.1703  0.3021
34188SOL    HW1 6062   5.907   0.758   8.151  1.0555  0.7155  0.3395
34188SOL    HW2 6063   5.990   0.640   8.195  3.0678  1.9934  0.1059
34189SOL     OW 6064   3.643  10.690   3.604  0.3104  0.4774 -0.1470
34189SOL    HW1 6065   3.583  10.655   3.669 -2.6965  1.1983 -2.3196
34189SOL    HW2 6066   3.665  10.778   3.637  2.2471 -0.6348  1.8233
34190SOL     OW 6067   4.073   1.689   1.507  0.1763 -0.5318 -0.5648
34190SOL    HW1 6068   4.123   1.630   1.451 -0.1877  1.6337 -3.3778
34190SOL    HW2 6069   4.117   1.685   1.592  2.7476 -1.6079 -1.8419
34191SOL     OW 6070   0.387  10.245   1.863  0.2146 -0.1523 -0.5542
34191SOL    HW1 6071   0.337  10.326   1.861 -0.5753 -0.5426  1.3816
34191SOL    HW2 6072   0.424  10.237   1.775 -2.8712  0.3108 -2.0121
34192SOL     OW 6073   5.701   1.596   4.665 -0.1794  0.1593 -0.1290
34192SOL    HW1 6074   5.738   1.508   4.672 -0.5473  0.0530  0.5989
34192SOL    HW2 6075   5.640   1.591   4.591 -0.2923 -0.2354 -0.0122
34193SOL     OW 6076   8.113   0.847   2.955 -0.2633 -0.1353 -0.0435
34193SOL    HW1 6077   8.177   0.780   2.981  0.8330  0.6402 -0.6538
34193SOL    HW2 6078   8.097   0.831   2.862 -0.8682 -0.2331  0.0718
34194SOL     OW 6079   9.262   9.325   2.201  0.2709 -0.2446  0.3563
34194SOL    HW1 6080   9.266   9.303   2.108 -0.5914  1.2503 -0.0796
34194SOL    HW2 6081   9.169   9.328   2.220  0.4125  0.5783  0.9676
34195SOL     OW 6082   2.475   0.229   5.517  0.2645 -0.4039  0.1580
34195SOL    HW1 6083   2.482   0.323   5.501 -0.0827 -0.4899 -0.4946
34195SOL    HW2 6084   2.564   0.195   5.502  0.3628 -0.1986  0.2799
34196SOL     OW 6085   6.635   0.814   5.090  0.1846  0.0687 -0.5205
34196SOL    HW1 6086   6.552   0.791   5.048 -1.0069  2.0879  0.5926
34196SOL    HW2 6087   6.684   0.859   5.021 -0.1405 -0.0610 -0.8461
34197SOL     OW 6088   8.867   2.199  10.023  0.6125 -0.2629  0.3125
34197SOL    HW1 6089   8.916   2.180   9.943 -0.4876 -0.0496 -0.4403
34197SOL    HW2 6090   8.786   2.149  10.013  1.0127 -1.3077  1.9294
34198SOL     OW 6091   5.377   1.742   0.163 -0.2235  0.7172  0.1145
34198SOL    HW1 6092   5.335   1.754   0.248  0.5093 -1.6270  0.8684
34198SOL    HW2 6093   5.346   1.816   0.111 -2.9364  0.6781  1.5062
34199SOL     OW 6094   4.729   8.043   7.373 -0.1923 -0.3523  0.0338
34199SOL    HW1 6095   4.644   8.087   7.381 -0.2756 -0.7145  1.5687
34199SOL    HW2 6096   4.745   8.006   7.460  0.7603 -1.7387 -0.6866
34200SOL     OW 6097   5.659   2.952   9.378  0.1444 -0.4632 -0.4801
34200SOL    HW1 6098   5.663   3.009   9.301  0.8855  0.2525  0.0740
34200SOL    HW2 6099   5.592   2.888   9.356 -1.9583  1.6088 -0.4434
34201SOL     OW 6100   9.968   3.808   8.046  0.2470 -0.1016  0.2872
34201SOL    HW1 6101   9.903   3.743   8.021  2.0381 -1.2171 -1.7459
34201SOL    HW2 6102   9.970   3.870   7.973 -0.4693  1.5632  1.5949
34202SOL     OW 6103   2.209   8.382   5.426  0.5373  0.1693 -0.4804
34202SOL    HW1 6104   2.115   8.372   5.410  0.7735 -0.8411 -1.3817
34202SOL    HW2 6105   2.245   8.413   5.343  0.9424  1.0528  0.0090
34203SOL     OW 6106   7.745   6.101  10.814  0.8148 -0.6790  0.1680
34203SOL    HW1 6107   7.715   6.191  10.802  0.7897 -0.9020 -1.7610
34203SOL    HW2 6108   7.691   6.050  10.754  1.6239 -1.8106  0.3813
34204SOL     OW 6109   4.227   3.801   5.447 -0.0656 -0.3682 -0.0013
34204SOL    HW1 6110   4.242   3.871   5.511  0.9876 -0.7204  0.1444
34204SOL    HW2 6111   4.137   3.816   5.416  0.4126  1.5759 -0.6078
34205SOL     OW 6112   3.548   9.513   2.333 -0.6406  0.4675  0.2433
34205SOL    HW1 6113   3.588   9.564   2.404  0.6008 -0.3859  0.2030
34205SOL    HW2 6114   3.550   9.423   2.365 -2.1089  0.3325  0.0117
34206SOL     OW 6115   4.503   2.693  10.379 -0.1563 -0.0231 -0.1249
34206SOL    HW1 6116   4.433   2.701  10.315 -0.5482 -0.2019  0.2732
34206SOL    HW2 6117   4.465   2.640  10.449 -0.0421  0.9415  0.6826
34207SOL     OW 6118   1.361   5.892   4.140 -0.1409  0.3625  0.1218
34207SOL    HW1 6119   1.296   5.861   4.203  0.3141  0.5583  0.7094
34207SOL    HW2 6120   1.336   5.853   4.057 -0.7310  0.0557  0.4386
34208SOL     OW 6121   2.610   9.708   5.651 -0.1429  0.0637  0.0592
34208SOL    HW1 6122   2.701   9.740   5.652 -0.5690  1.3554 -0.5437
34208SOL    HW2 6123   2.557   9.788   5.651 -1.2559 -0.6271 -1.6699
34209SOL     OW 6124   3.515   7.312   1.252 -0.1545  0.1105  0.3151
34209SOL    HW1 6125   3.604   7.338   1.224 -0.7810  0.5269 -1.4269
34209SOL    HW2 6126   3.477   7.393   1.286 -0.3657  0.2784 -0.3188
34210SOL     OW 6127   6.586   1.647   5.565 -0.7917  0.1406 -0.5933
34210SOL    HW1 6128   6.582   1.703   5.487 -1.4387 -0.0492 -0.7054
34210SOL    HW2 6129   6.624   1.703   5.633 -0.7371  0.4819 -0.9011
34211SOL     OW 6130   0.462   0.935   0.159 -0.2721  0.4921  0.2605
34211SOL    HW1 6131   0.454   1.008   0.220 -1.9350 -0.4967  1.3112
34211SOL    HW2 6132   0.506   0.867   0.208  0.0711  0.3258 -0.2708
34212SOL     OW 6133  10.785  10.376  10.252  0.3620 -0.2695 -0.3046
34212SOL    HW1 6134  10.762  10.296  10.300  1.2248 -0.0122  0.5541
34212SOL    HW2 6135  10.704  10.426  10.250  0.0724 -0.7079  0.0550
34213SOL     OW 6136   3.482   8.918   1.006 -0.3145 -0.1957 -1.2481
34213SOL    HW1 6137   3.405   8.875   1.044 -0.5025  0.1877 -1.1935
34213SOL    HW2 6138   3.453   8.945   0.919 -0.7728  1.3949 -0.6429
34214SOL     OW 6139   4.898   0.176   5.692 -0.1053 -0.5353 -0.2569
34214SOL    HW1 6140   4.948   0.101   5.658  0.7472 -0.6101  1.0856
34214SOL    HW2 6141   4.931   0.251   5.642  1.0906 -0.6453  0.3415
34215SOL     OW 6142   8.458   7.891   1.094 -0.4003  0.4673  0.0359
34215SOL    HW1 6143   8.525   7.824   1.109  0.8726  1.9099  1.1951
34215SOL    HW2 6144   8.466   7.914   1.001 -0.1389 -0.2490 -0.1179
34216SOL     OW 6145   0.095  10.634   5.182  0.9122  0.2309  0.3039
34216SOL    HW1 6146   0.094  10.627   5.086  0.1687  0.6751  0.2700
34216SOL    HW2 6147   0.144  10.558   5.211  3.1399  1.2546 -0.5189
34217SOL     OW 6148   8.758   6.438   1.325 -0.1982  0.2887  0.1315
34217SOL    HW1 6149   8.792   6.507   1.382 -0.8591  0.7808 -0.0575
34217SOL    HW2 6150   8.685   6.479   1.278 -1.9238 -1.0837  1.4648
34218SOL     OW 6151   9.720   9.573   7.815  0.0581 -0.0238 -0.0802
34218SOL    HW1 6152   9.645   9.633   7.808  0.4351  0.6137  1.1362
34218SOL    HW2 6153   9.692   9.494   7.769 -2.0989 -0.5099  1.8762
34219SOL     OW 6154   8.230   7.099  10.610 -0.2099  1.0519 -0.7057
34219SOL    HW1 6155   8.146   7.119  10.569 -1.1357 -0.1485  0.5054
34219SOL    HW2 6156   8.271   7.036  10.550 -0.5751  0.9775 -0.8810
34220SOL     OW 6157   5.889   5.121   5.872  0.3890  0.1409  0.3619
34220SOL    HW1 6158   5.957   5.089   5.814 -1.2851 -0.1832 -1.5247
34220SOL    HW2 6159   5.845   5.042   5.904  0.4901  0.3616  1.0706
34221SOL     OW 6160   8.007   1.324  10.839  0.1953  0.0540  0.0709
34221SOL    HW1 6161   7.991   1.346  10.931 -1.2287 -1.8123  0.3439
34221SOL    HW2 6162   8.086   1.270  10.840 -0.4365 -0.8878  0.3762
34222SOL     OW 6163   6.139   0.551   1.130 -0.3567  0.2938 -0.3832
34222SOL    HW1 6164   6.186   0.494   1.191  0.6416 -0.6734 -1.9822
34222SOL    HW2 6165   6.083   0.492   1.080 -2.1482  1.2380  0.4045
34223SOL     OW 6166   6.975   1.436  10.635  0.2140 -0.1387 -0.2249
34223SOL    HW1 6167   6.931   1.352  10.649  0.0020  0.1260  0.7880
34223SOL    HW2 6168   6.905   1.501  10.643  0.6658  0.2451  0.8212
34224SOL     OW 6169   8.844   7.808   7.018 -0.3907  0.2831 -0.2843
34224SOL    HW1 6170   8.782   7.745   7.055 -1.9923 -0.5549 -3.9159
34224SOL    HW2 6171   8.797   7.891   7.022  0.6176  0.8257  1.9776
34225SOL     OW 6172   0.002  10.860   0.754 -0.3509 -0.6551  0.2403
34225SOL    HW1 6173   0.011  10.944   0.708  0.5683 -0.6091  0.4823
34225SOL    HW2 6174  -0.006  10.885   0.846 -3.2234 -0.6855  0.0916
34226SOL     OW 6175  10.690   1.599   1.922  0.1818 -0.5036  0.5195
34226SOL    HW1 6176  10.751   1.668   1.948  0.4459 -1.1802  1.7828
34226SOL    HW2 6177  10.742   1.519   1.925 -0.8791 -1.1944  2.2765
34227SOL     OW 6178   7.418  10.612   3.011 -0.0074 -0.3886  0.2236
34227SOL    HW1 6179   7.425  10.545   2.943  0.0326 -1.9894  1.7089
34227SOL    HW2 6180   7.430  10.563   3.093  3.1041  1.8627  1.3211
34228SOL     OW 6181  10.153   2.978   6.721 -0.7213 -0.2871  0.0899
34228SOL    HW1 6182  10.182   3.067   6.701 -0.7312 -0.3403 -0.1571
34228SOL    HW2 6183  10.171   2.969   6.815  0.3543 -0.4230 -0.1103
34229SOL     OW 6184   3.094   5.908   4.893 -0.6773  0.1472 -0.3399
34229SOL    HW1 6185   3.173   5.942   4.852  0.6855 -1.0522  1.2069
34229SOL    HW2 6186   3.086   5.819   4.859  0.5061 -0.8896  1.9237
34230SOL     OW 6187   0.387   8.322   9.733  0.4424 -0.7337  0.4850
34230SOL    HW1 6188   0.379   8.291   9.823  0.1520 -1.5746  0.1772
34230SOL    HW2 6189   0.480   8.311   9.711  0.3642 -1.2764  0.4197
34231SOL     OW 6190   1.213   8.076   5.422 -0.0447  0.5432 -0.3199
34231SOL    HW1 6191   1.187   8.070   5.330 -0.1658 -1.1966 -0.2229
34231SOL    HW2 6192   1.292   8.130   5.422  0.3500 -0.0050 -1.5433
34232SOL     OW 6193  10.224   2.753   4.567 -0.6727 -0.4166  0.4769
34232SOL    HW1 6194  10.148   2.800   4.533  0.0962 -0.0400 -0.7799
34232SOL    HW2 6195  10.238   2.681   4.505 -0.9653 -1.4627  1.5895
34233SOL     OW 6196   1.178   6.902   7.484 -0.9057 -0.1413 -0.2090
34233SOL    HW1 6197   1.109   6.852   7.527  0.8991 -3.3323 -0.6809
34233SOL    HW2 6198   1.250   6.903   7.546 -0.1025 -0.1645 -1.1116
34234SOL     OW 6199   8.652   8.603   9.687 -0.2355  0.2306  0.4930
34234SOL    HW1 6200   8.695   8.549   9.754 -0.2518 -2.6338 -1.6033
34234SOL    HW2 6201   8.559   8.592   9.703 -0.2811 -1.6869 -0.7646
34235SOL     OW 6202   6.326   0.621   2.498  0.5642  0.6510 -0.3268
34235SOL    HW1 6203   6.420   0.602   2.493  0.8612  2.2431 -3.5055
34235SOL    HW2 6204   6.284   0.537   2.480  1.3093 -0.2035  1.6820
34236SOL     OW 6205   8.089  10.532   4.869 -0.6967 -0.6048  0.3060
34236SOL    HW1 6206   8.111  10.543   4.777  2.0491 -2.3865  0.6412
34236SOL    HW2 6207   8.010  10.478   4.868 -1.4775  0.5085 -0.9772
34237SOL     OW 6208   2.353   3.574   2.981 -0.3175 -0.4334  0.3501
34237SOL    HW1 6209   2.402   3.537   2.908 -3.2638 -1.5870 -1.1941
34237SOL    HW2 6210   2.379   3.666   2.982  2.6686 -1.1663  0.4155
34238SOL     OW 6211   8.634   0.882   7.590 -0.1055 -0.0809  0.0874
34238SOL    HW1 6212   8.644   0.789   7.567 -2.0467 -0.2848 -0.0624
34238SOL    HW2 6213   8.651   0.885   7.684 -0.8381 -0.7428  0.2526
34239SOL     OW 6214   5.201  11.001   9.483  0.6367 -0.6222  0.3438
34239SOL    HW1 6215   5.183  10.907   9.491  1.3644 -0.6137  5.1670
34239SOL    HW2 6216   5.297  11.007   9.482  0.5915  0.0624 -0.3530
34240SOL     OW 6217   2.188   7.299   3.840 -0.4923  0.4038 -0.2301
34240SOL    HW1 6218   2.094   7.296   3.827 -0.4239  2.3408 -1.5740
34240SOL    HW2 6219   2.223   7.332   3.757  1.5302 -1.7211 -0.3185
34241SOL     OW 6220   1.645   9.326   9.754  0.0485  0.4829 -0.0735
34241SOL    HW1 6221   1.725   9.305   9.707  0.4265  0.7002  0.4692
34241SOL    HW2 6222   1.606   9.398   9.705 -0.8604 -0.9127 -1.5032
34242SOL     OW 6223   2.882  10.975   2.804 -0.0220  0.1611  0.1137
34242SOL    HW1 6224   2.901  10.881   2.815  0.8734  0.3082 -0.1053
34242SOL    HW2 6225   2.948  11.019   2.858 -0.6514  0.6628  0.4810
34243SOL     OW 6226   5.725   3.393   3.587  0.3997 -0.2443  0.2084
34243SOL    HW1 6227   5.791   3.325   3.575  1.6275  0.9119  0.1376
34243SOL    HW2 6228   5.730   3.447   3.508 -0.5801 -0.0780  0.2402
34244SOL     OW 6229   5.280   6.839   5.071 -0.1621  0.1366 -0.3881
34244SOL    HW1 6230   5.222   6.784   5.123  0.5833 -0.1604  0.1433
34244SOL    HW2 6231   5.244   6.834   4.982 -0.5117 -0.6481 -0.2139
34245SOL     OW 6232   6.410   3.618  10.025  0.6029  0.4061  0.0617
34245SOL    HW1 6233   6.494   3.577  10.004 -0.8292 -1.5893 -2.4238
34245SOL    HW2 6234   6.411   3.701   9.977  0.8885  0.0185 -0.6199
34246SOL     OW 6235   4.541   3.204   7.467  0.4418  0.2466  0.2268
34246SOL    HW1 6236   4.568   3.295   7.479 -0.7363  0.7202 -0.5584
34246SOL    HW2 6237   4.518   3.197   7.375 -0.1828 -0.6429  0.4305
34247SOL     OW 6238   9.187   7.789   3.753 -0.2223 -0.1619 -0.1971
34247SOL    HW1 6239   9.184   7.708   3.701 -0.9735 -0.0175 -0.3939
34247SOL    HW2 6240   9.098   7.799   3.786 -0.3404  0.9919 -0.8131
34248SOL     OW 6241   2.529   7.045  10.007  0.7994  0.2351  0.2166
34248SOL    HW1 6242   2.580   7.113  10.051 -0.7538 -0.6121  3.6421
34248SOL    HW2 6243   2.439   7.058  10.038 -0.4093 -0.7292 -2.5376
34249SOL     OW 6244   2.401   6.079   3.371  0.0957  0.4596 -0.3000
34249SOL    HW1 6245   2.469   6.054   3.309  2.2154  0.1498  2.0004
34249SOL    HW2 6246   2.399   6.009   3.436 -1.5463  1.0843  0.3950
34250SOL     OW 6247   3.058   0.862   6.512 -0.6736  0.1952  0.1603
34250SOL    HW1 6248   3.088   0.833   6.426 -2.0937 -1.0727  0.0469
34250SOL    HW2 6249   3.029   0.782   6.556 -0.2533  0.8530  1.7190
34251SOL     OW 6250   6.371   6.083   9.255 -0.1572  0.0074 -0.1405
34251SOL    HW1 6251   6.372   6.038   9.339 -2.3439  0.4971  0.2103
34251SOL    HW2 6252   6.409   6.020   9.194  1.9535 -0.1659  1.2533
34252SOL     OW 6253   2.054   0.194   4.407  0.0311  0.4489 -0.0837
34252SOL    HW1 6254   2.109   0.161   4.336  1.0248  2.3065 -0.2300
34252SOL    HW2 6255   1.967   0.206   4.367  0.2521  0.2488 -0.6286
34253SOL     OW 6256   9.693   1.810   0.582 -0.1149 -0.1297 -0.8003
34253SOL    HW1 6257   9.602   1.840   0.590 -1.1889 -3.0226 -1.0103
34253SOL    HW2 6258   9.745   1.883   0.615 -2.5721  1.2144  0.3975
34254SOL     OW 6259   9.194   4.665   6.100  0.0554  0.0666  0.0874
34254SOL    HW1 6260   9.159   4.752   6.117 -0.4732 -0.2150  0.4832
34254SOL    HW2 6261   9.283   4.667   6.136 -0.0399  0.3665  0.3102
34255SOL     OW 6262   6.918   2.581   7.588 -0.0925  0.1625  0.0909
34255SOL    HW1 6263   7.009   2.593   7.613 -0.4606  4.0622  0.0916
34255SOL    HW2 6264   6.870   2.646   7.639 -2.3113  0.9997 -2.7624
34256SOL     OW 6265   2.376   2.106   4.479  0.5096 -0.4164  0.0077
34256SOL    HW1 6266   2.433   2.034   4.451 -0.4590 -0.7123 -1.2543
34256SOL    HW2 6267   2.435   2.181   4.486  1.5436 -1.3019  1.3788
34257SOL     OW 6268   3.223   7.978   1.971  0.0681  0.4948 -0.3494
34257SOL    HW1 6269   3.310   8.018   1.970  0.0860  0.4991  0.7196
34257SOL    HW2 6270   3.224   7.916   1.898  1.2951 -0.2049  0.2405
34258SOL     OW 6271   2.570   2.401   6.782 -0.6097 -0.0597  0.7704
34258SOL    HW1 6272   2.534   2.389   6.694 -0.7572  1.7264  0.5605
34258SOL    HW2 6273   2.635   2.471   6.772 -0.1849 -0.2600  1.9856
34259SOL     OW 6274  10.573   4.052   3.281 -0.0096  0.0207 -0.3231
34259SOL    HW1 6275  10.668   4.048   3.267 -0.1532  0.3361 -1.5361
34259SOL    HW2 6276  10.539   3.977   3.233 -0.5120  0.9105 -1.3999
34260SOL     OW 6277   1.235   8.313   7.572 -0.1460 -0.0572  0.2095
34260SOL    HW1 6278   1.288   8.297   7.650 -0.4305  0.4645  0.5158
34260SOL    HW2 6279   1.281   8.269   7.501 -0.8794 -2.2061  0.9983
34261SOL     OW 6280   3.916   4.134   0.072 -0.6968 -0.1152 -0.3162
34261SOL    HW1 6281   3.974   4.058   0.066 -1.4271 -0.8908  1.5249
34261SOL    HW2 6282   3.923   4.163   0.163 -0.7735  1.7781 -0.8789
34262SOL     OW 6283   2.220   0.263   3.077  0.0083 -0.8236  0.3888
34262SOL    HW1 6284   2.275   0.226   3.008 -0.9819  0.4540 -1.1657
34262SOL    HW2 6285   2.255   0.351   3.092 -1.7579  0.1947 -0.9570
34263SOL     OW 6286   4.046  10.241   0.939 -0.3123  0.1868  0.1287
34263SOL    HW1 6287   4.012  10.322   0.899  1.0908  0.6618 -0.1668
34263SOL    HW2 6288   4.140  10.243   0.919  0.2670 -0.0675  2.5974
34264SOL     OW 6289   8.976   9.857   6.795 -0.1349  0.1745 -0.1038
34264SOL    HW1 6290   8.919   9.788   6.831  1.7733 -1.0991  0.5996
34264SOL    HW2 6291   8.982   9.922   6.865  0.1841 -0.2413  0.2599
34265SOL     OW 6292   8.697   9.574   3.641  0.0932 -0.0746  0.1375
34265SOL    HW1 6293   8.743   9.633   3.581  0.3109 -0.8574 -0.4901
34265SOL    HW2 6294   8.763   9.547   3.704  0.3760 -0.7757 -0.4432
34266SOL     OW 6295   8.118   7.003   5.913  0.4411  0.2212  0.1152
34266SOL    HW1 6296   8.024   7.017   5.911  0.1887 -1.2376  0.1996
34266SOL    HW2 6297   8.146   7.017   5.822  0.4268  2.2050  0.3876
34267SOL     OW 6298   5.520   9.699   7.517 -0.1817 -0.4217  0.4656
34267SOL    HW1 6299   5.433   9.718   7.481 -0.0070  2.2808  1.1866
34267SOL    HW2 6300   5.503   9.679   7.609 -0.0356  1.0905  0.8554
34268SOL     OW 6301   6.085   7.284   9.428  0.2469  0.3956 -0.3130
34268SOL    HW1 6302   6.172   7.308   9.459  0.2113 -0.2257  0.3195
34268SOL    HW2 6303   6.055   7.218   9.491 -1.1393  1.4188  0.1597
34269SOL     OW 6304   3.575   3.009   7.049  0.4186 -0.2652  0.5041
34269SOL    HW1 6305   3.636   2.955   7.100  0.6259 -0.6469 -0.1279
34269SOL    HW2 6306   3.495   2.957   7.044 -0.8652  1.2343  3.3613
34270SOL     OW 6307   2.916   2.547   9.317  0.4447 -0.1080  0.1082
34270SOL    HW1 6308   2.898   2.483   9.386 -2.0289  0.8014  0.3909
34270SOL    HW2 6309   2.898   2.632   9.357  0.7004  0.5602 -1.1498
34271SOL     OW 6310   7.135   8.735   6.654 -0.1302 -0.0782 -0.0395
34271SOL    HW1 6311   7.130   8.700   6.566  0.9879 -1.3782  0.3782
34271SOL    HW2 6312   7.163   8.661   6.708 -0.4938  0.7617  1.3550
34272SOL     OW 6313   5.826   5.822   5.906  0.3394 -0.6799 -0.1245
34272SOL    HW1 6314   5.920   5.818   5.925  0.0077 -1.6621  1.5672
34272SOL    HW2 6315   5.818   5.785   5.818  1.6480  0.7358 -0.8967
34273SOL     OW 6316   5.537   4.300   7.552 -0.2747 -0.0678 -0.1569
34273SOL    HW1 6317   5.615   4.264   7.594 -0.1606  0.4227  0.0611
34273SOL    HW2 6318   5.558   4.300   7.458 -0.1720 -0.3138 -0.1347
34274SOL     OW 6319   3.855   5.365   7.750 -0.1010  0.1690  0.4699
34274SOL    HW1 6320   3.832   5.274   7.731  1.7343 -0.0796 -0.8660
34274SOL    HW2 6321   3.794   5.392   7.819 -0.5700 -2.1243  1.0235
34275SOL     OW 6322   6.293   7.894   1.460 -0.3449  0.8345  0.5006
34275SOL    HW1 6323   6.214   7.946   1.474 -0.2611  1.4028 -0.9398
34275SOL    HW2 6324   6.330   7.928   1.378  0.8151 -0.1350  0.5944
34276SOL     OW 6325   7.629   8.583   6.310  0.1119 -0.4817  0.0296
34276SOL    HW1 6326   7.535   8.569   6.295 -0.0901  0.7226  0.0588
34276SOL    HW2 6327   7.638   8.678   6.314  1.1432 -0.6139  1.2894
34277SOL     OW 6328   1.262   2.069   5.997 -1.0863  0.9717  0.2015
34277SOL    HW1 6329   1.187   2.064   5.937 -0.8891  1.4298 -0.0896
34277SOL    HW2 6330   1.328   2.119   5.949 -0.3061 -0.0582  0.1590
34278SOL     OW 6331   4.072   7.454   1.890  0.3257 -0.1272  0.1593
34278SOL    HW1 6332   4.126   7.380   1.919  1.1409 -0.8051 -2.7031
34278SOL    HW2 6333   3.982   7.423   1.899  0.6530 -1.4251 -0.7555
34279SOL     OW 6334   4.978   8.807   4.386 -0.5659 -0.2395 -1.0644
34279SOL    HW1 6335   4.888   8.810   4.355 -1.0673 -0.0497  0.3221
34279SOL    HW2 6336   4.979   8.737   4.451  0.7377 -1.4662 -2.3178
34280SOL     OW 6337   6.419   8.695   5.866 -0.3593  0.3370  0.2153
34280SOL    HW1 6338   6.423   8.610   5.823  1.8682 -1.2819  3.2169
34280SOL    HW2 6339   6.481   8.750   5.817  0.4658 -0.7570 -0.0077
34281SOL     OW 6340   4.939   4.152  10.738  0.1169 -0.4856  0.2766
34281SOL    HW1 6341   4.994   4.218  10.781 -2.4360  0.5928  2.1232
34281SOL    HW2 6342   4.867   4.137  10.799 -1.4873 -2.0712 -1.8455
34282SOL     OW 6343   0.573   7.507   0.799  0.2711  0.9937  0.3005
34282SOL    HW1 6344   0.482   7.485   0.781  0.6495  0.3284 -0.9007
34282SOL    HW2 6345   0.572   7.545   0.887 -1.3379  2.1761 -0.1985
34283SOL     OW 6346  10.609   6.962   4.292 -0.0518  0.1651 -0.3922
34283SOL    HW1 6347  10.690   6.919   4.317  1.1480  1.3693 -2.0087
34283SOL    HW2 6348  10.624   7.055   4.310 -1.4268  0.3211  0.1128
34284SOL     OW 6349   1.331   8.817   0.284  0.5681  0.4187 -0.2033
34284SOL    HW1 6350   1.243   8.798   0.252 -0.2986  0.7119  1.8712
34284SOL    HW2 6351   1.351   8.905   0.250  0.6016 -0.1294 -1.6811
34285SOL     OW 6352   5.428   7.445  10.446  0.1190 -0.5863  0.3614
34285SOL    HW1 6353   5.469   7.441  10.532 -1.3926  1.0490  1.2150
34285SOL    HW2 6354   5.335   7.434  10.463 -0.0063 -2.7547 -1.3721
34286SOL     OW 6355   1.164   9.287   2.074 -0.0879 -0.2763 -0.4100
34286SOL    HW1 6356   1.240   9.345   2.070  1.2125 -1.9049 -0.2997
34286SOL    HW2 6357   1.123   9.307   2.159  1.6607 -1.0541  0.6672
34287SOL     OW 6358   0.687   8.921   7.979 -0.4403 -0.1947  0.1865
34287SOL    HW1 6359   0.711   8.934   7.887 -1.3205  1.0498  0.1076
34287SOL    HW2 6360   0.608   8.868   7.976 -0.4427 -0.1931  0.2244
34288SOL     OW 6361   6.852   1.036   9.954 -0.3106  0.0449  0.3226
34288SOL    HW1 6362   6.819   1.109   9.902  0.0946 -1.1140 -1.6656
34288SOL    HW2 6363   6.815   1.050  10.041 -5.5832 -0.7629 -1.4251
34289SOL     OW 6364   4.866   8.095   2.831 -0.4474  0.6080  0.4636
34289SOL    HW1 6365   4.877   8.027   2.765  0.6931 -1.1004  2.3180
34289SOL    HW2 6366   4.795   8.063   2.887  1.4166 -0.1546  2.5359
34290SOL     OW 6367   6.189  10.526   3.481  0.4708  0.0843  0.5956
34290SOL    HW1 6368   6.241  10.528   3.401 -1.7915  0.6111 -0.9532
34290SOL    HW2 6369   6.106  10.566   3.457 -0.5080 -0.2690  3.0737
34291SOL     OW 6370   9.086   3.165  10.124  0.4348 -0.9172  0.1971
34291SOL    HW1 6371   9.154   3.232  10.120 -0.1826 -0.3309 -2.1705
34291SOL    HW2 6372   9.122   3.091  10.076 -0.8641 -0.2303 -2.0120
34292SOL     OW 6373  10.319   4.753   3.883 -0.4086  0.2234 -0.3748
34292SOL    HW1 6374  10.327   4.841   3.919 -1.9623  0.5069 -0.6577
34292SOL    HW2 6375  10.235   4.753   3.838 -0.0251 -1.1411 -1.1490
34293SOL     OW 6376  10.347  10.057   2.615 -0.2738 -0.8131 -0.0336
34293SOL    HW1 6377  10.318   9.966   2.619 -0.0598 -1.0299 -2.0861
34293SOL    HW2 6378  10.381  10.067   2.526  1.6783  0.6930  0.8004
34294SOL     OW 6379   9.391   4.313   4.274 -0.1985 -0.0535  0.3233
34294SOL    HW1 6380   9.313   4.280   4.320 -0.6020  1.3290  0.6655
34294SOL    HW2 6381   9.358   4.381   4.216  0.6435 -0.0999 -0.2306
34295SOL     OW 6382  10.324   0.066   6.036 -0.0267  0.2747 -0.2689
34295SOL    HW1 6383  10.238   0.024   6.027 -0.2784 -0.1703  3.0554
34295SOL    HW2 6384  10.308   0.158   6.017 -1.4004  0.2853  0.8086
34296SOL     OW 6385   0.652   4.556   1.264 -0.0117  0.0428 -0.6035
34296SOL    HW1 6386   0.683   4.645   1.246  0.5283  0.2687  1.1788
34296SOL    HW2 6387   0.731   4.503   1.267 -0.2762 -0.3809 -1.0133
34297SOL     OW 6388   3.167   7.540   5.543  0.7583  0.3947 -0.1460
34297SOL    HW1 6389   3.113   7.464   5.521 -1.6622  1.2604  2.3094
34297SOL    HW2 6390   3.231   7.507   5.606  1.6546 -0.1517 -1.3039
34298SOL     OW 6391   2.724   0.723   5.083  0.2761 -0.6975  0.1885
34298SOL    HW1 6392   2.808   0.756   5.115 -0.2487  0.9104 -0.0320
34298SOL    HW2 6393   2.699   0.783   5.013 -0.3178 -2.0893 -0.8278
34299SOL     OW 6394   4.493   2.733   9.452 -0.6094 -0.2187 -0.1174
34299SOL    HW1 6395   4.525   2.799   9.513 -2.1821  0.1841  0.3373
34299SOL    HW2 6396   4.459   2.663   9.509  0.7750 -1.3261 -0.5870
34300SOL     OW 6397   6.463   5.652   7.430 -0.0875 -1.0584 -0.0687
34300SOL    HW1 6398   6.532   5.598   7.392  1.0758  0.0451  0.4261
34300SOL    HW2 6399   6.425   5.598   7.499  2.3605 -0.5991  1.7358
34301SOL     OW 6400   9.025   9.355   0.168  0.2834 -0.2962 -0.3140
34301SOL    HW1 6401   8.999   9.433   0.120 -2.3136 -0.5220  0.5540
34301SOL    HW2 6402   9.088   9.386   0.233 -0.3310  1.0021 -0.3117
34302SOL     OW 6403   5.195   3.716   8.161 -0.5157 -0.3967 -0.6464
34302SOL    HW1 6404   5.266   3.754   8.108 -1.1696  0.2385 -1.0793
34302SOL    HW2 6405   5.141   3.791   8.186 -0.4922 -0.7498  0.5260
34303SOL     OW 6406   6.181   3.888   4.717 -0.5465  0.4595  0.1250
34303SOL    HW1 6407   6.173   3.821   4.785  0.2288 -0.0683 -0.2957
34303SOL    HW2 6408   6.212   3.965   4.763  0.6638 -0.0962  0.2661
34304SOL     OW 6409   5.956   1.134   4.358 -0.6286 -0.1337  0.1781
34304SOL    HW1 6410   5.929   1.048   4.325 -1.3712  0.3143 -0.4199
34304SOL    HW2 6411   5.992   1.179   4.282  1.2364 -0.4637  0.8285
34305SOL     OW 6412   8.637   4.891   6.653  0.2839  0.4442 -0.3898
34305SOL    HW1 6413   8.632   4.855   6.565  0.1932 -0.7727  0.0894
34305SOL    HW2 6414   8.705   4.838   6.697 -1.6108 -0.9231  1.0887
34306SOL     OW 6415   3.384   4.366   6.717  0.0933 -0.0413 -0.3945
34306SOL    HW1 6416   3.407   4.439   6.775  1.2968  0.8638 -1.9349
34306SOL    HW2 6417   3.338   4.407   6.644  0.3893 -0.8779 -1.0718
34307SOL     OW 6418   4.074   0.476   5.599  0.6021  0.1990 -0.3020
34307SOL    HW1 6419   4.141   0.434   5.653 -0.5435 -1.0239  0.2463
34307SOL    HW2 6420   4.029   0.403   5.556 -1.1540  0.8686  0.2923
34308SOL     OW 6421   1.008   0.335  10.945 -0.0011 -0.0851 -0.7964
34308SOL    HW1 6422   1.085   0.352  10.998 -0.5341  1.1565 -0.3659
34308SOL    HW2 6423   0.947   0.289  11.003  0.9799 -2.5290 -1.6052
34309SOL     OW 6424   0.051   8.561   2.883 -0.4649  0.4166  0.4183
34309SOL    HW1 6425   0.089   8.476   2.905 -0.8489 -0.1360 -0.9426
34309SOL    HW2 6426   0.119   8.624   2.904  0.6996 -0.4332 -0.6731
34310SOL     OW 6427   6.660   2.928   2.811 -0.2979  0.6294 -0.4056
34310SOL    HW1 6428   6.591   2.941   2.876 -0.8068 -0.2617 -0.7443
34310SOL    HW2 6429   6.627   2.971   2.732  0.4354  1.9395 -0.0251
34311SOL     OW 6430   7.051   0.693  10.296 -0.4899  0.8613  0.1084
34311SOL    HW1 6431   7.135   0.672  10.337 -0.4780  0.6414 -0.0262
34311SOL    HW2 6432   7.053   0.788  10.284 -0.4237  0.9032  0.4635
34312SOL     OW 6433   3.844   1.153   8.974 -0.3718  0.3351  0.3133
34312SOL    HW1 6434   3.927   1.197   8.991 -0.3347 -0.0084  1.0412
34312SOL    HW2 6435   3.807   1.200   8.899 -0.0429  1.2118  0.6869
34313SOL     OW 6436   0.371   1.174   5.080  0.6405 -0.2143 -0.2075
34313SOL    HW1 6437   0.435   1.208   5.017  1.2054  0.9659  0.9671
34313SOL    HW2 6438   0.293   1.227   5.065  0.3359 -0.8066 -0.7757
34314SOL     OW 6439   8.634   2.062   4.929  0.3415  0.5290 -0.2503
34314SOL    HW1 6440   8.694   2.130   4.962 -0.2341  1.1815 -0.5328
34314SOL    HW2 6441   8.589   2.031   5.008  0.5720  0.4979 -0.1268
34315SOL     OW 6442  10.897   6.771   4.455 -0.0526  0.2882 -0.7125
34315SOL    HW1 6443  10.923   6.703   4.516  0.1203  1.4958  0.6235
34315SOL    HW2 6444  10.963   6.840   4.467 -0.9282  1.2203 -1.0875
34316SOL     OW 6445   3.333   8.679  10.551 -0.2775  0.2593 -0.3496
34316SOL    HW1 6446   3.258   8.713  10.504 -1.1468 -1.3449 -0.1988
34316SOL    HW2 6447   3.376   8.620  10.489  2.4393  3.0154 -1.3665
34317SOL     OW 6448   1.576   0.741   1.068 -0.4014 -0.1390 -0.9432
34317SOL    HW1 6449   1.578   0.650   1.036  0.8140  0.1901 -1.9139
34317SOL    HW2 6450   1.617   0.791   0.997  1.7418  0.7391  0.8076
34318SOL     OW 6451   3.791   7.166   8.038  0.2499 -0.2835 -0.3358
34318SOL    HW1 6452   3.869   7.218   8.054  0.0102 -0.4226  1.6081
34318SOL    HW2 6453   3.810   7.117   7.959  2.6342 -1.2100  0.7284
34319SOL     OW 6454   9.608   1.988   4.535  0.3220 -0.4388  0.5018
34319SOL    HW1 6455   9.700   1.989   4.510  0.5476 -1.3925  1.2145
34319SOL    HW2 6456   9.595   1.902   4.575 -0.3993  0.3682  2.1181
34320SOL     OW 6457   6.642  10.516   9.484  0.1341 -0.2589  0.2012
34320SOL    HW1 6458   6.736  10.510   9.468  0.2170 -0.5162  0.7900
34320SOL    HW2 6459   6.603  10.519   9.396  0.8533  2.7634 -0.1407
34321SOL     OW 6460   6.904   6.599   7.090 -0.2367 -0.3688 -0.3929
34321SOL    HW1 6461   6.997   6.582   7.075 -0.8348 -2.8671 -1.7082
34321SOL    HW2 6462   6.864   6.601   7.003 -1.5947 -0.5886  0.1861
34322SOL     OW 6463   6.971   4.510   5.930  0.4084 -0.2605  0.6027
34322SOL    HW1 6464   6.879   4.520   5.951  0.2695  0.2655 -0.1869
34322SOL    HW2 6465   7.015   4.503   6.015 -0.1858  1.1133  1.0474
34323SOL     OW 6466   2.377   5.821   4.362  0.1828 -0.1342  0.2057
34323SOL    HW1 6467   2.368   5.916   4.355 -3.5389 -0.1073  2.6512
34323SOL    HW2 6468   2.296   5.786   4.326 -0.0613 -2.0818  2.3970
34324SOL     OW 6469   8.626   7.773   3.099  0.5226  0.3519  0.2284
34324SOL    HW1 6470   8.606   7.718   3.175  0.4627  0.7313  0.4905
34324SOL    HW2 6471   8.585   7.729   3.025  1.9443 -0.9076  0.1260
34325SOL     OW 6472   4.381   1.427   8.463  0.0525  0.1836 -0.6000
34325SOL    HW1 6473   4.477   1.426   8.470  0.0172  1.4829  0.6131
34325SOL    HW2 6474   4.355   1.507   8.509 -1.5965  0.1058 -1.3342
34326SOL     OW 6475   6.289  10.221   6.352 -0.0589 -0.1743 -0.3200
34326SOL    HW1 6476   6.275  10.165   6.275  2.2165 -0.3388 -0.6789
34326SOL    HW2 6477   6.228  10.187   6.417  0.6485 -2.5551 -0.8028
34327SOL     OW 6478   5.658   6.571   6.021 -0.3120  0.0020 -0.1494
34327SOL    HW1 6479   5.717   6.572   5.946 -1.0374  1.3877 -0.7462
34327SOL    HW2 6480   5.691   6.501   6.077  1.3542  0.1562 -0.8765
34328SOL     OW 6481   4.360   3.295   0.609  0.1694 -0.4920 -0.2135
34328SOL    HW1 6482   4.336   3.371   0.661  2.3400  1.1914 -1.5362
34328SOL    HW2 6483   4.276   3.263   0.574 -0.8716  0.7790  1.0031
34329SOL     OW 6484   6.726   0.127   2.324 -0.0708  0.2729 -0.2082
34329SOL    HW1 6485   6.667   0.123   2.249 -1.0512  3.3958  0.2244
34329SOL    HW2 6486   6.812   0.103   2.289 -0.8281 -0.1669 -1.8624
34330SOL     OW 6487   6.230   5.423   2.605  0.4308 -0.2639 -0.2189
34330SOL    HW1 6488   6.262   5.333   2.609  1.0086 -0.0662 -0.2580
34330SOL    HW2 6489   6.222   5.451   2.697  1.2895 -0.0023 -0.2153
34331SOL     OW 6490   3.527   3.511   4.005  0.3399 -0.9252 -0.0388
34331SOL    HW1 6491   3.511   3.417   4.011 -0.2711 -0.7461  2.4840
34331SOL    HW2 6492   3.492   3.546   4.087  0.0432  1.5945 -1.1537
34332SOL     OW 6493   9.460   6.032   6.169  0.4228  0.5534 -0.4330
34332SOL    HW1 6494   9.503   6.118   6.169 -0.2456  0.9135  0.7538
34332SOL    HW2 6495   9.454   6.008   6.262  2.6433 -1.8573 -0.7941
34333SOL     OW 6496   1.617   2.141   0.882  0.4774  0.6422  0.2906
34333SOL    HW1 6497   1.591   2.087   0.957 -1.4978 -2.3414 -2.3249
34333SOL    HW2 6498   1.537   2.187   0.856 -0.2520 -1.9411 -2.6120
34334SOL     OW 6499   6.668   2.363  10.038 -0.0562  0.4249  0.1475
34334SOL    HW1 6500   6.705   2.384   9.953  1.2140  0.1268  0.6137
34334SOL    HW2 6501   6.733   2.392  10.101  0.1712 -1.6298  0.9278
34335SOL     OW 6502   4.071   1.934   4.398 -0.6747  0.0441 -0.2174
34335SOL    HW1 6503   4.026   1.870   4.453 -1.8421  0.0260 -1.1479
34335SOL    HW2 6504   4.159   1.898   4.386 -1.3622 -1.5125 -0.8890
34336SOL     OW 6505  10.074   3.814   9.451  0.6065 -0.4472  0.1883
34336SOL    HW1 6506  10.164   3.815   9.419  0.3731 -0.0762 -0.4850
34336SOL    HW2 6507  10.081   3.827   9.546  1.2454 -0.1741  0.1070
34337SOL     OW 6508   2.193  10.484   1.396 -0.0682  0.1355  0.9545
34337SOL    HW1 6509   2.224  10.405   1.441 -1.9357 -0.3611  1.4275
34337SOL    HW2 6510   2.208  10.465   1.303 -1.7237 -1.3838  0.9531
34338SOL     OW 6511   5.374   0.205   8.629 -0.1669 -0.0063 -0.4801
34338SOL    HW1 6512   5.296   0.178   8.678  1.1263 -0.1865  1.6368
34338SOL    HW2 6513   5.360   0.171   8.541 -2.7704  0.5875 -0.3807
34339SOL     OW 6514   6.178   1.195   9.786 -0.0192  0.4703 -0.2830
34339SOL    HW1 6515   6.231   1.118   9.765  0.7563  1.1534 -0.9022
34339SOL    HW2 6516   6.173   1.195   9.882 -3.6915 -2.7398 -0.2633
34340SOL     OW 6517   1.391   2.637   6.563  0.2087  0.4718  0.4787
34340SOL    HW1 6518   1.402   2.600   6.476 -0.8931 -0.4263  0.6988
34340SOL    HW2 6519   1.330   2.577   6.607 -0.9862  2.0863  1.1199
34341SOL     OW 6520  10.797   5.461   6.466 -0.0509 -0.3393  0.3346
34341SOL    HW1 6521  10.879   5.511   6.466  0.9365 -1.8476 -1.6388
34341SOL    HW2 6522  10.755   5.484   6.383 -1.5009  0.1401  1.1698
34342SOL     OW 6523   5.859   8.633   7.905 -0.7339 -0.0164  0.9665
34342SOL    HW1 6524   5.910   8.692   7.850  0.1131 -2.2330 -0.7416
34342SOL    HW2 6525   5.769   8.663   7.895 -0.3308  0.9836  0.1660
34343SOL     OW 6526  10.895   7.951   2.285  0.7402 -0.1027  0.8367
34343SOL    HW1 6527  10.903   7.960   2.380 -1.7529  1.4196  1.0111
34343SOL    HW2 6528  10.906   8.040   2.252 -0.5429 -0.2473 -0.0548
34344SOL     OW 6529  10.060   4.743   7.182 -0.4661  0.4017 -0.4751
34344SOL    HW1 6530  10.147   4.732   7.220 -0.6912  0.6026  0.1069
34344SOL    HW2 6531  10.002   4.755   7.257 -1.3968 -2.1661 -0.6700
34345SOL     OW 6532   6.014   7.994   5.232  0.3667  0.5285  0.2460
34345SOL    HW1 6533   5.959   8.037   5.296 -2.1787  0.1937 -1.5625
34345SOL    HW2 6534   6.103   8.004   5.266 -0.7130  1.5203  3.0747
34346SOL     OW 6535   2.186   2.134   2.368 -0.0171 -0.5347  0.3905
34346SOL    HW1 6536   2.181   2.140   2.463  0.8152 -0.1141  0.4138
34346SOL    HW2 6537   2.144   2.214   2.336 -1.5684 -1.3267  0.3521
34347SOL     OW 6538   2.173   5.396   2.191 -0.0388  0.0298  0.0546
34347SOL    HW1 6539   2.246   5.435   2.239  0.8741 -3.0831  1.3872
34347SOL    HW2 6540   2.214   5.336   2.129 -1.4133  0.4082 -1.2806
34348SOL     OW 6541   0.060   2.451   3.625 -0.0871 -0.0359  0.1553
34348SOL    HW1 6542   0.032   2.391   3.694 -1.7302 -1.0772 -1.3290
34348SOL    HW2 6543  -0.001   2.524   3.630  1.3735  1.1818  1.3884
34349SOL     OW 6544   4.128   9.185   8.081  0.0860  0.4536 -0.3676
34349SOL    HW1 6545   4.113   9.234   8.000 -1.2848 -0.1904 -0.5210
34349SOL    HW2 6546   4.073   9.229   8.146 -1.3766 -1.0094 -0.5690
34350SOL     OW 6547   4.186  10.373   5.039 -0.2358 -0.4421  0.0408
34350SOL    HW1 6548   4.270  10.328   5.032 -0.8466 -1.4591 -1.0695
34350SOL    HW2 6549   4.124  10.305   5.066 -0.8561  0.1259  0.0729
34351SOL     OW 6550   3.353   5.116   5.367 -0.5728 -0.2388 -0.1513
34351SOL    HW1 6551   3.369   5.022   5.376 -0.7320 -0.1196  1.6675
34351SOL    HW2 6552   3.264   5.122   5.331 -0.2815 -0.7679 -1.0004
34352SOL     OW 6553   4.696   8.855   8.480 -0.6613 -0.1987 -0.0418
34352SOL    HW1 6554   4.654   8.922   8.426  1.2156  0.4809 -0.7543
34352SOL    HW2 6555   4.743   8.800   8.417 -0.9213 -1.2562  0.6740
34353SOL     OW 6556   2.892   7.306   3.313 -0.6196 -0.4651 -0.0883
34353SOL    HW1 6557   2.977   7.339   3.339  0.7353  0.8509 -5.1364
34353SOL    HW2 6558   2.902   7.210   3.313  0.5911 -0.3497  0.0301
34354SOL     OW 6559   9.157   4.635   2.524  0.1249  0.6218 -0.2600
34354SOL    HW1 6560   9.187   4.577   2.455 -0.5056 -0.6745  0.5030
34354SOL    HW2 6561   9.213   4.712   2.518  0.5756  0.2034 -1.7050
34355SOL     OW 6562   9.251   8.085   0.092  0.3788 -0.4582  0.2661
34355SOL    HW1 6563   9.278   8.078   0.184  0.5280  1.4653  0.4099
34355SOL    HW2 6564   9.251   7.995   0.061 -0.0702 -1.2061  2.2549
34356SOL     OW 6565   6.672   3.303   8.035 -0.9763  0.5693  0.1796
34356SOL    HW1 6566   6.709   3.255   7.961  1.5105  2.4269  0.0836
34356SOL    HW2 6567   6.656   3.236   8.102  0.9460 -0.5923 -0.4546
34357SOL     OW 6568   1.605   0.410   3.690  0.0376  0.3704 -0.0431
34357SOL    HW1 6569   1.559   0.327   3.708 -0.7799  0.7394 -0.3645
34357SOL    HW2 6570   1.579   0.467   3.763 -1.3178  1.0884 -1.0340
34358SOL     OW 6571  10.676   9.651   7.656  1.1859  0.0592  0.2250
34358SOL    HW1 6572  10.719   9.569   7.631  1.2193 -0.2053  1.1242
34358SOL    HW2 6573  10.583   9.631   7.652  1.1726  0.2362 -0.4011
34359SOL     OW 6574  10.521   6.175   1.831  0.2242  0.1417  0.4759
34359SOL    HW1 6575  10.466   6.107   1.870 -0.3299 -0.0232 -0.5581
34359SOL    HW2 6576  10.569   6.212   1.905  1.0208 -1.7964  1.0081
34360SOL     OW 6577   6.651   7.956   7.880 -0.4065 -0.4048 -0.1975
34360SOL    HW1 6578   6.703   7.967   7.960 -0.7218  3.4425 -0.3707
34360SOL    HW2 6579   6.652   8.042   7.838 -3.3640 -1.2996 -2.4361
34361SOL     OW 6580   2.479   7.038   3.032  0.0576  0.7954  0.0100
34361SOL    HW1 6581   2.530   6.981   3.090 -0.2422  0.0988 -0.4027
34361SOL    HW2 6582   2.473   7.121   3.080  1.1733  0.7446  0.2731
34362SOL     OW 6583   2.213   3.025   3.286  0.0210 -0.5285  0.3907
34362SOL    HW1 6584   2.167   3.015   3.203 -1.1509  2.1165  0.6271
34362SOL    HW2 6585   2.157   2.979   3.350  0.5769 -1.9704 -0.1103
34363SOL     OW 6586   2.528   1.410   1.825 -0.2649  0.6507 -0.4338
34363SOL    HW1 6587   2.483   1.481   1.779 -1.3215  0.1291 -0.2258
34363SOL    HW2 6588   2.458   1.352   1.854  0.5542 -0.2263 -0.1738
34364SOL     OW 6589   2.991   4.741   4.456 -0.5748  0.1076 -0.2039
34364SOL    HW1 6590   3.001   4.720   4.549 -1.4265  1.1464  0.1549
34364SOL    HW2 6591   3.068   4.793   4.434  0.8871 -2.1709 -0.7633
34365SOL     OW 6592   7.574   5.414   3.248 -0.4958  0.4324  0.0558
34365SOL    HW1 6593   7.582   5.324   3.219  0.1868  0.1398  1.0811
34365SOL    HW2 6594   7.493   5.446   3.208 -0.6913 -0.5988 -0.3917
34366SOL     OW 6595   2.505   1.421   4.361 -0.0465 -0.1954  0.0709
34366SOL    HW1 6596   2.540   1.474   4.432 -1.4217 -0.2941  0.8496
34366SOL    HW2 6597   2.551   1.453   4.283 -0.2161  1.5552  0.6459
34367SOL     OW 6598   4.199   3.338   1.502 -0.2956  0.0413 -0.5792
34367SOL    HW1 6599   4.271   3.276   1.515 -0.3510  0.0919  0.0197
34367SOL    HW2 6600   4.160   3.312   1.419 -0.1309 -0.5429 -0.4831
34368SOL     OW 6601  10.685   2.748   1.867 -0.3857  0.0925  0.0395
34368SOL    HW1 6602  10.711   2.840   1.859 -1.5284  0.3840 -0.5236
34368SOL    HW2 6603  10.720   2.706   1.787  0.5152 -0.0730  0.5071
34369SOL     OW 6604   4.018   1.778   0.040  0.4425  0.1833 -0.6018
34369SOL    HW1 6605   3.933   1.817   0.022  0.2820  0.0231 -0.2232
34369SOL    HW2 6606   4.024   1.778   0.136  0.5057 -0.5639 -0.5982
34370SOL     OW 6607   5.431   0.132   7.492 -0.1534 -0.0268 -0.3449
34370SOL    HW1 6608   5.356   0.087   7.530 -0.2429  0.3413 -0.0880
34370SOL    HW2 6609   5.494   0.062   7.473 -0.0270 -0.1904  0.6676
34371SOL     OW 6610   0.723   6.371   7.539  0.3089  0.4059  0.7636
34371SOL    HW1 6611   0.649   6.411   7.585  0.4816  0.6707  0.8121
34371SOL    HW2 6612   0.800   6.397   7.589  0.8967  3.6165 -1.5181
34372SOL     OW 6613   9.958   1.721   9.549  0.5766 -0.0439  0.9256
34372SOL    HW1 6614   9.904   1.717   9.628 -1.3029  0.9673 -0.2400
34372SOL    HW2 6615   9.918   1.657   9.490 -0.4197  1.8427 -0.5407
34373SOL     OW 6616   0.017   6.356   9.493 -0.1208  0.3864 -0.1220
34373SOL    HW1 6617   0.079   6.375   9.423 -0.2864 -0.3721 -0.4790
34373SOL    HW2 6618  -0.058   6.316   9.449 -0.5130  0.5180  0.4108
34374SOL     OW 6619   0.352   8.828   6.596 -0.7504  0.3076  0.1590
34374SOL    HW1 6620   0.362   8.852   6.503  0.1735 -0.9336 -0.0746
34374SOL    HW2 6621   0.412   8.886   6.642  1.8834 -1.7600 -0.4569
34375SOL     OW 6622   2.772  10.751   6.239 -0.6647 -0.3936 -0.6854
34375SOL    HW1 6623   2.805  10.770   6.151 -2.7817  0.7186 -1.3316
34375SOL    HW2 6624   2.808  10.666   6.261  1.7383  0.2936 -1.6626
34376SOL     OW 6625   7.199   7.372   9.307 -0.2406 -0.8053 -1.0892
34376SOL    HW1 6626   7.139   7.437   9.272  0.6423  0.9645  0.5268
34376SOL    HW2 6627   7.145   7.294   9.320 -2.4493  0.9367  1.0297
34377SOL     OW 6628   6.074  10.735   7.199 -0.1708  0.4837  0.7153
34377SOL    HW1 6629   6.077  10.698   7.110 -1.3286  0.2835  0.7333
34377SOL    HW2 6630   6.165  10.750   7.222  0.3338 -1.7976  0.4593
34378SOL     OW 6631   9.939   3.192  10.906 -0.6488 -0.2229 -0.3485
34378SOL    HW1 6632   9.926   3.252  10.832  0.4173  0.7439  0.2296
34378SOL    HW2 6633   9.852   3.185  10.945 -0.7874  0.9941 -0.3996
34379SOL     OW 6634   7.853   9.417   4.493 -0.1067 -0.1664 -0.1468
34379SOL    HW1 6635   7.796   9.350   4.531  0.0975 -0.2667 -0.0123
34379SOL    HW2 6636   7.916   9.367   4.441  1.3192 -0.2617  1.5812
34380SOL     OW 6637   5.066   1.150   8.049  0.0798 -0.0565  0.4288
34380SOL    HW1 6638   5.146   1.097   8.049  0.0078 -0.2229  2.2024
34380SOL    HW2 6639   5.061   1.185   7.960  3.1138  1.4283  0.6884
34381SOL     OW 6640   7.247   8.938  10.309 -0.1813  0.1287  0.1333
34381SOL    HW1 6641   7.339   8.942  10.283 -0.1898  0.0254  0.0880
34381SOL    HW2 6642   7.225   9.028  10.332 -0.8111  0.6657 -2.3636
34382SOL     OW 6643   8.861   6.356   9.014 -0.4408 -0.4764 -0.2439
34382SOL    HW1 6644   8.809   6.429   9.050  0.5000 -0.1540  0.4992
34382SOL    HW2 6645   8.905   6.393   8.938 -1.1307 -0.6937 -0.7553
34383SOL     OW 6646   3.196   7.477   7.239 -0.4032  0.0595  0.2215
34383SOL    HW1 6647   3.172   7.566   7.264 -0.4814 -0.0573  0.5693
34383SOL    HW2 6648   3.135   7.421   7.286  0.3043 -0.2216  0.8406
34384SOL     OW 6649   5.565   3.800  10.909  0.2831  0.1372  0.4119
34384SOL    HW1 6650   5.539   3.891  10.917 -1.6965 -0.1902 -1.3166
34384SOL    HW2 6651   5.659   3.800  10.926  0.2994  2.4539  0.5969
34385SOL     OW 6652   3.873   0.168  10.589 -0.0296 -0.2194 -0.0471
34385SOL    HW1 6653   3.959   0.206  10.570  0.6460 -1.5640  0.1655
34385SOL    HW2 6654   3.841   0.217  10.665  0.3313  0.6071 -0.4200
34386SOL     OW 6655   3.319   6.484   1.601 -0.4877 -0.3363 -0.3859
34386SOL    HW1 6656   3.245   6.525   1.646 -0.1301 -0.3665  0.2471
34386SOL    HW2 6657   3.318   6.523   1.513 -0.6508  0.4164 -0.0634
34387SOL     OW 6658   7.058  10.001   4.138 -0.5451 -0.0495  0.2766
34387SOL    HW1 6659   7.143  10.021   4.100 -0.0804 -2.1184  0.1162
34387SOL    HW2 6660   7.075   9.987   4.231 -0.5774 -1.0487  0.1453
34388SOL     OW 6661   4.574   2.850   3.405 -0.0093  0.0264  0.5175
34388SOL    HW1 6662   4.581   2.852   3.500 -0.9771  2.6847  0.6389
34388SOL    HW2 6663   4.599   2.761   3.380  1.5292 -0.3706  3.1252
34389SOL     OW 6664   9.781  10.668  10.816  0.2475  0.1277 -0.2016
34389SOL    HW1 6665   9.777  10.574  10.834  1.6100 -0.7532 -3.7315
34389SOL    HW2 6666   9.867  10.694  10.847 -0.6375  0.6215  2.0288
34390SOL     OW 6667   7.759   6.744   0.564  0.2236 -0.1703  0.1357
34390SOL    HW1 6668   7.850   6.761   0.588  0.8574 -0.2969 -1.9600
34390SOL    HW2 6669   7.751   6.781   0.476 -2.6503  2.6534  1.3869
34391SOL     OW 6670   4.720   4.447   8.766 -0.2962 -0.9825  0.6905
34391SOL    HW1 6671   4.719   4.367   8.714  0.4027 -1.1470  0.9222
34391SOL    HW2 6672   4.740   4.516   8.703  1.1224 -1.2530  0.8122
34392SOL     OW 6673  10.773   6.144   3.243 -0.5718 -0.1836 -0.3776
34392SOL    HW1 6674  10.679   6.159   3.239 -0.8978  0.3559  3.8631
34392SOL    HW2 6675  10.782   6.064   3.294  1.1753  0.6369  0.7119
34393SOL     OW 6676  10.086   0.474   0.893 -0.4919  0.2498  0.0848
34393SOL    HW1 6677  10.037   0.396   0.920 -0.5927  0.2767 -0.0191
34393SOL    HW2 6678  10.095   0.525   0.974 -0.7121  0.2858  0.0880
34394SOL     OW 6679   1.206   2.678   7.678 -0.1085 -0.2521  0.1399
34394SOL    HW1 6680   1.212   2.602   7.736 -0.6053 -1.4054 -1.2451
34394SOL    HW2 6681   1.296   2.709   7.669  0.1087 -0.7073  0.6873
34395SOL     OW 6682   9.346   5.668   9.160 -0.2245 -0.0257  0.4971
34395SOL    HW1 6683   9.410   5.604   9.128  0.2940  1.2397 -1.1062
34395SOL    HW2 6684   9.263   5.641   9.121 -0.2774 -0.5064  0.9388
34396SOL     OW 6685   5.944   9.310   1.999  0.7803 -0.0474 -0.3294
34396SOL    HW1 6686   5.877   9.374   2.020  0.3101 -0.4415 -0.6111
34396SOL    HW2 6687   6.020   9.362   1.974  1.3048  0.4408  2.0323
34397SOL     OW 6688   5.403   1.826   9.391 -0.1579 -0.0901  0.0717
34397SOL    HW1 6689   5.319   1.854   9.428 -0.2705 -1.4782  0.9508
34397SOL    HW2 6690   5.386   1.812   9.298 -0.8074 -0.0204  0.1803
34398SOL     OW 6691   2.984   8.948   6.859 -0.0482  0.3935  0.1467
34398SOL    HW1 6692   3.066   8.924   6.817  1.1037  0.0842  2.4421
34398SOL    HW2 6693   2.963   8.875   6.917 -1.7991  0.6069 -0.1358
34399SOL     OW 6694   2.861   0.147   7.699 -0.3351 -0.0130  0.3451
34399SOL    HW1 6695   2.844   0.072   7.642 -1.7510 -1.7677  2.8691
34399SOL    HW2 6696   2.865   0.110   7.787  2.1819  2.4762  1.4459
34400SOL     OW 6697   0.624   8.603   1.560  0.6278  0.0926 -0.8048
34400SOL    HW1 6698   0.619   8.686   1.511  1.5364  0.0026 -1.0638
34400SOL    HW2 6699   0.604   8.628   1.650  2.4829  0.9043 -0.5709
34401SOL     OW 6700   3.551   4.896   8.334  0.4040  0.0022  0.2670
34401SOL    HW1 6701   3.612   4.899   8.261 -0.4004 -0.9889 -0.4579
34401SOL    HW2 6702   3.539   4.803   8.352 -0.8646  0.1823  0.4211
34402SOL     OW 6703   9.674   7.793   1.342  0.2340 -0.5587 -0.3153
34402SOL    HW1 6704   9.716   7.829   1.264 -0.5856 -0.3875 -0.6871
34402SOL    HW2 6705   9.746   7.774   1.402  1.0570 -2.2100 -1.7287
34403SOL     OW 6706   7.576   1.595   4.223  0.3452 -0.0000 -0.5382
34403SOL    HW1 6707   7.649   1.652   4.194 -0.8893  1.8060 -0.2673
34403SOL    HW2 6708   7.563   1.534   4.150  1.3707  0.4082 -1.0859
34404SOL     OW 6709   2.536   6.827   0.446 -0.3515 -0.0565  0.1994
34404SOL    HW1 6710   2.510   6.884   0.518 -0.8927 -0.5450  0.4003
34404SOL    HW2 6711   2.512   6.739   0.476 -0.1908 -0.3059 -0.4005
34405SOL     OW 6712   6.227   2.861   7.539 -0.2135 -0.4075  0.3679
34405SOL    HW1 6713   6.221   2.858   7.443 -2.0813 -0.6852  0.4481
34405SOL    HW2 6714   6.218   2.770   7.566 -0.0525 -0.2884  0.8342
34406SOL     OW 6715   3.465  10.434   6.741  0.0589 -0.0751  0.0314
34406SOL    HW1 6716   3.549  10.464   6.775 -0.2954  1.0572 -0.0742
34406SOL    HW2 6717   3.473  10.443   6.646 -0.0861 -0.2266  0.0047
34407SOL     OW 6718   8.503   2.469   4.117 -0.1358 -0.0039 -0.1112
34407SOL    HW1 6719   8.578   2.526   4.137  0.3392 -0.7321  0.1968
34407SOL    HW2 6720   8.443   2.526   4.068  0.6004  0.5985 -0.3368
34408SOL     OW 6721   8.111   6.477   8.810 -0.0572  0.4947 -0.3881
34408SOL    HW1 6722   8.184   6.449   8.865 -0.4190 -0.2793 -0.2941
34408SOL    HW2 6723   8.148   6.543   8.752  0.7565 -0.0192 -0.4593
34409SOL     OW 6724   6.320   6.250   3.947  0.5880  0.3941  0.2593
34409SOL    HW1 6725   6.270   6.193   4.005  0.3590 -1.0808 -1.3141
34409SOL    HW2 6726   6.257   6.316   3.918  0.2064  0.0014  0.1908
34410SOL     OW 6727   2.744   5.261   7.640 -0.1491  0.3420  0.1200
34410SOL    HW1 6728   2.778   5.177   7.671  0.4713  0.9854  1.2219
34410SOL    HW2 6729   2.650   5.256   7.658 -0.3410 -0.6199 -1.0337
34411SOL     OW 6730   5.516   5.112   1.466 -0.4179  0.0440  0.2513
34411SOL    HW1 6731   5.505   5.207   1.460  1.9079  0.2869 -1.6627
34411SOL    HW2 6732   5.431   5.080   1.495 -1.0296  2.7535  1.8173
34412SOL     OW 6733   5.404   3.108   7.735  0.0432  0.3615 -0.1726
34412SOL    HW1 6734   5.409   3.070   7.823 -1.3755 -0.5244 -0.4285
34412SOL    HW2 6735   5.463   3.055   7.682 -0.9328 -0.6990 -0.2437
34413SOL     OW 6736   2.002   8.166   7.050  0.3505  0.3053  0.7953
34413SOL    HW1 6737   1.925   8.152   7.105 -0.8069 -1.5167 -1.1167
34413SOL    HW2 6738   2.050   8.083   7.054  1.4919  0.9465  0.8637
34414SOL     OW 6739   8.419   7.336   5.246 -0.3016  0.3418 -0.1996
34414SOL    HW1 6740   8.383   7.247   5.244  0.6255 -0.0367 -0.6001
34414SOL    HW2 6741   8.388   7.376   5.165 -0.5550  0.3204 -0.1149
34415SOL     OW 6742   1.276   3.856   4.513  0.2962 -0.1867 -0.3937
34415SOL    HW1 6743   1.190   3.854   4.471  0.6834 -0.1722 -1.2046
34415SOL    HW2 6744   1.337   3.829   4.445  0.9143 -0.4171  0.2377
34416SOL     OW 6745   4.954   2.618  10.342 -0.3288 -0.1098 -0.6638
34416SOL    HW1 6746   4.945   2.560  10.417 -1.1477 -0.1802 -0.8035
34416SOL    HW2 6747   4.942   2.561  10.266 -0.6193  0.1455 -0.8138
34417SOL     OW 6748   2.191  10.513   3.454  0.2190 -0.0016  0.0143
34417SOL    HW1 6749   2.103  10.543   3.476  0.7705  1.5790  0.1724
34417SOL    HW2 6750   2.249  10.571   3.504  1.3521 -1.2264  0.1674
34418SOL     OW 6751   1.924   1.864   1.745  0.4070 -0.1951  0.4088
34418SOL    HW1 6752   1.897   1.833   1.831  0.3783  0.8684  0.7913
34418SOL    HW2 6753   1.973   1.944   1.762 -0.6203  0.6913 -0.6261
34419SOL     OW 6754   6.870   1.455   5.365  0.4490  0.1008  0.8569
34419SOL    HW1 6755   6.806   1.506   5.316  0.2792  0.2522  1.2290
34419SOL    HW2 6756   6.818   1.408   5.431  0.5565 -0.8502  0.2768
34420SOL     OW 6757   2.320   9.739   8.832  0.2098  0.0005 -0.1397
34420SOL    HW1 6758   2.351   9.665   8.781  1.1494 -0.8693  1.5811
34420SOL    HW2 6759   2.224   9.731   8.829  0.2495 -0.2178 -1.4238
34421SOL     OW 6760   8.288   9.302   5.170  0.3782  0.8205  0.4520
34421SOL    HW1 6761   8.282   9.395   5.148 -0.8373  0.0205 -3.3612
34421SOL    HW2 6762   8.347   9.265   5.105 -0.9682 -1.4292  0.3960
34422SOL     OW 6763   9.549   6.889   1.184 -0.3413  0.2008 -0.2682
34422SOL    HW1 6764   9.623   6.853   1.135 -0.4341  2.4740 -2.2995
34422SOL    HW2 6765   9.483   6.820   1.184  1.3889 -1.5570  0.8227
34423SOL     OW 6766   8.544   6.812   3.533 -0.5825  0.0718 -0.1457
34423SOL    HW1 6767   8.599   6.875   3.581 -0.0242 -0.2829 -0.3023
34423SOL    HW2 6768   8.496   6.865   3.470  0.1531  0.3120 -0.5202
34424SOL     OW 6769   7.941   2.593   9.718  0.0189  0.6885 -0.4839
34424SOL    HW1 6770   7.902   2.680   9.709  0.7635  1.1124  0.2428
34424SOL    HW2 6771   7.920   2.567   9.808 -1.4533 -0.5268 -1.1374
34425SOL     OW 6772  10.549   4.188   5.415 -0.2865  0.1497  0.4386
34425SOL    HW1 6773  10.580   4.218   5.330  2.0696 -0.5080  0.9766
34425SOL    HW2 6774  10.557   4.265   5.472 -0.9060  0.3237  0.2944
34426SOL     OW 6775   6.328  10.929   0.085  0.0665  0.3897 -0.0450
34426SOL    HW1 6776   6.328  10.939   0.180 -1.3990  0.0524  0.0081
34426SOL    HW2 6777   6.386  10.999   0.053  1.1726  0.0444  1.1188
34427SOL     OW 6778   7.131   3.306   4.910  0.9330  0.1005 -0.0846
34427SOL    HW1 6779   7.114   3.216   4.938 -2.3763  0.3832 -0.8078
34427SOL    HW2 6780   7.141   3.300   4.815 -0.2882  0.5738 -0.2575
34428SOL     OW 6781   0.737   0.426   2.366 -0.2266 -0.1988  0.0540
34428SOL    HW1 6782   0.722   0.370   2.290 -0.4266  0.0765 -0.1094
34428SOL    HW2 6783   0.829   0.453   2.358 -0.6060  0.9302 -0.8426
34429SOL     OW 6784   1.789   0.072   0.744  0.1579 -0.0273  0.3137
34429SOL    HW1 6785   1.695   0.092   0.746  0.3780  1.7524 -2.0994
34429SOL    HW2 6786   1.831   0.158   0.751  1.6199 -0.7517  0.7628
34430SOL     OW 6787   0.604   9.536  10.810  0.2954 -0.0161  0.5004
34430SOL    HW1 6788   0.615   9.618  10.859  0.5259 -1.1772  2.4681
34430SOL    HW2 6789   0.516   9.507  10.832  0.8229 -1.1467  1.1952
34431SOL     OW 6790   5.455   1.404   9.463 -0.3991 -0.0619 -0.1355
34431SOL    HW1 6791   5.458   1.311   9.483 -0.4075  0.0830  0.5649
34431SOL    HW2 6792   5.530   1.419   9.404 -0.3058 -0.4756 -0.1206
34432SOL     OW 6793   8.644   6.214   0.102 -0.3637 -0.0484  0.0102
34432SOL    HW1 6794   8.642   6.192   0.009 -2.4810 -1.4861  0.3260
34432SOL    HW2 6795   8.628   6.308   0.105 -0.9290 -0.1002 -1.0653
34433SOL     OW 6796   8.677  10.987   5.005  0.0434  0.6720  0.0405
34433SOL    HW1 6797   8.722  11.037   4.936 -0.7635 -1.2773 -2.0411
34433SOL    HW2 6798   8.733  10.911   5.018 -0.3665  0.5019  0.7912
34434SOL     OW 6799   3.991   4.835  10.908  0.5061  0.3507  0.5517
34434SOL    HW1 6800   3.954   4.780  10.839  1.2254  0.1623  0.3105
34434SOL    HW2 6801   4.015   4.773  10.978  0.5817  0.4455  0.6100
34435SOL     OW 6802   6.194   4.508   4.372  0.4990 -0.2906 -0.0921
34435SOL    HW1 6803   6.110   4.538   4.405  2.0519  3.1447  1.2780
34435SOL    HW2 6804   6.173   4.459   4.293 -2.7645 -0.1547  0.5516
34436SOL     OW 6805   7.545   6.822   4.690 -0.2456  0.2995  0.4060
34436SOL    HW1 6806   7.567   6.822   4.783  0.0371 -0.3982  0.3473
34436SOL    HW2 6807   7.483   6.749   4.680  0.8277 -0.5521 -0.1878
34437SOL     OW 6808   6.456   6.289   3.702 -0.0255  0.1974  0.1660
34437SOL    HW1 6809   6.423   6.262   3.787 -0.8687 -1.8919 -0.7501
34437SOL    HW2 6810   6.533   6.235   3.688 -2.1024 -2.5080 -1.9831
34438SOL     OW 6811   1.311   9.688   9.318  0.4580  0.3684 -0.8508
34438SOL    HW1 6812   1.254   9.764   9.330  0.8885  0.4648  0.9181
34438SOL    HW2 6813   1.277   9.623   9.380  0.5517 -0.6176 -1.8107
34439SOL     OW 6814   5.628   8.209  10.814 -0.2527  0.1576  0.3232
34439SOL    HW1 6815   5.564   8.211  10.743 -2.6221  0.7671  2.3127
34439SOL    HW2 6816   5.685   8.284  10.798 -1.9432  1.4378  0.0481
34440SOL     OW 6817   2.387   2.748  10.823 -0.6704  0.1415 -0.0673
34440SOL    HW1 6818   2.366   2.839  10.844  0.8873  0.5850 -0.3443
34440SOL    HW2 6819   2.457   2.725  10.884 -0.8273 -0.7768 -0.2237
34441SOL     OW 6820   8.624   9.078   3.190  0.0459 -0.4254 -0.2706
34441SOL    HW1 6821   8.700   9.108   3.141  0.0656 -0.3822 -0.2153
34441SOL    HW2 6822   8.549   9.118   3.145  0.0789 -0.2091 -0.1395
34442SOL     OW 6823   9.626   5.936   8.524 -0.2763  0.4077  0.0462
34442SOL    HW1 6824   9.539   5.928   8.484 -0.1779 -1.5829  0.1237
34442SOL    HW2 6825   9.659   6.021   8.494 -1.7747  0.6910 -0.9096
34443SOL     OW 6826   0.631   3.393   4.346  0.0364 -0.1018  0.3222
34443SOL    HW1 6827   0.591   3.314   4.383 -1.2221  0.2577 -0.2138
34443SOL    HW2 6828   0.600   3.464   4.402  1.3912  0.0065  0.9730
34444SOL     OW 6829   4.007   7.063  10.361 -0.2496 -0.2422 -0.5072
34444SOL    HW1 6830   3.912   7.065  10.356 -0.4062 -0.9439  1.2711
34444SOL    HW2 6831   4.037   7.094  10.275 -2.0307  2.7048 -0.1972
34445SOL     OW 6832   1.963   0.330   5.459 -0.0928  0.2963  0.6205
34445SOL    HW1 6833   2.058   0.332   5.445 -0.1196 -1.6043 -0.2141
34445SOL    HW2 6834   1.930   0.405   5.410  0.9257  0.6333  0.4152
34446SOL     OW 6835   5.845   9.084   7.584 -0.6157  0.3261 -0.3947
34446SOL    HW1 6836   5.833   8.990   7.598 -0.9145  0.6050  1.4666
34446SOL    HW2 6837   5.857   9.120   7.672  1.1189  1.8314 -1.1820
34447SOL     OW 6838   6.479  10.989   3.706  0.4317  0.3313  0.2278
34447SOL    HW1 6839   6.456  11.082   3.697 -2.3412 -0.0355  2.2894
34447SOL    HW2 6840   6.575  10.989   3.706  0.5641  2.9355 -1.7253
34448SOL     OW 6841   7.301   8.830   5.581  0.2838  0.0803  0.4667
34448SOL    HW1 6842   7.323   8.857   5.492  0.9699  0.0041  0.6044
34448SOL    HW2 6843   7.360   8.756   5.599 -0.1116 -0.1490  0.8457
34449SOL     OW 6844   6.110   8.728   8.567 -0.1201  0.3874  0.1404
34449SOL    HW1 6845   6.107   8.660   8.635 -0.2782  0.3859  0.1319
34449SOL    HW2 6846   6.103   8.811   8.615  0.8694  0.4311  0.2195
34450SOL     OW 6847   2.387   7.470   6.041  0.1714 -0.2505 -0.5555
34450SOL    HW1 6848   2.382   7.509   5.954  2.1996 -1.6605 -1.3979
34450SOL    HW2 6849   2.301   7.484   6.080 -0.9578 -0.0426 -2.9913
34451SOL     OW 6850  10.030   0.616  10.677  0.1438 -0.3988 -0.2628
34451SOL    HW1 6851  10.005   0.701  10.640 -0.7867 -1.9727 -3.6431
34451SOL    HW2 6852  10.126   0.617  10.676  0.1892  1.1232  1.2397
34452SOL     OW 6853  10.291   2.107   6.271  0.2383  0.1678  0.1573
34452SOL    HW1 6854  10.264   2.152   6.351  0.2260 -1.5205  1.1498
34452SOL    HW2 6855  10.351   2.168   6.228 -1.2789  1.9252  0.4205
34453SOL     OW 6856   1.351   1.529   8.889 -0.0673 -0.2108 -0.1734
34453SOL    HW1 6857   1.266   1.488   8.869  0.0957 -0.4613 -0.3491
34453SOL    HW2 6858   1.335   1.576   8.971 -0.2836 -0.5422 -0.0226
34454SOL     OW 6859   8.748   2.549   0.478  0.2223 -0.1554 -0.5186
34454SOL    HW1 6860   8.746   2.617   0.411 -0.1734  0.3792  0.0167
34454SOL    HW2 6861   8.656   2.535   0.501  0.4029  0.4646  0.6823
34455SOL     OW 6862   1.952   9.618   2.467  0.2708  0.1720  0.1579
34455SOL    HW1 6863   1.933   9.608   2.373  2.2794 -0.6919 -0.1947
34455SOL    HW2 6864   1.938   9.712   2.483 -0.7803  0.2153 -0.8247
34456SOL     OW 6865  10.623   0.193   0.235 -0.5911  0.6746  0.1484
34456SOL    HW1 6866  10.589   0.277   0.265  0.5080  0.7792  1.1743
34456SOL    HW2 6867  10.711   0.188   0.273 -0.5939 -0.8819  0.0072
34457SOL     OW 6868  10.961   7.772   8.733  0.4317 -0.0028  0.6004
34457SOL    HW1 6869  10.979   7.834   8.805  2.1794 -0.2604  0.4282
34457SOL    HW2 6870  11.023   7.796   8.665  0.1579 -1.0499 -0.0370
34458SOL     OW 6871   2.710   0.908   2.405  0.0951  0.5607  0.0231
34458SOL    HW1 6872   2.720   0.998   2.436 -0.5483  0.8568 -0.6043
34458SOL    HW2 6873   2.686   0.917   2.313 -0.9593 -0.2268  0.2016
34459SOL     OW 6874   9.419   4.837   0.368 -0.2868 -0.9189 -0.6238
34459SOL    HW1 6875   9.415   4.916   0.313  1.4639 -0.7628 -0.5819
34459SOL    HW2 6876   9.340   4.789   0.346  0.3255 -0.8727 -3.3348
34460SOL     OW 6877   9.026   2.315   9.647  0.3472 -0.4872 -0.1356
34460SOL    HW1 6878   9.058   2.227   9.630  0.4217 -0.4346 -0.2674
34460SOL    HW2 6879   9.095   2.373   9.615  0.2082 -0.3771 -0.2382
34461SOL     OW 6880   0.906   2.920   1.127  0.4862 -0.3524  0.1305
34461SOL    HW1 6881   0.978   2.977   1.099  0.2337 -0.3126 -0.4433
34461SOL    HW2 6882   0.832   2.944   1.071 -0.0079 -0.3269  0.7805
34462SOL     OW 6883   9.097   5.408   1.931  0.6181 -0.2551 -0.6758
34462SOL    HW1 6884   9.038   5.436   2.001 -0.3955 -0.1705 -1.5596
34462SOL    HW2 6885   9.183   5.404   1.974  0.0019 -0.3438  0.6110
34463SOL     OW 6886   1.665   5.455   4.059  0.2253  0.1084 -0.4384
34463SOL    HW1 6887   1.652   5.365   4.087 -0.1297  0.4707  0.6103
34463SOL    HW2 6888   1.727   5.492   4.122  0.2563  0.6361 -0.7685
34464SOL     OW 6889   3.515   5.820   7.727 -0.1415  0.1232 -0.0480
34464SOL    HW1 6890   3.473   5.905   7.740 -1.2162 -0.5838  1.4580
34464SOL    HW2 6891   3.607   5.841   7.709 -0.4354  1.6086  0.0666
34465SOL     OW 6892   0.471   4.066  10.664 -0.6493  0.0763  0.1483
34465SOL    HW1 6893   0.484   4.161  10.675 -0.0933 -0.1425  1.5414
34465SOL    HW2 6894   0.483   4.030  10.752 -2.3676 -1.1296 -0.0576
34466SOL     OW 6895   1.175   5.086   1.805 -0.2396 -0.2280 -0.0743
34466SOL    HW1 6896   1.243   5.146   1.773  1.1059 -1.9430 -0.5431
34466SOL    HW2 6897   1.208   5.053   1.888  0.2542 -2.2377 -1.0278
34467SOL     OW 6898   9.393   8.966   0.443 -0.7799 -0.6503  0.0664
34467SOL    HW1 6899   9.360   8.995   0.358 -0.8971  0.7007  0.5453
34467SOL    HW2 6900   9.485   8.944   0.426 -1.1021 -1.5044 -0.6367
34468SOL     OW 6901   2.634   0.270   3.660  0.0102 -0.1999  0.1710
34468SOL    HW1 6902   2.603   0.184   3.686 -0.8166 -0.4491 -1.4944
34468SOL    HW2 6903   2.723   0.255   3.628 -0.3195 -0.5333 -0.5987
34469SOL     OW 6904   9.713   6.415  10.538 -0.2816  0.4739 -0.6962
34469SOL    HW1 6905   9.760   6.497  10.524 -0.6125  0.6460 -0.8070
34469SOL    HW2 6906   9.673   6.396  10.453  0.0088  0.0597 -0.7463
34470SOL     OW 6907   1.790   0.802   9.772  0.3198  0.0660 -0.2544
34470SOL    HW1 6908   1.794   0.805   9.677  1.2542  0.7961 -0.2091
34470SOL    HW2 6909   1.721   0.738   9.792  0.1107 -0.0814 -1.4090
34471SOL     OW 6910   8.975   9.569   5.048 -0.0989  0.2539  0.6281
34471SOL    HW1 6911   9.006   9.620   5.123  1.1875  0.8862 -0.3073
34471SOL    HW2 6912   9.018   9.485   5.057  0.9840  0.7230 -0.0118
34472SOL     OW 6913   3.752   2.891   0.167 -0.0039 -0.0423  0.7999
34472SOL    HW1 6914   3.724   2.880   0.076 -0.4879 -0.6932  1.0214
34472SOL    HW2 6915   3.677   2.931   0.211 -0.6476 -1.8347  1.4055
34473SOL     OW 6916   0.740   1.092   0.682  0.6640 -0.0133 -0.6156
34473SOL    HW1 6917   0.752   1.187   0.675  1.4207  0.1774  2.0407
34473SOL    HW2 6918   0.670   1.082   0.747 -0.1989 -1.3021 -1.6876
34474SOL     OW 6919   7.672   1.331   9.058  0.3948 -0.4768 -0.0394
34474SOL    HW1 6920   7.715   1.296   9.136 -0.4733 -0.6728  0.3542
34474SOL    HW2 6921   7.633   1.414   9.087 -0.8911 -1.0939  0.0330
34475SOL     OW 6922   6.128   6.854   2.774  0.3651  0.3775 -0.3331
34475SOL    HW1 6923   6.131   6.764   2.741  2.4372  0.4840 -0.5904
34475SOL    HW2 6924   6.180   6.852   2.854 -1.7666  0.8465  1.1406
34476SOL     OW 6925   2.848   2.712   3.847  0.7190  0.5221 -0.0632
34476SOL    HW1 6926   2.869   2.789   3.900 -0.8710  2.1759 -1.7006
34476SOL    HW2 6927   2.771   2.674   3.889  1.7280 -0.5119  0.9733
34477SOL     OW 6928   8.615   8.939   2.585  0.0568  0.1394  0.0954
34477SOL    HW1 6929   8.526   8.955   2.556  0.3459  0.0050 -0.8950
34477SOL    HW2 6930   8.614   8.960   2.679 -0.3972  2.5892 -0.3871
34478SOL     OW 6931   2.763   9.918   3.196 -0.2961  0.6603 -0.2928
34478SOL    HW1 6932   2.689   9.976   3.218 -0.2107  0.1840  1.4584
34478SOL    HW2 6933   2.739   9.834   3.236  1.6344  0.7895  1.2735
34479SOL     OW 6934   1.046   5.678   8.705  0.1229  0.1080  0.1317
34479SOL    HW1 6935   0.997   5.596   8.707 -0.4902  0.3594 -1.8265
34479SOL    HW2 6936   1.044   5.710   8.795  0.1718 -1.8840  0.8837
34480SOL     OW 6937   0.635   7.546   8.471 -0.0847  0.1117 -0.3078
34480SOL    HW1 6938   0.689   7.477   8.509 -1.9462 -1.0106  0.4619
34480SOL    HW2 6939   0.611   7.602   8.545 -0.3422  0.3185 -0.5430
34481SOL     OW 6940   0.839  10.703   1.433 -0.2828  0.4700 -0.0049
34481SOL    HW1 6941   0.812  10.670   1.519 -0.4408  0.8963  0.1109
34481SOL    HW2 6942   0.766  10.682   1.375  0.0341 -0.2727 -0.1523
34482SOL     OW 6943   9.193   5.770   7.835 -0.0455  0.3647  0.2521
34482SOL    HW1 6944   9.148   5.777   7.919  0.5707  0.1621  0.6061
34482SOL    HW2 6945   9.142   5.826   7.776 -1.2311 -0.5032  0.4244
34483SOL     OW 6946   6.679   0.521   4.021  0.1608  0.9019 -0.7188
34483SOL    HW1 6947   6.700   0.519   4.115 -0.3911  0.5896 -0.5991
34483SOL    HW2 6948   6.745   0.463   3.982  0.4432  1.0943 -0.5391
34484SOL     OW 6949   8.718   3.836   9.395  0.2026  0.0730 -0.7876
34484SOL    HW1 6950   8.813   3.826   9.403  0.2458  1.0710  0.1544
34484SOL    HW2 6951   8.706   3.882   9.311  0.6535  1.0539 -0.3363
34485SOL     OW 6952   0.463  10.309   3.008 -0.0220  0.3068  0.6251
34485SOL    HW1 6953   0.554  10.311   3.038  0.3365 -0.3029 -0.3943
34485SOL    HW2 6954   0.465  10.351   2.922 -0.7537  0.4984  0.6913
34486SOL     OW 6955   5.078  10.637   8.967 -0.2356 -0.1325  0.3353
34486SOL    HW1 6956   5.103  10.707   8.907  0.2968 -0.3122  0.3414
34486SOL    HW2 6957   5.114  10.558   8.928  1.6097 -0.0379  1.7419
34487SOL     OW 6958   3.592   1.768   6.766 -0.4520 -0.5542  0.4862
34487SOL    HW1 6959   3.625   1.691   6.720  1.5537  0.4854  0.0857
34487SOL    HW2 6960   3.585   1.740   6.858 -2.9776 -2.1601 -0.0776
34488SOL     OW 6961   9.875   7.394   8.423  0.8394  0.2974  0.2910
34488SOL    HW1 6962   9.953   7.436   8.460  1.1939  0.7297 -0.8937
34488SOL    HW2 6963   9.847   7.454   8.354  1.4480 -1.4453 -1.5623
34489SOL     OW 6964   4.140   8.565   7.007 -0.3281  0.6946  0.0674
34489SOL    HW1 6965   4.150   8.589   7.099  0.1473 -0.1932  0.2650
34489SOL    HW2 6966   4.045   8.554   6.996 -0.5162  2.1063  0.0864
34490SOL     OW 6967   8.047   9.829   1.574 -0.2641 -0.2884  0.7202
34490SOL    HW1 6968   8.000   9.871   1.646 -1.9771 -0.7763 -0.0562
34490SOL    HW2 6969   8.043   9.892   1.503 -0.1424 -0.5274  0.5005
34491SOL     OW 6970   1.421   8.201   8.358 -0.1936 -0.3751 -0.2756
34491SOL    HW1 6971   1.394   8.292   8.369 -0.7907 -0.7740  2.0871
34491SOL    HW2 6972   1.366   8.169   8.287 -0.0061  1.0770 -1.1164
34492SOL     OW 6973   7.516  10.287   9.096 -0.5835 -0.3623 -0.0160
34492SOL    HW1 6974   7.455  10.238   9.151 -1.5080  0.3560 -0.3874
34492SOL    HW2 6975   7.586  10.224   9.077 -1.8774 -1.6381 -0.7136
34493SOL     OW 6976   6.464   3.698   6.984  0.3298  0.7935 -0.0517
34493SOL    HW1 6977   6.525   3.643   7.032  0.2247  0.7019 -0.0220
34493SOL    HW2 6978   6.518   3.744   6.919  0.7117  2.0434  1.1078
34494SOL     OW 6979   6.580   9.048   3.196  0.2922 -0.0851  0.3442
34494SOL    HW1 6980   6.620   8.964   3.219 -1.2554 -0.7708  0.6490
34494SOL    HW2 6981   6.628   9.112   3.248  2.8465 -0.4559 -1.3617
34495SOL     OW 6982   4.405   9.466   2.522 -0.3526  0.2162  0.6977
34495SOL    HW1 6983   4.494   9.501   2.519 -1.0134  2.1749 -3.1765
34495SOL    HW2 6984   4.416   9.371   2.524  1.7458  0.4195  1.3518
34496SOL     OW 6985   0.635   3.542   3.922  0.0883 -0.1491  0.1906
34496SOL    HW1 6986   0.676   3.457   3.935  1.9454  0.5552 -0.6327
34496SOL    HW2 6987   0.553   3.537   3.971 -0.4997 -2.8341 -0.8819
34497SOL     OW 6988   4.262   7.187   0.779 -0.2851 -0.0776  0.4798
34497SOL    HW1 6989   4.332   7.233   0.732 -0.1863 -0.5846  0.1216
34497SOL    HW2 6990   4.214   7.141   0.710  0.2231 -1.3166  0.9237
34498SOL     OW 6991   6.647   2.093   0.133 -0.2420  0.1322  0.8046
34498SOL    HW1 6992   6.667   2.008   0.173 -0.5050  0.1148  0.9025
34498SOL    HW2 6993   6.587   2.071   0.061  0.1005  0.1801  0.5025
34499SOL     OW 6994   7.073   3.275   4.327 -0.3870 -0.6502 -0.3913
34499SOL    HW1 6995   7.006   3.212   4.301 -1.7581  0.3628  0.5219
34499SOL    HW2 6996   7.088   3.328   4.249 -1.1285 -0.4917 -0.4361
34500SOL     OW 6997   9.625   2.997   4.324 -0.2153 -0.2362 -0.6556
34500SOL    HW1 6998   9.551   2.937   4.332 -1.8924  1.7058 -0.5461
34500SOL    HW2 6999   9.636   3.009   4.230  0.5405 -1.1893 -0.6910
34501SOL     OW 7000   6.238   0.708   9.753  0.3247  0.3259  0.6816
34501SOL    HW1 7001   6.205   0.716   9.843 -0.2513  0.3482  0.4766
34501SOL    HW2 7002   6.247   0.614   9.739  2.2715  0.3790  1.4046
34502SOL     OW 7003   8.772   1.354   6.865  0.2311 -1.1051  0.6900
34502SOL    HW1 7004   8.680   1.377   6.853  0.2225 -1.3705  0.2284
34502SOL    HW2 7005   8.772   1.259   6.876  0.5401 -1.2266 -0.3097
34503SOL     OW 7006   6.810   3.366   4.810 -0.5941 -0.1598 -0.2711
34503SOL    HW1 7007   6.902   3.346   4.830 -0.0009  1.3683 -1.2517
34503SOL    HW2 7008   6.767   3.372   4.895  0.2401 -0.7849  0.2040
34504SOL     OW 7009   6.540   8.883  10.749 -0.1069  0.2399 -0.7472
34504SOL    HW1 7010   6.524   8.904  10.841 -0.4396  0.2859 -0.8114
34504SOL    HW2 7011   6.492   8.801  10.735  0.0077  0.1923 -0.8589
34505SOL     OW 7012   3.507   3.716   4.544  0.0836  0.6588  0.5898
34505SOL    HW1 7013   3.466   3.799   4.522  1.9038  1.3581 -0.4117
34505SOL    HW2 7014   3.472   3.693   4.630 -1.4762  1.7585  0.2766
34506SOL     OW 7015   5.323   8.822   8.101 -0.1004 -0.0596  0.2424
34506SOL    HW1 7016   5.339   8.749   8.041 -0.9059  1.1086 -1.4608
34506SOL    HW2 7017   5.244   8.864   8.067 -0.9572  0.2940  2.4984
34507SOL     OW 7018   5.645   8.458   2.147  0.4777  0.0411 -0.5602
34507SOL    HW1 7019   5.618   8.544   2.114 -0.4365 -0.0630 -0.1166
34507SOL    HW2 7020   5.664   8.473   2.240 -1.0503 -0.5008 -0.1337
34508SOL     OW 7021   6.461   3.448   2.639 -0.4804  0.1246  0.8801
34508SOL    HW1 7022   6.430   3.467   2.550 -2.8957 -0.9511  1.4187
34508SOL    HW2 7023   6.550   3.417   2.627 -0.6678  0.2264 -1.1475
34509SOL     OW 7024   3.416   0.388   5.714  0.9828  0.3437  0.3523
34509SOL    HW1 7025   3.358   0.317   5.741  2.3784 -0.5128  1.2385
34509SOL    HW2 7026   3.398   0.459   5.776  0.9816  0.0280  0.7161
34510SOL     OW 7027   8.084   8.107   2.401 -0.2920  0.2158  0.4093
34510SOL    HW1 7028   8.039   8.185   2.368  0.7952  0.9065  0.5219
34510SOL    HW2 7029   8.095   8.123   2.495  1.5520  0.7831  0.1335
34511SOL     OW 7030   6.922   4.168   8.139  0.3750 -0.1876 -0.6874
34511SOL    HW1 7031   6.837   4.210   8.145  0.8177  0.8427 -1.4873
34511SOL    HW2 7032   6.903   4.078   8.111 -0.3365  0.6450 -3.0806
34512SOL     OW 7033   3.559   6.922   1.269  0.3507 -0.0538 -0.1704
34512SOL    HW1 7034   3.613   6.865   1.215  0.0058 -0.7652  0.2328
34512SOL    HW2 7035   3.530   6.867   1.342 -0.5938  0.4174 -0.1734
34513SOL     OW 7036   6.378   0.135   1.307  0.8826  0.3881 -0.0422
34513SOL    HW1 7037   6.409   0.045   1.319  0.8266  0.1000 -1.7656
34513SOL    HW2 7038   6.447   0.178   1.257 -0.1080  0.6158 -1.2582
34514SOL     OW 7039   7.920   2.315   3.650 -0.5145  0.7848  0.1612
34514SOL    HW1 7040   7.855   2.259   3.608  0.3824 -1.6652  1.8384
34514SOL    HW2 7041   8.003   2.270   3.639  0.5449  2.5998  0.2415
34515SOL     OW 7042   4.302   1.928   3.540  0.3520 -0.1231 -0.3593
34515SOL    HW1 7043   4.208   1.945   3.535  0.5262  0.8007 -0.7556
34515SOL    HW2 7044   4.340   2.011   3.570  1.0490 -0.4667 -0.2650
34516SOL     OW 7045   6.403   4.650  10.956  0.0578 -0.3018 -0.1282
34516SOL    HW1 7046   6.370   4.650  10.866 -1.7958  1.4319  0.4524
34516SOL    HW2 7047   6.343   4.709  11.002  1.4845 -0.4688  2.0531
34517SOL     OW 7048   6.410   3.358  10.989 -0.4262  0.0194 -0.5578
34517SOL    HW1 7049   6.432   3.303  11.064 -2.3524  1.2192  0.9842
34517SOL    HW2 7050   6.458   3.319  10.916 -1.5817 -3.6251  0.4194
34518SOL     OW 7051   7.447  10.037   3.613 -0.2873  0.4556 -0.3566
34518SOL    HW1 7052   7.454  10.117   3.665 -1.7248  1.2042 -1.2353
34518SOL    HW2 7053   7.363  10.045   3.567 -0.8006 -1.8862  0.0364
34519SOL     OW 7054   7.891   2.499   0.331  0.9261 -0.5906 -0.2728
34519SOL    HW1 7055   7.870   2.407   0.348 -0.4886 -0.6685 -2.0975
34519SOL    HW2 7056   7.810   2.546   0.350  1.5601  0.2812  0.3784
34520SOL     OW 7057   3.422   5.046   2.843  0.2286 -0.1075  0.7038
34520SOL    HW1 7058   3.455   4.973   2.896  1.7264 -0.8435 -1.1069
34520SOL    HW2 7059   3.332   5.023   2.823  0.8592 -1.8787 -0.3837
34521SOL     OW 7060   8.544   9.984  10.872 -0.5869 -0.0985 -0.2081
34521SOL    HW1 7061   8.607   9.912  10.878  0.3380  0.7203  0.1237
34521SOL    HW2 7062   8.579  10.051  10.931 -1.6107  0.4949 -0.2585
34522SOL     OW 7063   3.746   8.960   9.665  0.0936  0.1523 -0.4496
34522SOL    HW1 7064   3.652   8.972   9.651  0.0128 -0.8021 -0.8060
34522SOL    HW2 7065   3.756   8.866   9.683  0.8561  0.4151  0.6104
34523SOL     OW 7066   6.129   5.712   4.671  0.0855  0.1277 -0.5970
34523SOL    HW1 7067   6.135   5.617   4.664  0.2979 -0.0541  1.3755
34523SOL    HW2 7068   6.140   5.744   4.582  0.7683 -1.6588 -1.1936
34524SOL     OW 7069  10.932  10.544   2.767  0.0866 -0.0799  0.0304
34524SOL    HW1 7070  10.903  10.457   2.740 -0.9835 -0.0092  0.8742
34524SOL    HW2 7071  10.871  10.569   2.836 -0.4644  1.9114 -1.1054
34525SOL     OW 7072   9.192   1.824   1.919 -0.6676  0.2238 -0.5576
34525SOL    HW1 7073   9.154   1.736   1.918 -1.6352  0.5871  0.9011
34525SOL    HW2 7074   9.280   1.812   1.954 -1.1469 -0.0615  0.5750
34526SOL     OW 7075  10.561   7.620   0.505 -0.3911 -0.0337  0.0809
34526SOL    HW1 7076  10.592   7.617   0.414  0.7652  2.2474  0.3043
34526SOL    HW2 7077  10.598   7.542   0.546 -0.3023 -0.7033 -1.2139
34527SOL     OW 7078   7.287   5.919   2.113  0.5629  0.0683 -0.1771
34527SOL    HW1 7079   7.370   5.960   2.087  1.9041 -0.6667  2.5454
34527SOL    HW2 7080   7.291   5.832   2.074  0.3596  0.5320 -1.2665
34528SOL     OW 7081   7.533   8.831   8.201  0.1550  0.1603 -0.1148
34528SOL    HW1 7082   7.528   8.735   8.200  1.0703  0.0548  1.4991
34528SOL    HW2 7083   7.622   8.850   8.172 -0.0677  0.5373 -0.5528
34529SOL     OW 7084   6.688   6.300   6.694  0.1979  0.1615  0.1537
34529SOL    HW1 7085   6.716   6.389   6.717  2.5132 -0.0204 -1.6187
34529SOL    HW2 7086   6.660   6.261   6.777 -1.3812  2.6652  0.9030
34530SOL     OW 7087   5.201   7.492   0.530  0.6317 -0.2558 -0.4445
34530SOL    HW1 7088   5.282   7.511   0.482  0.6372  0.5221 -0.1366
34530SOL    HW2 7089   5.181   7.573   0.576 -0.1589 -0.5442 -0.2682
34531SOL     OW 7090   3.797   0.313   1.033  0.1166  0.1450 -0.3884
34531SOL    HW1 7091   3.791   0.219   1.044  0.2426  0.1872  0.0394
34531SOL    HW2 7092   3.797   0.349   1.122 -1.2680  0.6386 -0.5578
34532SOL     OW 7093   0.910   2.251   2.817 -0.4886  0.2407 -0.4067
34532SOL    HW1 7094   1.003   2.230   2.810 -0.6219 -0.2502 -0.7581
34532SOL    HW2 7095   0.898   2.327   2.761 -0.7103 -1.0203 -2.1433
34533SOL     OW 7096   4.072   8.437   6.456 -0.6919  0.2228 -0.2068
34533SOL    HW1 7097   4.065   8.531   6.441  1.2379  0.3071 -0.7710
34533SOL    HW2 7098   4.087   8.428   6.550  1.9359  0.7128 -0.5173
34534SOL     OW 7099   4.091   5.458   7.370 -0.2875  0.4290 -0.2343
34534SOL    HW1 7100   4.074   5.410   7.289  0.9748  0.3391 -0.4613
34534SOL    HW2 7101   4.085   5.391   7.438 -0.7242  0.3884 -0.3043
34535SOL     OW 7102   5.925  10.965   4.400 -0.5011  0.4284  0.2299
34535SOL    HW1 7103   6.009  10.924   4.420 -0.8932 -0.6350 -0.2220
34535SOL    HW2 7104   5.863  10.923   4.460 -0.7227  1.1804  0.5377
34536SOL     OW 7105   9.517   4.390   7.917  0.0471  0.7040 -0.0105
34536SOL    HW1 7106   9.611   4.389   7.899  0.0010  2.4578 -0.5221
34536SOL    HW2 7107   9.496   4.300   7.941  1.7836  0.2048 -0.2544
34537SOL     OW 7108  10.518   5.547   2.957 -0.1476 -0.4501  0.7329
34537SOL    HW1 7109  10.493   5.626   2.910  0.1725 -0.5659  0.3582
34537SOL    HW2 7110  10.577   5.501   2.897 -0.6228 -1.1529  0.7915
34538SOL     OW 7111   6.167   8.925  10.862 -0.4599  0.8667  0.2162
34538SOL    HW1 7112   6.255   8.963  10.859 -0.7055  1.4189 -0.3504
34538SOL    HW2 7113   6.158   8.892  10.951  0.2637  0.9468  0.3254
34539SOL     OW 7114  10.889   2.871   0.200  0.1426 -1.0293 -0.3735
34539SOL    HW1 7115  10.928   2.795   0.241 -0.6630 -0.7869  0.9082
34539SOL    HW2 7116  10.813   2.892   0.255 -0.2266  0.0967 -1.2599
34540SOL     OW 7117   8.401   0.213   9.961 -0.1670 -0.0575  0.9824
34540SOL    HW1 7118   8.437   0.126   9.980 -0.1639 -0.1196  0.6988
34540SOL    HW2 7119   8.426   0.266  10.037 -0.6967 -0.4571  1.4410
34541SOL     OW 7120   6.487   4.667   6.127 -0.0936  0.0433  0.3153
34541SOL    HW1 7121   6.431   4.635   6.056 -2.1301  1.6537  1.1083
34541SOL    HW2 7122   6.457   4.620   6.205  0.3003  0.2599  0.6017
34542SOL     OW 7123   1.376   5.663   2.838  0.0499  0.1127 -0.0466
34542SOL    HW1 7124   1.438   5.599   2.870  0.0053  0.0239 -0.1378
34542SOL    HW2 7125   1.429   5.729   2.794  0.1735  0.5820  0.7784
34543SOL     OW 7126   9.815   3.854   2.765  0.0662 -0.0885 -0.1680
34543SOL    HW1 7127   9.882   3.868   2.832  0.9785  0.7289 -1.1990
34543SOL    HW2 7128   9.762   3.933   2.767  0.0433 -0.0983 -0.3475
34544SOL     OW 7129   2.603   0.518   4.132 -0.3698 -0.4349  0.0390
34544SOL    HW1 7130   2.589   0.435   4.087 -0.9358 -0.1257 -0.3661
34544SOL    HW2 7131   2.515   0.547   4.156 -0.3225  0.7958 -1.1826
34545SOL     OW 7132   5.933   9.455   8.172 -0.3125  0.0753 -0.3905
34545SOL    HW1 7133   5.999   9.519   8.146 -0.8597 -0.1871 -2.6507
34545SOL    HW2 7134   5.965   9.371   8.140 -0.7969 -0.3987  0.3164
34546SOL     OW 7135   9.076   0.244  10.847 -0.0676 -0.2457  0.9270
34546SOL    HW1 7136   9.068   0.157  10.810 -1.6720 -0.0392  0.7032
34546SOL    HW2 7137   9.168   0.251  10.873  0.4208 -1.4625 -0.3425
34547SOL     OW 7138   5.352   5.963   7.083 -0.1610  0.1498  0.0547
34547SOL    HW1 7139   5.365   5.909   7.162  0.4936  0.5013  0.1937
34547SOL    HW2 7140   5.432   6.014   7.076  0.7580 -1.4470 -2.0817
34548SOL     OW 7141   7.133   9.355   2.266 -0.0220  0.3140 -0.0901
34548SOL    HW1 7142   7.198   9.425   2.273  0.3623 -0.1141  0.8041
34548SOL    HW2 7143   7.108   9.354   2.174  1.7516  0.0354 -0.6114
34549SOL     OW 7144   1.614  10.889   4.611 -0.5818 -0.2596 -0.0120
34549SOL    HW1 7145   1.566  10.836   4.547  1.1272 -0.4517 -1.2266
34549SOL    HW2 7146   1.651  10.961   4.560 -0.7459  0.6757  1.1402
34550SOL     OW 7147   3.549   6.115   9.797 -0.1149  0.3108 -0.1617
34550SOL    HW1 7148   3.530   6.044   9.737  0.6371 -0.9911  1.0859
34550SOL    HW2 7149   3.644   6.122   9.797 -0.1725  1.3152 -0.2318
34551SOL     OW 7150   8.177   4.402   5.519  0.0971 -0.1655 -0.5518
34551SOL    HW1 7151   8.204   4.418   5.610  1.1141 -1.5671 -0.5866
34551SOL    HW2 7152   8.244   4.446   5.466 -2.3715  3.9009 -0.7863
34552SOL     OW 7153   8.308  10.422   1.893  0.6114  0.0751  0.0668
34552SOL    HW1 7154   8.400  10.408   1.870  0.2249 -0.3176 -1.3183
34552SOL    HW2 7155   8.300  10.517   1.901  1.6706  0.0399  2.6842
34553SOL     OW 7156   8.068  10.915   0.838  0.7887 -0.0302  0.5549
34553SOL    HW1 7157   8.073  11.006   0.869  2.3120  0.1189 -0.0108
34553SOL    HW2 7158   8.160  10.890   0.825  0.3090 -0.7457 -1.8808
34554SOL     OW 7159   4.255   9.954   7.445 -0.7206 -0.0494 -0.3989
34554SOL    HW1 7160   4.269   9.920   7.533 -1.2186 -0.4566 -0.4727
34554SOL    HW2 7161   4.238   9.877   7.392  1.7650 -0.0371 -1.3254
34555SOL     OW 7162   6.439   3.603   4.263  0.0618  0.2930  0.5851
34555SOL    HW1 7163   6.481   3.659   4.198 -0.1274  0.1776  0.3651
34555SOL    HW2 7164   6.345   3.610   4.245  0.0676 -0.5808  0.1581
34556SOL     OW 7165   1.856   7.387   7.013  0.5128  0.5509  0.3230
34556SOL    HW1 7166   1.769   7.416   7.040  0.7900  2.6187 -0.8159
34556SOL    HW2 7167   1.885   7.330   7.084 -1.0968  1.1458  1.5244
34557SOL     OW 7168   9.492   5.990  10.695  0.2281  0.3280 -0.2229
34557SOL    HW1 7169   9.547   6.039  10.633 -1.6051  3.8175  0.6844
34557SOL    HW2 7170   9.551   5.971  10.768  1.7968 -1.7571 -1.9048
34558SOL     OW 7171   8.625   3.241   5.832 -0.3419  0.0752  0.1637
34558SOL    HW1 7172   8.689   3.172   5.850  1.2712  1.5436  0.3456
34558SOL    HW2 7173   8.678   3.313   5.796 -1.8004  1.5857  0.9255
34559SOL     OW 7174   1.964  10.829   4.774  0.5037  0.1049  0.2542
34559SOL    HW1 7175   2.014  10.775   4.837  0.0066 -0.3661  0.2545
34559SOL    HW2 7176   2.014  10.911   4.768  0.4310  0.2565  1.4557
34560SOL     OW 7177   4.246   0.388   4.337  0.1992 -0.6121  0.2558
34560SOL    HW1 7178   4.325   0.368   4.388  1.1882 -0.5700 -1.1895
34560SOL    HW2 7179   4.278   0.443   4.266 -0.9989 -1.2645 -0.8215
34561SOL     OW 7180   5.710   7.836   7.527  0.2248 -0.2359  0.1580
34561SOL    HW1 7181   5.626   7.864   7.563 -0.6143  0.5748 -2.2120
34561SOL    HW2 7182   5.775   7.893   7.569 -0.8927  1.8964 -0.8545
34562SOL     OW 7183   1.130   7.229   2.420 -0.1248 -0.2847  0.5250
34562SOL    HW1 7184   1.120   7.308   2.472  0.1158 -0.8189  1.4054
34562SOL    HW2 7185   1.072   7.165   2.461 -0.9534 -0.3384 -0.6763
34563SOL     OW 7186  10.582   0.671   1.795  0.0972  0.3851  0.1881
34563SOL    HW1 7187  10.557   0.639   1.709 -1.1908  3.1581 -0.5650
34563SOL    HW2 7188  10.504   0.658   1.849  1.1634 -2.1247  1.2731
34564SOL     OW 7189   4.177  10.758   3.529  0.1492  0.4302 -0.3025
34564SOL    HW1 7190   4.161  10.691   3.463 -0.5899  2.7236 -2.6017
34564SOL    HW2 7191   4.096  10.761   3.580  0.5507 -1.0272  0.4910
34565SOL     OW 7192   2.526   8.229   8.594  0.6969 -0.5148  0.0370
34565SOL    HW1 7193   2.598   8.261   8.649  0.5024 -0.7282  0.4157
34565SOL    HW2 7194   2.511   8.300   8.532  1.1262 -0.4002  0.0582
34566SOL     OW 7195   7.384  10.595   0.959 -0.3734 -0.0427 -0.0946
34566SOL    HW1 7196   7.356  10.504   0.970 -1.0366  0.0686 -0.8025
34566SOL    HW2 7197   7.361  10.617   0.869 -1.1122  1.1252  0.3542
34567SOL     OW 7198   2.979   1.701   1.009 -0.0298 -0.2410 -0.3768
34567SOL    HW1 7199   3.035   1.723   1.084 -1.6344 -0.8176  1.0452
34567SOL    HW2 7200   2.922   1.777   0.999  1.0769  0.4409 -1.9664
34568SOL     OW 7201   1.415   2.826   8.371  0.0420  0.2407 -0.1319
34568SOL    HW1 7202   1.367   2.858   8.448  0.3594  0.3770  0.0127
34568SOL    HW2 7203   1.506   2.821   8.401  0.3573  1.4012 -0.8394
34569SOL     OW 7204  10.162   3.515   7.882 -0.2810  0.5684  0.0413
34569SOL    HW1 7205  10.148   3.556   7.967  0.5252 -0.8900  0.9246
34569SOL    HW2 7206  10.109   3.436   7.884  1.1840 -0.4677 -0.0288
34570SOL     OW 7207   8.067   1.445  10.607 -0.3480 -0.2859 -0.2335
34570SOL    HW1 7208   8.049   1.392  10.684  0.0434  0.8623  0.6846
34570SOL    HW2 7209   8.138   1.503  10.633 -1.2150  1.1796 -0.9288
34571SOL     OW 7210   6.277   5.145   7.476  0.1263 -0.2809  0.0699
34571SOL    HW1 7211   6.183   5.133   7.463 -0.0245 -0.7746  1.4509
34571SOL    HW2 7212   6.317   5.105   7.399 -0.8168  1.0993 -1.1798
34572SOL     OW 7213   2.825   4.966   6.504 -0.0992 -0.3490 -0.0726
34572SOL    HW1 7214   2.830   4.913   6.584 -0.2269  0.8051  0.7226
34572SOL    HW2 7215   2.902   4.941   6.453  0.0822 -0.9644  0.5007
34573SOL     OW 7216   3.175   4.098   4.794 -0.4644 -0.5657  0.4812
34573SOL    HW1 7217   3.096   4.068   4.838 -0.9807 -2.9549 -1.7799
34573SOL    HW2 7218   3.143   4.140   4.714  0.4891 -0.9617 -0.1337
34574SOL     OW 7219   3.339   0.631   1.462 -0.1696  0.3574  0.0147
34574SOL    HW1 7220   3.272   0.566   1.480 -1.1979  1.5627  0.7733
34574SOL    HW2 7221   3.407   0.584   1.414 -0.5537 -1.4027  1.1231
34575SOL     OW 7222   6.329   8.677   1.646 -0.0369 -0.5476  0.0945
34575SOL    HW1 7223   6.375   8.698   1.727 -1.1906 -0.4698  0.7362
34575SOL    HW2 7224   6.381   8.607   1.607  1.1659  0.1912  0.3114
34576SOL     OW 7225   9.183   5.640   9.814  0.6308 -0.0424  0.9037
34576SOL    HW1 7226   9.164   5.605   9.726 -0.4856  0.6971  0.8348
34576SOL    HW2 7227   9.201   5.562   9.867  1.7048 -0.4802 -0.0493
34577SOL     OW 7228   9.315   2.256   9.629  0.3794  0.0097  0.0605
34577SOL    HW1 7229   9.380   2.315   9.591 -0.6191  0.1819 -1.4493
34577SOL    HW2 7230   9.274   2.213   9.554  0.8384 -2.4032  1.1058
34578SOL     OW 7231   6.274  10.412   7.863  0.0869 -0.7994 -0.0558
34578SOL    HW1 7232   6.219  10.336   7.847  0.7804 -1.7365  1.7635
34578SOL    HW2 7233   6.342  10.381   7.923 -0.5594  1.6186  2.0849
34579SOL     OW 7234   7.558  10.651   1.797 -0.2097 -0.4005 -0.1269
34579SOL    HW1 7235   7.550  10.660   1.702  1.5226  1.4738 -0.1706
34579SOL    HW2 7236   7.646  10.615   1.810 -0.3940 -0.5362  0.7701
34580SOL     OW 7237   0.528   6.286   8.076 -0.5749  1.1826  0.0552
34580SOL    HW1 7238   0.480   6.361   8.112  0.9872  2.3229 -0.1684
34580SOL    HW2 7239   0.607   6.324   8.038 -0.0679 -0.5169 -0.6628
34581SOL     OW 7240   4.967   3.095   0.052  0.2873  0.1539  0.5238
34581SOL    HW1 7241   4.990   3.054   0.136  0.5217  0.6726  0.7213
34581SOL    HW2 7242   5.021   3.050  -0.012  0.8315  0.4029  0.7920
34582SOL     OW 7243   6.404   0.175   7.051  0.1886 -0.0350 -0.2291
34582SOL    HW1 7244   6.390   0.270   7.058 -0.3703 -0.0155 -1.3099
34582SOL    HW2 7245   6.315   0.139   7.040  0.5305 -0.4194 -2.2781
34583SOL     OW 7246   3.451   0.795   8.172  1.0303 -0.3795 -0.3278
34583SOL    HW1 7247   3.464   0.883   8.205  1.3732  0.6269 -2.9460
34583SOL    HW2 7248   3.364   0.769   8.205  0.8169  1.0114  0.2531
34584SOL     OW 7249   1.407  10.524   6.582 -0.2958  0.2835  0.4815
34584SOL    HW1 7250   1.497  10.542   6.555 -0.0348  2.9452  2.7420
34584SOL    HW2 7251   1.353  10.563   6.514  0.3183  2.3543  1.1323
34585SOL     OW 7252   2.011   0.266   1.965 -0.5635  0.4366 -0.3358
34585SOL    HW1 7253   2.084   0.328   1.971  0.0984 -0.3170 -0.4376
34585SOL    HW2 7254   2.046   0.185   2.001 -0.9893 -0.2538 -1.4282
34586SOL     OW 7255   5.929   5.660   3.540  0.0881 -0.3099  0.3250
34586SOL    HW1 7256   5.904   5.733   3.483  0.9178 -1.2535 -1.3069
34586SOL    HW2 7257   5.845   5.625   3.571 -0.3361  0.9449  0.6447
34587SOL     OW 7258   2.190   2.773   1.740 -0.1969  0.0098  0.6218
34587SOL    HW1 7259   2.118   2.830   1.714 -1.1482 -1.0140  0.9607
34587SOL    HW2 7260   2.212   2.800   1.829  0.1708  0.6347  0.3503
34588SOL     OW 7261  10.872   6.966   7.089 -0.3592 -0.6141 -0.2309
34588SOL    HW1 7262  10.897   6.943   6.999  0.1070  0.1647 -0.3117
34588SOL    HW2 7263  10.783   6.934   7.098 -0.7166  0.0290 -1.2620
34589SOL     OW 7264   4.969   0.185   0.452 -0.4314  0.2229  0.1952
34589SOL    HW1 7265   4.959   0.098   0.413 -0.7855 -0.1892  1.1673
34589SOL    HW2 7266   4.899   0.237   0.414 -1.0686 -0.3031  0.6296
34590SOL     OW 7267   0.018  10.602   1.543 -0.5431 -0.1026 -0.1377
34590SOL    HW1 7268  -0.060  10.557   1.575 -0.2117 -0.9273 -0.4576
34590SOL    HW2 7269   0.081  10.596   1.615 -0.2502 -0.8018 -0.4428
34591SOL     OW 7270   1.342   9.257   3.798  0.3403 -0.4588  0.6506
34591SOL    HW1 7271   1.422   9.216   3.831  0.3831 -1.2421 -0.3962
34591SOL    HW2 7272   1.294   9.187   3.755 -1.2997 -0.1722  1.8980
34592SOL     OW 7273   0.548   0.884   7.572 -0.3137 -0.0422  0.0168
34592SOL    HW1 7274   0.555   0.923   7.659 -0.2991 -0.5969  0.2613
34592SOL    HW2 7275   0.625   0.828   7.564 -0.7861 -0.6979 -0.0048
34593SOL     OW 7276   2.396   2.745   5.892  0.4279 -0.0568  0.0891
34593SOL    HW1 7277   2.373   2.672   5.834  0.0215 -0.9570  1.3537
34593SOL    HW2 7278   2.457   2.797   5.840 -2.4577  1.1032 -2.5393
34594SOL     OW 7279   5.066   5.247   4.149 -0.0275 -0.3095 -0.1815
34594SOL    HW1 7280   5.010   5.233   4.225  0.5331 -1.8186 -0.0165
34594SOL    HW2 7281   5.143   5.293   4.184 -0.5227  0.5340 -0.1681
34595SOL     OW 7282   8.599   2.074  10.969  0.0677 -0.2672  0.5423
34595SOL    HW1 7283   8.508   2.084  10.939 -0.0495 -0.9066  0.6628
34595SOL    HW2 7284   8.591   2.052  11.062  0.3928  0.6682  0.8091
34596SOL     OW 7285   7.897  10.833   6.458  0.3478  0.1724  0.0197
34596SOL    HW1 7286   7.987  10.827   6.489  0.7532  0.6464 -0.9994
34596SOL    HW2 7287   7.905  10.846   6.363 -0.7232  1.9924  0.1178
34597SOL     OW 7288   6.302  10.231   8.639  0.2029  0.7526  0.2763
34597SOL    HW1 7289   6.392  10.262   8.627  0.4849  0.2114  0.9434
34597SOL    HW2 7290   6.270  10.216   8.550 -0.4178  4.1596 -0.2249
34598SOL     OW 7291   1.704   2.866   7.456  0.4089  0.0008 -0.2033
34598SOL    HW1 7292   1.640   2.834   7.520  0.6311 -1.2843 -0.5884
34598SOL    HW2 7293   1.658   2.933   7.406 -1.3161 -2.2021 -1.7308
34599SOL     OW 7294   1.522  10.539   6.111  0.7845  0.5081 -0.0477
34599SOL    HW1 7295   1.498  10.447   6.119  1.3424  0.4320  0.9123
34599SOL    HW2 7296   1.489  10.580   6.191 -1.1575  1.5581 -1.3257
34600SOL     OW 7297   7.520   7.283   0.935 -0.1350 -0.1003  0.1935
34600SOL    HW1 7298   7.563   7.239   1.009  0.5378  1.0752  0.5284
34600SOL    HW2 7299   7.556   7.371   0.935  0.4419 -0.2677 -2.0044
34601SOL     OW 7300   8.059   5.250   2.931  0.5397  0.3496 -0.2351
34601SOL    HW1 7301   8.142   5.296   2.942  0.3544  0.7296 -0.3870
34601SOL    HW2 7302   8.069   5.201   2.850  0.5919  0.4506 -0.2894
34602SOL     OW 7303   5.616   6.834   5.644 -0.6525 -0.1892 -0.0841
34602SOL    HW1 7304   5.709   6.808   5.648 -0.9257 -1.0033  1.8647
34602SOL    HW2 7305   5.571   6.770   5.699 -2.5340 -0.3542 -1.6998
34603SOL     OW 7306   0.153   6.655   2.406 -0.3563  0.2552  0.0540
34603SOL    HW1 7307   0.176   6.575   2.453  0.4560  0.7384  0.5184
34603SOL    HW2 7308   0.059   6.649   2.391 -0.5896 -0.0461  1.5206
34604SOL     OW 7309  10.756   4.964   4.307 -0.6390  0.0046 -0.3214
34604SOL    HW1 7310  10.730   4.927   4.391 -1.0117 -3.0846 -1.6435
34604SOL    HW2 7311  10.836   4.917   4.284 -1.4643 -0.5068 -2.4046
34605SOL     OW 7312   1.139  10.384   6.199  0.0809 -0.8022  0.2093
34605SOL    HW1 7313   1.152  10.349   6.110  1.1000  0.3812 -0.1428
34605SOL    HW2 7314   1.223  10.425   6.220 -0.8633  0.8691  0.8250
34606SOL     OW 7315   1.438   2.678  10.108  0.3753 -0.2358  0.2531
34606SOL    HW1 7316   1.343   2.670  10.105  0.3477  0.2791 -0.6024
34606SOL    HW2 7317   1.470   2.588  10.114 -0.1527 -0.4718 -0.3302
34607SOL     OW 7318   2.566  10.866   5.025 -0.0505 -0.9134  0.5375
34607SOL    HW1 7319   2.561  10.942   5.083 -1.4143 -0.6612  0.1212
34607SOL    HW2 7320   2.476  10.834   5.019 -0.4785  0.4882 -3.2674
34608SOL     OW 7321  10.629   0.127   2.715 -0.6822 -1.0156 -0.0922
34608SOL    HW1 7322  10.577   0.049   2.696 -0.1155 -1.1292 -1.2856
34608SOL    HW2 7323  10.720   0.096   2.718 -0.4789 -0.4560 -0.2547
34609SOL     OW 7324   9.914   1.309   5.885 -0.6483  0.1477 -0.1582
34609SOL    HW1 7325   9.874   1.223   5.893  1.8066 -1.1709 -1.2609
34609SOL    HW2 7326   9.960   1.322   5.968  0.0906 -0.2302 -0.4994
34610SOL     OW 7327   9.081   7.329   7.691 -0.1759  0.0816  0.4387
34610SOL    HW1 7328   9.137   7.309   7.616 -0.5935  0.4732  0.0207
34610SOL    HW2 7329   9.077   7.247   7.740  1.2552  0.1980  0.8031
34611SOL     OW 7330   6.949   6.510   6.299  0.1585 -0.2029  0.1079
34611SOL    HW1 7331   7.044   6.501   6.287  0.0427 -2.2218  0.4247
34611SOL    HW2 7332   6.911   6.453   6.232 -0.8245  0.1271  0.3713
34612SOL     OW 7333   5.837   5.120   3.382 -0.3480 -0.2672 -0.3029
34612SOL    HW1 7334   5.896   5.194   3.372  0.0670 -0.6457 -0.7000
34612SOL    HW2 7335   5.863   5.080   3.466  0.6737 -1.0437 -0.9634
34613SOL     OW 7336   8.037   8.014   1.645  0.1438 -0.0975  0.0061
34613SOL    HW1 7337   8.119   7.966   1.654  0.2443  0.1303  0.3056
34613SOL    HW2 7338   8.057   8.102   1.676 -0.3031 -0.1311  0.3993
34614SOL     OW 7339  10.115   9.363   1.528 -0.2711 -0.1977  0.0378
34614SOL    HW1 7340  10.112   9.341   1.435 -0.3935 -1.4770  0.3287
34614SOL    HW2 7341  10.089   9.455   1.532 -3.1529 -0.8636 -0.9564
34615SOL     OW 7342   8.592   9.576   1.085 -0.2136  0.1752 -0.1501
34615SOL    HW1 7343   8.635   9.559   1.169 -0.6162  0.5686  0.1420
34615SOL    HW2 7344   8.634   9.655   1.052 -1.0906  0.8963  0.4129
34616SOL     OW 7345   2.929   4.089   9.084  0.7792  0.1650  0.3532
34616SOL    HW1 7346   2.895   4.140   9.010  0.0415 -1.6397 -0.6134
34616SOL    HW2 7347   2.870   4.110   9.156  1.8161  2.3490  0.6404
34617SOL     OW 7348   2.307   3.412   3.553 -0.2891  0.2146  0.5129
34617SOL    HW1 7349   2.281   3.357   3.479  2.0981 -0.8113  0.3690
34617SOL    HW2 7350   2.361   3.481   3.514 -1.7281  1.6411  0.9367
34618SOL     OW 7351   4.241  10.461   5.416 -0.2591 -0.2381 -0.1235
34618SOL    HW1 7352   4.242  10.365   5.421 -0.0550 -0.2215  0.1184
34618SOL    HW2 7353   4.285  10.490   5.495  0.1588  0.0507 -0.4604
34619SOL     OW 7354   7.806   8.195   4.662 -0.4801 -0.0960 -0.4482
34619SOL    HW1 7355   7.857   8.271   4.633 -0.4608  0.7183  1.4912
34619SOL    HW2 7356   7.718   8.211   4.628 -0.9548  1.8400  1.4358
34620SOL     OW 7357  10.545   0.106   6.636  0.2509 -0.7150  0.1702
34620SOL    HW1 7358  10.554   0.181   6.695  0.5228  0.4361 -1.2800
34620SOL    HW2 7359  10.634   0.092   6.601  0.0383 -1.1851 -0.1956
34621SOL     OW 7360   3.987   4.814   5.962 -0.0323  0.1225 -0.3404
34621SOL    HW1 7361   3.931   4.764   6.022 -0.8926 -0.9213 -1.9476
34621SOL    HW2 7362   3.958   4.905   5.974 -1.0732 -0.2219 -0.0690
34622SOL     OW 7363   7.576   0.160   5.173  0.4532  0.1767 -0.1876
34622SOL    HW1 7364   7.499   0.104   5.161  0.6653 -0.0788 -0.3707
34622SOL    HW2 7365   7.540   0.247   5.189  0.0933 -0.1813  1.0470
34623SOL     OW 7366   5.022   5.973   0.039  0.5426  0.3025 -0.1040
34623SOL    HW1 7367   5.077   5.965  -0.039 -1.9531  0.6172 -2.0254
34623SOL    HW2 7368   4.942   6.017   0.008 -0.8492 -0.2018  2.4760
34624SOL     OW 7369   6.634   7.344   3.584 -0.6621 -0.0251 -0.4286
34624SOL    HW1 7370   6.643   7.429   3.627  1.2563  0.7976 -2.3177
34624SOL    HW2 7371   6.723   7.309   3.580 -1.2817 -1.6721 -0.6314
34625SOL     OW 7372   4.360   4.638  10.255  0.6171  0.0237  0.3312
34625SOL    HW1 7373   4.451   4.662  10.269  0.7587 -0.8583  0.9881
34625SOL    HW2 7374   4.353   4.624  10.161  1.4263 -0.9424  0.4016
34626SOL     OW 7375   7.404   4.684   7.733 -0.5462  0.2255 -0.1194
34626SOL    HW1 7376   7.497   4.697   7.749 -0.1486 -0.3201 -1.8564
34626SOL    HW2 7377   7.381   4.608   7.787 -0.4080  1.3157  1.5798
34627SOL     OW 7378   8.670   5.067   4.335  0.8673  0.1632  0.1770
34627SOL    HW1 7379   8.711   5.003   4.276  0.2863 -0.8399  0.8450
34627SOL    HW2 7380   8.706   5.048   4.421 -0.6661 -0.4652  0.7043
34628SOL     OW 7381   3.314   0.548   3.395  0.1533  0.3858 -0.0298
34628SOL    HW1 7382   3.372   0.613   3.355  1.2298 -0.1571  0.6009
34628SOL    HW2 7383   3.371   0.496   3.451 -0.6572 -1.2111 -0.6245
34629SOL     OW 7384   6.758  10.496   2.825 -0.0457 -0.4408  0.5641
34629SOL    HW1 7385   6.784  10.435   2.894 -0.8629 -2.0276 -0.4563
34629SOL    HW2 7386   6.829  10.490   2.761 -0.1619 -0.3744  0.4286
34630SOL     OW 7387   3.776   4.022   2.411  0.5898  0.2980  0.5773
34630SOL    HW1 7388   3.816   3.935   2.411  2.0632  0.9215 -0.7249
34630SOL    HW2 7389   3.778   4.049   2.319 -0.8312  1.2814  0.8119
34631SOL     OW 7390   8.637   5.025   9.325 -0.1979 -0.1428 -0.4149
34631SOL    HW1 7391   8.638   4.930   9.318  1.0182 -0.1159 -0.7891
34631SOL    HW2 7392   8.676   5.056   9.243 -1.4111  0.7099 -0.6886
34632SOL     OW 7393   9.354   8.610   6.835  0.0101 -0.2399 -0.0476
34632SOL    HW1 7394   9.341   8.696   6.877  2.4727 -0.1292  0.6293
34632SOL    HW2 7395   9.364   8.549   6.908  1.1914 -0.5901 -0.4830
34633SOL     OW 7396   2.949   2.572   8.047  0.6045 -0.4652 -0.4124
34633SOL    HW1 7397   2.995   2.495   8.013 -0.4082 -1.3891  0.2695
34633SOL    HW2 7398   3.018   2.638   8.057  1.3846 -1.0516 -1.6168
34634SOL     OW 7399   3.804   1.356   7.210 -0.4863  0.0883 -0.2382
34634SOL    HW1 7400   3.782   1.263   7.214  0.7124 -0.3231 -1.8857
34634SOL    HW2 7401   3.796   1.387   7.300 -1.2920 -1.5131  0.2731
34635SOL     OW 7402   0.047  10.993   4.447  0.1764  0.1793  0.0361
34635SOL    HW1 7403  -0.045  11.014   4.432 -0.0074 -1.3627 -1.3048
34635SOL    HW2 7404   0.051  10.965   4.539 -0.3776  1.6721  0.5345
34636SOL     OW 7405   2.311  10.777   0.852 -0.1506  0.1873 -0.2897
34636SOL    HW1 7406   2.307  10.687   0.821  1.7613 -0.3381  0.8283
34636SOL    HW2 7407   2.255  10.778   0.930 -1.5880  0.4564 -1.2860
34637SOL     OW 7408  10.658   6.204   4.127 -0.1963 -0.2486  0.2663
34637SOL    HW1 7409  10.721   6.152   4.178  2.0242  0.3836 -1.6375
34637SOL    HW2 7410  10.638   6.279   4.183 -0.6155 -1.2973  1.5800
34638SOL     OW 7411   7.882  10.571   8.891 -0.2079 -0.3572 -0.2959
34638SOL    HW1 7412   7.789  10.557   8.908 -0.3775  1.5997  0.7456
34638SOL    HW2 7413   7.920  10.484   8.893 -1.8873 -1.1296  0.1733
34639SOL     OW 7414   1.693   5.188   5.115  0.6265 -0.0638  0.0951
34639SOL    HW1 7415   1.604   5.162   5.138  1.1677 -3.8622 -1.3455
34639SOL    HW2 7416   1.682   5.264   5.057 -1.2944  2.1517  3.0697
34640SOL     OW 7417   8.714   6.143   9.079 -0.5675 -0.1932  0.3927
34640SOL    HW1 7418   8.725   6.125   9.172 -0.5548 -0.1597  0.3972
34640SOL    HW2 7419   8.791   6.194   9.055 -2.0237  2.4563  1.0259
34641SOL     OW 7420   8.616   0.904   2.009  0.2156 -0.2889 -0.2215
34641SOL    HW1 7421   8.609   0.820   2.054 -0.3832 -0.2106 -0.1642
34641SOL    HW2 7422   8.708   0.909   1.981  0.2096 -1.0430 -0.3865
34642SOL     OW 7423   1.499   0.179   7.127  0.4000 -0.5331 -0.2790
34642SOL    HW1 7424   1.558   0.112   7.094 -0.1970 -1.2796  0.1505
34642SOL    HW2 7425   1.538   0.262   7.098  1.7269 -0.9976  0.1105
34643SOL     OW 7426   5.004   1.076   7.513  0.4265  0.4193  0.0847
34643SOL    HW1 7427   4.998   1.103   7.421 -0.9943 -0.5130 -0.1328
34643SOL    HW2 7428   4.933   1.123   7.556  0.9200  0.6444  0.6582
34644SOL     OW 7429   4.987   0.366   5.922 -0.2478  0.1423  0.8784
34644SOL    HW1 7430   4.945   0.281   5.908 -2.0590  0.8510  1.7075
34644SOL    HW2 7431   5.067   0.346   5.971 -0.1038 -1.1544  0.1496
34645SOL     OW 7432  10.700   9.188   4.202 -0.2568 -0.3322  0.1712
34645SOL    HW1 7433  10.735   9.099   4.208  1.4971  0.1337 -1.6989
34645SOL    HW2 7434  10.778   9.243   4.188 -1.5028  1.1149 -1.6151
34646SOL     OW 7435   0.779   0.067   3.992  0.5132  0.4883 -0.2798
34646SOL    HW1 7436   0.772   0.162   3.981  1.4969  0.4427 -1.4527
34646SOL    HW2 7437   0.797   0.033   3.905  0.5434 -0.7504  0.1837
34647SOL     OW 7438   6.481   9.024   6.623 -0.0791 -0.0531  0.5606
34647SOL    HW1 7439   6.406   8.972   6.652  2.7278 -3.2974  2.8350
34647SOL    HW2 7440   6.508   8.984   6.541  0.0308  0.1767  0.4821
34648SOL     OW 7441   7.426   8.611   5.583 -0.0724 -0.4992 -0.6099
34648SOL    HW1 7442   7.516   8.644   5.578 -0.5445  0.7368 -1.8975
34648SOL    HW2 7443   7.420   8.546   5.513 -0.9164  1.5683 -2.6279
34649SOL     OW 7444   4.353   1.134   6.959  0.0417  0.2361  0.7699
34649SOL    HW1 7445   4.326   1.123   6.868 -1.8760  1.0483  1.1992
34649SOL    HW2 7446   4.408   1.213   6.959 -1.3975  1.2624  0.5663
34650SOL     OW 7447   1.597   9.905   5.599  0.2645 -0.5415  0.2894
34650SOL    HW1 7448   1.529   9.838   5.588  0.5755 -1.1134  1.5824
34650SOL    HW2 7449   1.550   9.982   5.629 -0.0448 -0.2992 -0.7845
34651SOL     OW 7450   5.626   6.812   8.664  0.1843  0.5641 -0.2234
34651SOL    HW1 7451   5.595   6.744   8.604  2.5294 -0.1809 -0.6910
34651SOL    HW2 7452   5.616   6.774   8.751  1.4635 -0.4200 -0.4807
34652SOL     OW 7453   1.716   4.160  10.759 -0.4719 -0.1320  0.1129
34652SOL    HW1 7454   1.782   4.102  10.796  0.5824  0.6460 -0.5123
34652SOL    HW2 7455   1.703   4.127  10.670  0.6853  1.0129 -0.5031
34653SOL     OW 7456   6.452   7.364   2.698 -0.2602 -0.9452 -0.0933
34653SOL    HW1 7457   6.387   7.322   2.642 -1.9920  0.7947  0.5221
34653SOL    HW2 7458   6.415   7.361   2.786  0.8641 -0.6266  0.4124
34654SOL     OW 7459   6.151   4.078   1.730  0.2738  0.2022 -0.1394
34654SOL    HW1 7460   6.132   4.146   1.666 -0.0957  1.6354  1.4062
34654SOL    HW2 7461   6.224   4.113   1.781  1.9396 -1.8095 -1.0189
34655SOL     OW 7462  10.310   4.339   3.908  0.1489 -0.0177 -0.6416
34655SOL    HW1 7463  10.311   4.312   3.816  0.4525  1.0640 -0.9747
34655SOL    HW2 7464  10.402   4.352   3.930  0.2544 -2.1398  0.4257
34656SOL     OW 7465   7.898   0.736   7.723  0.0514 -0.3570  0.1936
34656SOL    HW1 7466   7.904   0.662   7.783  1.2460 -1.0777 -0.7540
34656SOL    HW2 7467   7.988   0.756   7.701 -0.3232 -1.4377 -2.8532
34657SOL     OW 7468   5.899   3.242   6.940 -0.2135 -0.6323 -0.6444
34657SOL    HW1 7469   5.808   3.222   6.918 -0.5593  0.4134 -0.2778
34657SOL    HW2 7470   5.936   3.278   6.859 -0.8618  1.2209 -0.1655
34658SOL     OW 7471   4.316   8.468   0.933 -0.3555  0.2222 -0.4389
34658SOL    HW1 7472   4.329   8.461   0.838 -0.5556 -1.4073 -0.3614
34658SOL    HW2 7473   4.402   8.448   0.970 -0.4017  0.3572 -0.2562
34659SOL     OW 7474   6.951   5.134   5.885  1.1175  0.0993 -0.3988
34659SOL    HW1 7475   6.977   5.043   5.902 -0.8440 -0.2689  1.1157
34659SOL    HW2 7476   6.972   5.180   5.967 -2.2178 -0.1313  0.7422
34660SOL     OW 7477   5.791   5.846   5.235  0.4039 -0.3826  0.4860
34660SOL    HW1 7478   5.741   5.913   5.188  0.3312 -1.6443 -1.3590
34660SOL    HW2 7479   5.725   5.792   5.279  0.5056  1.2130  2.7358
34661SOL     OW 7480  10.208   1.604   4.862 -0.3350 -0.0663  0.0172
34661SOL    HW1 7481  10.219   1.684   4.913 -0.9462  0.4489 -0.6446
34661SOL    HW2 7482  10.292   1.558   4.871  0.0555  0.6923  0.3114
34662SOL     OW 7483   2.132   9.788   5.042  0.4008  0.1776 -0.3345
34662SOL    HW1 7484   2.136   9.693   5.036  0.1681  0.2543 -2.2601
34662SOL    HW2 7485   2.089   9.805   5.126  0.8179 -1.3853  0.2328
34663SOL     OW 7486   6.402   6.610   6.804  0.2766 -0.5854  0.3745
34663SOL    HW1 7487   6.422   6.545   6.737  1.0540 -1.2232  1.2059
34663SOL    HW2 7488   6.350   6.563   6.868 -1.3150  0.2665 -0.2146
34664SOL     OW 7489   0.084   8.693   3.816 -0.3742  0.1682 -0.3649
34664SOL    HW1 7490   0.132   8.644   3.882 -1.2940  0.3804  0.4862
34664SOL    HW2 7491   0.142   8.767   3.795 -0.3503  0.4855  0.7238
34665SOL     OW 7492   9.370   6.300   1.309  0.3007  0.1429 -0.1199
34665SOL    HW1 7493   9.359   6.344   1.394  0.1126  0.9113 -0.5354
34665SOL    HW2 7494   9.325   6.357   1.247 -0.7577 -1.1145 -0.5379
34666SOL     OW 7495  10.886   7.516   1.546 -0.5491  0.0591 -0.2777
34666SOL    HW1 7496  10.968   7.473   1.525 -0.5763  0.0440 -0.3522
34666SOL    HW2 7497  10.819   7.461   1.506 -0.5400  0.5697 -1.0060
34667SOL     OW 7498   1.352   6.270   7.002 -0.6065  0.3269 -0.5580
34667SOL    HW1 7499   1.357   6.295   7.095  0.6833  0.0218 -0.5223
34667SOL    HW2 7500   1.261   6.288   6.977 -0.6347  1.6655  0.4083
34668SOL     OW 7501   7.192   7.258   5.788 -0.3855  0.3446 -0.3910
34668SOL    HW1 7502   7.121   7.218   5.838 -1.2685  1.1461 -0.9638
34668SOL    HW2 7503   7.196   7.207   5.707  0.5593 -0.4965  0.1652
34669SOL     OW 7504   6.810   1.797   9.726  0.5875 -0.0635 -0.4670
34669SOL    HW1 7505   6.726   1.754   9.712  1.1462 -1.3933  0.1707
34669SOL    HW2 7506   6.788   1.876   9.775 -0.2100 -0.8809  0.5340
34670SOL     OW 7507   3.580   5.427   8.278 -0.2127 -0.4762 -0.2878
34670SOL    HW1 7508   3.534   5.357   8.324  1.9181 -2.1187 -0.5259
34670SOL    HW2 7509   3.596   5.493   8.345 -1.3066 -0.6753  0.1916
34671SOL     OW 7510   1.570   3.734   7.443 -0.6352  0.2487 -0.4155
34671SOL    HW1 7511   1.617   3.696   7.517 -1.1336 -0.7549 -0.5979
34671SOL    HW2 7512   1.634   3.737   7.372 -1.2341 -2.9093 -1.2596
34672SOL     OW 7513   2.833   0.654   4.047  0.4565  0.4350  0.0677
34672SOL    HW1 7514   2.753   0.610   4.076  0.3578  1.4556  1.4254
34672SOL    HW2 7515   2.894   0.582   4.029 -0.3798 -0.3188  0.1387
34673SOL     OW 7516   2.554   4.052   2.315  0.2333  0.0271  0.0898
34673SOL    HW1 7517   2.526   4.142   2.299 -0.8573  0.6415  4.2756
34673SOL    HW2 7518   2.648   4.059   2.335  0.9895 -0.3926 -2.8613
34674SOL     OW 7519   7.794  10.419   3.357 -0.4062  0.4065  0.0948
34674SOL    HW1 7520   7.817  10.460   3.274  1.0161 -1.3248 -0.4037
34674SOL    HW2 7521   7.714  10.370   3.339  0.5522 -0.9383 -0.5989
34675SOL     OW 7522   7.699   6.777   2.137  0.2481 -0.1438 -0.4445
34675SOL    HW1 7523   7.771   6.811   2.083 -0.0979  0.7689 -0.3552
34675SOL    HW2 7524   7.663   6.855   2.180 -0.6684 -0.6119 -0.3383
34676SOL     OW 7525  10.403   5.608   0.630  0.0476 -0.5090  0.1900
34676SOL    HW1 7526  10.487   5.644   0.657 -0.0765 -0.3915  0.4167
34676SOL    HW2 7527  10.394   5.527   0.681 -0.9623  0.5591  1.7997
34677SOL     OW 7528   4.159   2.514   3.025  0.0631 -0.0120 -0.0463
34677SOL    HW1 7529   4.130   2.424   3.012 -0.9756  0.1940  0.7176
34677SOL    HW2 7530   4.251   2.514   2.999 -0.2346 -1.0169 -1.1847
34678SOL     OW 7531   6.768   3.372   0.627 -0.3223  0.5525  0.1276
34678SOL    HW1 7532   6.792   3.458   0.593 -2.2419  0.6979 -0.9871
34678SOL    HW2 7533   6.700   3.389   0.692 -1.5203 -0.1441 -0.8898
34679SOL     OW 7534   5.766   6.164   2.842  0.3467 -0.4106 -0.0572
34679SOL    HW1 7535   5.785   6.101   2.772  2.1137 -1.6767  1.4539
34679SOL    HW2 7536   5.850   6.204   2.863  0.2631 -1.3534  2.4688
34680SOL     OW 7537   7.112   2.252   6.980  0.0220  0.1460  0.0207
34680SOL    HW1 7538   7.166   2.258   7.058  0.0324 -0.7064  0.0975
34680SOL    HW2 7539   7.058   2.174   6.995 -0.7258  0.5837 -0.3613
34681SOL     OW 7540   6.173   7.823   4.152 -0.1679  0.3064 -0.1307
34681SOL    HW1 7541   6.171   7.752   4.217  1.9408 -2.0928 -2.4450
34681SOL    HW2 7542   6.097   7.806   4.096  1.4934 -1.6396 -1.9743
34682SOL     OW 7543  10.507   0.702   4.228  0.0841  0.1856 -0.3844
34682SOL    HW1 7544  10.500   0.697   4.323 -1.9695  1.9547 -0.3589
34682SOL    HW2 7545  10.601   0.712   4.211  0.4258  0.5227  1.5072
34683SOL     OW 7546   5.045   8.227   2.112  0.1419 -0.5171 -0.1854
34683SOL    HW1 7547   5.046   8.161   2.044  0.5390  1.7199 -2.5011
34683SOL    HW2 7548   5.126   8.213   2.161  1.2413 -0.5263 -1.9313
34684SOL     OW 7549  10.599   7.088   5.802  0.2398 -0.3850  0.0329
34684SOL    HW1 7550  10.602   7.142   5.723 -1.5941  0.7530  0.6879
34684SOL    HW2 7551  10.644   7.140   5.869  1.0688 -0.9931 -0.0290
34685SOL     OW 7552   3.353   6.824   2.518 -0.1946 -0.0250 -0.1276
34685SOL    HW1 7553   3.299   6.749   2.543 -1.2907  0.7354 -0.1180
34685SOL    HW2 7554   3.378   6.864   2.602 -0.7353  0.3824 -0.1584
34686SOL     OW 7555   7.494   0.551   0.087 -0.3020 -0.0243 -0.2287
34686SOL    HW1 7556   7.563   0.588   0.033  0.2045  0.1116  0.5029
34686SOL    HW2 7557   7.505   0.592   0.172 -1.7245  0.5286 -0.2814
34687SOL     OW 7558   4.529   4.173   2.180 -0.3988 -0.4866  0.9766
34687SOL    HW1 7559   4.501   4.265   2.184 -1.0581 -0.6181 -0.1158
34687SOL    HW2 7560   4.572   4.157   2.264  1.5193  1.3798  0.4306
34688SOL     OW 7561   2.353   3.900   2.954 -0.5582  0.3307  0.3170
34688SOL    HW1 7562   2.304   3.862   3.027  0.3663 -0.3542  0.6016
34688SOL    HW2 7563   2.310   3.866   2.876 -0.5545 -0.2527  0.5633
34689SOL     OW 7564   6.712   4.296   2.778  0.4744 -0.3461  0.1302
34689SOL    HW1 7565   6.748   4.356   2.712 -0.0017  0.6482  0.7428
34689SOL    HW2 7566   6.698   4.214   2.731  2.4014 -0.4090 -0.4087
34690SOL     OW 7567  10.888   8.936   6.949  0.2125  0.1447  0.2893
34690SOL    HW1 7568  10.970   8.937   6.900  0.2344  1.7080  0.3177
34690SOL    HW2 7569  10.914   8.959   7.039 -0.1152 -0.5172  0.5593
34691SOL     OW 7570   6.568   0.870   8.207  0.5471  0.0708 -0.2162
34691SOL    HW1 7571   6.504   0.927   8.164 -1.8402 -1.5001  1.0024
34691SOL    HW2 7572   6.556   0.785   8.164  2.5727 -0.0860 -0.5959
34692SOL     OW 7573   3.477   6.084   2.379  0.4370  0.0321 -0.3232
34692SOL    HW1 7574   3.510   6.155   2.324  1.5180  0.2930  0.6249
34692SOL    HW2 7575   3.408   6.125   2.431  0.8388  0.3214 -0.0071
34693SOL     OW 7576   2.437  10.496   5.899  0.1994  0.2742  0.7494
34693SOL    HW1 7577   2.415  10.571   5.954  1.5720  0.4672  1.0799
34693SOL    HW2 7578   2.527  10.513   5.870  0.2818 -0.8988  0.2633
34694SOL     OW 7579   2.631   6.362   3.278 -0.1975 -0.2514  0.3237
34694SOL    HW1 7580   2.552   6.412   3.256  0.9086  2.0978  1.3550
34694SOL    HW2 7581   2.621   6.279   3.230 -2.7194  0.4167 -0.4739
34695SOL     OW 7582   3.278   7.885   0.590 -0.5272  0.0629  0.2359
34695SOL    HW1 7583   3.333   7.847   0.521 -0.5180 -0.8143  0.7094
34695SOL    HW2 7584   3.300   7.979   0.589  0.7780 -0.2203  0.2238
34696SOL     OW 7585   8.949   7.268   3.778  0.4961 -0.7053 -0.2454
34696SOL    HW1 7586   8.979   7.333   3.842  1.1648 -0.5753 -0.6863
34696SOL    HW2 7587   9.019   7.202   3.777  0.7967 -0.3823 -1.3150
34697SOL     OW 7588  10.186   0.314   6.015  0.2205 -0.5739 -0.3821
34697SOL    HW1 7589  10.223   0.401   5.999  2.6934 -1.5962 -0.6867
34697SOL    HW2 7590  10.125   0.327   6.087 -0.0288  1.5269 -0.8945
34698SOL     OW 7591   9.387   6.060   6.834  0.2275  0.3237 -0.0771
34698SOL    HW1 7592   9.430   5.975   6.823  0.3908  0.4416 -0.3601
34698SOL    HW2 7593   9.317   6.060   6.769  0.3746  0.4985 -0.2379
34699SOL     OW 7594   4.248   7.826   5.811  0.2559  0.1246 -0.5691
34699SOL    HW1 7595   4.172   7.823   5.753  1.1892  0.9016 -1.8892
34699SOL    HW2 7596   4.276   7.735   5.818  1.2590  0.1462 -2.9918
34700SOL     OW 7597   6.427   5.183   7.048 -0.1136  0.0627 -0.1184
34700SOL    HW1 7598   6.518   5.160   7.065 -0.3987 -1.1927 -0.1912
34700SOL    HW2 7599   6.418   5.177   6.953 -0.1645  0.6822 -0.1632
34701SOL     OW 7600   1.656   1.602   0.564  0.3700  0.0048  0.1382
34701SOL    HW1 7601   1.661   1.591   0.469  0.6185 -2.2340  0.3510
34701SOL    HW2 7602   1.747   1.602   0.593  0.3064  1.0708  0.3498
34702SOL     OW 7603   9.035   0.387   9.180 -0.1864 -0.2309 -0.2933
34702SOL    HW1 7604   9.105   0.360   9.240 -1.0007  1.1172  1.3667
34702SOL    HW2 7605   9.070   0.465   9.137 -0.4079  0.0773  0.0742
34703SOL     OW 7606   3.148   2.769  10.017 -0.2614  0.1945  0.3516
34703SOL    HW1 7607   3.141   2.760   9.922 -0.0860 -0.4032  0.3978
34703SOL    HW2 7608   3.231   2.815  10.031 -0.6403  0.9578  0.1844
34704SOL     OW 7609   8.489   5.625   5.107  0.1232 -0.0917 -0.3051
34704SOL    HW1 7610   8.444   5.543   5.086 -0.0428  0.0043 -0.3264
34704SOL    HW2 7611   8.519   5.614   5.197 -0.9573  0.2930  0.1217
34705SOL     OW 7612   8.107   3.929  10.688  0.0788  0.1864  0.1721
34705SOL    HW1 7613   8.142   3.965  10.770  0.4387  0.4307 -0.0898
34705SOL    HW2 7614   8.018   3.966  10.682 -0.4017 -0.7764  1.0527
34706SOL     OW 7615   1.453   2.709   1.295 -0.2075 -0.2502  0.5834
34706SOL    HW1 7616   1.401   2.685   1.219 -1.3758 -1.9426  1.8216
34706SOL    HW2 7617   1.524   2.644   1.297 -0.3725 -0.4184  1.1053
34707SOL     OW 7618   5.723  11.005   3.789  0.1113 -0.2934  0.1992
34707SOL    HW1 7619   5.726  11.002   3.693  0.2640 -0.8617  0.2146
34707SOL    HW2 7620   5.699  10.915   3.814  0.8079 -0.3333  0.7224
34708SOL     OW 7621   6.103   0.517   5.003  0.1560  0.1569 -0.5344
34708SOL    HW1 7622   6.095   0.489   5.094  0.8120 -2.2693 -1.1682
34708SOL    HW2 7623   6.164   0.591   5.006 -0.4952  0.6734  1.0524
34709SOL     OW 7624   0.801   7.743   3.758 -0.2884 -0.2452  0.1493
34709SOL    HW1 7625   0.707   7.735   3.778 -0.4649 -0.3282 -0.6782
34709SOL    HW2 7626   0.805   7.801   3.682  0.1831 -1.6602 -0.9556
34710SOL     OW 7627   1.960   7.769   5.641  0.2278 -0.8147 -0.3701
34710SOL    HW1 7628   1.883   7.747   5.588 -0.1589  0.8085 -0.5177
34710SOL    HW2 7629   1.963   7.700   5.707  0.2643 -2.4552 -1.9793
34711SOL     OW 7630   3.227   3.291  10.514  0.4632 -0.4614 -0.6473
34711SOL    HW1 7631   3.232   3.318  10.606  4.8619 -0.7311 -0.5793
34711SOL    HW2 7632   3.263   3.365  10.465 -1.1143 -0.6263 -2.1709
34712SOL     OW 7633   4.544   3.592   3.474  0.0791 -0.1883 -0.0431
34712SOL    HW1 7634   4.638   3.602   3.490 -0.1616  1.2843  0.6599
34712SOL    HW2 7635   4.514   3.682   3.458 -1.1782 -0.6677 -0.4206
34713SOL     OW 7636   3.132   6.163  10.914  0.3880  0.1277 -1.1412
34713SOL    HW1 7637   3.082   6.082  10.927  0.9471  0.0616  1.0807
34713SOL    HW2 7638   3.187   6.146  10.838  1.2950 -2.0573 -0.0915
34714SOL     OW 7639  10.619   7.861   0.212  0.7192  0.2069  0.1999
34714SOL    HW1 7640  10.591   7.776   0.179 -2.0744  0.7186  1.0049
34714SOL    HW2 7641  10.638   7.912   0.134 -3.6150  0.6995 -0.8056
34715SOL     OW 7642   4.507   6.409   5.803 -0.1705  0.0887 -0.7444
34715SOL    HW1 7643   4.412   6.397   5.808  0.0795 -1.7133  0.8862
34715SOL    HW2 7644   4.542   6.320   5.804  1.5594  0.7394 -0.5132
34716SOL     OW 7645   8.310   0.202   3.311  0.4332  0.2801  0.8635
34716SOL    HW1 7646   8.354   0.287   3.311  0.2545  0.4178 -0.8906
34716SOL    HW2 7647   8.243   0.210   3.243  0.3794 -1.2346  0.6948
34717SOL     OW 7648   1.911   2.509   7.615  0.7967 -0.3872  0.3954
34717SOL    HW1 7649   1.946   2.422   7.636  3.7362  0.6524  0.2247
34717SOL    HW2 7650   1.985   2.557   7.578 -0.2382  2.7360  1.9675
34718SOL     OW 7651   7.299   8.362   9.993 -0.7968 -0.1841  0.8477
34718SOL    HW1 7652   7.211   8.335  10.020 -1.6476  0.3561 -1.2200
34718SOL    HW2 7653   7.302   8.456  10.014 -1.5069  0.2664 -0.9215
34719SOL     OW 7654   7.712   7.968   4.867 -0.0239 -0.1780 -0.0417
34719SOL    HW1 7655   7.740   7.928   4.949  0.5564  1.6402  0.6866
34719SOL    HW2 7656   7.618   7.950   4.863 -0.4013  1.0598  1.8676
34720SOL     OW 7657  10.905   8.046   3.679  0.0248  0.7056  0.4686
34720SOL    HW1 7658  10.887   8.100   3.602 -0.3192  0.1072  0.1218
34720SOL    HW2 7659  10.966   8.098   3.731  0.8217  0.8185 -0.5556
34721SOL     OW 7660   7.548   1.753  10.491  0.2012 -0.0983  0.0181
34721SOL    HW1 7661   7.498   1.673  10.477  0.6177 -0.4799  0.6284
34721SOL    HW2 7662   7.504   1.819  10.438  0.3907 -0.9325 -1.2064
34722SOL     OW 7663   1.262   6.363   3.415 -0.4978 -0.0969 -1.3164
34722SOL    HW1 7664   1.198   6.341   3.348 -0.9350  1.8681 -1.6082
34722SOL    HW2 7665   1.339   6.393   3.366  0.2396 -1.3040 -0.9486
34723SOL     OW 7666  10.756   9.862   1.909  0.5366  0.3481 -0.1779
34723SOL    HW1 7667  10.848   9.839   1.892 -0.0865 -1.9620 -0.7183
34723SOL    HW2 7668  10.708   9.829   1.833 -1.0036 -0.6324  1.1476
34724SOL     OW 7669   7.791   3.844   7.194 -0.1442 -0.3853 -0.3131
34724SOL    HW1 7670   7.805   3.879   7.282 -0.9263 -2.6013  0.7830
34724SOL    HW2 7671   7.878   3.846   7.153 -0.3103  3.7421 -0.8258
34725SOL     OW 7672   5.290   9.654   2.441 -0.1901  0.2144 -0.9828
34725SOL    HW1 7673   5.205   9.637   2.482  0.1707 -1.4246 -0.8552
34725SOL    HW2 7674   5.344   9.689   2.512 -0.4762  0.3166 -0.8168
34726SOL     OW 7675   8.212   1.538   4.456  0.0846  0.6699 -0.8668
34726SOL    HW1 7676   8.232   1.479   4.384 -0.2679 -1.6859  0.8256
34726SOL    HW2 7677   8.128   1.576   4.433 -1.9279 -2.9088 -0.1787
34727SOL     OW 7678  10.883   9.742   5.295 -0.0280  0.5340  0.4576
34727SOL    HW1 7679  10.821   9.727   5.366 -0.2744 -2.0917 -0.1980
34727SOL    HW2 7680  10.956   9.683   5.313  0.5896  0.9052 -0.6974
34728SOL     OW 7681   5.260   2.577   1.033  0.0217  0.1478 -0.2016
34728SOL    HW1 7682   5.277   2.484   1.021  1.7474  0.4605 -0.4901
34728SOL    HW2 7683   5.297   2.618   0.955  0.1419  1.1495  0.3688
34729SOL     OW 7684   7.731   8.010   2.210  0.3328  0.3786  0.7244
34729SOL    HW1 7685   7.642   8.014   2.175  0.5997 -2.1925 -0.4586
34729SOL    HW2 7686   7.719   7.993   2.303 -0.5206 -1.8836  0.2820
34730SOL     OW 7687   3.646   2.227   9.254 -0.6352  0.3658 -0.0130
34730SOL    HW1 7688   3.711   2.219   9.323 -0.1925 -0.8559 -0.5516
34730SOL    HW2 7689   3.631   2.322   9.246  1.3469  0.7115 -0.1324
34731SOL     OW 7690   7.820   0.075   5.274 -0.3417  0.5400  0.5373
34731SOL    HW1 7691   7.748   0.111   5.222  1.7909  0.7092 -2.6191
34731SOL    HW2 7692   7.895   0.131   5.253  0.9703 -0.1669  2.9540
34732SOL     OW 7693  10.375  10.454   4.873  0.1938  0.1410  0.0403
34732SOL    HW1 7694  10.420  10.402   4.940  0.6356 -0.7542 -0.9385
34732SOL    HW2 7695  10.283  10.427   4.880  0.3429 -0.4208 -0.1426
34733SOL     OW 7696   2.483   3.702   5.616  0.5561 -0.1262 -0.1565
34733SOL    HW1 7697   2.493   3.702   5.711 -0.7796 -0.1161  0.0019
34733SOL    HW2 7698   2.548   3.765   5.584 -0.0836  1.1049  0.8883
34734SOL     OW 7699   7.938   3.792   1.887  0.2940  0.6504  0.2654
34734SOL    HW1 7700   7.982   3.711   1.912 -0.3591  0.3590  0.4768
34734SOL    HW2 7701   7.908   3.830   1.970 -0.8313  0.2839  0.0385
34735SOL     OW 7702   1.631   8.604   1.237 -0.7332  0.3501 -0.2265
34735SOL    HW1 7703   1.639   8.675   1.300 -0.9750  0.4684 -0.3258
34735SOL    HW2 7704   1.538   8.583   1.237 -0.5647 -0.4541  0.3328
34736SOL     OW 7705   2.169   2.550   4.813 -0.5017 -0.3022  0.4857
34736SOL    HW1 7706   2.131   2.577   4.729  0.8226 -0.9973 -0.3649
34736SOL    HW2 7707   2.163   2.628   4.868 -1.3189  0.1879 -0.2692
34737SOL     OW 7708   8.232   7.958   8.443  0.0411  0.2009 -0.6762
34737SOL    HW1 7709   8.162   7.937   8.381 -1.2640 -0.0732  0.8575
34737SOL    HW2 7710   8.279   8.030   8.401 -1.5792  0.8714 -1.4310
34738SOL     OW 7711   9.392  10.230   6.396 -0.1825 -0.2061  0.0582
34738SOL    HW1 7712   9.396  10.155   6.336  1.0808 -0.0357 -0.1027
34738SOL    HW2 7713   9.302  10.229   6.430 -0.4130 -1.3251 -0.5280
34739SOL     OW 7714   2.904   6.208   1.841  0.4734 -0.0472  0.1957
34739SOL    HW1 7715   2.892   6.196   1.747  1.2967  0.2770  0.0358
34739SOL    HW2 7716   2.829   6.260   1.868  0.8119  0.8484 -0.5114
34740SOL     OW 7717   4.118   8.526   1.097 -0.2219  0.0616 -0.3044
34740SOL    HW1 7718   4.182   8.502   1.030 -1.5902 -1.4404 -1.1258
34740SOL    HW2 7719   4.034   8.499   1.062 -1.1059  0.1271  1.6117
34741SOL     OW 7720   4.208   4.401   2.077 -0.2071  0.0414  0.7137
34741SOL    HW1 7721   4.288   4.393   2.026 -0.6364 -0.6755  0.1351
34741SOL    HW2 7722   4.184   4.311   2.099 -1.6239  0.1339 -0.3313
34742SOL     OW 7723   6.699   8.083   5.016 -0.5749 -0.1138  0.0330
34742SOL    HW1 7724   6.645   8.014   5.055  0.0506 -1.3756 -1.2055
34742SOL    HW2 7725   6.639   8.156   5.002 -1.6307 -0.9545  0.0155
34743SOL     OW 7726  10.308   1.225   0.886  0.6199  0.3150 -0.1688
34743SOL    HW1 7727  10.318   1.248   0.794  2.2593 -0.1776 -0.1317
34743SOL    HW2 7728  10.261   1.142   0.885 -2.3211  1.8403 -0.4019
34744SOL     OW 7729   8.614   2.031   6.313  0.0201  0.0978  0.2930
34744SOL    HW1 7730   8.586   2.028   6.405  1.0272 -1.3659  0.5810
34744SOL    HW2 7731   8.632   1.940   6.290 -0.1849  0.4415 -1.3700
34745SOL     OW 7732   2.221   4.109   2.822 -0.6208  0.6555 -0.1317
34745SOL    HW1 7733   2.294   4.082   2.877  0.0675 -0.3678 -1.4849
34745SOL    HW2 7734   2.259   4.120   2.735 -1.8734  1.1964 -0.6415
34746SOL     OW 7735  10.933  10.838  10.204 -0.3093  0.1294  0.7766
34746SOL    HW1 7736  10.957  10.746  10.197  0.8577  0.3801  1.2413
34746SOL    HW2 7737  10.980  10.881  10.132 -1.6946  0.2294 -0.1123
34747SOL     OW 7738   9.179   6.104   4.875  0.1261 -0.8381 -0.8168
34747SOL    HW1 7739   9.147   6.175   4.819  0.9288  0.9693  0.8677
34747SOL    HW2 7740   9.116   6.100   4.947  1.6596  0.3494  0.6934
34748SOL     OW 7741   0.136   7.752   1.506 -0.2915 -0.0814  0.3255
34748SOL    HW1 7742   0.177   7.674   1.470  0.2600  0.1027  0.5355
34748SOL    HW2 7743   0.169   7.757   1.596 -0.5914  0.2041  0.4233
34749SOL     OW 7744   2.771   1.896   6.082  0.0038 -0.2636  0.1507
34749SOL    HW1 7745   2.686   1.907   6.040  0.8715 -1.0256 -1.8979
34749SOL    HW2 7746   2.807   1.985   6.087  0.4718 -0.2853 -2.0818
34750SOL     OW 7747  10.962   5.282   8.052  0.0195  0.4689 -0.5187
34750SOL    HW1 7748  10.934   5.192   8.065 -0.8206  0.7066 -0.6237
34750SOL    HW2 7749  11.006   5.282   7.967  1.3077 -0.1194  0.1102
34751SOL     OW 7750   5.340   4.694   6.217  0.1671  0.1055 -0.6502
34751SOL    HW1 7751   5.286   4.630   6.264  1.5226  0.2017  1.1898
34751SOL    HW2 7752   5.280   4.765   6.196 -0.8248 -0.6354 -0.4112
34752SOL     OW 7753   9.305   7.889   9.209  0.1848 -0.5618  0.1004
34752SOL    HW1 7754   9.313   7.941   9.289  1.2059 -1.2339  0.4537
34752SOL    HW2 7755   9.386   7.905   9.162 -0.1644 -0.6246 -0.5374
34753SOL     OW 7756   7.598   8.744   3.280  0.7208  0.4281 -0.1371
34753SOL    HW1 7757   7.549   8.813   3.325  1.1424  0.2143  0.6667
34753SOL    HW2 7758   7.557   8.738   3.193 -1.5564 -0.6455  0.9252
34754SOL     OW 7759   1.298   6.246   8.994 -0.0642  0.0019 -0.6472
34754SOL    HW1 7760   1.263   6.245   9.082  2.7395  0.0379  0.5814
34754SOL    HW2 7761   1.222   6.230   8.937 -2.1134  0.9299  1.6549
34755SOL     OW 7762  10.087   5.898   4.290  1.0597  0.1937  0.4095
34755SOL    HW1 7763  10.027   5.826   4.269  0.1663  0.4318  2.0521
34755SOL    HW2 7764  10.162   5.883   4.232  1.5713 -2.9519  1.6857
34756SOL     OW 7765   3.746   5.992   2.046  0.0075  0.1785 -0.4285
34756SOL    HW1 7766   3.725   5.932   1.974 -1.4557  0.7006 -0.4785
34756SOL    HW2 7767   3.747   6.079   2.005  1.1827  0.2968 -0.1813
34757SOL     OW 7768   7.661   9.835   7.515  0.0098 -0.3756  0.4212
34757SOL    HW1 7769   7.665   9.930   7.517 -0.6877 -0.3489  2.0079
34757SOL    HW2 7770   7.697   9.807   7.599 -1.3591 -1.4084  0.7075
34758SOL     OW 7771   3.822   3.952   4.030  0.3400  0.4685 -0.0283
34758SOL    HW1 7772   3.775   3.963   3.948 -0.4944  0.4985  0.4449
34758SOL    HW2 7773   3.792   3.868   4.065  0.1693  0.7692  0.5718
34759SOL     OW 7774   0.629   9.227   5.922  0.1077  0.4147 -0.8127
34759SOL    HW1 7775   0.570   9.152   5.924  0.7407 -0.0857  0.5707
34759SOL    HW2 7776   0.625   9.263   6.011  3.1838 -0.7148 -0.0929
34760SOL     OW 7777   0.562   0.997   2.353  0.0856  0.9405  0.2318
34760SOL    HW1 7778   0.649   1.033   2.332  0.8939 -1.1598 -0.3244
34760SOL    HW2 7779   0.572   0.964   2.442  0.3335 -0.4825 -0.2860
34761SOL     OW 7780   6.755   3.031   9.346 -0.3053 -0.0250 -0.4400
34761SOL    HW1 7781   6.742   3.036   9.441 -1.1097  2.2423 -0.5944
34761SOL    HW2 7782   6.849   3.039   9.333 -0.2142 -0.1307  0.1547
34762SOL     OW 7783   6.970   1.661   4.867 -0.1154  0.1241  0.3115
34762SOL    HW1 7784   6.894   1.719   4.878  1.0574  2.0697 -1.1265
34762SOL    HW2 7785   7.045   1.717   4.885  1.0473 -2.0775  2.9825
34763SOL     OW 7786   7.048   3.015   6.210  0.0168  0.1242 -0.7275
34763SOL    HW1 7787   7.082   2.930   6.240 -0.6221 -0.0445 -0.4533
34763SOL    HW2 7788   7.114   3.047   6.149  0.0046 -0.8361 -1.2771
34764SOL     OW 7789   1.617   5.640   7.881  0.0639 -0.3935  0.5358
34764SOL    HW1 7790   1.711   5.644   7.868 -0.1696 -0.0189 -1.4207
34764SOL    HW2 7791   1.599   5.547   7.894  0.5779 -0.6542 -0.4879
34765SOL     OW 7792   0.177   3.002  10.850 -0.3023  0.1022  0.0542
34765SOL    HW1 7793   0.258   2.979  10.895 -0.7385 -2.1445 -0.1696
34765SOL    HW2 7794   0.206   3.032  10.763  0.3234 -0.1470  0.1702
34766SOL     OW 7795   1.840   5.378   5.311  0.1974  1.1243 -0.8219
34766SOL    HW1 7796   1.910   5.347   5.253  0.8970 -0.2572  0.6552
34766SOL    HW2 7797   1.760   5.342   5.274  0.6013  0.4557 -1.0622
34767SOL     OW 7798   7.450   8.451   0.082 -0.1498 -0.6190  0.3476
34767SOL    HW1 7799   7.452   8.539   0.120  0.0944 -0.4083 -0.1608
34767SOL    HW2 7800   7.537   8.437   0.047 -0.3382 -0.8701 -0.0251
34768SOL     OW 7801   3.679   3.684   7.036  0.0341 -0.2139  0.3712
34768SOL    HW1 7802   3.658   3.770   6.999  1.8262 -0.0042 -0.2754
34768SOL    HW2 7803   3.630   3.622   6.981 -0.7146  0.3467  0.3940
34769SOL     OW 7804   8.683   6.034   2.167 -0.3908 -0.2877  0.5485
34769SOL    HW1 7805   8.672   6.072   2.254 -1.4688  0.0387  0.2840
34769SOL    HW2 7806   8.662   6.106   2.107  0.5359 -0.4521  0.0067
34770SOL     OW 7807  10.510   6.109   3.924  0.5905  0.0674 -0.3044
34770SOL    HW1 7808  10.563   6.060   3.861 -0.2903 -1.4770  0.0944
34770SOL    HW2 7809  10.574   6.150   3.982  1.4353 -2.3125  0.5964
34771SOL     OW 7810   1.004   5.362   3.780  0.0922  0.0524  0.2869
34771SOL    HW1 7811   1.054   5.441   3.762 -0.3971  0.6033  1.2912
34771SOL    HW2 7812   0.921   5.374   3.735  0.3741 -0.3125 -0.3413
34772SOL     OW 7813   0.783   4.732   8.979 -0.4876 -0.5454 -0.3476
34772SOL    HW1 7814   0.785   4.636   8.974 -2.8420 -0.7462  1.2241
34772SOL    HW2 7815   0.704   4.757   8.931 -1.1457  0.3868  1.1494
34773SOL     OW 7816   3.933   0.838   2.720 -0.5670  0.4428  0.1677
34773SOL    HW1 7817   3.900   0.838   2.810 -1.3487  0.6142 -0.1028
34773SOL    HW2 7818   3.891   0.914   2.680  0.7577  1.1104 -0.0086
34774SOL     OW 7819   9.841   7.184   6.400 -0.2296  0.0386 -0.0944
34774SOL    HW1 7820   9.781   7.126   6.354 -0.5435  0.5652 -0.3585
34774SOL    HW2 7821   9.802   7.195   6.487  0.6568 -1.4113  0.5225
34775SOL     OW 7822   7.852   5.200   6.819  0.4177  0.0798  0.0326
34775SOL    HW1 7823   7.846   5.133   6.887  1.6215 -1.0871 -0.9572
34775SOL    HW2 7824   7.864   5.282   6.867  0.6838 -0.6391  1.2348
34776SOL     OW 7825  10.405  10.247   1.425  0.4290 -0.5619  0.0674
34776SOL    HW1 7826  10.461  10.170   1.412  1.1398  0.1598 -1.4014
34776SOL    HW2 7827  10.460  10.321   1.399 -0.6414  0.3328  0.2848
34777SOL     OW 7828   7.416   7.612   7.130 -0.9404 -0.4216 -0.0871
34777SOL    HW1 7829   7.427   7.633   7.037 -2.2753  1.1910  0.0776
34777SOL    HW2 7830   7.385   7.521   7.131  0.8939 -1.1036 -1.0788
34778SOL     OW 7831   5.663   7.300   9.532  0.3867  0.4352 -0.9763
34778SOL    HW1 7832   5.608   7.371   9.565 -0.0542 -0.1673 -0.4179
34778SOL    HW2 7833   5.606   7.250   9.474  0.5629  0.2397 -0.9816
34779SOL     OW 7834   3.792   0.148   3.934 -0.5649  0.4372  0.1246
34779SOL    HW1 7835   3.813   0.241   3.946  0.0760  0.4803 -1.1195
34779SOL    HW2 7836   3.702   0.139   3.964 -0.9320  1.6575 -0.5505
34780SOL     OW 7837   1.045   6.788   1.126  0.2308  0.2767 -0.5346
34780SOL    HW1 7838   1.011   6.788   1.036 -1.0787  0.2823 -0.0615
34780SOL    HW2 7839   0.966   6.786   1.181  0.9607  1.6127  0.6240
34781SOL     OW 7840   5.389   8.403  10.358 -0.2503 -0.3953 -0.5186
34781SOL    HW1 7841   5.332   8.467  10.314 -0.1428 -0.4603 -0.7527
34781SOL    HW2 7842   5.384   8.325  10.303  0.6238 -0.1720 -0.9270
34782SOL     OW 7843  10.875   6.014   7.565  0.4872  0.6634  0.2741
34782SOL    HW1 7844  10.810   6.004   7.635 -0.5087  0.3524 -0.6681
34782SOL    HW2 7845  10.954   5.972   7.600 -0.3211 -0.5067  0.7723
34783SOL     OW 7846   6.201   5.811   0.882  0.0145 -0.0109 -0.1833
34783SOL    HW1 7847   6.284   5.811   0.931 -0.3059 -0.8387  0.3936
34783SOL    HW2 7848   6.163   5.725   0.901 -0.1531 -0.3303 -1.8699
34784SOL     OW 7849   4.908   7.735   0.411 -0.0416  0.2393  0.2841
34784SOL    HW1 7850   4.859   7.657   0.384  2.2886 -0.9025 -0.9071
34784SOL    HW2 7851   4.933   7.777   0.328 -1.8141  2.7434  0.8796
34785SOL     OW 7852  10.569   3.222   1.019 -0.1068  0.0469 -0.2515
34785SOL    HW1 7853  10.561   3.151   0.955  0.3454  0.7518 -1.1159
34785SOL    HW2 7854  10.511   3.197   1.091  1.0749 -1.8812  0.1163
34786SOL     OW 7855   2.274   0.166   2.299 -0.8296  0.4059  0.4032
34786SOL    HW1 7856   2.248   0.167   2.391 -1.6186  0.0617  0.1989
34786SOL    HW2 7857   2.269   0.258   2.271  0.2965  0.6419  0.9231
34787SOL     OW 7858   5.251   0.943   0.379  0.5969 -0.5385  0.0439
34787SOL    HW1 7859   5.330   0.892   0.398  1.5216  0.8074 -0.0517
34787SOL    HW2 7860   5.277   1.001   0.307 -0.6967 -0.5383 -0.4551
34788SOL     OW 7861   8.420   2.709  10.735 -0.1049 -0.1759 -0.5074
34788SOL    HW1 7862   8.373   2.632  10.705 -1.6081  1.1853 -1.8636
34788SOL    HW2 7863   8.399   2.715  10.828 -1.9580 -0.1030 -0.8920
34789SOL     OW 7864   2.368   8.036   9.223 -0.3314  0.1665  0.2634
34789SOL    HW1 7865   2.304   7.977   9.263 -0.2892  0.5339  0.8908
34789SOL    HW2 7866   2.411   7.983   9.157 -0.3580 -0.4826  0.7517
34790SOL     OW 7867   5.915   8.460   8.437  0.3360  0.0309  0.2713
34790SOL    HW1 7868   5.995   8.482   8.484 -0.3562  0.9687  1.0628
34790SOL    HW2 7869   5.905   8.366   8.448  0.7806  0.0682  1.0583
34791SOL     OW 7870   2.617   3.914   3.575 -0.4233 -0.1192 -0.1650
34791SOL    HW1 7871   2.655   3.827   3.579  0.7938  0.4284  0.8831
34791SOL    HW2 7872   2.603   3.931   3.482  1.9033 -0.3654 -0.6170
34792SOL     OW 7873   1.794   6.846   4.492  0.2477 -0.5071 -0.5323
34792SOL    HW1 7874   1.852   6.796   4.435 -0.9405 -0.6766 -1.6393
34792SOL    HW2 7875   1.761   6.916   4.436  2.5718  2.1985  1.1962
34793SOL     OW 7876   0.859   7.069   3.989  1.0239  0.4214  0.1039
34793SOL    HW1 7877   0.941   7.034   3.954  1.3748  1.4013 -0.0929
34793SOL    HW2 7878   0.852   7.156   3.949 -0.4006  0.1350 -0.3275
34794SOL     OW 7879   9.683   2.408   7.139  0.0841  0.0240 -0.3610
34794SOL    HW1 7880   9.637   2.334   7.178 -1.7389  1.5089  0.4476
34794SOL    HW2 7881   9.655   2.408   7.047  1.7841 -1.4871 -0.9573
34795SOL     OW 7882   9.985   7.703   7.388 -1.1174 -0.1490 -0.0703
34795SOL    HW1 7883  10.077   7.716   7.410 -0.4309 -2.7639 -0.9859
34795SOL    HW2 7884   9.939   7.702   7.472 -0.4734  1.7914  0.3612
34796SOL     OW 7885  10.525   5.731   4.241 -0.0908 -0.0861  0.6138
34796SOL    HW1 7886  10.612   5.703   4.213 -0.1953  1.0189 -0.9857
34796SOL    HW2 7887  10.480   5.651   4.268  1.1517 -0.7698  0.6948
34797SOL     OW 7888   0.168   4.803   7.594 -0.5660  0.2589 -0.3003
34797SOL    HW1 7889   0.197   4.712   7.608 -2.2152 -0.3141 -0.3760
34797SOL    HW2 7890   0.233   4.840   7.534 -0.4050 -1.1879 -1.0700
34798SOL     OW 7891   7.102   3.198   3.712 -0.5853 -0.0748 -0.5556
34798SOL    HW1 7892   7.135   3.160   3.630 -0.9949  0.3880 -0.9375
34798SOL    HW2 7893   7.018   3.237   3.688 -2.6228 -3.1745  0.8091
34799SOL     OW 7894   0.644   8.670   9.723 -0.5728 -0.2773 -0.0848
34799SOL    HW1 7895   0.669   8.630   9.806 -0.7557  0.2481  0.2254
34799SOL    HW2 7896   0.550   8.651   9.715 -0.6033 -0.1303 -0.0658
34800SOL     OW 7897   3.719   7.908   5.449 -0.1000  0.3199  0.1656
34800SOL    HW1 7898   3.645   7.934   5.504  0.2864 -0.9102  1.3229
34800SOL    HW2 7899   3.795   7.921   5.505  0.1578 -2.6534  0.6371
34801SOL     OW 7900  10.782   6.391   4.536 -0.4988  0.2575 -0.2354
34801SOL    HW1 7901  10.810   6.341   4.612  0.2654  0.9045 -0.0812
34801SOL    HW2 7902  10.781   6.482   4.565  2.7777  0.9310 -1.7477
34802SOL     OW 7903   9.079   0.544   7.397 -0.0795 -0.1985  0.3716
34802SOL    HW1 7904   9.086   0.569   7.305 -0.5101 -1.1439  0.0615
34802SOL    HW2 7905   9.034   0.459   7.395 -1.1131  0.2888  1.5189
34803SOL     OW 7906   4.501   1.433  10.058  0.1941 -0.3814 -0.6157
34803SOL    HW1 7907   4.565   1.481  10.111  1.4513 -0.5942 -1.8890
34803SOL    HW2 7908   4.475   1.495   9.990 -1.7596  0.0462  0.4750
34804SOL     OW 7909   3.758   9.940   9.524 -0.7511 -0.4935  0.0417
34804SOL    HW1 7910   3.684   9.946   9.464 -1.0555 -1.5981  0.2818
34804SOL    HW2 7911   3.740   9.862   9.577 -1.1579  1.1246  2.4575
34805SOL     OW 7912   7.394  10.192   0.598  0.0113  0.1248  0.5724
34805SOL    HW1 7913   7.341  10.129   0.647 -1.2323  0.5966 -0.1282
34805SOL    HW2 7914   7.379  10.169   0.506 -0.1554  1.1999  0.3242
34806SOL     OW 7915   2.808   7.035   0.480  0.5132 -0.2231  0.1650
34806SOL    HW1 7916   2.771   7.015   0.566 -2.6242 -0.9178 -1.2069
34806SOL    HW2 7917   2.733   7.067   0.429  2.1307 -0.3710 -2.4727
34807SOL     OW 7918   5.779   5.808   3.915  0.5019 -0.0415  0.5291
34807SOL    HW1 7919   5.812   5.845   3.833  1.1883 -1.7594 -0.0190
34807SOL    HW2 7920   5.794   5.714   3.906 -1.8920 -0.5885  1.5126
34808SOL     OW 7921  10.647   9.494   3.435  0.2646  0.0993 -0.1561
34808SOL    HW1 7922  10.616   9.560   3.498 -0.2095  1.2917 -1.5828
34808SOL    HW2 7923  10.619   9.411   3.472  2.4967  0.4397  2.6572
34809SOL     OW 7924   6.049   6.096   5.051  0.1416  0.1420 -1.1269
34809SOL    HW1 7925   5.984   6.122   4.986 -0.5441  1.8921  0.1875
34809SOL    HW2 7926   6.053   6.169   5.112  1.1417 -1.1989  0.5192
34810SOL     OW 7927   6.408   3.184   2.937  0.4698  0.3915  0.1784
34810SOL    HW1 7928   6.365   3.161   3.019 -1.1005 -1.6123 -1.1112
34810SOL    HW2 7929   6.336   3.204   2.877  1.2781 -1.9955 -1.7453
34811SOL     OW 7930   3.908  10.643   1.809  0.0370 -0.4962 -0.0040
34811SOL    HW1 7931   3.967  10.694   1.864  1.0143 -0.6766 -0.8605
34811SOL    HW2 7932   3.846  10.603   1.871  1.5166 -1.2543  1.0463
34812SOL     OW 7933   5.253   5.660   8.173 -0.0405  0.3697 -0.8020
34812SOL    HW1 7934   5.315   5.692   8.238 -1.1541  2.5543 -0.7075
34812SOL    HW2 7935   5.170   5.654   8.220 -0.2431 -1.0327 -1.2939
34813SOL     OW 7936   2.205   1.796   2.798  0.1650 -0.2157 -0.4204
34813SOL    HW1 7937   2.183   1.754   2.715  0.5724 -1.1801 -0.0493
34813SOL    HW2 7938   2.300   1.800   2.799  0.1571 -0.0350 -0.0775
34814SOL     OW 7939   1.809   3.080   1.021 -0.2777 -0.2868 -0.3776
34814SOL    HW1 7940   1.835   3.168   1.048  0.5740 -0.5171 -0.4193
34814SOL    HW2 7941   1.882   3.048   0.968 -1.0114 -0.6401 -1.1986
34815SOL     OW 7942  10.215   1.417   0.468  0.2703 -0.2770 -0.6523
34815SOL    HW1 7943  10.215   1.489   0.405  2.1660 -1.0563 -1.5989
34815SOL    HW2 7944  10.131   1.427   0.514 -0.2220  1.5811 -1.8093
34816SOL     OW 7945   0.379   6.446   5.163 -0.6729 -0.0778 -0.0467
34816SOL    HW1 7946   0.403   6.401   5.082 -1.2135 -1.5920  0.6004
34816SOL    HW2 7947   0.379   6.377   5.229  0.8215  1.3074  1.4887
34817SOL     OW 7948   0.924   1.367   7.449 -0.1109  1.0242 -0.8737
34817SOL    HW1 7949   0.907   1.300   7.382 -0.6651  2.2495 -1.9922
34817SOL    HW2 7950   0.837   1.387   7.484  0.0821  1.0071 -0.3758
34818SOL     OW 7951   0.206   3.888   2.916 -0.5574  0.2902  0.8783
34818SOL    HW1 7952   0.216   3.808   2.864 -1.9032 -0.1525  1.2637
34818SOL    HW2 7953   0.289   3.897   2.963  0.8935  0.9574 -1.6315
34819SOL     OW 7954   9.178   2.044   7.390  0.2406 -0.0828  0.3006
34819SOL    HW1 7955   9.264   2.014   7.421 -0.5114 -0.6834  1.9031
34819SOL    HW2 7956   9.175   2.136   7.415  1.5052  0.7710 -2.3116
34820SOL     OW 7957   5.709   0.926   6.607 -0.4327  0.3503 -0.1667
34820SOL    HW1 7958   5.682   1.017   6.604  3.6997  1.7920  0.9765
34820SOL    HW2 7959   5.743   0.912   6.695  0.7018 -1.7214 -0.8395
34821SOL     OW 7960   2.610   2.073   5.709  0.0831 -0.0857 -0.5234
34821SOL    HW1 7961   2.575   2.116   5.631 -0.7584  0.1081 -0.0492
34821SOL    HW2 7962   2.688   2.124   5.731 -0.1869  0.4190 -0.7086
34822SOL     OW 7963   4.628   1.012   9.701 -0.2183  0.3666 -0.7291
34822SOL    HW1 7964   4.581   1.076   9.756 -0.8970  0.2606 -1.1747
34822SOL    HW2 7965   4.631   1.053   9.615 -2.4809 -1.0432 -1.5453
34823SOL     OW 7966   4.589   0.329   2.948  0.4763  0.1155 -0.3260
34823SOL    HW1 7967   4.622   0.240   2.958  0.7030 -0.3874 -3.9688
34823SOL    HW2 7968   4.665   0.386   2.960  0.3871 -0.1331  1.7206
34824SOL     OW 7969   6.299   3.239   1.207 -0.1151  0.3031 -0.6308
34824SOL    HW1 7970   6.394   3.243   1.196 -0.2279  2.2292 -1.3806
34824SOL    HW2 7971   6.274   3.329   1.230 -1.7637 -0.1447 -0.5543
34825SOL     OW 7972   6.227   1.486   7.064  0.0573  0.4184  0.3407
34825SOL    HW1 7973   6.252   1.575   7.090  0.9566 -0.1118  1.4149
34825SOL    HW2 7974   6.196   1.445   7.145 -1.0370 -0.0375 -0.2855
34826SOL     OW 7975   6.473   4.024  10.742 -0.9227  0.3864 -0.4328
34826SOL    HW1 7976   6.469   4.116  10.769 -0.5407  1.0365 -2.4591
34826SOL    HW2 7977   6.563   3.997  10.763 -0.9255  0.5676 -0.1774
34827SOL     OW 7978   1.899   4.712   7.217 -0.0077 -0.1123  0.3145
34827SOL    HW1 7979   1.823   4.689   7.271  0.1406  1.2272  1.1397
34827SOL    HW2 7980   1.862   4.756   7.141 -0.1471 -1.0561 -0.1846
34828SOL     OW 7981   4.852   4.420  10.673  0.5297 -0.1516 -0.2217
34828SOL    HW1 7982   4.936   4.395  10.713  0.8241 -0.5793 -1.0800
34828SOL    HW2 7983   4.787   4.404  10.742  1.0191 -0.8931  0.0883
34829SOL     OW 7984   3.500   9.393  10.103 -0.6947 -0.3034 -0.5067
34829SOL    HW1 7985   3.496   9.476  10.152  0.1059 -1.3766  1.5096
34829SOL    HW2 7986   3.593   9.380  10.086 -0.9099 -0.2928 -1.7734
34830SOL     OW 7987   0.960   4.658   6.339 -0.0277 -0.2136  0.0619
34830SOL    HW1 7988   1.037   4.651   6.283  0.1291  0.4637  0.1801
34830SOL    HW2 7989   0.973   4.740   6.387 -0.3673 -0.5621  0.7675
34831SOL     OW 7990  10.846   0.273   1.159 -0.2231  0.1228  0.3875
34831SOL    HW1 7991  10.882   0.244   1.075 -0.4776  0.2146  0.2455
34831SOL    HW2 7992  10.763   0.315   1.136 -0.9900 -1.1111  0.8239
34832SOL     OW 7993  10.272   9.812   2.608  0.5346  0.4601 -0.3309
34832SOL    HW1 7994  10.307   9.726   2.583 -0.3431 -0.2657  0.8185
34832SOL    HW2 7995  10.183   9.811   2.575  0.0094  0.2741  1.0244
34833SOL     OW 7996   9.900   5.812   5.418 -0.3656 -0.0021 -0.0139
34833SOL    HW1 7997   9.974   5.824   5.477 -1.0894  0.2787  0.8633
34833SOL    HW2 7998   9.893   5.895   5.372  0.7908 -0.5368 -1.2318
34834SOL     OW 7999  10.534   0.616   3.183  0.8456  0.0783  0.4338
34834SOL    HW1 8000  10.497   0.704   3.191 -0.5864 -0.4245 -0.2219
34834SOL    HW2 8001  10.490   0.566   3.253  1.8019 -0.0783  0.9364
34835SOL     OW 8002  10.484   2.314   8.372  0.0973  0.0007 -0.4816
34835SOL    HW1 8003  10.555   2.377   8.381  0.1942 -0.0277 -1.0210
34835SOL    HW2 8004  10.409   2.356   8.416  0.1487  0.5107 -0.8762
34836SOL     OW 8005   9.443   5.227   4.662  0.4945  0.0799 -0.1597
34836SOL    HW1 8006   9.373   5.209   4.725  0.5127  1.0436  0.1568
34836SOL    HW2 8007   9.492   5.145   4.657 -1.2675 -0.9796 -1.2097
34837SOL     OW 8008   3.762   5.095   4.248 -0.8483  0.5536 -0.1859
34837SOL    HW1 8009   3.691   5.042   4.283 -0.7960 -1.7394 -3.1272
34837SOL    HW2 8010   3.721   5.152   4.184 -0.2651  0.3742 -0.7323
34838SOL     OW 8011   2.837   4.320   0.443 -0.8079 -0.9606  0.0732
34838SOL    HW1 8012   2.878   4.379   0.506 -0.3962 -1.1546 -0.0068
34838SOL    HW2 8013   2.826   4.372   0.364 -1.5040 -0.6599  0.3621
34839SOL     OW 8014   0.082   7.345   1.543 -0.0137 -0.0635  0.0979
34839SOL    HW1 8015   0.093   7.390   1.626 -0.9790  0.4498 -0.0321
34839SOL    HW2 8016   0.159   7.369   1.492 -0.0613  0.7003  0.3711
34840SOL     OW 8017   2.713   6.435  10.293  0.3334  0.0036 -0.2819
34840SOL    HW1 8018   2.808   6.427  10.287  0.3640 -0.4452  0.5992
34840SOL    HW2 8019   2.686   6.357  10.342 -0.6307 -0.5377 -1.5949
34841SOL     OW 8020   2.496   3.023   2.759 -0.0612  0.2600 -0.3907
34841SOL    HW1 8021   2.546   3.003   2.680  0.8453  0.9120 -0.0013
34841SOL    HW2 8022   2.545   3.094   2.801 -1.6963  1.4196 -0.3493
34842SOL     OW 8023   8.725   3.614   0.724 -0.3809  0.3958 -0.6047
34842SOL    HW1 8024   8.735   3.673   0.799 -1.8226 -0.0572 -0.0264
34842SOL    HW2 8025   8.653   3.651   0.674  0.0347  0.2307 -1.3420
34843SOL     OW 8026   2.320   9.745   1.139 -0.3200  0.1358  0.4478
34843SOL    HW1 8027   2.392   9.806   1.156 -0.8153  0.5093  1.2840
34843SOL    HW2 8028   2.317   9.690   1.217 -1.2629  0.4590  0.6528
34844SOL     OW 8029   9.686   4.002   5.355 -0.0034  0.3234 -0.1796
34844SOL    HW1 8030   9.745   4.059   5.404 -2.1742  0.8143  2.1263
34844SOL    HW2 8031   9.607   4.055   5.342 -1.7043 -1.6965  1.1071
34845SOL     OW 8032   7.635   8.397   8.279  0.1535  0.0155 -0.3215
34845SOL    HW1 8033   7.540   8.390   8.292  0.2419  0.5696  0.6724
34845SOL    HW2 8034   7.662   8.309   8.252 -0.4748 -0.4468  0.5139
34846SOL     OW 8035   9.318   8.479  10.993  0.6089 -0.2928 -0.4779
34846SOL    HW1 8036   9.324   8.462  10.899  1.2000 -0.9885 -0.3217
34846SOL    HW2 8037   9.374   8.413  11.033  1.0911  0.5793  0.3153
34847SOL     OW 8038   4.639   3.275   5.245 -0.5138 -0.1049  0.5915
34847SOL    HW1 8039   4.649   3.228   5.162  1.4430  1.9186 -0.4291
34847SOL    HW2 8040   4.708   3.238   5.301 -1.2497 -0.8389  1.0352
34848SOL     OW 8041   4.925   5.551   0.044 -0.4898  0.4318  0.3910
34848SOL    HW1 8042   4.933   5.629   0.099 -0.7472  1.6014 -1.1317
34848SOL    HW2 8043   5.015   5.519   0.034 -0.0783  1.8245 -0.6804
34849SOL     OW 8044   3.991   5.894   1.032 -0.4543 -0.3464 -0.0093
34849SOL    HW1 8045   4.017   5.986   1.024  1.3243 -0.6846  1.3434
34849SOL    HW2 8046   4.026   5.852   0.954 -0.7119 -0.0085 -0.3105
34850SOL     OW 8047   9.587   1.066   9.362  0.3609 -0.3986 -0.3191
34850SOL    HW1 8048   9.532   1.054   9.284  0.7715  1.6966 -0.9891
34850SOL    HW2 8049   9.533   1.032   9.433  0.0771 -2.6298 -1.5014
34851SOL     OW 8050   3.790   1.046   8.314  0.3511 -0.4764  0.1432
34851SOL    HW1 8051   3.806   1.049   8.408 -3.8848  2.8708  1.0537
34851SOL    HW2 8052   3.756   0.958   8.298  1.3966 -1.1869  1.6327
34852SOL     OW 8053   5.809   0.756   9.134  0.1320 -0.4756 -0.3168
34852SOL    HW1 8054   5.723   0.779   9.167  0.4943  0.9047 -0.2883
34852SOL    HW2 8055   5.845   0.696   9.199 -0.3971 -0.2529  0.1825
34853SOL     OW 8056   3.350   2.279   4.796  0.2145  0.3886  0.2917
34853SOL    HW1 8057   3.370   2.328   4.876 -0.2416  1.7374 -0.3837
34853SOL    HW2 8058   3.353   2.345   4.727 -1.8569 -0.2569 -0.4676
34854SOL     OW 8059   4.829   2.388   9.161 -0.1784 -0.1803  0.6898
34854SOL    HW1 8060   4.785   2.467   9.194  3.3841  1.4660  2.0818
34854SOL    HW2 8061   4.884   2.420   9.089  1.7740 -1.1844  1.6569
34855SOL     OW 8062   6.812   5.319  10.255  0.2818  0.2741  0.1794
34855SOL    HW1 8063   6.866   5.309  10.333 -1.5364  0.2571  1.4864
34855SOL    HW2 8064   6.729   5.353  10.288 -0.7525 -0.3419 -1.6806
34856SOL     OW 8065  10.320   3.125   3.862 -0.2846  0.2471  0.0093
34856SOL    HW1 8066  10.410   3.135   3.892  0.1472 -0.3537 -1.0473
34856SOL    HW2 8067  10.289   3.045   3.904  0.0119 -0.0908 -0.4113
34857SOL     OW 8068  10.439   9.906   7.646 -0.1294 -0.5446  0.3198
34857SOL    HW1 8069  10.426   9.820   7.605  0.0255 -0.7190  0.6254
34857SOL    HW2 8070  10.371   9.961   7.608  0.1838 -0.6263 -0.3740
34858SOL     OW 8071   3.545   6.109   1.692  0.1724 -0.3222 -0.2393
34858SOL    HW1 8072   3.543   6.149   1.605 -0.4709  0.0406 -0.0663
34858SOL    HW2 8073   3.619   6.049   1.689 -0.0435 -0.5661 -1.1487
34859SOL     OW 8074   3.122   7.751   6.126 -0.5921 -0.0595  0.2372
34859SOL    HW1 8075   3.044   7.730   6.176 -1.4991  0.7832 -0.7637
34859SOL    HW2 8076   3.095   7.823   6.068 -0.3484 -2.4597 -3.1693
34860SOL     OW 8077   2.779   2.690   2.190  0.3708  0.1636  0.2473
34860SOL    HW1 8078   2.787   2.700   2.095 -0.0571  0.6534  0.2636
34860SOL    HW2 8079   2.853   2.740   2.225  0.4275  0.1279  0.1794
34861SOL     OW 8080   4.538  10.855   1.407  0.0575  0.2792 -0.5290
34861SOL    HW1 8081   4.504  10.795   1.474 -2.3036  0.7135 -1.2346
34861SOL    HW2 8082   4.605  10.805   1.361  0.8638 -0.4491  1.3381
34862SOL     OW 8083   6.811   5.383   4.365  0.2114  0.4704 -0.4857
34862SOL    HW1 8084   6.859   5.373   4.447  0.5692  1.8166 -0.4938
34862SOL    HW2 8085   6.776   5.472   4.369 -0.6203  0.2007 -1.3573
34863SOL     OW 8086   2.095   8.374   7.592  0.2440 -0.2221 -0.0320
34863SOL    HW1 8087   2.082   8.288   7.631  3.8119 -1.4786 -1.2123
34863SOL    HW2 8088   2.035   8.376   7.518  0.5511 -2.0072 -0.3723
34864SOL     OW 8089   0.343   4.311   3.068 -0.1880  0.5442 -0.4525
34864SOL    HW1 8090   0.284   4.369   3.117 -0.9284  0.5547 -1.3313
34864SOL    HW2 8091   0.416   4.296   3.128 -0.5888  1.3609  0.2752
34865SOL     OW 8092   6.934   5.951   0.115  0.4096  0.4479 -0.1321
34865SOL    HW1 8093   6.911   5.877   0.171  1.3101 -0.1602 -0.5484
34865SOL    HW2 8094   7.028   5.942   0.100  0.3070  0.9625 -1.2078
34866SOL     OW 8095   7.311  10.124   7.049  0.0662 -0.3786  0.4165
34866SOL    HW1 8096   7.298  10.214   7.078 -0.3941 -1.0430  2.4631
34866SOL    HW2 8097   7.223  10.088   7.040  0.1538 -1.6935  3.5033
34867SOL     OW 8098   7.514   4.860   6.066  0.5302  0.6766 -0.0281
34867SOL    HW1 8099   7.436   4.848   6.119  0.0899  1.2428 -0.5341
34867SOL    HW2 8100   7.587   4.848   6.127  0.1163 -1.6712  0.1032
34868SOL     OW 8101   5.618   5.619   6.866 -0.2093  0.1485 -0.2535
34868SOL    HW1 8102   5.526   5.634   6.887  0.0425  0.8292  0.4206
34868SOL    HW2 8103   5.637   5.533   6.903 -1.0109 -0.7978 -1.9239
34869SOL     OW 8104   3.767   5.169  10.127 -0.4770  0.0691  0.7940
34869SOL    HW1 8105   3.681   5.177  10.169 -0.2445  1.3415  1.0504
34869SOL    HW2 8106   3.751   5.114  10.051 -1.3971 -0.2118  1.1773
34870SOL     OW 8107   6.736   0.239   7.811 -0.1180 -0.3998 -0.3758
34870SOL    HW1 8108   6.652   0.193   7.814  0.2367 -0.9908  1.4392
34870SOL    HW2 8109   6.801   0.174   7.836  0.5291  0.7802  1.1811
34871SOL     OW 8110   0.677   0.868   5.562  0.0487 -0.1030  0.3107
34871SOL    HW1 8111   0.739   0.877   5.490  0.4826 -0.2065  0.6668
34871SOL    HW2 8112   0.620   0.945   5.555 -0.5384 -0.6064 -0.7295
34872SOL     OW 8113   6.275   6.344  10.460  0.2116  0.4444  0.6005
34872SOL    HW1 8114   6.270   6.277  10.391 -0.9858  1.7024 -0.5900
34872SOL    HW2 8115   6.231   6.304  10.535 -0.7585 -0.0152 -0.1819
34873SOL     OW 8116   7.309   7.950   3.051 -0.6136  0.0681  0.0321
34873SOL    HW1 8117   7.351   7.906   3.125 -0.8183 -1.2755 -0.6248
34873SOL    HW2 8118   7.253   8.017   3.091 -0.5916 -0.5201  1.0765
34874SOL     OW 8119   5.875   7.911   9.965  0.3807 -0.2139  0.2715
34874SOL    HW1 8120   5.943   7.877  10.022  1.0367 -0.6831 -0.7660
34874SOL    HW2 8121   5.922   7.961   9.898 -0.3867  0.5492  0.2842
34875SOL     OW 8122   5.361  10.817   3.857 -0.5892  0.1125 -0.1294
34875SOL    HW1 8123   5.383  10.775   3.940  0.9018  2.3499  0.7031
34875SOL    HW2 8124   5.418  10.774   3.793  1.5323  1.2874  0.8470
34876SOL     OW 8125   5.428  10.356   3.174  0.5896 -0.5606  0.2744
34876SOL    HW1 8126   5.387  10.297   3.238 -0.0311 -0.5680 -0.1234
34876SOL    HW2 8127   5.441  10.302   3.096  0.2505 -0.2362 -0.0069
34877SOL     OW 8128   0.174   8.866   0.397 -0.1571  0.5850  0.3048
34877SOL    HW1 8129   0.200   8.779   0.427 -0.9140  0.6474  1.1981
34877SOL    HW2 8130   0.236   8.925   0.439 -0.5611  0.5850  0.9160
34878SOL     OW 8131  10.781   6.268   3.508  1.0070  0.3586  0.3963
34878SOL    HW1 8132  10.867   6.298   3.537  0.2458  2.0338  1.0610
34878SOL    HW2 8133  10.774   6.301   3.418  0.4859  1.6172  0.8633
34879SOL     OW 8134   2.907   5.327   4.100  0.0853 -0.0536  0.4994
34879SOL    HW1 8135   2.878   5.386   4.170  1.4732  0.6062  0.5496
34879SOL    HW2 8136   2.826   5.290   4.065 -0.6764  0.1050  2.0056
34880SOL     OW 8137   0.690   9.935   6.690  0.7982 -0.0442 -0.4519
34880SOL    HW1 8138   0.697  10.014   6.743  2.1839  1.0305 -2.1519
34880SOL    HW2 8139   0.685   9.863   6.754  0.1462  1.3401  1.1100
34881SOL     OW 8140   4.029   5.260   2.268  0.4582 -0.5683 -0.0750
34881SOL    HW1 8141   3.971   5.215   2.208  0.2143 -0.0206 -0.2472
34881SOL    HW2 8142   4.085   5.190   2.303 -0.4925 -1.1501  0.3282
34882SOL     OW 8143   5.548   1.340   3.141  0.2971 -0.4679 -0.1772
34882SOL    HW1 8144   5.637   1.355   3.172  0.0632 -1.2755  0.9308
34882SOL    HW2 8145   5.522   1.256   3.180 -1.2041  0.0896  0.0961
34883SOL     OW 8146   5.707   4.595   1.858  0.4099 -0.4729  0.0424
34883SOL    HW1 8147   5.721   4.614   1.766  0.4523 -0.7067 -0.0003
34883SOL    HW2 8148   5.757   4.663   1.904 -0.9299  0.6415 -0.0813
34884SOL     OW 8149   1.538   0.201   0.529  0.0273  0.1447  0.2960
34884SOL    HW1 8150   1.522   0.155   0.611 -2.0026  0.3948  0.1082
34884SOL    HW2 8151   1.543   0.131   0.463  0.5877  0.0069  0.4792
34885SOL     OW 8152   1.953  10.877   1.698 -0.0545 -0.1892 -0.3745
34885SOL    HW1 8153   2.013  10.803   1.688  1.0998  0.7933 -1.0263
34885SOL    HW2 8154   1.875  10.839   1.739  0.9372 -1.5341  0.3616
34886SOL     OW 8155   6.259   8.848   4.469 -0.7209  0.3043 -0.3159
34886SOL    HW1 8156   6.340   8.798   4.476  0.7055  2.4730 -0.3956
34886SOL    HW2 8157   6.212   8.828   4.550  0.9473  0.7183  0.8138
34887SOL     OW 8158   2.385   2.513   2.560 -0.3296  0.9602 -0.4333
34887SOL    HW1 8159   2.361   2.570   2.487  0.0064  1.8340  0.1174
34887SOL    HW2 8160   2.481   2.505   2.553 -0.1726  1.8500  0.4574
34888SOL     OW 8161   4.333   7.928   5.388  0.2786  0.0053 -0.1214
34888SOL    HW1 8162   4.252   7.974   5.411 -1.2131 -1.1691 -2.6155
34888SOL    HW2 8163   4.317   7.838   5.417  1.7531  0.2293  1.5669
34889SOL     OW 8164   2.767   8.595   2.034 -0.0370  0.1898 -0.1074
34889SOL    HW1 8165   2.847   8.546   2.051  0.8352  1.1754 -1.2081
34889SOL    HW2 8166   2.789   8.685   2.055 -1.3144  0.2965  0.9330
34890SOL     OW 8167   6.444   4.324   3.355 -0.1647  0.1764 -0.6238
34890SOL    HW1 8168   6.460   4.385   3.283  1.8355 -0.8712 -1.1420
34890SOL    HW2 8169   6.509   4.348   3.421 -0.9929  0.1566  0.2174
34891SOL     OW 8170   8.805   7.671   0.406  0.4608 -0.1464 -0.0836
34891SOL    HW1 8171   8.793   7.585   0.366 -0.2468 -0.3098  0.4580
34891SOL    HW2 8172   8.891   7.666   0.449  0.3191 -0.6732  0.1480
34892SOL     OW 8173   0.852   0.786   9.294 -0.2884 -0.1149 -0.6007
34892SOL    HW1 8174   0.896   0.736   9.363 -1.8735 -0.0112  0.5612
34892SOL    HW2 8175   0.918   0.799   9.227  1.4742  0.2152  1.1329
34893SOL     OW 8176   2.665   9.425   8.528  0.0358 -0.4901  0.2179
34893SOL    HW1 8177   2.708   9.347   8.561  3.5006  0.9083 -0.5396
34893SOL    HW2 8178   2.630   9.400   8.442  0.6918 -1.3069  0.1839
34894SOL     OW 8179   6.669   6.330  10.586  0.0730 -0.3984  0.1368
34894SOL    HW1 8180   6.591   6.381  10.607 -0.1642  0.5518 -2.6984
34894SOL    HW2 8181   6.736   6.395  10.566  1.0683 -1.2274  0.6440
34895SOL     OW 8182   8.113   8.196   5.285 -0.4355  0.4063 -0.3075
34895SOL    HW1 8183   8.076   8.275   5.245 -0.2114  0.8332  0.2975
34895SOL    HW2 8184   8.105   8.212   5.379  3.2217  1.5548 -0.0202
34896SOL     OW 8185   4.452   2.286   0.529 -0.1098  1.1002  0.2654
34896SOL    HW1 8186   4.426   2.364   0.578 -0.3610  1.1864 -0.0043
34896SOL    HW2 8187   4.544   2.301   0.507 -0.1348  1.2832  0.2857
34897SOL     OW 8188   8.735   0.944   1.746 -0.3867 -0.2431 -0.5964
34897SOL    HW1 8189   8.738   0.851   1.723  0.7268 -0.1498 -0.8588
34897SOL    HW2 8190   8.823   0.977   1.727 -0.5322  0.6878  0.2703
34898SOL     OW 8191   3.723   4.789   1.999 -0.2619  0.0309  0.1970
34898SOL    HW1 8192   3.739   4.823   1.911  0.4682  0.1838  0.3841
34898SOL    HW2 8193   3.743   4.863   2.057 -1.7775  0.2794  0.4472
34899SOL     OW 8194   7.415   1.497   0.672  0.3799  0.0169  0.1100
34899SOL    HW1 8195   7.329   1.465   0.645  0.1897  2.0521 -1.9449
34899SOL    HW2 8196   7.406   1.511   0.767 -1.2283 -0.6551  0.0922
34900SOL     OW 8197   2.308   1.320   4.142  0.7517 -0.4028 -0.2153
34900SOL    HW1 8198   2.372   1.353   4.205  0.3589  1.1251 -0.5559
34900SOL    HW2 8199   2.327   1.227   4.134  1.4063 -0.4510  1.4498
34901SOL     OW 8200   5.834   7.605   0.605  0.2531 -0.3057  0.1258
34901SOL    HW1 8201   5.805   7.556   0.682 -0.9247  0.6812  0.3458
34901SOL    HW2 8202   5.755   7.649   0.574  1.1395  0.9542 -0.4278
34902SOL     OW 8203   4.268   6.328   2.149  0.1893 -0.3928  0.4382
34902SOL    HW1 8204   4.300   6.240   2.135 -1.5002 -0.7039 -2.1314
34902SOL    HW2 8205   4.183   6.317   2.191  0.0917  0.0284  0.3636
34903SOL     OW 8206   3.584   4.066   5.151 -0.1389 -0.0492 -0.9076
34903SOL    HW1 8207   3.544   4.095   5.233  1.7686 -1.7147  0.7271
34903SOL    HW2 8208   3.611   3.976   5.169  3.0403  0.5220 -2.3091
34904SOL     OW 8209   7.470  10.301   8.298 -0.3158 -0.0245  0.3845
34904SOL    HW1 8210   7.439  10.357   8.368 -1.4668 -0.1737  0.0360
34904SOL    HW2 8211   7.396  10.241   8.281 -0.1928  0.1958 -1.1270
34905SOL     OW 8212   6.809   7.396   6.503 -0.1509  0.1485 -0.2614
34905SOL    HW1 8213   6.722   7.433   6.521 -0.5680 -0.6400 -0.6052
34905SOL    HW2 8214   6.792   7.304   6.486  0.2830  0.5253 -3.4842
34906SOL     OW 8215   2.148   8.200   2.515 -0.0361 -0.3971 -0.5971
34906SOL    HW1 8216   2.167   8.107   2.531 -1.4734 -0.5133  0.7460
34906SOL    HW2 8217   2.163   8.242   2.600  0.8654  0.6800 -1.2589
34907SOL     OW 8218   5.390   1.979   2.510  0.2904 -0.2575 -0.2815
34907SOL    HW1 8219   5.330   2.052   2.489 -0.6950 -0.5881  1.2207
34907SOL    HW2 8220   5.477   2.017   2.503 -0.1107  0.4415 -1.8042
34908SOL     OW 8221   2.122   7.932   9.652 -0.0230  0.4833  0.7793
34908SOL    HW1 8222   2.079   7.988   9.717  1.4140  1.9455  0.5423
34908SOL    HW2 8223   2.095   7.843   9.675 -1.5611  1.1801  1.8116
34909SOL     OW 8224  10.724  10.902   6.120  0.2371 -0.4291  0.4066
34909SOL    HW1 8225  10.707  10.899   6.025  1.1406  0.0595  0.2168
34909SOL    HW2 8226  10.652  10.853   6.159 -0.5798  0.0303 -0.4837
34910SOL     OW 8227   4.666   2.161   7.749  0.0123  0.5391 -0.3404
34910SOL    HW1 8228   4.678   2.197   7.837  1.1219  2.0836 -1.0737
34910SOL    HW2 8229   4.600   2.217   7.708  0.3823  0.5922 -0.8844
34911SOL     OW 8230   9.123   3.698   0.345  0.3737 -0.5573  0.2906
34911SOL    HW1 8231   9.051   3.758   0.362 -0.4290 -1.5573  0.5101
34911SOL    HW2 8232   9.137   3.652   0.428  0.9788 -0.6655  0.1335
34912SOL     OW 8233   3.584  10.002   5.157 -0.0112  0.0341 -0.6031
34912SOL    HW1 8234   3.576  10.052   5.239  0.2759 -1.2419  0.2360
34912SOL    HW2 8235   3.503  10.021   5.110 -1.0179 -0.5756  0.7925
34913SOL     OW 8236   6.614   1.474   8.042 -0.1129  0.4950 -0.5058
34913SOL    HW1 8237   6.698   1.435   8.065 -1.4864 -1.3541  1.8544
34913SOL    HW2 8238   6.625   1.568   8.057  1.4845  0.2707 -0.1460
34914SOL     OW 8239   8.335   2.731   4.517  0.1887  0.9292  0.1034
34914SOL    HW1 8240   8.347   2.638   4.536 -0.0404  1.0711  0.9783
34914SOL    HW2 8241   8.245   2.737   4.483  0.3845  0.7628 -0.4565
34915SOL     OW 8242  10.056   5.821   1.400 -0.2082  0.6167 -0.2267
34915SOL    HW1 8243  10.096   5.877   1.333  1.0743  1.0271  0.8341
34915SOL    HW2 8244  10.109   5.837   1.479 -1.4853 -0.0785  0.8032
34916SOL     OW 8245   9.877   4.294   7.582  0.3510  0.5059  0.3498
34916SOL    HW1 8246   9.971   4.289   7.595  0.2438 -0.4078  0.8165
34916SOL    HW2 8247   9.866   4.295   7.487  0.7007 -2.8858  0.1841
34917SOL     OW 8248   9.442   8.235   3.078 -0.2413  0.3653 -0.4371
34917SOL    HW1 8249   9.432   8.319   3.122 -0.0593 -0.1700  0.6728
34917SOL    HW2 8250   9.404   8.171   3.138 -0.3070 -0.3595 -1.2217
34918SOL     OW 8251   7.742   1.435   0.043 -0.4947 -0.1764 -0.4391
34918SOL    HW1 8252   7.714   1.508   0.098  2.2701  0.4970  0.2448
34918SOL    HW2 8253   7.835   1.424   0.064 -0.7302 -3.7016 -0.7946
34919SOL     OW 8254   3.918   4.405   5.936  0.1832 -0.1407  0.5072
34919SOL    HW1 8255   3.956   4.486   5.901  0.2934  0.6680  2.3623
34919SOL    HW2 8256   3.974   4.383   6.011 -0.7714 -1.0637  0.9710
34920SOL     OW 8257   2.843   9.378  10.632  0.8357 -0.3760  0.5572
34920SOL    HW1 8258   2.900   9.308  10.663 -0.4782 -1.6518  0.1816
34920SOL    HW2 8259   2.798   9.409  10.710  0.9534 -0.3796  0.6265
34921SOL     OW 8260   6.708  10.197   8.193 -0.3162  0.1450  0.1473
34921SOL    HW1 8261   6.760  10.263   8.147 -0.0196  0.8863  1.5065
34921SOL    HW2 8262   6.734  10.114   8.153  0.4356  0.6974 -0.5505
34922SOL     OW 8263   1.181   1.599   4.785  0.3338  0.0062 -0.6941
34922SOL    HW1 8264   1.135   1.522   4.819 -0.5278  1.5373  1.8468
34922SOL    HW2 8265   1.112   1.658   4.756  0.8089  1.0345  0.2082
34923SOL     OW 8266   0.708   5.793   6.041 -0.2051 -0.5022 -0.7063
34923SOL    HW1 8267   0.671   5.882   6.035 -2.5561 -1.1587  1.8209
34923SOL    HW2 8268   0.674   5.748   5.964  0.7667  0.6774 -1.8606
34924SOL     OW 8269   5.386   0.130   6.690  0.7069  0.1209 -0.4043
34924SOL    HW1 8270   5.299   0.106   6.658  0.2435  0.7295  0.3543
34924SOL    HW2 8271   5.447   0.083   6.632 -0.1245 -0.9286 -0.4665
34925SOL     OW 8272   4.221   1.301   0.469  0.1492  0.1768 -0.1570
34925SOL    HW1 8273   4.298   1.245   0.456 -0.8536 -1.0959 -0.8379
34925SOL    HW2 8274   4.196   1.285   0.560 -0.7171 -1.3352 -0.6135
34926SOL     OW 8275   8.622   7.216   5.438  0.0466 -0.8998 -0.3090
34926SOL    HW1 8276   8.664   7.295   5.404  0.4876 -1.2537 -0.5970
34926SOL    HW2 8277   8.529   7.239   5.444  0.2722 -0.1084  0.3414
34927SOL     OW 8278   5.762   5.263  10.285 -0.1939 -0.1276  0.1130
34927SOL    HW1 8279   5.670   5.275  10.260 -0.2044 -0.5860 -0.0608
34927SOL    HW2 8280   5.766   5.175  10.321  0.3098 -0.3538 -0.4786
34928SOL     OW 8281   1.946   3.483   6.378 -0.5097 -0.3453  0.7586
34928SOL    HW1 8282   1.963   3.394   6.409 -0.2777 -0.3008  0.7641
34928SOL    HW2 8283   1.998   3.490   6.298 -0.6429 -0.2631  0.6792
34929SOL     OW 8284   0.452   7.370   1.612  0.2985  0.1684 -0.2940
34929SOL    HW1 8285   0.476   7.445   1.558 -0.4922  0.4424 -0.2849
34929SOL    HW2 8286   0.385   7.405   1.671 -2.1532 -1.1401 -2.1055
34930SOL     OW 8287   6.114   2.520   0.029 -0.1688  0.0490  0.0259
34930SOL    HW1 8288   6.020   2.525   0.047  0.3942 -0.2234  3.7975
34930SOL    HW2 8289   6.150   2.599   0.068  1.3455 -0.7205  0.2563
34931SOL     OW 8290   6.385   6.043   8.799 -0.1044  0.6775  0.1038
34931SOL    HW1 8291   6.449   6.093   8.850 -1.2765 -0.2331  2.6720
34931SOL    HW2 8292   6.341   6.108   8.745  0.8101  1.8174  0.6785
34932SOL     OW 8293   4.022   9.275   5.743  0.9426  0.2392  0.1297
34932SOL    HW1 8294   3.963   9.269   5.819  0.7744 -0.2898 -0.0369
34932SOL    HW2 8295   3.975   9.228   5.673  1.7852 -0.6392  0.1359
34933SOL     OW 8296   4.188   4.492  10.806  0.0533 -0.6945  0.3392
34933SOL    HW1 8297   4.213   4.400  10.794 -1.0498 -0.9205 -0.3808
34933SOL    HW2 8298   4.104   4.500  10.761  0.3503  0.7811 -0.0175
34934SOL     OW 8299   8.302   6.844   0.777 -0.0714  0.6734  0.3259
34934SOL    HW1 8300   8.358   6.919   0.795  0.2077  0.3344  0.8976
34934SOL    HW2 8301   8.357   6.768   0.798 -0.5838  0.3261  0.4201
34935SOL     OW 8302   9.199   9.120   3.230 -0.1890 -0.0436 -0.6786
34935SOL    HW1 8303   9.266   9.085   3.290  0.8033  2.9662  0.1154
34935SOL    HW2 8304   9.242   9.119   3.144  1.1178  2.1243 -0.1342
34936SOL     OW 8305   4.716   0.395   6.788  0.4423  0.2080 -0.1879
34936SOL    HW1 8306   4.723   0.428   6.877 -0.2110 -2.3964  0.9300
34936SOL    HW2 8307   4.783   0.326   6.782  0.2038  0.0516 -1.5626
34937SOL     OW 8308   3.954   9.526   2.483  0.2909  0.3167 -0.1209
34937SOL    HW1 8309   3.935   9.601   2.540  0.9506  0.4781 -0.0951
34937SOL    HW2 8310   3.993   9.565   2.405  0.5063  0.0138 -0.1669
34938SOL     OW 8311  10.419   2.143   6.721  0.3127  0.7438  0.0792
34938SOL    HW1 8312  10.497   2.152   6.666  0.2762  0.2606 -0.0625
34938SOL    HW2 8313  10.358   2.207   6.686 -0.1829 -0.4166 -1.3072
34939SOL     OW 8314   7.926   0.185  10.693  0.1872 -0.2689 -0.2091
34939SOL    HW1 8315   7.882   0.103  10.671 -0.5990  0.2452 -0.6152
34939SOL    HW2 8316   7.893   0.207  10.780  0.3619 -0.3617 -0.1201
34940SOL     OW 8317   9.474   9.589   8.320  0.5796 -0.1208  0.0024
34940SOL    HW1 8318   9.418   9.539   8.260  2.3085  0.4170 -2.2015
34940SOL    HW2 8319   9.417   9.612   8.394 -1.8788 -0.1816 -1.7688
34941SOL     OW 8320   5.422   2.381   8.642 -0.4899 -0.1459  0.1737
34941SOL    HW1 8321   5.470   2.454   8.682  1.2174 -1.5439  0.7744
34941SOL    HW2 8322   5.490   2.319   8.616 -1.9129 -1.6219 -0.1506
34942SOL     OW 8323   2.845   3.483   4.430  0.0113  0.1513 -0.1337
34942SOL    HW1 8324   2.886   3.445   4.507  0.2640  1.5045  0.4309
34942SOL    HW2 8325   2.907   3.550   4.400 -0.0591 -0.3940 -1.5464
34943SOL     OW 8326   0.248   3.493   1.504  0.0777  0.7831  0.2648
34943SOL    HW1 8327   0.175   3.546   1.536 -0.7836 -1.2085  1.8383
34943SOL    HW2 8328   0.314   3.499   1.573  0.2605  0.3946  0.1290
34944SOL     OW 8329   5.415   3.123   8.032 -0.4758 -0.4295 -0.0829
34944SOL    HW1 8330   5.474   3.192   8.004  0.0931 -0.9244 -0.1137
34944SOL    HW2 8331   5.472   3.058   8.072 -1.1737 -0.0883  1.5523
34945SOL     OW 8332   3.820   9.628   6.471 -0.5692  0.1156 -0.5418
34945SOL    HW1 8333   3.733   9.591   6.456 -0.4561 -1.0025  1.3189
34945SOL    HW2 8334   3.831   9.626   6.566  1.8207 -0.6080 -0.7673
34946SOL     OW 8335   2.362  10.419   1.836 -0.1298  0.1484 -0.4653
34946SOL    HW1 8336   2.418  10.424   1.913  0.0265  0.2159 -0.5828
34946SOL    HW2 8337   2.423  10.409   1.763 -0.2812 -0.0287 -0.5684
34947SOL     OW 8338   5.118   2.301   7.461 -0.0289 -0.3570 -0.1047
34947SOL    HW1 8339   5.188   2.289   7.526  0.2898  2.8603  0.2944
34947SOL    HW2 8340   5.043   2.256   7.499  0.7696 -0.5170  1.3934
34948SOL     OW 8341  10.532   9.338   1.548  0.1620 -0.0558  0.3710
34948SOL    HW1 8342  10.563   9.263   1.497 -0.5108 -0.0757 -0.0133
34948SOL    HW2 8343  10.606   9.399   1.546 -0.3850  0.6482 -2.0205
34949SOL     OW 8344   4.632   0.086   3.077 -0.1323 -0.0351  0.9159
34949SOL    HW1 8345   4.728   0.079   3.073 -0.0194  1.1630  1.1293
34949SOL    HW2 8346   4.611   0.072   3.169  0.0347  1.5379  1.2249
34950SOL     OW 8347   2.225   2.374   8.476  0.8816 -0.0672 -0.6394
34950SOL    HW1 8348   2.246   2.334   8.561 -0.7241 -0.4421 -0.3927
34950SOL    HW2 8349   2.238   2.468   8.491  1.2941 -0.1874 -0.1903
34951SOL     OW 8350  10.589   9.112   5.225  0.3115 -0.2436  0.1094
34951SOL    HW1 8351  10.664   9.093   5.168  0.9236 -3.8364  1.8600
34951SOL    HW2 8352  10.518   9.059   5.190 -0.6972  1.0501  0.0855
34952SOL     OW 8353   7.634   2.931   6.011 -0.3513  0.6885  0.0573
34952SOL    HW1 8354   7.709   2.977   6.049  0.6492 -0.4805 -0.4476
34952SOL    HW2 8355   7.644   2.943   5.916 -1.0692  0.8984 -0.0029
34953SOL     OW 8356   9.809   2.584   0.323  0.1240  0.1591 -0.4660
34953SOL    HW1 8357   9.899   2.609   0.343  0.8380 -1.6574 -1.2538
34953SOL    HW2 8358   9.760   2.666   0.331  1.5188  0.8901  1.6115
34954SOL     OW 8359  10.610   2.990  10.876 -0.5582 -0.5778  0.7311
34954SOL    HW1 8360  10.692   3.036  10.859 -0.6070 -0.2906  1.2456
34954SOL    HW2 8361  10.550   3.022  10.809 -0.4351 -0.2995  0.7531
34955SOL     OW 8362   7.900   3.417   4.679  0.3836  0.0722  0.0190
34955SOL    HW1 8363   7.862   3.343   4.726  1.7141 -1.0193 -0.5543
34955SOL    HW2 8364   7.947   3.466   4.747  1.0456 -0.6571  0.1043
34956SOL     OW 8365   5.476   6.015   3.431 -0.2482  0.1415  0.4401
34956SOL    HW1 8366   5.446   6.101   3.461  2.0229  0.9206  0.6993
34956SOL    HW2 8367   5.472   6.020   3.336 -0.5086  0.3860  0.4626
34957SOL     OW 8368   5.408   0.180   9.096 -0.1124 -0.4743  0.0497
34957SOL    HW1 8369   5.492   0.140   9.118  0.1015 -0.2362 -0.3367
34957SOL    HW2 8370   5.360   0.113   9.048 -1.1759 -1.5596  2.4409
34958SOL     OW 8371   1.932   8.928   8.075  0.3566 -0.0708  0.4013
34958SOL    HW1 8372   1.882   8.847   8.075 -2.3232  1.4199 -0.9065
34958SOL    HW2 8373   1.939   8.952   7.982  1.6755  0.8566  0.7116
34959SOL     OW 8374   7.197   2.856  10.947 -0.3735  0.0844  0.3253
34959SOL    HW1 8375   7.198   2.948  10.919 -0.1873 -0.2437 -0.7819
34959SOL    HW2 8376   7.155   2.809  10.875 -1.2915 -0.5858  1.2705
34960SOL     OW 8377  10.641   1.398   1.164 -0.6099 -0.1934 -0.3045
34960SOL    HW1 8378  10.638   1.373   1.256 -0.3557  0.7854 -0.0183
34960SOL    HW2 8379  10.727   1.437   1.152 -0.9257  0.3915 -0.7546
34961SOL     OW 8380   7.091   0.383   8.984  0.2593  0.1375  0.0833
34961SOL    HW1 8381   7.155   0.373   9.054  1.0001 -0.7246 -0.6854
34961SOL    HW2 8382   7.007   0.363   9.025  0.7366 -0.8053  0.6379
34962SOL     OW 8383   1.093   5.397   9.957 -0.1223 -0.4922 -0.2149
34962SOL    HW1 8384   1.166   5.367  10.012 -0.8255  1.3356  1.8796
34962SOL    HW2 8385   1.117   5.369   9.869  2.5045 -1.0557  0.5664
34963SOL     OW 8386   1.575   9.200  10.059 -0.7301 -0.2389 -0.4351
34963SOL    HW1 8387   1.621   9.283  10.077  0.0375 -0.9248  0.9882
34963SOL    HW2 8388   1.585   9.187   9.965  3.0885 -0.9060 -0.1072
34964SOL     OW 8389  10.552   7.645  10.937  0.2593 -0.6578  0.2172
34964SOL    HW1 8390  10.506   7.626  11.019 -1.7825  2.2965 -0.0801
34964SOL    HW2 8391  10.486   7.630  10.869  1.0129 -0.2070 -0.6248
34965SOL     OW 8392   8.261   0.984   8.000  0.0834 -0.9088  0.0373
34965SOL    HW1 8393   8.294   1.006   7.913  1.3287  0.5346  0.8239
34965SOL    HW2 8394   8.166   0.994   7.992  0.0374 -2.2387 -1.5077
34966SOL     OW 8395   7.020  10.858   9.112 -0.1229  0.0144 -0.0469
34966SOL    HW1 8396   6.992  10.785   9.166  1.4872  0.8360  2.0045
34966SOL    HW2 8397   7.011  10.935   9.168  2.9414  0.7324 -0.3664
34967SOL     OW 8398   0.665   4.097   3.643 -0.1791 -0.3254 -0.3962
34967SOL    HW1 8399   0.668   4.002   3.651 -0.0790 -0.4204 -1.4203
34967SOL    HW2 8400   0.741   4.119   3.588  0.5184  0.4734  0.8365
34968SOL     OW 8401   0.483   5.998   5.212 -0.3847  0.3472  0.0181
34968SOL    HW1 8402   0.577   6.014   5.201 -0.1535 -0.1767  1.0730
34968SOL    HW2 8403   0.458   5.949   5.133  0.7033 -1.3348  0.6566
34969SOL     OW 8404   5.561   8.392   8.856 -0.0798 -0.4707 -0.1358
34969SOL    HW1 8405   5.519   8.361   8.775  0.3871 -1.9830  0.1796
34969SOL    HW2 8406   5.501   8.366   8.925 -0.1490  0.2266  0.0759
34970SOL     OW 8407  10.987   0.993   9.987 -0.5790 -0.2869 -0.1333
34970SOL    HW1 8408  10.947   0.962  10.069 -0.0132  0.8135  0.5843
34970SOL    HW2 8409  11.013   1.083  10.006 -1.9060  0.5582 -2.0807
34971SOL     OW 8410   1.916   2.450   3.413 -0.5312 -0.5503  0.4094
34971SOL    HW1 8411   1.942   2.457   3.321  0.0608  0.1842  0.6268
34971SOL    HW2 8412   1.974   2.383   3.449 -0.1500 -0.1940  0.4626
34972SOL     OW 8413   0.170   7.879   3.999  0.1248  0.4213  0.3769
34972SOL    HW1 8414   0.169   7.807   3.936 -0.8403  1.2524 -0.6053
34972SOL    HW2 8415   0.088   7.870   4.048  0.3872  0.3783  0.8143
34973SOL     OW 8416   3.332   4.857   4.496 -0.7700  0.3527  0.2755
34973SOL    HW1 8417   3.319   4.777   4.446 -2.4098  0.5710  0.3135
34973SOL    HW2 8418   3.336   4.829   4.587  2.3470 -0.0605  0.1310
34974SOL     OW 8419   1.068   7.447   2.948 -0.3051 -0.5640  0.3222
34974SOL    HW1 8420   1.148   7.419   2.992 -1.2584 -0.4181  2.2593
34974SOL    HW2 8421   1.072   7.543   2.949 -0.6396 -0.5507  0.7096
34975SOL     OW 8422   1.631   5.895  10.483  0.1511  0.4072  0.8528
34975SOL    HW1 8423   1.544   5.901  10.524 -0.0636 -0.2780  0.5148
34975SOL    HW2 8424   1.646   5.801  10.473  1.0377  0.5116  1.1144
34976SOL     OW 8425   4.793   4.638   2.512 -0.9834 -0.0812  0.4364
34976SOL    HW1 8426   4.778   4.714   2.568  0.1450 -2.2013  3.8963
34976SOL    HW2 8427   4.885   4.645   2.486 -1.4353  0.7587 -1.0967
34977SOL     OW 8428  10.984   4.560   1.457 -0.6511 -0.0080  0.5115
34977SOL    HW1 8429  10.920   4.532   1.392  0.7410  2.0945 -1.9372
34977SOL    HW2 8430  11.061   4.506   1.439 -0.4561  0.1533  0.8689
34978SOL     OW 8431   3.680   8.521   7.374 -0.1169  0.7009  0.0047
34978SOL    HW1 8432   3.590   8.544   7.354  0.1480  0.2082 -1.9627
34978SOL    HW2 8433   3.674   8.456   7.445 -1.5124 -1.3288 -1.8594
34979SOL     OW 8434   2.512   5.111   0.598  0.7369  0.2872 -0.1145
34979SOL    HW1 8435   2.427   5.102   0.642  2.4092 -2.0738  3.0854
34979SOL    HW2 8436   2.523   5.205   0.584 -2.2749  0.6579 -0.5121
34980SOL     OW 8437   7.572   6.705   6.882  0.4450 -0.0792  0.7092
34980SOL    HW1 8438   7.628   6.717   6.806  1.2457 -0.8808  1.1508
34980SOL    HW2 8439   7.519   6.628   6.861 -0.7902  0.8661  0.1510
34981SOL     OW 8440   5.735   4.502   8.671  0.7731 -0.0169  0.5414
34981SOL    HW1 8441   5.826   4.521   8.648  0.4993 -0.7089 -1.3600
34981SOL    HW2 8442   5.731   4.407   8.680  0.3146  0.0405  0.9942
34982SOL     OW 8443   8.973   9.953   5.427  0.4016  0.4041 -0.2037
34982SOL    HW1 8444   9.060   9.980   5.454  0.4311 -0.7792  1.0429
34982SOL    HW2 8445   8.915   9.984   5.497  0.0669 -0.1859 -0.2043
34983SOL     OW 8446   6.443   7.728   3.592  0.0300 -0.6903 -0.4332
34983SOL    HW1 8447   6.380   7.752   3.524  0.7370 -0.3584 -0.9776
34983SOL    HW2 8448   6.521   7.701   3.544  1.3221  1.6082  0.2121
34984SOL     OW 8449   5.126   9.065   2.409 -0.4877 -0.2387 -0.3870
34984SOL    HW1 8450   5.149   9.074   2.502 -0.7495 -1.8835 -0.1275
34984SOL    HW2 8451   5.169   9.139   2.366  0.8966 -0.2865  0.8436
34985SOL     OW 8452   3.214   8.584   1.635  0.1721  0.0333  0.2499
34985SOL    HW1 8453   3.203   8.546   1.722 -0.8886 -0.7273 -0.1890
34985SOL    HW2 8454   3.272   8.523   1.589 -0.5667 -0.4584 -0.0679
34986SOL     OW 8455   2.581   6.756  11.002  0.2225 -0.5297  0.3469
34986SOL    HW1 8456   2.669   6.753  10.966  0.6430  1.2641  1.1029
34986SOL    HW2 8457   2.523   6.746  10.927  1.0815 -0.6030 -0.3112
34987SOL     OW 8458   5.396  10.217   2.930  0.2940  0.2223 -0.6567
34987SOL    HW1 8459   5.327  10.161   2.965  0.0476  0.7239 -0.3139
34987SOL    HW2 8460   5.349  10.278   2.873  0.4257  0.6653 -0.2982
34988SOL     OW 8461   8.107   3.970   2.566  0.2716 -0.1249 -0.5839
34988SOL    HW1 8462   8.035   3.941   2.510  0.4951 -0.3851 -0.7389
34988SOL    HW2 8463   8.153   3.889   2.590  1.0071  0.1066 -1.1684
34989SOL     OW 8464   0.302   3.557   4.352 -0.3455 -0.4558 -0.2052
34989SOL    HW1 8465   0.207   3.547   4.355 -0.1886 -2.0808  0.2879
34989SOL    HW2 8466   0.336   3.474   4.385  1.2573 -0.1778 -1.0572
34990SOL     OW 8467   6.339   8.579   5.119  0.2033 -0.3565  1.1572
34990SOL    HW1 8468   6.270   8.512   5.123  1.6946 -2.0342  0.1285
34990SOL    HW2 8469   6.378   8.579   5.206 -1.9883  1.7216  2.2645
34991SOL     OW 8470   6.469   7.774   0.239  0.1498 -0.0786  0.2687
34991SOL    HW1 8471   6.413   7.703   0.210  0.0740  0.2103 -0.3177
34991SOL    HW2 8472   6.477   7.762   0.333  1.4753 -1.8161 -0.0130
34992SOL     OW 8473   3.406   2.850   8.248  1.1963  0.7058  0.1933
34992SOL    HW1 8474   3.411   2.931   8.198  1.0061  0.1946 -0.6796
34992SOL    HW2 8475   3.455   2.867   8.328  0.9355  1.7623  0.1336
34993SOL     OW 8476   4.659  10.867   2.923 -0.2877  0.1384  0.0259
34993SOL    HW1 8477   4.580  10.830   2.962  0.9809 -1.4983  1.2479
34993SOL    HW2 8478   4.666  10.954   2.961 -2.2800  0.9641 -1.3284
34994SOL     OW 8479   6.051   4.563   5.669 -0.1498  0.2401  0.3810
34994SOL    HW1 8480   6.101   4.532   5.594  1.5939  2.2715  0.6103
34994SOL    HW2 8481   6.027   4.484   5.717 -0.7029 -1.0576 -1.8870
34995SOL     OW 8482   0.260  10.195   0.754  0.7252 -0.0304  0.0855
34995SOL    HW1 8483   0.252  10.290   0.765  2.0100 -0.1246  2.5290
34995SOL    HW2 8484   0.169  10.164   0.751  0.2693  1.1532  0.8018
34996SOL     OW 8485   8.425   3.066   2.143  0.1362 -0.3746 -0.0615
34996SOL    HW1 8486   8.372   2.988   2.155  0.7707 -1.1079 -1.7445
34996SOL    HW2 8487   8.437   3.074   2.049 -0.1721  1.9559  0.0252
34997SOL     OW 8488   4.887   1.233   7.010  0.4157 -0.3321 -0.3204
34997SOL    HW1 8489   4.959   1.224   6.946  0.3513  0.0970 -0.4533
34997SOL    HW2 8490   4.808   1.211   6.960  0.3794 -0.1204 -0.3574
34998SOL     OW 8491   3.203   7.859  10.103  0.2036 -0.0505 -0.8718
34998SOL    HW1 8492   3.162   7.845  10.189  0.2259 -0.8354 -0.9907
34998SOL    HW2 8493   3.150   7.808  10.042 -0.0788  0.8477 -1.4120
34999SOL     OW 8494   3.152   3.549   9.004 -0.4707 -0.1048  0.4595
34999SOL    HW1 8495   3.219   3.485   8.983  0.0716 -0.1679  2.2318
34999SOL    HW2 8496   3.101   3.558   8.923  0.3751 -1.6072 -0.2777
35000SOL     OW 8497   9.892   3.645   2.543  0.6667  0.0087 -0.0994
35000SOL    HW1 8498   9.917   3.693   2.464 -0.2448  1.8098  0.6387
35000SOL    HW2 8499   9.903   3.709   2.614 -1.0639 -0.7195  0.8806
35001SOL     OW 8500   8.607   5.891   9.733 -0.4310  0.4343 -0.6762
35001SOL    HW1 8501   8.658   5.828   9.783 -0.8261 -0.5140 -1.4481
35001SOL    HW2 8502   8.548   5.838   9.680 -0.5392  1.4376 -1.5948
35002SOL     OW 8503   6.975  10.503   9.920  0.5273 -0.2041  0.1986
35002SOL    HW1 8504   6.946  10.578   9.869  0.9217  0.7490  1.3471
35002SOL    HW2 8505   7.063  10.485   9.888 -0.0181 -0.9991 -0.9475
35003SOL     OW 8506   9.498   2.052   2.913  0.1047  0.3413  0.0259
35003SOL    HW1 8507   9.525   2.142   2.896  0.0036 -0.0279 -2.5620
35003SOL    HW2 8508   9.536   2.002   2.840 -0.8624 -1.4947  0.7290
35004SOL     OW 8509   9.299  10.703   5.637  0.0171 -0.6665  0.5046
35004SOL    HW1 8510   9.379  10.745   5.604 -0.1937 -0.8642 -0.2770
35004SOL    HW2 8511   9.326  10.614   5.658  0.1024 -0.6022  0.6710
35005SOL     OW 8512   0.074   2.703   8.275  0.4716 -0.2166 -0.1192
35005SOL    HW1 8513   0.165   2.675   8.262  0.0603 -1.5982 -0.1732
35005SOL    HW2 8514   0.033   2.690   8.190  0.2406  0.5230 -0.1259
35006SOL     OW 8515   5.081   9.770   6.792 -0.4579 -0.0330  0.0241
35006SOL    HW1 8516   4.997   9.741   6.828 -1.0893  0.2905 -1.1345
35006SOL    HW2 8517   5.065   9.779   6.698  0.2543  2.1009  0.0547
35007SOL     OW 8518   2.974   3.575   0.348 -0.3850 -0.0411 -0.4600
35007SOL    HW1 8519   2.979   3.585   0.253 -0.3717 -1.0839 -0.5891
35007SOL    HW2 8520   2.950   3.661   0.381 -0.4065  0.3245 -1.4142
35008SOL     OW 8521   1.573   7.727  10.956 -0.1710 -0.1987 -0.6167
35008SOL    HW1 8522   1.623   7.713  11.037  2.2525  1.7086 -1.6725
35008SOL    HW2 8523   1.612   7.665  10.894  1.7745  1.9625 -1.7214
35009SOL     OW 8524   1.226  10.008   0.466 -0.0514 -0.4315  0.3813
35009SOL    HW1 8525   1.229   9.937   0.401 -0.9337 -0.7992  0.7177
35009SOL    HW2 8526   1.317  10.026   0.487  0.2115 -0.9245 -0.3012
35010SOL     OW 8527   3.381   8.582   1.308  0.4650  0.0577  0.2122
35010SOL    HW1 8528   3.394   8.490   1.328  0.1053 -0.2488 -0.9148
35010SOL    HW2 8529   3.335   8.616   1.385 -0.2315 -0.9140  0.2454
35011SOL     OW 8530   8.507   2.863   7.190 -0.1789 -0.1281 -0.4379
35011SOL    HW1 8531   8.461   2.809   7.255 -2.9121  0.4825 -1.6978
35011SOL    HW2 8532   8.457   2.945   7.188  2.0808  1.3118 -0.7078
35012SOL     OW 8533   8.491   0.778   5.641 -0.0477  0.7531 -0.4499
35012SOL    HW1 8534   8.542   0.737   5.571  0.7587 -0.3147  0.7359
35012SOL    HW2 8535   8.424   0.713   5.663  1.2185 -0.0032  1.4226
35013SOL     OW 8536   4.437   2.724   4.740 -0.2411  0.3452  0.4005
35013SOL    HW1 8537   4.374   2.796   4.738 -0.2304  0.4552  2.0517
35013SOL    HW2 8538   4.386   2.647   4.716 -0.6251  0.6654  0.1630
35014SOL     OW 8539   7.044  10.547   2.804 -0.3909  0.5643  0.3254
35014SOL    HW1 8540   7.098  10.588   2.872 -0.3089 -0.2719  0.7735
35014SOL    HW2 8541   7.071  10.455   2.804 -0.9631  0.3904 -0.2881
35015SOL     OW 8542   3.836   3.213   5.299  0.1073 -0.0542  0.3844
35015SOL    HW1 8543   3.915   3.243   5.254  0.2034  1.9515  1.7701
35015SOL    HW2 8544   3.864   3.199   5.390 -1.3163  1.9337  1.2153
35016SOL     OW 8545   1.687   7.421   9.819 -0.0203 -0.0174 -0.0102
35016SOL    HW1 8546   1.650   7.444   9.734 -0.0786  0.2767  0.0915
35016SOL    HW2 8547   1.704   7.327   9.814 -2.7057 -0.6142  0.6340
35017SOL     OW 8548   3.158   0.190   4.591  0.2904  0.0342  0.1297
35017SOL    HW1 8549   3.082   0.244   4.612 -0.0200 -0.3685  0.0543
35017SOL    HW2 8550   3.230   0.252   4.583 -0.0697  0.4405  0.0048
35018SOL     OW 8551   8.325   5.218   5.855 -0.7682 -0.2224 -0.2737
35018SOL    HW1 8552   8.394   5.235   5.919  0.2778 -0.0725 -1.4097
35018SOL    HW2 8553   8.265   5.292   5.864  1.5051  2.0664 -2.2385
35019SOL     OW 8554   6.149   8.160   2.521  0.3662  0.1637 -0.5597
35019SOL    HW1 8555   6.243   8.175   2.528  0.3237 -0.1231  0.6998
35019SOL    HW2 8556   6.119   8.227   2.459  0.7810  2.9712  2.0580
35020SOL     OW 8557   6.312   2.355   0.775  0.6206 -0.8438  0.3985
35020SOL    HW1 8558   6.284   2.297   0.704  0.7345 -1.0425  0.5154
35020SOL    HW2 8559   6.231   2.396   0.805  0.5775 -0.7193  0.1224
35021SOL     OW 8560   3.683   4.922   9.532 -0.4809 -0.4855  0.3606
35021SOL    HW1 8561   3.763   4.919   9.479 -0.2842 -0.2438  0.6404
35021SOL    HW2 8562   3.618   4.961   9.475 -0.4158 -0.7420  0.1085
35022SOL     OW 8563   3.212   1.821   4.807  0.6539 -0.6089 -0.0489
35022SOL    HW1 8564   3.261   1.805   4.888  0.8531 -0.5166 -0.1485
35022SOL    HW2 8565   3.204   1.916   4.803 -0.1844 -0.6547  0.3425
35023SOL     OW 8566   2.305   9.215   1.482 -0.0503  0.6263  0.0280
35023SOL    HW1 8567   2.299   9.188   1.574 -1.0127 -0.5048 -0.3328
35023SOL    HW2 8568   2.380   9.274   1.479  0.4764  0.0717  1.4001
35024SOL     OW 8569   3.453   3.310   1.562 -0.1472  0.0511  0.7070
35024SOL    HW1 8570   3.393   3.257   1.508  0.8481 -1.0758  0.6628
35024SOL    HW2 8571   3.439   3.400   1.532 -1.3185 -0.2645  0.2312
35025SOL     OW 8572   7.960  10.364   7.808  0.4925 -0.3683 -0.4297
35025SOL    HW1 8573   7.943  10.392   7.898 -0.8768  1.5856 -1.2366
35025SOL    HW2 8574   8.052  10.338   7.808  0.5921 -0.1587  1.4642
35026SOL     OW 8575   5.247   4.500   3.311 -0.0232  0.7949  0.2957
35026SOL    HW1 8576   5.296   4.582   3.301  1.4565 -0.0663  0.2339
35026SOL    HW2 8577   5.161   4.528   3.342 -0.6145  2.5930 -2.5914
35027SOL     OW 8578   7.577   6.272   6.044 -0.1281 -0.3113 -0.5252
35027SOL    HW1 8579   7.546   6.242   5.958 -0.8570 -1.2602  0.0487
35027SOL    HW2 8580   7.502   6.260   6.102 -0.6974  3.1713 -0.3176
35028SOL     OW 8581   7.735   7.475   6.173  0.0650  0.0557 -0.2758
35028SOL    HW1 8582   7.739   7.413   6.247 -0.3311 -0.0672 -0.3532
35028SOL    HW2 8583   7.774   7.427   6.100  0.1114  0.0389 -0.2403
35029SOL     OW 8584   2.450   5.918   8.625  0.0377  0.4399  0.0385
35029SOL    HW1 8585   2.514   5.980   8.659  0.6009 -0.3269  0.4100
35029SOL    HW2 8586   2.372   5.970   8.608  0.3859  1.1802  0.6770
35030SOL     OW 8587   6.338   3.543   1.367 -0.0565 -0.0295  0.0298
35030SOL    HW1 8588   6.294   3.538   1.452 -1.0320 -2.2368 -0.5318
35030SOL    HW2 8589   6.274   3.584   1.309 -0.2932 -0.6315 -0.1423
35031SOL     OW 8590   3.209   9.093   3.560 -0.0653  0.2446  0.0240
35031SOL    HW1 8591   3.164   9.149   3.623  0.1386  0.3052  0.1164
35031SOL    HW2 8592   3.190   9.133   3.475 -2.5798 -1.3176 -0.2623
35032SOL     OW 8593   3.909   2.423   3.172  0.6646  0.6471  0.1204
35032SOL    HW1 8594   3.905   2.512   3.138 -0.6994  1.3157  1.8883
35032SOL    HW2 8595   3.826   2.410   3.217  0.6357 -1.7008 -0.4567
35033SOL     OW 8596   1.357   5.127   6.220 -0.2427 -1.1658  0.2775
35033SOL    HW1 8597   1.277   5.140   6.270 -0.6535  0.4492 -0.7470
35033SOL    HW2 8598   1.418   5.088   6.282 -1.3847 -1.1355  1.4515
35034SOL     OW 8599   9.511   3.842   0.295 -0.0546 -0.3652  0.0974
35034SOL    HW1 8600   9.448   3.771   0.285 -0.9777  0.4169  0.1988
35034SOL    HW2 8601   9.458   3.919   0.316  0.9824  0.2008  0.7670
35035SOL     OW 8602   3.011   1.695   4.374  0.6519 -0.5027  0.7735
35035SOL    HW1 8603   3.041   1.734   4.457 -0.7424  1.7486  0.3247
35035SOL    HW2 8604   3.091   1.683   4.323  1.2377  2.1570  0.8744
35036SOL     OW 8605   5.189   5.430   5.276  0.6560 -0.2722 -0.7263
35036SOL    HW1 8606   5.255   5.370   5.242  0.2817  0.1815 -2.3229
35036SOL    HW2 8607   5.107   5.381   5.268  0.4445  0.1681 -1.3827
35037SOL     OW 8608   5.119  10.950   1.026 -0.1616  0.4819 -0.9735
35037SOL    HW1 8609   5.201  10.983   0.988  0.8690  1.5073  1.8737
35037SOL    HW2 8610   5.135  10.950   1.121 -3.0855 -0.3945 -0.3899
35038SOL     OW 8611   7.912   0.526  10.083 -0.3201  0.0256 -0.1390
35038SOL    HW1 8612   7.971   0.522  10.157  0.1418  0.1536 -0.4944
35038SOL    HW2 8613   7.901   0.620  10.066  0.4785 -0.0072 -0.9293
35039SOL     OW 8614   3.631   3.689   8.905  0.6869 -0.1325  0.1716
35039SOL    HW1 8615   3.563   3.717   8.967 -0.6966 -1.9132 -0.4391
35039SOL    HW2 8616   3.671   3.612   8.946 -1.4099 -2.4131 -1.7204
35040SOL     OW 8617   2.472   2.760   8.654  0.0398 -0.2050  0.0612
35040SOL    HW1 8618   2.545   2.792   8.600  0.1546 -0.4964  0.0402
35040SOL    HW2 8619   2.507   2.681   8.696 -0.6058 -0.9638 -0.7855
35041SOL     OW 8620   0.972   5.043   4.079 -0.5320 -0.1523 -0.4031
35041SOL    HW1 8621   0.981   4.979   4.149 -1.5585 -0.0556 -0.1613
35041SOL    HW2 8622   1.061   5.060   4.050 -0.0806 -0.1112  0.9507
35042SOL     OW 8623   5.297   4.810  10.410 -0.2341 -0.3236 -0.5693
35042SOL    HW1 8624   5.207   4.832  10.386 -0.8519 -2.2457 -0.1782
35042SOL    HW2 8625   5.335   4.775  10.329  0.5138  1.3739 -0.9974
35043SOL     OW 8626  10.425   3.359   9.950 -0.1172  0.3732  0.5825
35043SOL    HW1 8627  10.408   3.434   9.893 -2.5236 -0.9310 -0.5744
35043SOL    HW2 8628  10.350   3.301   9.937  1.9736 -2.6170  0.8426
35044SOL     OW 8629   7.310   1.775   0.800 -0.1920  0.2372  0.2278
35044SOL    HW1 8630   7.346   1.691   0.827 -0.2329 -0.1682 -0.9657
35044SOL    HW2 8631   7.383   1.836   0.807 -0.7022  0.6660  3.4062
35045SOL     OW 8632   6.586   5.501   8.406  0.0367  0.5028  0.6058
35045SOL    HW1 8633   6.511   5.526   8.352  1.0404 -0.2442 -1.1825
35045SOL    HW2 8634   6.567   5.411   8.433 -0.3122  0.7688  1.2996
35046SOL     OW 8635   2.837   8.624   9.761 -0.1310  0.5326  0.3284
35046SOL    HW1 8636   2.744   8.642   9.748 -0.0315  1.8698  1.2319
35046SOL    HW2 8637   2.850   8.637   9.855  0.4138 -2.4751  0.7746
35047SOL     OW 8638   5.760   6.596  10.949 -0.0788  0.1571 -0.1568
35047SOL    HW1 8639   5.845   6.623  10.914 -0.2248 -0.8673 -1.3812
35047SOL    HW2 8640   5.766   6.614  11.043  2.3077 -1.8381  0.1709
35048SOL     OW 8641   2.523   8.895   6.912 -0.1523  0.1200 -0.4693
35048SOL    HW1 8642   2.523   8.836   6.988  0.1422  2.2559  1.3017
35048SOL    HW2 8643   2.593   8.862   6.856  1.2471 -0.1612  1.3616
35049SOL     OW 8644   0.711   7.540   3.141 -0.0039  0.3992 -0.1821
35049SOL    HW1 8645   0.735   7.577   3.226 -5.5223  0.7076  1.6042
35049SOL    HW2 8646   0.742   7.449   3.145  2.9661  1.3339  0.4846
35050SOL     OW 8647   5.028   8.913   3.591  0.0457  0.0924 -0.1395
35050SOL    HW1 8648   4.989   8.827   3.611  0.1663 -0.1048 -0.7489
35050SOL    HW2 8649   5.117   8.893   3.562 -0.4722  0.2665 -1.9662
35051SOL     OW 8650   5.351   7.126   0.414  0.2433 -0.2818  0.0648
35051SOL    HW1 8651   5.290   7.077   0.469  0.0539 -0.6383 -0.4562
35051SOL    HW2 8652   5.377   7.201   0.469  1.8796 -1.8414  1.5276
35052SOL     OW 8653   1.731   3.024   6.635  0.0178 -0.2018 -0.2578
35052SOL    HW1 8654   1.670   2.951   6.647 -0.2283 -0.1971 -1.3865
35052SOL    HW2 8655   1.686   3.099   6.674 -1.6907  0.2642 -2.8736
35053SOL     OW 8656  10.169   5.417   8.616 -0.5461 -0.2348  0.2821
35053SOL    HW1 8657  10.195   5.326   8.606  0.5187  0.1639 -0.9563
35053SOL    HW2 8658  10.127   5.440   8.532 -1.8834  0.0960  1.0156
35054SOL     OW 8659   7.818   4.792   1.129 -0.0574  0.1959  1.1143
35054SOL    HW1 8660   7.762   4.838   1.193 -0.4663  1.6794 -0.2523
35054SOL    HW2 8661   7.758   4.770   1.058  0.4994 -1.0002  1.0036
35055SOL     OW 8662  10.026   1.731   6.418 -0.0098 -0.5592 -0.2286
35055SOL    HW1 8663  10.074   1.760   6.341 -0.9916  0.7577 -0.3722
35055SOL    HW2 8664   9.948   1.687   6.382  0.6310 -1.9663  0.0116
35056SOL     OW 8665   4.700   3.559  10.573  0.0966 -0.5262  0.0210
35056SOL    HW1 8666   4.776   3.500  10.568  0.6590 -0.0853  2.2984
35056SOL    HW2 8667   4.665   3.545  10.661 -2.8175 -1.0714 -1.1164
35057SOL     OW 8668   5.463   6.492  10.573  0.0982  0.5895 -0.0675
35057SOL    HW1 8669   5.530   6.480  10.640  0.0833  2.6447  0.3896
35057SOL    HW2 8670   5.509   6.533  10.499 -0.3282  0.4457 -0.4212
35058SOL     OW 8671   1.288   4.930   1.298 -0.4318 -0.4060 -0.5487
35058SOL    HW1 8672   1.230   4.854   1.304  0.9277 -1.4950 -0.4684
35058SOL    HW2 8673   1.274   4.978   1.379 -0.2488 -1.3870  0.0793
35059SOL     OW 8674   8.046   6.452   2.188 -0.5463  0.2746 -0.3115
35059SOL    HW1 8675   8.083   6.539   2.203  0.7025 -0.4369  0.9179
35059SOL    HW2 8676   8.121   6.398   2.162 -1.2078 -0.5850 -0.4761
35060SOL     OW 8677   4.323   7.219   0.420 -0.3748  0.1600 -0.3650
35060SOL    HW1 8678   4.279   7.236   0.503  0.5741 -0.6986  0.3298
35060SOL    HW2 8679   4.253   7.184   0.363 -0.7580 -0.4931  0.4851
35061SOL     OW 8680   2.664   4.217   4.307 -0.1105  0.0015  0.3638
35061SOL    HW1 8681   2.750   4.193   4.340  0.3467  1.5471  0.3962
35061SOL    HW2 8682   2.610   4.227   4.385 -0.2089 -0.5246  0.3688
35062SOL     OW 8683   1.235   8.085   4.638 -0.0192  0.0810  0.4468
35062SOL    HW1 8684   1.207   8.015   4.579 -2.1298  1.0721  0.1660
35062SOL    HW2 8685   1.255   8.041   4.720  0.3292 -1.0252 -0.2112
35063SOL     OW 8686   7.969   2.907   3.373 -0.1174 -0.2123 -0.0901
35063SOL    HW1 8687   7.946   2.982   3.428  1.8986 -0.4723  1.1852
35063SOL    HW2 8688   7.893   2.848   3.381 -0.7947  0.7220  0.6276
35064SOL     OW 8689   4.999   7.386   2.926  0.8571 -0.3189 -0.1975
35064SOL    HW1 8690   4.906   7.377   2.950  0.9715  1.0713  0.8894
35064SOL    HW2 8691   5.038   7.303   2.953  0.3152 -0.1053  1.3478
35065SOL     OW 8692   5.313   0.838   0.700 -0.2884 -0.0919 -0.0918
35065SOL    HW1 8693   5.368   0.885   0.638 -1.1016  0.3210 -0.5116
35065SOL    HW2 8694   5.239   0.895   0.715 -0.7349 -0.7487  0.2789
35066SOL     OW 8695   4.219   3.291   6.033  0.1128 -0.3097  0.7276
35066SOL    HW1 8696   4.145   3.271   6.090 -0.7477 -1.9753 -0.8831
35066SOL    HW2 8697   4.180   3.311   5.948  1.4393  0.7042  0.3181
35067SOL     OW 8698   2.157   3.720   7.510 -0.2142  0.0160 -0.2408
35067SOL    HW1 8699   2.075   3.722   7.460 -1.1882 -1.3010  1.1926
35067SOL    HW2 8700   2.206   3.647   7.472  0.1593  0.5807 -0.8661
35068SOL     OW 8701  10.656   2.607   6.626 -0.4577  0.0170 -0.1381
35068SOL    HW1 8702  10.660   2.689   6.576  1.9398 -1.4752 -2.7029
35068SOL    HW2 8703  10.737   2.607   6.678 -2.3664  0.9932  3.0877
35069SOL     OW 8704   3.029   7.192   3.665  0.2786  0.4713 -0.0995
35069SOL    HW1 8705   3.017   7.281   3.698 -0.9682  0.2185  0.1524
35069SOL    HW2 8706   2.941   7.157   3.655  0.7589 -1.1638  0.9562
35070SOL     OW 8707   1.339   4.262   9.599 -0.0715 -0.3560  0.1105
35070SOL    HW1 8708   1.386   4.345   9.588  0.1256 -0.2003  1.8282
35070SOL    HW2 8709   1.247   4.286   9.591 -0.0362  0.1279  1.0342
35071SOL     OW 8710  10.451   9.529   6.128 -0.4771 -0.2503 -0.3099
35071SOL    HW1 8711  10.365   9.567   6.143 -0.5048 -0.1947 -0.6193
35071SOL    HW2 8712  10.454   9.511   6.035 -0.0461  0.0194 -0.3534
35072SOL     OW 8713   3.636   2.577  10.170 -0.3278  0.1263  0.2089
35072SOL    HW1 8714   3.590   2.498  10.198 -0.0970  0.0574  0.3917
35072SOL    HW2 8715   3.583   2.649  10.204 -0.3578  0.0481  0.3249
35073SOL     OW 8716   0.126   5.824   4.959  0.0991  0.1109  0.1106
35073SOL    HW1 8717   0.221   5.834   4.948  0.2630  1.0578  1.9292
35073SOL    HW2 8718   0.115   5.794   5.049 -1.3956  2.5086  0.8443
35074SOL     OW 8719   0.104   2.541   9.166  0.4284 -0.1057 -0.2881
35074SOL    HW1 8720   0.059   2.545   9.082 -0.9570  0.8413  0.4386
35074SOL    HW2 8721   0.196   2.556   9.146  0.4838 -2.2003 -1.8546
35075SOL     OW 8722   9.048   4.435   4.112 -0.6779  0.2057 -0.1239
35075SOL    HW1 8723   8.992   4.365   4.078 -0.5456 -0.6523  1.3633
35075SOL    HW2 8724   9.025   4.512   4.059  0.8977 -1.4379 -3.5042
35076SOL     OW 8725  10.956   9.524  10.100  0.2540 -0.4489 -0.0200
35076SOL    HW1 8726  10.991   9.435  10.108  2.3305  0.0051 -2.5468
35076SOL    HW2 8727  10.884   9.528  10.162  0.4025 -3.7433  0.5108
35077SOL     OW 8728   3.610   1.772   2.336 -0.3110 -0.1371 -0.0874
35077SOL    HW1 8729   3.518   1.792   2.348 -0.0763  2.3108 -1.6610
35077SOL    HW2 8730   3.610   1.688   2.289 -1.7150 -0.2243  0.0244
35078SOL     OW 8731   9.922   3.735   3.933 -0.5170  0.0297 -0.7866
35078SOL    HW1 8732   9.907   3.649   3.973  0.2683  0.0935 -0.3183
35078SOL    HW2 8733  10.017   3.739   3.921 -0.5881  0.6767 -1.1658
35079SOL     OW 8734   9.391   3.467   0.383 -0.8131  0.5168 -0.4662
35079SOL    HW1 8735   9.337   3.437   0.457 -1.3969 -1.5646 -1.6753
35079SOL    HW2 8736   9.333   3.526   0.334 -0.5568  1.5856  0.4610
35080SOL     OW 8737   4.115   5.169   4.969 -0.2951  0.0839  0.0914
35080SOL    HW1 8738   4.185   5.123   4.923 -1.5408 -2.3460  0.4880
35080SOL    HW2 8739   4.040   5.165   4.910 -0.8780  0.2071  0.8103
35081SOL     OW 8740   4.360   8.797   5.952  0.1064 -0.3381 -0.7520
35081SOL    HW1 8741   4.308   8.755   5.884  0.0068 -1.2738 -0.1241
35081SOL    HW2 8742   4.302   8.803   6.027  0.2284  0.6454 -0.7200
35082SOL     OW 8743   2.626   0.621   3.437 -0.1375  0.0448  0.6013
35082SOL    HW1 8744   2.670   0.571   3.506 -0.4069 -2.1825 -0.7625
35082SOL    HW2 8745   2.679   0.699   3.427  2.4558 -1.6347  0.3506
35083SOL     OW 8746   0.884   4.544   1.396  0.0487  0.1355  0.2408
35083SOL    HW1 8747   0.915   4.454   1.410  2.5682  0.9186  0.2072
35083SOL    HW2 8748   0.867   4.577   1.484 -1.5390 -0.5505  0.2158
35084SOL     OW 8749   2.831   4.245   9.967  0.0445 -0.6214  0.7542
35084SOL    HW1 8750   2.917   4.225  10.003  0.7174  1.0502  0.1680
35084SOL    HW2 8751   2.822   4.340   9.977 -1.0571 -0.5463 -0.6013
35085SOL     OW 8752   6.527   9.792   9.638 -0.2065  0.4807 -0.2035
35085SOL    HW1 8753   6.473   9.713   9.642 -0.0498  0.3638 -0.3611
35085SOL    HW2 8754   6.539   9.819   9.729 -0.0764  0.1965 -0.1373
35086SOL     OW 8755   1.753  10.930   6.256 -0.5570 -0.0234  0.1534
35086SOL    HW1 8756   1.806  10.852   6.238 -1.0170 -0.2024 -0.4515
35086SOL    HW2 8757   1.681  10.925   6.194 -1.7884 -0.2521  1.5420
35087SOL     OW 8758   4.515   2.360   0.221 -0.1801  0.5090  0.2302
35087SOL    HW1 8759   4.427   2.361   0.183  1.3892  0.2820 -3.8962
35087SOL    HW2 8760   4.539   2.268   0.226  0.0176  0.5897  0.9129
35088SOL     OW 8761   7.534   8.674  10.689  0.6649  0.0344  0.3173
35088SOL    HW1 8762   7.622   8.647  10.660  1.2376 -0.2217  2.1551
35088SOL    HW2 8763   7.483   8.593  10.687 -0.0422  0.4443 -2.2425
35089SOL     OW 8764   3.551   2.417   2.055 -0.1766 -0.2967  0.2948
35089SOL    HW1 8765   3.554   2.353   2.127 -1.6938  0.5129  1.1358
35089SOL    HW2 8766   3.509   2.370   1.983  0.0751 -0.6992  0.4060
35090SOL     OW 8767   7.891   1.311   5.450  0.0212 -0.2318  0.0442
35090SOL    HW1 8768   7.931   1.267   5.374 -2.3879 -1.5542 -0.5634
35090SOL    HW2 8769   7.878   1.401   5.420  0.1019 -0.4583 -0.7086
35091SOL     OW 8770   0.410   6.630   9.345 -0.3652 -0.0419  0.5035
35091SOL    HW1 8771   0.414   6.561   9.279 -0.3569  0.2296  0.2197
35091SOL    HW2 8772   0.367   6.704   9.302  2.6570  1.4016 -0.3652
35092SOL     OW 8773   1.225   8.608   3.751 -0.3445  0.1975 -0.5825
35092SOL    HW1 8774   1.303   8.574   3.706 -0.9233  1.4299 -2.7007
35092SOL    HW2 8775   1.156   8.546   3.730 -0.6845  0.9284 -1.7702
35093SOL     OW 8776   7.017   7.811   1.454 -0.1995  0.6393 -0.5429
35093SOL    HW1 8777   7.102   7.826   1.496  0.4575 -0.4886 -1.4129
35093SOL    HW2 8778   7.027   7.728   1.408 -1.7102  0.6041 -0.8649
35094SOL     OW 8779   0.632   1.070   8.087  0.0931 -0.3162 -0.1358
35094SOL    HW1 8780   0.608   1.163   8.085  0.0172 -0.3157 -2.5040
35094SOL    HW2 8781   0.706   1.065   8.148 -0.1988  1.2073  0.3800
35095SOL     OW 8782   7.360   1.130   7.159  0.2550  0.1046 -0.2421
35095SOL    HW1 8783   7.317   1.165   7.080 -0.8822  0.5015  0.5280
35095SOL    HW2 8784   7.312   1.050   7.179  0.0289  0.4203  0.4914
35096SOL     OW 8785   3.197   3.411   1.269  0.4454 -0.1819 -0.2321
35096SOL    HW1 8786   3.185   3.487   1.326  0.4167  0.1003 -0.6090
35096SOL    HW2 8787   3.112   3.398   1.227  1.0170  0.9460 -1.8314
35097SOL     OW 8788   5.743   0.938   7.182  0.0299  0.3699 -0.0745
35097SOL    HW1 8789   5.682   1.011   7.195 -0.1017 -0.0223  1.8045
35097SOL    HW2 8790   5.692   0.860   7.206  0.9148 -0.0835  0.3648
35098SOL     OW 8791   2.059   4.628   2.733 -0.6627 -0.2956 -0.0512
35098SOL    HW1 8792   2.074   4.556   2.672 -3.0749 -1.5330  0.7327
35098SOL    HW2 8793   2.075   4.591   2.820 -1.0601  0.3785  0.3192
35099SOL     OW 8794   5.707   7.265   5.486 -0.3683 -0.1231 -0.2763
35099SOL    HW1 8795   5.760   7.342   5.504 -0.6651 -0.1618  0.8370
35099SOL    HW2 8796   5.768   7.191   5.497 -0.0730 -0.0612 -1.3888
35100SOL     OW 8797   9.378   4.570   1.139  0.6318 -0.0596 -0.1513
35100SOL    HW1 8798   9.337   4.637   1.195  0.4891  0.7324 -1.1673
35100SOL    HW2 8799   9.314   4.556   1.069 -0.0663 -2.4509  0.8462
35101SOL     OW 8800   9.617   2.811   2.506  0.1776  0.0236 -0.1091
35101SOL    HW1 8801   9.692   2.854   2.548  0.2396 -0.4919  0.3250
35101SOL    HW2 8802   9.573   2.765   2.578 -0.5539  0.3189 -0.3599
35102SOL     OW 8803   8.722  10.463   0.649 -0.2935 -0.2414  0.2966
35102SOL    HW1 8804   8.757  10.552   0.651  2.2346 -1.1618  0.1911
35102SOL    HW2 8805   8.787  10.413   0.601 -0.7192 -2.5344  1.9586
35103SOL     OW 8806   3.372   0.969   4.057 -0.2894  0.0284 -0.0561
35103SOL    HW1 8807   3.467   0.966   4.046 -0.2134 -0.0156  0.6002
35103SOL    HW2 8808   3.358   0.963   4.151 -0.9921 -1.2149 -0.2207
35104SOL     OW 8809   1.622   8.443   3.807 -0.1737  0.2064  0.1858
35104SOL    HW1 8810   1.600   8.354   3.833  2.4939 -0.4560  0.4759
35104SOL    HW2 8811   1.630   8.491   3.890 -1.3710  0.7138  0.0401
35105SOL     OW 8812   9.913   7.271   1.307  0.0299  0.2966 -0.3100
35105SOL    HW1 8813   9.899   7.355   1.261  0.1914  0.4196 -0.1352
35105SOL    HW2 8814   9.916   7.295   1.399 -2.8585 -0.2486  0.0342
35106SOL     OW 8815   4.397   2.514   5.648  0.0300 -0.6709 -0.2509
35106SOL    HW1 8816   4.355   2.474   5.724  1.1697  0.8408  1.2425
35106SOL    HW2 8817   4.491   2.503   5.663  0.2951  0.1236 -1.1740
35107SOL     OW 8818   6.275   9.909   0.216 -0.6148  0.2566 -0.1962
35107SOL    HW1 8819   6.346   9.937   0.273  0.1878 -1.6385 -0.1936
35107SOL    HW2 8820   6.224   9.988   0.201  1.9726  1.9282 -0.9188
35108SOL     OW 8821   9.080   7.518   0.151  0.7406 -0.0840 -0.5570
35108SOL    HW1 8822   9.034   7.437   0.172  0.3914  0.1647 -0.3672
35108SOL    HW2 8823   9.143   7.529   0.223 -1.1798  1.3341  1.0314
35109SOL     OW 8824   8.063   5.972   0.108  0.3446  0.6441 -0.0094
35109SOL    HW1 8825   7.973   6.000   0.091  0.2641  0.4383  0.0814
35109SOL    HW2 8826   8.065   5.952   0.201  0.0321 -0.9954 -0.3277
35110SOL     OW 8827   8.111   2.623   0.733  0.3718  0.4329  0.3242
35110SOL    HW1 8828   8.085   2.712   0.709  0.4569  0.4744  0.3887
35110SOL    HW2 8829   8.197   2.611   0.692  0.0495  0.1343 -0.2789
35111SOL     OW 8830   9.778   0.295   5.013 -0.2309 -0.2008  0.5780
35111SOL    HW1 8831   9.688   0.326   5.010 -0.2187 -0.0508 -3.2919
35111SOL    HW2 8832   9.831   0.373   4.996  0.5491 -0.5130  1.5148
35112SOL     OW 8833   0.280   6.907   2.442  0.6246 -0.0454 -1.2218
35112SOL    HW1 8834   0.238   6.932   2.360  0.4625  1.3039 -0.7428
35112SOL    HW2 8835   0.271   6.811   2.445 -2.8543  0.1641 -0.9291
35113SOL     OW 8836   0.168  10.132   3.835 -0.1403  0.4514  0.4938
35113SOL    HW1 8837   0.216  10.081   3.770 -1.3398 -0.5581  0.3504
35113SOL    HW2 8838   0.217  10.120   3.916 -0.1730 -0.6216  0.3703
35114SOL     OW 8839   1.399   4.522   0.744 -0.0481  0.0977 -0.0851
35114SOL    HW1 8840   1.377   4.612   0.770  1.6103  0.5425 -0.1284
35114SOL    HW2 8841   1.479   4.502   0.791  1.2783 -0.2482 -2.3332
35115SOL     OW 8842   3.763   6.202   0.778 -0.1931 -0.7790 -0.2704
35115SOL    HW1 8843   3.783   6.246   0.860 -0.8406 -2.7548  1.0149
35115SOL    HW2 8844   3.684   6.245   0.745 -0.5085 -0.6183  0.6710
35116SOL     OW 8845   3.442   0.938   6.155  0.0609  0.4116 -0.2367
35116SOL    HW1 8846   3.491   0.950   6.235 -1.0286  1.9482  0.2402
35116SOL    HW2 8847   3.508   0.927   6.087  0.9976 -0.1410  0.7352
35117SOL     OW 8848   4.029  10.357   8.382  0.3721 -0.0065 -0.2718
35117SOL    HW1 8849   4.012  10.432   8.438  0.9121 -0.4920  0.5570
35117SOL    HW2 8850   4.093  10.389   8.318 -0.4144  0.6112 -0.7656
35118SOL     OW 8851   6.505   4.230   7.490  0.3570  0.2075  0.1420
35118SOL    HW1 8852   6.570   4.170   7.453 -0.1513 -0.4269  0.2549
35118SOL    HW2 8853   6.465   4.272   7.414 -0.6508 -1.0559 -0.0587
35119SOL     OW 8854  10.913   3.747   2.710 -0.2202 -0.0076 -0.2733
35119SOL    HW1 8855  10.836   3.763   2.655  0.1006  0.3828 -0.6156
35119SOL    HW2 8856  10.986   3.742   2.648 -0.0305 -0.8764  0.0011
35120SOL     OW 8857   4.442   1.169   7.623  0.4079 -0.4151  0.3888
35120SOL    HW1 8858   4.457   1.076   7.603  0.4602  0.0528 -2.0923
35120SOL    HW2 8859   4.348   1.180   7.611  0.4544 -0.0836  0.3375
35121SOL     OW 8860   1.576   2.250   2.468  0.0381 -0.4095  0.1621
35121SOL    HW1 8861   1.612   2.166   2.494  0.0244 -0.2309  0.7780
35121SOL    HW2 8862   1.536   2.234   2.383 -1.7531 -1.5238  1.1555
35122SOL     OW 8863   6.652   4.834   8.697 -0.4974 -0.1055 -0.1750
35122SOL    HW1 8864   6.561   4.862   8.702 -0.7273 -0.4038 -1.9214
35122SOL    HW2 8865   6.667   4.784   8.777 -1.1180  1.9299  1.3044
35123SOL     OW 8866  10.348  10.819   0.783 -0.2374 -0.1514 -0.3522
35123SOL    HW1 8867  10.259  10.855   0.790 -0.2284  0.2128 -1.8080
35123SOL    HW2 8868  10.366  10.783   0.869 -1.6530  0.1207  0.0816
35124SOL     OW 8869   5.471   5.208   4.759  0.0575  0.4736 -0.3269
35124SOL    HW1 8870   5.438   5.196   4.848  1.0763 -0.0556 -0.0119
35124SOL    HW2 8871   5.410   5.159   4.704  0.7463 -1.1938  0.3364
35125SOL     OW 8872   8.192   9.269  10.532 -0.0310 -0.0057  0.0458
35125SOL    HW1 8873   8.125   9.203  10.549 -0.1643  0.0093 -0.4303
35125SOL    HW2 8874   8.256   9.256  10.603 -0.3629 -0.2382  0.3084
35126SOL     OW 8875   8.775   4.689   5.104 -0.3182  1.0074 -0.5529
35126SOL    HW1 8876   8.830   4.686   5.026 -2.4505  1.2423 -2.1396
35126SOL    HW2 8877   8.832   4.725   5.172  2.5805 -2.0645 -1.0833
35127SOL     OW 8878   4.298   8.952  10.986 -0.3718  0.6201  0.0184
35127SOL    HW1 8879   4.380   8.914  10.954 -0.6113  0.9759 -1.0383
35127SOL    HW2 8880   4.246   8.969  10.908 -1.3928  0.5733  0.6650
35128SOL     OW 8881   1.580   7.969   0.320  0.2295  0.4079  0.0458
35128SOL    HW1 8882   1.608   8.052   0.281 -1.0712  0.6094 -0.5064
35128SOL    HW2 8883   1.629   7.903   0.271 -1.1842  0.6700 -1.8516
35129SOL     OW 8884   8.536  10.296   8.089  0.1263 -0.1103 -0.2326
35129SOL    HW1 8885   8.485  10.376   8.079  0.5022  0.2453  0.6122
35129SOL    HW2 8886   8.518  10.245   8.010 -1.2139  0.1883 -0.1333
35130SOL     OW 8887   5.845  10.722   8.878  0.0044  0.1271 -0.6399
35130SOL    HW1 8888   5.847  10.697   8.970 -0.6720 -1.2471 -0.9740
35130SOL    HW2 8889   5.876  10.645   8.831 -0.1599  0.6257 -1.5940
35131SOL     OW 8890   2.567   4.054   4.094  0.0781  0.4834 -0.7582
35131SOL    HW1 8891   2.604   4.108   4.164 -0.4692  0.0968 -0.1526
35131SOL    HW2 8892   2.637   4.046   4.030  0.8915  0.1580  0.1389
35132SOL     OW 8893   2.720  10.353   1.076  0.9466 -0.1427 -0.0805
35132SOL    HW1 8894   2.737  10.309   1.159 -0.2654 -3.9461 -1.6564
35132SOL    HW2 8895   2.627  10.339   1.060  0.6002  2.5968 -1.0765
35133SOL     OW 8896   7.571   1.713   7.896 -0.4047  0.2325  0.6088
35133SOL    HW1 8897   7.570   1.638   7.956  0.5952 -0.1310  0.2010
35133SOL    HW2 8898   7.544   1.677   7.812  0.9950  0.1007  0.1899
35134SOL     OW 8899   2.399   8.339   7.870  0.4668  0.1949  0.1852
35134SOL    HW1 8900   2.478   8.295   7.838 -0.2732 -0.0539 -1.3547
35134SOL    HW2 8901   2.367   8.390   7.796 -1.1581 -0.1626  0.6042
35135SOL     OW 8902   0.101   4.540   5.539  0.3142  0.3965  0.1739
35135SOL    HW1 8903   0.086   4.630   5.569 -2.1872  0.2006 -0.3251
35135SOL    HW2 8904   0.022   4.493   5.564  1.4953 -1.6712  0.2561
35136SOL     OW 8905   4.508   3.761   9.124  0.4045 -0.1735  0.1265
35136SOL    HW1 8906   4.544   3.705   9.055  1.2389  0.8002 -0.2612
35136SOL    HW2 8907   4.519   3.710   9.205 -0.5131 -1.2908 -0.4301
35137SOL     OW 8908   4.288   3.098   9.113 -0.4365 -0.2084 -0.0619
35137SOL    HW1 8909   4.231   3.155   9.061  1.5626  0.7427 -1.3394
35137SOL    HW2 8910   4.237   3.079   9.192 -1.5640  2.6436  0.0314
35138SOL     OW 8911   9.690  10.836   2.357 -0.2988 -0.0977 -0.3947
35138SOL    HW1 8912   9.719  10.878   2.438  0.1657  1.0965 -1.1604
35138SOL    HW2 8913   9.622  10.774   2.385 -0.7538  0.9027  0.8102
35139SOL     OW 8914   3.525   7.971   4.995 -0.1141 -0.5517 -0.5671
35139SOL    HW1 8915   3.472   7.934   4.925  0.5832  0.7674 -1.8517
35139SOL    HW2 8916   3.560   8.052   4.959 -0.2363  0.5215  1.5425
35140SOL     OW 8917   9.138   6.308  10.866  0.1099  0.0830 -0.1003
35140SOL    HW1 8918   9.194   6.340  10.795  0.1318 -1.3820 -0.7727
35140SOL    HW2 8919   9.091   6.234  10.828  0.6516 -1.1975  1.5979
35141SOL     OW 8920   9.960   0.378   1.227 -0.0485  0.0059  0.2438
35141SOL    HW1 8921   9.970   0.337   1.141 -1.6037 -3.1242  1.3978
35141SOL    HW2 8922   9.931   0.467   1.208  0.4826 -0.3133 -2.4551
35142SOL     OW 8923  10.630   4.517   5.859  0.1803  0.2612 -0.0699
35142SOL    HW1 8924  10.635   4.466   5.940  0.4841 -3.0366 -1.9724
35142SOL    HW2 8925  10.721   4.543   5.841 -0.0303  1.9929  1.1232
35143SOL     OW 8926   8.023   2.238   2.308  0.7667  0.2855 -0.1507
35143SOL    HW1 8927   8.042   2.287   2.388 -0.7691  0.9800 -0.1795
35143SOL    HW2 8928   7.976   2.160   2.339 -1.7666  1.5956 -0.4549
35144SOL     OW 8929   6.590   5.630   2.009 -0.1780  0.2929  0.3690
35144SOL    HW1 8930   6.540   5.679   1.943 -0.9174 -1.3704 -0.3577
35144SOL    HW2 8931   6.528   5.615   2.080  0.2139  0.8592  0.8481
35145SOL     OW 8932   7.140   1.377   7.365  0.4392  0.7191  0.2715
35145SOL    HW1 8933   7.124   1.348   7.276 -0.3996 -0.5768  0.8212
35145SOL    HW2 8934   7.081   1.451   7.377 -1.1986 -0.5668  0.4797
35146SOL     OW 8935   1.517   4.226   0.526 -0.1826 -0.6601 -0.2842
35146SOL    HW1 8936   1.501   4.153   0.467 -0.7004 -1.1413  0.4370
35146SOL    HW2 8937   1.458   4.211   0.600 -2.1792  1.8049 -1.2275
35147SOL     OW 8938   6.039   6.238   3.752 -0.0229  0.5038 -0.7371
35147SOL    HW1 8939   6.012   6.328   3.735  0.1940  0.5685 -0.7478
35147SOL    HW2 8940   6.105   6.245   3.821 -1.2707  0.2008  0.5312
35148SOL     OW 8941   0.442   8.541   3.193 -0.0326 -0.1968  0.0594
35148SOL    HW1 8942   0.407   8.453   3.208 -0.5847 -0.3709 -1.9953
35148SOL    HW2 8943   0.534   8.528   3.171 -0.3006 -0.3546 -1.0121
35149SOL     OW 8944   8.639   2.824   9.721 -0.1177  0.0901 -0.2398
35149SOL    HW1 8945   8.619   2.831   9.814 -0.5599 -0.1694 -0.3145
35149SOL    HW2 8946   8.719   2.875   9.710 -0.9435  1.4693 -0.0125
35150SOL     OW 8947   6.318   3.903   3.631  0.1072  0.1784 -0.0550
35150SOL    HW1 8948   6.240   3.898   3.575 -0.2123 -0.2953  0.4180
35150SOL    HW2 8949   6.315   3.991   3.669  0.1889  0.4131 -0.5817
35151SOL     OW 8950   3.492   7.202   9.741  0.1594 -0.1631 -0.2358
35151SOL    HW1 8951   3.534   7.281   9.706  0.1829  0.1922  0.5676
35151SOL    HW2 8952   3.411   7.233   9.780  0.0666 -0.5684 -0.1016
35152SOL     OW 8953   5.349   3.190   0.794  0.4028  0.2326  0.3333
35152SOL    HW1 8954   5.321   3.113   0.843  0.1346  0.9321  1.3141
35152SOL    HW2 8955   5.267   3.230   0.765  0.4526  1.0668  1.2930
35153SOL     OW 8956   9.014   3.389   1.029 -0.5484  0.1384 -0.4655
35153SOL    HW1 8957   8.953   3.319   1.008 -3.7632  2.0270  1.6470
35153SOL    HW2 8958   9.030   3.379   1.123  2.1974 -0.0482 -0.8881
35154SOL     OW 8959   3.419   5.471   2.263  0.1387 -0.0712 -0.3053
35154SOL    HW1 8960   3.412   5.550   2.210  0.7951  0.1606 -0.0637
35154SOL    HW2 8961   3.514   5.458   2.274  0.0317  0.2823  1.3546
35155SOL     OW 8962   4.091   5.103   9.079 -0.4872 -0.3637  0.4749
35155SOL    HW1 8963   4.003   5.069   9.062 -0.7357  0.3610  0.2787
35155SOL    HW2 8964   4.084   5.144   9.165 -0.5850  0.4689  0.0833
35156SOL     OW 8965   5.481  10.752   5.666 -0.2945 -0.0132 -0.5264
35156SOL    HW1 8966   5.547  10.780   5.730 -2.4185  1.5084  1.1508
35156SOL    HW2 8967   5.525  10.684   5.614  2.3158  0.4069  0.9438
35157SOL     OW 8968   0.888   9.734   5.900  0.1201  0.4833 -0.0674
35157SOL    HW1 8969   0.876   9.653   5.850 -1.6926  0.6511  0.0259
35157SOL    HW2 8970   0.967   9.719   5.952  0.5374 -0.7127 -1.0065
35158SOL     OW 8971   1.169   4.012   7.394  0.2549 -0.6223  0.0061
35158SOL    HW1 8972   1.213   4.040   7.313 -2.0418 -1.2204 -1.5566
35158SOL    HW2 8973   1.161   4.092   7.446  1.4376 -0.1503 -0.5066
35159SOL     OW 8974   5.323   0.083   7.773 -0.0726 -0.2147 -0.1029
35159SOL    HW1 8975   5.232   0.054   7.769  0.0340 -1.2931  2.8201
35159SOL    HW2 8976   5.351   0.061   7.862  3.2670 -0.5757 -1.1113
35160SOL     OW 8977   0.943   7.710   4.981 -0.2668 -0.3194 -0.2219
35160SOL    HW1 8978   1.037   7.707   4.996 -0.0823 -0.5998 -1.3418
35160SOL    HW2 8979   0.922   7.624   4.946 -0.8829 -0.1481 -0.2807
35161SOL     OW 8980   9.525   1.537   7.958  0.5372 -0.6342  0.4332
35161SOL    HW1 8981   9.466   1.466   7.983 -0.1319 -0.1305  0.2974
35161SOL    HW2 8982   9.517   1.601   8.028 -1.1336  0.6512 -0.8668
35162SOL     OW 8983   0.777   1.689   5.629 -0.0380  0.4847  0.0508
35162SOL    HW1 8984   0.825   1.634   5.567 -1.0879 -2.4532  1.6615
35162SOL    HW2 8985   0.688   1.692   5.594  0.3502  2.6647 -0.8888
35163SOL     OW 8986  10.670   0.263   5.922 -0.3300  0.5613  0.2770
35163SOL    HW1 8987  10.660   0.228   6.011  0.0040  0.6812  0.3640
35163SOL    HW2 8988  10.580   0.270   5.889 -0.4388  0.2481  0.5004
35164SOL     OW 8989   9.578   5.307   5.594 -0.4590 -1.0621 -0.0192
35164SOL    HW1 8990   9.550   5.334   5.681 -1.1286  0.0886 -0.5698
35164SOL    HW2 8991   9.666   5.271   5.607 -0.9651 -1.8691  1.2743
35165SOL     OW 8992   1.140   4.603   9.426 -0.7188 -0.1726  0.1746
35165SOL    HW1 8993   1.160   4.695   9.438  0.0650 -0.1246 -1.2800
35165SOL    HW2 8994   1.208   4.557   9.475  1.7211  0.0198 -2.8017
35166SOL     OW 8995   8.013   8.645   9.859  0.2880  0.0109  0.2796
35166SOL    HW1 8996   8.104   8.642   9.886  0.1159  0.2698  0.9085
35166SOL    HW2 8997   7.969   8.580   9.914 -0.4744  2.0961  2.2908
35167SOL     OW 8998   2.346   5.172   4.350 -0.6038 -0.2015  0.5201
35167SOL    HW1 8999   2.340   5.081   4.320 -0.2685 -0.2113  0.4860
35167SOL    HW2 9000   2.369   5.222   4.272  0.5356 -0.2597  0.8098
35168SOL     OW 9001   6.594   0.176   0.317  0.0778 -0.2029 -0.4303
35168SOL    HW1 9002   6.647   0.174   0.237  1.4674 -0.7885  0.4499
35168SOL    HW2 9003   6.564   0.266   0.324 -0.7391 -0.3253 -2.0178
35169SOL     OW 9004   0.690   9.249  10.812 -0.3541  0.1875  0.3804
35169SOL    HW1 9005   0.677   9.330  10.862  0.2271  1.7607 -1.9008
35169SOL    HW2 9006   0.743   9.194  10.870 -1.0018  1.2952  2.0961
35170SOL     OW 9007   1.197  10.113   3.720  0.0360  0.2726 -0.2787
35170SOL    HW1 9008   1.164  10.179   3.781  0.9557 -0.2361  0.8156
35170SOL    HW2 9009   1.291  10.129   3.716  0.4643 -1.5491  0.8149
35171SOL     OW 9010   1.776   5.982   4.690  0.1106  0.4384 -0.0463
35171SOL    HW1 9011   1.750   6.029   4.611 -0.9818 -1.8406 -1.1591
35171SOL    HW2 9012   1.694   5.965   4.736  0.2706 -1.4386 -0.3734
35172SOL     OW 9013   6.236   5.780   3.096 -0.3558 -0.7023 -0.3850
35172SOL    HW1 9014   6.289   5.832   3.156  0.3784  0.4977 -2.0116
35172SOL    HW2 9015   6.250   5.689   3.124  0.3167 -0.2141  0.9414
35173SOL     OW 9016   1.373   9.158   0.802  0.6278  0.3955  0.3376
35173SOL    HW1 9017   1.419   9.078   0.779 -0.3565  0.2323 -1.2240
35173SOL    HW2 9018   1.441   9.219   0.829  1.7094 -0.0354 -1.2907
35174SOL     OW 9019   0.562   6.968   5.861 -0.3764  0.7187 -0.7735
35174SOL    HW1 9020   0.589   6.947   5.950  1.4236 -0.1372 -1.4747
35174SOL    HW2 9021   0.513   7.050   5.869  0.7832  1.2902  0.8386
35175SOL     OW 9022   9.433   3.096  10.251  0.1080 -0.3848 -0.2579
35175SOL    HW1 9023   9.394   3.091  10.164 -1.6680  0.3722  0.4426
35175SOL    HW2 9024   9.361   3.076  10.310  0.5692  1.8163  1.1494
35176SOL     OW 9025   4.609   0.864   9.409  0.0784  0.1877 -0.0307
35176SOL    HW1 9026   4.600   0.875   9.504 -1.9789  0.9985 -0.2588
35176SOL    HW2 9027   4.637   0.950   9.377  1.5246 -0.2877 -0.1211
35177SOL     OW 9028   3.490   4.141   4.590  0.1416  0.4416 -0.2364
35177SOL    HW1 9029   3.568   4.172   4.545  0.9318  1.1134  1.5192
35177SOL    HW2 9030   3.522   4.107   4.674 -1.3163 -0.3149  0.0476
35178SOL     OW 9031   7.227   0.035   2.554  0.6333  0.4163 -0.4600
35178SOL    HW1 9032   7.253  -0.057   2.561  0.0098  0.2430 -0.3758
35178SOL    HW2 9033   7.303   0.084   2.586  1.0942 -0.0557 -0.8150
35179SOL     OW 9034   2.861   6.840  10.184  0.0807  0.3597 -0.1452
35179SOL    HW1 9035   2.927   6.779  10.216  1.0394 -1.4902 -4.7417
35179SOL    HW2 9036   2.784   6.785  10.167 -0.3914  1.1906 -0.7536
35180SOL     OW 9037   3.344   5.595  10.404  0.2290  0.3971  0.0792
35180SOL    HW1 9038   3.344   5.640  10.488  1.2365 -0.2458  0.4314
35180SOL    HW2 9039   3.253   5.601  10.374 -0.0998  0.7997  1.1117
35181SOL     OW 9040   4.460   0.630   4.345 -0.7634  0.6605 -0.1258
35181SOL    HW1 9041   4.555   0.613   4.340 -0.8466  0.4121 -1.0162
35181SOL    HW2 9042   4.441   0.630   4.439 -0.3868 -2.2479  0.0531
35182SOL     OW 9043   3.192   9.380   1.735 -1.2701 -0.4142 -0.8784
35182SOL    HW1 9044   3.238   9.414   1.811 -2.8157  1.6510 -0.7760
35182SOL    HW2 9045   3.161   9.293   1.761 -0.2871 -0.4568  0.1840
35183SOL     OW 9046   3.892   9.763   4.703  0.1737 -0.0044 -0.0216
35183SOL    HW1 9047   3.913   9.670   4.696 -2.6950 -0.7195 -0.6323
35183SOL    HW2 9048   3.813   9.773   4.649 -0.4941  2.4692  1.2812
35184SOL     OW 9049   5.007   1.856   1.947  0.2303 -0.0157 -0.1532
35184SOL    HW1 9050   5.099   1.834   1.929  0.5687  0.1694  1.2678
35184SOL    HW2 9051   4.989   1.931   1.890  0.7171 -0.5227 -1.0009
35185SOL     OW 9052   6.418   5.047   9.832  0.3464 -0.0667 -0.8015
35185SOL    HW1 9053   6.404   4.969   9.885  0.7034 -0.5184 -1.3621
35185SOL    HW2 9054   6.403   5.120   9.893  0.5143 -0.5695 -0.1405
35186SOL     OW 9055  10.564   6.541   0.005 -0.8302  0.0859 -0.3636
35186SOL    HW1 9056  10.623   6.518   0.077  0.8490  0.3979 -1.5673
35186SOL    HW2 9057  10.507   6.608   0.042  1.1398  1.5345  0.2342
35187SOL     OW 9058   4.064   4.247  10.219 -0.0986 -0.1012 -0.2955
35187SOL    HW1 9059   4.119   4.325  10.213  0.1574 -0.2840 -0.3123
35187SOL    HW2 9060   3.985   4.270  10.170 -0.5696  0.6130  0.7669
35188SOL     OW 9061   3.456  10.018   7.676 -0.2866 -0.0655 -0.1021
35188SOL    HW1 9062   3.542  10.047   7.644 -0.9772  1.6330 -0.5720
35188SOL    HW2 9063   3.458   9.923   7.669  1.7154 -0.0972  0.3449
35189SOL     OW 9064   1.451   5.644   1.555 -0.0388  0.0863  0.5732
35189SOL    HW1 9065   1.536   5.608   1.579  0.4496  0.6432 -0.2582
35189SOL    HW2 9066   1.470   5.735   1.531 -1.0461  0.5356  1.4149
35190SOL     OW 9067   4.073   3.247   1.265 -0.0893 -0.2017 -0.1826
35190SOL    HW1 9068   3.992   3.218   1.223 -0.3111 -0.6411  0.5379
35190SOL    HW2 9069   4.143   3.205   1.214 -0.3843 -1.3783  0.3480
35191SOL     OW 9070   4.700   2.846   3.050 -0.0116 -0.4607 -0.2930
35191SOL    HW1 9071   4.750   2.905   2.994 -1.0847  0.8275  0.0622
35191SOL    HW2 9072   4.614   2.888   3.060 -0.2098 -1.1777  1.4422
35192SOL     OW 9073   8.981   7.011   0.377  0.3825 -0.6736  0.1692
35192SOL    HW1 9074   8.989   7.007   0.282 -1.1412 -0.2305  0.0007
35192SOL    HW2 9075   8.959   6.921   0.403  0.4939 -0.7294  0.0715
35193SOL     OW 9076   8.558  10.101   9.727 -0.3743 -0.2898 -0.0096
35193SOL    HW1 9077   8.602  10.110   9.643 -0.8231 -1.5218 -0.3936
35193SOL    HW2 9078   8.619  10.051   9.781 -1.1299 -1.7722 -0.4596
35194SOL     OW 9079   5.542   7.461  10.712 -0.4248  0.6932 -0.0082
35194SOL    HW1 9080   5.516   7.497  10.797 -1.9731  1.4656 -0.7799
35194SOL    HW2 9081   5.519   7.368  10.717  0.2367  0.5593  0.6909
35195SOL     OW 9082   4.475   4.312   5.778 -0.2038  0.4157  0.0205
35195SOL    HW1 9083   4.501   4.221   5.763 -1.2057  0.2386 -0.6929
35195SOL    HW2 9084   4.538   4.344   5.843 -1.1606 -1.4452  1.9756
35196SOL     OW 9085   0.711   6.547   1.693  0.9690 -0.4358 -0.4531
35196SOL    HW1 9086   0.764   6.602   1.635  1.0580  0.0221  0.0558
35196SOL    HW2 9087   0.720   6.587   1.779 -0.7783  0.0591 -0.4711
35197SOL     OW 9088   8.775   6.497   1.688 -0.0802 -0.1614 -0.1508
35197SOL    HW1 9089   8.681   6.499   1.707  0.0488 -0.5832  0.5705
35197SOL    HW2 9090   8.786   6.558   1.615 -0.7221  0.8932  0.6181
35198SOL     OW 9091   6.153   1.116  10.658 -0.4325 -0.5261  0.0453
35198SOL    HW1 9092   6.103   1.074  10.587 -0.4631 -0.2097 -0.1234
35198SOL    HW2 9093   6.090   1.124  10.730 -0.2675 -1.2961  0.2848
35199SOL     OW 9094   5.833   2.027   5.940 -0.3128  0.4416  0.2912
35199SOL    HW1 9095   5.914   2.036   5.890  0.1228 -1.4933  0.5414
35199SOL    HW2 9096   5.767   2.072   5.887 -0.0396 -2.1234 -2.5502
35200SOL     OW 9097   2.350   9.654   0.878  0.3565  0.5620 -0.2713
35200SOL    HW1 9098   2.319   9.564   0.867 -0.4227  1.0704 -2.8981
35200SOL    HW2 9099   2.335   9.674   0.970 -0.5399 -1.6019  0.0942
35201SOL     OW 9100  10.869   2.799   9.474 -0.0702  0.4785  0.2378
35201SOL    HW1 9101  10.790   2.778   9.524 -1.1829  0.3888 -1.4481
35201SOL    HW2 9102  10.854   2.887   9.441 -0.0297  0.0197 -1.0674
35202SOL     OW 9103   9.706   1.121   4.730  0.4133  0.6935  0.3443
35202SOL    HW1 9104   9.685   1.214   4.739  1.1092  0.9335 -0.4811
35202SOL    HW2 9105   9.624   1.081   4.700 -0.1136  0.9005  1.4527
35203SOL     OW 9106   6.950   9.844   2.241 -0.3909 -0.3684  0.3813
35203SOL    HW1 9107   7.010   9.817   2.310 -0.7101  0.4593  1.0049
35203SOL    HW2 9108   6.973   9.935   2.224 -0.3008 -0.5689 -0.6386
35204SOL     OW 9109   5.269   4.308   1.168  0.3663  0.1136 -0.2582
35204SOL    HW1 9110   5.199   4.352   1.119  0.4654  0.6408  0.0671
35204SOL    HW2 9111   5.224   4.264   1.240  0.1571 -1.1003 -1.1021
35205SOL     OW 9112   6.322   5.041   3.950  0.0661 -0.8270 -0.4351
35205SOL    HW1 9113   6.259   5.029   4.022 -0.4835 -1.0112 -0.9385
35205SOL    HW2 9114   6.309   5.131   3.922 -0.8879 -1.2434 -1.3797
35206SOL     OW 9115   0.218   6.582   4.427 -0.3824  0.3823 -0.8663
35206SOL    HW1 9116   0.247   6.521   4.360 -1.3158 -1.3818  0.2440
35206SOL    HW2 9117   0.282   6.653   4.425  0.0051  0.0249 -3.0908
35207SOL     OW 9118   4.834   6.822   8.663  0.2151  0.2580 -0.4110
35207SOL    HW1 9119   4.798   6.801   8.750  1.6039 -2.3006 -0.3610
35207SOL    HW2 9120   4.920   6.861   8.682  0.1553  0.5036 -0.6409
35208SOL     OW 9121   8.224  10.322   7.864  0.3853  0.3100 -0.5610
35208SOL    HW1 9122   8.279  10.400   7.867  0.5412  0.1993 -0.5733
35208SOL    HW2 9123   8.280  10.254   7.828  0.4217  0.0490 -0.0253
35209SOL     OW 9124   6.008  10.681  10.066 -0.1961  0.4920  0.9814
35209SOL    HW1 9125   6.090  10.640  10.094 -0.2376 -1.2966 -1.1954
35209SOL    HW2 9126   5.941  10.646  10.125  0.2289 -0.1860  1.0736
35210SOL     OW 9127   1.217   4.492   3.504 -0.6218  0.1743 -0.2091
35210SOL    HW1 9128   1.153   4.545   3.551 -1.1042  1.5488 -2.3016
35210SOL    HW2 9129   1.205   4.403   3.538 -0.4169  1.1782  2.7392
35211SOL     OW 9130   2.256   0.086   4.246  0.1122 -0.0486 -0.0772
35211SOL    HW1 9131   2.255  -0.008   4.226 -1.5378 -1.1201  3.9834
35211SOL    HW2 9132   2.338   0.100   4.292 -0.4651  0.0299  0.9514
35212SOL     OW 9133   4.695   2.419   0.429 -0.3885  0.0300  0.6267
35212SOL    HW1 9134   4.742   2.501   0.412  0.0869 -0.1729  0.9514
35212SOL    HW2 9135   4.633   2.412   0.356  0.0974  0.2920  0.1768
35213SOL     OW 9136   4.118   3.619   9.126 -0.1615  0.2793 -0.5156
35213SOL    HW1 9137   4.029   3.655   9.122 -0.2397  0.0227 -1.2717
35213SOL    HW2 9138   4.170   3.677   9.070 -0.1463 -0.3706 -1.1882
35214SOL     OW 9139   5.292   1.055   7.311 -0.2480 -0.3008 -0.1765
35214SOL    HW1 9140   5.341   0.990   7.360 -1.1742  0.3735  1.7421
35214SOL    HW2 9141   5.252   1.005   7.239  0.7214 -1.4220  0.0307
35215SOL     OW 9142   7.121   4.097   4.333  0.6205  0.8801  0.1761
35215SOL    HW1 9143   7.135   4.075   4.240  0.0450  0.1911  0.2464
35215SOL    HW2 9144   7.175   4.034   4.381 -0.1462  0.3345  0.3434
35216SOL     OW 9145   9.250  10.972   9.781  0.2448  0.3524  0.0813
35216SOL    HW1 9146   9.288  11.039   9.838 -2.0674  0.7822  1.1988
35216SOL    HW2 9147   9.184  11.019   9.730 -1.3633 -1.0268  0.8259
35217SOL     OW 9148  10.689   3.348  10.071  0.1676  0.0765 -0.0388
35217SOL    HW1 9149  10.742   3.284  10.023  1.2733 -0.3959  1.6823
35217SOL    HW2 9150  10.625   3.380  10.008  0.6614 -1.5123 -1.4062
35218SOL     OW 9151  10.486   2.610   2.371 -0.2706 -0.3710 -0.3312
35218SOL    HW1 9152  10.565   2.579   2.414  0.4782 -0.6231 -1.8379
35218SOL    HW2 9153  10.517   2.663   2.298 -1.5048  1.9811  0.7344
35219SOL     OW 9154   9.301   6.310   0.091  0.2538 -0.1022  0.1418
35219SOL    HW1 9155   9.297   6.232   0.036  0.5733 -0.7053  0.9561
35219SOL    HW2 9156   9.239   6.371   0.051  1.4327 -0.0072 -1.6534
35220SOL     OW 9157  10.804   3.925  10.843  0.4756  0.3966 -0.1595
35220SOL    HW1 9158  10.823   3.956  10.932 -1.8353  0.6613  0.2888
35220SOL    HW2 9159  10.766   3.838  10.856  2.2192 -0.5726 -1.0970
35221SOL     OW 9160   3.764   7.733   9.116  0.2704  0.4206  0.1612
35221SOL    HW1 9161   3.788   7.670   9.049  0.5435  1.3062 -0.5976
35221SOL    HW2 9162   3.836   7.797   9.116  0.4241  0.2862  1.5016
35222SOL     OW 9163   1.299   1.954   0.275  0.0338 -0.2903 -0.5961
35222SOL    HW1 9164   1.387   1.969   0.309 -0.7670  1.3005  0.9343
35222SOL    HW2 9165   1.242   1.959   0.351 -1.6038  0.8797 -1.8088
35223SOL     OW 9166  10.191   7.793   1.113 -0.5133 -0.2290  0.1025
35223SOL    HW1 9167  10.245   7.755   1.044  0.6732  0.5539  0.5646
35223SOL    HW2 9168  10.183   7.885   1.090 -1.0956 -0.1975  0.3997
35224SOL     OW 9169   2.864   0.012   1.641  0.6387 -0.2019 -0.2520
35224SOL    HW1 9170   2.797  -0.035   1.691  0.2719  0.7988  0.2353
35224SOL    HW2 9171   2.884   0.089   1.695  2.0816 -0.4049 -0.4650
35225SOL     OW 9172   6.153   2.781   1.368 -0.1028  0.5005  0.0515
35225SOL    HW1 9173   6.246   2.773   1.346 -0.1790  0.2922 -0.2006
35225SOL    HW2 9174   6.130   2.870   1.342 -0.3242  0.0952 -1.2504
35226SOL     OW 9175   6.488   1.498   1.983  0.4021 -0.0666 -0.7881
35226SOL    HW1 9176   6.410   1.443   1.982 -0.2485  0.7901 -2.9949
35226SOL    HW2 9177   6.529   1.482   1.897  1.3863  1.2321 -0.5871
35227SOL     OW 9178   5.665   8.047  10.147 -0.0050  0.0157  0.0721
35227SOL    HW1 9179   5.738   8.060  10.086  0.0441  0.3368  0.1989
35227SOL    HW2 9180   5.693   7.974  10.202 -0.1083 -0.3693 -0.3791
35228SOL     OW 9181   9.375   1.909   8.525  0.1423  0.2413 -0.1282
35228SOL    HW1 9182   9.416   1.877   8.606  1.5768 -0.0945 -0.9374
35228SOL    HW2 9183   9.285   1.930   8.550 -1.2091 -4.8623  0.4733
35229SOL     OW 9184  10.613   4.311   5.173  0.2280 -0.2857  0.2482
35229SOL    HW1 9185  10.605   4.406   5.160 -2.9188 -0.6133 -1.0801
35229SOL    HW2 9186  10.675   4.282   5.107 -0.2280  0.6353 -0.6040
35230SOL     OW 9187   2.642   3.241   9.699 -0.3712 -0.2177  0.0061
35230SOL    HW1 9188   2.624   3.291   9.619 -1.3855 -0.5461  0.0158
35230SOL    HW2 9189   2.592   3.286   9.767  0.4469  0.0304  0.4619
35231SOL     OW 9190   0.159   3.728   3.757 -0.0122  0.1584 -0.1887
35231SOL    HW1 9191   0.128   3.766   3.839 -0.3688  1.2212 -0.7941
35231SOL    HW2 9192   0.100   3.764   3.691  0.6227 -0.2320 -0.9773
35232SOL     OW 9193   3.107   4.824   4.907 -0.0658  0.3172 -0.0898
35232SOL    HW1 9194   3.143   4.909   4.882  1.1482  0.2038  1.1323
35232SOL    HW2 9195   3.071   4.838   4.995  0.3331 -0.4482  0.2156
35233SOL     OW 9196   9.311   3.118   2.375 -0.2071  0.0440 -0.4120
35233SOL    HW1 9197   9.337   3.027   2.359 -2.6537 -1.0363  1.1364
35233SOL    HW2 9198   9.348   3.166   2.301  2.4027 -1.9202 -0.5306
35234SOL     OW 9199   9.529   6.301   5.637 -0.4873 -0.2868 -0.2522
35234SOL    HW1 9200   9.578   6.219   5.627  2.7081  1.3507  0.4982
35234SOL    HW2 9201   9.538   6.323   5.730 -0.9523  1.0709 -0.5101
35235SOL     OW 9202   7.357  10.165   9.306 -0.1629 -0.4656  0.2518
35235SOL    HW1 9203   7.288  10.231   9.297 -0.1225 -0.2495  1.4754
35235SOL    HW2 9204   7.377  10.162   9.399 -0.2763 -2.3234  0.2561
35236SOL     OW 9205   0.968   4.478   7.033 -0.0875 -0.1446  0.6516
35236SOL    HW1 9206   0.906   4.521   6.975  0.4785  0.9664  0.8343
35236SOL    HW2 9207   1.038   4.543   7.045 -0.0630 -0.4394  2.3557
35237SOL     OW 9208   0.635   5.697   5.045 -0.4570  0.3742  0.3060
35237SOL    HW1 9209   0.707   5.740   5.091 -1.0436  1.3893  0.3036
35237SOL    HW2 9210   0.584   5.655   5.114 -0.1767  0.1136  0.3593
35238SOL     OW 9211   9.421   9.830   0.525 -0.6236  0.5310  0.2401
35238SOL    HW1 9212   9.361   9.756   0.521 -1.9537  1.6285 -0.8639
35238SOL    HW2 9213   9.417   9.870   0.438 -0.9998  2.7042  1.1895
35239SOL     OW 9214   6.975   2.490   9.615  0.2716 -0.0493 -0.4843
35239SOL    HW1 9215   6.991   2.467   9.707  0.1036 -0.8357 -0.6417
35239SOL    HW2 9216   6.882   2.473   9.602  0.2364  0.3218 -0.7308
35240SOL     OW 9217  10.994   7.026   7.845 -0.1544 -0.3031  0.5042
35240SOL    HW1 9218  11.009   6.938   7.811 -1.2008 -0.0882 -0.5493
35240SOL    HW2 9219  11.082   7.059   7.865  0.3470 -1.0933 -0.3282
35241SOL     OW 9220   8.485   9.426   1.412  0.2293 -0.3610  0.1269
35241SOL    HW1 9221   8.514   9.339   1.440 -1.5178 -0.6484  1.1807
35241SOL    HW2 9222   8.461   9.471   1.493 -0.8191  0.3528 -0.5483
35242SOL     OW 9223   9.958   2.164   9.150  0.0862 -0.0632 -0.1208
35242SOL    HW1 9224   9.976   2.140   9.241 -0.3258  1.2633  0.3399
35242SOL    HW2 9225  10.010   2.243   9.135 -3.1004  2.3607  0.4381
35243SOL     OW 9226   5.104   3.886  10.116  0.3836 -0.1584 -0.8988
35243SOL    HW1 9227   5.057   3.820  10.167  1.6537 -0.4684 -0.0756
35243SOL    HW2 9228   5.148   3.837  10.047  1.3721 -0.1992 -0.2554
35244SOL     OW 9229   9.657   9.369   1.944 -0.4039 -0.7922 -0.5640
35244SOL    HW1 9230   9.720   9.327   1.886 -0.3800  0.1730 -1.2605
35244SOL    HW2 9231   9.670   9.462   1.930 -0.0514 -0.5141  1.4005
35245SOL     OW 9232   7.459   1.798   0.393 -0.6338  0.0124 -0.2891
35245SOL    HW1 9233   7.527   1.785   0.459  0.4560  0.0472 -1.3697
35245SOL    HW2 9234   7.390   1.847   0.438 -0.7941 -1.6123  1.3524
35246SOL     OW 9235   0.464  10.409   6.637  0.0551  0.2400  0.0326
35246SOL    HW1 9236   0.542  10.415   6.581  2.0762  0.9588  2.6999
35246SOL    HW2 9237   0.472  10.483   6.697 -3.8199  1.5071 -0.7736
35247SOL     OW 9238   2.630   5.781   5.057  0.0545 -0.1545  0.4134
35247SOL    HW1 9239   2.643   5.799   4.964  2.4959 -2.9356  0.0646
35247SOL    HW2 9240   2.632   5.867   5.099 -0.3837  1.1041 -2.0081
35248SOL     OW 9241   9.382   8.248   9.275 -0.1768 -0.7309  0.4378
35248SOL    HW1 9242   9.294   8.283   9.261  0.5089  1.6866  1.7754
35248SOL    HW2 9243   9.434   8.283   9.203  0.0825 -0.6686  0.6546
35249SOL     OW 9244   8.293   2.731   1.840 -0.1087 -0.3276  0.5146
35249SOL    HW1 9245   8.377   2.759   1.804  0.1912  1.3845  2.3389
35249SOL    HW2 9246   8.228   2.773   1.784  0.2909 -0.0361  0.2618
35250SOL     OW 9247   0.574   7.718  10.894  0.2752 -0.0182  0.1858
35250SOL    HW1 9248   0.542   7.742  10.981 -0.5850  2.0229 -0.6172
35250SOL    HW2 9249   0.668   7.732  10.898  0.0787  1.4284  0.4356
35251SOL     OW 9250   3.208   6.919   3.800 -0.2434  0.2048 -0.5035
35251SOL    HW1 9251   3.139   6.975   3.836  0.6367 -0.0220  1.6662
35251SOL    HW2 9252   3.189   6.832   3.835  1.6786  0.3336  1.0058
35252SOL     OW 9253   4.708   1.416   4.471  0.0317  0.4801 -0.2300
35252SOL    HW1 9254   4.615   1.399   4.482  0.4342 -1.3229  0.9003
35252SOL    HW2 9255   4.715   1.510   4.461 -1.8598  0.7170  0.3763
35253SOL     OW 9256   0.185   5.611  10.286 -0.0982  0.1623  0.2687
35253SOL    HW1 9257   0.236   5.592  10.207  0.5800 -0.7015  0.8902
35253SOL    HW2 9258   0.105   5.559  10.276 -0.5320  0.9149 -0.3450
35254SOL     OW 9259   9.360   8.173   0.414 -0.1061 -0.2908 -0.2167
35254SOL    HW1 9260   9.451   8.200   0.426 -0.0205 -0.7002  0.0905
35254SOL    HW2 9261   9.311   8.254   0.403  0.1876 -0.0356  0.3674
35255SOL     OW 9262   3.309   9.082   7.018  0.6757 -0.1819 -0.2965
35255SOL    HW1 9263   3.291   9.104   6.927 -0.5892 -2.1624 -0.5711
35255SOL    HW2 9264   3.247   9.134   7.069 -1.6676 -2.2128 -0.8862
35256SOL     OW 9265   6.861   5.093   0.736 -0.4904  0.0665 -0.5723
35256SOL    HW1 9266   6.881   5.105   0.829 -0.3725  1.6468 -0.7834
35256SOL    HW2 9267   6.943   5.115   0.691 -0.9376  0.6338 -1.1191
35257SOL     OW 9268   9.747   1.137   4.345  0.2492 -0.1218  0.1070
35257SOL    HW1 9269   9.703   1.097   4.419 -0.8607  1.6321  0.4652
35257SOL    HW2 9270   9.677   1.155   4.282  1.3641 -3.0989 -2.2002
35258SOL     OW 9271   5.775   2.647   3.420 -0.1561  0.2656  0.0027
35258SOL    HW1 9272   5.851   2.678   3.372 -1.4385  1.4368 -1.3539
35258SOL    HW2 9273   5.742   2.724   3.466 -1.1596  0.0397 -0.3180
35259SOL     OW 9274   4.332   7.293   2.183 -0.0581 -0.0921 -0.2314
35259SOL    HW1 9275   4.332   7.213   2.131  2.8650 -0.3757  0.0209
35259SOL    HW2 9276   4.399   7.348   2.142  0.6579  0.6420  1.7672
35260SOL     OW 9277   0.209  10.420   2.166  0.8700  0.0267 -0.2168
35260SOL    HW1 9278   0.129  10.468   2.188  0.2589 -1.1184  0.1916
35260SOL    HW2 9279   0.276  10.487   2.153  0.1380  0.9506  0.6773
35261SOL     OW 9280  10.057   8.410   9.024 -0.2235 -0.4871 -0.3056
35261SOL    HW1 9281  10.140   8.374   9.053  0.0693  0.4720  0.0993
35261SOL    HW2 9282  10.037   8.479   9.088  1.1177  2.6614 -2.9568
35262SOL     OW 9283   2.618   2.089   0.010  0.0827  0.0283  0.0307
35262SOL    HW1 9284   2.578   2.017   0.059  1.0332 -0.5491 -0.0113
35262SOL    HW2 9285   2.544   2.137  -0.026 -0.5810 -0.8585  0.1607
35263SOL     OW 9286   0.522   3.571   0.074 -0.0424 -0.2198  0.1093
35263SOL    HW1 9287   0.566   3.508   0.017  0.0652  0.8354 -0.9969
35263SOL    HW2 9288   0.461   3.618   0.017 -0.2265  0.5972  0.9449
35264SOL     OW 9289   7.524  10.439   6.505 -0.0264  0.1538  0.1265
35264SOL    HW1 9290   7.592  10.504   6.486  0.3758 -0.5473 -0.9370
35264SOL    HW2 9291   7.481  10.424   6.420  0.0231 -1.0947  0.3020
35265SOL     OW 9292   8.630   1.387   9.982 -0.5752 -0.2748  0.0970
35265SOL    HW1 9293   8.593   1.299   9.983  3.6230 -2.2793 -0.4170
35265SOL    HW2 9294   8.671   1.395   9.896  2.0795  0.7247  1.3422
35266SOL     OW 9295   5.073   0.547  10.963 -0.1886  1.1664 -0.2635
35266SOL    HW1 9296   5.083   0.452  10.970 -2.8855  0.7638 -0.5071
35266SOL    HW2 9297   5.084   0.580  11.052  1.8029  0.7995 -0.3382
35267SOL     OW 9298   0.636   7.781  10.447  0.3794 -0.0402 -0.2096
35267SOL    HW1 9299   0.697   7.710  10.469 -0.2083 -0.0958  1.2875
35267SOL    HW2 9300   0.561   7.768  10.505 -0.1309  1.2878 -0.5376
35268SOL     OW 9301   1.398   6.036   0.701  0.6925  0.6237  0.3162
35268SOL    HW1 9302   1.489   6.056   0.723  0.5378  0.7833  0.8128
35268SOL    HW2 9303   1.348   6.062   0.778  0.2292  0.4903  0.0644
35269SOL     OW 9304   4.696   6.205   8.506  0.1916 -0.4220 -0.0680
35269SOL    HW1 9305   4.713   6.204   8.411 -1.8733 -0.4788 -0.4693
35269SOL    HW2 9306   4.649   6.124   8.522 -0.0512 -0.0954  0.8957
35270SOL     OW 9307   3.701   6.314   7.393 -0.1604 -0.1716 -0.1578
35270SOL    HW1 9308   3.785   6.273   7.376  0.7653  0.6591  2.0578
35270SOL    HW2 9309   3.646   6.242   7.425  0.5395 -0.2716  0.8747
35271SOL     OW 9310   9.695   3.308   1.937  0.3845  0.8220  0.0309
35271SOL    HW1 9311   9.735   3.386   1.897  0.7623  0.7562  0.2742
35271SOL    HW2 9312   9.602   3.330   1.944  0.5220  1.3439  0.3044
35272SOL     OW 9313   5.146   9.225   1.271 -0.0833 -0.1233 -0.1374
35272SOL    HW1 9314   5.207   9.159   1.304  1.0201  0.9345  0.0300
35272SOL    HW2 9315   5.152   9.218   1.176  0.5767  0.1997 -0.1266
35273SOL     OW 9316   5.750   4.278   5.957 -0.7758  0.5433 -0.0550
35273SOL    HW1 9317   5.657   4.253   5.955 -0.7132  0.3337 -0.6786
35273SOL    HW2 9318   5.779   4.257   6.046 -0.3027 -3.1865 -0.9003
35274SOL     OW 9319   5.287   9.185   6.758  0.3497  0.7893 -0.1527
35274SOL    HW1 9320   5.358   9.138   6.715  0.5656 -1.8530  2.7505
35274SOL    HW2 9321   5.331   9.242   6.821 -0.0750  0.8896  0.0559
35275SOL     OW 9322   4.704   2.827   1.721  0.3836 -0.3786 -0.1253
35275SOL    HW1 9323   4.747   2.908   1.691 -2.2039  0.3921 -2.0777
35275SOL    HW2 9324   4.719   2.765   1.649 -1.3122 -0.2209 -0.6464
35276SOL     OW 9325   7.403   0.987   7.892  0.0356 -0.1064 -0.3910
35276SOL    HW1 9326   7.480   0.930   7.894  0.4277  0.4282  0.9513
35276SOL    HW2 9327   7.437   1.071   7.861 -0.1255 -0.0352 -0.3757
35277SOL     OW 9328  10.782   2.870   4.329 -0.5529  0.3615 -0.4694
35277SOL    HW1 9329  10.764   2.944   4.387 -0.1844  0.7589 -0.8598
35277SOL    HW2 9330  10.697   2.850   4.289 -0.3600  1.6643 -1.6343
35278SOL     OW 9331   9.626   6.103   0.559 -0.4687  0.3901  1.3263
35278SOL    HW1 9332   9.717   6.081   0.580 -0.5037 -1.0675  0.1565
35278SOL    HW2 9333   9.574   6.057   0.624 -0.3916  0.6685  1.5849
35279SOL     OW 9334   5.931   2.220   6.205  0.1762  0.3768  0.2844
35279SOL    HW1 9335   5.934   2.152   6.137  0.2388  0.1085  0.5507
35279SOL    HW2 9336   6.012   2.208   6.254  0.6972  1.3377 -0.3169
35280SOL     OW 9337   6.713   2.552   3.150  0.0654  0.0801  0.2624
35280SOL    HW1 9338   6.665   2.585   3.226  0.4421  1.1915  0.0320
35280SOL    HW2 9339   6.646   2.535   3.085 -0.1315  0.4505  0.3655
35281SOL     OW 9340   0.570   0.142   1.027  0.4744 -0.4492  0.2420
35281SOL    HW1 9341   0.514   0.065   1.026 -1.0469  0.5999  1.0574
35281SOL    HW2 9342   0.518   0.210   0.984  1.8180  0.1353 -0.5407
35282SOL     OW 9343   7.140  10.312   5.838 -0.3731  0.1023  0.6530
35282SOL    HW1 9344   7.080  10.357   5.897  0.0154  0.3710  0.8431
35282SOL    HW2 9345   7.208  10.376   5.818  0.6436 -0.6356  1.5943
35283SOL     OW 9346   4.525   8.836   1.066 -0.2063 -0.1304 -0.4326
35283SOL    HW1 9347   4.522   8.927   1.097 -1.1862  0.0642 -1.0735
35283SOL    HW2 9348   4.542   8.843   0.972  1.4388 -0.6811 -0.2038
35284SOL     OW 9349   3.558   8.398   4.498 -0.2642  0.2323 -0.0101
35284SOL    HW1 9350   3.465   8.415   4.483  0.2640  1.6223 -2.2114
35284SOL    HW2 9351   3.584   8.460   4.566 -0.4179  1.7312 -1.2664
35285SOL     OW 9352   6.201   9.609   4.159  0.0696 -0.0807  0.2475
35285SOL    HW1 9353   6.180   9.662   4.236  0.2233  0.4926 -0.0959
35285SOL    HW2 9354   6.217   9.521   4.194 -0.1476  0.1065  0.8339
35286SOL     OW 9355   9.980   5.522   6.754  0.1456  0.2088  0.5299
35286SOL    HW1 9356  10.068   5.499   6.725  0.8773  0.2032  2.5337
35286SOL    HW2 9357   9.925   5.451   6.722  0.6749  0.6519 -1.5106
35287SOL     OW 9358  10.502   3.646   5.303  0.3142  0.1036 -0.6279
35287SOL    HW1 9359  10.432   3.649   5.238 -0.2173 -1.1044 -0.1481
35287SOL    HW2 9360  10.546   3.730   5.296 -1.4189  1.0355 -0.6953
35288SOL     OW 9361   0.770   1.311   4.197 -0.2696 -0.3752  0.1908
35288SOL    HW1 9362   0.743   1.387   4.248 -1.9912 -0.9121  0.1580
35288SOL    HW2 9363   0.835   1.267   4.251 -0.4926  0.2207  0.9679
35289SOL     OW 9364   5.774   8.759   0.066  0.2551 -0.6781 -0.4039
35289SOL    HW1 9365   5.776   8.727   0.156 -0.8042  0.2948 -0.0093
35289SOL    HW2 9366   5.681   8.760   0.043  0.4644 -0.3245 -1.2870
35290SOL     OW 9367   0.931   4.444   3.345 -0.5859 -0.4247  0.0241
35290SOL    HW1 9368   1.016   4.399   3.351  0.0340  0.7466  0.4509
35290SOL    HW2 9369   0.952   4.529   3.307 -1.5933 -0.1348  0.0910
35291SOL     OW 9370   2.591   4.697   7.035 -0.4523 -0.5142  0.2338
35291SOL    HW1 9371   2.531   4.766   7.061  0.0369  0.0343 -0.0793
35291SOL    HW2 9372   2.671   4.742   7.011 -0.8525 -0.9786 -2.2247
35292SOL     OW 9373   0.982   7.431   3.437 -0.3105  0.1337 -0.0634
35292SOL    HW1 9374   1.030   7.435   3.520 -0.0632 -0.0336 -0.1993
35292SOL    HW2 9375   0.935   7.347   3.441  0.5972 -0.4117 -0.5851
35293SOL     OW 9376   8.851   3.393   1.742  0.3380  0.1893  0.1602
35293SOL    HW1 9377   8.823   3.442   1.820  0.1783  0.3663 -0.0074
35293SOL    HW2 9378   8.866   3.460   1.676  0.7252  0.0567  0.1149
35294SOL     OW 9379   4.002   7.647   3.309 -0.1869  0.0909  0.6459
35294SOL    HW1 9380   4.096   7.655   3.297  0.2258 -1.6075  2.3181
35294SOL    HW2 9381   3.978   7.724   3.361 -0.0025  1.2541 -0.9313
35295SOL     OW 9382   6.510   4.830  10.017 -0.0964  0.4733 -0.0973
35295SOL    HW1 9383   6.601   4.854  10.036 -0.2196  0.1286  0.9695
35295SOL    HW2 9384   6.515   4.739   9.987 -0.1270  0.3412  0.2982
35296SOL     OW 9385  10.087   4.405   2.925  0.1877 -0.6844 -0.3125
35296SOL    HW1 9386  10.174   4.430   2.958  2.5056 -2.5900 -4.2318
35296SOL    HW2 9387  10.086   4.310   2.931 -1.1962 -0.7553 -1.3514
35297SOL     OW 9388   3.778  10.919   2.944 -0.4021 -0.0807 -0.0974
35297SOL    HW1 9389   3.824  10.955   3.020 -0.7093  1.5255 -0.6302
35297SOL    HW2 9390   3.689  10.903   2.976  0.3730 -3.0803  0.9003
35298SOL     OW 9391   9.947  10.310   2.660  0.3301 -0.4648  0.5138
35298SOL    HW1 9392  10.038  10.287   2.679 -0.1191 -2.8706  0.0435
35298SOL    HW2 9393   9.907  10.319   2.747  0.6351 -1.1540  0.7375
35299SOL     OW 9394   6.108   5.551   3.724  0.0538 -0.3900 -0.1048
35299SOL    HW1 9395   6.062   5.604   3.659 -0.0263 -0.4697 -0.1121
35299SOL    HW2 9396   6.168   5.613   3.766 -0.2323 -0.2296  0.0720
35300SOL     OW 9397   1.969   4.310   4.745 -0.5177  0.4919  0.1008
35300SOL    HW1 9398   2.007   4.397   4.733  2.0907 -0.6298 -0.4800
35300SOL    HW2 9399   1.947   4.282   4.656 -0.1938  0.0837  0.1496
35301SOL     OW 9400   9.009   8.561   0.023 -0.0824  0.2771  0.6509
35301SOL    HW1 9401   9.002   8.544  -0.071 -0.4250  0.3846  0.6547
35301SOL    HW2 9402   9.103   8.563   0.040  0.0622  2.4502 -0.0977
35302SOL     OW 9403   2.069   2.318   1.229  0.0064 -0.3258  0.4565
35302SOL    HW1 9404   2.073   2.227   1.198  2.8330 -0.1260 -0.0524
35302SOL    HW2 9405   2.079   2.371   1.150 -3.3934  0.5915  0.4996
35303SOL     OW 9406   5.912   4.218  10.878  0.3172 -0.0012 -0.3698
35303SOL    HW1 9407   5.973   4.263  10.819  1.2752  2.3563  2.2156
35303SOL    HW2 9408   5.966   4.151  10.921 -0.0098 -0.6915 -0.9988
35304SOL     OW 9409   4.775   7.331   3.237  0.1728 -0.1399  0.4049
35304SOL    HW1 9410   4.836   7.387   3.286  0.1084  2.0997 -1.8452
35304SOL    HW2 9411   4.688   7.364   3.260  0.0446 -0.3815  0.2703
35305SOL     OW 9412   4.819   9.014   0.683 -0.4572  0.2658 -0.7552
35305SOL    HW1 9413   4.752   8.963   0.638 -1.3928  1.4762 -0.7826
35305SOL    HW2 9414   4.830   9.092   0.629  0.4635  0.4185 -0.3685
35306SOL     OW 9415  10.428   6.428   7.229  0.0108  0.6538  0.7008
35306SOL    HW1 9416  10.387   6.373   7.295 -0.3769 -0.7765 -0.6742
35306SOL    HW2 9417  10.522   6.414   7.241 -0.0534  0.4492  0.9660
35307SOL     OW 9418   4.084   3.716   6.194  0.1953  0.3323 -0.0621
35307SOL    HW1 9419   4.080   3.688   6.286 -0.7512  1.4219  0.2484
35307SOL    HW2 9420   4.144   3.653   6.153  1.4860  0.4566  1.5122
35308SOL     OW 9421   6.455   7.258  10.628 -0.0554 -0.8170  0.0266
35308SOL    HW1 9422   6.369   7.224  10.604 -0.1134 -0.3815 -0.3958
35308SOL    HW2 9423   6.486   7.200  10.698 -1.0796 -0.4331  0.8166
35309SOL     OW 9424   7.717  10.339   1.673  0.0852 -0.0023 -0.2015
35309SOL    HW1 9425   7.734  10.354   1.580  0.0431  0.3880 -0.1463
35309SOL    HW2 9426   7.759  10.413   1.717  0.0540 -0.1560  0.0845
35310SOL     OW 9427   5.956   1.885   0.416  0.5283  0.1804  0.8992
35310SOL    HW1 9428   5.962   1.902   0.322 -0.7891 -0.0742  0.7512
35310SOL    HW2 9429   5.954   1.790   0.423  1.3695  0.1783  1.2537
35311SOL     OW 9430  10.583   2.241   7.028  0.3402 -0.1919 -0.5798
35311SOL    HW1 9431  10.670   2.219   7.059  0.4333  0.0932 -0.6338
35311SOL    HW2 9432  10.598   2.291   6.948  0.2374  2.3374  0.8870
35312SOL     OW 9433   8.350  10.796   8.284  0.9065 -0.3819 -0.3055
35312SOL    HW1 9434   8.404  10.758   8.215  1.1991 -0.9016  0.2064
35312SOL    HW2 9435   8.331  10.885   8.253  1.2136 -0.5352 -0.9500
35313SOL     OW 9436   3.325   2.846   6.033  0.0133 -0.1879  0.0693
35313SOL    HW1 9437   3.320   2.751   6.044  1.1070 -0.2890 -0.1962
35313SOL    HW2 9438   3.242   2.870   5.990 -0.0142 -1.1061 -0.4115
35314SOL     OW 9439   8.744   4.882   7.411 -0.2162 -0.0422 -0.0767
35314SOL    HW1 9440   8.663   4.931   7.426 -0.0463  0.1873  0.0848
35314SOL    HW2 9441   8.714   4.796   7.380 -0.5159  0.1351 -0.2907
35315SOL     OW 9442  10.418   8.909   1.992 -0.3361  0.3070 -0.3224
35315SOL    HW1 9443  10.374   8.835   1.952  0.0511  0.4428 -1.0207
35315SOL    HW2 9444  10.385   8.985   1.945 -3.0126  0.9679  2.3076
35316SOL     OW 9445   9.923   9.756   7.729 -0.2422 -0.9248  0.3125
35316SOL    HW1 9446   9.901   9.815   7.657  0.2032  1.6239  2.1171
35316SOL    HW2 9447   9.839   9.724   7.761 -0.7116  0.7458  0.8360
35317SOL     OW 9448   3.424   9.658   3.631 -0.2783 -0.2161 -0.5109
35317SOL    HW1 9449   3.354   9.593   3.618  0.1954 -0.5812 -1.3743
35317SOL    HW2 9450   3.401   9.702   3.713 -1.2764 -0.6318 -0.5465
35318SOL     OW 9451   2.381   8.087   8.893  0.2098 -0.3919 -0.1556
35318SOL    HW1 9452   2.418   8.007   8.931 -0.6367 -0.1259  1.3102
35318SOL    HW2 9453   2.286   8.077   8.903 -0.0527 -0.2615 -2.1879
35319SOL     OW 9454   2.474   4.365   5.210 -0.1177 -0.8116 -0.4225
35319SOL    HW1 9455   2.419   4.336   5.138 -1.4096  0.2003  0.1152
35319SOL    HW2 9456   2.439   4.319   5.287  0.3162 -0.7832 -0.2032
35320SOL     OW 9457   5.750   1.746  10.965 -0.1454 -0.2265  0.4968
35320SOL    HW1 9458   5.830   1.729  11.013 -0.7257  0.9308  1.9745
35320SOL    HW2 9459   5.716   1.660  10.942  1.4315 -0.7257 -0.0232
35321SOL     OW 9460   0.479   7.551   4.284 -0.1559 -0.2685  0.1581
35321SOL    HW1 9461   0.535   7.476   4.264  1.8223  1.2524 -0.3730
35321SOL    HW2 9462   0.538   7.627   4.280 -1.4816  1.1105  3.2596
35322SOL     OW 9463   7.191  10.376   6.409  0.1292 -0.2642  0.5117
35322SOL    HW1 9464   7.275  10.370   6.365  0.4300 -2.4784  1.2465
35322SOL    HW2 9465   7.160  10.465   6.392  0.1783 -0.9257 -4.1838
35323SOL     OW 9466   6.287   0.839   1.231 -0.2856 -0.0781 -0.0617
35323SOL    HW1 9467   6.232   0.800   1.299  0.8828  1.2924  1.7778
35323SOL    HW2 9468   6.240   0.823   1.149 -3.6975  1.4276  1.4249
35324SOL     OW 9469   1.490   2.608   4.703 -0.3098  0.4544  0.3473
35324SOL    HW1 9470   1.571   2.585   4.657 -0.0172  2.0980 -0.0383
35324SOL    HW2 9471   1.431   2.639   4.634 -1.4793 -1.1957  0.5607
35325SOL     OW 9472   5.899   2.353   1.406  0.1024 -0.2614  0.3363
35325SOL    HW1 9473   5.988   2.382   1.384  0.7990 -0.8853  2.1450
35325SOL    HW2 9474   5.842   2.424   1.377  1.3150  0.7145  0.2714
35326SOL     OW 9475   5.706   5.744   7.280  0.0136  0.3933  0.3810
35326SOL    HW1 9476   5.749   5.745   7.366 -0.8170  0.0297  0.8165
35326SOL    HW2 9477   5.728   5.658   7.243  2.4977  1.4825 -0.9212
35327SOL     OW 9478   3.714   8.695   9.631 -0.3497  0.3034  0.4520
35327SOL    HW1 9479   3.670   8.650   9.703  1.2641 -0.4200  1.0367
35327SOL    HW2 9480   3.680   8.652   9.552 -0.9033 -0.0282  0.8586
35328SOL     OW 9481   7.584  10.602   7.873 -0.1199 -0.0207 -0.0841
35328SOL    HW1 9482   7.531  10.569   7.946  0.2246 -0.8274 -0.1856
35328SOL    HW2 9483   7.548  10.689   7.855  0.3221  0.5387  1.5738
35329SOL     OW 9484   4.342   2.205   1.735 -0.1746 -0.2547  0.6854
35329SOL    HW1 9485   4.259   2.175   1.773  0.1062 -0.6049  1.0252
35329SOL    HW2 9486   4.355   2.292   1.772  0.5217 -0.9240  2.0781
35330SOL     OW 9487   8.624   1.380   0.481  0.1625 -0.3798 -0.2676
35330SOL    HW1 9488   8.633   1.469   0.514 -1.7830 -0.1700 -0.2183
35330SOL    HW2 9489   8.602   1.328   0.558 -0.6091 -0.5526 -0.5986
35331SOL     OW 9490   8.142   1.636   7.985 -0.2029 -0.1325  0.8498
35331SOL    HW1 9491   8.128   1.692   7.909 -1.0781 -1.8556 -0.3475
35331SOL    HW2 9492   8.071   1.659   8.046 -3.7547 -3.1236 -1.7007
35332SOL     OW 9493   1.129  10.496   8.533 -0.3456 -0.6488 -0.2352
35332SOL    HW1 9494   1.165  10.536   8.612 -2.0179 -0.4436  0.4716
35332SOL    HW2 9495   1.034  10.502   8.545 -0.7460  1.5426 -3.2979
35333SOL     OW 9496   3.283   6.816   1.259  0.1999 -0.4560 -0.1744
35333SOL    HW1 9497   3.254   6.905   1.243 -1.5012 -0.8944  0.3175
35333SOL    HW2 9498   3.315   6.785   1.174 -1.6253 -0.2270 -0.9755
35334SOL     OW 9499   2.202   9.414  10.296 -0.3081 -0.6795  0.0011
35334SOL    HW1 9500   2.173   9.385  10.382  0.8520 -1.6515  0.0938
35334SOL    HW2 9501   2.295   9.391  10.293  0.3245  1.6665 -0.5273
35335SOL     OW 9502   7.216   9.466   5.385 -0.1681 -0.5339 -0.6527
35335SOL    HW1 9503   7.136   9.470   5.331 -0.3628  1.9682 -0.2914
35335SOL    HW2 9504   7.198   9.524   5.459  1.7178 -0.5288 -0.1558
35336SOL     OW 9505   5.635  10.336   5.338 -0.0194  0.1919 -0.1117
35336SOL    HW1 9506   5.639  10.288   5.256  0.8233  0.9310 -0.5254
35336SOL    HW2 9507   5.692  10.287   5.397 -1.8973 -1.2646  0.5690
35337SOL     OW 9508   4.626   0.472   7.621  0.5887 -0.0889 -0.4160
35337SOL    HW1 9509   4.547   0.419   7.631  0.1064  0.6632 -0.1842
35337SOL    HW2 9510   4.687   0.415   7.575 -0.2828 -0.4846 -1.1051
35338SOL     OW 9511   6.059   3.207   7.543  0.4981 -0.5857 -0.2650
35338SOL    HW1 9512   6.058   3.178   7.452  0.9760  0.4531 -0.6181
35338SOL    HW2 9513   6.147   3.243   7.556  0.8911 -1.9127  1.0107
35339SOL     OW 9514   7.573   7.983   2.954 -0.2074 -0.3810 -0.2745
35339SOL    HW1 9515   7.609   8.048   3.015  1.1750 -0.9301 -0.4552
35339SOL    HW2 9516   7.482   7.972   2.981  0.2917 -0.4324  1.5515
35340SOL     OW 9517   6.880   3.693  10.370 -0.1020 -0.5817  0.1269
35340SOL    HW1 9518   6.845   3.637  10.301 -0.0834  0.0928 -0.4419
35340SOL    HW2 9519   6.968   3.717  10.340 -0.7828  1.2664 -0.5813
35341SOL     OW 9520   7.595   5.838   6.604 -0.4419 -0.3458 -0.2645
35341SOL    HW1 9521   7.673   5.814   6.553 -1.0095  1.8991 -2.3807
35341SOL    HW2 9522   7.528   5.777   6.576 -0.1779 -0.5080 -0.5495
35342SOL     OW 9523   3.936   1.085   1.898 -0.1427 -0.0882  0.1294
35342SOL    HW1 9524   3.956   1.063   1.989  2.0033 -0.0999 -0.3027
35342SOL    HW2 9525   3.851   1.130   1.903  0.2276  0.5161  2.2054
35343SOL     OW 9526   8.839   1.370   5.867  0.5660  0.0296  0.8086
35343SOL    HW1 9527   8.793   1.402   5.944  0.3650 -0.8832  1.0774
35343SOL    HW2 9528   8.930   1.361   5.895  1.1786  2.7203  0.0199
35344SOL     OW 9529   2.810   7.653   8.421 -0.7652 -0.4521  0.0950
35344SOL    HW1 9530   2.821   7.747   8.440  1.2157 -0.1610 -2.0001
35344SOL    HW2 9531   2.723   7.647   8.382 -0.9236  0.5022  0.2556
35345SOL     OW 9532   4.455  10.667   6.556  0.4744  0.3546 -0.5157
35345SOL    HW1 9533   4.490  10.652   6.643 -1.7108  1.5998  0.6621
35345SOL    HW2 9534   4.520  10.721   6.512  1.3470  0.1733  0.5229
35346SOL     OW 9535   6.792   9.985   9.025  0.4725 -0.6566  0.3092
35346SOL    HW1 9536   6.881  10.013   9.044 -0.1541  0.4386  1.8339
35346SOL    HW2 9537   6.793   9.890   9.039  1.1404 -0.5004  1.3883
35347SOL     OW 9538   6.962   2.661   9.061 -0.0002  0.7378  0.9716
35347SOL    HW1 9539   6.948   2.741   9.011  0.0260  0.6257  0.7797
35347SOL    HW2 9540   7.033   2.681   9.121  2.1895 -0.0471 -1.1970
35348SOL     OW 9541   0.544   6.108   5.690 -0.1342 -0.1287 -0.4030
35348SOL    HW1 9542   0.553   6.199   5.718  2.3307 -0.4148 -0.1147
35348SOL    HW2 9543   0.453   6.102   5.660  0.0663  2.8464 -1.9639
35349SOL     OW 9544  10.678   9.052  10.169 -0.2796  0.2734 -0.4962
35349SOL    HW1 9545  10.635   9.013  10.244 -0.0705 -0.0936 -0.5655
35349SOL    HW2 9546  10.740   9.115  10.207  1.3696 -1.4310 -0.2432
35350SOL     OW 9547   2.342   4.186   3.905  0.4802 -0.1856 -0.1499
35350SOL    HW1 9548   2.370   4.094   3.904 -0.9686 -0.6652  0.9647
35350SOL    HW2 9549   2.346   4.212   3.813 -1.1871 -2.0618 -0.8480
35351SOL     OW 9550   7.507  10.212   3.132  0.2131 -0.2214  0.5309
35351SOL    HW1 9551   7.551  10.220   3.217  2.3176  1.3068 -0.5953
35351SOL    HW2 9552   7.479  10.302   3.111 -0.9169 -0.6948 -0.0959
35352SOL     OW 9553  10.042   8.002   1.320  0.1715  0.5236 -0.5594
35352SOL    HW1 9554  10.130   7.970   1.343 -0.3818 -0.3293  0.4378
35352SOL    HW2 9555  10.033   7.980   1.227  0.0853 -1.7215 -0.0816
35353SOL     OW 9556   9.469  10.326   7.060 -0.8241  0.0398 -0.2913
35353SOL    HW1 9557   9.375  10.314   7.074 -0.1915 -2.4344  3.4439
35353SOL    HW2 9558   9.492  10.398   7.118 -0.1794 -0.6615  0.3425
35354SOL     OW 9559   3.744   5.920   6.063 -0.3446  0.3360 -0.3633
35354SOL    HW1 9560   3.789   5.965   5.991 -0.3681  0.6774 -0.1646
35354SOL    HW2 9561   3.657   5.901   6.028 -0.2239  0.1449 -0.5641
35355SOL     OW 9562   4.466   5.339   4.130 -0.3563  0.5775  0.1094
35355SOL    HW1 9563   4.429   5.337   4.042  0.6360  2.2199 -0.3999
35355SOL    HW2 9564   4.535   5.406   4.126  0.2514  0.1416  1.9293
35356SOL     OW 9565   3.715   5.382   8.567 -0.1860 -0.2564  0.3710
35356SOL    HW1 9566   3.741   5.471   8.544  2.0639 -0.4480  1.8439
35356SOL    HW2 9567   3.756   5.367   8.652  0.8450 -3.2492 -0.5450
35357SOL     OW 9568   1.051   5.849   4.005 -0.5677  0.3263  0.3715
35357SOL    HW1 9569   1.038   5.940   4.030  0.5295  0.3825  0.8131
35357SOL    HW2 9570   0.964   5.817   3.983 -1.1427  1.1293  1.4056
35358SOL     OW 9571   3.313   0.495   7.066  0.0494 -0.1385 -0.0124
35358SOL    HW1 9572   3.302   0.405   7.035  1.9130  0.0004 -1.2169
35358SOL    HW2 9573   3.321   0.487   7.161  2.5303 -1.5769 -0.2636
35359SOL     OW 9574   2.311   0.047   5.631  0.5757 -0.5887 -1.3468
35359SOL    HW1 9575   2.362   0.114   5.584  0.5339 -0.9120 -1.8610
35359SOL    HW2 9576   2.231   0.038   5.579 -0.5984  0.8205  0.1255
35360SOL     OW 9577   7.374   9.500   4.098 -0.0762  0.2968  0.4784
35360SOL    HW1 9578   7.468   9.500   4.116 -0.0116 -1.9376  0.5307
35360SOL    HW2 9579   7.333   9.495   4.184 -0.1545 -0.2708  0.4163
35361SOL     OW 9580   9.038   5.820   8.160  0.1779  0.1727  0.1691
35361SOL    HW1 9581   9.083   5.903   8.146 -0.5445  0.2604 -1.9620
35361SOL    HW2 9582   8.969   5.841   8.224 -0.9895  1.6292 -1.4889
35362SOL     OW 9583   1.465  10.971   1.859  0.1886  0.1277  0.5461
35362SOL    HW1 9584   1.475  11.059   1.896 -1.3544 -0.4397  2.4702
35362SOL    HW2 9585   1.425  10.986   1.773  0.2696  1.3284  0.6957
35363SOL     OW 9586  10.709   0.446   2.056  0.3748  0.5088 -0.2468
35363SOL    HW1 9587  10.722   0.430   2.149 -2.8430 -1.8925 -0.0466
35363SOL    HW2 9588  10.672   0.535   2.052 -2.0026 -0.3071  1.1930
35364SOL     OW 9589  10.905   0.262  10.664 -0.9424 -0.1338 -0.0356
35364SOL    HW1 9590  10.951   0.234  10.743  0.4577  0.9463 -0.4388
35364SOL    HW2 9591  10.840   0.193  10.649  0.3006 -1.5348  0.7555
35365SOL     OW 9592   8.460   8.868   3.330 -0.2029  0.2718  0.0299
35365SOL    HW1 9593   8.413   8.910   3.402 -1.2547 -0.6625 -0.0811
35365SOL    HW2 9594   8.512   8.938   3.290 -1.0604  1.2121  0.5301
35366SOL     OW 9595   7.056   3.302   6.476  0.1358  0.3326  0.2553
35366SOL    HW1 9596   7.075   3.276   6.386 -0.9898  0.7015 -0.1033
35366SOL    HW2 9597   7.133   3.275   6.526 -0.0191 -1.5721 -0.4864
35367SOL     OW 9598   9.179   2.429   7.846  0.2344 -0.6826 -0.0691
35367SOL    HW1 9599   9.115   2.395   7.909 -1.2848 -0.0746 -1.2258
35367SOL    HW2 9600   9.178   2.524   7.860  0.6325 -0.6378 -0.3352
35368SOL     OW 9601   3.708   7.654   5.344 -0.1338  0.1220  0.3484
35368SOL    HW1 9602   3.643   7.621   5.406 -0.3690 -0.0661  0.0030
35368SOL    HW2 9603   3.728   7.742   5.376  2.4327 -1.2262  2.8033
35369SOL     OW 9604   1.599   5.409   6.133  0.3201  0.0815 -0.0492
35369SOL    HW1 9605   1.602   5.314   6.128 -2.5152 -0.0735 -0.7212
35369SOL    HW2 9606   1.658   5.432   6.205  2.1935 -2.0319 -0.8433
35370SOL     OW 9607   5.430   6.658   2.991 -0.2668 -0.0406  0.2054
35370SOL    HW1 9608   5.427   6.751   2.970  1.2431  0.1406  0.6868
35370SOL    HW2 9609   5.478   6.653   3.074 -0.3653 -1.2384  0.2068
35371SOL     OW 9610   2.183   7.878   8.636 -0.4097  0.1519 -0.8030
35371SOL    HW1 9611   2.251   7.816   8.660 -1.1441 -0.2413  0.3684
35371SOL    HW2 9612   2.223   7.964   8.648  0.3795 -0.0705 -1.7153
35372SOL     OW 9613  10.913   3.586   5.298 -0.1182 -0.5852 -0.4494
35372SOL    HW1 9614  10.943   3.594   5.388  0.1969 -0.1513 -0.5937
35372SOL    HW2 9615  10.911   3.676   5.265 -1.9367 -0.5446 -0.3237
35373SOL     OW 9616   4.637   8.964   9.271 -0.4210  0.1347  0.0263
35373SOL    HW1 9617   4.682   8.973   9.187  0.5265 -0.5961  0.4463
35373SOL    HW2 9618   4.638   9.052   9.308  0.5061  0.1623 -0.0550
35374SOL     OW 9619   7.193   0.612   8.619 -0.3649 -0.1341  0.5044
35374SOL    HW1 9620   7.222   0.648   8.702 -0.4893 -0.3585  0.6442
35374SOL    HW2 9621   7.238   0.528   8.612  1.7682  1.0261 -0.8941
35375SOL     OW 9622   4.285   8.388   4.776 -0.2116 -0.4801 -0.1599
35375SOL    HW1 9623   4.215   8.374   4.840  0.7371  1.0166  1.2914
35375SOL    HW2 9624   4.340   8.310   4.784 -0.3898 -0.5450  0.4789
35376SOL     OW 9625  10.306   0.053  10.288  0.0180 -0.2822 -0.5730
35376SOL    HW1 9626  10.369   0.091  10.349  0.6088 -1.2636 -0.5610
35376SOL    HW2 9627  10.346   0.065  10.202 -0.7524  0.9796 -0.7787
35377SOL     OW 9628   7.936   4.840   6.696 -0.4055 -0.0348 -0.3718
35377SOL    HW1 9629   8.012   4.860   6.752 -1.6540  4.2780  0.1257
35377SOL    HW2 9630   7.964   4.866   6.608 -0.7214 -0.2315 -0.5322
35378SOL     OW 9631   1.541   3.058   3.670  0.4812 -0.5242  0.1177
35378SOL    HW1 9632   1.625   3.047   3.714  0.7887  1.7448  0.1881
35378SOL    HW2 9633   1.562   3.101   3.587 -0.6782  1.1740  0.6564
35379SOL     OW 9634   9.171   4.222  10.754  0.1319 -0.3844 -0.1157
35379SOL    HW1 9635   9.090   4.171  10.756 -1.6482  2.2547  0.3490
35379SOL    HW2 9636   9.190   4.239  10.846  0.7069 -0.1987 -0.2676
35380SOL     OW 9637   8.766   8.775   3.594  0.4212  0.3941  0.6390
35380SOL    HW1 9638   8.771   8.724   3.513 -1.1168  0.3600  0.5368
35380SOL    HW2 9639   8.701   8.843   3.576  0.4810  0.7382  1.6538
35381SOL     OW 9640   9.339  10.079   1.498 -0.2398 -0.1034  0.3141
35381SOL    HW1 9641   9.408  10.091   1.434  0.4868 -1.3897  0.8274
35381SOL    HW2 9642   9.280  10.154   1.484 -0.1324 -0.3536 -1.8464
35382SOL     OW 9643   1.183  10.592   2.541 -0.2145  0.6236  0.2341
35382SOL    HW1 9644   1.144  10.607   2.454 -0.7841 -1.4248  0.0903
35382SOL    HW2 9645   1.127  10.526   2.581 -0.5644  2.2539  2.6212
35383SOL     OW 9646   0.518   4.720   6.070 -0.4804  0.0212  0.1533
35383SOL    HW1 9647   0.568   4.692   6.146  0.8449  0.9319 -0.3466
35383SOL    HW2 9648   0.522   4.646   6.009  0.8035  0.3020 -0.1235
35384SOL     OW 9649   2.847   6.084   4.979  0.6662 -0.3877 -0.0933
35384SOL    HW1 9650   2.758   6.075   4.945  0.4841  3.5697 -1.1777
35384SOL    HW2 9651   2.901   6.032   4.919 -0.5045  0.5631 -2.0907
35385SOL     OW 9652   9.345   6.791   3.735  0.0902 -0.0191 -0.0710
35385SOL    HW1 9653   9.350   6.820   3.826 -0.6408 -2.3201  0.7954
35385SOL    HW2 9654   9.294   6.710   3.739  0.3293 -0.3670 -2.5056
35386SOL     OW 9655   8.102   2.391   6.869  0.6537  0.8805  0.2162
35386SOL    HW1 9656   8.071   2.370   6.957 -0.3821  1.8331  0.1043
35386SOL    HW2 9657   8.117   2.485   6.871  2.2466  0.6568 -0.1599
35387SOL     OW 9658   1.805   0.659   3.795 -0.2177  0.3146 -0.0609
35387SOL    HW1 9659   1.814   0.654   3.700 -1.4146 -1.7637 -0.1221
35387SOL    HW2 9660   1.830   0.572   3.827 -1.0145  0.5863  1.4143
35388SOL     OW 9661   5.705   1.743   4.913 -0.1106 -0.0208  0.2177
35388SOL    HW1 9662   5.716   1.740   4.818  2.2408 -0.5329  0.4533
35388SOL    HW2 9663   5.667   1.658   4.936 -1.7733  0.5348 -0.3321
35389SOL     OW 9664   5.107   1.123  10.351 -0.6069 -0.8912 -0.7237
35389SOL    HW1 9665   5.201   1.116  10.366 -0.7454 -2.3338 -0.4216
35389SOL    HW2 9666   5.094   1.213  10.318  0.9250 -0.8402 -1.2366
35390SOL     OW 9667  10.579   4.658   3.769  0.5248  0.0276 -0.4316
35390SOL    HW1 9668  10.503   4.706   3.802  0.5555  0.2413 -0.6680
35390SOL    HW2 9669  10.652   4.720   3.777  0.6112 -0.0627 -0.5084
35391SOL     OW 9670   2.217   8.459   8.851 -0.0602 -0.3634  0.5740
35391SOL    HW1 9671   2.260   8.423   8.773  2.0840  1.1419  0.9587
35391SOL    HW2 9672   2.193   8.382   8.902 -1.2056 -1.3721 -1.3761
35392SOL     OW 9673   3.479   6.644   2.193  0.8902  0.5298  0.3394
35392SOL    HW1 9674   3.568   6.679   2.198  0.4235  1.9334 -0.6350
35392SOL    HW2 9675   3.441   6.664   2.278  1.0170  1.3588  0.2101
35393SOL     OW 9676  10.782   4.284   8.488  0.0781 -0.1174 -0.1801
35393SOL    HW1 9677  10.849   4.346   8.515  1.0296 -1.8513  1.6792
35393SOL    HW2 9678  10.827   4.223   8.430 -0.9836  1.1384 -2.4620
35394SOL     OW 9679   6.296  10.257  10.569 -0.1088 -0.0809 -0.3760
35394SOL    HW1 9680   6.304  10.210  10.486  0.1730  0.5404 -0.7113
35394SOL    HW2 9681   6.375  10.233  10.618  0.5885  0.8625 -0.9880
35395SOL     OW 9682   6.208   7.217   9.049  0.6480 -0.4761  1.0156
35395SOL    HW1 9683   6.282   7.276   9.066  1.6683 -1.4420  0.0800
35395SOL    HW2 9684   6.249   7.136   9.019 -0.8313 -0.4448 -1.3248
35396SOL     OW 9685   7.711   7.995   7.280 -0.0796  0.3573 -0.2141
35396SOL    HW1 9686   7.797   8.019   7.314 -0.5775  1.1847  0.5033
35396SOL    HW2 9687   7.710   8.029   7.191  1.0296 -1.3428 -0.9253
35397SOL     OW 9688   7.620   2.935   5.466 -0.1619 -0.1186 -0.5601
35397SOL    HW1 9689   7.639   2.852   5.422 -0.8708 -1.5208  1.5835
35397SOL    HW2 9690   7.530   2.956   5.442 -0.0484 -0.0755 -0.9490
35398SOL     OW 9691   0.957   6.594   4.067  0.5808  0.3768  0.1047
35398SOL    HW1 9692   0.993   6.526   4.124  0.3239  0.4543  0.3639
35398SOL    HW2 9693   0.965   6.558   3.978 -0.0279 -0.2201  0.2758
35399SOL     OW 9694   3.101   3.580   8.614  0.0479  0.1400  0.2540
35399SOL    HW1 9695   3.011   3.610   8.628  0.0064  0.1100  0.0555
35399SOL    HW2 9696   3.152   3.660   8.607 -0.2351  0.2070 -1.4425
35400SOL     OW 9697   3.405   7.120   4.486  0.0657 -0.3582  0.1131
35400SOL    HW1 9698   3.366   7.085   4.406 -0.5116 -1.2261  0.7492
35400SOL    HW2 9699   3.363   7.205   4.498 -0.6815 -0.7215  0.0985
35401SOL     OW 9700   1.314   9.596  10.293  0.0678  0.1152  0.2199
35401SOL    HW1 9701   1.403   9.625  10.313  0.3273  0.5477 -1.4037
35401SOL    HW2 9702   1.276   9.574  10.378  1.5502  0.4102  0.9901
35402SOL     OW 9703  10.356   7.023   7.017  0.2822  0.1652 -0.3063
35402SOL    HW1 9704  10.400   7.102   6.987 -0.6226  0.7163 -0.2355
35402SOL    HW2 9705  10.264   7.050   7.027 -0.4072 -1.3288 -1.9906
35403SOL     OW 9706   8.198   8.801   4.922  0.3417  0.4687  0.2721
35403SOL    HW1 9707   8.170   8.883   4.880 -2.4008 -0.8485 -0.7227
35403SOL    HW2 9708   8.182   8.815   5.015 -0.3181  1.0071  0.0856
35404SOL     OW 9709   1.481   9.239   5.490 -0.1431  0.1395 -0.1912
35404SOL    HW1 9710   1.404   9.184   5.502  1.7712 -2.4247  1.3208
35404SOL    HW2 9711   1.476   9.303   5.561 -0.2193 -0.8879  0.7564
35405SOL     OW 9712   4.525   6.254   9.248  0.1179  0.3422  0.5854
35405SOL    HW1 9713   4.603   6.279   9.199 -0.6182 -0.2822 -0.9601
35405SOL    HW2 9714   4.455   6.308   9.210 -0.3835  0.2411  1.3381
35406SOL     OW 9715   2.229   1.339  10.074 -0.0399  0.1990  0.3685
35406SOL    HW1 9716   2.296   1.406  10.082 -0.4593  0.6715 -0.1075
35406SOL    HW2 9717   2.272   1.259  10.106  0.9367  0.3672 -0.4996
35407SOL     OW 9718   8.277  10.720   5.194  0.1411 -0.1740 -0.2993
35407SOL    HW1 9719   8.353  10.737   5.249  1.2372  2.5925 -2.4592
35407SOL    HW2 9720   8.300  10.641   5.144  1.8494  0.8601 -1.2296
35408SOL     OW 9721   6.836   0.048   8.956 -0.1253  0.1823 -0.2351
35408SOL    HW1 9722   6.880  -0.034   8.932 -0.4403 -0.2878  0.7400
35408SOL    HW2 9723   6.828   0.044   9.051 -3.8646 -0.6084 -0.4215
35409SOL     OW 9724  10.558   4.953   3.558 -0.3047  0.1574 -0.0060
35409SOL    HW1 9725  10.652   4.944   3.570  0.3139  3.3665 -1.2423
35409SOL    HW2 9726  10.525   4.980   3.644 -0.0059 -0.4255  0.2922
35410SOL     OW 9727   1.617   5.394   4.486 -0.3554  0.3132 -0.4593
35410SOL    HW1 9728   1.686   5.338   4.452 -0.2797  0.0114  0.1705
35410SOL    HW2 9729   1.611   5.466   4.424  0.6145  0.4058 -0.4532
35411SOL     OW 9730   1.044   2.594   8.119 -0.2849 -0.0322 -0.5089
35411SOL    HW1 9731   0.958   2.575   8.156 -0.7973 -0.1567 -1.7004
35411SOL    HW2 9732   1.068   2.680   8.156 -0.6376 -0.2746  0.2975
35412SOL     OW 9733   1.895   4.958   3.908 -0.2225  0.5059 -0.0877
35412SOL    HW1 9734   1.815   4.991   3.947 -2.0702 -2.0314 -1.4622
35412SOL    HW2 9735   1.948   4.929   3.982 -1.3652  0.5694  0.7795
35413SOL     OW 9736   5.300  10.546  10.316 -0.4313 -0.3464 -0.1971
35413SOL    HW1 9737   5.282  10.550  10.222 -1.8937 -1.1237  0.0262
35413SOL    HW2 9738   5.288  10.636  10.346  0.1186 -0.0748 -0.7503
35414SOL     OW 9739   8.362   6.756   1.590  0.3912  0.1221 -0.8282
35414SOL    HW1 9740   8.304   6.685   1.564  1.0017  0.2314 -2.6723
35414SOL    HW2 9741   8.444   6.738   1.545  2.1891 -0.5083  2.3901
35415SOL     OW 9742  10.329   8.667   8.876 -0.1500 -0.2719 -0.0914
35415SOL    HW1 9743  10.332   8.583   8.921  1.0237 -0.0860  0.2166
35415SOL    HW2 9744  10.391   8.657   8.803 -1.2078 -0.2031 -1.0246
35416SOL     OW 9745   7.458   4.983   2.698 -0.1963  0.4250  0.2073
35416SOL    HW1 9746   7.376   4.940   2.721 -0.4557  0.4743 -0.5973
35416SOL    HW2 9747   7.446   5.074   2.725 -0.2490  0.3463  0.4531
35417SOL     OW 9748   7.166   1.259   9.470 -0.0951  0.0785 -0.6890
35417SOL    HW1 9749   7.149   1.271   9.377 -1.4113  1.9208 -0.2760
35417SOL    HW2 9750   7.102   1.193   9.498  0.4297 -0.6196 -1.0928
35418SOL     OW 9751   5.095  10.679   3.726  0.1631 -0.0859  0.7992
35418SOL    HW1 9752   5.150  10.702   3.652 -1.5070  0.5541 -0.2988
35418SOL    HW2 9753   5.122  10.739   3.796  1.8169 -0.7638  0.7913
35419SOL     OW 9754   4.057   1.884   9.835  0.4820  0.5729  0.2341
35419SOL    HW1 9755   4.109   1.961   9.816  0.3382  0.5639 -0.2087
35419SOL    HW2 9756   3.973   1.900   9.792  0.9070 -0.4108 -1.0090
35420SOL     OW 9757   3.192   1.223   5.939 -0.3357  0.3077 -0.1374
35420SOL    HW1 9758   3.269   1.273   5.967  1.3177 -1.6266 -0.9166
35420SOL    HW2 9759   3.120   1.256   5.993  0.5516  3.5935 -0.7507
35421SOL     OW 9760   8.661   0.009   7.057 -0.1813  0.4229 -0.2388
35421SOL    HW1 9761   8.749  -0.024   7.075 -0.4053  0.2302  0.5608
35421SOL    HW2 9762   8.631  -0.043   6.982  0.1731  0.1062 -0.1636
35422SOL     OW 9763   0.704   4.180   2.923  0.2204  0.1531  0.3686
35422SOL    HW1 9764   0.776   4.242   2.934  0.7429 -0.7888  3.0114
35422SOL    HW2 9765   0.745   4.094   2.921 -0.7357 -0.3289  0.6717
35423SOL     OW 9766   6.149   3.698   7.453 -0.6401  0.0255 -0.0127
35423SOL    HW1 9767   6.095   3.767   7.492  1.1170  2.2599 -1.3022
35423SOL    HW2 9768   6.086   3.634   7.420 -2.3283  0.8134  1.4881
35424SOL     OW 9769  10.808   2.295   7.308  0.0955  0.2202  0.1290
35424SOL    HW1 9770  10.784   2.348   7.232  1.5297  0.6380 -0.0773
35424SOL    HW2 9771  10.843   2.359   7.371  1.1441 -0.3784  0.1765
35425SOL     OW 9772   5.582   3.378  10.905 -0.7723  0.5234 -0.0304
35425SOL    HW1 9773   5.666   3.349  10.870 -0.6378  0.4692  0.3415
35425SOL    HW2 9774   5.574   3.333  10.989 -0.3845  1.8388  0.7381
35426SOL     OW 9775   6.278   4.891   0.006 -0.3762 -0.1365  0.4066
35426SOL    HW1 9776   6.212   4.929  -0.052 -1.5741 -1.3210  0.9308
35426SOL    HW2 9777   6.344   4.959   0.015 -0.6459  0.4538 -1.5292
35427SOL     OW 9778   1.001   1.546   8.456 -0.4206 -0.3434 -0.0864
35427SOL    HW1 9779   1.096   1.540   8.467 -0.7439 -1.2844  3.2830
35427SOL    HW2 9780   0.974   1.615   8.516 -1.9243 -0.3084 -0.7557
35428SOL     OW 9781   8.335   3.259   4.973 -0.4350  0.8034 -0.1114
35428SOL    HW1 9782   8.313   3.345   4.937  1.1784 -0.0052 -3.4439
35428SOL    HW2 9783   8.251   3.213   4.975 -1.4145  2.4689  2.1837
35429SOL     OW 9784   0.555  10.031   3.338  0.8584 -0.1980 -0.0543
35429SOL    HW1 9785   0.537   9.954   3.286  1.1349 -0.8257  0.7559
35429SOL    HW2 9786   0.647  10.050   3.324  0.9907 -0.5051  0.3707
35430SOL     OW 9787   1.819   8.629   8.406 -0.0549  0.0694 -0.0886
35430SOL    HW1 9788   1.871   8.695   8.452 -2.0289 -0.0925  2.5545
35430SOL    HW2 9789   1.790   8.569   8.475 -0.8517 -1.8475 -1.9907
35431SOL     OW 9790   0.946   4.736   7.214  0.2451  0.0149 -0.1097
35431SOL    HW1 9791   0.856   4.729   7.183  0.1794  1.1370 -0.2018
35431SOL    HW2 9792   0.958   4.659   7.269 -1.0886  0.3401  0.6803
35432SOL     OW 9793   6.410   9.019   4.276  0.1737  0.1081 -0.7967
35432SOL    HW1 9794   6.334   9.000   4.221  0.2055  0.1653 -0.8595
35432SOL    HW2 9795   6.405   8.953   4.346 -1.2604  1.5447  0.5365
35433SOL     OW 9796   7.197   2.135   9.980 -0.5128 -0.1734  0.3294
35433SOL    HW1 9797   7.105   2.161   9.979  0.0156  1.9135  1.7484
35433SOL    HW2 9798   7.240   2.195   9.919  0.1312 -0.2820  0.6671
35434SOL     OW 9799   5.659   3.897   2.101  0.0620 -0.1354 -0.2623
35434SOL    HW1 9800   5.643   3.860   2.188 -0.3061 -0.8247 -0.6089
35434SOL    HW2 9801   5.748   3.930   2.105 -0.5806  1.5551  0.9506
35435SOL     OW 9802   7.044   5.506   4.079  0.1081 -0.1736 -0.2796
35435SOL    HW1 9803   6.948   5.515   4.078  0.1253 -0.0190 -0.6435
35435SOL    HW2 9804   7.066   5.494   4.172 -0.3769 -1.3779 -0.2988
35436SOL     OW 9805   9.972   2.942   1.469  0.8009 -0.1462  0.0762
35436SOL    HW1 9806   9.974   3.030   1.431 -0.8269  0.3376  1.0177
35436SOL    HW2 9807  10.026   2.949   1.548  0.1821  0.1943  0.4782
35437SOL     OW 9808   3.351   1.917   0.722  0.4984  0.0683 -0.3848
35437SOL    HW1 9809   3.283   1.851   0.707  0.9537 -0.6139  0.4126
35437SOL    HW2 9810   3.429   1.879   0.681  0.7543  0.1274  0.0447
35438SOL     OW 9811   1.904   5.949   8.699 -0.6163 -0.0755 -0.1481
35438SOL    HW1 9812   1.943   5.863   8.713 -0.1498  0.0758 -0.4974
35438SOL    HW2 9813   1.814   5.940   8.731 -0.9247 -1.0242 -1.2102
35439SOL     OW 9814   7.177   9.867   0.982  0.9100 -0.5923  0.6377
35439SOL    HW1 9815   7.116   9.793   0.978  0.8497 -0.5270 -2.3473
35439SOL    HW2 9816   7.135   9.929   1.041 -0.2614 -1.9205  1.2670
35440SOL     OW 9817   1.183   0.319   1.373  0.1376  0.0601 -0.7904
35440SOL    HW1 9818   1.088   0.331   1.375  0.2082  0.5831 -0.4019
35440SOL    HW2 9819   1.211   0.369   1.296  0.0752 -0.2787 -1.0347
35441SOL     OW 9820   2.299   6.697   9.999  0.0618  0.1256  0.6586
35441SOL    HW1 9821   2.279   6.607   9.975 -0.6366  0.3665  0.3282
35441SOL    HW2 9822   2.261   6.750   9.930  0.9797  0.6544  0.5362
35442SOL     OW 9823   0.787   3.307   4.004  0.1285 -0.0821 -0.2992
35442SOL    HW1 9824   0.819   3.364   4.074 -1.4548 -0.9759  1.2202
35442SOL    HW2 9825   0.716   3.256   4.044 -0.2858 -1.2281 -2.3314
35443SOL     OW 9826   8.904   8.068   1.080 -0.5874  0.0019  0.3234
35443SOL    HW1 9827   8.996   8.092   1.067  0.2423 -1.1143  3.2676
35443SOL    HW2 9828   8.898   7.980   1.044  0.7477 -1.6564  3.7335
35444SOL     OW 9829   9.237   9.580  10.948 -0.4460 -0.5745  0.3178
35444SOL    HW1 9830   9.307   9.520  10.923 -1.1816 -1.8806  1.2681
35444SOL    HW2 9831   9.239   9.648  10.881 -0.8556 -2.6659 -1.9666
35445SOL     OW 9832   3.418  10.656   6.313 -0.2285  0.2564 -0.7474
35445SOL    HW1 9833   3.485  10.683   6.377  0.0292  0.9830 -1.3169
35445SOL    HW2 9834   3.356  10.728   6.312 -0.1072  0.3481 -1.4981
35446SOL     OW 9835   2.364   9.140  10.567  0.3788  0.1388 -0.6063
35446SOL    HW1 9836   2.442   9.168  10.519 -0.2087  0.8087 -1.1949
35446SOL    HW2 9837   2.374   9.177  10.655  0.1275  1.3047 -1.0603
35447SOL     OW 9838   2.952   3.921   8.686 -0.4251 -0.2239 -0.7614
35447SOL    HW1 9839   2.992   3.995   8.732 -0.5820  0.6853 -2.0225
35447SOL    HW2 9840   3.026   3.870   8.655 -0.3184 -1.1958  0.9814
35448SOL     OW 9841  10.157   7.453   0.205  0.2548  0.0078 -0.3867
35448SOL    HW1 9842  10.190   7.387   0.144 -0.6056  0.0743 -0.9414
35448SOL    HW2 9843  10.185   7.422   0.291  1.4115 -0.1373 -0.8014
35449SOL     OW 9844   5.663  10.145  10.205 -0.3440  0.0812  0.5260
35449SOL    HW1 9845   5.724  10.091  10.254 -2.1363 -2.0938  0.4897
35449SOL    HW2 9846   5.719  10.205  10.155  1.7271 -1.5916  0.7313
35450SOL     OW 9847   8.938   3.462   0.785 -0.2135  0.2099 -0.7059
35450SOL    HW1 9848   8.947   3.430   0.875 -0.0918  0.9975 -0.4261
35450SOL    HW2 9849   8.845   3.487   0.778 -0.3287 -0.2843 -0.9504
35451SOL     OW 9850  10.053   1.819   8.712  0.1415 -0.2394 -0.4766
35451SOL    HW1 9851  10.035   1.871   8.790  1.6348 -0.9280  0.3637
35451SOL    HW2 9852  10.093   1.881   8.651 -0.7008  0.2193 -0.5823
35452SOL     OW 9853   4.902   1.310   3.064  0.1208 -0.2801 -0.2013
35452SOL    HW1 9854   4.975   1.300   3.125 -1.2657 -2.8305  1.2119
35452SOL    HW2 9855   4.843   1.371   3.108 -0.8908 -2.1378  1.1628
35453SOL     OW 9856   6.461   7.305   0.952 -0.5779  0.0884  0.0259
35453SOL    HW1 9857   6.484   7.272   0.865 -0.3665 -1.5518  0.6842
35453SOL    HW2 9858   6.539   7.352   0.982 -0.8037  1.0450 -0.8214
35454SOL     OW 9859  10.143   8.666   9.721  0.2556  0.2030 -0.2145
35454SOL    HW1 9860  10.135   8.597   9.656 -1.5770 -0.0511  0.2088
35454SOL    HW2 9861  10.213   8.637   9.779  1.7466  0.3245 -1.8947
35455SOL     OW 9862   6.568   1.464   9.133 -0.3629 -0.5386 -0.3029
35455SOL    HW1 9863   6.550   1.375   9.100 -2.9044 -0.5993  1.0302
35455SOL    HW2 9864   6.497   1.482   9.194  2.1601  0.9540  2.4435
35456SOL     OW 9865   9.482   1.076   7.734 -0.1175  0.1344  0.0463
35456SOL    HW1 9866   9.435   1.020   7.673 -1.4488  1.0667  0.1733
35456SOL    HW2 9867   9.453   1.165   7.712  1.9797  0.8272 -0.2149
35457SOL     OW 9868   4.270   9.923   0.432  0.0371  0.2922 -0.1170
35457SOL    HW1 9869   4.224   9.989   0.380  0.9259  1.2752  0.3226
35457SOL    HW2 9870   4.201   9.881   0.484 -0.4148  1.5027  0.2892
35458SOL     OW 9871   9.863   4.449   6.797  0.0726  0.1911  0.0885
35458SOL    HW1 9872   9.834   4.508   6.867 -1.6751  1.8046 -1.8380
35458SOL    HW2 9873   9.898   4.507   6.730 -0.3942 -1.0714 -1.2994
35459SOL     OW 9874   2.808   6.140   1.573 -0.3382 -0.4855 -0.2563
35459SOL    HW1 9875   2.769   6.225   1.591 -1.1702 -0.8913 -0.0863
35459SOL    HW2 9876   2.750   6.101   1.507 -0.2010 -1.0897 -0.0235
35460SOL     OW 9877   6.006   9.384   7.733 -0.0849  0.0132 -0.0890
35460SOL    HW1 9878   6.083   9.429   7.769  0.6740 -0.8745 -0.5377
35460SOL    HW2 9879   6.040   9.300   7.703 -1.1296 -0.1671 -0.8229
35461SOL     OW 9880   3.902   0.861   3.709 -0.5797  0.0295 -0.1357
35461SOL    HW1 9881   3.978   0.832   3.659  0.8393  1.1242  1.2535
35461SOL    HW2 9882   3.853   0.781   3.727  0.8952 -0.8912 -0.0646
35462SOL     OW 9883   1.236   4.815   9.216  0.1323 -0.4060  0.2557
35462SOL    HW1 9884   1.279   4.837   9.133 -1.4519  0.6705 -0.3258
35462SOL    HW2 9885   1.296   4.849   9.283  0.2648  0.9965 -0.5247
35463SOL     OW 9886   0.809   6.295   9.223  0.4305  0.2339  0.4270
35463SOL    HW1 9887   0.893   6.260   9.196  0.5635  0.2973  0.7580
35463SOL    HW2 9888   0.749   6.220   9.221  0.3529  0.3113 -0.4007
35464SOL     OW 9889   9.844   2.064   5.027  0.1887  0.2774 -0.1619
35464SOL    HW1 9890   9.877   2.007   4.957 -2.1709  0.6198 -1.6636
35464SOL    HW2 9891   9.840   2.151   4.986 -0.5547  0.6263  0.6435
35465SOL     OW 9892   8.017   2.913   6.695 -0.1683 -0.9351  1.0321
35465SOL    HW1 9893   7.947   2.879   6.639  0.9026  0.6890 -1.4318
35465SOL    HW2 9894   7.994   3.006   6.708  1.1869 -0.5405  0.7138
35466SOL     OW 9895   1.164   4.727  10.346 -0.1515  0.0177  0.4589
35466SOL    HW1 9896   1.124   4.814  10.355  0.2663  0.6100 -2.2795
35466SOL    HW2 9897   1.099   4.676  10.297  0.2191 -0.7672  0.7733
35467SOL     OW 9898   4.350   3.709   0.336  0.3148  0.1066  0.1995
35467SOL    HW1 9899   4.375   3.790   0.291 -0.2569 -0.4188 -1.0940
35467SOL    HW2 9900   4.418   3.646   0.312 -1.0990 -0.7824 -1.7564
35468SOL     OW 9901   8.109   5.191  10.504 -0.0850  0.3139 -0.1000
35468SOL    HW1 9902   8.152   5.116  10.463  0.5289  0.2607  0.6103
35468SOL    HW2 9903   8.079   5.158  10.589 -0.1753  0.7643  0.0468
35469SOL     OW 9904   0.527  10.557   3.405 -0.5940  0.1612 -0.0602
35469SOL    HW1 9905   0.534  10.610   3.326  0.6024  0.0493 -0.0522
35469SOL    HW2 9906   0.508  10.468   3.373  0.5572 -0.0168 -0.2754
35470SOL     OW 9907   0.042   8.716   2.580 -0.4754  0.3181  0.4891
35470SOL    HW1 9908   0.076   8.751   2.497  0.0404 -0.2694  0.4458
35470SOL    HW2 9909   0.101   8.750   2.647 -1.9238  2.2710  0.8562
35471SOL     OW 9910   8.870   8.728   2.866 -0.1363  0.1839 -0.0654
35471SOL    HW1 9911   8.918   8.650   2.838 -1.0724 -0.2977 -0.3725
35471SOL    HW2 9912   8.913   8.801   2.819  1.9039  0.1354  1.5865
35472SOL     OW 9913   4.120   1.242   7.930 -0.4401  0.2794 -0.6556
35472SOL    HW1 9914   4.187   1.306   7.953 -0.3478  0.5485 -1.6556
35472SOL    HW2 9915   4.038   1.285   7.952 -0.3912  0.8395 -1.5114
35473SOL     OW 9916   4.574   3.567   8.904 -0.2175  0.9152  0.1728
35473SOL    HW1 9917   4.652   3.545   8.854 -1.7868  0.2673 -2.1601
35473SOL    HW2 9918   4.565   3.496   8.967  0.4675  0.4190 -0.2759
35474SOL     OW 9919   5.235   5.735   0.125  0.0810 -0.6192 -0.3252
35474SOL    HW1 9920   5.315   5.776   0.090  0.4172  0.5784  1.6991
35474SOL    HW2 9921   5.180   5.809   0.151 -1.2155 -1.4524 -0.5859
35475SOL     OW 9922   0.411   9.891   0.926  0.3748  0.1775 -0.2357
35475SOL    HW1 9923   0.326   9.925   0.956  0.7847  1.9711 -0.9804
35475SOL    HW2 9924   0.475   9.936   0.981  0.8938 -1.0030  0.1717
35476SOL     OW 9925   8.837   6.777  10.573 -0.3217  0.0884 -0.3364
35476SOL    HW1 9926   8.810   6.852  10.520 -0.3511 -0.5283 -1.2059
35476SOL    HW2 9927   8.775   6.775  10.646  1.0952  2.3617  1.0966
35477SOL     OW 9928   4.001  10.551   5.285 -0.5139 -0.0117 -0.2097
35477SOL    HW1 9929   4.064  10.539   5.356 -1.3865  0.7854  0.7304
35477SOL    HW2 9930   4.022  10.481   5.223 -0.6510 -1.6735  1.5107
35478SOL     OW 9931   5.802   4.323   0.544  0.1140  0.5141  0.1325
35478SOL    HW1 9932   5.746   4.361   0.612  0.1624  0.6883  0.0751
35478SOL    HW2 9933   5.760   4.347   0.462 -0.0071  0.2030  0.1037
35479SOL     OW 9934   0.294   8.284   0.649  0.7763 -0.0336 -0.0686
35479SOL    HW1 9935   0.254   8.249   0.569  0.7343 -0.0161 -0.0551
35479SOL    HW2 9936   0.388   8.272   0.635  0.7303 -0.7385  0.2071
35480SOL     OW 9937   3.221   5.761   1.364 -0.0690  0.0515  0.0510
35480SOL    HW1 9938   3.154   5.730   1.425 -0.1625  0.0366 -0.0586
35480SOL    HW2 9939   3.291   5.795   1.420  1.0591 -2.4177  0.2782
35481SOL     OW 9940   5.060   4.722   2.604  0.5530  0.2564 -0.0944
35481SOL    HW1 9941   5.145   4.679   2.591  0.8444  1.0068 -0.7843
35481SOL    HW2 9942   5.061   4.796   2.543 -0.8772 -0.1075 -0.6011
35482SOL     OW 9943   4.012   7.055   5.972 -0.2009  0.1893  0.2722
35482SOL    HW1 9944   4.105   7.061   5.947 -0.4537 -1.3797 -1.3221
35482SOL    HW2 9945   3.965   7.089   5.895 -0.9652 -1.4205 -0.0097
35483SOL     OW 9946   5.620   7.939   0.209 -0.3152  0.0002 -0.3502
35483SOL    HW1 9947   5.682   7.913   0.277  1.2842  1.5050 -1.1832
35483SOL    HW2 9948   5.558   7.997   0.254 -0.4081 -0.5449  0.2286
35484SOL     OW 9949   1.284   3.677   6.467  0.5023  0.3733 -0.0612
35484SOL    HW1 9950   1.360   3.733   6.482 -0.8809  2.4333 -0.3175
35484SOL    HW2 9951   1.216   3.737   6.437 -0.6548 -1.6661 -1.8517
35485SOL     OW 9952  10.504   7.549   5.970  0.6080  0.2555  0.1716
35485SOL    HW1 9953  10.561   7.619   6.003 -0.2851  0.1863  1.9465
35485SOL    HW2 9954  10.431   7.546   6.031  0.8325 -2.5581  0.4344
35486SOL     OW 9955   3.682   3.163   2.948  0.2841 -0.0522  0.5556
35486SOL    HW1 9956   3.749   3.122   2.892 -0.2070 -1.3681  0.8985
35486SOL    HW2 9957   3.717   3.155   3.037 -1.0136 -2.2775  0.9392
35487SOL     OW 9958   0.629   9.099   8.622  0.5124  0.4427  0.1383
35487SOL    HW1 9959   0.714   9.086   8.581  0.3723 -0.3795  0.0864
35487SOL    HW2 9960   0.612   9.017   8.670  0.7826  1.4417  2.0593
35488SOL     OW 9961  10.061   7.128   5.232  0.3466  0.2840  0.1701
35488SOL    HW1 9962  10.017   7.178   5.301 -0.0973 -1.9456  1.6001
35488SOL    HW2 9963  10.028   7.039   5.242  1.6065 -0.4809 -1.8359
35489SOL     OW 9964   4.077   0.054   3.308  0.1072  0.0298  0.8433
35489SOL    HW1 9965   4.112   0.056   3.219 -2.8106 -0.2066 -0.4252
35489SOL    HW2 9966   4.027  -0.027   3.313 -1.2642  0.8798  2.0680
35490SOL     OW 9967   5.723   1.453   7.712 -0.2403  0.1020 -0.2447
35490SOL    HW1 9968   5.667   1.389   7.667  0.8111 -0.7614 -0.3690
35490SOL    HW2 9969   5.767   1.500   7.641 -0.4751  0.4836 -0.1402
35491SOL     OW 9970   0.947   1.624  10.051 -0.1055 -0.5178 -0.6549
35491SOL    HW1 9971   1.018   1.601   9.991  0.3754 -0.9019  0.0457
35491SOL    HW2 9972   0.867   1.600  10.003  0.3115 -1.9205 -0.6978
35492SOL     OW 9973   3.008   2.873   2.284  0.3616 -0.4462  0.2795
35492SOL    HW1 9974   3.083   2.926   2.258  2.2551 -1.6176  2.9811
35492SOL    HW2 9975   2.979   2.910   2.367 -2.6713  0.4293 -0.9836
35493SOL     OW 9976   6.942   6.822   7.868  0.5619 -0.0627 -0.6206
35493SOL    HW1 9977   6.887   6.867   7.804  0.7662  1.0600 -0.0230
35493SOL    HW2 9978   6.970   6.742   7.823 -2.6808 -1.4502 -0.4633
35494SOL     OW 9979   7.918   2.298   3.272  0.4855  0.3702 -0.6457
35494SOL    HW1 9980   7.844   2.331   3.221  0.4226  0.3687 -0.5567
35494SOL    HW2 9981   7.879   2.275   3.357  0.7511  1.2226 -0.2790
35495SOL     OW 9982   4.228   6.969   4.131 -0.4949 -0.4874 -0.2379
35495SOL    HW1 9983   4.228   7.041   4.068  0.4588  0.3748  0.7144
35495SOL    HW2 9984   4.310   6.922   4.115  0.0186  0.0709  0.7249
35496SOL     OW 9985   7.517   5.711   9.207 -0.6515  0.4926 -0.2036
35496SOL    HW1 9986   7.429   5.676   9.222 -0.8493  0.8130 -0.6244
35496SOL    HW2 9987   7.558   5.647   9.149 -1.0218  0.9610 -0.9933
35497SOL     OW 9988   4.144  10.369   3.119  0.2696  0.5312 -0.5205
35497SOL    HW1 9989   4.112  10.417   3.195  0.3301  0.4913 -0.4700
35497SOL    HW2 9990   4.205  10.304   3.155 -0.6050 -0.2855 -0.4724
35498SOL     OW 9991   3.728   8.921   5.406 -0.1598 -0.1737 -0.2584
35498SOL    HW1 9992   3.637   8.950   5.402 -0.2367 -0.4817 -0.8277
35498SOL    HW2 9993   3.725   8.843   5.462 -0.1670  0.0923  0.1182
35499SOL     OW 9994   9.591   7.837   2.836 -0.2599 -0.4380  0.2937
35499SOL    HW1 9995   9.626   7.785   2.763  0.1607  1.2265 -0.7395
35499SOL    HW2 9996   9.647   7.813   2.911 -0.1157 -1.4938 -0.1310
35500SOL     OW 9997  10.404   1.027   3.646  0.2643  0.0019  0.2180
35500SOL    HW1 9998  10.384   0.942   3.608  0.3087 -0.3203  0.8978
35500SOL    HW2 9999  10.347   1.088   3.600  1.0533 -0.2008 -1.0991
35501SOL     OW10000   0.155   8.967   7.418  0.0871  0.0311 -0.2084
35501SOL    HW110001   0.210   8.894   7.391 -0.8942 -0.6059 -0.5238
35501SOL    HW210002   0.163   8.970   7.513 -0.2920 -0.8316 -0.1484
35502SOL     OW10003  10.917  10.822   9.785  0.0646  0.4945  0.4522
35502SOL    HW110004  10.976  10.769   9.839  2.2738  0.7723 -1.5401
35502SOL    HW210005  10.935  10.912   9.810 -0.1209  0.5418  0.4175
35503SOL     OW10006   1.264   2.593   3.273  0.0754  0.4506  0.0945
35503SOL    HW110007   1.270   2.555   3.185 -1.4266  1.2550 -0.3947
35503SOL    HW210008   1.296   2.525   3.331 -1.0425 -0.9671 -0.8931
35504SOL     OW10009   1.387   7.771   8.334 -0.1270  0.7487  0.0797
35504SOL    HW110010   1.431   7.794   8.416 -0.9315  0.9963  0.4485
35504SOL    HW210011   1.294   7.780   8.353 -0.3066  2.6974 -1.3944
35505SOL     OW10012   3.103   4.501   5.414  0.0074  0.2456 -0.7407
35505SOL    HW110013   3.114   4.541   5.328 -0.0677 -0.0631 -0.8951
35505SOL    HW210014   3.175   4.536   5.466  0.5719 -0.2451 -1.1818
35506SOL     OW10015   7.821   1.366   1.437  0.0724 -0.0658 -0.1777
35506SOL    HW110016   7.890   1.329   1.381 -0.2538 -0.7886 -0.1061
35506SOL    HW210017   7.827   1.316   1.518 -1.7214 -1.3973 -0.8191
35507SOL     OW10018   0.380   0.895   7.136  0.9384 -0.5963 -0.3401
35507SOL    HW110019   0.304   0.901   7.193  1.2339  2.2078 -0.0644
35507SOL    HW210020   0.347   0.859   7.053 -0.6896  0.5048 -0.1982
35508SOL     OW10021  10.109   9.900  10.222  0.7584  0.2473 -0.6702
35508SOL    HW110022  10.023   9.906  10.180  0.1199  2.1317  0.7616
35508SOL    HW210023  10.112   9.811  10.258 -1.5590  0.8112  1.1343
35509SOL     OW10024   3.423   3.360   2.355  0.1487 -1.0214 -0.1254
35509SOL    HW110025   3.496   3.336   2.411 -0.1529 -1.2300  0.1850
35509SOL    HW210026   3.449   3.442   2.314 -0.3623  0.1035  1.6997
35510SOL     OW10027   7.937   2.805   9.958  0.2978  0.4067 -0.0938
35510SOL    HW110028   7.921   2.710   9.950 -0.1753  0.5230 -0.6564
35510SOL    HW210029   8.006   2.812  10.023  0.4075 -0.3376 -0.1117
35511SOL     OW10030   6.301   6.670   8.973 -0.3102  0.2032  0.4652
35511SOL    HW110031   6.307   6.575   8.968  0.5036  0.3149 -1.4323
35511SOL    HW210032   6.354   6.702   8.900 -0.5508  2.1223  1.0613
35512SOL     OW10033   9.844   0.301   9.354 -0.2040 -0.2219 -0.4085
35512SOL    HW110034   9.797   0.360   9.413  0.2047  0.0488 -0.3507
35512SOL    HW210035   9.776   0.244   9.318 -0.5994  0.2673 -0.4466
35513SOL     OW10036   6.826   7.333  10.793  0.4790 -0.1653  0.1583
35513SOL    HW110037   6.798   7.314  10.883  0.5571  3.2500  1.0575
35513SOL    HW210038   6.793   7.260  10.741 -1.7901 -1.0210  2.6021
35514SOL     OW10039   1.800   6.846  10.280 -0.3449  0.3986 -0.1851
35514SOL    HW110040   1.803   6.906  10.354  0.8787 -0.6146  0.6390
35514SOL    HW210041   1.810   6.759  10.319 -0.5382 -0.2323 -1.4742
35515SOL     OW10042   8.577   6.508   0.117  0.6327 -0.6355  0.3765
35515SOL    HW110043   8.496   6.556   0.133  0.0686 -1.8282  1.1426
35515SOL    HW210044   8.576   6.491   0.023  0.1513 -0.3754  0.3305
35516SOL     OW10045   7.203   6.106  10.403 -0.0699 -0.5464  0.0638
35516SOL    HW110046   7.292   6.116  10.370  0.9582 -3.6686  1.4138
35516SOL    HW210047   7.147   6.113  10.326  1.4927 -0.0920 -1.0771
35517SOL     OW10048  10.699   3.876   5.234  0.5653  0.4122  0.4510
35517SOL    HW110049  10.786   3.870   5.195 -0.3788 -1.3252 -1.5367
35517SOL    HW210050  10.649   3.934   5.176 -0.0103  0.2752  0.7955
35518SOL     OW10051   4.669   6.203   4.341 -0.7793  0.5015 -0.0477
35518SOL    HW110052   4.634   6.244   4.262 -1.0616 -0.6684 -0.5634
35518SOL    HW210053   4.597   6.147   4.372 -0.1528 -0.2104  0.1591
35519SOL     OW10054   5.239   2.803   3.773  0.5664 -0.4571  0.8892
35519SOL    HW110055   5.150   2.808   3.739  0.2961 -1.3909  1.4414
35519SOL    HW210056   5.264   2.712   3.763  1.7146 -0.0775  0.1418
35520SOL     OW10057   6.109   3.824   2.871 -0.2737 -0.1479  0.1298
35520SOL    HW110058   6.139   3.902   2.917 -0.4639  0.4727 -0.7742
35520SOL    HW210059   6.186   3.768   2.866 -0.6588 -1.0666  2.7931
35521SOL     OW10060   0.033   8.066   8.276  0.3075  0.0981 -0.8899
35521SOL    HW110061  -0.033   8.121   8.318 -0.5868 -1.2941 -0.4076
35521SOL    HW210062  -0.007   7.979   8.273  2.2682 -0.8625 -0.2830
35522SOL     OW10063   2.955   7.568   3.069 -0.2135 -0.1345  0.0804
35522SOL    HW110064   2.988   7.607   3.150 -0.8744 -1.5558  1.0842
35522SOL    HW210065   2.861   7.584   3.071  0.0006  1.6400 -1.4825
35523SOL     OW10066   2.994   6.166   2.166 -0.8495 -0.1920 -0.6242
35523SOL    HW110067   2.951   6.198   2.245 -0.3263  0.3590 -0.5485
35523SOL    HW210068   3.021   6.077   2.187 -0.5052  0.0326 -0.0965
35524SOL     OW10069  10.748   3.571   6.708  0.2222  0.6384 -0.5781
35524SOL    HW110070  10.822   3.607   6.759  0.8057  0.8725 -1.5687
35524SOL    HW210071  10.680   3.638   6.715  0.3504  0.7375 -0.2387
35525SOL     OW10072   7.333   0.689   5.572  0.2678 -0.7377 -0.1828
35525SOL    HW110073   7.381   0.749   5.515 -1.1572  1.2671  0.5929
35525SOL    HW210074   7.367   0.707   5.659 -3.2665  2.5655  0.8141
35526SOL     OW10075   1.801   6.223   5.596 -0.1853  0.0538  0.0335
35526SOL    HW110076   1.768   6.276   5.669  0.0840 -0.8808  0.8436
35526SOL    HW210077   1.888   6.195   5.624 -0.3040 -0.7755 -0.4128
35527SOL     OW10078   7.857   9.383   5.593 -0.0137  0.2992  0.0311
35527SOL    HW110079   7.924   9.450   5.578  1.3703 -0.9417  0.4527
35527SOL    HW210080   7.878   9.347   5.679 -0.9020 -0.5069 -0.0695
35528SOL     OW10081   9.754   8.687   5.570 -0.6650  0.3753 -0.0097
35528SOL    HW110082   9.836   8.639   5.582 -0.4167  0.2453 -1.8856
35528SOL    HW210083   9.686   8.622   5.584 -0.3820 -0.0122 -0.4063
35529SOL     OW10084   5.969   5.360   8.640  0.2247  0.3820  0.0449
35529SOL    HW110085   5.985   5.447   8.604  1.2463  0.3585  0.4355
35529SOL    HW210086   6.027   5.353   8.715  0.1131 -0.6234  0.0538
35530SOL     OW10087   1.191   8.317   6.444  0.1491  0.0380  0.3077
35530SOL    HW110088   1.245   8.394   6.461  1.5191  0.0152 -3.2012
35530SOL    HW210089   1.251   8.243   6.450 -0.6116 -0.5308  1.1730
35531SOL     OW10090   2.078   7.215   1.727 -0.1390  0.4913 -0.0073
35531SOL    HW110091   2.113   7.141   1.776 -2.4284 -0.1371  0.8234
35531SOL    HW210092   2.000   7.180   1.684 -0.2834  2.0094 -1.0511
35532SOL     OW10093   4.432  10.762   3.633 -0.4020  0.1287 -0.0107
35532SOL    HW110094   4.350  10.741   3.589 -1.4227  0.9071  1.4550
35532SOL    HW210095   4.436  10.858   3.633  0.2119  0.1129  0.4468
35533SOL     OW10096   1.105  10.065   4.650  0.4942 -0.2051 -0.4844
35533SOL    HW110097   1.032  10.112   4.610 -0.3038 -0.4978  0.5942
35533SOL    HW210098   1.182  10.118   4.627 -0.2555  1.0662 -0.1655
35534SOL     OW10099   3.292   6.689  10.437  0.2271  0.3621  0.4061
35534SOL    HW110100   3.277   6.600  10.403  0.7406  0.3025  0.3355
35534SOL    HW210101   3.333   6.676  10.522  0.9176  0.5401  0.1015
35535SOL     OW10102   8.962   1.574   4.974 -0.2327 -0.7642  0.4088
35535SOL    HW110103   8.896   1.562   4.906  1.7662 -0.0576 -1.8078
35535SOL    HW210104   8.937   1.655   5.018 -0.1826  0.2008 -1.2694
35536SOL     OW10105   6.715   0.463   7.479 -0.1247 -0.1841  0.7159
35536SOL    HW110106   6.760   0.409   7.544 -1.9900 -0.2536  2.0320
35536SOL    HW210107   6.782   0.523   7.447  1.4280 -1.7387  0.9110
35537SOL     OW10108   7.212   2.579   2.883  0.0235  0.4520 -0.0683
35537SOL    HW110109   7.213   2.592   2.788 -1.4261  0.9111 -0.0348
35537SOL    HW210110   7.274   2.644   2.917  0.5191  0.3137 -0.6876
35538SOL     OW10111   8.690   8.247   6.910 -0.1005  0.0924 -0.8033
35538SOL    HW110112   8.724   8.291   6.988 -2.6720  0.7112  0.0671
35538SOL    HW210113   8.743   8.283   6.838  1.8398  0.0534  0.5270
35539SOL     OW10114   9.264   4.043   1.470 -0.1085  0.6519 -0.5042
35539SOL    HW110115   9.180   4.031   1.514  0.2268 -1.1727 -0.2907
35539SOL    HW210116   9.243   4.097   1.393 -1.2285  1.2707  0.2050
35540SOL     OW10117   5.894   7.863   3.176  0.2533  0.6058  0.8506
35540SOL    HW110118   5.926   7.944   3.216  0.0680 -0.3796  3.0962
35540SOL    HW210119   5.813   7.890   3.131  1.6521  2.1704 -0.9117
35541SOL     OW10120   7.403   5.029   3.495  0.4221  0.2564 -0.5327
35541SOL    HW110121   7.375   5.013   3.405  0.9136  2.2267 -1.0811
35541SOL    HW210122   7.376   5.119   3.513  0.9499  0.1300  1.0542
35542SOL     OW10123  10.664   9.451  10.087 -0.4943 -0.6967  0.2631
35542SOL    HW110124  10.707   9.479  10.007  0.3193 -2.0017  0.2063
35542SOL    HW210125  10.628   9.531  10.125  1.1938  0.3112 -0.1750
35543SOL     OW10126   1.722  10.259   7.248 -0.4606  0.3314  0.1330
35543SOL    HW110127   1.760  10.189   7.302  0.4107  0.2988 -0.5041
35543SOL    HW210128   1.783  10.332   7.256 -0.5461  0.4752 -0.4759
35544SOL     OW10129  10.247   7.792   8.579 -0.2610 -0.4253 -0.9230
35544SOL    HW110130  10.221   7.884   8.578  0.2029 -0.2849 -0.4266
35544SOL    HW210131  10.328   7.789   8.527  1.3240 -0.0405  1.3932
35545SOL     OW10132   1.169  10.453   1.060  0.1585 -0.3569 -0.0170
35545SOL    HW110133   1.145  10.516   1.127 -0.1053 -0.2411 -0.2184
35545SOL    HW210134   1.091  10.445   1.005  0.8558  0.7175 -1.2308
35546SOL     OW10135  10.980   1.967   3.695  0.0243 -0.5289 -0.8628
35546SOL    HW110136  10.961   1.883   3.655  0.6137 -0.6971 -0.8013
35546SOL    HW210137  10.901   2.019   3.681 -0.5038 -1.2241 -0.5336
35547SOL     OW10138   5.092   9.361   6.701  0.1689 -0.2454  0.1629
35547SOL    HW110139   5.147   9.286   6.723 -1.4754 -1.3806  0.5530
35547SOL    HW210140   5.154   9.427   6.668  1.6068 -1.9051 -0.6267
35548SOL     OW10141  10.906   4.415   9.013 -0.0535 -0.7439  0.4857
35548SOL    HW110142  10.846   4.439   8.943  0.3219  1.6990  0.8974
35548SOL    HW210143  10.945   4.333   8.985 -0.2984 -0.0910 -1.9461
35549SOL     OW10144   2.100  10.086   3.399  0.1235  0.2368 -0.5018
35549SOL    HW110145   2.192  10.060   3.401  0.2897  0.8256 -0.1327
35549SOL    HW210146   2.076  10.082   3.306  1.0918  1.9512 -0.8704
35550SOL     OW10147   9.097   7.793   5.649  0.1279 -0.4020  0.2560
35550SOL    HW110148   9.186   7.763   5.633  0.3156  1.0752 -1.8575
35550SOL    HW210149   9.100   7.887   5.634 -1.5971 -0.1704  1.1361
35551SOL     OW10150   4.294   2.080  10.288 -0.0912  0.4078  0.0937
35551SOL    HW110151   4.370   2.031  10.255 -0.8842  0.5128 -2.0430
35551SOL    HW210152   4.263   2.028  10.363  1.4403 -0.1901  0.3663
35552SOL     OW10153   1.511   9.806   3.128  0.3700  0.0895 -0.3194
35552SOL    HW110154   1.487   9.865   3.057  1.1777  1.0994  0.2158
35552SOL    HW210155   1.512   9.719   3.088 -2.1798  0.2180 -0.8159
35553SOL     OW10156   1.135   9.982   5.555  0.3395  0.3788 -0.5370
35553SOL    HW110157   1.150   9.917   5.487  1.4714 -0.3702  0.3874
35553SOL    HW210158   1.141   9.932   5.637  1.1654  1.6195  0.1861
35554SOL     OW10159   2.587   4.778   6.188  0.6244  0.1189 -0.0037
35554SOL    HW110160   2.585   4.839   6.262  0.8736 -1.3308  1.2327
35554SOL    HW210161   2.679   4.752   6.181  0.3587 -0.8723  0.1296
35555SOL     OW10162   5.432   5.110  10.735 -0.5997 -0.3573 -0.3253
35555SOL    HW110163   5.523   5.119  10.763 -1.0019  0.8263  0.6758
35555SOL    HW210164   5.426   5.020  10.701  1.4086  0.1666 -2.2598
35556SOL     OW10165   2.175   1.752   3.232  1.0667 -0.0478 -0.0271
35556SOL    HW110166   2.117   1.818   3.196  0.5836 -1.6584 -2.4774
35556SOL    HW210167   2.260   1.795   3.238  0.8154  0.7616 -1.7675
35557SOL     OW10168   1.163   1.016   1.723  0.2813  0.1352  0.1526
35557SOL    HW110169   1.150   1.058   1.809 -1.9695 -1.3481  0.6360
35557SOL    HW210170   1.213   0.937   1.743 -1.9192 -1.2549  0.5114
35558SOL     OW10171   0.135  10.170   6.610 -0.2399  0.5502  0.1934
35558SOL    HW110172   0.182  10.153   6.529 -1.2174 -0.3544 -0.2152
35558SOL    HW210173   0.078  10.244   6.590 -1.4581 -0.5102 -0.3938
35559SOL     OW10174   3.492   9.008   2.064 -0.0744  0.6462  0.0011
35559SOL    HW110175   3.510   8.952   1.988 -2.4075  1.4736 -1.2823
35559SOL    HW210176   3.579   9.032   2.097  1.0876  0.6049 -2.7050
35560SOL     OW10177   0.618   7.533   6.615  0.1936  0.5898  0.3344
35560SOL    HW110178   0.601   7.556   6.523  0.9618 -0.6437 -0.1300
35560SOL    HW210179   0.555   7.587   6.664 -1.2254  0.2399 -0.9922
35561SOL     OW10180   9.573   8.754   3.396 -0.1826  0.3410 -0.1847
35561SOL    HW110181   9.658   8.797   3.406 -0.3305  1.1519 -1.9543
35561SOL    HW210182   9.558   8.710   3.480  1.6024  0.8398  0.4463
35562SOL     OW10183   1.671   5.159   9.152  0.4847 -0.7331  0.3035
35562SOL    HW110184   1.730   5.176   9.078  1.4388 -2.3435  0.6597
35562SOL    HW210185   1.674   5.241   9.203 -0.3567  0.4869 -1.5016
35563SOL     OW10186   8.067  10.470   3.396 -0.0782  0.3120  0.3248
35563SOL    HW110187   7.976  10.445   3.385  0.1325 -0.4180  0.1824
35563SOL    HW210188   8.064  10.547   3.452 -0.7649  0.0733  0.6304
35564SOL     OW10189   7.603   5.291   1.595  0.4444  0.2250  0.7252
35564SOL    HW110190   7.540   5.311   1.526 -0.1155 -0.6211  0.9810
35564SOL    HW210191   7.618   5.375   1.639 -2.2126  0.0581  2.0884
35565SOL     OW10192   1.880   7.416   2.615 -0.2773  0.0345 -0.0531
35565SOL    HW110193   1.904   7.349   2.679  0.6494  0.3802 -0.0355
35565SOL    HW210194   1.891   7.374   2.530 -0.3760 -0.0545 -0.0219
35566SOL     OW10195  10.777   0.249   8.563 -0.0837  0.5676  0.0302
35566SOL    HW110196  10.826   0.286   8.637 -0.9276  2.3947 -0.2763
35566SOL    HW210197  10.833   0.265   8.487 -0.1282  0.5638 -0.0032
35567SOL     OW10198   8.926   2.066   5.595 -0.1658 -0.1995  0.0075
35567SOL    HW110199   8.885   2.115   5.668 -0.7707  0.6999 -0.9046
35567SOL    HW210200   9.010   2.038   5.630 -0.2365  0.6382  0.9157
35568SOL     OW10201   5.028   6.511   7.544  0.1893 -0.3847 -0.3804
35568SOL    HW110202   5.091   6.582   7.528 -0.4841  0.1131 -0.9062
35568SOL    HW210203   5.055   6.441   7.484  0.3695 -0.2558 -0.4495
35569SOL     OW10204   6.285   2.453   6.824 -0.0165 -0.7125  0.3028
35569SOL    HW110205   6.218   2.390   6.797 -0.2586 -0.3689  0.0905
35569SOL    HW210206   6.362   2.428   6.773  0.0920 -1.2646  0.7358
35570SOL     OW10207  10.419   0.234  10.761  0.3716 -0.1553  0.1216
35570SOL    HW110208  10.329   0.249  10.791  0.8028  0.0491  1.3934
35570SOL    HW210209  10.411   0.216  10.668 -1.1532 -1.5920  0.4813
35571SOL     OW10210   5.898   0.997   9.011 -0.1592  0.7948 -0.6928
35571SOL    HW110211   5.976   0.982   9.065  1.1601  1.4146 -2.3243
35571SOL    HW210212   5.846   0.917   9.021  0.7469  0.3067  0.3341
35572SOL     OW10213  10.406   6.167  10.708  0.1061  0.5714  0.6430
35572SOL    HW110214  10.375   6.080  10.683  0.2184  0.7090 -0.0035
35572SOL    HW210215  10.477   6.151  10.771  0.9608  0.1448 -0.4056
35573SOL     OW10216   4.522   4.179   7.598 -0.0284 -0.0328  0.1031
35573SOL    HW110217   4.488   4.267   7.583  0.6290  0.1534 -0.3207
35573SOL    HW210218   4.527   4.172   7.694  2.4428  1.4192  0.1717
35574SOL     OW10219   9.355   1.030   1.610  0.1572 -0.5629 -0.1622
35574SOL    HW110220   9.292   1.091   1.572 -0.9720 -1.9811 -0.6841
35574SOL    HW210221   9.340   1.036   1.704  0.9847  0.8954 -0.0970
35575SOL     OW10222   7.020   2.973   3.034 -0.7230  0.1597  0.0206
35575SOL    HW110223   7.035   3.064   3.060 -0.2266 -0.1822  0.9742
35575SOL    HW210224   7.050   2.922   3.109  0.1053 -0.8380 -0.9757
35576SOL     OW10225   1.904  10.815   2.278  0.0728  0.1826 -0.0698
35576SOL    HW110226   1.850  10.747   2.239  1.1532  1.4647 -4.3562
35576SOL    HW210227   1.932  10.779   2.362 -0.8517 -3.8732 -1.3144
35577SOL     OW10228  10.047   5.986   0.419 -0.5996 -0.5027 -0.0106
35577SOL    HW110229  10.140   5.971   0.437 -0.8040 -0.6787  0.9450
35577SOL    HW210230  10.042   5.995   0.324  0.6788  1.5631  0.0737
35578SOL     OW10231   2.920   9.611   9.163 -0.1330 -0.2709  0.8163
35578SOL    HW110232   2.932   9.525   9.123  0.4662  0.7880 -1.4270
35578SOL    HW210233   2.981   9.613   9.236  1.9662 -0.7545 -0.8384
35579SOL     OW10234   6.930   6.889  10.264 -0.3483  0.8622  0.9130
35579SOL    HW110235   6.969   6.848  10.342 -0.3228  0.4774  0.6995
35579SOL    HW210236   6.845   6.846  10.254 -0.0470  0.3888  0.3084
35580SOL     OW10237   5.272   7.760   5.661  0.1380  0.2168  0.2401
35580SOL    HW110238   5.199   7.720   5.709  0.7088  0.4552  1.3407
35580SOL    HW210239   5.334   7.689   5.648  1.6962  0.8712  3.2453
35581SOL     OW10240   7.734   1.092   4.232 -0.1175  0.0458 -0.4550
35581SOL    HW110241   7.642   1.089   4.207 -0.2713 -0.0070  0.1004
35581SOL    HW210242   7.742   1.027   4.302 -0.1197  1.5304  0.9879
35582SOL     OW10243   3.277   4.922   1.748  0.8486 -0.5419 -0.1819
35582SOL    HW110244   3.226   4.966   1.816  1.0298 -0.4904 -0.0793
35582SOL    HW210245   3.340   4.869   1.796  1.8052  0.4481 -0.2949
35583SOL     OW10246   4.618   3.038   9.871 -0.4836  0.6580  0.0055
35583SOL    HW110247   4.604   2.995   9.787 -1.3918  0.0148  0.4801
35583SOL    HW210248   4.705   3.009   9.899 -1.7812 -2.5212  1.2325
35584SOL     OW10249   4.334   0.534   5.765 -0.7030 -0.1701 -0.2639
35584SOL    HW110250   4.265   0.590   5.801 -1.8823 -1.4044 -0.5077
35584SOL    HW210251   4.415   0.569   5.802 -1.3975  1.5978 -0.3191
35585SOL     OW10252   2.936  10.216   6.949  0.0421  0.1464  0.6742
35585SOL    HW110253   2.919  10.122   6.958 -2.1690  0.5161  0.8611
35585SOL    HW210254   2.941  10.231   6.855 -0.4415 -0.0381  0.6175
35586SOL     OW10255   9.140   4.013   5.876  0.0352 -0.1262 -0.3239
35586SOL    HW110256   9.182   4.057   5.951  1.7438 -0.3952 -1.0821
35586SOL    HW210257   9.186   4.047   5.800 -1.7311  0.2013 -1.3068
35587SOL     OW10258  10.835   0.652   7.136 -0.4869  0.1733  0.5572
35587SOL    HW110259  10.835   0.715   7.208 -1.3581 -0.4333  1.1145
35587SOL    HW210260  10.830   0.705   7.057  1.2976  0.8887  0.8732
35588SOL     OW10261   0.307   7.246  10.403  0.0320 -0.0699 -0.1229
35588SOL    HW110262   0.329   7.322  10.458 -0.3879 -0.2547  0.3108
35588SOL    HW210263   0.341   7.171  10.452  2.2858 -0.0478 -1.4985
35589SOL     OW10264  10.170   5.357   6.654 -0.6666 -0.4274  0.0752
35589SOL    HW110265  10.249   5.352   6.708 -0.6807  0.9943  0.2668
35589SOL    HW210266  10.112   5.292   6.692 -0.0158 -0.6737  0.6737
35590SOL     OW10267   6.619   2.814   8.923  0.1778 -0.2060  0.3866
35590SOL    HW110268   6.669   2.740   8.957  2.6451  0.9258 -0.5146
35590SOL    HW210269   6.684   2.868   8.879 -1.9353  1.3094 -1.0489
35591SOL     OW10270   4.651   4.297   0.405  0.4222  0.3150  0.3561
35591SOL    HW110271   4.590   4.331   0.339 -0.8192 -1.4529  0.5113
35591SOL    HW210272   4.723   4.259   0.354 -0.0634 -0.1937  0.0349
35592SOL     OW10273   9.273   8.982   3.479 -0.2320  0.1508 -0.9668
35592SOL    HW110274   9.190   8.942   3.454 -1.0700 -0.0698  1.8234
35592SOL    HW210275   9.339   8.923   3.444 -1.3730 -1.9893  0.2898
35593SOL     OW10276   0.337   5.320   3.097 -0.5105  0.2107 -0.5340
35593SOL    HW110277   0.296   5.244   3.055  0.5407 -1.7098  1.6997
35593SOL    HW210278   0.303   5.319   3.186 -0.0047  2.0588 -0.2890
35594SOL     OW10279   8.391   5.679   7.414  0.1181 -0.4657 -0.3137
35594SOL    HW110280   8.416   5.758   7.365  0.8613 -0.6237 -0.2105
35594SOL    HW210281   8.365   5.712   7.500  2.6043 -0.4611  0.5202
35595SOL     OW10282   8.226   5.385  10.888 -0.3823  0.5153  0.3591
35595SOL    HW110283   8.217   5.307  10.835 -0.1442 -0.1174  1.2306
35595SOL    HW210284   8.139   5.424  10.890 -0.3789  0.5877 -0.5373
35596SOL     OW10285   0.849   6.699   3.391 -0.6715 -0.3160 -0.5815
35596SOL    HW110286   0.903   6.749   3.452 -0.1692  1.0558 -2.0606
35596SOL    HW210287   0.792   6.765   3.351 -1.4437 -1.2822 -1.1273
35597SOL     OW10288   6.202   2.469   5.701  0.0956 -0.2535 -0.2521
35597SOL    HW110289   6.291   2.450   5.730  0.4842  0.3997 -0.9869
35597SOL    HW210290   6.149   2.465   5.782  0.6639 -1.2797  0.0894
35598SOL     OW10291   7.409   9.896   4.278  0.1649 -0.0131  0.1404
35598SOL    HW110292   7.433   9.988   4.275 -0.1025  0.0789  0.7101
35598SOL    HW210293   7.400   9.870   4.186 -1.9153  1.0910 -0.0080
35599SOL     OW10294   6.723   1.944  10.769 -0.1642 -0.3728 -0.3394
35599SOL    HW110295   6.774   2.022  10.791 -0.3756 -0.2920 -0.1259
35599SOL    HW210296   6.643   1.978  10.729 -0.6438 -0.4369  0.5417
35600SOL     OW10297   3.883   5.158   9.346 -0.3732 -0.5660 -0.5290
35600SOL    HW110298   3.831   5.134   9.269  0.5039 -3.5264 -0.3045
35600SOL    HW210299   3.822   5.209   9.401 -1.7001 -0.3447 -2.1142
35601SOL     OW10300   7.701   0.199   1.242 -0.5189 -0.2595  0.3519
35601SOL    HW110301   7.699   0.106   1.220 -1.9441  0.1784 -1.6824
35601SOL    HW210302   7.631   0.238   1.189  0.5172  2.0946  0.5707
35602SOL     OW10303   1.167   3.607   8.054 -0.3508 -0.4287  0.6951
35602SOL    HW110304   1.192   3.614   7.962 -0.9369  1.4179  0.6350
35602SOL    HW210305   1.072   3.593   8.052 -0.3781 -0.2834  1.0193
35603SOL     OW10306   8.230   5.765   4.299  0.0913  0.3325 -0.5243
35603SOL    HW110307   8.184   5.687   4.269 -0.0016  0.5806 -1.0378
35603SOL    HW210308   8.195   5.836   4.244  1.4494  0.4456 -1.2707
35604SOL     OW10309   5.486   5.570   9.922 -0.2916 -0.1377  1.0861
35604SOL    HW110310   5.570   5.587   9.965  0.7051  0.8715 -1.0934
35604SOL    HW210311   5.436   5.651   9.934  0.7151  0.9121 -1.0527
35605SOL     OW10312   0.288   3.736   6.697  0.3776  0.0692  0.0632
35605SOL    HW110313   0.276   3.830   6.681  3.6844  0.2965 -2.1154
35605SOL    HW210314   0.240   3.719   6.778 -0.7903  3.5082  0.2625
35606SOL     OW10315   5.805   2.218   9.086  0.2937  0.5970  0.1652
35606SOL    HW110316   5.758   2.270   9.151 -0.1000  1.6538 -0.9405
35606SOL    HW210317   5.760   2.236   9.004  1.0242 -0.4232 -0.4707
35607SOL     OW10318   3.705   2.968   2.595  0.0034  0.0327 -0.1755
35607SOL    HW110319   3.777   2.937   2.649 -0.3925 -0.0036  0.3403
35607SOL    HW210320   3.631   2.977   2.656  0.1474  2.1648 -0.2432
35608SOL     OW10321   4.501   0.082   7.168 -0.2387  0.6409 -1.1862
35608SOL    HW110322   4.437   0.117   7.107 -0.7819 -2.2735 -2.4207
35608SOL    HW210323   4.469   0.108   7.255 -2.8040 -0.2461 -1.8109
35609SOL     OW10324  10.172   7.858   4.641 -0.4721  0.2295  0.0120
35609SOL    HW110325  10.142   7.789   4.581 -2.3538  0.5140  0.5478
35609SOL    HW210326  10.129   7.838   4.724  0.0587  1.2698  0.5611
35610SOL     OW10327   5.562   5.287   7.529  0.0789  0.0180 -0.2911
35610SOL    HW110328   5.556   5.268   7.435  0.5079 -0.5955 -0.2027
35610SOL    HW210329   5.491   5.348   7.546 -0.2954 -0.2347 -0.9261
35611SOL     OW10330   0.448   4.932   2.247 -0.2868 -0.5262 -0.5492
35611SOL    HW110331   0.524   4.954   2.193  1.4695  0.5098  2.1382
35611SOL    HW210332   0.417   5.016   2.280 -1.0282 -1.1414  0.3759
35612SOL     OW10333   0.345   6.777   1.279  0.0559 -0.3143  0.3564
35612SOL    HW110334   0.426   6.775   1.229 -0.4605 -1.1880 -0.4952
35612SOL    HW210335   0.277   6.792   1.213 -0.4914  0.4113  1.0514
35613SOL     OW10336   7.158   0.802   8.297 -0.1228  0.3757  0.4539
35613SOL    HW110337   7.198   0.754   8.224 -1.0208 -0.0730  0.2480
35613SOL    HW210338   7.210   0.883   8.303  0.8736 -0.2284  0.2608
35614SOL     OW10339   6.867   0.133   3.157  0.2049  0.2219  0.4188
35614SOL    HW110340   6.807   0.114   3.085  0.2473  0.5859  0.2811
35614SOL    HW210341   6.855   0.061   3.219  0.0166  0.0145  0.1444
35615SOL     OW10342   5.996   7.143   9.697  0.2387 -0.5204 -0.4342
35615SOL    HW110343   5.915   7.106   9.732  1.2892 -0.4828  2.2780
35615SOL    HW210344   6.023   7.207   9.763  1.0726  1.4986 -2.6206
35616SOL     OW10345   9.810   1.594   1.562 -0.2408 -0.3201 -0.2319
35616SOL    HW110346   9.884   1.626   1.614  0.2717 -0.4205 -0.8905
35616SOL    HW210347   9.739   1.654   1.584  0.1295 -0.0103  0.1468
35617SOL     OW10348   8.602   6.489   0.405 -0.0673 -0.2432  0.0157
35617SOL    HW110349   8.592   6.482   0.310 -0.3042  1.3908 -0.1057
35617SOL    HW210350   8.569   6.406   0.439 -1.6601 -0.1652 -1.2235
35618SOL     OW10351   1.832   8.679   6.320  0.1876 -0.5539 -0.3264
35618SOL    HW110352   1.737   8.672   6.322  0.3016 -4.1997  2.5963
35618SOL    HW210353   1.851   8.730   6.241 -4.0801 -1.0980 -1.9412
35619SOL     OW10354   2.402   6.075   0.650  0.9548 -0.1001 -0.1557
35619SOL    HW110355   2.447   6.158   0.666 -0.3541  0.4245  0.9808
35619SOL    HW210356   2.448   6.011   0.705  0.3859  0.4183  0.9506
35620SOL     OW10357   7.649   4.130  10.284 -0.4100 -0.5165 -0.0480
35620SOL    HW110358   7.647   4.060  10.218  0.1073 -0.4325 -0.1542
35620SOL    HW210359   7.591   4.197  10.249 -1.9353 -1.4169  0.6512
35621SOL     OW10360   9.476   0.852   0.091 -0.4379  0.8719  1.4569
35621SOL    HW110361   9.552   0.910   0.107 -0.7384  1.5768  0.4010
35621SOL    HW210362   9.502   0.798   0.017 -0.5345  0.2935  1.8358
35622SOL     OW10363   4.850   6.186   6.440 -0.1761 -0.2414  0.4176
35622SOL    HW110364   4.762   6.152   6.453  0.0121 -0.4387  1.2190
35622SOL    HW210365   4.867   6.174   6.346 -0.8123 -0.6412  0.3478
35623SOL     OW10366   6.038   0.749   9.548  0.1232  0.3374  0.3910
35623SOL    HW110367   5.994   0.827   9.581  1.7181  0.9270  1.2143
35623SOL    HW210368   6.119   0.744   9.598  0.5819 -1.2269 -0.4353
35624SOL     OW10369   9.433   0.159   9.486  0.2005 -0.2587 -0.5822
35624SOL    HW110370   9.368   0.107   9.440 -1.3854 -0.3088  1.5732
35624SOL    HW210371   9.472   0.098   9.549 -0.6441  0.7565  0.9714
35625SOL     OW10372  10.561   0.608   7.128  0.0527  0.2126  0.5365
35625SOL    HW110373  10.641   0.621   7.180 -1.4969  1.2072  2.8859
35625SOL    HW210374  10.588   0.622   7.038  2.6797 -0.3335  1.1459
35626SOL     OW10375   9.138   5.880  10.739  0.1277 -0.5193 -0.1095
35626SOL    HW110376   9.129   5.792  10.702  1.3437 -0.2166 -1.1899
35626SOL    HW210377   9.201   5.869  10.811  1.0889 -0.3701 -0.9108
35627SOL     OW10378   2.084   3.949  10.510  0.1453  0.4571 -0.2118
35627SOL    HW110379   2.016   3.921  10.571  0.1322 -1.7117 -1.1514
35627SOL    HW210380   2.166   3.921  10.550  0.1995 -0.2056 -0.7672
35628SOL     OW10381   7.511   3.150   4.102 -0.7975 -0.7586 -0.2630
35628SOL    HW110382   7.598   3.177   4.132 -0.3662 -2.9757  0.6849
35628SOL    HW210383   7.452   3.181   4.171 -0.6626 -0.1082 -0.4266
35629SOL     OW10384   2.965   9.141   5.597 -0.0309  0.3199  0.3013
35629SOL    HW110385   2.930   9.163   5.511  1.6725 -0.7384 -0.7290
35629SOL    HW210386   3.036   9.203   5.612 -0.6059  0.7917  1.1717
35630SOL     OW10387  10.946   7.100   1.572 -0.0970 -0.2373 -0.0306
35630SOL    HW110388  10.998   7.179   1.556  0.7841 -0.3935  1.7665
35630SOL    HW210389  10.898   7.086   1.491  1.3789  0.9017 -1.1641
35631SOL     OW10390   0.348   8.474   2.928  0.0112  0.3324 -0.6452
35631SOL    HW110391   0.273   8.415   2.942 -1.6662  2.7334  1.3161
35631SOL    HW210392   0.385   8.487   3.015  1.1299  1.1753 -1.2217
35632SOL     OW10393   5.065   8.866   0.662 -0.7711  0.7155  0.0781
35632SOL    HW110394   4.978   8.835   0.638  0.1051 -1.5852 -0.3666
35632SOL    HW210395   5.075   8.841   0.754 -0.5155  0.8598  0.0901
35633SOL     OW10396   8.100   9.581   4.048 -0.3128 -0.5107  0.0494
35633SOL    HW110397   8.147   9.582   4.132 -0.4027 -0.5026  0.0991
35633SOL    HW210398   8.059   9.667   4.042 -0.1693 -0.4505 -0.0806
35634SOL     OW10399   9.077   8.250   3.961 -0.3470  0.1087  0.0999
35634SOL    HW110400   9.030   8.331   3.979 -2.6190 -0.3729 -2.8200
35634SOL    HW210401   9.151   8.276   3.907 -0.5534  0.3269 -0.0790
35635SOL     OW10402   2.889   4.538  10.646  0.0753 -0.1050 -0.8038
35635SOL    HW110403   2.847   4.572  10.725 -0.2810 -1.9059 -0.1632
35635SOL    HW210404   2.966   4.593  10.634 -1.3732  2.0312 -0.8831
35636SOL     OW10405   0.154   3.754  10.736 -0.3118 -0.9662  0.6564
35636SOL    HW110406   0.133   3.832  10.788  0.2769 -1.7049  2.0638
35636SOL    HW210407   0.194   3.788  10.656 -2.9718  0.2924 -0.2462
35637SOL     OW10408   8.443   5.189   5.135  0.5744  0.3723 -0.1960
35637SOL    HW110409   8.352   5.184   5.161  0.6775  0.9412  0.2731
35637SOL    HW210410   8.450   5.270   5.084 -0.0050 -1.4913 -3.5457
35638SOL     OW10411  10.943   5.687   2.640 -0.2715 -0.0674  0.3331
35638SOL    HW110412  10.849   5.670   2.632 -0.1911  0.1939 -1.9776
35638SOL    HW210413  10.951   5.782   2.631  0.1747  0.0106  1.4105
35639SOL     OW10414   4.517   4.510   9.852  0.0080  0.0126 -0.6764
35639SOL    HW110415   4.491   4.443   9.916  1.4131 -0.6077 -0.7240
35639SOL    HW210416   4.526   4.461   9.770  2.3959 -0.0718 -0.4401
35640SOL     OW10417   2.501   5.455   6.588  0.0634 -0.2213 -0.7022
35640SOL    HW110418   2.524   5.374   6.542  0.0250 -0.3159 -0.5528
35640SOL    HW210419   2.488   5.519   6.517  1.7126  0.0889 -0.7681
35641SOL     OW10420   6.453   4.582   7.884  0.0577  0.3725 -0.2249
35641SOL    HW110421   6.397   4.513   7.848 -1.3983  0.7240  1.2571
35641SOL    HW210422   6.531   4.580   7.829 -1.5588  0.1434 -2.6728
35642SOL     OW10423  10.038   6.439   7.372  0.5601 -0.3230  0.6667
35642SOL    HW110424   9.955   6.455   7.327  1.7594  1.8361 -0.9764
35642SOL    HW210425  10.027   6.481   7.457  0.1888  0.6152  0.1755
35643SOL     OW10426   7.281   0.341   9.181 -0.5188  0.1145 -0.6746
35643SOL    HW110427   7.352   0.397   9.151 -0.3096 -0.8688 -2.1637
35643SOL    HW210428   7.244   0.386   9.257  1.6384  0.6790  0.1005
35644SOL     OW10429   2.472   6.305   2.338  0.0339  0.5162  0.5535
35644SOL    HW110430   2.511   6.385   2.373 -1.4138  1.4742  0.0787
35644SOL    HW210431   2.378   6.324   2.334 -0.2765 -1.0115 -0.0930
35645SOL     OW10432   3.133   6.534   1.068 -0.1730 -0.1990 -0.3826
35645SOL    HW110433   3.093   6.603   1.015 -1.0054  0.3547  0.9066
35645SOL    HW210434   3.227   6.549   1.060 -0.3489  1.5735  0.4340
35646SOL     OW10435   9.775   3.585   5.276  0.4327 -0.7915  0.2079
35646SOL    HW110436   9.806   3.555   5.190  1.4438 -0.3184  0.3934
35646SOL    HW210437   9.851   3.574   5.334 -0.3194 -1.3447  1.1052
35647SOL     OW10438   3.676   0.137   6.469  0.1119  0.3391 -0.0412
35647SOL    HW110439   3.648   0.066   6.410  0.1939 -0.8355  1.2823
35647SOL    HW210440   3.746   0.181   6.421  0.2277 -0.6373 -0.8149
35648SOL     OW10441   9.473   2.000   8.811  0.2373  0.4448 -0.0810
35648SOL    HW110442   9.400   2.058   8.833  1.3150  1.4911  0.8078
35648SOL    HW210443   9.529   2.051   8.753  1.1634  0.2918  0.6512
35649SOL     OW10444   9.989   2.177   8.102 -0.3590  0.4802  0.3761
35649SOL    HW110445   9.937   2.247   8.141 -2.3268 -0.3415 -0.6359
35649SOL    HW210446   9.985   2.194   8.008 -1.6363 -1.4366  0.0361
35650SOL     OW10447   6.751   3.390   0.042  0.2406 -0.0091 -0.0141
35650SOL    HW110448   6.811   3.463   0.023 -1.0022  1.0456 -0.0252
35650SOL    HW210449   6.809   3.315   0.055  1.7633  1.3930  2.2024
35651SOL     OW10450   8.614  10.224   1.386  0.1024  0.5117  0.2443
35651SOL    HW110451   8.559  10.147   1.394 -1.0820  1.3649  0.5266
35651SOL    HW210452   8.555  10.298   1.399  0.5958  1.6249 -2.9328
35652SOL     OW10453   8.157   3.425   0.986  0.2206 -0.0938  0.3751
35652SOL    HW110454   8.146   3.399   1.077 -1.6160 -1.6202 -0.2306
35652SOL    HW210455   8.084   3.485   0.970  0.5217  0.1440 -0.1213
35653SOL     OW10456   7.937   6.479  10.111 -0.7285  0.0131 -0.0955
35653SOL    HW110457   7.884   6.403  10.139 -1.1466 -0.0179 -0.9374
35653SOL    HW210458   7.900   6.503  10.026  1.8798 -1.2711 -1.7224
35654SOL     OW10459   0.681   1.241   2.768  0.5248  0.0913 -0.2008
35654SOL    HW110460   0.712   1.275   2.684  0.2593 -0.4598 -0.5336
35654SOL    HW210461   0.726   1.293   2.834  0.5977  0.6553 -0.6880
35655SOL     OW10462   5.772  10.031   6.587  0.4405  0.1247 -0.0426
35655SOL    HW110463   5.695  10.045   6.643  1.7413  0.2785  1.8120
35655SOL    HW210464   5.846  10.038   6.647  2.0068  1.3617 -2.0037
35656SOL     OW10465   9.657   3.751   2.422  0.1292  0.3464  0.1507
35656SOL    HW110466   9.700   3.746   2.336 -0.1481  1.6873 -0.0960
35656SOL    HW210467   9.724   3.725   2.484  0.5728  0.1091 -0.4139
35657SOL     OW10468   1.621   3.919   6.905  0.1865 -0.1892 -0.0641
35657SOL    HW110469   1.537   3.887   6.938  0.3044 -0.3330  0.0903
35657SOL    HW210470   1.631   4.005   6.946 -0.0815  0.0073 -0.4025
35658SOL     OW10471   3.862   5.490   4.730  0.0637 -0.6173 -0.6088
35658SOL    HW110472   3.814   5.412   4.758  0.0224  0.1402  1.6252
35658SOL    HW210473   3.950   5.479   4.767 -0.5131  1.2569  1.5084
35659SOL     OW10474   2.487   8.240   9.336 -0.2101 -0.3049 -0.3348
35659SOL    HW110475   2.448   8.161   9.297  0.9606 -0.7887 -0.5517
35659SOL    HW210476   2.425   8.310   9.313 -0.5659 -0.9215 -1.3354
35660SOL     OW10477   6.459   9.596   6.992 -0.1945  0.1544 -0.3599
35660SOL    HW110478   6.521   9.666   6.972 -0.0371  1.0849  2.8359
35660SOL    HW210479   6.512   9.516   6.989  0.7480  0.7278  0.5182
35661SOL     OW10480   6.124   8.761  10.253  0.9531  0.1558  0.0758
35661SOL    HW110481   6.116   8.776  10.347 -0.3831 -0.4316  0.0831
35661SOL    HW210482   6.045   8.713  10.230  1.6157 -0.3698 -1.2225
35662SOL     OW10483   3.685   2.984   5.288 -0.6124  0.5527  0.3171
35662SOL    HW110484   3.680   3.026   5.202  1.5102 -0.7895 -0.5411
35662SOL    HW210485   3.747   3.038   5.338  1.2454 -0.8057 -0.4088
35663SOL     OW10486   2.137   0.820   6.180  0.1782  0.6677  0.0588
35663SOL    HW110487   2.131   0.833   6.275  0.8278 -0.6141  0.2973
35663SOL    HW210488   2.225   0.786   6.166  0.7323  2.5243 -1.2348
35664SOL     OW10489   9.348   4.821   4.077 -0.0954 -0.1538 -0.3590
35664SOL    HW110490   9.276   4.853   4.022  0.2311 -2.1692 -2.1331
35664SOL    HW210491   9.426   4.834   4.023  0.4853 -0.5050  0.3865
35665SOL     OW10492   7.850   3.100   0.199 -0.1864  0.2422  0.4874
35665SOL    HW110493   7.893   3.023   0.236 -1.3408  0.3435  2.1531
35665SOL    HW210494   7.761   3.071   0.180 -1.0740  1.4596  2.4375
35666SOL     OW10495   6.986   2.759  10.075  0.2600 -0.5153 -0.1403
35666SOL    HW110496   7.059   2.707  10.043  1.8313  0.4568  1.6299
35666SOL    HW210497   6.946   2.704  10.144 -0.9340 -1.1703 -1.3042
35667SOL     OW10498   8.037   2.994   9.383 -0.3394  0.5528  0.0513
35667SOL    HW110499   8.000   3.077   9.413 -0.6282  0.5670 -0.3352
35667SOL    HW210500   8.108   3.018   9.324  0.1012  0.5239  0.5623
35668SOL     OW10501   4.137   9.920   9.834 -0.3943  0.0426 -0.2128
35668SOL    HW110502   4.117   9.924   9.741 -1.2098 -0.7284 -0.0849
35668SOL    HW210503   4.160   9.828   9.850  0.8938  0.3999  0.1295
35669SOL     OW10504   0.989   1.590   2.595 -0.1079 -0.5670  0.5444
35669SOL    HW110505   1.072   1.592   2.643 -0.0454  0.7273  0.4001
35669SOL    HW210506   0.952   1.504   2.617  1.1431 -1.0717  0.8031
35670SOL     OW10507   0.696   2.622   2.650  0.4248  0.3616 -0.4164
35670SOL    HW110508   0.759   2.684   2.685 -0.5615  1.0338  0.2344
35670SOL    HW210509   0.628   2.677   2.611  0.2292 -0.3423 -1.0879
35671SOL     OW10510   7.706   7.857   0.403 -0.4692 -0.1649 -0.4849
35671SOL    HW110511   7.731   7.790   0.467  0.3880  0.1123 -0.5183
35671SOL    HW210512   7.776   7.857   0.338 -0.1024  1.2052 -0.1310
35672SOL     OW10513   1.345   3.897   9.870 -1.3804  0.7082 -0.1061
35672SOL    HW110514   1.407   3.966   9.849  0.6736 -0.6166  1.2035
35672SOL    HW210515   1.300   3.928   9.948 -0.7490  0.7679  0.2458
35673SOL     OW10516   3.536   6.694   1.834  0.8165 -0.4794 -0.2666
35673SOL    HW110517   3.590   6.645   1.771  0.0290 -1.4519 -0.2145
35673SOL    HW210518   3.566   6.784   1.826  1.2040 -0.6984 -1.5479
35674SOL     OW10519   9.986   5.986   9.789  0.3076 -0.0915  0.7452
35674SOL    HW110520   9.951   5.963   9.875  0.9048  0.0191  1.0213
35674SOL    HW210521   9.909   5.989   9.732 -0.3447  1.6301  1.6455
35675SOL     OW10522   6.341   0.161   5.558 -0.4431  0.0142  0.8953
35675SOL    HW110523   6.260   0.194   5.519  0.3180  1.8312  0.7575
35675SOL    HW210524   6.343   0.198   5.646  0.5681  0.5900  0.6501
35676SOL     OW10525   6.073  10.731   3.038 -0.7389 -0.5524  0.5751
35676SOL    HW110526   5.980  10.708   3.035 -0.4594 -1.7737  0.7575
35676SOL    HW210527   6.110  10.691   2.959 -0.1146 -1.2966  1.2289
35677SOL     OW10528   7.333   2.178   5.368 -0.1440 -0.2395  0.0108
35677SOL    HW110529   7.259   2.118   5.376 -0.3406  0.0341  0.2593
35677SOL    HW210530   7.309   2.253   5.422  0.6141 -0.4468  0.6527
35678SOL     OW10531   0.985   9.987   6.289 -0.2915 -0.4260  0.4474
35678SOL    HW110532   1.032   9.993   6.206  1.7771 -0.2246  1.5554
35678SOL    HW210533   0.893   9.991   6.265  0.1733 -2.2083 -1.9687
35679SOL     OW10534   6.683   5.096   3.284  0.3508 -0.1083  0.2139
35679SOL    HW110535   6.677   5.137   3.370 -2.1884  0.7646 -0.3012
35679SOL    HW210536   6.679   5.002   3.301  3.4971 -0.1926  1.2058
35680SOL     OW10537   3.231   1.804   8.778 -0.6823  0.0256 -0.1719
35680SOL    HW110538   3.214   1.851   8.859  1.4952 -0.1933  0.4652
35680SOL    HW210539   3.221   1.711   8.801  1.6337 -0.1556  0.3900
35681SOL     OW10540   8.830   1.254   2.680  0.0604 -0.1487  0.8398
35681SOL    HW110541   8.780   1.275   2.601  2.0373  1.9675  0.0304
35681SOL    HW210542   8.771   1.276   2.752 -0.4561  1.7345 -0.0711
35682SOL     OW10543   8.423   7.195   5.888  0.0518  0.1467  0.3972
35682SOL    HW110544   8.434   7.290   5.881 -0.2835  0.0767 -3.1598
35682SOL    HW210545   8.512   7.162   5.901  0.2273  0.8934  1.1964
35683SOL     OW10546   1.807   0.436   3.163 -0.0688 -0.2574 -0.0551
35683SOL    HW110547   1.803   0.419   3.257 -0.2640  1.3085  0.2550
35683SOL    HW210548   1.899   0.423   3.140  0.1351  0.1367  0.5183
35684SOL     OW10549   1.421   8.171   2.308 -0.2634 -0.5897 -0.1966
35684SOL    HW110550   1.422   8.262   2.337  0.5712 -0.7980  0.4459
35684SOL    HW210551   1.340   8.136   2.345 -0.6680 -0.0826 -0.5725
35685SOL     OW10552   8.258   6.961   7.534  0.0999  0.6733  0.1952
35685SOL    HW110553   8.213   6.901   7.594 -0.8968  2.1892  1.0343
35685SOL    HW210554   8.193   6.983   7.468  0.1407  1.5005  0.4114
35686SOL     OW10555   2.414   2.128   2.227  0.8788 -0.2902 -0.1957
35686SOL    HW110556   2.375   2.176   2.155  0.4139  0.8998  0.8237
35686SOL    HW210557   2.340   2.103   2.282  1.4352  1.6659  1.5603
35687SOL     OW10558   5.196   1.613   9.537  0.3401 -1.0037 -0.0111
35687SOL    HW110559   5.210   1.671   9.462  1.1038 -0.1622  0.7492
35687SOL    HW210560   5.170   1.530   9.499  0.4649 -0.5165 -1.1987
35688SOL     OW10561   2.031   3.632   8.932 -0.1618 -0.2065  0.0163
35688SOL    HW110562   2.036   3.707   8.991  1.9686 -1.2148  1.2714
35688SOL    HW210563   2.074   3.661   8.852  1.2950 -0.2232  0.7477
35689SOL     OW10564   8.143   6.097   5.733 -0.3435 -0.3900  0.8166
35689SOL    HW110565   8.183   6.156   5.668 -2.0635 -0.8281 -0.7208
35689SOL    HW210566   8.217   6.050   5.770  0.7661  0.2555 -0.4695
35690SOL     OW10567   5.758   4.914   0.586 -0.2011  0.2194  0.1582
35690SOL    HW110568   5.817   4.908   0.661  0.1266 -0.1300 -0.1232
35690SOL    HW210569   5.719   5.001   0.593 -1.2076 -0.2947  1.5068
35691SOL     OW10570   0.254   9.820   7.491 -0.4317  0.2033  0.0610
35691SOL    HW110571   0.252   9.727   7.466 -0.8180  0.4935 -1.0430
35691SOL    HW210572   0.337   9.852   7.457 -0.7432  0.4910 -0.4376
35692SOL     OW10573   0.356   8.683   9.094 -0.9853 -0.6405  0.1885
35692SOL    HW110574   0.379   8.747   9.161 -0.3560 -0.0987 -0.5200
35692SOL    HW210575   0.340   8.735   9.015 -1.0438 -1.3107 -0.2554
35693SOL     OW10576   4.781   9.471   5.202 -0.0795 -0.2133  0.3164
35693SOL    HW110577   4.811   9.383   5.225 -1.1078 -0.6774 -0.0550
35693SOL    HW210578   4.794   9.478   5.108 -0.5991 -0.2112  0.2415
35694SOL     OW10579  10.118   1.106   7.806 -0.1929  0.2266  0.3195
35694SOL    HW110580  10.023   1.104   7.818 -0.0177 -0.3180  1.7396
35694SOL    HW210581  10.130   1.152   7.723 -1.7245 -0.3023 -0.2338
35695SOL     OW10582   3.568   4.918   6.522  0.2183  0.3037 -0.0837
35695SOL    HW110583   3.494   4.861   6.545  1.4208 -1.8049 -1.1984
35695SOL    HW210584   3.529   5.005   6.515 -2.0784 -0.6548 -0.1899
35696SOL     OW10585   3.467   5.441   1.600 -0.4494 -0.1862 -0.3130
35696SOL    HW110586   3.380   5.422   1.636 -0.8421 -0.6075 -1.4066
35696SOL    HW210587   3.512   5.356   1.603  0.9096  0.5298  2.6424
35697SOL     OW10588   7.775   5.822   1.119  0.0743 -0.1270 -0.7570
35697SOL    HW110589   7.733   5.907   1.132 -0.0886 -0.2030 -0.7755
35697SOL    HW210590   7.768   5.779   1.204 -1.1587 -0.7003 -1.1256
35698SOL     OW10591   3.235   2.702   5.135 -0.1736  0.4467 -0.2924
35698SOL    HW110592   3.249   2.764   5.206  0.1478 -0.6984  0.6776
35698SOL    HW210593   3.322   2.672   5.111 -0.2655  0.9606 -1.3192
35699SOL     OW10594   9.622   2.136   8.078  0.2207  0.0194 -0.1186
35699SOL    HW110595   9.558   2.135   8.149  1.2766  0.5266  0.8730
35699SOL    HW210596   9.668   2.053   8.085 -1.3062 -1.0683 -1.8227
35700SOL     OW10597   0.936   5.424   8.750 -0.0639 -0.2493 -0.1187
35700SOL    HW110598   1.003   5.382   8.695  0.7654  0.2111  0.5023
35700SOL    HW210599   0.917   5.360   8.819  1.1236  0.3060  0.7672
35701SOL     OW10600   1.020   7.906   5.757 -0.3417 -0.1462  0.0723
35701SOL    HW110601   0.984   7.958   5.829 -0.1158 -0.9713  0.8102
35701SOL    HW210602   1.085   7.850   5.799  0.3354 -0.1184 -0.9097
35702SOL     OW10603   8.101   8.280   1.775  0.0513 -0.1542  0.0439
35702SOL    HW110604   8.142   8.321   1.699 -1.6005 -0.6289 -1.1631
35702SOL    HW210605   8.076   8.354   1.831  0.7987  0.2259 -0.1105
35703SOL     OW10606  10.120   1.987   8.479 -0.1859 -0.3452 -0.4443
35703SOL    HW110607  10.081   2.074   8.490  1.6437  0.4762  0.0062
35703SOL    HW210608  10.133   1.978   8.385 -1.9990 -0.9207 -0.6732
35704SOL     OW10609   5.994   7.718   6.124  0.3968 -0.0296  0.4156
35704SOL    HW110610   6.043   7.722   6.042 -1.8541  0.0274 -0.9938
35704SOL    HW210611   6.035   7.647   6.173  0.2005 -1.8111 -1.8658
35705SOL     OW10612   7.261   3.173   8.207  0.0763  0.0779  0.5061
35705SOL    HW110613   7.202   3.107   8.171 -1.4040 -0.0783  3.0066
35705SOL    HW210614   7.293   3.220   8.131 -2.0015 -0.9009 -1.0719
35706SOL     OW10615   9.645   5.172  10.345  0.1690  0.2901 -0.8134
35706SOL    HW110616   9.691   5.255  10.332  2.1338 -0.8227 -1.4721
35706SOL    HW210617   9.706   5.106  10.311 -2.6480 -1.2103 -3.4133
35707SOL     OW10618   2.658   4.736   5.886  0.4628  0.3466 -0.0752
35707SOL    HW110619   2.720   4.695   5.826  0.2083  0.4784 -0.4342
35707SOL    HW210620   2.698   4.726   5.972  0.5422 -0.3984 -0.1860
35708SOL     OW10621   9.443   2.844  10.434 -0.1692 -0.1185 -0.1649
35708SOL    HW110622   9.465   2.759  10.473  2.3568  0.0898 -0.9582
35708SOL    HW210623   9.402   2.893  10.506  1.9285 -0.6597  1.5157
35709SOL     OW10624   4.055   5.503   6.697 -0.3353 -0.0582  0.1974
35709SOL    HW110625   4.028   5.438   6.762  0.5722  0.0673  0.7163
35709SOL    HW210626   4.021   5.469   6.614 -0.0665 -1.0858  0.4946
35710SOL     OW10627   0.937   8.461   1.059  0.1358 -0.3835  0.4926
35710SOL    HW110628   0.861   8.450   1.001 -0.9575  0.9922  1.5881
35710SOL    HW210629   1.012   8.457   1.000 -0.4575 -4.6563 -0.3148
35711SOL     OW10630   1.621   2.626   1.565  0.0618 -0.1276 -0.9938
35711SOL    HW110631   1.704   2.631   1.612 -0.5471  1.9176 -0.0033
35711SOL    HW210632   1.614   2.710   1.520 -1.7601  0.0466 -0.4851
35712SOL     OW10633   8.480  10.792   1.162 -0.6212  0.0073 -0.2124
35712SOL    HW110634   8.415  10.858   1.187 -1.2436 -0.2772 -1.0453
35712SOL    HW210635   8.529  10.832   1.091 -0.1796  0.0413  0.1067
35713SOL     OW10636   5.159   2.195   6.351  0.2062  0.0688  0.1788
35713SOL    HW110637   5.244   2.228   6.381  0.7582  1.8276 -2.9121
35713SOL    HW210638   5.108   2.273   6.331 -0.8548 -0.9484 -1.3098
35714SOL     OW10639   8.990   7.929   4.694 -0.6621  0.5129  0.6928
35714SOL    HW110640   8.913   7.951   4.641 -1.2044  1.0656  1.6738
35714SOL    HW210641   8.963   7.948   4.784  0.3719 -0.0218  1.1308
35715SOL     OW10642   0.712   4.476   3.945 -0.2014 -0.2530 -0.3680
35715SOL    HW110643   0.672   4.498   3.861  1.6413 -1.0087 -1.5293
35715SOL    HW210644   0.678   4.389   3.965 -0.9426  0.0879 -0.1256
35716SOL     OW10645   4.360   8.546   0.232 -0.3918 -0.1154  0.0566
35716SOL    HW110646   4.362   8.544   0.136  1.7946 -2.1459  0.0327
35716SOL    HW210647   4.305   8.471   0.256  0.1700 -0.4506  0.3373
35717SOL     OW10648   8.528   3.238   3.449  0.2560 -0.0442  0.2167
35717SOL    HW110649   8.617   3.211   3.470 -0.2185 -1.5540  0.3613
35717SOL    HW210650   8.476   3.158   3.453 -1.4305  1.0378  1.8100
35718SOL     OW10651   0.380   2.896   7.226  0.3517  0.1820 -0.2943
35718SOL    HW110652   0.303   2.857   7.267  0.7568  0.0378  0.3354
35718SOL    HW210653   0.441   2.823   7.214  1.0793  0.5806  0.8152
35719SOL     OW10654   3.660   3.773   2.162  0.1177 -0.3228  0.1905
35719SOL    HW110655   3.751   3.792   2.141 -0.4822  2.0562 -0.5702
35719SOL    HW210656   3.631   3.849   2.213 -1.5325 -0.8993  0.1636
35720SOL     OW10657   9.649   7.034   3.735 -0.6991 -0.1415 -0.1513
35720SOL    HW110658   9.716   7.102   3.727 -1.1638  0.4221  0.6041
35720SOL    HW210659   9.692   6.965   3.786  0.3999 -1.2851 -2.4862
35721SOL     OW10660   2.937   1.595   3.577  0.6104 -0.3690 -0.5212
35721SOL    HW110661   2.959   1.674   3.528 -1.1131  1.3621  1.3191
35721SOL    HW210662   2.861   1.619   3.630 -0.9552 -3.7210 -0.9584
35722SOL     OW10663   0.595   4.408   2.789 -0.7526  0.3709 -0.8061
35722SOL    HW110664   0.676   4.449   2.761 -1.3547  1.4144 -1.0815
35722SOL    HW210665   0.622   4.325   2.829  0.3720  0.3355 -1.5952
35723SOL     OW10666   3.228   3.755   9.637 -0.2063 -0.2390 -0.0218
35723SOL    HW110667   3.242   3.667   9.673  1.8440  0.5262  1.1744
35723SOL    HW210668   3.175   3.800   9.702 -1.2256 -0.5254 -0.6187
35724SOL     OW10669   0.894   8.602   4.284  0.2494  0.5010  0.1413
35724SOL    HW110670   0.925   8.535   4.223 -1.1870  0.9633 -1.1631
35724SOL    HW210671   0.912   8.566   4.370  3.2744  0.2586 -0.4810
35725SOL     OW10672   1.481   6.105   1.198 -0.3178  0.3685  1.1373
35725SOL    HW110673   1.545   6.121   1.268 -0.0369  1.1967  0.7001
35725SOL    HW210674   1.425   6.183   1.198 -1.4147 -0.3945  1.5844
35726SOL     OW10675   9.747   5.013   0.272  0.7327  0.0988  0.4688
35726SOL    HW110676   9.708   5.072   0.337  0.7873 -1.3736  1.9167
35726SOL    HW210677   9.841   5.020   0.288  1.1343  2.8450 -2.3096
35727SOL     OW10678   8.179   3.065  10.866  0.8718 -0.3529  0.4662
35727SOL    HW110679   8.122   3.141  10.858 -0.3431 -1.2907 -0.1918
35727SOL    HW210680   8.175   3.042  10.959  0.7151 -0.0108  0.5456
35728SOL     OW10681   4.133   3.597   4.027  0.3357  0.3367  0.1302
35728SOL    HW110682   4.133   3.627   3.936 -2.7760  2.7559  0.7603
35728SOL    HW210683   4.069   3.527   4.030 -0.9975  1.5394  0.7327
35729SOL     OW10684   3.530  10.950   1.041  0.3470 -0.2430  0.0228
35729SOL    HW110685   3.488  11.035   1.056 -0.0476 -0.2405 -0.9837
35729SOL    HW210686   3.537  10.911   1.128  1.3773  1.1929  0.6191
35730SOL     OW10687   9.670  10.768   9.195  0.4457 -0.2280  0.1276
35730SOL    HW110688   9.600  10.831   9.179  1.2237  0.3568 -1.0697
35730SOL    HW210689   9.724  10.809   9.264 -0.6969 -0.9683  1.5265
35731SOL     OW10690  10.818   0.529   5.922 -0.2739 -0.0325 -0.2183
35731SOL    HW110691  10.766   0.449   5.916  1.6318 -1.3288 -0.3381
35731SOL    HW210692  10.761   0.598   5.886 -2.0779 -1.2459  0.2147
35732SOL     OW10693   1.270   5.058   4.408 -0.0333  0.1456 -0.4119
35732SOL    HW110694   1.192   5.007   4.389  0.0839  0.0117 -0.5265
35732SOL    HW210695   1.343   5.007   4.373  0.4314 -1.1559  2.1885
35733SOL     OW10696   5.078   8.653   1.861  0.9136 -0.0805 -0.5549
35733SOL    HW110697   5.087   8.582   1.797  0.2434 -1.4884  0.8530
35733SOL    HW210698   5.034   8.612   1.936  2.5554  1.2642  1.2153
35734SOL     OW10699  10.132   2.328  10.765 -0.3370  0.0680 -0.2067
35734SOL    HW110700  10.110   2.314  10.857  0.1539 -0.2296 -0.1321
35734SOL    HW210701  10.192   2.257  10.744 -1.2608 -0.4774 -1.0452
35735SOL     OW10702   2.104   5.539   1.553  0.2396 -0.2773  0.0350
35735SOL    HW110703   2.065   5.583   1.629  0.7484 -2.6111  1.7638
35735SOL    HW210704   2.197   5.559   1.559  0.7814 -2.8322  1.9009
35736SOL     OW10705  10.233   5.458   1.754  0.2495  0.7134  0.2524
35736SOL    HW110706  10.263   5.391   1.815  0.5468  1.1887  0.6439
35736SOL    HW210707  10.303   5.467   1.690 -0.6091 -0.6967 -0.9421
35737SOL     OW10708   8.915  10.208   4.978  0.9718 -0.2474 -0.8701
35737SOL    HW110709   8.926  10.126   5.026 -0.4936 -0.6947 -1.2447
35737SOL    HW210710   8.841  10.192   4.920 -0.9693  2.0784  0.7373
35738SOL     OW10711   4.014   2.821   4.746  0.0539  0.0200 -0.2418
35738SOL    HW110712   3.965   2.806   4.666 -0.5691  0.8776 -0.0314
35738SOL    HW210713   3.953   2.864   4.805  1.2023  1.7072 -0.1949
35739SOL     OW10714   3.964  10.110   9.376  0.2459  0.0038  0.2149
35739SOL    HW110715   3.955  10.053   9.300 -1.6713  0.4079  0.0803
35739SOL    HW210716   3.919  10.064   9.446 -1.3121  1.2890  0.1079
35740SOL     OW10717   5.221   6.974   6.909 -0.0374 -0.2119  0.7875
35740SOL    HW110718   5.232   6.903   6.972 -0.8458 -0.6772  0.4100
35740SOL    HW210719   5.224   6.931   6.824  1.8790  0.5113  0.4404
35741SOL     OW10720   4.519  10.021   0.425 -0.1088  0.8069 -0.3033
35741SOL    HW110721   4.439   9.968   0.430  0.5112 -0.0274  1.9787
35741SOL    HW210722   4.532  10.036   0.331 -1.9615 -0.5345 -0.8340
35742SOL     OW10723   1.214  10.477   4.802 -0.3331  0.3471  0.5332
35742SOL    HW110724   1.296  10.428   4.791 -0.8972 -0.4274 -0.3961
35742SOL    HW210725   1.158  10.447   4.730 -2.0180 -0.3579  2.0582
35743SOL     OW10726  10.801   2.206  10.508  0.7589  0.4059 -0.3750
35743SOL    HW110727  10.832   2.293  10.481 -0.7184  1.3953  0.9775
35743SOL    HW210728  10.828   2.199  10.599 -1.0831  0.4067  0.1896
35744SOL     OW10729   3.963  10.096   1.368  0.0846 -0.4121 -0.1171
35744SOL    HW110730   3.916  10.101   1.452  0.2887 -0.3809 -0.0049
35744SOL    HW210731   3.902  10.136   1.305  0.0975 -0.0571  0.0884
35745SOL     OW10732   4.808   3.056   3.609 -0.1856 -0.5682  0.7168
35745SOL    HW110733   4.739   3.046   3.543 -0.2922 -0.5014  0.8179
35745SOL    HW210734   4.764   3.037   3.692 -0.3888  0.7131  0.9176
35746SOL     OW10735   1.757   6.857   9.608 -0.1327 -0.2602  0.2202
35746SOL    HW110736   1.811   6.783   9.637  0.1362  0.9165  3.0818
35746SOL    HW210737   1.819   6.928   9.593 -0.5444 -0.0837 -0.6720
35747SOL     OW10738   4.439   4.057   7.357 -0.0484  0.1765 -0.3092
35747SOL    HW110739   4.482   4.073   7.441  1.6551 -0.7747 -0.9569
35747SOL    HW210740   4.406   4.142   7.330 -0.2523  0.5741  1.1113
35748SOL     OW10741   3.867   3.047   5.537  0.3853 -0.2991  0.3477
35748SOL    HW110742   3.902   3.099   5.609  0.9223 -1.8552  1.2580
35748SOL    HW210743   3.860   2.958   5.572  0.0586 -0.9770 -1.3196
35749SOL     OW10744   6.205  10.645   6.942  0.2896 -0.3912  0.0904
35749SOL    HW110745   6.222  10.701   6.866  0.5282  1.1440  1.2160
35749SOL    HW210746   6.273  10.578   6.940  0.7947  0.1405 -0.5829
35750SOL     OW10747   7.034   8.559   2.979  0.0695 -0.3360 -0.0736
35750SOL    HW110748   7.124   8.588   2.992 -0.2429  0.8458 -0.4059
35750SOL    HW210749   6.990   8.634   2.940 -1.6129 -0.0669  2.1484
35751SOL     OW10750   3.199   6.746   8.668  0.4929  0.4479  0.0047
35751SOL    HW110751   3.193   6.729   8.574  0.7020 -1.4384  0.3019
35751SOL    HW210752   3.111   6.727   8.702  0.5270  0.7150  0.2493
35752SOL     OW10753   7.709   7.869   8.858  0.7068  0.2429  0.2387
35752SOL    HW110754   7.675   7.792   8.813  0.8401 -0.8797  1.9571
35752SOL    HW210755   7.768   7.833   8.925  0.0090  1.7553  1.7341
35753SOL     OW10756  10.840   5.423   6.750 -0.0799 -0.2541 -0.0763
35753SOL    HW110757  10.783   5.495   6.777  1.8334  0.8462  1.3017
35753SOL    HW210758  10.872   5.449   6.663  0.3041  0.3863  0.2515
35754SOL     OW10759  10.308   5.199   2.594 -0.3248  0.4885  0.3395
35754SOL    HW110760  10.293   5.291   2.616  0.1787  1.0243 -1.3993
35754SOL    HW210761  10.288   5.193   2.501  1.6607 -0.6918 -0.0709
35755SOL     OW10762   1.235   5.537   1.698 -0.6751 -0.1539 -0.4780
35755SOL    HW110763   1.307   5.572   1.647  1.0103 -1.6967  0.6822
35755SOL    HW210764   1.253   5.565   1.788 -1.3510 -0.7910 -0.1287
35756SOL     OW10765   3.577   2.752   9.902  0.1682  0.1381 -0.0292
35756SOL    HW110766   3.672   2.746   9.890  0.1073 -0.4977 -0.2347
35756SOL    HW210767   3.542   2.675   9.856 -0.5270  0.9015 -0.8121
35757SOL     OW10768   1.855   4.003   2.629 -0.5843 -0.1236  0.4856
35757SOL    HW110769   1.761   4.005   2.646 -0.5865 -0.3689  0.5122
35757SOL    HW210770   1.892   3.960   2.707 -0.5755 -1.1132 -0.0458
35758SOL     OW10771   7.076   8.414   8.636  0.2542  0.3825 -0.0524
35758SOL    HW110772   7.142   8.358   8.676  0.3408  0.6506  0.1791
35758SOL    HW210773   7.107   8.427   8.546  0.1694 -0.0382 -0.1483
35759SOL     OW10774   1.720   3.272   1.921  0.5436 -0.0043  0.3775
35759SOL    HW110775   1.706   3.367   1.927 -0.0443 -0.1593  1.8635
35759SOL    HW210776   1.733   3.256   1.827  0.7042  1.5420  0.0989
35760SOL     OW10777   8.280   8.115   1.204 -0.1810  0.4100  0.2423
35760SOL    HW110778   8.327   8.038   1.173  1.4146  1.4255  0.0654
35760SOL    HW210779   8.201   8.117   1.151  0.0141 -0.7813 -0.1308
35761SOL     OW10780   5.998   0.148  10.062 -0.2951  0.2689  0.5144
35761SOL    HW110781   6.026   0.195  10.140  0.0989 -1.1349  1.2493
35761SOL    HW210782   6.079   0.111  10.025 -0.5566  0.3825 -0.2011
35762SOL     OW10783   3.460   8.424   1.998 -0.1962 -0.2057  0.0905
35762SOL    HW110784   3.480   8.473   2.078 -0.6645  1.1696 -0.6065
35762SOL    HW210785   3.367   8.441   1.981 -0.2213 -0.8629 -0.4984
35763SOL     OW10786   9.193   1.689   3.758  0.6932 -0.2644 -0.5662
35763SOL    HW110787   9.158   1.607   3.794 -0.1651 -0.0145 -0.8154
35763SOL    HW210788   9.117   1.747   3.751  1.1800  0.3318 -1.0065
35764SOL     OW10789   4.001   5.974   3.929 -0.4075 -0.3263 -0.0877
35764SOL    HW110790   3.923   6.026   3.910  0.0206  0.5240  0.4147
35764SOL    HW210791   4.027   6.001   4.017 -0.5845 -1.9397  0.4977
35765SOL     OW10792   9.145   0.567   9.692 -0.2469  0.3117 -0.1250
35765SOL    HW110793   9.107   0.485   9.661  2.4560 -1.7501  1.5350
35765SOL    HW210794   9.211   0.589   9.627 -0.2057  0.5588 -0.0021
35766SOL     OW10795   5.020   8.965   9.022  0.2090 -0.3102 -0.0502
35766SOL    HW110796   5.017   9.052   8.982  0.8388 -0.0800  0.3932
35766SOL    HW210797   5.104   8.962   9.068  0.6038 -1.4737 -0.7786
35767SOL     OW10798   2.496  10.175   8.881 -0.0510 -0.1428 -0.4304
35767SOL    HW110799   2.584  10.138   8.871  0.1678  0.4593 -0.7606
35767SOL    HW210800   2.442  10.125   8.820  0.3610  0.4713 -1.3044
35768SOL     OW10801   3.135   5.121   3.733 -0.5138  0.2180 -0.4352
35768SOL    HW110802   3.145   5.207   3.774  1.9767  0.1477 -0.7124
35768SOL    HW210803   3.224   5.098   3.704 -1.3194 -1.9273 -1.4310
35769SOL     OW10804   8.163   7.028   5.637 -0.1827  0.0760 -0.3719
35769SOL    HW110805   8.206   6.985   5.564 -1.6359 -1.4391 -0.3901
35769SOL    HW210806   8.097   7.084   5.596  1.1675  1.8305 -0.3088
35770SOL     OW10807   0.592   4.826   2.503 -0.6143  0.3052  0.2208
35770SOL    HW110808   0.574   4.856   2.414 -0.5965 -1.6120 -0.4707
35770SOL    HW210809   0.623   4.905   2.549  0.5410  1.1019 -1.7918
35771SOL     OW10810   3.456   5.402   0.657 -0.0208 -0.5188  0.3621
35771SOL    HW110811   3.489   5.481   0.615  0.3479 -1.8855 -2.0842
35771SOL    HW210812   3.462   5.420   0.751  0.9396  1.9675 -0.1152
35772SOL     OW10813   6.965   6.272   7.091  0.3153  0.0127  0.3052
35772SOL    HW110814   7.035   6.319   7.045  0.3033  0.6197  0.8996
35772SOL    HW210815   6.932   6.335   7.155 -0.7046 -0.3030  0.1042
35773SOL     OW10816   5.470   0.565   2.110  0.3257 -0.1350  0.1908
35773SOL    HW110817   5.395   0.563   2.170  0.4012  1.2301  0.3741
35773SOL    HW210818   5.465   0.651   2.069  0.7681 -0.7185 -1.1486
35774SOL     OW10819   2.245   8.973   1.227 -0.3599  0.4313  0.3469
35774SOL    HW110820   2.202   8.954   1.310 -1.9796  2.2024 -0.0290
35774SOL    HW210821   2.179   9.017   1.175  1.1390  0.8795 -1.2758
35775SOL     OW10822   8.645   3.219  10.258 -0.2006  0.1410 -0.1477
35775SOL    HW110823   8.567   3.199  10.206 -0.7562  1.1058  0.2688
35775SOL    HW210824   8.619   3.199  10.348 -0.6961  2.2913  0.2570
35776SOL     OW10825   1.255   7.450   0.149  0.1529  0.1193 -0.1075
35776SOL    HW110826   1.342   7.460   0.186  0.9282 -1.3007 -1.4100
35776SOL    HW210827   1.197   7.448   0.224  1.6376 -2.4220  1.1306
35777SOL     OW10828   3.804   5.650   3.428 -0.2404  0.3328  0.2734
35777SOL    HW110829   3.887   5.620   3.463  0.0862 -0.6116 -1.1993
35777SOL    HW210830   3.747   5.573   3.432 -1.4764  1.2597  2.3499
35778SOL     OW10831   0.287   5.385   3.745 -0.0948 -0.3236  0.8781
35778SOL    HW110832   0.319   5.433   3.822  0.8856  3.6521 -1.7063
35778SOL    HW210833   0.364   5.341   3.711 -0.5401 -2.1292  2.0292
35779SOL     OW10834   1.445   1.030   4.831  0.3778 -0.3938  0.4098
35779SOL    HW110835   1.411   1.063   4.748  2.1627  0.6744  0.0496
35779SOL    HW210836   1.535   1.063   4.835  0.1017  0.3034  3.1335
35780SOL     OW10837   2.147   4.770   5.293 -0.0496 -0.1296 -0.0085
35780SOL    HW110838   2.098   4.850   5.274 -1.7986 -1.5371 -1.8729
35780SOL    HW210839   2.227   4.801   5.335 -1.5738  2.4376  1.2672
35781SOL     OW10840   4.992   7.069   9.390  0.2460  0.0831  0.3791
35781SOL    HW110841   5.039   7.152   9.396 -0.8676  0.7400  0.4769
35781SOL    HW210842   4.940   7.065   9.470  0.2545 -0.6963  0.3533
35782SOL     OW10843   5.383   9.995   3.990 -0.2129  0.0434  0.1734
35782SOL    HW110844   5.319  10.048   4.038  0.1562  0.0870  0.6300
35782SOL    HW210845   5.362   9.905   4.013  0.2438  0.0841  0.7935
35783SOL     OW10846   9.113   6.515   6.783  0.6034 -0.2684  0.5010
35783SOL    HW110847   9.075   6.438   6.741 -0.2989 -0.2995  1.3539
35783SOL    HW210848   9.183   6.542   6.723 -0.9552 -0.0018 -1.2753
35784SOL     OW10849   7.602   7.530   1.816  0.1176 -0.1306 -0.8301
35784SOL    HW110850   7.538   7.601   1.807 -0.4764 -0.7581 -1.6336
35784SOL    HW210851   7.550   7.451   1.827  0.7589 -0.2808  2.0074
35785SOL     OW10852   1.768   4.954   1.098 -0.0222 -0.2999  0.1436
35785SOL    HW110853   1.678   4.940   1.068  0.6768  0.1362 -2.3348
35785SOL    HW210854   1.792   5.039   1.062  1.6255 -0.7329  0.1700
35786SOL     OW10855  10.135   1.709   3.529  0.3827 -0.3746  0.5877
35786SOL    HW110856  10.150   1.797   3.563  1.6808 -0.3468  0.0027
35786SOL    HW210857  10.099   1.660   3.603  0.6764  0.3674  1.2316
35787SOL     OW10858   8.588   0.723   5.062  0.1255 -0.6503 -0.0931
35787SOL    HW110859   8.567   0.668   5.137 -0.1221 -1.2384 -0.5831
35787SOL    HW210860   8.669   0.768   5.087  1.0064 -2.1410 -0.1353
35788SOL     OW10861   8.638  10.162   6.900  0.2593  0.4820  0.0941
35788SOL    HW110862   8.686  10.149   6.819 -1.8066  0.2278 -1.1609
35788SOL    HW210863   8.663  10.250   6.928  1.2227  0.4609 -0.6476
35789SOL     OW10864   9.820   3.397   5.804  0.3004 -0.2158  0.2861
35789SOL    HW110865   9.731   3.418   5.830  0.2288 -0.6209  0.3717
35789SOL    HW210866   9.869   3.478   5.819  0.0897 -0.1983  0.8927
35790SOL     OW10867   4.651   1.919   3.837  0.0619 -0.2066 -0.2642
35790SOL    HW110868   4.595   1.872   3.775  0.2405  0.7910 -1.2220
35790SOL    HW210869   4.738   1.881   3.824  0.1803  0.2733 -0.9434
35791SOL     OW10870  10.777   8.537   2.789 -0.3346 -0.0894  0.0710
35791SOL    HW110871  10.774   8.593   2.711 -0.7680  0.1438  0.2570
35791SOL    HW210872  10.869   8.540   2.817 -0.2003 -0.0810 -0.3596
35792SOL     OW10873   4.455   6.088   6.118  0.1262 -0.4358  0.0248
35792SOL    HW110874   4.396   6.087   6.043 -0.0916  0.6839  0.1606
35792SOL    HW210875   4.397   6.086   6.195  0.0806  2.6055  0.1948
35793SOL     OW10876  10.351   5.836   9.608  0.2893 -0.1701  0.6281
35793SOL    HW110877  10.435   5.790   9.617  0.2867 -0.0073  1.6173
35793SOL    HW210878  10.348   5.895   9.684 -0.0808  0.8555 -0.1650
35794SOL     OW10879   7.990   9.944   0.745 -0.1294 -0.0111 -0.0769
35794SOL    HW110880   8.047   9.889   0.692  0.1241 -2.4884  2.5372
35794SOL    HW210881   7.922   9.885   0.778 -0.9756  1.6575  1.3674
35795SOL     OW10882   6.850   7.407   3.756 -0.7164 -0.6351  0.4726
35795SOL    HW110883   6.827   7.455   3.836 -0.1380 -0.1240  0.3368
35795SOL    HW210884   6.864   7.317   3.786 -1.5183 -0.6643  0.7751
35796SOL     OW10885   4.644   7.300   9.677  0.4717  0.0704  0.0957
35796SOL    HW110886   4.669   7.343   9.595  0.4081  0.2338  0.1617
35796SOL    HW210887   4.617   7.371   9.734  2.0876  0.1372  0.8418
35797SOL     OW10888   4.742   1.525   4.033 -0.4924  0.8812  0.1710
35797SOL    HW110889   4.731   1.449   4.090  1.4787 -0.9853 -1.7534
35797SOL    HW210890   4.756   1.598   4.093 -0.2127 -0.6682  2.0832
35798SOL     OW10891   1.319   1.536  10.133  0.3592 -0.2292 -0.8558
35798SOL    HW110892   1.351   1.620  10.165 -0.5891 -0.6103  1.2467
35798SOL    HW210893   1.392   1.475  10.147 -0.1797 -0.4875  1.1948
35799SOL     OW10894   7.744  10.909   8.040 -0.6749  0.1573  0.1416
35799SOL    HW110895   7.772  10.945   8.124  1.6192 -1.1766  0.0141
35799SOL    HW210896   7.658  10.871   8.058 -0.4139  0.2591  1.7723
35800SOL     OW10897   5.570   8.920  10.713  0.1959  0.2213  0.2973
35800SOL    HW110898   5.655   8.940  10.673  0.6107 -0.1596  0.9748
35800SOL    HW210899   5.566   8.825  10.716 -0.1175  0.2404  0.5696
35801SOL     OW10900   4.113   7.556   0.837 -0.0059  0.5284  0.6727
35801SOL    HW110901   4.154   7.631   0.794 -1.0254  1.6896  1.6526
35801SOL    HW210902   4.040   7.532   0.780  0.7812 -0.2454 -0.0383
35802SOL     OW10903   2.435   6.570   2.070 -0.1254 -0.3724  0.1703
35802SOL    HW110904   2.355   6.615   2.095 -1.0882 -2.3736  0.8772
35802SOL    HW210905   2.505   6.619   2.114 -1.2065 -0.1512  1.7291
35803SOL     OW10906   4.186  10.327   7.803 -0.3327  0.3773 -0.1516
35803SOL    HW110907   4.176  10.419   7.828 -1.2205  0.2872 -0.1647
35803SOL    HW210908   4.152  10.322   7.714  0.1056  0.1089 -0.3102
35804SOL     OW10909   9.804   2.431   1.614 -0.4847  0.0472  0.1341
35804SOL    HW110910   9.716   2.469   1.609 -1.4315 -1.9287  0.6472
35804SOL    HW210911   9.797   2.363   1.681  1.5490  0.0670  0.4265
35805SOL     OW10912   4.758   3.429   9.871  0.4889  0.2495 -0.0652
35805SOL    HW110913   4.823   3.368   9.907  1.5626 -0.1653 -2.4634
35805SOL    HW210914   4.792   3.516   9.894  0.4770 -0.0068  0.9450
35806SOL     OW10915   7.384   2.139   7.382  0.3912  0.6809  0.3710
35806SOL    HW110916   7.336   2.192   7.445 -0.5507  0.5054 -0.1662
35806SOL    HW210917   7.341   2.053   7.385 -0.1220  0.8605 -0.9638
35807SOL     OW10918   4.887   4.525   9.241 -0.3666  0.3859 -0.0404
35807SOL    HW110919   4.800   4.565   9.233 -0.7995 -0.6317 -0.6790
35807SOL    HW210920   4.870   4.434   9.264  0.3961 -0.4023 -2.2795
35808SOL     OW10921  10.520   5.627   1.068 -0.4546 -0.2542  0.2905
35808SOL    HW110922  10.440   5.592   1.028 -1.1028  1.8306 -0.3587
35808SOL    HW210923  10.558   5.684   1.001  2.1971 -1.9335  0.1862
35809SOL     OW10924   7.969   7.187   8.288 -0.0226  0.0488 -0.7437
35809SOL    HW110925   7.883   7.191   8.245  0.0015  1.0832 -0.7332
35809SOL    HW210926   8.030   7.167   8.217 -0.3003 -1.0405 -0.6920
35810SOL     OW10927   8.308   0.523   7.014 -0.5978  0.1768 -0.1410
35810SOL    HW110928   8.290   0.505   7.107 -2.0817  2.6996  0.1641
35810SOL    HW210929   8.281   0.444   6.968 -0.0807 -1.0340  1.5429
35811SOL     OW10930   7.166   7.256   2.969  0.0131 -0.5328  0.0026
35811SOL    HW110931   7.169   7.237   2.875  0.2791  1.1040 -0.3591
35811SOL    HW210932   7.186   7.350   2.974  1.8210 -0.9436  1.8324
35812SOL     OW10933   8.723   3.160   8.383  0.2091  0.2089 -0.5192
35812SOL    HW110934   8.633   3.161   8.353  0.1957 -1.3759 -0.6262
35812SOL    HW210935   8.766   3.228   8.332 -0.8064  0.6116 -0.8568
35813SOL     OW10936   5.141   6.602   2.989  0.5838  0.0128  0.1973
35813SOL    HW110937   5.235   6.621   2.992  0.8771 -1.4546  1.7672
35813SOL    HW210938   5.135   6.508   3.006 -1.1211 -0.1663 -1.1794
35814SOL     OW10939   6.827   3.632   8.782  0.4854  0.4185 -0.2630
35814SOL    HW110940   6.818   3.675   8.697  0.8562  0.8989 -0.0645
35814SOL    HW210941   6.793   3.544   8.768  0.0515  0.6569 -0.7742
35815SOL     OW10942   8.390   5.506  10.066  0.4404  0.0669 -0.1660
35815SOL    HW110943   8.360   5.586  10.108  0.8511 -0.2944  0.8513
35815SOL    HW210944   8.322   5.441  10.084  0.6003 -0.0803 -0.0805
35816SOL     OW10945   3.787   1.362   0.149  0.1336 -0.2516  0.1653
35816SOL    HW110946   3.800   1.296   0.218 -1.4174 -1.5744 -0.7251
35816SOL    HW210947   3.755   1.439   0.196 -1.1131 -1.2047  0.9574
35817SOL     OW10948   0.005   6.151   1.534 -0.1195 -0.3485  0.0204
35817SOL    HW110949   0.052   6.138   1.617  1.5233 -0.6965 -0.9302
35817SOL    HW210950  -0.088   6.144   1.558  0.3346 -0.9732  1.7406
35818SOL     OW10951   9.302   5.876   2.949 -0.3710 -0.0202 -0.0198
35818SOL    HW110952   9.395   5.896   2.944 -0.1866 -0.2343  1.7458
35818SOL    HW210953   9.271   5.926   3.025 -1.9885  1.0593 -1.3336
35819SOL     OW10954   3.920   3.153   9.038 -0.1273 -0.2202 -0.6590
35819SOL    HW110955   3.950   3.228   9.089  2.1190 -1.4647 -0.0420
35819SOL    HW210956   3.994   3.131   8.982 -0.7223 -1.9796 -0.8067
35820SOL     OW10957   7.569   9.132   6.167  0.0680 -0.4318  0.9304
35820SOL    HW110958   7.592   9.168   6.252  2.2912 -1.7232  0.9474
35820SOL    HW210959   7.572   9.207   6.107 -0.5064  0.2946  1.7888
35821SOL     OW10960   1.090   6.531   3.555 -0.3348  0.0733 -0.4339
35821SOL    HW110961   1.178   6.509   3.525  0.2842  0.5390  0.9537
35821SOL    HW210962   1.032   6.484   3.495  0.8724 -2.0096 -0.0855
35822SOL     OW10963   9.374   0.264   5.592  0.3680  0.1447 -0.1034
35822SOL    HW110964   9.404   0.355   5.585  0.0841  0.1859 -0.8338
35822SOL    HW210965   9.393   0.240   5.683  1.3323  0.6194 -0.1625
35823SOL     OW10966   7.037   6.453   5.859  0.0954 -0.0009 -0.0748
35823SOL    HW110967   7.032   6.492   5.772 -1.5402  1.8743  0.7765
35823SOL    HW210968   7.131   6.448   5.878  0.4472  0.1571 -1.6786
35824SOL     OW10969   8.081   3.861   8.961 -0.5380  0.0958  0.1551
35824SOL    HW110970   8.095   3.940   9.014  1.4636 -0.8425  1.1543
35824SOL    HW210971   8.045   3.797   9.023 -2.5755  0.2845 -0.7452
35825SOL     OW10972   9.344  10.890   4.411 -0.2470 -0.2664  0.2425
35825SOL    HW110973   9.287  10.958   4.374  0.1434  0.3549  0.7599
35825SOL    HW210974   9.297  10.860   4.489  0.2429  0.4278  0.8126
35826SOL     OW10975   0.317   3.021   9.347 -0.1981  0.2564 -0.1612
35826SOL    HW110976   0.359   3.086   9.290  0.3690  1.3706  1.4642
35826SOL    HW210977   0.280   3.072   9.419 -1.6913 -1.0227  0.0350
35827SOL     OW10978   9.003   2.321   8.004 -0.2804 -0.1315  0.5371
35827SOL    HW110979   8.938   2.277   7.949 -0.9087  1.1574  0.2147
35827SOL    HW210980   8.996   2.276   8.089 -0.9759 -0.5793  0.2569
35828SOL     OW10981  10.547   7.955   0.776  0.4506  0.4816 -0.1750
35828SOL    HW110982  10.453   7.937   0.772  0.8577 -2.1938  0.2042
35828SOL    HW210983  10.565   7.970   0.869  0.9049 -3.0559  0.4490
35829SOL     OW10984   4.140   2.735   6.670  0.6768  0.0105 -0.7359
35829SOL    HW110985   4.184   2.805   6.622  0.4897  1.1733  0.7166
35829SOL    HW210986   4.047   2.745   6.647  0.7939 -0.5579 -1.4846
35830SOL     OW10987   6.810   5.305   4.941  0.0338  0.1305  0.4574
35830SOL    HW110988   6.891   5.272   4.980  0.2026 -0.7994 -0.6407
35830SOL    HW210989   6.786   5.379   4.996  1.3274  0.0778  1.1332
35831SOL     OW10990   8.975   3.844   4.473 -0.4144  0.2656  0.1284
35831SOL    HW110991   8.925   3.794   4.409  0.0671 -0.6353  0.4287
35831SOL    HW210992   9.049   3.880   4.423 -0.2795 -0.0711  0.0805
35832SOL     OW10993   4.915   6.121   3.139 -0.4203  0.1281 -0.4865
35832SOL    HW110994   4.859   6.141   3.214 -0.5680  0.3986 -0.6664
35832SOL    HW210995   4.993   6.081   3.177 -0.0391  1.2162 -0.0929
35833SOL     OW10996   5.336   7.529   4.306 -0.2785  0.1958 -0.2955
35833SOL    HW110997   5.308   7.621   4.301  0.8851  0.5175 -1.5853
35833SOL    HW210998   5.423   7.533   4.346  0.0264 -0.2759 -0.8929
35834SOL     OW10999   4.971   5.746   5.896 -0.2767  0.6988 -0.5210
35834SOL    HW111000   4.896   5.687   5.890 -0.6499  1.2577 -1.7115
35834SOL    HW211001   5.042   5.691   5.928 -0.9530 -0.0686 -0.2971
35835SOL     OW11002   7.479   0.717   3.398  0.3539 -0.1398  0.6282
35835SOL    HW111003   7.496   0.637   3.449 -0.0004  1.1228  2.8557
35835SOL    HW211004   7.481   0.787   3.463  1.9253  1.8607 -1.4413
35836SOL     OW11005   7.109   5.556   2.648 -0.1872 -1.1264 -0.0910
35836SOL    HW111006   7.097   5.461   2.654  0.4050 -1.2944 -1.2587
35836SOL    HW211007   7.021   5.592   2.644 -0.4227 -1.7765 -1.3485
35837SOL     OW11008   2.123   8.866   1.447 -0.1963  0.5097 -0.0716
35837SOL    HW111009   2.199   8.835   1.496 -0.2556  0.6193  0.0953
35837SOL    HW211010   2.077   8.923   1.509 -2.4506 -2.4205  1.1774
35838SOL     OW11011   2.031   8.565   0.901  0.1156 -0.1906  0.0861
35838SOL    HW111012   2.008   8.509   0.976  0.5900 -0.4797  0.0163
35838SOL    HW211013   1.946   8.585   0.860 -0.2258  0.5988  1.1376
35839SOL     OW11014   8.739  10.918   2.880  0.0742 -0.2603 -0.5201
35839SOL    HW111015   8.643  10.926   2.886  0.0987  0.3123 -0.7631
35839SOL    HW211016   8.761  10.850   2.943 -0.3490  0.7224  0.7571
35840SOL     OW11017   5.563   0.886  10.900  0.0867  0.7599 -0.1320
35840SOL    HW111018   5.586   0.892  10.992  2.0295 -1.5991 -0.3909
35840SOL    HW211019   5.527   0.798  10.889 -0.4189  1.1087 -1.5755
35841SOL     OW11020   0.035   2.949   3.545 -0.3138  0.1873 -0.3887
35841SOL    HW111021   0.105   2.988   3.598  0.1444 -0.2135 -0.6892
35841SOL    HW211022   0.026   3.007   3.470 -0.5276  0.4123 -0.1915
35842SOL     OW11023   2.063   1.638   0.464  0.5521  0.4380  0.2689
35842SOL    HW111024   2.068   1.561   0.408  0.4176  0.7899 -0.2356
35842SOL    HW211025   2.141   1.689   0.442  0.2155  0.8423  0.0075
35843SOL     OW11026   2.540   6.952   5.171  0.6357 -0.2418  0.3816
35843SOL    HW111027   2.474   7.011   5.207  0.7529  0.0167  0.1731
35843SOL    HW211028   2.535   6.963   5.076  1.6917  0.5667  0.4028
35844SOL     OW11029   3.176   7.901   5.215  0.0532 -0.0277  0.1820
35844SOL    HW111030   3.254   7.852   5.189 -1.2047 -2.6094  0.8826
35844SOL    HW211031   3.195   7.930   5.304  0.3603 -0.2749  0.1984
35845SOL     OW11032   7.389   1.704   6.568 -0.1083  0.4713 -0.2523
35845SOL    HW111033   7.455   1.708   6.499  2.3231 -2.0992  1.6593
35845SOL    HW211034   7.332   1.632   6.543  0.1786  0.1821 -0.0870
35846SOL     OW11035   1.589   8.758   2.600  0.2946 -0.0029 -0.5321
35846SOL    HW111036   1.530   8.705   2.547 -0.9855  1.5615 -0.7539
35846SOL    HW211037   1.648   8.799   2.536 -0.8932  1.4444 -0.7638
35847SOL     OW11038   8.627   2.469   7.984  0.1061 -0.3756 -0.1738
35847SOL    HW111039   8.546   2.514   8.006  1.0434  1.2216  0.1910
35847SOL    HW211040   8.643   2.493   7.892  0.3987 -0.2944 -0.1028
35848SOL     OW11041   1.271   2.845   0.145 -0.4560  0.0085 -0.3162
35848SOL    HW111042   1.311   2.836   0.059 -0.5765 -0.4047 -0.3289
35848SOL    HW211043   1.339   2.885   0.200 -0.6946  1.1829 -0.8443
35849SOL     OW11044   9.343   2.113   4.075  0.3928 -0.0168  0.1627
35849SOL    HW111045   9.346   2.168   4.153 -1.0660  0.3669 -0.0302
35849SOL    HW211046   9.414   2.050   4.088 -0.5176 -0.7010  2.3717
35850SOL     OW11047   2.570   7.537   8.782  0.8124 -0.0639 -1.0277
35850SOL    HW111048   2.613   7.487   8.712  1.5505 -0.2122 -0.4694
35850SOL    HW211049   2.503   7.478   8.816  0.3941  0.0357 -1.6513
35851SOL     OW11050   7.816   5.927   6.178  0.5294  0.5378 -0.2387
35851SOL    HW111051   7.816   6.008   6.128  0.2017  0.8720  0.2982
35851SOL    HW211052   7.898   5.884   6.154  0.6342  0.9537 -0.6365
35852SOL     OW11053   4.964   1.269   7.803 -0.1495 -0.5253  0.0272
35852SOL    HW111054   4.911   1.321   7.863  0.6599 -1.1394  1.3075
35852SOL    HW211055   4.900   1.225   7.747 -0.8663  1.2784 -0.6436
35853SOL     OW11056   0.884   1.583   4.540  0.2442  0.0049  0.5432
35853SOL    HW111057   0.837   1.641   4.479  1.0262  0.4564  0.3426
35853SOL    HW211058   0.926   1.643   4.602  0.8742 -0.3485  0.4732
35854SOL     OW11059   4.594   0.950   5.266 -0.0477 -0.3606 -0.4123
35854SOL    HW111060   4.667   0.973   5.208  0.1201 -0.7110 -0.3443
35854SOL    HW211061   4.632   0.889   5.330 -0.0025  0.7554  0.6589
35855SOL     OW11062   6.301   2.264   7.289 -0.4460 -0.5858 -0.3454
35855SOL    HW111063   6.335   2.330   7.350 -0.3314 -0.5426 -0.4544
35855SOL    HW211064   6.374   2.202   7.278 -0.0168  0.0799 -1.4076
35856SOL     OW11065   7.930   9.115  10.274 -0.4472 -0.1862 -0.1413
35856SOL    HW111066   7.980   9.047  10.228  1.9352  1.6332 -0.4292
35856SOL    HW211067   7.893   9.169  10.205  0.5594  0.7667  0.0412
35857SOL     OW11068   3.073   5.991   6.972 -0.0599 -0.4726  0.4998
35857SOL    HW111069   3.027   6.071   6.996  0.3854 -0.2858  0.7423
35857SOL    HW211070   3.164   6.006   7.000 -0.0548 -1.2109  0.9051
35858SOL     OW11071   9.467   4.926   2.924  0.0371  0.1407  0.0127
35858SOL    HW111072   9.419   4.984   2.983 -0.3495 -1.1496  1.0448
35858SOL    HW211073   9.539   4.979   2.890 -1.3308  1.7290 -0.5271
35859SOL     OW11074   1.285   9.441  10.879 -0.5763  0.1684 -0.4438
35859SOL    HW111075   1.370   9.400  10.862 -1.1143 -0.8835 -0.6337
35859SOL    HW211076   1.307   9.531  10.903  0.5875 -0.0613 -0.5869
35860SOL     OW11077   6.978   4.180   6.696 -0.6216  0.7881  0.2956
35860SOL    HW111078   6.989   4.229   6.614 -1.3814 -0.0573 -0.3267
35860SOL    HW211079   6.931   4.241   6.753 -2.4508  0.4772 -0.8154
35861SOL     OW11080   1.256   8.294   9.730  0.1454  0.7858 -0.3976
35861SOL    HW111081   1.348   8.265   9.732 -0.1994 -0.3628 -0.5520
35861SOL    HW211082   1.237   8.304   9.637 -0.6960 -1.7951 -0.5914
35862SOL     OW11083   7.577   8.759   5.033  0.3832 -0.3198 -0.0491
35862SOL    HW111084   7.494   8.776   5.079  0.3107  0.6155 -0.5064
35862SOL    HW211085   7.560   8.680   4.982 -0.2291 -0.1428 -0.1311
35863SOL     OW11086  10.005   3.771   8.616 -0.1355 -0.2205 -0.0768
35863SOL    HW111087  10.058   3.841   8.653  0.0620 -0.7905  0.7413
35863SOL    HW211088   9.926   3.815   8.582  0.2859  0.4687 -0.1715
35864SOL     OW11089   2.931   0.408   7.118 -0.0644 -0.3796 -0.2870
35864SOL    HW111090   2.966   0.427   7.031 -0.4726  0.0468 -0.3628
35864SOL    HW211091   2.997   0.352   7.158  0.9900  0.8399 -0.2238
35865SOL     OW11092   2.184   2.798   9.814 -0.3520  0.2376  0.1659
35865SOL    HW111093   2.226   2.883   9.828  0.1821 -0.4056  3.1349
35865SOL    HW211094   2.251   2.734   9.835 -1.5673 -0.8773  0.8285
35866SOL     OW11095   2.999   3.489  10.052  0.2222 -0.0152  0.0855
35866SOL    HW111096   3.000   3.501   9.957  1.4690 -1.2356 -0.0790
35866SOL    HW211097   2.925   3.430  10.068 -0.0069  0.2129 -0.1181
35867SOL     OW11098   5.946   4.578   9.847 -0.2891 -0.2451 -0.1157
35867SOL    HW111099   5.909   4.542   9.766  2.0525 -0.8093 -0.9991
35867SOL    HW211100   5.986   4.661   9.820 -0.9232  0.3926  0.8335
35868SOL     OW11101  10.162   2.355   9.139  0.3323  0.5615  0.0627
35868SOL    HW111102  10.198   2.381   9.223  0.8242  2.2935 -0.6322
35868SOL    HW211103  10.239   2.337   9.085  0.0123 -1.1037  0.1265
35869SOL     OW11104   2.664   2.104   5.036 -0.3594 -0.2016  0.3605
35869SOL    HW111105   2.740   2.045   5.044  0.9878  1.6020  1.6231
35869SOL    HW211106   2.663   2.129   4.944 -0.1604 -1.1534  0.0849
35870SOL     OW11107   6.698   0.599   4.538  0.2104  0.0823 -0.3129
35870SOL    HW111108   6.639   0.665   4.503 -0.2440 -0.2794 -0.2443
35870SOL    HW211109   6.725   0.633   4.624  1.5044  1.0790 -1.0724
35871SOL     OW11110   4.046   5.907   3.420 -0.1432  0.5803 -0.2382
35871SOL    HW111111   4.033   5.940   3.331 -1.2494  0.2373 -0.2221
35871SOL    HW211112   4.119   5.846   3.413 -2.4633 -2.3321 -1.7436
35872SOL     OW11113  10.970   5.424   2.143  0.0685 -0.7346  0.8422
35872SOL    HW111114  10.919   5.412   2.063  1.1150  0.5240 -0.0759
35872SOL    HW211115  10.922   5.375   2.210 -4.0134  2.5652  0.7761
35873SOL     OW11116   3.113   2.382   4.972  0.0825 -0.8340  0.3398
35873SOL    HW111117   3.084   2.295   4.997  2.8603 -2.3817 -1.4066
35873SOL    HW211118   3.200   2.391   5.011  0.5726  0.4285 -0.9501
35874SOL     OW11119   9.903   6.652   0.877  0.7334 -0.1269  0.0460
35874SOL    HW111120   9.853   6.670   0.957  1.0055 -1.3379  0.5022
35874SOL    HW211121   9.838   6.661   0.806  0.5301  1.1073  0.3669
35875SOL     OW11122   7.561   3.491   5.440 -0.4179 -0.0027 -0.6148
35875SOL    HW111123   7.559   3.410   5.491 -1.8563  0.2694 -0.1704
35875SOL    HW211124   7.537   3.464   5.352  0.9648 -0.3142 -0.9100
35876SOL     OW11125   6.033   5.170   6.146  0.5884  0.3734 -0.1563
35876SOL    HW111126   5.975   5.131   6.211  3.1856 -0.8021  1.6310
35876SOL    HW211127   6.003   5.135   6.062  0.6414 -2.8446  1.0352
35877SOL     OW11128   1.871   2.019   4.374  0.4603 -0.3629  0.1415
35877SOL    HW111129   1.922   2.092   4.410  0.7908 -0.5038 -0.0358
35877SOL    HW211130   1.903   1.942   4.421  1.3764 -0.6520 -0.8951
35878SOL     OW11131   3.318   4.813   5.325  0.1989 -0.1446 -0.0798
35878SOL    HW111132   3.382   4.766   5.271  0.8946 -0.5966  1.0737
35878SOL    HW211133   3.244   4.828   5.267  0.6688 -1.1330 -0.9858
35879SOL     OW11134   2.229   5.719   0.367  0.0573 -0.2538  0.3668
35879SOL    HW111135   2.292   5.791   0.371 -1.1850  0.8421  0.6994
35879SOL    HW211136   2.219   5.702   0.273 -0.6337  0.9393  0.1987
35880SOL     OW11137   4.935   0.426   1.925  0.3244  0.1990 -0.0339
35880SOL    HW111138   4.863   0.489   1.926  0.4208  0.3077 -0.0729
35880SOL    HW211139   4.908   0.362   1.858 -0.1546 -0.2440  0.5713
35881SOL     OW11140   8.637   8.900   1.162  0.5532 -0.4187 -0.1889
35881SOL    HW111141   8.627   8.992   1.188 -3.0533 -1.2455  1.9547
35881SOL    HW211142   8.717   8.899   1.109  1.5283  3.6689  0.8575
35882SOL     OW11143  10.509   1.754   4.722 -0.5746  0.0106 -0.1673
35882SOL    HW111144  10.479   1.671   4.684  0.7545 -0.5509 -0.0767
35882SOL    HW211145  10.571   1.789   4.658 -0.5942  0.5834  0.1199
35883SOL     OW11146   4.851   9.661   6.929 -0.0017 -0.1567  0.1764
35883SOL    HW111147   4.778   9.720   6.949 -0.5194 -1.2090  1.5550
35883SOL    HW211148   4.809   9.582   6.895  0.3742 -1.0842  1.7230
35884SOL     OW11149   0.950  10.479   3.312 -0.1562 -0.2608  0.0347
35884SOL    HW111150   0.902  10.445   3.236 -2.1698  1.6019  0.3609
35884SOL    HW211151   1.002  10.551   3.277 -0.5058  0.1154  0.2790
35885SOL     OW11152  10.162   2.254   0.715  0.2197  0.2181 -0.2220
35885SOL    HW111153  10.211   2.313   0.772  0.5400 -2.0340  2.0024
35885SOL    HW211154  10.147   2.175   0.768 -2.6096 -0.6530 -2.0606
35886SOL     OW11155   7.082   0.660   6.608  0.1298 -0.1832 -0.0261
35886SOL    HW111156   7.020   0.598   6.569 -0.0590 -1.1393  1.6874
35886SOL    HW211157   7.057   0.745   6.571 -1.6010 -0.6826 -0.1184
35887SOL     OW11158   3.274   7.377   9.547 -0.0467  0.0193 -0.0473
35887SOL    HW111159   3.265   7.447   9.482  0.6567  1.3032  1.1832
35887SOL    HW211160   3.360   7.392   9.586 -1.0922  0.2996  2.3150
35888SOL     OW11161   8.200   1.923  10.359  0.2402  0.0351 -0.2683
35888SOL    HW111162   8.282   1.968  10.379  1.1552 -1.2753 -0.9328
35888SOL    HW211163   8.136   1.993  10.352  1.5710  1.2378 -1.0417
35889SOL     OW11164   7.363   4.031   9.352 -0.4515 -0.7364 -0.5541
35889SOL    HW111165   7.369   4.068   9.264 -0.7136  0.5232 -0.0644
35889SOL    HW211166   7.305   3.955   9.341 -0.1192 -0.8687 -1.5401
35890SOL     OW11167   6.242  10.745   6.643 -0.3842  0.4296 -0.3379
35890SOL    HW111168   6.326  10.701   6.658 -1.4806 -1.6812 -0.0119
35890SOL    HW211169   6.231  10.744   6.548  0.0709  0.9808 -0.4033
35891SOL     OW11170   7.565   9.438  10.060 -0.2072 -0.5158 -0.3894
35891SOL    HW111171   7.560   9.383  10.138 -0.1742 -3.3209 -2.2243
35891SOL    HW211172   7.474   9.460  10.039 -0.2562 -0.2676  0.0722
35892SOL     OW11173   9.518   9.374   3.543  0.3183  0.5481 -0.5470
35892SOL    HW111174   9.513   9.278   3.535 -0.4399  0.5673 -0.3239
35892SOL    HW211175   9.588   9.398   3.481  0.6026 -0.1552 -0.5194
35893SOL     OW11176  10.787   5.819   4.831  0.0249 -0.0502 -0.3309
35893SOL    HW111177  10.832   5.739   4.858  1.5333  0.6989 -0.5104
35893SOL    HW211178  10.713   5.789   4.779 -1.1677 -1.4347  1.9640
35894SOL     OW11179   7.542   3.442   6.198  0.2210  0.3894  0.0232
35894SOL    HW111180   7.529   3.482   6.285  1.9452  1.3478 -0.1250
35894SOL    HW211181   7.459   3.456   6.153 -0.6412  0.0507  1.4456
35895SOL     OW11182   2.570   3.351   3.274  0.2222 -0.3881  0.2027
35895SOL    HW111183   2.527   3.430   3.304  1.5798  0.1176  0.9085
35895SOL    HW211184   2.528   3.330   3.191  1.9457  2.9412 -1.7379
35896SOL     OW11185   4.745   8.767   8.723  0.3142  0.2057  0.3044
35896SOL    HW111186   4.792   8.839   8.765 -0.7049  0.6879  0.6680
35896SOL    HW211187   4.719   8.801   8.638  1.5637 -0.4485 -0.3613
35897SOL     OW11188   4.528   5.666   0.509  0.6070  0.6413 -0.6495
35897SOL    HW111189   4.605   5.721   0.490 -0.5214  2.2304 -0.8232
35897SOL    HW211190   4.457   5.707   0.460 -0.6343 -0.0252  0.5286
35898SOL     OW11191   5.787   1.778  10.667 -0.4887 -0.0834  0.0320
35898SOL    HW111192   5.786   1.813  10.756 -1.8638 -1.7306  0.7115
35898SOL    HW211193   5.822   1.689  10.676 -0.6402 -0.2763 -1.0865
35899SOL     OW11194   7.743   9.547   7.709  0.1817  0.1360  1.0419
35899SOL    HW111195   7.797   9.532   7.631  1.0762 -0.7135  1.8128
35899SOL    HW211196   7.691   9.468   7.718  1.0328 -0.3204  2.0512
35900SOL     OW11197   5.815   2.930  10.378  0.0761 -0.4564 -0.0642
35900SOL    HW111198   5.805   2.845  10.334  0.3481  0.0462 -1.1272
35900SOL    HW211199   5.902   2.926  10.418 -0.3057 -1.0442  0.7527
35901SOL     OW11200   9.176   5.866   9.266 -0.1622 -0.4643  0.8295
35901SOL    HW111201   9.106   5.844   9.327  0.1264 -0.9405  0.9975
35901SOL    HW211202   9.229   5.787   9.261 -0.5923 -0.7071 -0.6065
35902SOL     OW11203   3.681   4.789   1.428  0.3087  0.2627 -0.1765
35902SOL    HW111204   3.673   4.694   1.416  0.4272  0.1922  0.2817
35902SOL    HW211205   3.717   4.820   1.344 -1.9768  0.2371 -1.2285
35903SOL     OW11206   4.378   2.009   5.717 -0.4839  0.1532  0.1154
35903SOL    HW111207   4.462   2.043   5.688 -1.1624  1.9541  0.1804
35903SOL    HW211208   4.315   2.079   5.700 -1.7628 -0.6540  1.2427
35904SOL     OW11209   9.928   1.533   2.868  0.4693  0.1241  0.3029
35904SOL    HW111210   9.957   1.503   2.782 -1.5477  0.3687 -0.5336
35904SOL    HW211211   9.965   1.470   2.930  0.0026 -1.4712 -0.9855
35905SOL     OW11212   1.139  10.285  10.819 -0.3299  0.2421  0.3122
35905SOL    HW111213   1.070  10.226  10.848  0.3632 -1.5703 -1.5072
35905SOL    HW211214   1.218  10.256  10.865 -0.0197 -0.1872 -0.4672
35906SOL     OW11215   4.273   4.940   3.431 -0.2883  0.0447 -0.1822
35906SOL    HW111216   4.341   4.984   3.380 -0.1795  0.2844  0.1710
35906SOL    HW211217   4.281   4.977   3.519 -0.5467 -0.2896 -0.0170
35907SOL     OW11218   5.504   6.960   1.341 -0.6109 -0.1649 -0.0019
35907SOL    HW111219   5.550   6.949   1.258 -1.1760  0.3748 -0.3938
35907SOL    HW211220   5.413   6.935   1.322 -0.8355  0.3864  0.3375
35908SOL     OW11221  10.608   2.607   0.133  0.0028 -0.4016 -0.2939
35908SOL    HW111222  10.582   2.526   0.091 -1.0795 -0.5506  0.6365
35908SOL    HW211223  10.566   2.676   0.082  0.3319 -0.4549 -0.6439
35909SOL     OW11224   9.419   1.387   8.183 -0.1002 -0.1410 -0.2112
35909SOL    HW111225   9.401   1.377   8.277  1.9483 -0.7424  0.1656
35909SOL    HW211226   9.439   1.480   8.173  0.4724 -0.2242  0.1151
35910SOL     OW11227   5.570   1.047  10.696 -0.6889  0.2843  0.2895
35910SOL    HW111228   5.560   0.992  10.774 -0.5467 -0.9480 -0.5449
35910SOL    HW211229   5.530   1.130  10.721  0.3775  0.3273  2.0918
35911SOL     OW11230   3.764  10.097   1.585  0.2398  0.5895  0.5579
35911SOL    HW111231   3.709  10.174   1.576 -0.2160  0.1910 -0.1388
35911SOL    HW211232   3.738  10.059   1.669 -2.9170 -1.3712 -1.1055
35912SOL     OW11233   8.831   4.436   7.551 -0.2799  0.0756  0.0444
35912SOL    HW111234   8.777   4.436   7.630 -0.5420  0.1423 -0.1331
35912SOL    HW211235   8.909   4.486   7.575  0.3447 -1.1638  0.7307
35913SOL     OW11236   3.553   9.452   8.047 -0.1701 -0.2217 -0.2510
35913SOL    HW111237   3.608   9.403   8.108 -0.6364 -0.5113 -0.0552
35913SOL    HW211238   3.470   9.404   8.046 -0.4342  0.2298 -0.5094
35914SOL     OW11239   1.564   7.511   1.750 -0.3331 -0.3196  0.5022
35914SOL    HW111240   1.482   7.500   1.701 -0.4782  1.0227  0.4025
35914SOL    HW211241   1.544   7.474   1.837 -1.0613  0.0107  0.4884
35915SOL     OW11242   9.606   7.593   3.547 -0.1902 -0.3601 -0.2026
35915SOL    HW111243   9.615   7.605   3.641  1.4974 -0.8500 -0.2616
35915SOL    HW211244   9.521   7.550   3.536 -0.1866 -0.7521  1.1407
35916SOL     OW11245   1.129   2.826   0.671  0.3364 -0.8028  0.7162
35916SOL    HW111246   1.219   2.858   0.678 -0.8822  3.1182  1.1653
35916SOL    HW211247   1.110   2.827   0.577  0.5278 -0.8137  0.6773
35917SOL     OW11248   8.041   7.839   6.344 -0.3076 -0.5259 -0.1538
35917SOL    HW111249   8.040   7.887   6.261 -0.4140 -1.3354 -0.6259
35917SOL    HW211250   8.110   7.773   6.333 -0.2149 -0.5411  0.4612
35918SOL     OW11251  10.482   3.018  10.637 -0.1809 -0.0129  0.0466
35918SOL    HW111252  10.452   3.097  10.682 -1.7078 -0.3877 -0.2640
35918SOL    HW211253  10.503   3.048  10.549  2.1676  0.5912  0.7424
35919SOL     OW11254   2.101   8.975   5.953  0.0024 -0.1686 -0.3338
35919SOL    HW111255   2.120   8.928   5.872  1.4290  0.5527 -0.4370
35919SOL    HW211256   2.174   8.956   6.011 -2.2137 -2.8331  1.8621
35920SOL     OW11257  10.149   2.754   5.493  0.3698 -0.0137  0.0918
35920SOL    HW111258  10.132   2.836   5.446  1.1968 -1.9109 -3.9485
35920SOL    HW211259  10.243   2.755   5.510  0.0782  0.6605  1.9583
35921SOL     OW11260   4.174  10.723   6.536 -0.5386  0.1369  0.3569
35921SOL    HW111261   4.153  10.702   6.445  0.4018  0.5090  0.0469
35921SOL    HW211262   4.269  10.715   6.542 -0.4832  1.0507  1.0561
35922SOL     OW11263   0.854   0.763   3.452 -0.3025  0.5732 -0.9659
35922SOL    HW111264   0.825   0.836   3.398  0.4822  1.1570 -0.6209
35922SOL    HW211265   0.945   0.750   3.428  0.0659  0.8480  0.1973
35923SOL     OW11266   3.268   9.080   5.098 -0.1316  0.6952  0.4437
35923SOL    HW111267   3.356   9.047   5.118 -0.1822  0.5818  0.4790
35923SOL    HW211268   3.224   9.006   5.055  0.3582  1.3090 -1.1736
35924SOL     OW11269   7.022   5.012   8.449 -0.0319  0.1244  0.1559
35924SOL    HW111270   7.112   4.985   8.434 -0.1630 -0.0387 -0.3901
35924SOL    HW211271   7.009   5.003   8.543  0.1932 -0.9148  0.1037
35925SOL     OW11272   5.817   1.493   6.202  0.1081 -0.0351  0.1202
35925SOL    HW111273   5.899   1.539   6.181  0.2729  1.3668  3.2179
35925SOL    HW211274   5.844   1.403   6.219  0.5201 -0.2664 -1.6141
35926SOL     OW11275   7.320   5.453   2.841 -0.6503  0.2582 -0.5027
35926SOL    HW111276   7.251   5.479   2.901  0.3327  1.1309  0.2868
35926SOL    HW211277   7.368   5.534   2.823  1.2818 -0.6187  0.4446
35927SOL     OW11278   7.308   7.396   7.382 -0.2775  0.5188  0.3048
35927SOL    HW111279   7.254   7.469   7.412  1.7032  2.0323  0.3995
35927SOL    HW211280   7.366   7.376   7.456  0.6009  0.2550 -0.4333
35928SOL     OW11281   1.727   6.510   2.989 -0.4747  0.1351  0.3362
35928SOL    HW111282   1.676   6.433   2.966 -1.1936  0.1893  1.6820
35928SOL    HW211283   1.667   6.583   2.979 -0.9106  0.1434  2.4771
35929SOL     OW11284  10.883   9.254   9.139  0.4438 -0.2181  0.1317
35929SOL    HW111285  10.975   9.280   9.136  0.5351 -0.4783  0.5702
35929SOL    HW211286  10.884   9.164   9.171 -0.0009  0.0117  0.8328
35930SOL     OW11287  10.756   7.517   6.698  0.2388  0.2888  0.2340
35930SOL    HW111288  10.796   7.570   6.628 -0.3599 -0.4958 -0.7293
35930SOL    HW211289  10.796   7.431   6.688 -1.5484 -0.4848 -0.6763
35931SOL     OW11290   0.388   3.034   2.514 -0.4833  0.2799  0.1690
35931SOL    HW111291   0.325   3.083   2.568 -0.5996  0.0040  0.2847
35931SOL    HW211292   0.428   3.101   2.458 -0.6624  0.5044  0.3047
35932SOL     OW11293   0.324   7.132   8.795  0.4604 -0.2435  0.4957
35932SOL    HW111294   0.344   7.159   8.705 -1.5111 -0.3163 -0.0123
35932SOL    HW211295   0.337   7.212   8.847 -0.2694  0.3436 -0.1865
35933SOL     OW11296   1.826   5.601   8.730  0.3873 -0.2374 -0.0886
35933SOL    HW111297   1.894   5.590   8.796  1.0902  0.4337 -0.6902
35933SOL    HW211298   1.872   5.628   8.651 -0.6062  0.5602 -0.4228
35934SOL     OW11299   5.153   3.687   3.384  0.0835 -0.2058  0.5098
35934SOL    HW111300   5.151   3.777   3.417  2.2864 -0.0016  0.2092
35934SOL    HW211301   5.193   3.636   3.454  0.2597 -0.6735  0.0747
35935SOL     OW11302   6.750  10.070  10.016  0.0788 -0.2892 -0.3142
35935SOL    HW111303   6.760  10.110  10.103 -2.3591 -0.0419 -0.0760
35935SOL    HW211304   6.760  10.143   9.955  1.9334 -0.4854 -0.3162
35936SOL     OW11305   0.798   3.489   5.784 -0.0178  0.5529  0.0313
35936SOL    HW111306   0.707   3.512   5.802  0.6437  1.7516  2.1193
35936SOL    HW211307   0.811   3.513   5.692 -2.0301 -0.5328 -0.5913
35937SOL     OW11308   0.726   8.239   3.466  0.1669  0.0667  0.2066
35937SOL    HW111309   0.751   8.325   3.431  3.2700 -0.7071  0.1662
35937SOL    HW211310   0.736   8.248   3.561  1.0054 -0.3282  0.1707
35938SOL     OW11311   5.696   9.154   9.225  0.5752 -0.4338 -0.4360
35938SOL    HW111312   5.680   9.110   9.308  0.6593  0.2912 -0.0234
35938SOL    HW211313   5.790   9.146   9.211  0.9457  1.3795  0.6930
35939SOL     OW11314   6.267   6.981   3.379 -0.1621 -0.1553  0.2440
35939SOL    HW111315   6.299   7.020   3.460  1.6545  2.5343 -1.5888
35939SOL    HW211316   6.175   7.007   3.374 -0.1169  0.1967  1.1051
35940SOL     OW11317   5.048   5.404   3.282  0.3716  0.7404  0.1071
35940SOL    HW111318   4.954   5.386   3.283  0.7425 -1.6642  0.9462
35940SOL    HW211319   5.064   5.453   3.363 -0.0831  0.5783  0.2988
35941SOL     OW11320   1.577   4.250   2.398 -0.1220 -0.7050 -0.1269
35941SOL    HW111321   1.569   4.156   2.415  0.0262 -1.0447 -1.7401
35941SOL    HW211322   1.489   4.284   2.413  0.2619 -0.6566  2.5934
35942SOL     OW11323   1.369   2.600   6.966  0.3598 -0.1127  0.2456
35942SOL    HW111324   1.276   2.582   6.950 -0.4930  2.6953  1.4416
35942SOL    HW211325   1.414   2.565   6.889 -1.7396 -0.9572 -0.6728
35943SOL     OW11326   8.582   8.014   9.536 -0.1574 -0.0643  0.1524
35943SOL    HW111327   8.492   8.008   9.570 -0.3429 -1.9548 -0.5388
35943SOL    HW211328   8.637   7.992   9.611 -0.3673 -0.4220  0.2054
35944SOL     OW11329   3.156   6.745   8.398  0.5918  0.1101 -0.4396
35944SOL    HW111330   3.096   6.675   8.374  1.2033 -0.3138 -0.7779
35944SOL    HW211331   3.165   6.798   8.319 -2.5414  2.6558  0.7267
35945SOL     OW11332   3.682   7.525   7.216 -0.2599  0.2592  0.1431
35945SOL    HW111333   3.732   7.525   7.134  0.6531 -0.7405  0.6786
35945SOL    HW211334   3.738   7.569   7.279 -0.2136 -0.4888  0.6412
35946SOL     OW11335   1.987  10.740   3.556 -0.2485 -0.1632 -0.2774
35946SOL    HW111336   2.073  10.779   3.569 -0.0834 -0.5242 -0.2562
35946SOL    HW211337   1.926  10.803   3.594  0.0396 -0.1014  0.0902
35947SOL     OW11338   5.592  10.217   1.624  0.3527  0.0732 -0.5411
35947SOL    HW111339   5.555  10.254   1.544 -1.5932 -1.2556 -0.3212
35947SOL    HW211340   5.674  10.265   1.637  0.4074  0.7599 -2.9561
35948SOL     OW11341   8.211   9.037  10.984  0.4412  0.9654  0.1799
35948SOL    HW111342   8.120   9.011  10.999 -0.1923  2.0554 -1.4371
35948SOL    HW211343   8.240   9.073  11.068 -0.2264 -0.4090  1.0403
35949SOL     OW11344   0.297   1.061   7.544  0.4940  0.5777 -0.2362
35949SOL    HW111345   0.365   0.994   7.550 -0.2352 -0.1438  0.2160
35949SOL    HW211346   0.340   1.141   7.573  0.6480 -0.2506  2.0179
35950SOL     OW11347   8.137   8.802   5.181 -0.2220 -0.3005 -0.0167
35950SOL    HW111348   8.128   8.717   5.224  1.6608  0.4538  2.0892
35950SOL    HW211349   8.069   8.856   5.222  0.7725  0.0792  1.1977
35951SOL     OW11350   0.924   8.425   4.859  0.7304  0.7125  0.0182
35951SOL    HW111351   0.964   8.342   4.832  0.4148 -0.0151  1.6586
35951SOL    HW211352   0.831   8.414   4.840  0.8365  1.1332 -0.7756
35952SOL     OW11353   4.436   3.133   0.809 -0.6681 -0.0084  0.1303
35952SOL    HW111354   4.473   3.210   0.851 -0.3849  0.3850 -0.8211
35952SOL    HW211355   4.396   3.166   0.729 -0.8780 -0.7947 -0.1008
35953SOL     OW11356  10.776   5.879   5.790 -0.1660  0.2891 -0.1744
35953SOL    HW111357  10.738   5.791   5.786 -1.2420  0.7672 -1.1319
35953SOL    HW211358  10.701   5.937   5.774  0.5605  1.3701  0.2852
35954SOL     OW11359   0.947   9.029   2.275 -0.4480 -0.3575  0.5122
35954SOL    HW111360   1.018   8.999   2.218 -1.0163  1.0384 -1.0015
35954SOL    HW211361   0.985   9.026   2.363  1.3427 -0.1376 -0.1927
35955SOL     OW11362   7.490   6.609   2.971  0.3883  0.1875  0.5413
35955SOL    HW111363   7.574   6.640   3.005  1.5599 -1.3660 -0.7767
35955SOL    HW211364   7.506   6.517   2.949 -2.0249 -0.5040  1.3580
35956SOL     OW11365   7.485   6.011   8.919 -0.1739  0.2017 -0.2541
35956SOL    HW111366   7.509   5.990   9.009 -1.3748 -0.4859 -0.0713
35956SOL    HW211367   7.569   6.021   8.873  0.4512  0.7480  0.9673
35957SOL     OW11368   6.801   4.343   3.320 -0.3465 -0.5757 -0.1418
35957SOL    HW111369   6.813   4.339   3.225 -0.9740  0.1162 -0.2630
35957SOL    HW211370   6.868   4.403   3.351 -0.6991 -0.1124 -0.2654
35958SOL     OW11371   9.712   7.473   7.365 -0.2910 -0.3852  0.1065
35958SOL    HW111372   9.774   7.517   7.306 -0.7265  0.1536  0.0322
35958SOL    HW211373   9.758   7.466   7.448 -1.1698  2.9125  1.0204
35959SOL     OW11374   2.508   4.954   5.850  0.3671 -0.2204  0.0091
35959SOL    HW111375   2.583   4.893   5.847  1.5241  1.0975  0.7664
35959SOL    HW211376   2.491   4.966   5.943 -0.0511  0.3694 -0.1414
35960SOL     OW11377   5.945   5.732   4.426  0.0334 -0.1097 -0.0568
35960SOL    HW111378   5.998   5.802   4.464 -1.4600  1.1103 -0.0875
35960SOL    HW211379   5.863   5.735   4.475 -0.0914 -1.8551 -0.0823
35961SOL     OW11380   3.232   9.230   4.637  0.2707 -0.4342 -0.3857
35961SOL    HW111381   3.210   9.140   4.662 -0.4622  0.1942  1.4302
35961SOL    HW211382   3.154   9.262   4.592 -0.4006 -0.0063  1.0270
35962SOL     OW11383   9.508   6.110   7.894 -0.6012  0.8631 -0.1657
35962SOL    HW111384   9.558   6.063   7.961  0.0918  1.8722  0.0629
35962SOL    HW211385   9.437   6.051   7.870 -1.1439  0.6343  1.7869
35963SOL     OW11386   6.051   2.756  10.195 -0.2363  0.3098  0.3583
35963SOL    HW111387   6.008   2.699  10.131 -0.8474  0.5292  0.5677
35963SOL    HW211388   6.026   2.845  10.170 -0.1851  0.4189  0.6836
35964SOL     OW11389   1.319   3.579   8.490  0.3960 -0.1202 -0.1029
35964SOL    HW111390   1.403   3.595   8.447  0.4536 -0.4406 -0.1124
35964SOL    HW211391   1.266   3.536   8.422  0.4808 -0.6078  0.1337
35965SOL     OW11392   1.911   1.840   5.681 -0.9178 -0.2912 -0.4660
35965SOL    HW111393   1.938   1.875   5.766  2.5342 -0.7032 -1.2207
35965SOL    HW211394   1.889   1.749   5.698 -2.8492  0.2649  0.3233
35966SOL     OW11395  10.558   4.445   3.326  0.1924 -0.2977  0.4312
35966SOL    HW111396  10.477   4.485   3.358  0.8569  1.1091  0.4737
35966SOL    HW211397  10.553   4.354   3.354 -1.8256 -0.5139 -0.4680
35967SOL     OW11398   5.112  10.400   3.709  0.5327 -0.3723 -0.1044
35967SOL    HW111399   5.176  10.374   3.775  1.9258 -0.9083 -1.6041
35967SOL    HW211400   5.110  10.495   3.713  0.8970 -0.3859  0.4489
35968SOL     OW11401   4.215   6.342   4.770 -0.1240  0.3937  0.2490
35968SOL    HW111402   4.151   6.385   4.714  1.0966  0.8214 -0.8827
35968SOL    HW211403   4.245   6.411   4.829  1.3465  1.0031 -1.1270
35969SOL     OW11404   8.509  10.245  10.182  0.2344 -0.5116  0.3372
35969SOL    HW111405   8.498  10.313  10.116  2.1895  0.4377  0.9264
35969SOL    HW211406   8.420  10.222  10.208 -0.5658 -0.3624 -2.0219
35970SOL     OW11407   7.255   5.307   0.922 -0.2260  0.5646 -0.0249
35970SOL    HW111408   7.351   5.302   0.927 -0.2631  0.9574  2.8795
35970SOL    HW211409   7.238   5.395   0.888  0.4441  0.7134  0.0102
35971SOL     OW11410   4.843   2.806   5.702  0.3250 -0.2103  0.4729
35971SOL    HW111411   4.885   2.720   5.705 -1.3195 -1.0759  0.0841
35971SOL    HW211412   4.750   2.786   5.692 -0.0567  1.6409  0.0716
35972SOL     OW11413   6.020   2.145   2.980  0.0956 -0.1285  0.0120
35972SOL    HW111414   5.951   2.210   2.967  1.3313  1.0263 -1.1950
35972SOL    HW211415   6.099   2.197   2.993  0.6293 -1.4152  2.2503
35973SOL     OW11416   9.175   6.937   7.494  0.1855 -0.6677  0.4515
35973SOL    HW111417   9.080   6.928   7.504  0.0557  0.6128  0.5668
35973SOL    HW211418   9.210   6.922   7.581  0.0161 -0.3975  0.5676
35974SOL     OW11419   3.230   8.617   5.154  0.1925  0.3835  0.2729
35974SOL    HW111420   3.155   8.645   5.206  1.8258  0.7638  2.5575
35974SOL    HW211421   3.271   8.548   5.206 -0.2065 -2.0237 -2.3442
35975SOL     OW11422   8.990  10.029   1.581 -0.3071 -0.5912 -0.2150
35975SOL    HW111423   9.059  10.090   1.609 -0.2469 -0.5128 -0.5362
35975SOL    HW211424   8.910  10.066   1.617 -0.5288  0.6354 -1.8752
35976SOL     OW11425   7.127   6.646   6.838  0.8833  0.5942 -0.0515
35976SOL    HW111426   7.047   6.688   6.806  0.2906  0.5975  1.3658
35976SOL    HW211427   7.147   6.692   6.920  1.0448 -0.8971  0.7777
35977SOL     OW11428   3.941   2.695   3.883  0.2095  0.2978  0.7734
35977SOL    HW111429   3.862   2.713   3.831 -0.4023  0.4399  1.7344
35977SOL    HW211430   3.987   2.627   3.834  0.2220  1.2254 -0.5423
35978SOL     OW11431   7.752   0.942   5.510  0.0753 -0.2559 -0.3348
35978SOL    HW111432   7.780   0.913   5.424  1.1906 -1.7236  0.4709
35978SOL    HW211433   7.830   0.979   5.551 -0.0951 -0.7853  0.5116
35979SOL     OW11434   7.190   7.131   4.907 -0.0317  0.2774 -0.0577
35979SOL    HW111435   7.099   7.113   4.884  0.4224 -0.0320 -1.6962
35979SOL    HW211436   7.206   7.220   4.875  1.0300 -0.6814 -2.4285
35980SOL     OW11437   6.696   6.874   1.748 -0.3747 -0.5303  0.3895
35980SOL    HW111438   6.762   6.934   1.713 -0.0667 -0.6809  0.7149
35980SOL    HW211439   6.612   6.913   1.722 -0.1646 -0.2077  0.1937
35981SOL     OW11440   6.615   2.899   2.005 -0.5060  0.1032 -0.5501
35981SOL    HW111441   6.583   2.832   1.944  0.0161 -0.6143 -0.0662
35981SOL    HW211442   6.704   2.917   1.975  0.4444 -1.5876  0.9995
35982SOL     OW11443   7.902   2.537   9.977 -0.1606  0.0841  0.0347
35982SOL    HW111444   7.948   2.530  10.060  0.5418  0.5437 -0.3040
35982SOL    HW211445   7.825   2.481   9.987  1.4327 -2.2435 -0.0760
35983SOL     OW11446   0.218   6.609   0.289  0.3627  0.3729  0.3435
35983SOL    HW111447   0.292   6.656   0.327  0.4982 -0.0846  0.6529
35983SOL    HW211448   0.251   6.576   0.205  0.5691  0.0111  0.5652
35984SOL     OW11449   2.722   2.886   1.592 -0.7671 -0.5271 -0.0674
35984SOL    HW111450   2.700   2.826   1.521 -2.2477 -0.8634  0.6407
35984SOL    HW211451   2.775   2.833   1.652 -0.0033 -0.4053 -0.6152
35985SOL     OW11452   8.325   7.427   8.325 -0.0204  0.2929 -0.7365
35985SOL    HW111453   8.370   7.425   8.409 -0.7453 -0.4871 -0.3442
35985SOL    HW211454   8.332   7.518   8.295  0.1396  0.6078  0.2308
35986SOL     OW11455   9.646   4.260  10.049  0.6196  0.6637 -0.1449
35986SOL    HW111456   9.628   4.324   9.980 -1.3177  0.0807 -0.2377
35986SOL    HW211457   9.654   4.176  10.002  1.2733  0.5533  0.1564
35987SOL     OW11458   6.426   3.511   2.384  0.6983 -0.1135 -0.0931
35987SOL    HW111459   6.343   3.542   2.347  1.6709  2.6929 -0.1724
35987SOL    HW211460   6.492   3.537   2.320  1.8997  0.2876  1.2457
35988SOL     OW11461   4.944   0.800   7.517 -0.7058  0.5586  0.5636
35988SOL    HW111462   4.958   0.780   7.424 -1.3541  0.8582  0.3971
35988SOL    HW211463   4.960   0.894   7.524  0.6162  0.3335  1.0175
35989SOL     OW11464   0.292   0.821   9.154 -0.0861  0.1562  0.2076
35989SOL    HW111465   0.266   0.768   9.079  1.3698  0.0335 -0.2330
35989SOL    HW211466   0.209   0.843   9.198 -0.9154 -0.1377 -1.1663
35990SOL     OW11467   6.169   5.031   8.845 -0.1692 -0.2839  0.3362
35990SOL    HW111468   6.178   5.109   8.790  0.1781 -1.6556 -1.6620
35990SOL    HW211469   6.080   5.038   8.880 -0.6108  0.3858 -0.8405
35991SOL     OW11470  10.961   8.096   7.818 -0.6689 -0.4627  0.2269
35991SOL    HW111471  11.016   8.081   7.741  0.0724 -0.0829  0.6765
35991SOL    HW211472  10.921   8.011   7.836 -2.9123 -0.0298 -2.1130
35992SOL     OW11473   1.060   0.055   7.940  0.9939  0.1184 -0.0794
35992SOL    HW111474   1.010  -0.026   7.955  0.1546  0.4152 -1.1906
35992SOL    HW211475   1.024   0.118   8.003  1.1265 -0.1344  0.2578
35993SOL     OW11476  10.235   4.997   2.081  0.2046  0.0249 -0.4557
35993SOL    HW111477  10.227   5.059   2.009  1.1500 -0.1872 -0.7614
35993SOL    HW211478  10.151   5.002   2.126 -0.3035  0.3677 -1.4015
35994SOL     OW11479   4.627  10.847   0.386  0.5863  0.3923  0.4358
35994SOL    HW111480   4.682  10.815   0.315  1.3878 -0.6108  1.4593
35994SOL    HW211481   4.658  10.799   0.463 -2.6140 -1.2870  0.8492
35995SOL     OW11482   6.023   2.838   9.802  0.4079  0.2862 -0.3080
35995SOL    HW111483   5.989   2.749   9.797  1.1069  0.0467 -1.1754
35995SOL    HW211484   5.960   2.886   9.855  0.1665 -0.7973  0.4041
35996SOL     OW11485   5.406   6.859   4.054 -0.2396  0.1115  0.1560
35996SOL    HW111486   5.312   6.874   4.043 -0.0724  0.9029 -0.2815
35996SOL    HW211487   5.419   6.860   4.149 -1.1634 -3.3411  0.4445
35997SOL     OW11488   6.782   7.074  10.695  0.0640 -0.2708 -0.3348
35997SOL    HW111489   6.835   7.040  10.766 -1.1228 -1.2813  0.1021
35997SOL    HW211490   6.700   7.024  10.700 -0.0560 -0.3551 -2.3923
35998SOL     OW11491   8.971   7.873   9.247  0.6402 -0.7939  0.5545
35998SOL    HW111492   9.062   7.858   9.222  0.6109  0.9533 -0.8228
35998SOL    HW211493   8.976   7.924   9.327  0.7974 -2.7692  1.8597
35999SOL     OW11494   6.620  10.123   5.472  0.6899 -0.4585 -0.1646
35999SOL    HW111495   6.562  10.198   5.486  2.8859  1.1126  1.0234
35999SOL    HW211496   6.627  10.115   5.377  2.3763  2.5486 -0.4221
36000SOL     OW11497   0.014   6.360   1.744 -0.0662 -0.0027  0.1932
36000SOL    HW111498   0.048   6.390   1.828 -0.9272 -1.2014  0.9946
36000SOL    HW211499   0.029   6.266   1.744 -2.1661 -0.3827  0.0349
36001SOL     OW11500   7.036   8.761   3.614  0.2474 -0.2817 -0.1082
36001SOL    HW111501   7.069   8.672   3.603  2.3857  0.3570  0.7771
36001SOL    HW211502   7.071   8.809   3.540 -3.2059 -0.6631 -2.2198
36002SOL     OW11503  10.240   0.219   2.047 -0.1397 -0.0215 -0.1346
36002SOL    HW111504  10.262   0.275   2.122 -1.1060  1.4330 -0.8774
36002SOL    HW211505  10.174   0.159   2.080 -1.4601  1.3987 -0.0428
36003SOL     OW11506   4.076   7.945   3.537 -0.1468 -0.3005  0.2976
36003SOL    HW111507   4.014   7.983   3.475 -1.7963 -1.4349  1.2077
36003SOL    HW211508   4.092   8.014   3.601 -2.8974 -0.9411  1.7818
36004SOL     OW11509   1.916   9.390   5.730  0.0942  0.1406 -0.3112
36004SOL    HW111510   1.924   9.433   5.645  1.1134 -0.8269 -0.7488
36004SOL    HW211511   1.862   9.448   5.783 -0.4439  0.8285 -1.5801
36005SOL     OW11512   7.420   7.218   3.380  0.0410  0.1599 -0.8937
36005SOL    HW111513   7.382   7.175   3.304  0.3668 -1.3750 -0.2446
36005SOL    HW211514   7.345   7.243   3.434 -0.1326 -0.5244 -0.8128
36006SOL     OW11515   2.294   1.864   5.611  0.5086  0.3935 -0.6655
36006SOL    HW111516   2.232   1.903   5.549  0.9482 -0.7170 -1.8373
36006SOL    HW211517   2.380   1.890   5.578  0.7808 -0.9216 -1.0503
36007SOL     OW11518   2.662   7.666   2.687  0.3156 -0.3563  0.1432
36007SOL    HW111519   2.663   7.673   2.592 -1.1406 -0.3692  0.1131
36007SOL    HW211520   2.590   7.606   2.707 -0.3008  0.7159  1.3086
36008SOL     OW11521   0.770   9.333   4.476  0.1856  0.0078 -0.2940
36008SOL    HW111522   0.718   9.293   4.546 -0.9716 -0.8849 -1.6032
36008SOL    HW211523   0.741   9.425   4.475  0.3462  0.0763  0.4876
36009SOL     OW11524  10.230   7.243  10.337  0.0784  0.9153  0.2570
36009SOL    HW111525  10.314   7.247  10.291  1.2255 -3.3940  1.5074
36009SOL    HW211526  10.186   7.166  10.300 -2.2251  1.5414  1.4533
36010SOL     OW11527   1.354   5.822   5.519 -0.4162 -0.1401 -0.0932
36010SOL    HW111528   1.376   5.892   5.458 -0.3771 -0.5057 -0.5035
36010SOL    HW211529   1.430   5.813   5.576 -0.2501 -0.1382 -0.3156
36011SOL     OW11530   1.902   4.258   6.244 -0.3044  0.1518 -0.0093
36011SOL    HW111531   1.896   4.275   6.150  1.0013  2.3526  0.2418
36011SOL    HW211532   1.993   4.278   6.266 -0.4363 -0.8915  1.6502
36012SOL     OW11533   6.723   8.674   3.605 -0.4434 -0.0719  0.3068
36012SOL    HW111534   6.814   8.702   3.595 -0.5977  0.2243 -0.3173
36012SOL    HW211535   6.698   8.640   3.519 -1.6197  1.9882 -0.2584
36013SOL     OW11536   9.068   5.395   9.292 -0.1354  0.0388  0.4331
36013SOL    HW111537   9.076   5.305   9.260  2.1122 -0.3529  1.8275
36013SOL    HW211538   9.070   5.449   9.214  0.1784 -1.0737 -0.3478
36014SOL     OW11539   1.657   0.381   4.574 -0.0529  0.6240 -0.2388
36014SOL    HW111540   1.604   0.362   4.652 -1.1710  2.4383 -0.4813
36014SOL    HW211541   1.593   0.389   4.503  0.8851 -0.2773 -1.2204
36015SOL     OW11542   0.237   0.965   0.026  0.5824  0.1386 -0.1378
36015SOL    HW111543   0.263   0.923  -0.056  1.7012  0.5287  0.0143
36015SOL    HW211544   0.317   0.972   0.076  0.5452  2.9018 -0.3381
36016SOL     OW11545   0.363   3.543   2.384  0.2636 -0.1105  0.3014
36016SOL    HW111546   0.316   3.579   2.309 -0.8320 -0.3278  0.8534
36016SOL    HW211547   0.403   3.619   2.426 -1.4567  0.4358  1.0656
36017SOL     OW11548   6.560   2.568   9.796 -0.1842  0.2743  0.1455
36017SOL    HW111549   6.566   2.515   9.875 -1.3197 -0.1701 -0.0470
36017SOL    HW211550   6.469   2.599   9.794  0.4942  2.4583  0.3843
36018SOL     OW11551  10.711   4.145   0.084 -0.0925  0.1215 -0.0679
36018SOL    HW111552  10.636   4.120   0.138  0.1134 -0.4853 -0.0569
36018SOL    HW211553  10.770   4.070   0.088  0.7134  0.7669  0.2627
36019SOL     OW11554   3.232   9.566   8.324  0.1510  0.1403 -0.0755
36019SOL    HW111555   3.279   9.649   8.318  0.4523 -0.1065 -1.5301
36019SOL    HW211556   3.161   9.574   8.261 -0.3031 -0.4029  0.3595
36020SOL     OW11557   2.339   5.721   8.996  0.0163  0.3237  0.0907
36020SOL    HW111558   2.323   5.702   9.088  0.9806 -2.6381 -0.2578
36020SOL    HW211559   2.424   5.766   8.995  0.3598 -0.2976  0.6193
36021SOL     OW11560   5.642   4.897   4.228 -0.1542 -0.0560  0.1707
36021SOL    HW111561   5.599   4.927   4.308  0.9396 -1.2048  1.2321
36021SOL    HW211562   5.570   4.868   4.172 -0.8686 -0.5728  1.3185
36022SOL     OW11563   4.024  10.009  10.887  0.4210 -0.2141 -0.2341
36022SOL    HW111564   3.961  10.043  10.825  1.2910 -0.6280 -1.3759
36022SOL    HW211565   4.039  10.081  10.948  0.3682  0.5733 -1.1426
36023SOL     OW11566   4.189   0.652   7.274  0.3828  0.5725 -0.7042
36023SOL    HW111567   4.100   0.659   7.239  0.3317 -1.0362 -0.9762
36023SOL    HW211568   4.235   0.728   7.237 -0.1572 -0.0555 -2.8611
36024SOL     OW11569   9.703   2.251   4.273  0.3648  0.3754 -0.3338
36024SOL    HW111570   9.761   2.327   4.278  0.5962  0.2250 -0.6963
36024SOL    HW211571   9.761   2.175   4.270  0.1236  0.1443  0.5521
36025SOL     OW11572   3.644   9.675  10.537  0.4687 -0.0299  0.2736
36025SOL    HW111573   3.599   9.691  10.620 -0.7002 -1.2839 -0.0955
36025SOL    HW211574   3.732   9.648  10.563  0.6385  1.1491  1.0344
36026SOL     OW11575  10.616   6.616   0.652  0.5258 -0.3736  0.0678
36026SOL    HW111576  10.678   6.623   0.724  0.8625  3.0500 -0.4345
36026SOL    HW211577  10.533   6.647   0.689  0.0228 -1.1945 -0.3325
36027SOL     OW11578   9.695   7.315   8.661 -0.1233 -0.1060 -0.0411
36027SOL    HW111579   9.779   7.347   8.626  0.1407 -1.0124 -0.2733
36027SOL    HW211580   9.637   7.390   8.655  0.1612  0.0353 -1.6294
36028SOL     OW11581   6.706   0.710   3.819 -0.1297  0.2660 -0.0193
36028SOL    HW111582   6.611   0.703   3.812 -0.0445 -0.7900 -0.2944
36028SOL    HW211583   6.729   0.647   3.887  0.5836 -1.3344 -1.6562
36029SOL     OW11584   6.957  10.136   3.420  0.6575 -0.1658  0.2140
36029SOL    HW111585   6.912  10.052   3.415 -0.5019  0.3537  1.2814
36029SOL    HW211586   6.905  10.194   3.365  1.1673 -0.0159 -0.1201
36030SOL     OW11587   6.583   5.180   7.348 -0.2402  0.1513  0.2826
36030SOL    HW111588   6.524   5.248   7.316 -0.2600  0.1177  0.2484
36030SOL    HW211589   6.641   5.160   7.274 -1.2311 -0.9824 -0.2238
36031SOL     OW11590   7.669   2.829   4.045 -0.0893 -0.2804  0.1706
36031SOL    HW111591   7.758   2.838   4.077 -0.0155 -1.9311  0.5114
36031SOL    HW211592   7.614   2.847   4.121  0.0267 -1.6382  0.5949
36032SOL     OW11593   3.674   3.251   4.602 -0.3770 -0.2341 -0.0063
36032SOL    HW111594   3.678   3.334   4.555 -2.7359 -0.0011  0.0800
36032SOL    HW211595   3.766   3.226   4.615  0.4887  3.0365  1.1704
36033SOL     OW11596   5.065   0.228   3.384 -0.4224 -0.5815 -0.0071
36033SOL    HW111597   5.038   0.257   3.471  1.0476  1.2661 -0.1159
36033SOL    HW211598   5.008   0.276   3.324 -1.1478 -1.5362 -0.1168
36034SOL     OW11599   9.074   2.814   4.621 -0.0461  0.3591  0.8116
36034SOL    HW111600   9.089   2.889   4.564  1.7057 -2.3161 -2.6051
36034SOL    HW211601   9.149   2.813   4.680  0.0996  1.0889  0.6438
36035SOL     OW11602   6.055   2.158   9.101  0.0608  0.2889  0.2701
36035SOL    HW111603   6.094   2.244   9.118  1.1618 -0.2131  0.3193
36035SOL    HW211604   5.962   2.177   9.086  0.5358  1.6874 -1.2700
36036SOL     OW11605   3.897  10.960   9.942  0.0414 -0.4299 -0.0870
36036SOL    HW111606   3.952  10.960  10.020 -1.1577  1.1761  0.8121
36036SOL    HW211607   3.953  10.997   9.874  0.1482  1.1649  0.8139
36037SOL     OW11608   2.278   2.172   0.807 -0.2719  0.3244  0.5000
36037SOL    HW111609   2.223   2.249   0.819  0.5119  1.0027 -0.1625
36037SOL    HW211610   2.217   2.102   0.782 -0.8089  1.1587 -0.6154
36038SOL     OW11611   3.810   6.999   0.698 -0.1322  0.0414  0.0475
36038SOL    HW111612   3.807   6.992   0.602 -2.2684  1.6813 -0.0851
36038SOL    HW211613   3.821   6.909   0.729 -0.4305 -0.6358 -1.7060
36039SOL     OW11614   2.977   9.554   7.659  0.2676 -0.1720 -0.1373
36039SOL    HW111615   3.043   9.574   7.593  0.5771  1.0153  0.4971
36039SOL    HW211616   3.018   9.489   7.715  0.3124 -0.5733 -0.6278
36040SOL     OW11617   8.157   7.077   4.319  0.2969  0.1818 -0.4958
36040SOL    HW111618   8.069   7.114   4.319  0.3968  0.4160 -0.4446
36040SOL    HW211619   8.161   7.023   4.398 -0.0535 -0.4231 -0.8825
36041SOL     OW11620   6.000   5.076  10.135  0.2381  0.0587 -0.2570
36041SOL    HW111621   5.995   5.088  10.230  0.8975 -0.2310 -0.1769
36041SOL    HW211622   6.033   4.987  10.124 -0.1608 -0.0286 -0.7658
36042SOL     OW11623   6.974   7.374   0.112 -0.8400 -0.6104 -0.1180
36042SOL    HW111624   7.013   7.389   0.198  3.3102  2.2279 -2.1690
36042SOL    HW211625   7.041   7.328   0.062 -2.7816 -1.4300 -2.1625
36043SOL     OW11626   0.746   9.863   7.187  0.1943  0.6820 -0.0289
36043SOL    HW111627   0.821   9.922   7.182 -0.0160  0.8806 -0.9637
36043SOL    HW211628   0.744   9.818   7.102 -1.4605  1.5953 -0.5191
36044SOL     OW11629   7.171   6.796   0.557  0.8472 -0.2448  0.4781
36044SOL    HW111630   7.245   6.851   0.533  0.1507  1.5800  2.2404
36044SOL    HW211631   7.200   6.750   0.636  0.3487 -0.0211  0.7965
36045SOL     OW11632   7.659   0.052   4.917  0.3867 -0.2467  0.0259
36045SOL    HW111633   7.632   0.104   4.992 -0.4794  2.2001 -1.8389
36045SOL    HW211634   7.592  -0.016   4.910 -1.7869  1.8211 -0.6996
36046SOL     OW11635   5.336   4.454   2.392 -0.3571 -0.3630  0.7633
36046SOL    HW111636   5.301   4.449   2.303 -0.9981  0.4958  0.9552
36046SOL    HW211637   5.415   4.399   2.389 -0.6906 -0.8287 -0.1698
36047SOL     OW11638   3.396   7.682   8.759  0.4785  0.4877 -0.2987
36047SOL    HW111639   3.436   7.730   8.687  1.5553 -0.5578 -0.4418
36047SOL    HW211640   3.467   7.671   8.823 -0.4212  1.2708  0.8740
36048SOL     OW11641   9.145   5.517   4.034 -0.0441  0.1276  0.1243
36048SOL    HW111642   9.163   5.577   4.105 -0.3315  0.4744 -0.0924
36048SOL    HW211643   9.051   5.499   4.041  0.2375 -1.1477  0.8477
36049SOL     OW11644   9.582   3.455   8.699  0.1072 -0.0205  0.5067
36049SOL    HW111645   9.584   3.484   8.790 -1.2820  0.5581  0.3682
36049SOL    HW211646   9.574   3.359   8.704  0.1217  0.0023  0.9826
36050SOL     OW11647   5.047   0.111   1.980  0.5780  0.2670 -0.0775
36050SOL    HW111648   5.133   0.140   2.009  0.5344  0.8035 -0.4683
36050SOL    HW211649   4.986   0.177   2.014  0.2492 -0.4251  0.7050
36051SOL     OW11650   2.003   7.112   0.591 -0.3241 -0.0244  0.7195
36051SOL    HW111651   1.996   7.065   0.508 -0.4696  0.9328  0.1765
36051SOL    HW211652   2.090   7.090   0.624 -0.0143  0.0953 -0.0048
36052SOL     OW11653   1.074   9.782   2.950  0.6876  0.2120 -0.4896
36052SOL    HW111654   1.071   9.790   3.045 -0.1993 -1.0857 -0.3912
36052SOL    HW211655   1.164   9.758   2.931 -0.0093 -3.9382  0.4700
36053SOL     OW11656   1.960   8.945   4.459  0.5911 -0.3288 -0.1113
36053SOL    HW111657   1.922   8.942   4.371 -0.1925 -0.5507  0.2243
36053SOL    HW211658   1.895   8.902   4.514  0.2721  1.3473  0.8815
36054SOL     OW11659  10.160   6.014   6.913  0.3243 -0.4685 -0.4843
36054SOL    HW111660  10.246   6.013   6.955 -0.0047 -0.8449  0.2038
36054SOL    HW211661  10.102   5.971   6.976 -0.7469  1.4377 -0.0876
36055SOL     OW11662   1.102   7.728   8.314 -0.5342 -0.0534 -0.0080
36055SOL    HW111663   1.123   7.635   8.325  0.3262  0.1274 -0.0158
36055SOL    HW211664   1.031   7.745   8.375 -2.5062 -1.3067 -1.8177
36056SOL     OW11665   2.445   5.779   8.366 -0.1017  0.3717  0.1521
36056SOL    HW111666   2.462   5.863   8.408  0.6346  0.4279 -0.2444
36056SOL    HW211667   2.530   5.735   8.365 -0.4597 -0.3492  0.2805
36057SOL     OW11668   4.609  10.061   3.566 -0.3628  0.3476  0.6015
36057SOL    HW111669   4.647  10.046   3.653 -0.5765  0.2588  0.6799
36057SOL    HW211670   4.559  10.141   3.576 -0.7068  0.1272  0.6648
36058SOL     OW11671   0.385   1.373   0.805 -0.2682  0.0032 -0.5649
36058SOL    HW111672   0.412   1.459   0.837  0.5957 -0.9014  1.3317
36058SOL    HW211673   0.293   1.384   0.783 -0.3343  1.2802  0.2085
36059SOL     OW11674   3.495   3.660   9.244 -0.4319  0.1531  0.4044
36059SOL    HW111675   3.441   3.719   9.297  0.5937  0.8459  0.7267
36059SOL    HW211676   3.472   3.681   9.154 -0.6912  0.4522  0.5346
36060SOL     OW11677   5.837   6.387   6.151  0.0448  0.3316 -0.3488
36060SOL    HW111678   5.889   6.414   6.226 -0.7211 -0.3558  0.4442
36060SOL    HW211679   5.748   6.381   6.184 -0.4144  0.6391 -1.4746
36061SOL     OW11680   3.621   4.154  10.598  0.2549 -0.3909 -0.2473
36061SOL    HW111681   3.659   4.066  10.589 -2.0298 -1.7375  1.9557
36061SOL    HW211682   3.655   4.187  10.680  0.0093  0.1938 -0.3747
36062SOL     OW11683   8.466   7.044   3.800  0.1765  0.0175 -0.2445
36062SOL    HW111684   8.536   7.104   3.771  0.9645 -1.0092 -0.5074
36062SOL    HW211685   8.511   6.977   3.850 -0.9175  0.5499  1.5451
36063SOL     OW11686   4.540   1.015   2.149 -0.8746 -0.0646  0.1670
36063SOL    HW111687   4.617   1.062   2.119 -0.5470 -2.4429 -3.2714
36063SOL    HW211688   4.475   1.084   2.165  1.3980  1.8947  1.7835
36064SOL     OW11689   0.181   7.555   5.841  0.3780 -0.0408 -0.4296
36064SOL    HW111690   0.166   7.507   5.760 -0.1436 -0.2378 -0.2207
36064SOL    HW211691   0.126   7.634   5.832 -2.6358 -1.7622  1.2353
36065SOL     OW11692  10.357   8.577   5.809 -0.0984 -0.2230  0.0375
36065SOL    HW111693  10.382   8.614   5.893 -0.0621 -1.0602  0.4057
36065SOL    HW211694  10.331   8.487   5.829  0.1317 -0.5058 -0.8731
36066SOL     OW11695   6.016   9.444  10.757 -0.0883 -0.0898  0.5081
36066SOL    HW111696   5.932   9.398  10.769 -0.8716  0.5148 -2.0040
36066SOL    HW211697   6.072   9.381  10.713  0.4836 -0.1855  1.3568
36067SOL     OW11698   8.214   3.379   6.489 -0.2319  0.4243  0.0148
36067SOL    HW111699   8.219   3.350   6.398  0.1551 -0.6561  0.3733
36067SOL    HW211700   8.177   3.468   6.483  0.4625  0.6580 -1.2402
36068SOL     OW11701   8.616   8.181   2.080  0.1533  0.2015 -0.0434
36068SOL    HW111702   8.653   8.114   2.022  2.3205  1.2334  0.0388
36068SOL    HW211703   8.625   8.144   2.168 -1.6198 -0.6808 -0.1934
36069SOL     OW11704   2.673   1.569   9.956  0.2163 -0.1953 -0.6813
36069SOL    HW111705   2.622   1.490   9.939 -0.4835  0.2425 -0.6696
36069SOL    HW211706   2.608   1.634   9.983  0.8544  0.1985 -0.0376
36070SOL     OW11707   9.308   3.003  10.004 -0.6864 -0.1088 -0.1967
36070SOL    HW111708   9.259   2.924   9.982 -0.3013  0.2524 -2.6812
36070SOL    HW211709   9.367   3.016   9.930 -0.5960  2.3868  0.2284
36071SOL     OW11710   6.231   3.800  10.319 -0.4949 -0.0397  0.1956
36071SOL    HW111711   6.250   3.707  10.335  1.9644  0.2429 -0.5450
36071SOL    HW211712   6.301   3.847  10.365 -0.2868  1.3035 -1.3996
36072SOL     OW11713   7.440   7.521   1.140 -0.4193  0.3091 -0.1859
36072SOL    HW111714   7.535   7.526   1.130 -0.3544 -0.5364 -0.1176
36072SOL    HW211715   7.413   7.609   1.164  0.0899  1.1218 -2.3726
36073SOL     OW11716   5.561   3.462   2.224  0.1874 -0.0228  0.0716
36073SOL    HW111717   5.592   3.392   2.167 -0.7916 -0.6181  0.2382
36073SOL    HW211718   5.466   3.464   2.210  0.1533  1.0232  0.3485
36074SOL     OW11719   3.095   3.090   1.040  0.0856 -0.3158  0.2716
36074SOL    HW111720   3.069   3.011   0.992  2.7422 -0.3936 -1.2498
36074SOL    HW211721   3.038   3.159   1.007  0.3679 -0.8331 -1.3739
36075SOL     OW11722   8.575   4.333   8.313  0.0436  0.2388  0.0490
36075SOL    HW111723   8.533   4.248   8.323 -1.9799  1.1312 -0.4020
36075SOL    HW211724   8.622   4.327   8.230 -0.2926 -0.3682 -0.1026
36076SOL     OW11725  10.494   5.336   8.896  0.2263  0.0912  0.2261
36076SOL    HW111726  10.582   5.341   8.934  0.0702 -0.1880  0.6380
36076SOL    HW211727  10.503   5.372   8.808  0.6956  0.3191  0.3649
36077SOL     OW11728   2.858   2.063   9.068  0.7533 -0.5570 -0.3084
36077SOL    HW111729   2.883   2.071   8.976  0.5462  0.5889 -0.2816
36077SOL    HW211730   2.941   2.065   9.116  0.7953  0.0520 -0.4044
36078SOL     OW11731   1.674   5.865   3.076 -0.1124  0.3429  0.0786
36078SOL    HW111732   1.635   5.851   2.990  1.4135  0.8603 -0.7379
36078SOL    HW211733   1.604   5.845   3.138 -1.0949 -0.5445 -1.2614
36079SOL     OW11734   6.798   1.453   0.792  0.2658 -0.1940  0.0754
36079SOL    HW111735   6.747   1.405   0.858 -1.1402  0.9241 -0.1558
36079SOL    HW211736   6.852   1.386   0.751  2.4998 -0.7346  3.4460
36080SOL     OW11737   8.989   1.578   7.360  0.3959 -0.1401 -0.2959
36080SOL    HW111738   9.048   1.564   7.286  1.6672 -1.1954  0.8682
36080SOL    HW211739   8.978   1.673   7.365  0.4705 -0.0463 -1.6813
36081SOL     OW11740  10.231   7.851   7.373 -0.2434  0.7243  0.3999
36081SOL    HW111741  10.219   7.919   7.439 -0.9665  0.2763  0.7385
36081SOL    HW211742  10.202   7.892   7.291 -1.0696  0.6963  0.6710
36082SOL     OW11743   9.673   7.634  10.869 -0.2572 -0.4769 -0.5020
36082SOL    HW111744   9.640   7.552  10.906  2.1043 -1.6857 -0.8781
36082SOL    HW211745   9.601   7.696  10.879 -0.9826 -1.6584  2.8856
36083SOL     OW11746   2.427   1.195  10.218  0.8399 -0.0873 -0.5112
36083SOL    HW111747   2.510   1.214  10.174  0.6538  1.6084 -0.2125
36083SOL    HW211748   2.439   1.230  10.307 -0.6808  1.6049 -0.9026
36084SOL     OW11749   4.567   1.535   1.526 -0.1614  0.2631  0.2780
36084SOL    HW111750   4.502   1.566   1.463  0.1486  1.5040  0.5386
36084SOL    HW211751   4.651   1.553   1.483  0.0338  0.2357  0.6507
36085SOL     OW11752   7.753   4.150   8.477 -0.0022 -0.3740  0.1241
36085SOL    HW111753   7.779   4.157   8.385  0.2136  0.9057  0.2565
36085SOL    HW211754   7.783   4.063   8.504  1.4957 -0.1006 -0.5514
36086SOL     OW11755   2.689   7.901   3.084 -0.1877  0.0537  0.7214
36086SOL    HW111756   2.612   7.925   3.033  0.3513 -1.5184 -0.9499
36086SOL    HW211757   2.667   7.816   3.122  0.1878  0.2651  1.4260
36087SOL     OW11758   5.792   5.011  10.353  0.3732  0.3321 -0.0668
36087SOL    HW111759   5.749   4.982  10.434 -1.5954  0.5511 -0.9769
36087SOL    HW211760   5.836   4.932  10.320  0.9918  0.1813  1.0482
36088SOL     OW11761   6.246   0.980   5.433  0.5805 -0.4079 -0.0512
36088SOL    HW111762   6.283   0.914   5.374  2.7693 -0.9977  1.8108
36088SOL    HW211763   6.209   0.929   5.506 -1.2297  0.3302 -0.4050
36089SOL     OW11764   8.305   8.967   3.554 -0.1543  0.3284  0.1647
36089SOL    HW111765   8.372   8.998   3.614 -0.4709 -1.0280  1.2655
36089SOL    HW211766   8.238   8.929   3.610 -1.8966  1.6910 -0.9034
36090SOL     OW11767   7.809   0.714   7.384 -0.6460  0.5278  0.5056
36090SOL    HW111768   7.788   0.748   7.297 -1.4341 -0.9065  0.1179
36090SOL    HW211769   7.798   0.790   7.442  0.9395  1.7883 -0.7353
36091SOL     OW11770   4.478   9.504   8.960  0.0703 -0.1975  0.3741
36091SOL    HW111771   4.434   9.427   8.925  0.8493  0.2534 -1.7636
36091SOL    HW211772   4.517   9.474   9.043 -1.3542 -1.4929  0.6151
36092SOL     OW11773  10.725   4.910   3.286  0.7167 -0.1747 -0.0084
36092SOL    HW111774  10.745   4.959   3.206  0.4350 -0.6329 -0.3679
36092SOL    HW211775  10.637   4.874   3.270 -0.5342  1.9188  1.5758
36093SOL     OW11776   5.822   9.927   4.753 -0.4042 -0.3877  0.2544
36093SOL    HW111777   5.811   9.881   4.836  0.7378  0.5110  0.9401
36093SOL    HW211778   5.887   9.875   4.705 -1.1326 -0.9575 -0.1386
36094SOL     OW11779   5.857   6.907   3.243  0.4055 -0.1325  0.1411
36094SOL    HW111780   5.772   6.923   3.284 -0.3850  0.5139 -1.6687
36094SOL    HW211781   5.873   6.813   3.258 -2.7935 -1.4572 -3.1705
36095SOL     OW11782   6.818   8.589   6.979  0.6949 -0.7967  0.3766
36095SOL    HW111783   6.830   8.496   6.961 -1.0574 -0.9926 -0.0067
36095SOL    HW211784   6.783   8.625   6.897 -2.4603 -0.6654  1.6399
36096SOL     OW11785   0.079   8.554   0.621 -0.2213 -0.1343 -0.2734
36096SOL    HW111786   0.047   8.540   0.711  1.2738 -0.6594  0.2034
36096SOL    HW211787   0.017   8.504   0.567 -0.9408 -0.1024  0.4855
36097SOL     OW11788   6.222   9.227  10.672  0.2135 -0.0923 -0.1672
36097SOL    HW111789   6.262   9.146  10.638 -0.7638 -0.4899 -0.3997
36097SOL    HW211790   6.282   9.256  10.741 -1.0223 -2.8601  2.3167
36098SOL     OW11791   1.121   9.429   4.984  0.5911 -0.1019 -0.0199
36098SOL    HW111792   1.112   9.434   5.079 -0.0150 -2.2911  0.0863
36098SOL    HW211793   1.215   9.432   4.968  0.7106 -0.0160  0.6725
36099SOL     OW11794   7.574   0.298   7.255 -0.4717  1.2979  0.4031
36099SOL    HW111795   7.658   0.337   7.279 -0.5654  0.5007  2.1384
36099SOL    HW211796   7.597   0.225   7.197  0.0326  1.1301  0.8085
36100SOL     OW11797   5.332   7.966   3.009  0.2123 -0.2265 -0.1246
36100SOL    HW111798   5.288   7.980   2.925  2.3021 -1.6087 -1.5464
36100SOL    HW211799   5.291   8.029   3.068 -1.1487  1.0109 -2.2417
36101SOL     OW11800   6.189   7.192   4.573 -0.0106  0.3269 -0.1614
36101SOL    HW111801   6.215   7.109   4.613  0.6503  1.1396  1.1568
36101SOL    HW211802   6.149   7.166   4.489 -1.8052 -1.4516  1.1523
36102SOL     OW11803   9.251   9.317   7.026  0.3672 -0.1838 -0.0184
36102SOL    HW111804   9.282   9.387   7.084  1.4397 -1.0588  0.5029
36102SOL    HW211805   9.283   9.341   6.939  1.6543 -0.5418  0.3389
36103SOL     OW11806   4.858   5.521   3.819  0.2907  0.0106  0.4521
36103SOL    HW111807   4.793   5.582   3.853  0.4353  2.2971 -2.9543
36103SOL    HW211808   4.807   5.448   3.783 -0.4147  1.1995 -1.0834
36104SOL     OW11809   2.267   6.362  10.341  0.3780  0.9036  0.3081
36104SOL    HW111810   2.220   6.431  10.389 -0.4712  0.5692 -0.0306
36104SOL    HW211811   2.206   6.336  10.272  1.0936  0.4987 -0.1713
36105SOL     OW11812   6.865   3.168   1.426  0.0781  0.0450 -0.0289
36105SOL    HW111813   6.794   3.232   1.435  1.4221  1.8955 -1.8319
36105SOL    HW211814   6.930   3.196   1.490 -0.3852 -1.1643  1.0350
36106SOL     OW11815   2.129   2.352   5.211  0.5179  0.0748  0.8676
36106SOL    HW111816   2.132   2.346   5.116  1.4435  1.4519  0.7716
36106SOL    HW211817   2.036   2.361   5.232  0.4366  3.2942 -0.2434
36107SOL     OW11818   5.885   8.072   2.896  0.3144  0.0259 -0.1199
36107SOL    HW111819   5.952   8.052   2.962  0.0808  0.3624  0.2264
36107SOL    HW211820   5.802   8.069   2.944  0.2976  2.3543  0.1070
36108SOL     OW11821   7.001   7.283   1.997  0.5510  0.4577  0.0465
36108SOL    HW111822   7.061   7.256   1.927  0.8104  0.5343  0.2387
36108SOL    HW211823   6.915   7.258   1.965  0.5394  1.4870 -0.7950
36109SOL     OW11824   3.347   3.771   0.703  0.3143  0.1942 -0.3913
36109SOL    HW111825   3.382   3.760   0.615  0.1102 -0.0662 -0.4415
36109SOL    HW211826   3.350   3.866   0.718  1.4144  0.1478 -0.2332
36110SOL     OW11827   2.600   3.478   0.271 -0.0079 -0.1295  0.0665
36110SOL    HW111828   2.545   3.404   0.250 -0.5037  0.4288 -0.6559
36110SOL    HW211829   2.599   3.532   0.192 -1.0371  1.4947  1.1218
36111SOL     OW11830   0.580  10.033   5.403  0.2733  0.5889  0.1180
36111SOL    HW111831   0.503  10.042   5.348  2.1638  0.3949 -2.7446
36111SOL    HW211832   0.556   9.965   5.467 -2.0174  0.8129 -0.4257
36112SOL     OW11833   1.031   8.160   1.372  0.3847  0.1298  0.4995
36112SOL    HW111834   0.960   8.224   1.372  0.2907  0.0575 -0.6590
36112SOL    HW211835   1.030   8.122   1.459 -0.6228  0.5466  0.6793
36113SOL     OW11836   2.812   5.835   2.484 -0.5648  0.0027 -0.1608
36113SOL    HW111837   2.892   5.803   2.527 -0.6169 -0.6570 -0.5377
36113SOL    HW211838   2.826   5.929   2.475  0.7001 -0.2646 -1.2898
36114SOL     OW11839   3.690   1.248   2.001  0.3719 -0.5053  0.3582
36114SOL    HW111840   3.668   1.241   2.094 -1.1963 -0.4287  0.0123
36114SOL    HW211841   3.607   1.266   1.957  1.0977 -0.4387 -1.0587
36115SOL     OW11842   8.430   7.106   4.669 -0.5534 -0.8401 -0.0495
36115SOL    HW111843   8.430   7.058   4.752 -0.6231 -0.9674 -0.1224
36115SOL    HW211844   8.343   7.090   4.632 -0.3883 -1.1019 -0.3298
36116SOL     OW11845   5.913   1.663   3.977  0.2520 -0.5105  0.6288
36116SOL    HW111846   5.892   1.658   3.884  0.7931 -1.2795  0.5379
36116SOL    HW211847   5.890   1.753   4.002 -0.8419 -0.5955 -0.0056
36117SOL     OW11848   0.168   8.295   9.570  0.2584 -0.3644 -0.0923
36117SOL    HW111849   0.261   8.276   9.586  0.4303  1.2474  0.9711
36117SOL    HW211850   0.127   8.292   9.657 -0.8894 -1.9127 -0.6369
36118SOL     OW11851   7.448   6.065   8.539  0.3209 -0.4480 -0.1857
36118SOL    HW111852   7.423   6.112   8.619  1.1818 -1.2802  0.5961
36118SOL    HW211853   7.458   6.134   8.473 -1.3594  0.1684  0.1341
36119SOL     OW11854   0.909   9.000   8.550  0.0067  0.3669 -0.6298
36119SOL    HW111855   0.887   8.911   8.578  0.9879  0.4690  0.5427
36119SOL    HW211856   0.993   9.018   8.591 -0.8566  2.3780  0.4256
36120SOL     OW11857   5.296   5.813   3.026  0.2159  0.1905  0.1502
36120SOL    HW111858   5.362   5.864   3.074  1.1153 -0.5032 -0.3323
36120SOL    HW211859   5.224   5.803   3.089 -0.3790  2.7527  0.0043
36121SOL     OW11860   0.719   3.350   1.781 -0.3607  0.3797 -0.1540
36121SOL    HW111861   0.699   3.423   1.840 -0.4431 -0.1995  0.5565
36121SOL    HW211862   0.754   3.392   1.702 -0.1988  1.1749  0.3220
36122SOL     OW11863   0.211   8.477   3.423 -0.0925  0.0631  0.0692
36122SOL    HW111864   0.291   8.522   3.397  0.1627  1.0853  2.4167
36122SOL    HW211865   0.235   8.384   3.425  0.5029  0.1756 -0.9512
36123SOL     OW11866   1.843   3.921   5.452 -0.3234 -0.1485 -0.3595
36123SOL    HW111867   1.822   3.956   5.366  0.0176  1.6337  0.2446
36123SOL    HW211868   1.790   3.973   5.513  0.9245 -0.0188  0.6564
36124SOL     OW11869   6.770   2.386   2.349 -0.4343 -0.1220 -0.1017
36124SOL    HW111870   6.743   2.349   2.265 -1.1428 -0.2013  0.1479
36124SOL    HW211871   6.799   2.310   2.400 -1.2643 -0.2561  0.1815
36125SOL     OW11872   1.172   9.546   7.118  0.0984 -0.1078  0.3243
36125SOL    HW111873   1.210   9.514   7.036 -1.7385  0.3869 -0.7827
36125SOL    HW211874   1.240   9.531   7.183  1.4267 -1.0045 -1.1852
36126SOL     OW11875   5.251   1.138   4.978  0.3830 -0.1100  0.5984
36126SOL    HW111876   5.309   1.062   4.975 -0.1979 -0.8130  3.7563
36126SOL    HW211877   5.293   1.198   5.039 -1.3342  0.0890  1.6453
36127SOL     OW11878   7.512   5.603   4.186  0.4637  0.5010 -0.3671
36127SOL    HW111879   7.438   5.642   4.233 -1.4054 -1.4066 -1.5652
36127SOL    HW211880   7.532   5.665   4.117  1.0295  1.7451  0.8680
36128SOL     OW11881   3.679   2.279   7.142  0.7713 -0.0535 -0.9088
36128SOL    HW111882   3.678   2.319   7.228  0.7560 -2.5511  0.3378
36128SOL    HW211883   3.730   2.340   7.088  1.0764  1.4065  0.9254
36129SOL     OW11884  10.393   9.103   2.354 -0.6645  0.7953 -0.0152
36129SOL    HW111885  10.466   9.050   2.320  1.3645  1.0938  3.3846
36129SOL    HW211886  10.331   9.039   2.389 -1.6393  0.5851 -1.9487
36130SOL     OW11887  10.864   5.018   1.352 -0.1140  0.0176 -0.4534
36130SOL    HW111888  10.922   5.094   1.358 -1.4338  0.9747  0.9069
36130SOL    HW211889  10.920   4.944   1.374  0.7102  0.8606  0.3854
36131SOL     OW11890   6.010   5.878   1.820  0.3378  0.4726 -0.1606
36131SOL    HW111891   5.969   5.792   1.827  1.9285 -0.2967  0.0227
36131SOL    HW211892   5.996   5.918   1.906  1.7350 -0.6210  0.6126
36132SOL     OW11893   1.817   8.770  10.839  0.6482  0.1314  1.0100
36132SOL    HW111894   1.866   8.826  10.779  1.1366 -0.6057  0.7001
36132SOL    HW211895   1.794   8.827  10.912 -1.7992  1.6191 -0.7955
36133SOL     OW11896   9.181  10.838   8.358  0.7300  0.6836  0.2550
36133SOL    HW111897   9.107  10.783   8.333  1.6689 -1.6315  2.1481
36133SOL    HW211898   9.142  10.924   8.376 -1.0796  0.2026 -1.0595
36134SOL     OW11899  10.819   2.194   5.989  0.0362 -0.2688  0.0649
36134SOL    HW111900  10.818   2.233   6.077 -2.0267 -0.8174  0.3489
36134SOL    HW211901  10.749   2.240   5.942  0.0198 -1.1201 -0.7653
36135SOL     OW11902   4.427   4.405   7.511 -0.2407 -0.9750  0.5877
36135SOL    HW111903   4.343   4.374   7.478 -0.2634 -1.8751  1.4709
36135SOL    HW211904   4.410   4.496   7.537 -0.1232 -0.0514 -2.1887
36136SOL     OW11905   5.183   7.421   8.103  0.3215  0.2212  0.7532
36136SOL    HW111906   5.175   7.503   8.054 -1.1946 -0.1895  0.2660
36136SOL    HW211907   5.218   7.358   8.039 -1.9428 -0.3932  0.0071
36137SOL     OW11908   0.064   0.628   5.801  0.0171  0.0079  0.5251
36137SOL    HW111909  -0.008   0.583   5.846 -0.1099 -0.5093 -0.1944
36137SOL    HW211910   0.027   0.714   5.778 -0.2182 -0.0812  0.5663
36138SOL     OW11911   4.165   6.181   1.285 -0.1563 -0.3219 -0.2642
36138SOL    HW111912   4.176   6.090   1.314 -1.4212  0.3663  2.8977
36138SOL    HW211913   4.242   6.227   1.319 -0.4663  0.0965 -0.1098
36139SOL     OW11914   0.992   8.005   4.394  0.1709  0.3798  0.5327
36139SOL    HW111915   1.087   7.996   4.397  0.1192  0.0763  1.4467
36139SOL    HW211916   0.977   8.100   4.391  0.5183  0.4110 -0.7928
36140SOL     OW11917   6.623   2.677   3.832  0.0298 -0.3870 -0.2127
36140SOL    HW111918   6.645   2.675   3.925  0.3235 -0.8206 -0.2861
36140SOL    HW211919   6.621   2.585   3.806  1.1113 -0.2361 -0.9019
36141SOL     OW11920   6.548  10.548   4.369  0.0866  0.2784 -0.0597
36141SOL    HW111921   6.495  10.585   4.299 -1.0490  0.4453  0.8506
36141SOL    HW211922   6.612  10.493   4.325 -0.0419  1.0566 -1.2653
36142SOL     OW11923   6.556   9.103  10.620  0.2731 -0.4949 -0.4851
36142SOL    HW111924   6.509   9.088  10.538  2.0566  1.3673 -1.9511
36142SOL    HW211925   6.535   9.026  10.674 -2.0869 -1.0878 -2.0968
36143SOL     OW11926   6.132   7.490   9.607  0.6152 -0.4447 -0.1302
36143SOL    HW111927   6.105   7.491   9.699  0.3662  0.3299 -0.2065
36143SOL    HW211928   6.060   7.446   9.562  0.2430  0.1154 -0.0970
36144SOL     OW11929   5.184   1.750   5.136 -0.0391  0.6033  0.5345
36144SOL    HW111930   5.185   1.820   5.070  0.1904 -0.0669 -0.1885
36144SOL    HW211931   5.237   1.680   5.098  1.4644  0.8098  2.1326
36145SOL     OW11932   0.158   6.444   9.220 -0.1900 -0.0624  0.1972
36145SOL    HW111933   0.069   6.423   9.193  0.2235 -0.5665 -0.8042
36145SOL    HW211934   0.200   6.479   9.142 -0.3098  2.9393  1.3293
36146SOL     OW11935   5.991   6.681   7.684 -0.1139 -0.1769  0.1083
36146SOL    HW111936   5.947   6.651   7.604 -0.2394  1.1839 -0.3627
36146SOL    HW211937   5.928   6.739   7.726  1.0211  1.4918 -0.3735
36147SOL     OW11938   9.833   3.935   0.941  0.4165 -0.2177 -0.1265
36147SOL    HW111939   9.745   3.914   0.908  0.7952 -0.1879 -1.1951
36147SOL    HW211940   9.866   4.001   0.880  0.1312  1.8884  1.8488
36148SOL     OW11941   0.184   3.759   3.434 -0.3379 -0.1054  0.1713
36148SOL    HW111942   0.142   3.802   3.359 -1.2055 -0.5356  0.3929
36148SOL    HW211943   0.179   3.824   3.505 -3.5394 -1.1943  1.1234
36149SOL     OW11944   3.778   1.190   0.343 -0.2264 -0.1919  0.2817
36149SOL    HW111945   3.789   1.115   0.402 -0.3504  1.1376  2.0989
36149SOL    HW211946   3.686   1.187   0.318 -0.5711  0.1195  1.4650
36150SOL     OW11947   5.838   8.546   0.620 -0.0616  0.6897 -0.4039
36150SOL    HW111948   5.866   8.556   0.529 -0.3884  1.4082 -0.4297
36150SOL    HW211949   5.746   8.572   0.619 -0.5241 -0.8700 -0.1680
36151SOL     OW11950   4.448   5.419   6.185  0.0143  0.3860  0.7434
36151SOL    HW111951   4.507   5.413   6.261  1.3317 -1.4608 -0.3543
36151SOL    HW211952   4.369   5.460   6.220  0.6574 -0.1919  3.0793
36152SOL     OW11953   5.027   3.182   8.996  0.2757 -0.0907  0.2826
36152SOL    HW111954   5.039   3.272   9.027  1.1979 -0.4927  1.1537
36152SOL    HW211955   4.934   3.177   8.974  0.5316  1.5704 -1.4692
36153SOL     OW11956   0.528   6.556   3.093 -0.0887  0.0151 -0.4844
36153SOL    HW111957   0.434   6.563   3.106 -0.4063 -1.7043 -1.5095
36153SOL    HW211958   0.538   6.492   3.022  1.7600  1.8867 -2.0671
36154SOL     OW11959   5.174   7.781   8.995 -0.0570  0.1244 -0.0898
36154SOL    HW111960   5.258   7.818   8.969  0.4523 -0.9349 -0.0117
36154SOL    HW211961   5.111   7.852   8.983  0.8977  1.0256  0.1459
36155SOL     OW11962   3.850   3.224   2.170 -0.0965 -0.4742 -0.0662
36155SOL    HW111963   3.885   3.284   2.105  1.6208 -1.5846 -0.2354
36155SOL    HW211964   3.860   3.271   2.253  0.6363 -0.2717 -0.2615
36156SOL     OW11965   6.048  10.062   1.521  0.1594  0.2337 -0.3397
36156SOL    HW111966   6.027  10.024   1.606  0.6970 -0.9416 -0.7144
36156SOL    HW211967   6.058  10.156   1.539 -1.8223  0.3319  0.4845
36157SOL     OW11968   3.023   4.477   9.224 -1.3655 -0.2962 -0.5384
36157SOL    HW111969   3.001   4.396   9.268 -3.1256  0.8002  0.7293
36157SOL    HW211970   3.113   4.495   9.249 -1.0313 -1.6998 -0.6505
36158SOL     OW11971   0.621   4.604  10.331  0.0837 -0.3483 -0.0421
36158SOL    HW111972   0.550   4.659  10.364 -1.0277 -1.1658 -0.9712
36158SOL    HW211973   0.603   4.518  10.368  2.1882 -0.0278  1.9558
36159SOL     OW11974   7.807  10.357   2.924  0.2290 -0.0929  0.3313
36159SOL    HW111975   7.858  10.425   2.968  1.4042 -0.8777  0.2214
36159SOL    HW211976   7.746  10.406   2.869  2.4940  0.9709 -1.4548
36160SOL     OW11977   5.902  10.991   0.028 -0.5547  0.2160  0.2009
36160SOL    HW111978   5.924  10.949   0.111  0.0678 -1.8239 -0.9280
36160SOL    HW211979   5.954  10.944  -0.037 -1.7606  1.0910 -1.4695
36161SOL     OW11980   9.412  10.188   8.226 -0.2191 -0.3196 -0.7804
36161SOL    HW111981   9.399  10.255   8.293  0.0085 -0.6509 -0.3958
36161SOL    HW211982   9.376  10.226   8.146 -0.0882  0.2626 -0.5691
36162SOL     OW11983   1.339   1.748   5.193  0.3574 -0.4258 -0.1584
36162SOL    HW111984   1.346   1.747   5.098 -1.4151 -2.4207 -0.3451
36162SOL    HW211985   1.291   1.668   5.214  0.5518  0.0569  2.4076
36163SOL     OW11986   5.246   0.341   2.812  0.0595  0.5267  0.0413
36163SOL    HW111987   5.164   0.319   2.857 -0.1850  1.0782 -0.1195
36163SOL    HW211988   5.305   0.269   2.832 -1.0000 -0.7434 -1.2338
36164SOL     OW11989   5.556   2.820   7.219 -0.3822  0.0696  0.2474
36164SOL    HW111990   5.523   2.894   7.270  1.4278  0.5996  0.7246
36164SOL    HW211991   5.506   2.745   7.250 -1.2055  0.8504  0.8420
36165SOL     OW11992   8.995   1.312   8.816  0.4826  0.2333 -0.3369
36165SOL    HW111993   9.006   1.219   8.832 -0.0965 -0.1653 -2.0630
36165SOL    HW211994   8.901   1.328   8.823  0.8132  1.3605  3.0419
36166SOL     OW11995   3.761   7.025   8.583  0.5905 -0.4995  0.0667
36166SOL    HW111996   3.747   7.119   8.572 -0.3281 -0.1164  3.4089
36166SOL    HW211997   3.716   6.985   8.509 -1.7519  1.6101  0.2223
36167SOL     OW11998   5.567   7.681   6.601  0.3444 -0.4943  1.1063
36167SOL    HW111999   5.565   7.710   6.510  0.0790 -2.3255  0.4892
36167SOL    HW212000   5.475   7.678   6.628  0.3685 -0.6871  1.1736
36168SOL     OW12001   4.218   0.651   4.789  0.1424  0.3016  0.0731
36168SOL    HW112002   4.178   0.608   4.713 -0.9009 -0.3719  0.9874
36168SOL    HW212003   4.170   0.618   4.864  0.5612  1.6389  0.9747
36169SOL     OW12004   7.648   7.522   8.092 -0.4227  0.5559  0.2889
36169SOL    HW112005   7.555   7.520   8.068 -0.1853  3.0720 -1.2161
36169SOL    HW212006   7.649   7.563   8.179 -0.6844  2.7809 -0.6781
36170SOL     OW12007   6.361  10.930   6.161 -0.5821 -0.0690 -0.0263
36170SOL    HW112008   6.424  10.859   6.175  0.2375  0.7993  0.8924
36170SOL    HW212009   6.277  10.894   6.189 -0.2205 -0.7406  0.2251
36171SOL     OW12010  10.891   8.241   1.942 -0.7718  0.0138 -0.0448
36171SOL    HW112011  10.813   8.214   1.894 -0.3820  1.2780 -1.4452
36171SOL    HW212012  10.964   8.204   1.893 -0.4394 -0.8884  1.0772
36172SOL     OW12013   5.497   1.486  10.146  0.1539  0.0509  0.9023
36172SOL    HW112014   5.519   1.579  10.148  2.6493 -0.4489 -0.1816
36172SOL    HW212015   5.503   1.461  10.054 -1.2792 -1.0571  1.0595
36173SOL     OW12016   9.144   4.030   2.248  0.3711 -0.1679 -0.0001
36173SOL    HW112017   9.196   3.986   2.314  0.6257 -0.6092 -0.4835
36173SOL    HW212018   9.122   4.114   2.286  0.6984 -0.3303  0.5540
36174SOL     OW12019   2.547   6.864   2.420  0.1480 -0.0285  0.7173
36174SOL    HW112020   2.592   6.848   2.503 -1.4290 -2.7928  1.1756
36174SOL    HW212021   2.469   6.913   2.444 -0.2234 -0.6847  0.8866
36175SOL     OW12022   9.572   6.498   4.070  0.1258  0.4659 -0.3997
36175SOL    HW112023   9.534   6.410   4.072  1.4468 -0.1140  0.8724
36175SOL    HW212024   9.661   6.486   4.103 -0.0097  2.4565  0.8229
36176SOL     OW12025   2.377   8.684   1.208 -0.1209  0.1875  0.5814
36176SOL    HW112026   2.464   8.687   1.167  0.1686  1.0461  1.2149
36176SOL    HW212027   2.339   8.770   1.188 -1.4371 -0.7139 -0.9434
36177SOL     OW12028   4.460   1.604   7.271 -0.2611  0.4452 -0.0357
36177SOL    HW112029   4.475   1.576   7.362  0.2791 -0.7231 -0.4680
36177SOL    HW212030   4.367   1.591   7.257  0.1073 -2.2630 -0.5382
36178SOL     OW12031   8.462   5.914   2.429 -0.4279 -0.0359 -0.0308
36178SOL    HW112032   8.531   5.848   2.417  1.5186  1.6223  1.3114
36178SOL    HW212033   8.381   5.869   2.403  1.0491 -2.2691 -1.1294
36179SOL     OW12034   2.813   3.474  10.466  0.3460  0.5387  0.2870
36179SOL    HW112035   2.862   3.548  10.432 -0.2673  0.8582  0.0815
36179SOL    HW212036   2.876   3.402  10.469  0.3513  0.3779 -1.8899
36180SOL     OW12037   3.103   5.366  10.091 -0.4043  0.1915 -0.1493
36180SOL    HW112038   3.088   5.437  10.030 -1.0474 -0.0306 -0.2500
36180SOL    HW212039   3.039   5.379  10.161  0.9700  1.0270  1.0150
36181SOL     OW12040   8.701   1.101   3.117  0.4921 -0.0208  0.1527
36181SOL    HW112041   8.766   1.171   3.111 -1.1167  1.4331 -0.8169
36181SOL    HW212042   8.621   1.144   3.147 -0.6034 -1.3835 -0.6918
36182SOL     OW12043   8.529   7.702   2.863 -0.0964 -0.3380 -0.2329
36182SOL    HW112044   8.570   7.730   2.782  1.8779 -0.3147  0.7132
36182SOL    HW212045   8.455   7.647   2.836  1.8155 -2.1665 -2.0522
36183SOL     OW12046   7.782   4.760  10.731  1.0861 -0.2090 -0.1013
36183SOL    HW112047   7.854   4.732  10.675  0.7654 -2.5648  0.5602
36183SOL    HW212048   7.710   4.778  10.670  1.5702  0.0541 -0.6054
36184SOL     OW12049   9.425  10.602   6.263 -0.3775 -0.4868 -0.4105
36184SOL    HW112050   9.348  10.596   6.319 -0.0154  1.1101  0.3433
36184SOL    HW212051   9.408  10.679   6.208  0.8714  0.2423  0.1627
36185SOL     OW12052   3.999   0.862   5.378  0.0360 -0.3625 -0.2708
36185SOL    HW112053   3.943   0.790   5.349  2.3375 -2.8480  0.9992
36185SOL    HW212054   4.054   0.882   5.302 -0.8001  0.3102 -0.7159
36186SOL     OW12055   1.464   7.088   9.067  0.4118 -0.3630 -0.0660
36186SOL    HW112056   1.546   7.139   9.066 -1.3057  2.6647  0.5082
36186SOL    HW212057   1.445   7.076   9.159 -1.0041  1.2568 -0.0918
36187SOL     OW12058   7.030  10.736   0.990 -0.0514 -0.4580 -0.0969
36187SOL    HW112059   6.989  10.809   1.037  1.3199 -0.2524  0.8243
36187SOL    HW212060   7.088  10.779   0.927 -0.2702 -0.7605 -0.5090
36188SOL     OW12061   7.550   8.275   6.927  0.6631  0.1923 -0.3132
36188SOL    HW112062   7.560   8.332   6.850 -1.5646 -0.3648 -1.0940
36188SOL    HW212063   7.515   8.332   6.995  0.0045  0.1293 -0.5887
36189SOL     OW12064   0.428   6.921   0.160  0.4746  0.2631  0.2596
36189SOL    HW112065   0.422   6.889   0.250 -1.5185  1.0425  0.4412
36189SOL    HW212066   0.427   7.016   0.168 -2.8020  0.4051 -0.6598
36190SOL     OW12067   3.111   8.409   3.868 -0.3509  0.2963  0.1285
36190SOL    HW112068   3.062   8.346   3.815  0.3514  0.3173 -0.5659
36190SOL    HW212069   3.129   8.481   3.808  0.2867  0.4087  0.4507
36191SOL     OW12070   0.512   5.052  10.884  0.3708  0.4845 -0.0357
36191SOL    HW112071   0.459   5.111  10.829  0.9908 -1.2662 -2.7152
36191SOL    HW212072   0.556   4.994  10.821  2.1145 -0.9112  2.3106
36192SOL     OW12073   4.455   0.359   4.515  0.4165  0.3892 -0.8384
36192SOL    HW112074   4.483   0.442   4.553  0.1099  0.8274 -1.5473
36192SOL    HW212075   4.407   0.315   4.585  2.7708 -0.3679  0.4147
36193SOL     OW12076   4.886   4.799   1.217  0.0966  0.2954 -0.2619
36193SOL    HW112077   4.888   4.818   1.310 -1.5092 -1.9515  0.3307
36193SOL    HW212078   4.795   4.814   1.191  0.0308 -1.1079 -0.9512
36194SOL     OW12079  10.025   2.740   1.908  0.1394 -0.4244  0.1348
36194SOL    HW112080  10.057   2.735   1.818 -0.9812 -0.3716 -0.2895
36194SOL    HW212081   9.978   2.657   1.921 -2.2602  0.7578 -0.3911
36195SOL     OW12082   3.519   7.137   9.339  0.3956 -0.3710  0.0234
36195SOL    HW112083   3.508   7.230   9.318  1.0255 -0.4154 -0.5246
36195SOL    HW212084   3.473   7.091   9.269 -0.3729 -0.4746  0.5804
36196SOL     OW12085   8.390   4.564   9.232  0.0157 -0.1355 -0.1003
36196SOL    HW112086   8.363   4.502   9.300  0.9631  1.2879  1.6714
36196SOL    HW212087   8.331   4.547   9.159 -1.8479 -0.9458  1.5108
36197SOL     OW12088   5.161   7.919   7.281 -0.3784 -0.4479  0.5849
36197SOL    HW112089   5.195   7.946   7.195 -0.4553  1.0039  0.9756
36197SOL    HW212090   5.070   7.896   7.264 -0.8854  1.4275  0.5105
36198SOL     OW12091   9.793   2.107   5.297 -0.4190 -0.1493  0.3856
36198SOL    HW112092   9.809   2.096   5.203  3.0651  0.5897  0.7713
36198SOL    HW212093   9.764   2.021   5.327 -0.1488 -0.7927 -1.1209
36199SOL     OW12094   6.935   7.483   0.808 -0.2309 -0.2468 -0.0488
36199SOL    HW112095   6.891   7.410   0.766 -1.2341 -0.9706  2.0854
36199SOL    HW212096   6.979   7.444   0.884  0.1511  1.2019  0.5113
36200SOL     OW12097   9.765   6.815   7.254  0.7585 -0.2894  0.0179
36200SOL    HW112098   9.709   6.747   7.292 -0.8111  0.0153 -1.6013
36200SOL    HW212099   9.756   6.890   7.312 -0.5565 -0.2457 -0.2191
36201SOL     OW12100   6.985   9.980   6.596 -0.2247 -0.1743 -0.5807
36201SOL    HW112101   6.945  10.053   6.549 -0.2668 -0.5807 -1.1852
36201SOL    HW212102   7.075   9.977   6.563 -0.4366 -0.8586 -1.1081
36202SOL     OW12103  10.690   5.277   6.995 -0.2358  0.0073  0.5780
36202SOL    HW112104  10.694   5.373   7.001 -1.5134  0.2313 -1.1518
36202SOL    HW212105  10.730   5.257   6.910 -0.2466 -0.9564  0.7892
36203SOL     OW12106   4.281  10.195   8.026  0.2235  0.5672 -0.7987
36203SOL    HW112107   4.254  10.240   7.945 -1.2783  1.1480 -0.0193
36203SOL    HW212108   4.246  10.107   8.017 -1.2197  1.0522 -0.1882
36204SOL     OW12109   3.123   8.067   4.709  0.2813  0.0634 -0.0400
36204SOL    HW112110   3.075   8.149   4.703 -0.0275 -0.0947  0.1871
36204SOL    HW212111   3.074   8.015   4.773  1.1356  0.1514  0.7131
36205SOL     OW12112   1.033   3.664   4.037  0.3855 -0.1539  0.1238
36205SOL    HW112113   1.121   3.698   4.023  0.9205 -1.6881 -0.4243
36205SOL    HW212114   1.017   3.608   3.961 -0.5898 -0.8278  0.7994
36206SOL     OW12115   8.915   9.372   4.444  0.0998  0.2427  0.4605
36206SOL    HW112116   8.859   9.447   4.422 -1.2207 -0.7925  0.1176
36206SOL    HW212117   8.975   9.365   4.370 -0.3070  0.4737  0.0965
36207SOL     OW12118   5.629  10.852   0.774  0.0564 -0.2691  0.1394
36207SOL    HW112119   5.670  10.782   0.723 -0.5874 -0.9552  0.5458
36207SOL    HW212120   5.538  10.853   0.743  0.2923  1.0709 -0.5877
36208SOL     OW12121   5.357   7.990   4.640 -0.0617 -0.4129  0.0144
36208SOL    HW112122   5.357   7.937   4.720  0.4631  0.2073  0.4387
36208SOL    HW212123   5.415   7.942   4.581 -2.3755 -2.2085 -0.9513
36209SOL     OW12124   7.025   5.199   0.991  0.1475  0.2686 -0.1334
36209SOL    HW112125   7.096   5.258   0.964  0.1144 -0.2071 -1.3210
36209SOL    HW212126   6.978   5.248   1.059  0.1409  1.6001 -1.0633
36210SOL     OW12127  10.377   3.549   4.063  0.2341  0.4266 -0.0788
36210SOL    HW112128  10.411   3.501   4.139 -2.7578  0.5750  1.5062
36210SOL    HW212129  10.436   3.624   4.053  0.8851  0.2301  1.9149
36211SOL     OW12130   5.559   1.841   9.795 -0.7811 -0.3166 -0.3577
36211SOL    HW112131   5.504   1.781   9.744 -1.3421  0.2202 -0.3905
36211SOL    HW212132   5.529   1.929   9.770  0.1518 -0.0087 -0.4481
36212SOL     OW12133   6.690   0.103   4.729 -0.4320  0.4551 -0.1826
36212SOL    HW112134   6.712   0.065   4.644  0.1914  0.1811  0.0924
36212SOL    HW212135   6.650   0.187   4.708  0.8155  0.9397 -0.7253
36213SOL     OW12136   4.423   5.080   0.193 -0.0751  0.1680  0.8892
36213SOL    HW112137   4.373   5.030   0.258 -0.1367 -0.3183  0.4792
36213SOL    HW212138   4.365   5.084   0.117  0.3980 -0.1669  0.5056
36214SOL     OW12139   1.873   8.279   2.883  0.2482 -0.5664  0.1444
36214SOL    HW112140   1.941   8.223   2.919  1.3182  0.2303 -0.5534
36214SOL    HW212141   1.921   8.346   2.834 -0.9358  1.1714  1.2301
36215SOL     OW12142   0.204   1.675   6.740  0.3154  0.3069  0.1999
36215SOL    HW112143   0.137   1.739   6.717  0.0144 -0.0608  0.0310
36215SOL    HW212144   0.283   1.726   6.755  0.0969  0.7083 -0.0168
36216SOL     OW12145   0.088   6.887   1.669 -0.5371  0.3596 -0.1333
36216SOL    HW112146   0.167   6.839   1.642 -0.8975 -0.1108 -0.3600
36216SOL    HW212147   0.070   6.946   1.596  1.2041  2.5338  1.0464
36217SOL     OW12148   3.775   4.947   3.196 -0.3498 -0.4194 -0.0718
36217SOL    HW112149   3.744   4.931   3.107  1.7462  0.7112 -1.0579
36217SOL    HW212150   3.836   4.875   3.214 -0.3809 -0.3623  0.2759
36218SOL     OW12151  10.328   3.400   2.187 -0.3349  0.3018  0.2979
36218SOL    HW112152  10.255   3.339   2.196 -2.3248  2.4934  0.0963
36218SOL    HW212153  10.330   3.421   2.094 -0.4488  1.3898  0.5289
36219SOL     OW12154   7.316   7.633   1.451  1.0590 -0.4749 -0.1957
36219SOL    HW112155   7.387   7.569   1.454  0.2648 -1.3472  1.2932
36219SOL    HW212156   7.247   7.590   1.400  0.7889 -0.5383  0.2153
36220SOL     OW12157   7.397   1.532   0.969 -0.4876 -0.2145  0.0849
36220SOL    HW112158   7.434   1.452   1.007 -0.5652 -0.3956 -0.2170
36220SOL    HW212159   7.409   1.598   1.037  1.2425 -0.0455 -0.3472
36221SOL     OW12160   5.894   4.148   3.651  0.3034  0.1026 -0.3704
36221SOL    HW112161   5.910   4.238   3.679 -0.6710  0.1864 -0.0473
36221SOL    HW212162   5.906   4.150   3.556 -1.5633  1.0207 -0.6279
36222SOL     OW12163  10.347   9.466  10.513 -0.4529  0.0244  0.3028
36222SOL    HW112164  10.343   9.432  10.602  0.4499 -0.3874  0.1914
36222SOL    HW212165  10.440   9.472  10.493 -0.6346 -0.8640 -0.9715
36223SOL     OW12166   8.846  10.232   3.599 -0.1853  0.1412  0.6907
36223SOL    HW112167   8.751  10.237   3.610 -0.1337 -0.7639  1.7395
36223SOL    HW212168   8.874  10.164   3.661  1.2327  0.9069  0.9475
36224SOL     OW12169   9.273  10.256   5.965  0.3659 -0.4752 -0.6265
36224SOL    HW112170   9.187  10.223   5.993  0.1408 -0.1451 -0.9172
36224SOL    HW212171   9.329  10.179   5.963  1.7731 -0.0965  5.3687
36225SOL     OW12172   6.653   6.999   0.060 -0.1847 -0.2019  0.8008
36225SOL    HW112173   6.613   6.913   0.070 -1.9374  0.8316  4.1097
36225SOL    HW212174   6.582   7.056   0.032  0.8159  0.3497 -0.7562
36226SOL     OW12175   7.555  10.937   2.710 -0.6159 -0.1813 -0.1608
36226SOL    HW112176   7.550  10.944   2.614 -0.0099 -1.5848 -0.3208
36226SOL    HW212177   7.485  10.875   2.733 -1.5711  1.0809  0.4605
36227SOL     OW12178   6.305  10.921  10.813 -0.3260 -0.8020 -0.2141
36227SOL    HW112179   6.276  10.904  10.903 -0.4538  1.4096  0.2209
36227SOL    HW212180   6.352  11.004  10.819  2.2011 -2.0357 -1.7155
36228SOL     OW12181   5.545   6.543   3.555  0.3151  0.2659  0.0076
36228SOL    HW112182   5.569   6.489   3.480 -1.2158 -1.3013  0.5701
36228SOL    HW212183   5.501   6.619   3.516  1.1363  0.3804 -0.7307
36229SOL     OW12184   2.668   8.769   9.235  0.2176 -0.1422 -0.5012
36229SOL    HW112185   2.662   8.840   9.171  0.3991 -0.1330 -0.5098
36229SOL    HW212186   2.578   8.742   9.251  0.0888  0.6128  0.0852
36230SOL     OW12187   5.939  10.528   5.464 -0.1272 -0.4508 -0.1148
36230SOL    HW112188   5.931  10.440   5.500  0.6661  0.2661  1.9502
36230SOL    HW212189   5.882  10.581   5.519  0.6493  0.6048 -0.3005
36231SOL     OW12190   8.335   2.213   1.498  0.1570  0.4976  0.0240
36231SOL    HW112191   8.378   2.151   1.439  0.2737 -1.0897  1.6869
36231SOL    HW212192   8.273   2.159   1.547 -1.8790  2.2583 -0.4635
36232SOL     OW12193   0.297   5.046   9.697 -0.2125  0.0680 -0.2391
36232SOL    HW112194   0.300   5.110   9.768  2.6333  0.1842 -0.3607
36232SOL    HW212195   0.211   5.006   9.705  0.2001 -0.3880  3.6975
36233SOL     OW12196   0.488   1.442   2.499  0.5733 -0.5411 -0.2307
36233SOL    HW112197   0.438   1.391   2.435  1.5545 -3.0551  0.8689
36233SOL    HW212198   0.564   1.474   2.450 -0.3784  0.4918 -1.0974
36234SOL     OW12199   5.446   4.127   0.482  0.7205  0.0067 -0.3995
36234SOL    HW112200   5.450   4.193   0.550 -0.6675  0.4520 -0.7251
36234SOL    HW212201   5.429   4.045   0.529  1.3460  0.0476 -0.0922
36235SOL     OW12202   5.895   4.932   2.703  0.1609 -0.5525 -0.1750
36235SOL    HW112203   5.880   4.922   2.609 -2.1113  0.7822 -0.0259
36235SOL    HW212204   5.899   5.026   2.717 -1.8991 -0.6081  1.3222
36236SOL     OW12205   6.308   5.279   9.048 -0.5449 -0.3343  0.6111
36236SOL    HW112206   6.339   5.351   9.102 -0.5643 -0.5181  0.8704
36236SOL    HW212207   6.384   5.222   9.037 -0.8529 -0.9571  1.5259
36237SOL     OW12208   5.950   3.616  10.494 -0.0375 -0.1595 -0.3238
36237SOL    HW112209   5.893   3.552  10.535 -2.6053  1.2481 -1.4721
36237SOL    HW212210   6.005   3.649  10.565 -0.7442 -1.4386  0.8611
36238SOL     OW12211   7.851   1.429   4.538  0.0567  0.4285  0.1749
36238SOL    HW112212   7.869   1.456   4.448 -2.5260 -0.8220 -0.8247
36238SOL    HW212213   7.891   1.343   4.547 -1.0133 -0.1409 -0.3482
36239SOL     OW12214   6.829   8.964   9.697  0.1246  0.3692  0.4228
36239SOL    HW112215   6.808   8.874   9.720  0.7328  0.4217  1.1977
36239SOL    HW212216   6.923   8.971   9.710  0.1107  1.0640  0.1810
36240SOL     OW12217   9.305  10.701   7.103 -0.0265  0.4814 -0.3140
36240SOL    HW112218   9.397  10.679   7.119  0.3891  2.4359  0.2845
36240SOL    HW212219   9.269  10.719   7.190 -0.6784  0.7666 -0.6369
36241SOL     OW12220   5.083   2.759   4.837 -0.7166 -0.2597 -0.0115
36241SOL    HW112221   4.997   2.796   4.819 -0.8345 -1.0505 -1.2021
36241SOL    HW212222   5.080   2.734   4.929 -1.2665  0.9809  0.3264
36242SOL     OW12223   2.830   9.908   7.328 -0.4832 -0.0524 -0.1886
36242SOL    HW112224   2.819   9.819   7.361 -0.9927  0.3916  0.8702
36242SOL    HW212225   2.908   9.941   7.372 -0.9522  0.4129  0.3075
36243SOL     OW12226   3.353   5.980   0.352  0.8501  0.3029 -0.1779
36243SOL    HW112227   3.370   6.048   0.417 -1.0081 -0.2350  0.9509
36243SOL    HW212228   3.414   5.910   0.373  1.3040  0.7481  0.0096
36244SOL     OW12229   3.466   0.867   9.114  0.9089  0.4827  0.4965
36244SOL    HW112230   3.403   0.816   9.064 -0.3223 -0.2909  2.7103
36244SOL    HW212231   3.527   0.901   9.048 -1.6865  1.1720 -1.7582
36245SOL     OW12232   5.993   5.201   9.030 -0.0260 -0.1108  0.1940
36245SOL    HW112233   6.013   5.239   9.116 -0.1567  0.4882 -0.0318
36245SOL    HW212234   6.059   5.238   8.971 -0.8897  0.7717 -0.2753
36246SOL     OW12235   3.343   9.232   8.811  0.1969  0.0320  0.4290
36246SOL    HW112236   3.286   9.158   8.788  0.9793 -0.3511 -0.3644
36246SOL    HW212237   3.401   9.241   8.735  0.4243  1.1595  0.7279
36247SOL     OW12238   7.703   2.496   4.900  0.1387 -0.0982  0.0988
36247SOL    HW112239   7.713   2.417   4.847  0.5322 -0.8295  1.2199
36247SOL    HW212240   7.629   2.477   4.958 -0.5207  0.8282 -0.4071
36248SOL     OW12241  10.954  10.197   3.521 -0.6274 -0.4866 -0.0661
36248SOL    HW112242  10.868  10.234   3.502 -0.4785  0.2009  0.5646
36248SOL    HW212243  10.936  10.130   3.587 -0.4918  0.8425  1.3732
36249SOL     OW12244   8.161   5.840   3.257  0.2390  0.2261 -0.1953
36249SOL    HW112245   8.161   5.748   3.229  2.2814  1.0841 -3.6841
36249SOL    HW212246   8.243   5.849   3.306  0.9439  0.5004 -1.3838
36250SOL     OW12247  10.712   4.845   9.481 -1.0081 -0.3998  0.0408
36250SOL    HW112248  10.657   4.855   9.558  1.7825  0.3562  2.0965
36250SOL    HW212249  10.711   4.931   9.439 -0.7862 -0.1487  0.5400
36251SOL     OW12250   4.643   4.991   0.904 -0.1095 -0.1913  0.3108
36251SOL    HW112251   4.596   4.969   0.985 -1.0421 -1.0868 -0.4409
36251SOL    HW212252   4.590   5.060   0.865 -0.3140 -0.5745 -0.0967
36252SOL     OW12253   0.711   0.759  10.281 -0.0711 -0.1858 -0.0108
36252SOL    HW112254   0.762   0.753  10.200  1.3946  1.1075  0.7566
36252SOL    HW212255   0.682   0.850  10.284 -1.1992 -0.5443  0.3129
36253SOL     OW12256   7.486   9.818   9.465 -0.1493  0.0178  0.3769
36253SOL    HW112257   7.540   9.772   9.529  0.0001  1.3216  1.2146
36253SOL    HW212258   7.545   9.879   9.423 -0.2074 -0.9442 -1.1641
36254SOL     OW12259   5.901   4.545   8.152  0.1413 -0.3379 -0.6642
36254SOL    HW112260   5.820   4.520   8.108 -0.8224  0.9918  0.2668
36254SOL    HW212261   5.895   4.505   8.239  0.2153  0.2190 -0.3985
36255SOL     OW12262   8.319   2.370   5.125 -0.0457 -0.1260  0.1396
36255SOL    HW112263   8.294   2.462   5.128  1.7055  0.3617  0.6149
36255SOL    HW212264   8.296   2.342   5.036 -2.7066  0.0864  0.6668
36256SOL     OW12265   0.121   4.058   1.136  0.0316  0.1920  0.0713
36256SOL    HW112266   0.040   4.079   1.182  0.2427  1.2375  0.0051
36256SOL    HW212267   0.160   4.144   1.118  2.0546 -0.3062  1.7180
36257SOL     OW12268   6.881   8.260   1.267 -0.2977 -0.2986 -0.1199
36257SOL    HW112269   6.881   8.166   1.287  1.3603 -0.2301  0.2794
36257SOL    HW212270   6.968   8.278   1.233 -0.3134  1.2430  0.5643
36258SOL     OW12271   2.345   4.560   8.433 -0.2535  0.6750 -0.8453
36258SOL    HW112272   2.278   4.505   8.472  0.9305 -0.6227 -0.5320
36258SOL    HW212273   2.358   4.631   8.495 -0.1188 -0.0316 -0.0411
36259SOL     OW12274   6.308   8.253   9.307  0.0080  0.1399  0.7007
36259SOL    HW112275   6.262   8.169   9.300 -0.3329  0.2572  1.4213
36259SOL    HW212276   6.377   8.248   9.241 -0.7462 -0.2289 -0.0828
36260SOL     OW12277   0.764   0.092   5.202  0.0104 -0.0387 -0.1863
36260SOL    HW112278   0.789   0.171   5.154 -0.2352  0.3288  0.2884
36260SOL    HW212279   0.672   0.106   5.225  0.2441 -0.0055  0.7759
36261SOL     OW12280   4.773   9.156   2.490  0.1443  0.1771 -0.0511
36261SOL    HW112281   4.760   9.074   2.442  0.0659 -0.2009  0.6030
36261SOL    HW212282   4.837   9.205   2.437  0.9610 -0.7332  0.0607
36262SOL     OW12283  10.364   2.228   2.634  0.2536 -0.2625  0.3896
36262SOL    HW112284  10.454   2.230   2.602  0.5158  2.3679  1.1044
36262SOL    HW212285  10.311   2.219   2.555  1.1001 -2.0868 -0.0258
36263SOL     OW12286   3.858   4.146   5.844  0.0943 -0.6419 -0.0166
36263SOL    HW112287   3.849   4.167   5.751 -1.8607  1.5600  0.5999
36263SOL    HW212288   3.890   4.227   5.884  2.5228 -2.0178  1.0997
36264SOL     OW12289   2.751   5.891   7.556 -0.1734 -0.5337 -0.1219
36264SOL    HW112290   2.768   5.982   7.531 -1.2219  0.0117  1.0541
36264SOL    HW212291   2.681   5.863   7.496 -1.5477  0.2525  1.0314
36265SOL     OW12292   3.802   9.600   7.737 -0.1683  0.1266 -0.7067
36265SOL    HW112293   3.864   9.662   7.697 -0.7146  0.7445 -0.6064
36265SOL    HW212294   3.780   9.639   7.821  2.0519 -1.8261  0.9256
36266SOL     OW12295   9.280   6.370   6.179  0.0213 -0.0590 -0.2761
36266SOL    HW112296   9.257   6.434   6.112 -0.1799 -0.6112 -0.7386
36266SOL    HW212297   9.239   6.403   6.259 -1.1134 -0.2373 -0.7655
36267SOL     OW12298  10.291   7.915   9.787 -0.1193 -0.3532 -0.6559
36267SOL    HW112299  10.258   8.004   9.798 -0.5961 -0.3107 -2.1424
36267SOL    HW212300  10.229   7.861   9.835 -0.0668  0.0816 -0.0926
36268SOL     OW12301   9.948   1.465   7.505 -0.3763  0.2114 -0.2674
36268SOL    HW112302   9.986   1.477   7.592  0.9653  0.7264 -0.9001
36268SOL    HW212303   9.874   1.526   7.502 -0.5290  0.0738  0.5626
36269SOL     OW12304   8.591   2.898   7.513 -0.6101 -0.1606  0.2232
36269SOL    HW112305   8.568   2.906   7.606 -1.1852  0.3990  0.0420
36269SOL    HW212306   8.569   2.984   7.476  1.5461  0.3512 -0.0291
36270SOL     OW12307  10.571   3.224   2.447 -0.0407 -0.0796 -0.1226
36270SOL    HW112308  10.512   3.298   2.437 -1.4774 -1.1540  0.0530
36270SOL    HW212309  10.518   3.147   2.425  0.8037 -1.2406  1.6235
36271SOL     OW12310   5.382   2.903   8.321  0.3420  0.2433  0.2259
36271SOL    HW112311   5.351   2.898   8.231  0.6326 -1.5683  0.1850
36271SOL    HW212312   5.410   2.993   8.332  0.3445  0.4881 -1.5156
36272SOL     OW12313   9.222   3.841  10.890  0.4086  0.4673 -0.4827
36272SOL    HW112314   9.255   3.931  10.894 -0.7668  0.9600 -1.3411
36272SOL    HW212315   9.256   3.807  10.808 -3.4400  1.9858 -2.9714
36273SOL     OW12316   3.232   6.462  10.737  0.4766  0.4833 -0.6038
36273SOL    HW112317   3.288   6.385  10.728  0.0872 -0.0971  1.4661
36273SOL    HW212318   3.292   6.536  10.744  1.1006 -0.1705  2.0014
36274SOL     OW12319   8.950   2.607   9.278 -0.2215 -0.0569 -0.0729
36274SOL    HW112320   8.858   2.592   9.255  0.3275 -0.2913 -2.4147
36274SOL    HW212321   8.976   2.681   9.223  1.2590 -0.6484 -0.2177
36275SOL     OW12322   1.539   7.920   8.852 -0.2861  0.3874  0.1994
36275SOL    HW112323   1.469   7.895   8.793  0.2683  0.0971 -0.3424
36275SOL    HW212324   1.577   7.998   8.813 -0.1050  0.3649  0.3279
36276SOL     OW12325  10.179   6.983   8.580 -0.0922 -0.2402 -0.3995
36276SOL    HW112326  10.241   7.054   8.596 -0.2762 -0.1539 -0.0477
36276SOL    HW212327  10.094   7.020   8.604 -0.4656  0.0668 -2.0973
36277SOL     OW12328   3.457   3.390   6.417 -0.6987  0.0218  0.1501
36277SOL    HW112329   3.482   3.454   6.350  0.2493  0.8856  1.2979
36277SOL    HW212330   3.423   3.443   6.489 -0.4390 -0.8126  0.8972
36278SOL     OW12331   2.603   1.517   3.823 -0.0698  0.3480 -0.0282
36278SOL    HW112332   2.683   1.492   3.777  0.8918  0.7496  1.3748
36278SOL    HW212333   2.555   1.572   3.760  0.0132 -1.1167 -1.4230
36279SOL     OW12334   1.776   5.146   4.365  0.2124  0.3622  0.0565
36279SOL    HW112335   1.842   5.081   4.341  0.8959  1.2358 -0.4997
36279SOL    HW212336   1.714   5.098   4.421  0.7484 -0.7279 -0.2542
36280SOL     OW12337   1.322   2.505   3.648 -0.0218  0.2296 -0.2690
36280SOL    HW112338   1.272   2.423   3.640  1.6887 -0.9527  0.5141
36280SOL    HW212339   1.268   2.570   3.603 -1.8018 -1.1541 -0.2753
36281SOL     OW12340   4.480   9.428  10.605 -0.1449 -0.2351  0.8497
36281SOL    HW112341   4.473   9.405  10.698  0.5228 -0.1979  0.9114
36281SOL    HW212342   4.446   9.517  10.601  0.3794 -0.0141  1.1636
36282SOL     OW12343   7.216   5.898   0.086 -0.6115  0.1465 -0.0076
36282SOL    HW112344   7.298   5.869   0.046  0.0682  2.2469 -0.2439
36282SOL    HW212345   7.228   5.881   0.179 -0.8380 -1.5808 -0.2453
36283SOL     OW12346   0.120   7.719   6.660  0.6924  0.4837  0.2903
36283SOL    HW112347   0.085   7.807   6.671  0.6524  0.6919 -1.2247
36283SOL    HW212348   0.080   7.687   6.579  0.4722 -1.0507  0.9693
36284SOL     OW12349   2.687   1.055   1.437  0.2775 -0.3666  0.3397
36284SOL    HW112350   2.764   0.998   1.441  1.1953  0.7929 -0.1247
36284SOL    HW212351   2.616   1.003   1.475  1.3263 -1.4004  0.9461
36285SOL     OW12352  10.709   9.257   9.824 -0.0134  0.0114 -0.5642
36285SOL    HW112353  10.614   9.260   9.818 -0.1598 -0.7304  0.9386
36285SOL    HW212354  10.734   9.342   9.861 -0.0693  0.2360 -1.0309
36286SOL     OW12355   7.539   5.962   0.377  0.0448 -0.2673 -0.2359
36286SOL    HW112356   7.605   5.914   0.328 -0.9898  0.7062 -2.7769
36286SOL    HW212357   7.483   6.001   0.310 -1.0686  1.7891  1.7357
36287SOL     OW12358   9.207   0.553   0.631 -0.1485  0.2420 -0.4282
36287SOL    HW112359   9.259   0.477   0.605  0.3926  0.6995 -0.7095
36287SOL    HW212360   9.266   0.627   0.621 -0.2401  0.5552  1.1827
36288SOL     OW12361  10.963   3.764   2.975 -0.4313 -0.4868 -0.4381
36288SOL    HW112362  11.048   3.806   2.960 -1.3378  1.8956  0.5747
36288SOL    HW212363  10.917   3.775   2.892 -0.4867  0.1541 -0.3322
36289SOL     OW12364   2.732   5.518   8.996  0.4996 -0.1836 -0.6229
36289SOL    HW112365   2.782   5.529   9.077 -0.1936  0.9736 -0.3296
36289SOL    HW212366   2.756   5.593   8.942 -1.6499  0.9936 -0.0555
36290SOL     OW12367  10.722   4.186   8.902 -0.6019 -0.3538  0.0047
36290SOL    HW112368  10.786   4.175   8.972  0.8076 -2.6970 -1.4965
36290SOL    HW212369  10.664   4.111   8.911 -0.9987 -0.1403 -0.7261
36291SOL     OW12370   3.742   2.967   1.397 -0.4590 -0.0160  0.1672
36291SOL    HW112371   3.749   2.909   1.473  0.5528 -0.1035  0.0223
36291SOL    HW212372   3.661   3.016   1.411 -0.0785  0.2715  1.5211
36292SOL     OW12373   7.190   4.985   5.065 -0.2007  0.3503 -0.1207
36292SOL    HW112374   7.103   4.956   5.038 -1.1928  1.2373  1.9234
36292SOL    HW212375   7.190   4.978   5.160  2.2784 -0.4017 -0.0893
36293SOL     OW12376   1.234   4.094   8.978 -0.5187  0.0594 -0.2203
36293SOL    HW112377   1.184   4.023   8.939 -0.5211 -0.6608  1.0198
36293SOL    HW212378   1.272   4.056   9.057  0.6965  1.0324 -0.3036
36294SOL     OW12379   6.991   6.143   3.805  0.6346 -0.5996  0.5897
36294SOL    HW112380   6.957   6.061   3.840  0.8738 -0.3629  1.4003
36294SOL    HW212381   6.984   6.205   3.878  0.3838  0.1233 -0.0368
36295SOL     OW12382   2.611   8.846   5.941 -0.3541  0.5182  0.5162
36295SOL    HW112383   2.682   8.883   5.994  0.8966 -0.1673 -0.6051
36295SOL    HW212384   2.633   8.871   5.852 -1.1814 -0.2935  0.0755
36296SOL     OW12385   8.953   7.175   8.142 -0.2989  0.0098  0.1431
36296SOL    HW112386   8.946   7.081   8.126 -0.7526  0.2337 -1.0553
36296SOL    HW212387   9.044   7.195   8.121  0.1655 -0.3675  1.6657
36297SOL     OW12388   9.944   2.742   2.955 -0.1195 -0.2603  0.0097
36297SOL    HW112389   9.980   2.676   2.895 -1.3303 -0.9970  0.0623
36297SOL    HW212390   9.849   2.736   2.942 -0.2860  0.9743  0.5544
36298SOL     OW12391   8.956   3.014   8.987 -0.1100  0.2468  0.1274
36298SOL    HW112392   9.047   3.038   8.971 -0.5910  0.4069 -3.0039
36298SOL    HW212393   8.953   2.920   8.971 -0.5810  0.3387 -0.3505
36299SOL     OW12394   4.658   1.543   5.761  0.7210 -0.6617 -0.2017
36299SOL    HW112395   4.656   1.454   5.797  0.2632 -1.2980 -1.7410
36299SOL    HW212396   4.580   1.586   5.798  1.0012 -0.8497  0.6294
36300SOL     OW12397   0.368   0.047   9.850 -0.0480  0.2307 -0.4604
36300SOL    HW112398   0.354   0.135   9.885  0.8524 -0.0819  0.7580
36300SOL    HW212399   0.357  -0.010   9.926 -0.4996 -0.7120 -1.2182
36301SOL     OW12400   5.201   3.161   2.915  0.3620  0.3548 -0.4158
36301SOL    HW112401   5.285   3.149   2.960 -0.5876 -0.9878  1.1189
36301SOL    HW212402   5.161   3.237   2.957 -0.0087 -0.1888  0.2487
36302SOL     OW12403   4.279   1.845   9.373 -0.1841  0.0796 -0.0694
36302SOL    HW112404   4.243   1.832   9.460 -0.3618 -1.0093 -0.2883
36302SOL    HW212405   4.211   1.893   9.326  0.1546  1.1906  0.5472
36303SOL     OW12406   6.070   5.950  10.059  0.2356 -0.5302 -0.4289
36303SOL    HW112407   6.101   5.896   9.986  1.1876 -0.1945 -0.2850
36303SOL    HW212408   6.111   5.912  10.136 -0.9514 -1.0227 -0.0285
36304SOL     OW12409   8.776  10.149   9.176  0.5205 -0.1937  0.5005
36304SOL    HW112410   8.709  10.184   9.234  0.3656  2.4769 -1.1798
36304SOL    HW212411   8.793  10.061   9.211 -2.1857 -0.1197  2.3119
36305SOL     OW12412   9.106   3.999   6.213 -0.2183 -0.3236 -0.4749
36305SOL    HW112413   9.019   4.036   6.203  0.2166  1.1999  0.9428
36305SOL    HW212414   9.152   4.061   6.270  1.9019 -0.8869 -1.4766
36306SOL     OW12415   6.339   6.163   3.189  0.2881  0.1548 -0.0260
36306SOL    HW112416   6.353   6.068   3.189 -1.6948 -0.1798  0.2238
36306SOL    HW212417   6.339   6.188   3.281  1.1298  0.4815 -0.1009
36307SOL     OW12418   7.909   7.025   5.468  0.5951 -0.4834  0.0483
36307SOL    HW112419   7.837   6.977   5.510 -1.4836  1.1574 -1.4116
36307SOL    HW212420   7.866   7.078   5.401  3.2873  0.1250 -1.3247
36308SOL     OW12421   5.342   0.541   9.945  1.5247 -0.1646  0.2330
36308SOL    HW112422   5.424   0.585   9.923  1.9766 -0.2793  1.6195
36308SOL    HW212423   5.365   0.448   9.948  0.2272 -0.9170 -4.4192
36309SOL     OW12424   1.612  10.019   7.543 -0.6649 -0.5783  0.0022
36309SOL    HW112425   1.622  10.113   7.562  1.6521 -1.0100  1.2909
36309SOL    HW212426   1.668  10.005   7.467  0.1954 -1.1645  0.7308
36310SOL     OW12427   7.337   9.715   5.143  0.0759 -0.2732  0.3403
36310SOL    HW112428   7.317   9.756   5.059  0.6501  1.0633  0.8320
36310SOL    HW212429   7.429   9.737   5.159 -0.1829 -0.0075  1.5746
36311SOL     OW12430   1.473  10.755   6.325  0.3484 -0.0857 -0.3647
36311SOL    HW112431   1.555  10.709   6.345  0.4713 -0.1952 -1.1047
36311SOL    HW212432   1.448  10.795   6.408 -0.0299 -1.8785  0.4285
36312SOL     OW12433   3.992   0.591   4.139  0.4365 -0.0389  0.4267
36312SOL    HW112434   3.975   0.633   4.224  1.5950  1.0834  0.1524
36312SOL    HW212435   3.935   0.637   4.077  0.4387 -0.0574  0.4107
36313SOL     OW12436   2.140   8.191   3.013 -0.0614 -0.0448 -0.2707
36313SOL    HW112437   2.217   8.169   3.066  0.1878 -2.1029 -1.3674
36313SOL    HW212438   2.170   8.181   2.922 -1.5362 -0.6427 -0.7232
36314SOL     OW12439  10.176   4.869   0.423 -0.2306 -0.0133  0.8452
36314SOL    HW112440  10.121   4.813   0.369 -1.3697 -0.5279  2.4516
36314SOL    HW212441  10.229   4.807   0.474  1.0794  0.4668  0.1214
36315SOL     OW12442  10.871   8.506   4.416 -0.0511  0.2771  0.4316
36315SOL    HW112443  10.779   8.504   4.389 -0.2348 -0.1176  1.0689
36315SOL    HW212444  10.868   8.530   4.509  0.4472 -0.4145  0.6322
36316SOL     OW12445   3.683   6.085  10.511 -0.5411 -0.5386  0.2108
36316SOL    HW112446   3.700   6.112  10.601 -0.5571  0.4962 -0.0893
36316SOL    HW212447   3.682   6.166  10.461  2.5931 -1.2725 -1.2728
36317SOL     OW12448  10.391   8.256   2.523  0.0129 -0.5235 -0.0633
36317SOL    HW112449  10.314   8.305   2.495 -1.2713 -2.5207 -0.2292
36317SOL    HW212450  10.372   8.228   2.612 -1.3013 -4.1917 -1.2696
36318SOL     OW12451   7.629   6.333   2.594  0.1904  0.1227 -0.0923
36318SOL    HW112452   7.537   6.355   2.583  0.1609 -0.6254 -1.6005
36318SOL    HW212453   7.669   6.413   2.629 -1.0531  0.3750  0.8316
36319SOL     OW12454   2.129   4.553   2.287  0.3723 -0.2590  0.3033
36319SOL    HW112455   2.123   4.473   2.237  1.1510  0.8539 -1.6772
36319SOL    HW212456   2.127   4.623   2.222  0.2465  1.3238  1.9131
36320SOL     OW12457   8.563   2.295   9.815  0.0909 -0.2402 -0.0164
36320SOL    HW112458   8.605   2.210   9.824 -0.6608 -0.4285  2.2242
36320SOL    HW212459   8.621   2.356   9.862 -0.7807 -0.0509  0.8531
36321SOL     OW12460   7.608   6.116   6.546  0.0067  0.3815 -0.3365
36321SOL    HW112461   7.604   6.029   6.586  1.2305 -0.3825 -1.7638
36321SOL    HW212462   7.701   6.138   6.544 -0.2045  1.3082 -0.8393
36322SOL     OW12463   0.079   1.221  10.131 -0.3086 -0.0948  0.6632
36322SOL    HW112464   0.065   1.306  10.173  0.6300 -0.0456  0.8967
36322SOL    HW212465   0.109   1.164  10.202 -0.3495 -0.4650  0.3858
36323SOL     OW12466   6.212   7.264   3.786  0.0387 -0.0046  0.0662
36323SOL    HW112467   6.229   7.357   3.770  0.8490 -0.3874 -1.5256
36323SOL    HW212468   6.288   7.234   3.836  0.5874 -0.1382 -0.8207
36324SOL     OW12469   9.618   5.657   7.611  0.0696 -0.0093  0.1298
36324SOL    HW112470   9.693   5.600   7.602 -0.8731 -1.4605  1.0318
36324SOL    HW212471   9.555   5.626   7.546  0.0434  0.8784 -0.2879
36325SOL     OW12472   7.732   8.133   8.771  0.5140 -0.0491  0.3951
36325SOL    HW112473   7.811   8.170   8.732 -0.1351  0.0336 -0.9166
36325SOL    HW212474   7.750   8.040   8.781  0.4116 -0.2402 -0.9572
36326SOL     OW12475   1.846   0.256   1.411 -0.0795  0.4077  0.0768
36326SOL    HW112476   1.889   0.203   1.478  1.1795 -0.8948 -1.6759
36326SOL    HW212477   1.754   0.258   1.438  0.4747  0.5131  2.1663
36327SOL     OW12478   4.733   0.563   4.338  0.0457 -0.1087 -0.2372
36327SOL    HW112479   4.793   0.599   4.273 -1.0792  0.9659 -0.7236
36327SOL    HW212480   4.790   0.533   4.409  1.2100 -0.0159 -1.0926
36328SOL     OW12481   4.608   7.864   6.260  0.0349 -0.1296  0.3243
36328SOL    HW112482   4.537   7.911   6.303 -0.5388  1.5726 -2.3014
36328SOL    HW212483   4.582   7.772   6.263 -1.5910  0.3209  0.6490
36329SOL     OW12484   0.452   6.932   2.024  0.3035 -0.5703 -0.1613
36329SOL    HW112485   0.381   6.996   2.034  0.7978 -0.0157 -0.1276
36329SOL    HW212486   0.409   6.847   2.030 -0.4076 -0.2426 -0.4860
36330SOL     OW12487   0.419   0.381   0.969  0.8137  0.0648 -0.3085
36330SOL    HW112488   0.474   0.458   0.983  1.2485 -0.0131 -1.4437
36330SOL    HW212489   0.431   0.360   0.876 -0.0430 -0.8014 -0.2384
36331SOL     OW12490   9.104  10.117   9.073  0.2046 -0.0288  0.0550
36331SOL    HW112491   9.040  10.048   9.052  0.3974 -0.5944  1.2308
36331SOL    HW212492   9.185  10.087   9.032 -0.0547  0.2179 -0.6449
36332SOL     OW12493   6.787   5.880   0.525 -0.7149  0.1955  0.1129
36332SOL    HW112494   6.698   5.859   0.499 -0.8937  0.3355  0.6000
36332SOL    HW212495   6.801   5.970   0.495 -0.4150 -0.1363 -0.7765
36333SOL     OW12496   7.327   6.352   5.922  0.1265 -0.3720 -0.3390
36333SOL    HW112497   7.350   6.270   5.878  0.9435 -0.8331  0.8887
36333SOL    HW212498   7.306   6.326   6.012  0.5174  0.7678  0.0999
36334SOL     OW12499   7.856   2.041   2.947 -0.5426  0.6361 -0.1249
36334SOL    HW112500   7.882   2.073   2.861 -3.3475  1.0450 -0.9166
36334SOL    HW212501   7.773   2.086   2.966 -0.6974 -0.4575  2.1733
36335SOL     OW12502   7.687   8.186   3.089 -0.0434  0.3304  0.3690
36335SOL    HW112503   7.729   8.186   3.176  1.9720 -0.4841 -0.5374
36335SOL    HW212504   7.746   8.239   3.035  0.1364 -1.2822 -1.0973
36336SOL     OW12505  10.308   2.465   3.403 -0.3630 -0.4081 -0.1223
36336SOL    HW112506  10.368   2.518   3.456  0.0398 -1.2171  0.2449
36336SOL    HW212507  10.223   2.476   3.445 -0.0849 -0.8798  0.5843
36337SOL     OW12508   8.927   9.180   9.945  0.1838 -0.5355 -0.1156
36337SOL    HW112509   8.861   9.112   9.954  0.1228 -0.4418  0.1638
36337SOL    HW212510   8.965   9.189  10.033 -1.3153  1.3132  0.4173
36338SOL     OW12511   6.157   3.970  10.127 -0.1509 -0.2154  0.3457
36338SOL    HW112512   6.193   3.912  10.195 -0.0281 -1.6137 -0.8500
36338SOL    HW212513   6.069   3.937  10.112 -0.2659  0.2466 -0.0041
36339SOL     OW12514   8.476   7.628   8.738 -0.4718 -0.2771  0.5649
36339SOL    HW112515   8.495   7.677   8.818 -2.7666 -1.7477  2.1138
36339SOL    HW212516   8.381   7.624   8.734 -0.4143 -3.2912 -0.2739
36340SOL     OW12517   7.206   5.301   2.258 -0.2801 -0.2196 -0.2214
36340SOL    HW112518   7.274   5.344   2.311 -0.3341  1.1558 -1.2140
36340SOL    HW212519   7.144   5.267   2.322  1.1412 -1.2086  0.7014
36341SOL     OW12520   0.221   8.317   8.296  0.1431 -0.3416  0.0334
36341SOL    HW112521   0.192   8.402   8.262  2.0592 -0.0383 -0.9457
36341SOL    HW212522   0.140   8.265   8.301 -0.9282  1.2204 -0.2298
36342SOL     OW12523   6.598   4.873   7.190  0.3747  0.5358  0.2481
36342SOL    HW112524   6.503   4.862   7.189  0.0422  2.5567  2.1536
36342SOL    HW212525   6.613   4.948   7.132  0.6397  1.0138  0.9237
36343SOL     OW12526   5.985   9.024   0.502  0.4174  0.4417  0.4385
36343SOL    HW112527   5.889   9.022   0.496  0.4001 -2.1482  0.6860
36343SOL    HW212528   6.002   9.052   0.592 -0.2129 -1.5170  1.2153
36344SOL     OW12529   9.493   2.147   6.325 -0.3620  0.3683 -0.5263
36344SOL    HW112530   9.479   2.146   6.419 -0.5240  0.9467 -0.5393
36344SOL    HW212531   9.564   2.085   6.310 -1.4205 -0.9677 -0.2092
36345SOL     OW12532   3.162   3.501   5.827  0.1853 -0.2105  0.0081
36345SOL    HW112533   3.209   3.507   5.910 -0.2101 -1.2469  0.3206
36345SOL    HW212534   3.069   3.509   5.852  0.0594 -0.6059 -0.3304
36346SOL     OW12535   8.940   5.784   4.403 -0.3748 -0.3680  0.2895
36346SOL    HW112536   8.998   5.731   4.458  0.7684  1.3147  0.7497
36346SOL    HW212537   8.876   5.820   4.464  0.5551  1.0396  0.4715
36347SOL     OW12538   2.611   3.700   3.129 -0.3461  0.0749 -0.1264
36347SOL    HW112539   2.557   3.663   3.199 -0.4120  1.7418  0.7453
36347SOL    HW212540   2.631   3.625   3.072 -0.3660 -1.2979  1.5997
36348SOL     OW12541   4.423   8.422   3.219 -0.5056  0.1531  0.3756
36348SOL    HW112542   4.393   8.471   3.142  0.2670  0.0202 -0.0298
36348SOL    HW212543   4.510   8.389   3.193 -0.4820 -0.3714  1.1004
36349SOL     OW12544   7.272   5.700   4.315  0.3948  0.1883 -0.1479
36349SOL    HW112545   7.218   5.764   4.270 -0.4291 -0.4233 -0.0671
36349SOL    HW212546   7.217   5.622   4.320  1.6012 -0.7447 -0.8188
36350SOL     OW12547   0.920   2.650   8.637  0.7728  0.1960  0.0622
36350SOL    HW112548   0.830   2.618   8.624  0.5225 -0.1631  2.3040
36350SOL    HW212549   0.910   2.730   8.688  1.7477 -0.9823  2.2409
36351SOL     OW12550   5.830   3.176   7.974  0.3138 -0.0445 -0.1714
36351SOL    HW112551   5.896   3.208   7.914 -0.8965  1.0011 -1.0067
36351SOL    HW212552   5.761   3.243   7.973 -0.4744 -0.7689  1.1500
36352SOL     OW12553   6.220   5.399   3.424  0.6794 -0.1970  0.4318
36352SOL    HW112554   6.289   5.395   3.489  1.5188  0.1861 -0.4124
36352SOL    HW212555   6.228   5.318   3.375  0.8668  0.0796  0.0004
36353SOL     OW12556   4.062   2.936   5.104 -0.6274 -0.5806 -0.4027
36353SOL    HW112557   4.051   2.841   5.113  0.0805 -0.6791 -0.4987
36353SOL    HW212558   4.156   2.948   5.091 -0.7010  0.1447 -0.3056
36354SOL     OW12559  10.990   5.855   1.850 -0.6546  0.2961  0.4451
36354SOL    HW112560  10.918   5.911   1.879  0.4715  0.9944  1.9873
36354SOL    HW212561  10.981   5.775   1.901 -0.6198  0.1766  0.2674
36355SOL     OW12562   1.926   8.829   1.100 -0.1908 -0.1567 -0.1588
36355SOL    HW112563   1.922   8.869   1.186  0.5698 -0.7635  0.1634
36355SOL    HW212564   1.855   8.870   1.051 -0.0339  0.8670  0.4633
36356SOL     OW12565   1.963   5.525   4.495  0.4208  0.1487  0.0974
36356SOL    HW112566   1.912   5.512   4.575 -0.0205  1.0559 -0.0224
36356SOL    HW212567   2.009   5.608   4.510  2.8872 -1.2424  0.7309
36357SOL     OW12568   3.475   1.303   5.063  0.0662 -0.0788  0.0703
36357SOL    HW112569   3.444   1.374   5.008 -0.7272 -1.1492 -0.9055
36357SOL    HW212570   3.540   1.344   5.121  1.6202  0.9131 -2.2404
36358SOL     OW12571   5.324  10.015   2.013 -0.3790 -0.2646 -0.3666
36358SOL    HW112572   5.264  10.079   2.052  1.5445  2.2398 -1.2194
36358SOL    HW212573   5.376   9.982   2.086 -0.3984  0.3044 -0.0930
36359SOL     OW12574   6.340   4.877   2.358  0.2870 -0.0012  0.0930
36359SOL    HW112575   6.275   4.847   2.295  0.3556 -1.8626  0.8350
36359SOL    HW212576   6.307   4.847   2.443  1.7650 -0.3961  0.5595
36360SOL     OW12577   5.799   7.391   9.895  0.3858 -0.7221 -0.0859
36360SOL    HW112578   5.743   7.317   9.870 -0.5144  0.2909 -1.1559
36360SOL    HW212579   5.840   7.363   9.977 -1.0738 -1.8255  0.3066
36361SOL     OW12580   9.023   9.616   6.199  0.6026 -0.2008  0.2677
36361SOL    HW112581   8.968   9.558   6.146  1.3925 -1.8893  1.2331
36361SOL    HW212582   8.961   9.681   6.233  0.0359  0.8069 -2.4556
36362SOL     OW12583   2.327   3.149   1.879 -0.7695  0.2686 -0.1395
36362SOL    HW112584   2.320   3.094   1.957 -0.8843  0.7390  0.1881
36362SOL    HW212585   2.370   3.094   1.814 -2.1925 -0.7151 -0.2973
36363SOL     OW12586   2.886   7.362   2.532  0.0550 -0.2214 -0.0543
36363SOL    HW112587   2.898   7.312   2.451 -1.5678  0.9929 -1.1229
36363SOL    HW212588   2.957   7.426   2.531 -0.8051  0.8023 -1.4061
36364SOL     OW12589   9.066   5.207   6.780 -0.2975 -0.1991 -0.0645
36364SOL    HW112590   9.047   5.268   6.709 -0.7291 -0.8582 -0.5287
36364SOL    HW212591   9.162   5.208   6.788 -0.2008 -0.5761 -1.0783
36365SOL     OW12592   1.883   4.544   5.577 -0.3869  0.2397 -0.4171
36365SOL    HW112593   1.820   4.473   5.584 -1.7931  1.4480 -0.1942
36365SOL    HW212594   1.935   4.537   5.657 -1.2830  0.1521  0.1779
36366SOL     OW12595   2.639   4.222   4.944  0.2410 -0.3072  0.0221
36366SOL    HW112596   2.728   4.246   4.918 -0.4317  0.7759 -1.4524
36366SOL    HW212597   2.625   4.136   4.904  0.0150  0.3445 -1.3784
36367SOL     OW12598   8.339   9.144   5.668  0.1188 -0.4686  0.2402
36367SOL    HW112599   8.420   9.129   5.717  0.8514  1.1722 -0.3980
36367SOL    HW212600   8.309   9.230   5.697 -0.7580 -0.5404 -0.4156
36368SOL     OW12601   9.779   4.653  10.181  0.2027  0.2695 -0.2256
36368SOL    HW112602   9.811   4.568  10.153  2.9035  0.8785  0.6789
36368SOL    HW212603   9.706   4.634  10.239  1.4367 -1.5426  0.8298
36369SOL     OW12604   1.694   7.865   3.658 -0.7121  0.0319 -0.1553
36369SOL    HW112605   1.730   7.836   3.574 -0.5202  0.9336 -0.4050
36369SOL    HW212606   1.607   7.825   3.662  0.3462 -2.3195  0.5488
36370SOL     OW12607   9.234   8.866   3.045  0.4216  0.2450  1.2734
36370SOL    HW112608   9.145   8.879   3.077  0.2868  1.1575  0.5815
36370SOL    HW212609   9.272   8.801   3.104 -1.1305 -1.2152  0.7454
36371SOL     OW12610   5.683   3.695   8.054  0.0691  0.0798  0.5223
36371SOL    HW112611   5.645   3.674   8.139 -3.1801  0.6986 -0.6255
36371SOL    HW212612   5.711   3.787   8.062 -1.8629  0.7079  0.4696
36372SOL     OW12613   8.846   5.858   1.370  0.1511  0.4749  0.1419
36372SOL    HW112614   8.802   5.775   1.353 -2.2238  2.0105 -1.9868
36372SOL    HW212615   8.939   5.835   1.379 -0.4821 -2.4145  0.1870
36373SOL     OW12616   5.879   6.739   0.432 -0.1694  0.1240 -0.6868
36373SOL    HW112617   5.855   6.650   0.457  2.4454 -0.7438 -0.9820
36373SOL    HW212618   5.819   6.762   0.361 -1.5945 -0.9540  0.1311
36374SOL     OW12619   6.152   9.481   5.902 -0.3214 -0.1670  0.5136
36374SOL    HW112620   6.144   9.546   5.833 -2.0272  0.8604  1.6220
36374SOL    HW212621   6.063   9.467   5.934  0.5015  0.4139  3.4015
36375SOL     OW12622   0.776   6.236   3.114 -0.9744 -0.3482  0.3882
36375SOL    HW112623   0.830   6.178   3.167  0.0966  0.5877  0.3716
36375SOL    HW212624   0.788   6.205   3.025  0.2141  0.3209  0.2859
36376SOL     OW12625   0.218   7.219   7.286 -0.0638  0.0527 -0.4036
36376SOL    HW112626   0.123   7.213   7.279 -0.1571  2.1472 -2.3641
36376SOL    HW212627   0.235   7.314   7.286  2.0734 -0.2744 -1.6218
36377SOL     OW12628   3.605   9.505   0.884 -0.3011  0.5046 -0.0701
36377SOL    HW112629   3.608   9.600   0.889 -0.8792  0.5780 -0.9204
36377SOL    HW212630   3.588   9.477   0.974  0.7929  1.1446  0.3643
36378SOL     OW12631   2.088   7.081  10.498  0.6709 -0.2590  0.2886
36378SOL    HW112632   2.145   7.067  10.422 -0.5596 -1.6982 -0.4221
36378SOL    HW212633   2.022   7.144  10.468  0.9259  0.1669  0.5993
36379SOL     OW12634   9.017   9.880   1.025  0.7124 -0.4118  0.6347
36379SOL    HW112635   9.065   9.895   1.107 -0.0650 -0.8547  1.1832
36379SOL    HW212636   8.943   9.825   1.051 -0.1699  0.3747 -0.1719
36380SOL     OW12637   1.975   2.911   6.568 -0.1353 -0.3611  0.4747
36380SOL    HW112638   1.955   2.840   6.630 -0.0204  0.2762  1.2540
36380SOL    HW212639   1.934   2.988   6.606 -2.0175 -0.3562 -1.3824
36381SOL     OW12640   8.405  10.596   6.844 -0.2790  0.0525 -0.5706
36381SOL    HW112641   8.473  10.646   6.799 -0.2031  0.0666 -0.4418
36381SOL    HW212642   8.341  10.663   6.871  1.0979  0.5005  1.9514
36382SOL     OW12643   9.267  10.787   9.176 -0.2702 -0.2575 -0.0159
36382SOL    HW112644   9.219  10.799   9.094  0.4826 -1.0573 -0.5907
36382SOL    HW212645   9.359  10.790   9.150 -0.0334 -1.2748  0.6802
36383SOL     OW12646   5.680   2.055   3.255  1.0181  0.0012 -0.2336
36383SOL    HW112647   5.709   1.974   3.297 -0.1472  0.1064  0.8397
36383SOL    HW212648   5.606   2.028   3.201  0.4055  0.3803  0.3984
36384SOL     OW12649   9.394   9.605  10.494 -0.0485  0.2266 -0.4358
36384SOL    HW112650   9.381   9.663  10.569 -0.7907  1.1638 -1.2462
36384SOL    HW212651   9.430   9.525  10.531  0.2445  0.9105  0.8271
36385SOL     OW12652   5.573   4.294   2.963 -0.3901  0.2296 -0.0396
36385SOL    HW112653   5.662   4.310   2.930 -0.0887 -0.3616  0.4535
36385SOL    HW212654   5.570   4.341   3.046 -0.6744  0.5703 -0.2412
36386SOL     OW12655   3.586   3.097   0.249  0.0895  0.0720  0.2059
36386SOL    HW112656   3.581   3.124   0.157  1.7450  0.9498  0.3290
36386SOL    HW212657   3.596   3.179   0.297  2.0696 -0.4990  0.8913
36387SOL     OW12658   7.423   5.814  10.878  0.3638 -0.1729 -0.0993
36387SOL    HW112659   7.394   5.898  10.844 -0.0064  0.0662  0.7675
36387SOL    HW212660   7.403   5.751  10.809 -0.6006  0.2587 -0.2304
36388SOL     OW12661   8.765   9.758   7.709 -0.0818 -0.0002 -0.0724
36388SOL    HW112662   8.684   9.781   7.754 -0.0148  1.2214 -0.5546
36388SOL    HW212663   8.753   9.666   7.684 -2.1579  0.6656 -1.8785
36389SOL     OW12664   1.617  10.850   3.313 -0.5235  0.5687 -0.1597
36389SOL    HW112665   1.674  10.799   3.371 -0.4895 -0.1891 -0.8489
36389SOL    HW212666   1.677  10.908   3.266 -0.5669  1.3067  0.6510
36390SOL     OW12667   5.092   6.584   7.933  0.4814  0.3990  0.0301
36390SOL    HW112668   5.157   6.626   7.990  0.6779  1.3034 -0.8164
36390SOL    HW212669   5.136   6.577   7.848 -0.0130 -0.3591 -0.1689
36391SOL     OW12670   8.377   9.079   4.183  0.4886 -0.1536 -0.0741
36391SOL    HW112671   8.307   9.020   4.156 -1.0179  1.2495  0.6475
36391SOL    HW212672   8.439   9.022   4.229 -0.5140 -1.3079 -0.1047
36392SOL     OW12673   1.475   4.084   3.187 -0.4130  0.0658 -0.1872
36392SOL    HW112674   1.478   4.102   3.281 -4.7013 -0.9185  0.3425
36392SOL    HW212675   1.449   4.167   3.147  0.0847  0.1526 -0.3305
36393SOL     OW12676   4.159   9.805   6.975 -0.0290  0.5045 -0.2019
36393SOL    HW112677   4.178   9.763   6.891 -0.5957  0.2767 -0.2191
36393SOL    HW212678   4.160   9.898   6.956 -1.8439  0.4247 -0.8431
36394SOL     OW12679  10.024  10.845   3.293  0.0797  0.0962  0.6906
36394SOL    HW112680  10.095  10.791   3.258  0.1739  1.2601 -1.0156
36394SOL    HW212681   9.957  10.781   3.320  0.0524 -0.9128 -1.5583
36395SOL     OW12682   0.180   9.544   5.951  0.1587 -0.2140  0.1775
36395SOL    HW112683   0.245   9.489   5.996 -1.0947 -0.9019  1.2081
36395SOL    HW212684   0.175   9.507   5.863  1.9230  0.5361 -0.2999
36396SOL     OW12685   0.652   6.956   5.107 -0.5552  0.6035  0.1904
36396SOL    HW112686   0.734   6.962   5.156 -0.9208  1.4782  0.7265
36396SOL    HW212687   0.621   6.867   5.122  0.4689  0.1444 -0.3209
36397SOL     OW12688   9.216   9.043   5.594 -0.7133 -0.3495  0.1292
36397SOL    HW112689   9.126   9.057   5.624 -0.8550  0.6578 -0.6987
36397SOL    HW212690   9.259   9.127   5.606  0.6199 -1.2395  2.0521
36398SOL     OW12691   1.506   0.524   1.432  0.3748  0.3746  0.0868
36398SOL    HW112692   1.487   0.444   1.481 -1.1187  0.9811  0.5586
36398SOL    HW212693   1.564   0.496   1.362  0.8867 -0.8931  0.9771
36399SOL     OW12694   0.660   4.568   9.284  0.6200 -0.0398  0.3071
36399SOL    HW112695   0.573   4.581   9.247 -0.0583  0.3382  1.9420
36399SOL    HW212696   0.718   4.562   9.208 -0.8508 -0.5528 -0.8277
36400SOL     OW12697   7.895   0.806   4.687  0.2610  0.3038 -0.1550
36400SOL    HW112698   7.808   0.783   4.652  0.5699 -0.8006 -0.2334
36400SOL    HW212699   7.946   0.725   4.679  0.5445  0.1653  2.2621
36401SOL     OW12700   9.638   5.481  10.028 -1.1437 -0.2636 -0.5218
36401SOL    HW112701   9.630   5.544   9.956  2.3925  1.1002  0.0641
36401SOL    HW212702   9.725   5.443  10.017 -1.0519 -1.0405  2.2111
36402SOL     OW12703   4.849   2.463   7.695  0.3868 -0.0406 -0.3275
36402SOL    HW112704   4.813   2.454   7.607 -1.8600 -1.0763  0.6168
36402SOL    HW212705   4.906   2.387   7.706  0.0073 -0.3742 -0.6229
36403SOL     OW12706   8.389   2.451   4.528 -0.7376  0.1721  0.1522
36403SOL    HW112707   8.411   2.404   4.448 -1.9377  0.3041 -0.2812
36403SOL    HW212708   8.311   2.406   4.562 -0.8900  0.7901  0.6496
36404SOL     OW12709   0.983   2.944   4.456  0.0820  0.5480 -0.2772
36404SOL    HW112710   0.900   2.937   4.410 -0.8972 -3.9320  1.6102
36404SOL    HW212711   1.047   2.905   4.396 -0.0126  0.2707 -0.2013
36405SOL     OW12712   4.222   8.622   9.286  0.3525  0.1695  0.1528
36405SOL    HW112713   4.296   8.589   9.234 -0.5030 -1.1836 -0.2807
36405SOL    HW212714   4.257   8.698   9.332  1.9435 -0.2719 -0.2400
36406SOL     OW12715   4.360   4.716  10.837 -0.3105 -0.1055  0.0761
36406SOL    HW112716   4.323   4.792  10.882  1.2029  1.3935 -1.0834
36406SOL    HW212717   4.284   4.662  10.814 -1.5406  1.6183 -0.0663
36407SOL     OW12718  10.385   5.617  10.031 -0.7233  0.2219  0.0508
36407SOL    HW112719  10.446   5.604   9.959 -0.0900  1.1297  0.4046
36407SOL    HW212720  10.331   5.537  10.032 -0.1226 -0.2061 -0.8168
36408SOL     OW12721   0.778   2.673   9.327 -0.6691  0.1539  0.0565
36408SOL    HW112722   0.693   2.648   9.292 -1.0418  0.9916  0.3168
36408SOL    HW212723   0.809   2.742   9.268 -0.5361  0.4050  0.4154
36409SOL     OW12724   0.629   3.804  10.845 -0.0275  0.8203 -0.5389
36409SOL    HW112725   0.682   3.724  10.851 -0.5808  0.5344  1.0991
36409SOL    HW212726   0.539   3.772  10.841 -0.2571  1.3490  0.2191
36410SOL     OW12727   2.275   8.344  10.414 -0.2309 -0.5458  0.0051
36410SOL    HW112728   2.351   8.393  10.382  1.4291 -2.1333  1.2584
36410SOL    HW212729   2.301   8.314  10.501 -1.9425 -1.9311  0.0995
36411SOL     OW12730  10.216   8.201   9.752 -0.1457 -0.3114  0.1552
36411SOL    HW112731  10.176   8.210   9.665 -0.6679  0.4069  0.4603
36411SOL    HW212732  10.187   8.279   9.800  1.9314  0.4341  0.2873
36412SOL     OW12733   4.221   1.356   2.944 -0.1217  0.4548 -0.9929
36412SOL    HW112734   4.219   1.363   3.039 -1.9230  1.3509 -1.0483
36412SOL    HW212735   4.267   1.274   2.926 -0.2393 -0.0002  0.6543
36413SOL     OW12736   1.585   2.555   8.580 -0.0836  0.0148 -0.1475
36413SOL    HW112737   1.509   2.576   8.634 -0.6913 -1.8560 -0.1716
36413SOL    HW212738   1.631   2.487   8.630  0.7065  0.0087 -0.8647
36414SOL     OW12739   3.781   4.741   9.177  0.1127  0.4764 -0.2616
36414SOL    HW112740   3.686   4.740   9.184  0.1405  0.0733  0.0433
36414SOL    HW212741   3.805   4.651   9.154  0.4485  0.4887  0.0328
36415SOL     OW12742  10.046   3.070   5.093 -0.6742 -0.2285 -0.6934
36415SOL    HW112743  10.128   3.077   5.044 -0.6861  0.4106 -0.6339
36415SOL    HW212744   9.981   3.113   5.038 -0.8119 -0.0532 -0.4013
36416SOL     OW12745  10.875   4.657   5.807 -0.0529 -0.3627 -0.4945
36416SOL    HW112746  10.943   4.707   5.762 -0.0168  0.4743  0.4677
36416SOL    HW212747  10.843   4.715   5.875  1.1040 -2.2159  1.7542
36417SOL     OW12748   8.315   1.830   2.845  0.4137  0.4267 -0.0657
36417SOL    HW112749   8.402   1.862   2.871 -0.2500  1.2883  1.2536
36417SOL    HW212750   8.260   1.909   2.845 -0.6557 -0.2877  0.4740
36418SOL     OW12751   0.128   5.474   7.544  0.6456 -0.5775  0.9009
36418SOL    HW112752   0.143   5.439   7.456 -0.3951 -1.4291  1.0447
36418SOL    HW212753   0.211   5.517   7.567  0.7086  0.2228 -0.7337
36419SOL     OW12754   3.577   0.015   2.152 -0.2846 -0.4240 -0.5693
36419SOL    HW112755   3.624  -0.068   2.156  0.0944 -0.4609 -3.4154
36419SOL    HW212756   3.640   0.077   2.114 -0.4226  1.3478  1.8376
36420SOL     OW12757   5.627   8.618  10.200  0.0693  0.3823 -0.4722
36420SOL    HW112758   5.549   8.648  10.246  0.8113 -1.4422  2.2024
36420SOL    HW212759   5.602   8.534  10.162  0.5666  0.0027  0.0156
36421SOL     OW12760   8.457   8.592   7.526  0.0642  0.3813 -0.4609
36421SOL    HW112761   8.515   8.526   7.489  0.7666  0.9334 -0.3509
36421SOL    HW212762   8.371   8.549   7.530  0.8543 -1.1762  1.2760
36422SOL     OW12763   0.745   5.178   7.018 -0.2021 -0.5650  0.2749
36422SOL    HW112764   0.732   5.168   6.924  1.2471  0.1274 -0.0238
36422SOL    HW212765   0.666   5.141   7.057 -1.3345  0.1434 -1.2403
36423SOL     OW12766   7.811  10.571   1.741  0.2149 -0.3522 -0.1111
36423SOL    HW112767   7.900  10.547   1.764 -0.0600 -1.1281  0.1603
36423SOL    HW212768   7.815  10.596   1.649  0.3159 -2.5115 -0.7404
36424SOL     OW12769   5.254   1.394   4.043  0.1465  0.1714  0.4021
36424SOL    HW112770   5.302   1.315   4.018 -1.1383 -1.3206  2.3269
36424SOL    HW212771   5.305   1.432   4.115  0.2611  0.5577  0.1188
36425SOL     OW12772   2.174   7.539   4.079 -0.2677 -0.2340 -0.3639
36425SOL    HW112773   2.205   7.486   4.152  2.2464  0.6069 -0.7229
36425SOL    HW212774   2.086   7.505   4.059 -0.0418 -2.0368  1.4824
36426SOL     OW12775   1.803   6.260   8.419  0.0249  0.0491 -0.6012
36426SOL    HW112776   1.837   6.172   8.433  0.0096  0.0646 -0.4578
36426SOL    HW212777   1.852   6.315   8.481  1.5821  0.5194 -2.1889
36427SOL     OW12778   7.958  10.223   6.638 -0.3417  0.2496 -0.2969
36427SOL    HW112779   8.045  10.241   6.602 -0.4807  1.4878 -0.0334
36427SOL    HW212780   7.916  10.308   6.645 -0.9014 -0.1217  1.3259
36428SOL     OW12781   8.538   6.968   7.399  0.0576 -0.7060 -0.1845
36428SOL    HW112782   8.590   7.016   7.463  0.4571 -0.3465 -0.7627
36428SOL    HW212783   8.453   6.955   7.441 -0.0848  0.5895 -0.0500
36429SOL     OW12784   8.666   6.502   2.633 -0.4086 -0.2117 -0.0434
36429SOL    HW112785   8.665   6.497   2.537 -0.8193 -0.3428 -0.0344
36429SOL    HW212786   8.618   6.425   2.662 -1.0113  0.2608  0.2506
36430SOL     OW12787   6.070   0.744   4.097 -0.5849 -0.2591 -0.2576
36430SOL    HW112788   6.075   0.832   4.061  1.2259 -0.4510 -0.5517
36430SOL    HW212789   6.120   0.748   4.179 -0.6286 -0.9625 -0.1875
36431SOL     OW12790   3.295   6.603   7.279  0.1746  0.5127 -0.2303
36431SOL    HW112791   3.377   6.571   7.316 -0.7497 -2.7618 -0.6848
36431SOL    HW212792   3.227   6.547   7.318 -1.4181  0.6576 -2.5491
36432SOL     OW12793   6.650   0.180   8.799  0.7359 -0.0159  0.3429
36432SOL    HW112794   6.726   0.150   8.850 -0.1307 -0.2678  1.5405
36432SOL    HW212795   6.659   0.137   8.714  2.5376  0.8626  0.0408
36433SOL     OW12796   4.233   4.741   8.006  0.2468  0.1895 -0.3050
36433SOL    HW112797   4.255   4.739   8.099  1.8704  0.0929 -0.6664
36433SOL    HW212798   4.143   4.708   8.001  1.4625 -3.7029  0.8392
36434SOL     OW12799   5.644   9.632   4.695 -0.5239  0.4479  0.3315
36434SOL    HW112800   5.614   9.721   4.709 -2.9253 -0.3694  0.8187
36434SOL    HW212801   5.739   9.638   4.697 -0.5727  3.1832 -1.0263
36435SOL     OW12802   7.896   0.390   9.746  0.0798 -0.3324  0.0449
36435SOL    HW112803   7.949   0.321   9.785 -0.4160 -0.6772  0.1163
36435SOL    HW212804   7.959   0.459   9.724  0.2919  0.1190  1.9613
36436SOL     OW12805  10.049   6.330   9.299  0.4790  0.0243 -0.1469
36436SOL    HW112806  10.052   6.235   9.289 -0.0505  0.1872 -2.4379
36436SOL    HW212807   9.999   6.344   9.379  2.1738 -1.6021  1.3194
36437SOL     OW12808   8.115   2.579   1.941  0.3430  0.4564  0.4222
36437SOL    HW112809   8.193   2.628   1.913  0.5524 -0.0440  0.1186
36437SOL    HW212810   8.087   2.533   1.862  0.1344  0.1061  0.7010
36438SOL     OW12811   7.881   7.593   7.047 -0.2538  0.1264  0.0524
36438SOL    HW112812   7.846   7.586   7.136  0.4713 -1.1756  0.2587
36438SOL    HW212813   7.969   7.630   7.059  0.2177 -0.9298 -0.0078
36439SOL     OW12814   9.974   8.476   1.752 -0.1695  0.0774 -0.1413
36439SOL    HW112815  10.014   8.394   1.782  2.3112  1.4377  0.5791
36439SOL    HW212816   9.932   8.453   1.669  0.0944 -1.9919  0.2442
36440SOL     OW12817   3.120   6.436   8.836 -0.2740  0.2149 -0.8613
36440SOL    HW112818   3.075   6.472   8.760 -3.7328 -1.6932  0.0896
36440SOL    HW212819   3.188   6.379   8.800 -0.1529  1.2835 -2.4020
36441SOL     OW12820   1.093   8.588   1.256  0.4775 -0.6781 -0.4237
36441SOL    HW112821   1.060   8.563   1.170 -0.6680 -0.6543 -0.0101
36441SOL    HW212822   1.030   8.552   1.318  1.1655 -0.5077  0.4010
36442SOL     OW12823   6.536   5.831   0.418  0.2969 -0.3233  0.0004
36442SOL    HW112824   6.529   5.925   0.438 -1.1260 -0.8096  2.2084
36442SOL    HW212825   6.463   5.792   0.466  0.0968 -2.4395 -1.9211
36443SOL     OW12826   6.915   4.995  10.538 -0.5842  0.3776 -0.6498
36443SOL    HW112827   6.870   4.920  10.498 -1.7121  0.8950 -0.3829
36443SOL    HW212828   6.859   5.021  10.611  1.6698 -0.8232  1.6294
36444SOL     OW12829   0.177   9.577   6.607 -0.5607  0.0828  0.1204
36444SOL    HW112830   0.134   9.545   6.687 -0.1959 -0.2112  0.2003
36444SOL    HW212831   0.150   9.669   6.601 -0.4388  0.1633  0.6884
36445SOL     OW12832   7.435   1.656   4.813 -0.1941  0.6922  0.0113
36445SOL    HW112833   7.466   1.654   4.723 -0.8185  0.6449 -0.2053
36445SOL    HW212834   7.452   1.568   4.847 -2.2318 -0.0929 -0.8502
36446SOL     OW12835   7.200   0.017   8.268  0.2968 -0.1408  0.2457
36446SOL    HW112836   7.171   0.106   8.291 -0.5759 -0.1740 -0.6798
36446SOL    HW212837   7.273   0.001   8.327  0.4377  1.1739  0.4731
36447SOL     OW12838   4.492   2.636   0.570  0.0676 -0.5825  0.2720
36447SOL    HW112839   4.558   2.628   0.639  0.0304  0.4319  0.4434
36447SOL    HW212840   4.413   2.596   0.607  0.3551 -1.0609  0.3759
36448SOL     OW12841   8.059   6.750   0.662  0.1554  0.0974  0.3380
36448SOL    HW112842   8.149   6.760   0.692  0.0802  0.5915  0.4129
36448SOL    HW212843   8.058   6.667   0.615  1.5857  1.8153 -3.0609
36449SOL     OW12844   4.041   0.026   4.131 -0.0762 -0.0144  0.0019
36449SOL    HW112845   3.979   0.083   4.085  0.0408 -0.2309 -0.4366
36449SOL    HW212846   4.002   0.011   4.216  0.4627  1.7096  0.5951
36450SOL     OW12847   7.455   8.164   1.361  0.1001  0.0750 -0.0720
36450SOL    HW112848   7.529   8.189   1.416 -0.4538  0.1228  0.6828
36450SOL    HW212849   7.460   8.069   1.357 -1.4230 -0.2181  2.4552
36451SOL     OW12850   8.276   6.035   5.061 -0.4583 -0.1192  0.6265
36451SOL    HW112851   8.290   6.046   5.155 -1.9476  0.2663  0.8185
36451SOL    HW212852   8.345   5.974   5.034  0.5331  0.4407  1.7830
36452SOL     OW12853   0.004   9.601   1.020  0.5643  0.0574  0.5528
36452SOL    HW112854  -0.022   9.620   0.930 -1.6795 -1.8669  0.7087
36452SOL    HW212855   0.027   9.508   1.020  2.8673  0.5500  1.5397
36453SOL     OW12856  10.743   6.955   1.985  0.2483  0.6001  0.6880
36453SOL    HW112857  10.657   6.924   2.015 -0.2404 -0.6468 -1.7434
36453SOL    HW212858  10.805   6.894   2.023 -0.2656 -0.3727  0.0238
36454SOL     OW12859   3.800   2.145   2.754  0.4591  0.1991  0.4711
36454SOL    HW112860   3.840   2.202   2.689  1.2149  2.2697  2.5944
36454SOL    HW212861   3.864   2.075   2.768  0.6061  0.1447 -0.4330
36455SOL     OW12862   4.740  10.015   6.870 -0.0615  0.4440  0.3339
36455SOL    HW112863   4.646   9.999   6.882 -0.6024  1.9166 -1.5915
36455SOL    HW212864   4.766   9.955   6.800  0.1848  0.8071  0.1092
36456SOL     OW12865  10.613   6.641  10.747 -0.0652  0.4890  0.8081
36456SOL    HW112866  10.592   6.618  10.838 -0.0485 -0.8174  0.5132
36456SOL    HW212867  10.588   6.563  10.697 -0.1829  1.2395 -0.3227
36457SOL     OW12868  10.967   3.031   1.913 -0.3456 -0.0315  0.3314
36457SOL    HW112869  10.991   2.942   1.938 -0.9423 -0.6231 -1.1136
36457SOL    HW212870  10.914   3.021   1.834  1.8522  1.7538 -1.5075
36458SOL     OW12871   0.165   4.870   4.831 -0.0348 -0.3315 -0.0350
36458SOL    HW112872   0.137   4.920   4.755 -0.7337  0.2760  0.6032
36458SOL    HW212873   0.087   4.824   4.860  0.4452 -1.2771 -0.2170
36459SOL     OW12874   8.783   9.911   9.570 -0.4854  0.0049  0.3491
36459SOL    HW112875   8.785   9.930   9.664 -1.7277 -2.2624  0.9205
36459SOL    HW212876   8.792   9.996   9.527  0.0958  1.0910  2.5121
36460SOL     OW12877   9.752   7.737   3.025  0.2272  0.1203 -0.4015
36460SOL    HW112878   9.835   7.766   2.987  0.2061 -0.9089 -1.2838
36460SOL    HW212879   9.747   7.783   3.109  1.1724  1.0184 -0.8076
36461SOL     OW12880   4.299   9.170   5.419 -0.3013  0.1749  0.2204
36461SOL    HW112881   4.254   9.188   5.336 -2.7958  1.5045  1.7400
36461SOL    HW212882   4.255   9.226   5.483  0.9370 -1.4338  2.6420
36462SOL     OW12883   2.993  10.849   5.721  0.2652  0.2496 -0.2645
36462SOL    HW112884   3.012  10.937   5.689 -0.8755 -0.0940 -2.0750
36462SOL    HW212885   2.982  10.796   5.641  0.2100 -1.3692  0.7590
36463SOL     OW12886   4.271   0.460   6.856 -0.0365  0.1513  1.1358
36463SOL    HW112887   4.268   0.556   6.852  0.1845  0.2692 -4.6997
36463SOL    HW212888   4.179   0.433   6.860 -0.1322  0.5807  1.9980
36464SOL     OW12889   9.265   6.287   0.812  0.1383 -0.1185  0.4453
36464SOL    HW112890   9.247   6.194   0.799  0.2668 -0.1156  0.2529
36464SOL    HW212891   9.349   6.302   0.770 -0.4724  0.3534 -0.6679
36465SOL     OW12892   2.477   3.936  10.602 -0.3756  0.0507 -0.2699
36465SOL    HW112893   2.403   3.948  10.662 -0.2892 -0.2013 -0.1105
36465SOL    HW212894   2.549   3.908  10.658  0.4592  2.3274 -0.0941
36466SOL     OW12895   0.446  10.531   7.180 -0.2799 -0.0523  0.2175
36466SOL    HW112896   0.517  10.467   7.174 -0.6611 -0.5021  0.3763
36466SOL    HW212897   0.450  10.579   7.098  0.3593  0.0911  0.3277
36467SOL     OW12898   0.316   7.695   2.092  0.1079  0.3106 -0.2455
36467SOL    HW112899   0.378   7.766   2.077 -0.1325  0.8898  1.3114
36467SOL    HW212900   0.319   7.680   2.186 -0.9347 -0.7422 -0.3584
36468SOL     OW12901   2.800   5.694  10.807  0.0224  0.3084 -0.3122
36468SOL    HW112902   2.734   5.762  10.795 -0.8845 -0.6501 -0.8843
36468SOL    HW212903   2.800   5.646  10.724 -0.7592 -1.5862  0.7355
36469SOL     OW12904   2.216   3.931   2.523 -0.1789 -0.7947 -0.3163
36469SOL    HW112905   2.211   3.906   2.616 -0.8893 -3.5668 -1.0258
36469SOL    HW212906   2.238   3.851   2.477 -0.4169  0.3890 -2.6509
36470SOL     OW12907  10.866   2.449   1.840  0.2156  0.1858 -0.5586
36470SOL    HW112908  10.948   2.493   1.816  1.2667 -1.1131  0.5273
36470SOL    HW212909  10.800   2.490   1.784  1.1606  2.9609  0.2053
36471SOL     OW12910   9.679   0.680   0.963  0.4455 -0.4844 -0.0782
36471SOL    HW112911   9.598   0.730   0.952  1.0138  0.6847  0.8193
36471SOL    HW212912   9.658   0.593   0.931  0.1457  0.8916 -4.1770
36472SOL     OW12913  10.315   3.448   3.103  0.2820  0.4503 -0.8003
36472SOL    HW112914  10.314   3.537   3.069 -0.8519  0.1200 -1.6742
36472SOL    HW212915  10.289   3.457   3.195  0.4925  1.0370 -0.7946
36473SOL     OW12916   5.098   3.073   6.433 -0.0567  0.1455 -0.5839
36473SOL    HW112917   5.091   3.100   6.341 -0.1624  0.3068 -0.5275
36473SOL    HW212918   5.098   2.977   6.429  1.3081  0.1336 -0.8561
36474SOL     OW12919   9.089   0.401   3.234  0.2533 -0.1272  0.3737
36474SOL    HW112920   9.125   0.476   3.186 -2.3708  0.5440 -0.7457
36474SOL    HW212921   9.148   0.390   3.309  1.3079  2.4389  0.0434
36475SOL     OW12922   4.330   3.511   9.229  0.4582 -0.3055 -0.3985
36475SOL    HW112923   4.264   3.573   9.198  1.6447  2.4658  2.0738
36475SOL    HW212924   4.301   3.487   9.317  1.5390 -0.9021 -0.1816
36476SOL     OW12925   1.998   8.145   9.800  0.2778 -0.3412  0.1137
36476SOL    HW112926   2.005   8.223   9.745 -1.7299 -0.0135  0.2452
36476SOL    HW212927   2.083   8.138   9.843  1.2699  0.4424 -1.6184
36477SOL     OW12928   5.316   4.230   9.660  0.4819  0.5383 -0.3527
36477SOL    HW112929   5.343   4.287   9.587 -0.4582  0.3822 -0.8303
36477SOL    HW212930   5.286   4.150   9.618  0.9887  0.0047  0.2799
36478SOL     OW12931   5.504  10.174   8.690  0.4659  0.2485 -0.3878
36478SOL    HW112932   5.567  10.104   8.704 -0.3994 -0.9423 -1.9781
36478SOL    HW212933   5.433  10.156   8.752  0.9731  0.6821  0.3258
36479SOL     OW12934  10.406   3.050   8.420 -0.5400 -0.3025 -0.1416
36479SOL    HW112935  10.456   2.984   8.372 -0.2193  0.0175 -0.2572
36479SOL    HW212936  10.315   3.036   8.394 -0.2089  1.0010 -2.2632
36480SOL     OW12937  10.799   1.652   3.004  0.0310 -0.4977 -0.2749
36480SOL    HW112938  10.895   1.659   3.008  0.1044 -0.8272 -1.3078
36480SOL    HW212939  10.768   1.741   3.021  0.5512 -0.1843 -0.9268
36481SOL     OW12940   7.664   2.498   3.609 -0.1402 -0.1191  0.2263
36481SOL    HW112941   7.722   2.533   3.542 -0.6111 -0.4885 -0.3806
36481SOL    HW212942   7.579   2.489   3.566 -0.0272 -2.1210  0.2927
36482SOL     OW12943   3.438   7.719   7.293 -0.3328  0.3050  0.1045
36482SOL    HW112944   3.405   7.783   7.355  0.2672  1.6128 -0.8808
36482SOL    HW212945   3.530   7.707   7.316 -0.2086  0.4990 -0.2804
36483SOL     OW12946   5.137   5.202   2.553  0.4804 -0.2764 -0.4407
36483SOL    HW112947   5.198   5.267   2.590  1.0470 -0.1389 -1.5994
36483SOL    HW212948   5.053   5.248   2.551  0.3803 -0.3576  0.8566
36484SOL     OW12949   2.281   9.455   6.875  0.0076 -0.1210 -0.2463
36484SOL    HW112950   2.260   9.380   6.819 -2.8464  0.1272  0.3398
36484SOL    HW212951   2.217   9.450   6.946  1.2281  1.6065  1.0530
36485SOL     OW12952   6.709   9.881   2.075 -0.2767 -0.7111  0.1810
36485SOL    HW112953   6.666   9.962   2.101 -0.7810 -1.5981  2.3082
36485SOL    HW212954   6.803   9.899   2.086 -0.4132 -0.5887  1.2415
36486SOL     OW12955   4.171   9.884   3.639 -0.2822 -0.0732  0.6956
36486SOL    HW112956   4.167   9.966   3.590 -0.3567 -0.4804  0.0123
36486SOL    HW212957   4.138   9.818   3.578 -2.4915 -0.2733  1.9703
36487SOL     OW12958   8.852   2.363   7.476 -0.3986 -0.5548 -0.2132
36487SOL    HW112959   8.842   2.411   7.558  0.2900 -0.7418 -0.0161
36487SOL    HW212960   8.777   2.391   7.423  0.2958  1.1869 -0.3369
36488SOL     OW12961   4.540  10.517   4.480 -0.2035 -0.7698 -0.3871
36488SOL    HW112962   4.456  10.533   4.524  0.4582  2.5409 -0.0497
36488SOL    HW212963   4.587  10.600   4.488  4.0659 -3.0664  1.3496
36489SOL     OW12964   6.600   0.414   5.911  0.7934  0.3565  0.4690
36489SOL    HW112965   6.683   0.432   5.868  1.2949 -1.6255  0.4967
36489SOL    HW212966   6.600   0.319   5.923 -2.1018  0.0857 -0.8557
36490SOL     OW12967   1.714   6.189   7.172  0.6268  0.4822  0.2108
36490SOL    HW112968   1.697   6.263   7.114 -0.4831  0.8047  0.8951
36490SOL    HW212969   1.728   6.230   7.258  0.0254 -0.0808  0.5872
36491SOL     OW12970   7.283   3.998   5.827 -0.0925  0.5974  0.2644
36491SOL    HW112971   7.296   4.035   5.739  1.4341 -0.2587  0.1060
36491SOL    HW212972   7.369   4.001   5.868 -0.6215  0.2251  1.4543
36492SOL     OW12973   1.993   8.131   4.285 -0.3392 -0.3564  0.9529
36492SOL    HW112974   2.054   8.203   4.297  0.5354 -1.2066  1.7736
36492SOL    HW212975   1.992   8.086   4.369 -2.7058  0.0760  1.2338
36493SOL     OW12976   7.578   7.958   7.509  0.0721 -0.0584  0.5773
36493SOL    HW112977   7.628   7.976   7.429 -0.3681 -0.5805  0.1745
36493SOL    HW212978   7.638   7.908   7.564  1.4905  2.9059  1.9241
36494SOL     OW12979   1.034   4.166   5.692  0.0855 -0.2500 -0.5585
36494SOL    HW112980   0.981   4.208   5.760 -0.4696 -1.0508 -0.4846
36494SOL    HW212981   0.983   4.177   5.612  1.0803  1.3428 -1.0145
36495SOL     OW12982   5.596   1.434   6.358  0.4111 -0.2451  0.6536
36495SOL    HW112983   5.667   1.453   6.298 -1.2190  0.4066 -1.1956
36495SOL    HW212984   5.574   1.519   6.396 -0.2699 -0.1711  0.1229
36496SOL     OW12985   3.336   6.180   9.578 -0.2185  0.4082  0.0241
36496SOL    HW112986   3.413   6.125   9.568 -1.1388 -0.7108 -1.4319
36496SOL    HW212987   3.343   6.245   9.509 -0.4645  0.4307  0.0175
36497SOL     OW12988   4.556   4.468   9.249 -0.6824 -0.0953  0.1856
36497SOL    HW112989   4.587   4.537   9.307  0.8752 -1.6213  1.2728
36497SOL    HW212990   4.609   4.478   9.169 -1.2591  0.6368 -0.1138
36498SOL     OW12991   6.681   6.573   5.971  0.2072  0.5822 -0.0003
36498SOL    HW112992   6.650   6.535   5.889  1.4786 -0.6700  0.0697
36498SOL    HW212993   6.747   6.637   5.944 -0.5769  1.4170 -0.0114
36499SOL     OW12994   6.593   7.487  10.705  0.0594  0.2186  0.0146
36499SOL    HW112995   6.588   7.554  10.638  0.2867 -0.6155 -0.8564
36499SOL    HW212996   6.552   7.410  10.666  0.2232 -0.2939  0.8160
36500SOL     OW12997   6.400   3.683   5.611 -0.4633  0.1134  0.0017
36500SOL    HW112998   6.370   3.774   5.616  0.0102  0.3128 -0.6003
36500SOL    HW212999   6.407   3.666   5.517  0.9989 -0.0249  0.1271
36501SOL     OW13000   3.371   7.045   2.230 -0.2089  0.4059  0.0653
36501SOL    HW113001   3.332   7.116   2.282  2.6000  1.8562  0.3794
36501SOL    HW213002   3.465   7.062   2.232  0.4639 -2.4738 -1.2152
36502SOL     OW13003   3.477   8.620  10.099 -0.1130  0.1740  0.2977
36502SOL    HW113004   3.389   8.645  10.073  0.0720  0.4107 -0.1128
36502SOL    HW213005   3.532   8.694  10.072  0.1209  0.3084  1.1211
36503SOL     OW13006   8.826   0.928   6.746 -0.1270 -0.4833 -0.0063
36503SOL    HW113007   8.859   0.880   6.822 -1.7824  0.5505  1.4285
36503SOL    HW213008   8.889   0.998   6.732  0.5190 -1.0511 -0.0136
36504SOL     OW13009   3.954   2.280   8.491  0.1456 -0.2284 -0.1686
36504SOL    HW113010   4.022   2.212   8.496  0.9943  0.6163  0.2173
36504SOL    HW213011   3.913   2.266   8.406  2.1451  0.4338 -1.3320
36505SOL     OW13012   3.479   2.659   1.297 -0.3380  0.5232 -0.3635
36505SOL    HW113013   3.460   2.690   1.208 -0.9239 -0.8868 -0.7684
36505SOL    HW213014   3.406   2.690   1.350  0.0013  1.3501 -0.3719
36506SOL     OW13015   6.617   4.350   8.500 -0.3504 -0.2420  0.3980
36506SOL    HW113016   6.558   4.424   8.488  0.6935  0.3736 -1.2534
36506SOL    HW213017   6.702   4.390   8.518 -0.0824 -1.0769  1.0443
36507SOL     OW13018   9.274   7.223   0.905  0.4174  0.0037  0.1983
36507SOL    HW113019   9.261   7.129   0.914 -1.5808  0.0926 -1.1256
36507SOL    HW213020   9.360   7.240   0.945  1.9163 -2.7091 -1.6225
36508SOL     OW13021   5.282   4.519   7.380  0.0142 -0.4457  0.5967
36508SOL    HW113022   5.287   4.431   7.343 -1.6864  0.8058 -3.1057
36508SOL    HW213023   5.202   4.519   7.433  0.3009 -1.2239  1.0476
36509SOL     OW13024   7.248   8.174   8.545  0.1795  0.1139  0.4043
36509SOL    HW113025   7.216   8.242   8.486  0.6513 -0.8227 -1.0130
36509SOL    HW213026   7.337   8.155   8.514  1.0305  0.6192  2.3932
36510SOL     OW13027   9.972   3.641   5.841 -0.3113 -0.1023 -0.4229
36510SOL    HW113028   9.979   3.647   5.936  0.0398 -0.5157 -0.4223
36510SOL    HW213029  10.054   3.677   5.809 -1.3680  2.3328 -0.6624
36511SOL     OW13030   3.352   1.372   7.892  0.2926 -0.1350  0.0828
36511SOL    HW113031   3.285   1.440   7.889  1.2164  0.7628 -1.0549
36511SOL    HW213032   3.307   1.296   7.930 -1.4833  0.3182 -0.9998
36512SOL     OW13033   2.398   6.286   4.856  0.3912  0.0186  0.2563
36512SOL    HW113034   2.307   6.300   4.833  0.4583  0.1724  0.0753
36512SOL    HW213035   2.396   6.238   4.939  0.1196 -2.3282 -1.0242
36513SOL     OW13036   0.126   6.035   9.969 -0.3973  0.0068 -0.4706
36513SOL    HW113037   0.091   6.047   9.881  0.0400 -0.2191 -0.6804
36513SOL    HW213038   0.148   6.123   9.998 -1.0422  0.1402 -0.3720
36514SOL     OW13039   7.182   9.863   0.319  0.1158 -0.3391 -0.3066
36514SOL    HW113040   7.116   9.900   0.378 -1.7865 -1.9325 -1.2927
36514SOL    HW213041   7.226   9.796   0.372  0.4763  0.2456  0.1481
36515SOL     OW13042   1.039   8.762   0.022 -0.0297  0.0954  0.2415
36515SOL    HW113043   1.094   8.687  -0.005 -2.3651 -1.6834  0.1357
36515SOL    HW213044   1.031   8.815  -0.058 -0.1616 -0.7583 -0.3311
36516SOL     OW13045   5.223  10.436   4.205 -0.1916 -0.2645 -0.1257
36516SOL    HW113046   5.212  10.496   4.132  0.4095 -1.0167 -0.8492
36516SOL    HW213047   5.134  10.406   4.225 -0.2759 -0.7496 -1.1572
36517SOL     OW13048   4.196   8.982   2.415 -0.2469  0.0786  0.0459
36517SOL    HW113049   4.144   9.057   2.445 -0.4098 -0.0663  0.1293
36517SOL    HW213050   4.170   8.968   2.324  1.9723  2.0214 -0.9936
36518SOL     OW13051   1.412   7.962  10.997 -0.4113  0.1711 -0.1164
36518SOL    HW113052   1.490   7.906  10.994 -0.6893 -0.4706  2.3749
36518SOL    HW213053   1.344   7.911  10.954 -0.1612 -0.5821  0.3540
36519SOL     OW13054   7.258   1.134   4.283  0.4284  0.0958  0.3359
36519SOL    HW113055   7.338   1.128   4.231 -0.4296 -2.4381 -0.8169
36519SOL    HW213056   7.210   1.055   4.263 -2.0110  1.1325  1.6707
36520SOL     OW13057   2.113   1.051   5.513  0.1174 -0.1506  0.4511
36520SOL    HW113058   2.139   1.143   5.508  0.0815 -0.0437  1.8473
36520SOL    HW213059   2.127   1.017   5.424  2.2717  0.6397  0.4135
36521SOL     OW13060   3.890   2.776   4.153  0.1768  0.0993  0.5681
36521SOL    HW113061   3.915   2.687   4.180  0.2156  0.2223  0.9412
36521SOL    HW213062   3.939   2.791   4.072 -0.8874 -0.7540 -0.2724
36522SOL     OW13063   8.684   5.419   2.576  0.1943  0.0075 -0.0549
36522SOL    HW113064   8.588   5.421   2.581  0.2375 -0.5945  1.7487
36522SOL    HW213065   8.708   5.333   2.612  1.3580 -0.8087 -2.5316
36523SOL     OW13066  10.267   3.696   9.942 -0.3679 -0.0886  0.1728
36523SOL    HW113067  10.349   3.739   9.964 -0.1276 -1.3075  1.9027
36523SOL    HW213068  10.289   3.635   9.872  0.1738 -0.2670  0.4919
36524SOL     OW13069   6.688   5.551   3.559  0.1208  0.0071 -0.1997
36524SOL    HW113070   6.755   5.514   3.615 -0.4530 -1.0310 -0.1802
36524SOL    HW213071   6.737   5.596   3.490  0.8619 -1.3346 -0.5928
36525SOL     OW13072   7.410   6.953   0.555  0.2253 -0.1804  0.1628
36525SOL    HW113073   7.368   7.036   0.533  0.3422 -0.2621 -0.3953
36525SOL    HW213074   7.487   6.977   0.606  0.2308  0.0502  0.0451
36526SOL     OW13075   7.295   7.991  10.711  0.2080 -0.1666  0.0033
36526SOL    HW113076   7.355   7.937  10.761  1.6520  2.1528  0.9208
36526SOL    HW213077   7.306   7.961  10.620  1.4973 -0.8836  0.3738
36527SOL     OW13078  10.824   3.792   9.755 -0.3026 -0.2952  0.4255
36527SOL    HW113079  10.748   3.771   9.702  0.9351  0.6348 -1.8737
36527SOL    HW213080  10.807   3.879   9.789 -0.8463 -0.6603  1.1201
36528SOL     OW13081   7.287   3.614  10.416  0.2232 -0.2086 -0.2407
36528SOL    HW113082   7.257   3.626  10.506  2.8232  0.9700  0.5494
36528SOL    HW213083   7.379   3.640  10.417  0.6159 -1.1207 -3.0433
36529SOL     OW13084   6.279   4.183   4.825 -0.1598  0.1087  0.4789
36529SOL    HW113085   6.189   4.214   4.820  0.1088  0.9595  0.7704
36529SOL    HW213086   6.329   4.248   4.775  0.1620 -0.9266 -0.5970
36530SOL     OW13087   0.045   2.350  10.175 -0.0414  0.2491  0.4333
36530SOL    HW113088   0.121   2.407  10.184  0.9796 -1.2313  1.7386
36530SOL    HW213089  -0.028   2.409  10.159  1.0403  1.8795  1.2903
36531SOL     OW13090  10.587   7.313   5.403  0.6238 -0.4772 -1.5178
36531SOL    HW113091  10.494   7.330   5.414  1.0990  0.5538  1.9739
36531SOL    HW213092  10.591   7.220   5.378 -1.3029 -0.1417 -3.4045
36532SOL     OW13093   2.133   7.522   6.079  0.2874  0.1343  0.2953
36532SOL    HW113094   2.088   7.490   6.157 -0.8321  0.2906 -0.2610
36532SOL    HW213095   2.115   7.616   6.079 -1.6335 -0.1470 -1.2792
36533SOL     OW13096   0.283   9.565  10.012 -0.0196 -0.0238 -0.1778
36533SOL    HW113097   0.217   9.581  10.078 -0.1065  0.8312 -0.4627
36533SOL    HW213098   0.237   9.517   9.942  0.2816 -1.7600  0.7473
36534SOL     OW13099   5.670   9.760   0.828 -0.0893 -0.1690 -0.4143
36534SOL    HW113100   5.609   9.690   0.854  0.4118 -1.1094 -1.6480
36534SOL    HW213101   5.676   9.752   0.733 -0.3737  1.8874 -0.6347
36535SOL     OW13102  10.382   0.845   2.882 -0.5680  0.1765 -0.4842
36535SOL    HW113103  10.348   0.802   2.960 -0.9071 -0.8679 -1.1897
36535SOL    HW213104  10.341   0.931   2.882  0.6961  0.8512  1.3623
36536SOL     OW13105   4.817   0.554   6.028 -0.0360  0.0241  0.6301
36536SOL    HW113106   4.860   0.637   6.007  2.5161 -0.5847  2.8469
36536SOL    HW213107   4.879   0.487   5.999 -1.7166 -1.1402 -0.4387
36537SOL     OW13108  10.599   3.151   3.305 -0.0275 -0.3590  0.2349
36537SOL    HW113109  10.674   3.182   3.254 -0.6777 -0.9585 -1.1455
36537SOL    HW213110  10.583   3.220   3.369  1.2262  0.1222  0.0660
36538SOL     OW13111   7.115   6.468   9.708 -0.5592  0.2755 -0.4961
36538SOL    HW113112   7.044   6.473   9.773  0.0038  0.3621  0.1230
36538SOL    HW213113   7.190   6.434   9.757 -0.2624 -0.1457 -1.2263
36539SOL     OW13114   0.877   7.489  10.894  0.3974  0.0028 -0.3831
36539SOL    HW113115   0.867   7.583  10.913  2.4626  0.1613  0.1696
36539SOL    HW213116   0.798   7.449  10.929 -0.2209  1.4706 -0.0297
36540SOL     OW13117   1.531   4.863   0.203 -0.2068  0.1833  0.3010
36540SOL    HW113118   1.439   4.885   0.218 -0.4010 -1.4156  1.7416
36540SOL    HW213119   1.578   4.946   0.212 -1.2429  0.6213  2.1285
36541SOL     OW13120   4.881  10.318   2.087  0.2994  0.2224 -0.2219
36541SOL    HW113121   4.971  10.301   2.060  0.6734  1.3846  0.2215
36541SOL    HW213122   4.874  10.413   2.088 -0.7552  0.1535  0.3350
36542SOL     OW13123   4.458   7.863   3.281  0.3285  0.2230  0.5307
36542SOL    HW113124   4.457   7.920   3.204  0.7805  0.3349  0.6053
36542SOL    HW213125   4.389   7.899   3.337  1.1791  1.2440  0.9603
36543SOL     OW13126   9.998  10.390   7.046  0.2756  0.0265  0.2333
36543SOL    HW113127   9.947  10.311   7.067 -2.0158  0.8982 -1.6318
36543SOL    HW213128   9.964  10.419   6.961  3.7200  0.9168 -0.9979
36544SOL     OW13129   2.185   5.507   4.735  0.2495  0.0948 -0.3340
36544SOL    HW113130   2.213   5.598   4.721  0.9921 -0.0777 -0.0197
36544SOL    HW213131   2.198   5.464   4.651 -3.2805  1.0274 -1.5447
36545SOL     OW13132   6.022   3.019  10.153  0.2942  0.6744  0.1642
36545SOL    HW113133   5.929   3.021  10.176  0.7660 -0.2579  2.3743
36545SOL    HW213134   6.060   3.093  10.199  1.0825 -0.6094  1.6982
36546SOL     OW13135   9.512   1.526   7.681 -0.7760 -0.3078  0.2981
36546SOL    HW113136   9.421   1.546   7.659 -0.2136 -0.1645 -2.0942
36546SOL    HW213137   9.519   1.547   7.775 -2.5352  2.1840 -0.0228
36547SOL     OW13138   7.859   4.837   5.504  0.3464  0.1222 -0.5200
36547SOL    HW113139   7.861   4.921   5.458 -1.2611  1.0132  0.9246
36547SOL    HW213140   7.800   4.783   5.452  0.9695  0.0462 -1.1648
36548SOL     OW13141   7.314   2.829   3.472 -0.4758 -0.0825 -0.4818
36548SOL    HW113142   7.338   2.778   3.395  2.5910  0.7648 -0.2100
36548SOL    HW213143   7.280   2.911   3.437  1.9670  0.7631 -1.0507
36549SOL     OW13144   0.280   3.048   5.628  0.2940  0.3201 -0.3116
36549SOL    HW113145   0.208   3.098   5.666  0.4365 -0.0139  0.4284
36549SOL    HW213146   0.240   2.964   5.605 -0.0693  0.9137 -2.0405
36550SOL     OW13147   3.630   1.669   7.610  0.2996  0.2936 -0.3491
36550SOL    HW113148   3.574   1.712   7.675 -0.3943  0.2566 -0.9147
36550SOL    HW213149   3.648   1.583   7.647 -1.0910 -0.1908 -0.7274
36551SOL     OW13150   8.514   7.907   6.206  0.2795  0.1018 -0.3918
36551SOL    HW113151   8.556   7.871   6.285  1.1785  0.1011 -0.8521
36551SOL    HW213152   8.482   7.830   6.159  0.5361  0.0333 -0.4585
36552SOL     OW13153   1.653   7.145   1.161 -0.3363 -0.4212  0.2823
36552SOL    HW113154   1.746   7.127   1.148 -0.4401 -0.5105 -0.3910
36552SOL    HW213155   1.641   7.143   1.256  0.3730 -0.2788  0.3843
36553SOL     OW13156   8.055   7.727   9.384  0.1635  0.4162 -0.3830
36553SOL    HW113157   7.976   7.676   9.362 -0.4042  0.5929  1.1433
36553SOL    HW213158   8.055   7.731   9.479  2.2485  0.1067 -0.3295
36554SOL     OW13159   3.130   6.762   9.531 -0.2291  0.4986 -0.2290
36554SOL    HW113160   3.215   6.765   9.573 -0.6008 -0.0554  0.5858
36554SOL    HW213161   3.091   6.680   9.561 -1.4169  1.1750  0.1460
36555SOL     OW13162  10.998   0.238   8.350  0.2562 -0.8204  0.2587
36555SOL    HW113163  10.988   0.333   8.361  0.7222 -0.6947 -0.3205
36555SOL    HW213164  11.092   0.226   8.336 -0.0220 -1.1437 -1.5752
36556SOL     OW13165  10.031   3.358   9.990  0.7020  0.0893 -0.2055
36556SOL    HW113166  10.073   3.375   9.906 -0.2843  1.1782 -0.5029
36556SOL    HW213167  10.028   3.262   9.996  0.5615 -0.0069 -1.5318
36557SOL     OW13168   0.008   0.141   6.891 -0.4998  0.5200  0.1026
36557SOL    HW113169  -0.049   0.166   6.818 -0.6010  0.4884  0.1710
36557SOL    HW213170   0.045   0.223   6.922 -0.4916  0.5384  0.0438
36558SOL     OW13171   4.888   9.614   8.244  0.4136  0.6494 -0.2562
36558SOL    HW113172   4.855   9.650   8.161  2.1783  0.8343 -0.9163
36558SOL    HW213173   4.924   9.689   8.291  3.8246 -0.0211 -1.5047
36559SOL     OW13174   6.124   3.928   5.210 -0.0677 -0.2166 -0.2137
36559SOL    HW113175   6.119   3.834   5.230 -2.5493  0.1448  1.2781
36559SOL    HW213176   6.072   3.938   5.130  0.8084 -0.1863 -0.7905
36560SOL     OW13177   6.169   3.909   8.956  0.5905  0.1533 -0.0647
36560SOL    HW113178   6.183   3.951   9.041 -0.1902  1.9410 -0.7588
36560SOL    HW213179   6.162   3.982   8.894  0.8645 -1.0915 -1.6355
36561SOL     OW13180   3.702   3.192   3.360  0.0410 -0.6443  0.1083
36561SOL    HW113181   3.774   3.251   3.382 -0.1594 -0.6941  0.9015
36561SOL    HW213182   3.742   3.123   3.307  0.7214 -1.0877  1.1838
36562SOL     OW13183   5.566   5.765   0.371  0.9130  1.0550 -0.9558
36562SOL    HW113184   5.647   5.810   0.392  2.1522 -1.1196 -0.8106
36562SOL    HW213185   5.592   5.694   0.312 -1.1036  1.2041 -2.0985
36563SOL     OW13186   2.934   6.998   5.082 -0.5367 -0.2211  0.2509
36563SOL    HW113187   2.846   7.033   5.075 -0.0083  1.1247  0.0845
36563SOL    HW213188   2.983   7.064   5.130  0.4146 -0.8855  0.2318
36564SOL     OW13189   0.625   1.039   3.845 -0.3510 -0.1169  0.7642
36564SOL    HW113190   0.619   1.064   3.752  1.6903 -0.8013  0.3855
36564SOL    HW213191   0.584   0.952   3.849 -1.8032  0.5523  0.8288
36565SOL     OW13192   6.523   3.845   8.543 -0.1291  0.5945  0.4476
36565SOL    HW113193   6.493   3.933   8.521  0.1566  0.1496 -2.0413
36565SOL    HW213194   6.616   3.856   8.561  0.3229  0.6191 -1.6336
36566SOL     OW13195   5.918  10.058   6.874 -0.0730  0.0373 -0.0517
36566SOL    HW113196   6.002  10.074   6.917 -0.0177  0.4065 -0.2949
36566SOL    HW213197   5.936   9.989   6.811  0.2320  0.6621 -0.6587
36567SOL     OW13198   8.590   2.691   1.191  0.3443  0.4516  0.4260
36567SOL    HW113199   8.555   2.644   1.266  0.5973  0.2769  0.4361
36567SOL    HW213200   8.535   2.665   1.117 -1.4660  2.4779  0.9696
36568SOL     OW13201   0.906   2.719   0.512 -0.3851  0.3732 -0.0800
36568SOL    HW113202   0.941   2.709   0.423  0.0125 -0.3465  0.1466
36568SOL    HW213203   0.931   2.638   0.557  2.2761  2.0207  1.6573
36569SOL     OW13204  10.861  10.453   7.503  0.1999  0.1695  0.1107
36569SOL    HW113205  10.825  10.393   7.439  0.7248  0.0478 -0.0731
36569SOL    HW213206  10.883  10.399   7.579  0.8770  0.0849 -0.1367
36570SOL     OW13207   0.787   6.232   0.614  0.0817  0.1488  0.3191
36570SOL    HW113208   0.739   6.151   0.628 -0.4387  0.6060  1.3457
36570SOL    HW213209   0.819   6.256   0.701 -1.0108  1.7788  0.3165
36571SOL     OW13210   1.513   0.799   9.366 -0.3120  0.3589  0.1994
36571SOL    HW113211   1.448   0.735   9.395  0.6530 -0.8731 -0.2608
36571SOL    HW213212   1.487   0.822   9.277  0.0834 -0.4400 -0.1326
36572SOL     OW13213   6.634   6.420   0.819  0.4080 -0.5582  0.5541
36572SOL    HW113214   6.648   6.490   0.883 -1.5359 -0.0380  0.4746
36572SOL    HW213215   6.596   6.348   0.870  1.5646 -1.2495  0.4735
36573SOL     OW13216   2.856   2.090   2.489 -0.4275 -0.1775 -0.0758
36573SOL    HW113217   2.805   2.134   2.421  1.3842  1.6837 -0.3175
36573SOL    HW213218   2.817   2.120   2.571 -0.1412  0.7130 -0.2609
36574SOL     OW13219   6.662   0.509   7.113 -0.3339 -0.1588 -0.3136
36574SOL    HW113220   6.699   0.420   7.112  3.1329  1.1426 -1.0158
36574SOL    HW213221   6.695   0.548   7.194 -1.2368  0.7377 -0.3568
36575SOL     OW13222   3.809   8.326   9.897 -0.5106 -0.7504  0.0358
36575SOL    HW113223   3.840   8.416   9.910 -3.1145  0.4403 -1.4139
36575SOL    HW213224   3.836   8.281   9.977  1.5633  1.0596  0.4818
36576SOL     OW13225  10.982   0.616   5.389  0.1291  0.5604 -0.5605
36576SOL    HW113226  11.002   0.709   5.385 -0.5739  0.8628  1.5930
36576SOL    HW213227  11.032   0.584   5.464 -0.2221 -0.6294 -0.8104
36577SOL     OW13228   4.923  10.813   2.802 -0.4778  0.5598 -0.3369
36577SOL    HW113229   4.991  10.875   2.776 -0.1840  1.0584  1.4845
36577SOL    HW213230   4.863  10.865   2.856  1.4145 -1.2263  3.8940
36578SOL     OW13231   4.077   1.196   9.579  0.1755 -0.7649  0.2514
36578SOL    HW113232   4.060   1.142   9.502 -0.7755 -0.9951  0.6047
36578SOL    HW213233   4.147   1.256   9.552  0.1753 -1.1509 -0.6369
36579SOL     OW13234   5.190   8.126   9.621 -0.3871  0.0508 -0.0155
36579SOL    HW113235   5.118   8.094   9.566  0.2072 -0.2729 -0.6237
36579SOL    HW213236   5.263   8.067   9.602  0.2161  0.7178  0.1661
36580SOL     OW13237   6.987   7.986   0.797  0.4569 -0.6279  0.4444
36580SOL    HW113238   7.075   7.986   0.759  0.5355 -0.3631  0.6250
36580SOL    HW213239   6.970   7.894   0.819  0.6037 -0.7100  0.2139
36581SOL     OW13240   5.010   8.138   4.123  0.0573  0.2817 -0.0996
36581SOL    HW113241   5.059   8.220   4.115  2.6489 -1.2589 -1.3200
36581SOL    HW213242   4.943   8.144   4.055 -0.1462  1.5824  0.1858
36582SOL     OW13243   1.076   0.681   9.887 -0.0777  0.0785 -0.0601
36582SOL    HW113244   1.053   0.594   9.855  2.3199 -0.4483 -0.5637
36582SOL    HW213245   1.116   0.726   9.812  0.6287  0.8211  0.7245
36583SOL     OW13246   1.292   5.561   4.225 -0.0113 -0.2369  0.2472
36583SOL    HW113247   1.242   5.552   4.144  0.8370 -1.0309 -0.2054
36583SOL    HW213248   1.277   5.479   4.272 -0.3801  0.1584  0.8363
36584SOL     OW13249   9.971   0.217   4.213  0.1610 -0.3394 -0.3325
36584SOL    HW113250   9.938   0.238   4.300 -2.0075 -0.6746 -1.0162
36584SOL    HW213251  10.033   0.146   4.228 -1.5798 -1.7240  0.8195
36585SOL     OW13252   5.807   4.492  10.783  0.0471  0.0116  0.0936
36585SOL    HW113253   5.811   4.482  10.878 -1.5015 -4.3608 -0.0657
36585SOL    HW213254   5.870   4.427  10.750 -1.2272 -0.3111 -1.8422
36586SOL     OW13255   4.316   9.252   0.475 -0.3266  0.5439 -0.5467
36586SOL    HW113256   4.314   9.303   0.394  0.1974  0.7229 -0.4502
36586SOL    HW213257   4.402   9.271   0.513 -0.3982  0.1207 -0.1693
36587SOL     OW13258   9.521  10.079   0.095 -0.3426  0.0504 -0.0471
36587SOL    HW113259   9.427  10.081   0.113 -0.3280  0.5653 -0.0058
36587SOL    HW213260   9.542   9.986   0.086 -0.7253 -0.1032  0.6088
36588SOL     OW13261   7.508   8.182   4.542 -0.3467 -0.2152 -0.1117
36588SOL    HW113262   7.431   8.175   4.487 -0.6838  0.0837  0.3107
36588SOL    HW213263   7.491   8.124   4.616 -1.7774  2.4515  1.8033
36589SOL     OW13264   7.027   2.274   0.131 -0.1276  0.7250  0.1244
36589SOL    HW113265   7.027   2.181   0.106  0.7944  0.7434  0.0418
36589SOL    HW213266   7.101   2.283   0.191  0.1827  1.5499 -0.3754
36590SOL     OW13267  10.573   5.311   9.376  0.1157 -0.2212  0.3984
36590SOL    HW113268  10.489   5.351   9.352 -0.1527 -1.3381 -0.5931
36590SOL    HW213269  10.632   5.385   9.388 -1.3875  0.6981  2.7605
36591SOL     OW13270   8.095   9.469   1.270  0.4074 -0.9390 -0.3064
36591SOL    HW113271   8.142   9.516   1.338  0.0769 -0.3619 -0.4652
36591SOL    HW213272   8.157   9.465   1.197  1.1000 -2.3703  0.3221
36592SOL     OW13273   1.720   5.820   0.696  0.8229 -0.3012 -0.0176
36592SOL    HW113274   1.708   5.876   0.619  1.8106 -1.1981 -0.8652
36592SOL    HW213275   1.795   5.857   0.742  0.1074  0.3564  0.6644
36593SOL     OW13276   8.494   9.089   3.716 -1.1644  0.4605  0.7321
36593SOL    HW113277   8.562   9.095   3.783 -0.1011 -0.3947 -0.2285
36593SOL    HW213278   8.541   9.081   3.633 -2.4366  0.4622 -0.0329
36594SOL     OW13279   0.623   4.569   7.221 -0.0950 -0.3567 -0.3357
36594SOL    HW113280   0.541   4.520   7.212 -0.5470 -0.1860  2.1258
36594SOL    HW213281   0.687   4.506   7.252  0.0141  0.0304  0.2525
36595SOL     OW13282   4.229   1.437   4.824  0.3452  0.2828  0.1152
36595SOL    HW113283   4.307   1.477   4.785  1.3287  0.4766  2.1352
36595SOL    HW213284   4.250   1.343   4.829 -0.4292  0.0197 -1.2201
36596SOL     OW13285   2.942   9.890   9.942 -0.3361  0.8028  0.0947
36596SOL    HW113286   2.865   9.946   9.942 -1.0237 -0.1255  0.4631
36596SOL    HW213287   2.910   9.804   9.915  0.3992  0.1986  1.0661
36597SOL     OW13288   1.743   5.716   7.130 -0.4283 -0.2009 -0.1287
36597SOL    HW113289   1.723   5.785   7.193  0.3380 -0.5492  0.5121
36597SOL    HW213290   1.793   5.760   7.061 -0.4588 -0.0038 -0.0246
36598SOL     OW13291   8.942   3.789   8.126 -0.4438 -0.0148  0.2328
36598SOL    HW113292   8.876   3.742   8.076 -2.0368  0.6873  1.5965
36598SOL    HW213293   8.927   3.881   8.106 -0.8630  0.2490  1.6511
36599SOL     OW13294   1.348   1.820   2.695 -0.0472 -0.3576  0.1871
36599SOL    HW113295   1.256   1.802   2.717 -1.0069  2.7420 -0.7426
36599SOL    HW213296   1.366   1.763   2.620 -1.6272 -0.2241 -0.3343
36600SOL     OW13297   7.694   3.971   3.331 -0.6735  0.2141 -0.1144
36600SOL    HW113298   7.739   3.955   3.248 -0.8711  0.3739 -0.2536
36600SOL    HW213299   7.711   4.063   3.349 -0.7193  0.2057 -0.0307
36601SOL     OW13300   8.641   2.199   6.879 -0.1025  0.5351  0.2635
36601SOL    HW113301   8.626   2.109   6.906 -0.3959  0.4344 -0.2282
36601SOL    HW213302   8.705   2.192   6.808  1.2772  0.8526  1.4196
36602SOL     OW13303   9.146   4.982   3.041  0.1330 -0.3076 -0.2043
36602SOL    HW113304   9.084   4.986   3.114 -0.2411 -0.6032 -0.5056
36602SOL    HW213305   9.217   5.042   3.067  1.6000 -2.7289  1.8782
36603SOL     OW13306   0.827   6.306   7.290 -0.3581  0.5303 -0.1703
36603SOL    HW113307   0.813   6.325   7.383 -0.0795 -1.4828  0.3357
36603SOL    HW213308   0.806   6.213   7.281 -0.2414  0.6477 -2.1087
36604SOL     OW13309   6.260   4.338   6.760  0.2340 -1.1380 -0.1568
36604SOL    HW113310   6.340   4.374   6.797 -0.8022  1.4604 -0.2632
36604SOL    HW213311   6.282   4.320   6.668  0.9823 -1.4799  0.0806
36605SOL     OW13312   6.442   3.215   0.894  0.0318  0.0933  0.7079
36605SOL    HW113313   6.513   3.219   0.958 -0.1487 -0.6440  0.9629
36605SOL    HW213314   6.368   3.180   0.944  0.2190 -1.6645 -0.2045
36606SOL     OW13315  10.272   4.166   0.624  0.2443  0.1776 -0.1831
36606SOL    HW113316  10.218   4.127   0.693 -0.4683 -0.3403 -1.0156
36606SOL    HW213317  10.215   4.231   0.582  0.9582  1.1249  0.2602
36607SOL     OW13318   4.627   8.572   1.130 -0.1239 -0.0102  0.5269
36607SOL    HW113319   4.585   8.656   1.110 -0.9940 -0.3178  1.0080
36607SOL    HW213320   4.697   8.564   1.065  1.8770  2.4215  2.2223
36608SOL     OW13321   6.310   9.238   3.220  0.4248 -0.5729  1.0208
36608SOL    HW113322   6.238   9.197   3.172  1.3753 -0.1665 -0.8371
36608SOL    HW213323   6.333   9.174   3.287 -0.4691 -1.5137  0.4656
36609SOL     OW13324   7.661  10.461   9.309 -0.9579 -0.1879 -0.0775
36609SOL    HW113325   7.608  10.411   9.247 -0.8357  1.6361 -1.7426
36609SOL    HW213326   7.694  10.535   9.259  1.3102 -0.0058  1.5149
36610SOL     OW13327  10.844   4.539   5.077  0.3106  0.0514 -0.5293
36610SOL    HW113328  10.914   4.543   5.143 -0.3970  0.7729  0.1991
36610SOL    HW213329  10.855   4.454   5.035  1.9322  0.3486 -0.7649
36611SOL     OW13330   4.207   7.429   2.599 -0.4854 -0.3232  0.3164
36611SOL    HW113331   4.210   7.476   2.682  0.2620  0.2086  0.0040
36611SOL    HW213332   4.297   7.399   2.586  0.2768  2.4744 -1.8927
36612SOL     OW13333   5.505   4.172   1.606  0.4537  0.0625 -0.3737
36612SOL    HW113334   5.528   4.174   1.699  1.7129 -0.6398 -0.6450
36612SOL    HW213335   5.582   4.207   1.562 -0.1608  0.4497 -1.1619
36613SOL     OW13336   1.352   6.691   2.800  0.1344  0.4022  0.3793
36613SOL    HW113337   1.381   6.667   2.887 -0.7180 -0.8151  0.3479
36613SOL    HW213338   1.397   6.630   2.742 -0.6564  0.0406  0.1334
36614SOL     OW13339   2.736   8.289   4.167 -0.3331 -0.4319  1.3687
36614SOL    HW113340   2.768   8.223   4.106  0.5342  1.0087  0.1749
36614SOL    HW213341   2.644   8.268   4.181 -0.0357 -1.9522  1.1597
36615SOL     OW13342  10.421   8.854   6.634  0.3004  0.4000 -0.0983
36615SOL    HW113343  10.440   8.947   6.631  0.1546  0.4713  0.8484
36615SOL    HW213344  10.487   8.817   6.693  1.9230 -0.5241 -2.3824
36616SOL     OW13345   5.677   4.167   7.953 -0.0187  0.3834  0.1835
36616SOL    HW113346   5.626   4.215   8.018  1.5817 -0.1066  1.9018
36616SOL    HW213347   5.725   4.234   7.906  1.1770  0.6306  1.6657
36617SOL     OW13348   1.512   1.433   5.376 -0.1362 -0.5660  0.1765
36617SOL    HW113349   1.478   1.483   5.302 -0.2265  0.0553  0.6333
36617SOL    HW213350   1.435   1.415   5.430  0.0525 -0.3144  0.5306
36618SOL     OW13351   5.894   7.045   5.442  0.1725 -0.7492  0.0228
36618SOL    HW113352   5.817   6.988   5.451  0.4988 -1.5982 -1.8962
36618SOL    HW213353   5.950   6.999   5.379  0.8300  1.3184 -0.9940
36619SOL     OW13354   4.408   0.465   7.134 -0.4975  0.1373  0.3052
36619SOL    HW113355   4.394   0.450   7.041  0.4465  0.8350  0.0354
36619SOL    HW213356   4.454   0.549   7.138 -0.3654  0.0280  1.3937
36620SOL     OW13357   1.819   5.998   9.119  0.3446 -0.1423 -0.6742
36620SOL    HW113358   1.777   5.970   9.038 -1.3068  0.0693  0.0675
36620SOL    HW213359   1.789   6.087   9.133 -1.2010 -0.8740  1.2416
36621SOL     OW13360   8.914   6.042   4.721  0.2036  0.0085  0.3334
36621SOL    HW113361   8.819   6.058   4.715  0.2442  0.2199  0.2326
36621SOL    HW213362   8.953   6.128   4.705  0.4657 -0.3505 -1.1502
36622SOL     OW13363   8.934  10.494   6.264 -0.2239 -0.2519  0.1646
36622SOL    HW113364   8.968  10.487   6.175  0.3443 -1.3257  0.4537
36622SOL    HW213365   9.011  10.511   6.318 -0.5229  0.0581  0.5052
36623SOL     OW13366   1.407   6.746   7.532 -0.1638 -0.8934 -0.5378
36623SOL    HW113367   1.467   6.730   7.460 -1.6872  0.1304 -2.0974
36623SOL    HW213368   1.335   6.684   7.518 -0.6088 -0.4998 -0.0371
36624SOL     OW13369   6.495   7.850   2.679 -0.0997  0.2701 -0.2501
36624SOL    HW113370   6.424   7.912   2.693  0.6034  1.9997 -3.4060
36624SOL    HW213371   6.452   7.769   2.652 -1.0232  1.9487 -4.4023
36625SOL     OW13372   2.915   9.865   6.263 -0.5993  0.3082  1.0849
36625SOL    HW113373   2.951   9.932   6.204 -2.1260  0.8051  0.6848
36625SOL    HW213374   2.925   9.783   6.216 -0.8779  0.5674  0.5777
36626SOL     OW13375   4.090   0.337   3.293  0.3802  0.5026  0.1472
36626SOL    HW113376   4.118   0.350   3.202  2.0732 -0.0671  0.5450
36626SOL    HW213377   4.096   0.243   3.306 -0.3077  0.5325  0.7252
36627SOL     OW13378   9.893   2.452   1.971  1.0096  0.3897  0.3880
36627SOL    HW113379   9.908   2.444   2.065  2.4085  1.6447  0.3232
36627SOL    HW213380   9.971   2.414   1.931  0.0244 -0.9625 -0.3294
36628SOL     OW13381   7.859   3.526   5.495  0.5815  0.6865  0.2897
36628SOL    HW113382   7.885   3.489   5.411  1.8037  1.5610  0.2521
36628SOL    HW213383   7.764   3.516   5.497  0.6891 -0.7167 -0.5155
36629SOL     OW13384   7.028   2.219   5.267 -0.1910 -0.3129 -0.1807
36629SOL    HW113385   6.951   2.205   5.212  0.1064 -1.9855 -0.2542
36629SOL    HW213386   7.102   2.216   5.206 -0.0530  1.9132 -0.2030
36630SOL     OW13387   6.678   5.468   7.358  0.7170 -0.1289 -0.0721
36630SOL    HW113388   6.645   5.379   7.371  1.3133 -0.3719 -0.1773
36630SOL    HW213389   6.765   5.467   7.398  0.8751  0.3047 -0.3986
36631SOL     OW13390   1.087   5.485   1.021 -0.1063 -0.5022  0.8160
36631SOL    HW113391   1.064   5.569   0.982  1.8579  0.6444  1.9376
36631SOL    HW213392   1.029   5.477   1.096 -1.9094 -1.3317 -0.5969
36632SOL     OW13393   9.269   1.252   2.046 -0.5880 -0.2075  0.2550
36632SOL    HW113394   9.230   1.234   2.132 -1.9447  1.6559  0.0988
36632SOL    HW213395   9.324   1.329   2.061 -0.3047 -0.2750 -0.4096
36633SOL     OW13396   8.983   2.150   9.065 -0.1321  0.0091 -0.0000
36633SOL    HW113397   8.923   2.181   9.133  0.1978 -0.4348  0.4921
36633SOL    HW213398   9.015   2.066   9.097  1.9426  0.9190  0.4968
36634SOL     OW13399   4.793   0.532  10.039  0.1481  0.7346 -0.7563
36634SOL    HW113400   4.700   0.552  10.031  0.0108  0.3166 -0.2579
36634SOL    HW213401   4.828   0.547   9.951 -0.8026 -1.1055 -1.5118
36635SOL     OW13402   5.026   6.863   4.470 -0.3153  0.1225 -0.0042
36635SOL    HW113403   4.943   6.831   4.505 -0.2799 -0.7834 -0.6920
36635SOL    HW213404   5.047   6.939   4.523 -1.1737 -0.1251  0.7189
36636SOL     OW13405   0.352   9.280  10.197 -0.0589  0.1897  0.1607
36636SOL    HW113406   0.413   9.346  10.165  2.6365 -2.3470 -0.4770
36636SOL    HW213407   0.401   9.234  10.266 -2.0829 -0.6777  1.1173
36637SOL     OW13408   5.171   5.222   4.868 -0.2678 -0.5940 -1.0921
36637SOL    HW113409   5.110   5.295   4.880 -0.4407 -0.9167  0.1892
36637SOL    HW213410   5.115   5.147   4.848 -0.4085 -1.0728  0.9166
36638SOL     OW13411   9.111   3.352   5.990  0.1652 -0.2019 -0.1698
36638SOL    HW113412   9.143   3.394   5.910  1.2980 -0.5063  0.1094
36638SOL    HW213413   9.116   3.258   5.971  1.2907 -0.2991  0.5693
36639SOL     OW13414   9.880   0.360   1.981 -0.3981  0.0493 -0.0849
36639SOL    HW113415   9.869   0.267   2.000  3.9378 -0.9962 -1.5573
36639SOL    HW213416   9.864   0.368   1.887 -0.4092  0.7365 -0.0312
36640SOL     OW13417   2.150   5.784   4.609  0.2971 -0.1738 -0.1211
36640SOL    HW113418   2.216   5.759   4.545  2.0613  0.4952  1.3591
36640SOL    HW213419   2.086   5.834   4.559  1.2937 -0.1827 -1.4628
36641SOL     OW13420   1.738   1.709   3.900  0.5268 -0.5887  0.1925
36641SOL    HW113421   1.651   1.683   3.870  0.5899  0.2332 -0.7933
36641SOL    HW213422   1.783   1.627   3.918 -1.0831 -1.0173  2.7457
36642SOL     OW13423   8.673   8.250   4.790 -0.2037  0.1768  0.4557
36642SOL    HW113424   8.756   8.212   4.820 -0.2814 -0.2027  0.1987
36642SOL    HW213425   8.697   8.301   4.713 -0.3767 -0.9334 -0.3689
36643SOL     OW13426   5.050  10.070   7.919  0.2108  0.5548  0.2402
36643SOL    HW113427   4.975  10.045   7.865  0.1764 -1.1154  1.0018
36643SOL    HW213428   5.082  10.152   7.880  0.0746 -0.4681 -2.1911
36644SOL     OW13429   2.054   4.858  10.718  0.1422  0.3239  0.1604
36644SOL    HW113430   1.969   4.878  10.679 -0.3554  0.3333  1.2194
36644SOL    HW213431   2.086   4.942  10.751  0.2767  0.2194  0.3018
36645SOL     OW13432   9.986   6.934   7.429  0.0353  0.0183  0.2978
36645SOL    HW113433   9.977   6.885   7.347  0.3704 -0.2236  0.4015
36645SOL    HW213434  10.073   6.974   7.424 -0.2535  0.6407  0.1964
36646SOL     OW13435  10.447   0.029   2.031 -0.3109  0.4692  0.2672
36646SOL    HW113436  10.374   0.085   2.057 -1.7187 -0.6238 -1.1032
36646SOL    HW213437  10.515   0.090   2.002 -1.5022  1.5211 -0.4346
36647SOL     OW13438  10.614   5.530   9.770 -0.2897 -0.1597  0.0309
36647SOL    HW113439  10.571   5.476   9.704 -0.8050  0.6121 -0.2854
36647SOL    HW213440  10.652   5.602   9.720  1.4405 -0.8533  0.2984
36648SOL     OW13441   1.484   2.250   2.159 -0.3456  0.1459 -0.3991
36648SOL    HW113442   1.427   2.315   2.200 -0.9343 -0.9667  0.6230
36648SOL    HW213443   1.441   2.230   2.076 -0.9593  0.0017 -0.0556
36649SOL     OW13444  10.039   8.255   2.629  0.0568  0.9551  0.1607
36649SOL    HW113445  10.020   8.234   2.538 -0.5281 -0.5064  0.5976
36649SOL    HW213446   9.969   8.212   2.679  1.2266  0.4263  1.3992
36650SOL     OW13447   5.809   7.572  10.941  0.1238 -0.0147 -0.2377
36650SOL    HW113448   5.830   7.641  11.004 -1.3519  1.0716 -0.8783
36650SOL    HW213449   5.716   7.555  10.954  0.5267 -2.1304  0.1130
36651SOL     OW13450   7.421  10.155   5.282  0.1848 -0.4431  0.0706
36651SOL    HW113451   7.331  10.127   5.301 -0.4216  1.5632  0.3193
36651SOL    HW213452   7.474  10.077   5.301 -1.5021 -1.7850 -0.4142
36652SOL     OW13453   9.139   7.862   3.124  0.2009  0.3979 -0.0324
36652SOL    HW113454   9.097   7.778   3.107  2.7837 -1.4644  1.9899
36652SOL    HW213455   9.204   7.871   3.054 -0.1206  0.7680 -0.2879
36653SOL     OW13456   1.491  10.188   5.954  0.2746 -0.1861  0.1720
36653SOL    HW113457   1.448  10.272   5.970  0.9750  0.4794 -1.2420
36653SOL    HW213458   1.464  10.133   6.027 -0.4546  1.1687  0.9651
36654SOL     OW13459   6.268   0.795   0.211  0.4706  0.3387 -0.0296
36654SOL    HW113460   6.240   0.864   0.151 -0.5423  0.5877  0.7030
36654SOL    HW213461   6.265   0.837   0.298  2.2199  0.0876  0.1818
36655SOL     OW13462   1.250   6.707   6.436 -0.4219  0.6522 -0.0989
36655SOL    HW113463   1.278   6.784   6.484 -1.7679  1.9527 -1.3103
36655SOL    HW213464   1.314   6.697   6.366 -0.0056  0.4052  0.3150
36656SOL     OW13465   9.796   9.975  10.623  0.5649 -0.1240  0.9953
36656SOL    HW113466   9.857   9.970  10.550  0.4553 -2.2755  0.9899
36656SOL    HW213467   9.755  10.061  10.614  0.1799 -0.4899 -1.8101
36657SOL     OW13468   2.623  10.373   3.810  0.7378 -0.0141  0.3767
36657SOL    HW113469   2.655  10.283   3.804 -0.4986 -0.4874  0.5396
36657SOL    HW213470   2.532  10.367   3.780  0.9491  1.3658 -0.6108
36658SOL     OW13471  10.195   9.892   1.035 -0.0375 -0.0475 -0.0479
36658SOL    HW113472  10.237   9.807   1.049  1.0722  0.4767 -0.1077
36658SOL    HW213473  10.194   9.933   1.122  1.7852  0.9092 -0.4163
36659SOL     OW13474  10.028   2.008   9.936 -0.7449  0.1958  0.1973
36659SOL    HW113475  10.053   1.955  10.012  0.9825  0.5644 -0.0731
36659SOL    HW213476  10.007   2.094   9.973  0.1943  0.4058  0.2590
36660SOL     OW13477   9.558  10.727   3.403 -0.1861 -0.2536 -0.2141
36660SOL    HW113478   9.495  10.679   3.457 -2.1491  0.9218 -1.3172
36660SOL    HW213479   9.586  10.663   3.337 -2.0992 -0.2402 -1.1346
36661SOL     OW13480   6.463   5.109   2.417  0.4121 -0.3828  0.5021
36661SOL    HW113481   6.440   5.086   2.507 -1.9250  2.3160  0.7310
36661SOL    HW213482   6.418   5.043   2.363 -1.4668  0.2337  1.2419
36662SOL     OW13483   1.988   8.251   8.882 -0.0950 -0.1056 -0.4373
36662SOL    HW113484   2.039   8.271   8.960 -0.6340  0.8289 -0.3033
36662SOL    HW213485   1.897   8.265   8.909 -0.4577 -1.9297 -0.6135
36663SOL     OW13486   0.781   6.638   2.387 -0.4552 -0.1722  0.0296
36663SOL    HW113487   0.709   6.702   2.392  1.5472  2.3478 -0.8784
36663SOL    HW213488   0.762   6.587   2.309 -2.0234 -0.5942  0.6613
36664SOL     OW13489   6.480   6.329   4.877  0.2052  0.0350 -0.3313
36664SOL    HW113490   6.419   6.398   4.852 -0.0687 -0.2753 -0.5269
36664SOL    HW213491   6.427   6.264   4.922  0.0123 -1.1044 -2.0717
36665SOL     OW13492   7.984   5.366   8.363  0.4108 -0.0782  0.1319
36665SOL    HW113493   7.996   5.461   8.364  1.7198 -0.2182  0.3710
36665SOL    HW213494   7.890   5.353   8.366  0.2254  1.2031  2.9486
36666SOL     OW13495   0.084   9.762   0.594  0.5752 -0.7164 -0.1412
36666SOL    HW113496   0.170   9.737   0.559  1.9520  1.1118  1.7418
36666SOL    HW213497   0.032   9.779   0.516  2.6249  0.3456 -1.3861
36667SOL     OW13498  10.077   8.054   9.279  0.0558 -0.1449 -0.1031
36667SOL    HW113499  10.167   8.054   9.311 -0.0444  2.2664  0.3096
36667SOL    HW213500  10.083   8.086   9.189 -0.4473  0.8544  0.2028
36668SOL     OW13501   7.224   1.380   6.213 -0.1754  0.4966 -0.7047
36668SOL    HW113502   7.139   1.340   6.203  0.2090 -0.9924  1.4178
36668SOL    HW213503   7.263   1.378   6.125 -0.6791 -2.6790 -0.9392
36669SOL     OW13504   2.170   5.946   8.928  0.6128 -0.0411 -0.3487
36669SOL    HW113505   2.163   5.870   8.987  2.9721  0.5570  0.8398
36669SOL    HW213506   2.264   5.957   8.915  0.3799  2.9605 -0.1071
36670SOL     OW13507   4.425   7.676   7.640  0.1366  0.9207 -0.7939
36670SOL    HW113508   4.398   7.735   7.711  0.8116  0.3072  0.0031
36670SOL    HW213509   4.440   7.733   7.565  2.4245  2.0422  0.4152
36671SOL     OW13510   9.744   0.773  10.070 -0.4368 -0.6102 -0.6697
36671SOL    HW113511   9.719   0.826  10.146  0.2822  1.2616 -1.6811
36671SOL    HW213512   9.838   0.758  10.081 -0.3145 -0.2591 -1.2417
36672SOL     OW13513   6.015   3.678   2.078 -0.0250  0.3285 -0.1391
36672SOL    HW113514   5.960   3.691   2.155 -0.4318  2.0882 -0.6694
36672SOL    HW213515   5.955   3.687   2.003  0.3356 -1.4741 -0.6974
36673SOL     OW13516   0.175   0.443   0.479 -0.0405 -0.1076  0.0178
36673SOL    HW113517   0.195   0.534   0.458 -0.5708 -0.0067 -0.0656
36673SOL    HW213518   0.129   0.447   0.563  0.2050 -0.3257  0.1648
36674SOL     OW13519   7.123  10.916   0.038 -0.4833 -0.5302 -0.4120
36674SOL    HW113520   7.214  10.916   0.008 -1.1359  0.9637 -2.6259
36674SOL    HW213521   7.072  10.910  -0.043 -2.3643  1.0568  0.6124
36675SOL     OW13522   1.278   1.332   8.217  0.1436  0.2749 -0.1722
36675SOL    HW113523   1.265   1.387   8.140 -0.3589 -0.9870 -1.0205
36675SOL    HW213524   1.197   1.283   8.226  1.0852 -1.3780 -0.3293
36676SOL     OW13525   3.461   3.825   6.386 -0.7005 -0.3190  0.2102
36676SOL    HW113526   3.399   3.883   6.342  0.6767  0.2182 -1.1035
36676SOL    HW213527   3.515   3.884   6.438 -0.6650 -0.6783  0.5850
36677SOL     OW13528   2.074   9.157   7.115  0.0079 -0.6140 -0.4731
36677SOL    HW113529   2.018   9.119   7.048  2.3659 -1.4132 -2.1610
36677SOL    HW213530   2.123   9.082   7.149  1.7590  0.3064 -0.8390
36678SOL     OW13531   1.332   1.746   1.393 -0.3627 -0.0414  0.1615
36678SOL    HW113532   1.325   1.796   1.474  0.2689  1.2659 -0.5421
36678SOL    HW213533   1.269   1.675   1.402 -0.8304  0.5130  1.4782
36679SOL     OW13534   2.323   9.173   0.736 -0.1918 -0.2614  0.0137
36679SOL    HW113535   2.241   9.216   0.712  0.0131 -0.2755 -0.7510
36679SOL    HW213536   2.391   9.226   0.694  0.2765  0.3172  1.4344
36680SOL     OW13537   4.761   4.563   4.317  0.4685 -0.5191 -0.3785
36680SOL    HW113538   4.738   4.651   4.286  0.9827  0.1357  1.0381
36680SOL    HW213539   4.704   4.505   4.266  0.1889  0.6114 -1.4117
36681SOL     OW13540   4.838  10.758   2.433 -0.0077 -0.4416 -0.5134
36681SOL    HW113541   4.862  10.848   2.410  1.2437 -0.6646 -0.1611
36681SOL    HW213542   4.758  10.767   2.484 -0.1810  0.4280 -0.9114
36682SOL     OW13543   1.498  10.561   5.305  0.3041  0.5780 -0.8602
36682SOL    HW113544   1.523  10.548   5.397 -1.8407  0.5195 -0.2132
36682SOL    HW213545   1.551  10.636   5.277  0.2613  1.2791  0.7730
36683SOL     OW13546   4.805   7.165   1.184 -0.4628 -0.0912  0.2387
36683SOL    HW113547   4.745   7.204   1.121  1.6114  2.0529 -0.5520
36683SOL    HW213548   4.752   7.153   1.263 -2.2556  0.3484 -0.8329
36684SOL     OW13549   2.344   5.358   5.824  0.0025 -0.0363  0.0482
36684SOL    HW113550   2.321   5.429   5.763  2.2958  0.5657 -0.2014
36684SOL    HW213551   2.286   5.286   5.799 -0.9084  1.0489 -1.1222
36685SOL     OW13552   0.622   6.322   7.003 -0.7125 -0.0933 -0.7028
36685SOL    HW113553   0.535   6.283   7.005 -0.6733 -0.1532 -0.1337
36685SOL    HW213554   0.656   6.310   7.091  0.5256 -1.5741 -1.3212
36686SOL     OW13555   1.092   8.405   7.344 -0.2771 -0.2984 -0.2197
36686SOL    HW113556   1.152   8.403   7.418 -1.2587  0.6594  0.6427
36686SOL    HW213557   1.054   8.493   7.346 -1.9593 -0.9746 -0.5222
36687SOL     OW13558   0.356   6.302   9.872  0.1520 -0.2937  0.1885
36687SOL    HW113559   0.438   6.334   9.909 -0.0503  0.5052 -0.0217
36687SOL    HW213560   0.378   6.275   9.783  0.0916  0.4141 -0.0481
36688SOL     OW13561   7.190   4.764   8.789 -0.7791  0.0271 -0.0317
36688SOL    HW113562   7.224   4.682   8.824 -1.3944 -0.2972 -0.1745
36688SOL    HW213563   7.248   4.831   8.824  0.3241 -0.5560 -0.6939
36689SOL     OW13564   8.271   5.076   6.167  0.4467 -0.0234  0.3595
36689SOL    HW113565   8.188   5.034   6.190  0.0277  0.8531  0.4958
36689SOL    HW213566   8.270   5.080   6.071 -0.3643  1.2764  0.3841
36690SOL     OW13567   5.272   3.179   0.187 -0.2575  0.6426 -0.6426
36690SOL    HW113568   5.349   3.125   0.171 -0.3083  0.4424 -0.2219
36690SOL    HW213569   5.200   3.116   0.195 -0.6030  0.8683 -1.7913
36691SOL     OW13570   3.212   7.050   8.918  0.7568  0.1716 -0.7912
36691SOL    HW113571   3.214   7.040   8.823  4.5437 -0.8786 -0.7368
36691SOL    HW213572   3.130   7.008   8.944  0.3255 -0.8396 -3.4485
36692SOL     OW13573   5.085   7.078   4.647  0.2337  0.3500  0.0422
36692SOL    HW113574   5.000   7.110   4.676 -0.4566  0.2343 -1.7020
36692SOL    HW213575   5.143   7.154   4.655 -0.1167  0.5289  0.9073
36693SOL     OW13576   4.178   3.759   3.500  0.0657  0.7522  0.2053
36693SOL    HW113577   4.168   3.854   3.491  0.2370  0.8528  1.0212
36693SOL    HW213578   4.172   3.726   3.410  0.5104  1.5819 -0.1454
36694SOL     OW13579   7.947   4.105   9.749 -0.6169  0.0668 -0.3549
36694SOL    HW113580   7.867   4.154   9.733  0.7910  2.5017 -0.3574
36694SOL    HW213581   8.017   4.158   9.710  1.2828 -0.7901  1.6602
36695SOL     OW13582   9.422   6.097   2.412 -0.6058 -0.1990  0.4005
36695SOL    HW113583   9.394   6.118   2.502 -2.2241  0.1751 -0.1629
36695SOL    HW213584   9.374   6.017   2.390 -0.8142  0.1412 -0.4032
36696SOL     OW13585   4.147   5.214   1.220  0.5480  0.3131  0.6755
36696SOL    HW113586   4.149   5.132   1.171 -1.6798  0.2931  0.5411
36696SOL    HW213587   4.055   5.226   1.244  1.2141  1.5087  2.8686
36697SOL     OW13588   9.730  10.253   7.692 -0.1035  0.0466 -0.2546
36697SOL    HW113589   9.641  10.229   7.667  0.1480 -0.3997 -0.7385
36697SOL    HW213590   9.786  10.209   7.627  0.4507  0.5847 -0.1507
36698SOL     OW13591   4.201   0.860   1.399  0.1998  0.1522  0.0939
36698SOL    HW113592   4.202   0.780   1.450 -0.9458  0.9849  1.5087
36698SOL    HW213593   4.293   0.874   1.374  0.3394 -1.8544 -0.6734
36699SOL     OW13594   8.208   2.418   0.041  0.3815 -0.0174 -0.1625
36699SOL    HW113595   8.293   2.411  -0.001  0.6372  1.3017  0.0970
36699SOL    HW213596   8.154   2.351  -0.002  0.8041  0.8391 -2.1171
36700SOL     OW13597   0.069   2.644   9.436 -0.3362  0.9491  0.5050
36700SOL    HW113598  -0.002   2.707   9.451 -1.6182  0.4544 -2.7879
36700SOL    HW213599   0.039   2.590   9.364  3.1286  0.2151 -0.5812
36701SOL     OW13600   3.494   2.975   3.228  0.1710 -0.4258 -0.0720
36701SOL    HW113601   3.470   3.008   3.141  1.7722  0.2895 -0.2710
36701SOL    HW213602   3.472   3.047   3.287  0.1260 -0.4877 -0.0126
36702SOL     OW13603  10.440  10.873   3.133  0.3559 -0.2114  0.3648
36702SOL    HW113604  10.376  10.936   3.099 -0.5635 -0.6868  1.1628
36702SOL    HW213605  10.466  10.822   3.057  0.3093  0.4419 -0.0996
36703SOL     OW13606   5.983   0.801   1.691 -0.6066  0.1900  0.0843
36703SOL    HW113607   5.999   0.753   1.610 -1.5858 -0.3347  0.1881
36703SOL    HW213608   6.020   0.888   1.675 -0.7529  0.0834 -0.9203
36704SOL     OW13609   5.101   7.750   0.630  0.5259 -0.1617  0.5436
36704SOL    HW113610   5.021   7.718   0.587 -0.6882  0.2231  2.4071
36704SOL    HW213611   5.112   7.839   0.597 -0.1546 -0.0122  0.7068
36705SOL     OW13612  10.398  10.085   0.707 -0.2870  0.1438  0.1651
36705SOL    HW113613  10.342  10.162   0.698 -0.0212  0.4152  0.7661
36705SOL    HW213614  10.417  10.080   0.800  1.3161  0.5214 -0.1113
36706SOL     OW13615   1.330   2.456   4.309 -0.2625  0.3155 -0.3817
36706SOL    HW113616   1.327   2.360   4.312  0.8805  0.2839 -0.1776
36706SOL    HW213617   1.238   2.482   4.313 -0.5518 -0.7506  0.3517
36707SOL     OW13618   8.599   5.195   6.787  0.4524  0.4341 -0.4470
36707SOL    HW113619   8.628   5.180   6.877  0.5127 -1.8930 -0.8118
36707SOL    HW213620   8.583   5.108   6.752  1.4618  1.2215 -3.0521
36708SOL     OW13621   3.991   3.859   7.891 -0.4375  0.2329 -0.0725
36708SOL    HW113622   3.914   3.836   7.840 -1.0083  0.6718  0.5786
36708SOL    HW213623   4.064   3.817   7.845 -0.6534  2.1144 -2.3356
36709SOL     OW13624   9.044   6.029  10.289  0.4149  0.7245  0.0239
36709SOL    HW113625   9.113   5.970  10.321  0.5459  0.6318 -0.4191
36709SOL    HW213626   9.091   6.091  10.233 -0.0843 -0.4400 -1.7750
36710SOL     OW13627   9.269   2.209  10.734 -0.4082 -0.4149 -0.2262
36710SOL    HW113628   9.266   2.294  10.688  1.1625  1.5167  2.8778
36710SOL    HW213629   9.190   2.208  10.787  0.8060  0.4450  1.7055
36711SOL     OW13630   7.258   2.987   5.742 -0.0854 -0.1097 -0.2229
36711SOL    HW113631   7.262   3.038   5.823 -1.2124 -0.8587  0.3456
36711SOL    HW213632   7.306   2.907   5.762 -1.4559 -0.8756  0.2015
36712SOL     OW13633   3.525   0.006   2.412  0.0722  0.3685 -0.6022
36712SOL    HW113634   3.515   0.004   2.317 -0.6562  0.4357 -0.5395
36712SOL    HW213635   3.595  -0.055   2.431  0.6236  0.7937 -1.2320
36713SOL     OW13636   3.627   8.615   1.238 -0.0976  0.2576 -0.1958
36713SOL    HW113637   3.640   8.553   1.166 -0.3885 -0.6911  0.5480
36713SOL    HW213638   3.534   8.608   1.259  0.2934 -0.7422  1.3596
36714SOL     OW13639   2.904   7.150   8.469 -0.5226  0.0267  0.0620
36714SOL    HW113640   2.902   7.243   8.490 -0.9184 -0.5414  3.0351
36714SOL    HW213641   2.827   7.135   8.415  0.0928  1.5623 -1.2949
36715SOL     OW13642   9.766   4.754  10.765  0.6714 -0.4141 -0.4395
36715SOL    HW113643   9.690   4.808  10.786  1.3110  0.1968  0.3791
36715SOL    HW213644   9.827   4.768  10.838  1.1246 -1.7437 -0.5300
36716SOL     OW13645   6.551   5.768   6.947  0.0663 -0.1669 -0.3098
36716SOL    HW113646   6.577   5.769   6.854 -0.1720  0.1854 -0.3769
36716SOL    HW213647   6.458   5.790   6.946  0.0893 -0.0459  0.0189
36717SOL     OW13648   5.981   3.987   8.306  0.1128 -1.1971  0.5567
36717SOL    HW113649   6.064   3.963   8.266 -0.6281 -0.4394 -1.5783
36717SOL    HW213650   6.003   4.063   8.360  0.3103  1.6053 -3.0662
36718SOL     OW13651   0.702   3.273   7.118  0.2796 -0.0508  0.6024
36718SOL    HW113652   0.647   3.267   7.196  1.9465 -2.2272  1.7368
36718SOL    HW213653   0.641   3.291   7.047 -1.4359  0.9659  2.2189
36719SOL     OW13654   6.734   9.299   1.398  0.3385 -0.0841 -0.4576
36719SOL    HW113655   6.790   9.244   1.342 -0.1488 -1.1565  0.0815
36719SOL    HW213656   6.666   9.240   1.429 -1.2588  1.2565 -1.2788
36720SOL     OW13657   0.751   3.754   9.273 -0.2212 -0.3663 -0.2822
36720SOL    HW113658   0.701   3.805   9.209  2.0203  1.6779 -0.5639
36720SOL    HW213659   0.734   3.797   9.357 -0.7987 -1.1571  0.0090
36721SOL     OW13660   3.230   2.672   0.305  0.0682 -0.3955 -0.2077
36721SOL    HW113661   3.290   2.702   0.237 -0.4278 -1.3348 -1.0736
36721SOL    HW213662   3.190   2.593   0.270 -1.3217 -0.0647  0.5561
36722SOL     OW13663   8.076  10.755   7.104  0.1805 -0.0363  0.1500
36722SOL    HW113664   8.120  10.780   7.023 -2.1435 -1.6013 -1.7310
36722SOL    HW213665   7.988  10.791   7.096 -0.6635 -1.7277  1.1289
36723SOL     OW13666   6.562   1.423   1.448  0.6980  0.0967 -0.1832
36723SOL    HW113667   6.524   1.374   1.374  2.3659 -1.0815 -0.3005
36723SOL    HW213668   6.593   1.504   1.409  1.1294 -0.3068 -0.6906
36724SOL     OW13669   6.339   5.677   9.351 -0.1967 -0.2627  0.1414
36724SOL    HW113670   6.387   5.747   9.397  1.2965 -1.1572  0.0065
36724SOL    HW213671   6.318   5.613   9.419 -0.2881 -0.3668  0.0165
36725SOL     OW13672   4.903   6.476   3.194 -0.0594 -0.1872 -0.5358
36725SOL    HW113673   4.882   6.564   3.164 -0.8587 -0.4652 -0.8256
36725SOL    HW213674   4.936   6.488   3.284  1.0490  0.5141 -1.0086
36726SOL     OW13675   9.486   8.560   3.634 -0.0911 -0.5533  0.4262
36726SOL    HW113676   9.449   8.489   3.583 -0.0427 -0.1592 -0.1644
36726SOL    HW213677   9.527   8.517   3.709  3.8900 -1.6830 -2.0843
36727SOL     OW13678   0.744   0.506  10.007  0.1255  0.6391 -0.9588
36727SOL    HW113679   0.735   0.421   9.965  0.6868 -1.9661  3.6009
36727SOL    HW213680   0.656   0.528  10.038 -0.0828  2.0049 -2.3710
36728SOL     OW13681   3.529   1.339   1.416 -0.1742 -0.1706 -0.4584
36728SOL    HW113682   3.510   1.423   1.376  0.6509 -0.5888 -1.7801
36728SOL    HW213683   3.557   1.283   1.344  1.2339 -0.9997  0.6635
36729SOL     OW13684   5.899  10.516   8.465  0.5113  0.9204 -0.3204
36729SOL    HW113685   5.898  10.478   8.377 -1.0591 -0.0099  0.0616
36729SOL    HW213686   5.817  10.487   8.505  0.8327  1.9616  1.1938
36730SOL     OW13687   4.808   3.812  10.413 -0.0686  0.1395  0.1603
36730SOL    HW113688   4.765   3.762  10.483 -2.1287  0.6329 -0.6723
36730SOL    HW213689   4.871   3.868  10.458 -0.3226 -0.5830  1.4525
36731SOL     OW13690  10.554   4.865   9.754 -0.1412  0.0839  0.2319
36731SOL    HW113691  10.466   4.834   9.734 -0.5177  0.7241  0.8509
36731SOL    HW213692  10.551   4.959   9.737  0.4767  0.0788  0.0818
36732SOL     OW13693   2.193   7.614   8.076  0.0793 -0.2017 -0.1950
36732SOL    HW113694   2.167   7.644   8.163  0.1670  0.7351 -0.4874
36732SOL    HW213695   2.189   7.518   8.082  1.0024 -0.1847  1.1267
36733SOL     OW13696  10.563   8.173   1.346 -0.5665 -0.5359  0.3136
36733SOL    HW113697  10.571   8.229   1.423 -0.2147 -0.8108  0.4820
36733SOL    HW213698  10.645   8.186   1.298 -1.1804  0.3685 -0.5237
36734SOL     OW13699   6.430   5.487   9.154 -0.1223 -0.1123  0.0000
36734SOL    HW113700   6.520   5.470   9.181  0.0228  1.3503  0.5134
36734SOL    HW213701   6.403   5.563   9.205 -0.7868  1.0277 -1.9186
36735SOL     OW13702   0.141   2.931   8.432 -0.6119  0.3338 -0.2158
36735SOL    HW113703   0.194   2.999   8.390  0.8521 -0.1999  0.6959
36735SOL    HW213704   0.133   2.863   8.365 -0.9766  0.8268 -0.6858
36736SOL     OW13705   5.238   3.148  10.438 -0.2904  0.7335  0.1584
36736SOL    HW113706   5.266   3.238  10.422  2.5807 -0.2395 -0.8623
36736SOL    HW213707   5.220   3.113  10.351  2.5960 -0.7604  0.0401
36737SOL     OW13708   6.479   1.236   0.284 -0.1037  0.2146  0.5833
36737SOL    HW113709   6.503   1.144   0.274  0.2201  0.3172  0.3994
36737SOL    HW213710   6.480   1.270   0.195  1.1909  0.7413  0.7734
36738SOL     OW13711   4.733   3.712   2.860 -0.4944 -0.3704  0.1756
36738SOL    HW113712   4.734   3.786   2.799  1.8129 -0.9218 -0.5633
36738SOL    HW213713   4.761   3.749   2.943  3.4998 -0.6766 -0.7902
36739SOL     OW13714   0.150   1.942   1.832  0.4612 -0.0975  0.3173
36739SOL    HW113715   0.243   1.930   1.815  0.4281  0.0783  0.0068
36739SOL    HW213716   0.139   2.037   1.836  0.3425 -0.1239  0.6098
36740SOL     OW13717  10.862   4.486   9.430 -0.2468  0.0048  0.3342
36740SOL    HW113718  10.936   4.425   9.421  0.8256  1.4547 -1.3867
36740SOL    HW213719  10.879   4.531   9.513  0.2920 -0.3279  0.4098
36741SOL     OW13720  10.145   9.875   4.742 -0.4850  0.4415 -0.4585
36741SOL    HW113721  10.128   9.942   4.675 -1.6055  1.5175  0.8211
36741SOL    HW213722  10.059   9.836   4.759 -0.4915  1.1068  1.2461
36742SOL     OW13723   5.654   3.705   4.630 -0.7661  0.0286 -0.4433
36742SOL    HW113724   5.731   3.759   4.648  0.2855 -1.5711  0.1255
36742SOL    HW213725   5.625   3.734   4.544 -1.1460  2.4621  0.4261
36743SOL     OW13726   4.676  10.626   9.054 -0.1089 -0.3189 -0.4166
36743SOL    HW113727   4.630  10.709   9.042 -0.8663 -0.4558  1.3070
36743SOL    HW213728   4.749  10.647   9.111 -0.2083 -0.7980 -0.1101
36744SOL     OW13729  10.968   3.228   2.774  0.0904 -0.2595  0.1625
36744SOL    HW113730  10.979   3.316   2.737 -0.1289 -0.9182 -1.5872
36744SOL    HW213731  10.932   3.243   2.861 -0.8201  1.3698 -0.4465
36745SOL     OW13732   4.983   9.860   8.402 -0.6752  0.4357 -0.1737
36745SOL    HW113733   4.943   9.891   8.321 -1.1940  0.2838  0.0238
36745SOL    HW213734   4.987   9.937   8.458 -1.3520  0.3023  0.0691
36746SOL     OW13735   0.587   8.830   3.724  0.3133  0.3545 -0.2660
36746SOL    HW113736   0.533   8.897   3.681  0.2418  0.8924  0.6214
36746SOL    HW213737   0.556   8.830   3.815  2.1827  1.0954  0.4294
36747SOL     OW13738   0.323   9.666   2.809  0.5880 -0.0072 -0.1620
36747SOL    HW113739   0.345   9.594   2.750 -0.8041 -0.4747 -0.1443
36747SOL    HW213740   0.236   9.694   2.780  1.1529  1.7715 -0.2611
36748SOL     OW13741   8.497   6.626   0.766 -0.0346 -0.1357  0.2940
36748SOL    HW113742   8.541   6.542   0.782  0.5832 -0.4635 -2.5955
36748SOL    HW213743   8.532   6.656   0.682 -0.8028  2.6829  0.8649
36749SOL     OW13744   2.640   0.812   3.757 -0.0520  0.1451 -0.4616
36749SOL    HW113745   2.627   0.718   3.766 -1.4784  0.4275  0.6415
36749SOL    HW213746   2.735   0.822   3.749  0.2414 -1.2702  0.8861
36750SOL     OW13747   7.004   7.765   2.489  0.1585  0.0971 -0.3059
36750SOL    HW113748   6.995   7.678   2.529  0.9679  0.1798  0.0716
36750SOL    HW213749   7.086   7.760   2.440  0.6389  0.8948  0.3846
36751SOL     OW13750   1.231   3.822   3.458  0.7082  0.3656 -0.1791
36751SOL    HW113751   1.233   3.736   3.417 -0.1916  1.3049 -2.3587
36751SOL    HW213752   1.309   3.866   3.426 -0.0749  1.1656 -1.0309
36752SOL     OW13753   9.303   9.518   6.526  0.7488 -0.0858  0.5240
36752SOL    HW113754   9.331   9.609   6.526  0.0828  0.1248  1.0899
36752SOL    HW213755   9.382   9.468   6.503  1.2173  0.5935  0.6495
36753SOL     OW13756  10.191   9.174   5.917 -0.2375 -0.5971  0.4151
36753SOL    HW113757  10.121   9.152   5.855 -0.3740 -0.1772  0.4180
36753SOL    HW213758  10.162   9.135   6.000  0.8359 -2.8058 -0.1776
36754SOL     OW13759   0.312   0.406   4.108 -0.2386 -0.0675  0.2465
36754SOL    HW113760   0.258   0.328   4.091 -0.2959 -0.5921  2.6118
36754SOL    HW213761   0.396   0.371   4.137 -0.0995  0.7671  0.8542
36755SOL     OW13762   5.205   7.289   4.763  0.2453 -0.2951 -0.2484
36755SOL    HW113763   5.251   7.292   4.847 -2.8472 -0.3553  1.5580
36755SOL    HW213764   5.233   7.370   4.719 -0.8378  1.6996  2.4580
36756SOL     OW13765   0.266   0.032   3.322  0.3055 -0.3046  0.1403
36756SOL    HW113766   0.270   0.084   3.403 -0.4306  1.3048 -0.7964
36756SOL    HW213767   0.176   0.041   3.292  0.0282 -2.5397  0.1293
36757SOL     OW13768   6.895   7.138  10.469  0.5638  0.3166  0.3019
36757SOL    HW113769   6.861   7.119  10.557  0.3130 -0.3207  0.0807
36757SOL    HW213770   6.882   7.056  10.421 -0.8575  1.1474 -0.8140
36758SOL     OW13771   8.354   5.789  10.139  0.4419 -0.4613 -0.1552
36758SOL    HW113772   8.438   5.774  10.182 -0.6706 -2.6386  1.4547
36758SOL    HW213773   8.289   5.772  10.207 -1.3271  1.2645 -1.3324
36759SOL     OW13774   7.397  10.292   0.856 -0.2115  0.5273  0.4705
36759SOL    HW113775   7.321  10.269   0.911 -0.7376  1.5974  0.2296
36759SOL    HW213776   7.370  10.270   0.767 -0.0102  0.3655  0.4491
36760SOL     OW13777   6.836   8.251  10.804 -0.9475 -0.3850  0.3530
36760SOL    HW113778   6.782   8.227  10.729  1.2133  0.1697 -1.5018
36760SOL    HW213779   6.922   8.213  10.786 -0.5257 -0.8875  2.9588
36761SOL     OW13780   3.234   2.911   2.688 -0.1602 -0.2184 -0.1378
36761SOL    HW113781   3.266   2.956   2.609 -1.1587  1.7824  0.5143
36761SOL    HW213782   3.140   2.929   2.689 -0.1015  0.1648  1.7087
36762SOL     OW13783   9.295   7.961   6.343 -0.3206  0.0688 -0.0194
36762SOL    HW113784   9.373   8.013   6.364 -1.0284  0.8385  0.7607
36762SOL    HW213785   9.284   7.971   6.249 -0.9314  2.0759  0.2241
36763SOL     OW13786   8.337   8.343   6.115 -0.2390 -0.0363  0.3385
36763SOL    HW113787   8.276   8.338   6.041  2.6244 -0.1619 -2.2692
36763SOL    HW213788   8.380   8.428   6.104 -1.0316  0.8138  3.1182
36764SOL     OW13789   2.418  10.589   0.286  0.4734 -0.4140 -0.0498
36764SOL    HW113790   2.330  10.627   0.273  1.2851  1.2068 -1.2839
36764SOL    HW213791   2.403  10.495   0.292 -1.3512 -0.1819 -0.3341
36765SOL     OW13792   3.565   6.900   7.485 -0.3356  0.0488  0.6483
36765SOL    HW113793   3.537   6.869   7.571 -0.4956 -0.0764  0.5506
36765SOL    HW213794   3.509   6.976   7.468  0.7542  1.0530  1.3491
36766SOL     OW13795   4.262   8.069  10.822 -0.6128  0.4259  0.1137
36766SOL    HW113796   4.185   8.052  10.769  0.5536  0.0457 -1.5626
36766SOL    HW213797   4.273   7.990  10.875 -0.6611 -0.0573 -0.5826
36767SOL     OW13798  10.227   1.548   4.447 -0.8553  0.1546 -0.5750
36767SOL    HW113799  10.298   1.565   4.384 -1.4779  1.3057 -0.9967
36767SOL    HW213800  10.271   1.548   4.532 -0.6441  3.4412 -0.5689
36768SOL     OW13801   4.984   3.904   2.534 -0.7412  0.4216 -0.3596
36768SOL    HW113802   5.019   3.840   2.596 -1.9646  0.6819  0.6201
36768SOL    HW213803   4.900   3.868   2.507  0.2772 -0.3336 -2.9187
36769SOL     OW13804   3.677   7.625   4.409 -0.6171 -0.8876  0.1141
36769SOL    HW113805   3.613   7.694   4.391  1.0134  1.0883  1.3563
36769SOL    HW213806   3.669   7.565   4.336 -1.1873  1.3589 -1.7922
36770SOL     OW13807   6.567   2.275  10.489 -0.6088  0.0170  0.2846
36770SOL    HW113808   6.540   2.206  10.549 -0.8221  0.2346  0.4405
36770SOL    HW213809   6.648   2.310  10.525 -0.7793  0.2010  0.4870
36771SOL     OW13810   4.438  10.513   2.399 -0.5447 -0.4675  0.8218
36771SOL    HW113811   4.380  10.572   2.350  1.6470  2.2227  1.2191
36771SOL    HW213812   4.526  10.549   2.385  0.4777 -1.1735  4.4897
36772SOL     OW13813   9.161   2.105   1.879 -0.6664 -0.9081 -0.1447
36772SOL    HW113814   9.115   2.111   1.962  1.1997 -0.2420  0.9000
36772SOL    HW213815   9.178   2.012   1.867 -1.2715 -1.0445  0.0025
36773SOL     OW13816   0.078   0.794   7.067  0.5145  0.3892 -0.6754
36773SOL    HW113817  -0.010   0.781   7.031  0.5404 -0.6451 -0.4026
36773SOL    HW213818   0.136   0.773   6.994  0.5471 -0.4954 -0.4098
36774SOL     OW13819   6.671  10.737   6.080 -0.1424  0.2480  0.0597
36774SOL    HW113820   6.685  10.794   6.155  1.0146 -0.0766  0.1147
36774SOL    HW213821   6.695  10.650   6.111 -1.7114 -0.2669 -0.0759
36775SOL     OW13822   6.396   9.330   5.521 -0.5280  0.1391  0.7000
36775SOL    HW113823   6.346   9.405   5.552 -0.2322  1.0697 -0.9782
36775SOL    HW213824   6.332   9.274   5.478 -0.5396  0.0639  0.8151
36776SOL     OW13825   2.595   5.385   5.196  0.4791  0.3268  0.0444
36776SOL    HW113826   2.673   5.426   5.234  0.1371  1.6989 -0.6821
36776SOL    HW213827   2.628   5.341   5.117  0.6240  0.3143  0.1107
36777SOL     OW13828  10.270   3.253   8.564 -0.2207 -0.7233  0.0090
36777SOL    HW113829  10.196   3.192   8.566 -1.7098  0.7906 -2.7810
36777SOL    HW213830  10.337   3.207   8.514 -1.1116 -0.3705 -1.5734
36778SOL     OW13831   3.835   0.952   4.366 -0.0531 -0.1100  0.0983
36778SOL    HW113832   3.759   0.972   4.419 -0.4089  0.6138 -0.6553
36778SOL    HW213833   3.905   1.006   4.402  0.2541 -1.1413  1.1028
36779SOL     OW13834   8.613  10.493   3.579  0.3947 -0.0097 -0.5978
36779SOL    HW113835   8.573  10.406   3.588 -0.5593  0.4912  0.2875
36779SOL    HW213836   8.671  10.485   3.503 -0.4624 -1.1314 -1.1790
36780SOL     OW13837   0.789   1.687   9.747 -0.3719  0.5531 -0.1976
36780SOL    HW113838   0.831   1.724   9.669 -0.1037 -0.8637 -0.7594
36780SOL    HW213839   0.764   1.763   9.799 -0.4840  1.5478 -1.6294
36781SOL     OW13840   1.127   1.163   4.965  0.0994 -0.3793 -0.4845
36781SOL    HW113841   1.044   1.116   4.959  0.4729 -1.3479  1.4595
36781SOL    HW213842   1.161   1.163   4.875 -0.9559 -1.8847 -0.9122
36782SOL     OW13843   5.517   7.837   7.195 -0.5178 -0.1117  0.0496
36782SOL    HW113844   5.499   7.921   7.153  1.5168 -0.3964 -1.5406
36782SOL    HW213845   5.488   7.772   7.131  0.5633 -0.5832  0.0293
36783SOL     OW13846   4.738   2.432   1.345 -0.1503 -0.3309  0.1324
36783SOL    HW113847   4.740   2.370   1.417  1.6262 -0.0490  0.3539
36783SOL    HW213848   4.706   2.381   1.270 -2.7859 -0.4400  1.2032
36784SOL     OW13849   7.379   2.315   2.177 -0.0315  0.5098 -0.1158
36784SOL    HW113850   7.422   2.231   2.189  1.5173  1.3231  0.2373
36784SOL    HW213851   7.439   2.379   2.215 -0.7767  1.8652 -1.1244
36785SOL     OW13852   7.270   4.596   5.877  0.0197 -0.4058 -0.0466
36785SOL    HW113853   7.196   4.616   5.820  0.7292  0.2575 -0.7625
36785SOL    HW213854   7.257   4.651   5.954 -1.1045 -1.5292  0.5989
36786SOL     OW13855   1.477   0.826   0.344  0.5350  0.2496 -0.1653
36786SOL    HW113856   1.402   0.877   0.316 -1.2402 -0.0888  3.4063
36786SOL    HW213857   1.551   0.886   0.338 -0.8400  2.1053  0.4314
36787SOL     OW13858   7.915   5.195   2.206 -0.5859 -0.2639  0.0242
36787SOL    HW113859   7.921   5.113   2.157 -1.4162 -0.3743  0.0920
36787SOL    HW213860   8.002   5.207   2.243 -0.8029 -1.8382  1.1675
36788SOL     OW13861   1.673   9.921   0.059 -0.4923 -0.6722  0.4449
36788SOL    HW113862   1.619   9.993   0.092  1.1318  0.3968  0.9069
36788SOL    HW213863   1.711   9.954  -0.022 -0.3011 -1.2873  0.2763
36789SOL     OW13864   1.662   3.229   7.027 -0.4494  0.0371 -0.2291
36789SOL    HW113865   1.639   3.138   7.045 -0.6944  0.1785  0.1987
36789SOL    HW213866   1.586   3.264   6.982  0.4169 -0.4886 -2.1790
36790SOL     OW13867  10.326   1.435  10.452 -0.4757 -0.2902  0.3257
36790SOL    HW113868  10.282   1.370  10.397 -0.2634 -1.2027  1.2024
36790SOL    HW213869  10.357   1.385  10.527  1.9051  0.3329 -0.1513
36791SOL     OW13870  10.063  10.929   7.191 -0.5816 -0.2898  0.1240
36791SOL    HW113871  10.076  10.840   7.158 -0.0500 -0.2140  0.1235
36791SOL    HW213872  10.016  10.973   7.121  1.1562  0.0706 -0.8721
36792SOL     OW13873   2.210   9.393   0.932  0.1818  0.4756  0.1022
36792SOL    HW113874   2.241   9.304   0.945  2.1655  1.1118  0.1713
36792SOL    HW213875   2.196   9.427   1.020  0.0814  0.4430  0.0990
36793SOL     OW13876   5.576   2.346   2.691 -0.2143  0.2977 -0.1834
36793SOL    HW113877   5.653   2.401   2.678  0.8001 -0.4532  1.9738
36793SOL    HW213878   5.512   2.378   2.628  2.2934  0.0557 -3.1047
36794SOL     OW13879   4.116   6.738   1.858 -0.0677 -0.1448 -0.3790
36794SOL    HW113880   4.080   6.650   1.851 -0.6561  0.0628 -0.0014
36794SOL    HW213881   4.132   6.765   1.767 -2.2509  0.3308 -0.6645
36795SOL     OW13882   6.328   9.048   3.412  0.2911 -0.5596  0.6498
36795SOL    HW113883   6.236   9.021   3.408  0.5292 -1.6564  1.9716
36795SOL    HW213884   6.373   8.973   3.452  2.0212 -0.6683 -1.3119
36796SOL     OW13885   1.719   7.107   3.635  0.2447  0.9205 -0.0526
36796SOL    HW113886   1.766   7.189   3.621 -1.1607  1.7362 -0.1522
36796SOL    HW213887   1.629   7.133   3.656 -0.4942 -0.6146 -1.1015
36797SOL     OW13888   7.075   3.186   0.504 -0.1086 -0.2046  0.1328
36797SOL    HW113889   7.055   3.106   0.553  1.7638 -0.5584  0.4025
36797SOL    HW213890   7.166   3.174   0.476  0.1575  1.7695  0.0577
36798SOL     OW13891   5.437   5.720   9.175 -0.1129 -0.3605 -0.2863
36798SOL    HW113892   5.437   5.643   9.120 -0.0675  0.1539 -1.0199
36798SOL    HW213893   5.430   5.686   9.265  0.5496 -1.2294 -0.5573
36799SOL     OW13894   8.274   6.599   5.270 -0.0987  0.3060  0.0081
36799SOL    HW113895   8.225   6.560   5.198  1.1404 -1.6658  0.1566
36799SOL    HW213896   8.366   6.594   5.242  0.3701 -0.0886  1.5025
36800SOL     OW13897   8.703   1.758   5.772 -0.1982  0.2315  0.1752
36800SOL    HW113898   8.798   1.747   5.762  0.0353  0.9213  1.4219
36800SOL    HW213899   8.667   1.673   5.747  0.8209 -0.3362  0.5590
36801SOL     OW13900   0.222   5.291   5.731  0.1240 -0.0183 -0.0060
36801SOL    HW113901   0.141   5.240   5.742  0.0297  0.5967  2.8909
36801SOL    HW213902   0.288   5.225   5.707 -0.8706 -0.7841 -0.7570
36802SOL     OW13903   4.485   2.715   1.266 -0.0205 -0.3762  0.3606
36802SOL    HW113904   4.523   2.803   1.265 -1.3382  0.2054 -0.2274
36802SOL    HW213905   4.455   2.703   1.356 -0.9946  0.3133  0.1479
36803SOL     OW13906  10.296   2.876   5.226 -0.6133  0.1360 -0.1319
36803SOL    HW113907  10.267   2.796   5.182 -0.7364 -0.2353  0.6029
36803SOL    HW213908  10.354   2.918   5.163  0.5503 -1.2253 -0.0364
36804SOL     OW13909  10.748   4.781  10.617 -0.3746 -0.2626 -0.5154
36804SOL    HW113910  10.751   4.698  10.664  0.0471  0.1564  0.2186
36804SOL    HW213911  10.748   4.757  10.524 -1.4805 -1.1122 -0.3149
36805SOL     OW13912   4.620   5.940  10.607  0.1270  0.3483  0.0210
36805SOL    HW113913   4.601   6.021  10.654  2.0945 -0.4320  2.4472
36805SOL    HW213914   4.598   5.871  10.670 -0.9606 -1.0305 -1.7627
36806SOL     OW13915  10.433   8.500   5.387 -0.4148 -0.5863  0.0022
36806SOL    HW113916  10.439   8.432   5.454  1.3629 -0.1841  0.2850
36806SOL    HW213917  10.508   8.557   5.403 -2.9605  2.8112  1.2518
36807SOL     OW13918  10.591   3.606   3.706 -0.2932  0.0799 -0.3418
36807SOL    HW113919  10.659   3.554   3.749 -0.2894  0.1962 -0.2048
36807SOL    HW213920  10.528   3.542   3.674 -0.5293  0.0143  0.2415
36808SOL     OW13921   7.656   2.020  10.677  0.7323 -0.5976  0.1067
36808SOL    HW113922   7.597   1.976  10.737 -0.6320  2.7579  1.4992
36808SOL    HW213923   7.618   2.003  10.590  0.6649 -2.5767  0.4796
36809SOL     OW13924   5.354   6.037   6.105  0.0071  0.0943  0.3909
36809SOL    HW113925   5.278   6.002   6.151 -0.1745  0.6405  0.5134
36809SOL    HW213926   5.420   6.048   6.173  0.8445 -2.0926  0.0057
36810SOL     OW13927   8.152   8.968   7.224  0.2770  0.2032 -0.9347
36810SOL    HW113928   8.168   8.875   7.243 -0.8902  0.0233 -0.7490
36810SOL    HW213929   8.236   9.000   7.191  0.4991 -1.1214 -1.7607
36811SOL     OW13930   7.707   5.675   1.344 -0.0729 -0.0575 -0.9875
36811SOL    HW113931   7.706   5.733   1.421  1.6625 -1.5553  0.2685
36811SOL    HW213932   7.621   5.635   1.343  0.1289 -0.6291  0.7377
36812SOL     OW13933   0.530   1.043   1.433 -0.3473 -0.2802 -0.0874
36812SOL    HW113934   0.624   1.026   1.421 -0.1582 -0.0715  1.0290
36812SOL    HW213935   0.488   0.960   1.409  0.1372 -0.4747 -0.2807
36813SOL     OW13936   7.020   4.622   6.212 -0.4186  0.2491  0.0783
36813SOL    HW113937   7.064   4.699   6.177  0.8199 -0.9127 -1.0780
36813SOL    HW213938   7.091   4.563   6.236 -1.3289 -1.1167 -0.4615
36814SOL     OW13939   0.398   1.356   8.664 -0.0111  0.4760  0.0309
36814SOL    HW113940   0.430   1.373   8.752  0.4306  1.5759 -0.3181
36814SOL    HW213941   0.305   1.377   8.668  0.1396  1.1591  0.0895
36815SOL     OW13942   4.568   8.927   3.107 -0.6991  0.3839  0.7191
36815SOL    HW113943   4.568   8.894   3.017  0.4377 -0.5139  1.0229
36815SOL    HW213944   4.497   8.992   3.109 -0.0135  1.2739 -1.1318
36816SOL     OW13945   9.741   3.938   0.408 -0.4151 -0.4799 -0.1474
36816SOL    HW113946   9.674   3.892   0.359 -0.1342 -0.5771 -0.4436
36816SOL    HW213947   9.824   3.906   0.372 -0.2056 -0.4578  0.2966
36817SOL     OW13948   3.605   2.719   3.317  0.0282 -0.2600 -1.1421
36817SOL    HW113949   3.661   2.705   3.241  2.3234 -2.1473  0.7316
36817SOL    HW213950   3.627   2.807   3.346  1.9828 -0.8604 -0.6005
36818SOL     OW13951   5.553   8.992   8.130 -0.0208 -0.3304 -0.1853
36818SOL    HW113952   5.624   8.937   8.164  0.1627 -0.5466 -0.8852
36818SOL    HW213953   5.478   8.933   8.122 -0.2139 -0.1599  0.3212
36819SOL     OW13954   9.827  10.515   3.440  0.5570  0.2008  0.0454
36819SOL    HW113955   9.910  10.470   3.426 -0.1400 -1.2269  0.2213
36819SOL    HW213956   9.847  10.584   3.503  1.8832  0.8286 -1.0338
36820SOL     OW13957  10.395  10.082   3.959 -0.2542  0.2923 -0.0854
36820SOL    HW113958  10.376   9.991   3.937 -1.7867  0.8362 -1.2359
36820SOL    HW213959  10.436  10.118   3.881 -0.9818  0.9420 -0.1828
36821SOL     OW13960   5.008   5.471   8.838  0.1291  0.0663 -0.0281
36821SOL    HW113961   5.035   5.443   8.925 -1.8435 -2.1902 -0.0432
36821SOL    HW213962   4.914   5.490   8.846 -0.1280 -0.3367 -1.6859
36822SOL     OW13963   7.333   8.462   3.821  0.5312 -0.3201 -0.3235
36822SOL    HW113964   7.271   8.449   3.749 -0.5270 -1.6200  0.7923
36822SOL    HW213965   7.306   8.400   3.888  1.8202  0.5002  1.0087
36823SOL     OW13966   9.900   6.030   2.997  0.1422 -0.2209  0.4115
36823SOL    HW113967   9.887   6.024   2.902  1.5599  1.0916  0.0920
36823SOL    HW213968   9.957   6.106   3.009  0.7921 -0.9287  2.2472
36824SOL     OW13969   1.784   7.717   6.341 -0.2202  0.2638 -0.3865
36824SOL    HW113970   1.732   7.793   6.315 -1.1756  0.9049  2.9801
36824SOL    HW213971   1.875   7.745   6.334 -0.5229  1.2213 -0.5504
36825SOL     OW13972   2.407   8.782  10.455  0.5821  0.2806  0.2314
36825SOL    HW113973   2.347   8.854  10.435 -0.9656 -0.7006  1.1300
36825SOL    HW213974   2.474   8.787  10.387 -0.3114  1.6402 -0.6070
36826SOL     OW13975   7.789   8.478   9.085  0.4492 -0.0836 -0.0725
36826SOL    HW113976   7.803   8.507   9.175  2.5423  0.2756 -0.4713
36826SOL    HW213977   7.820   8.387   9.085 -0.9198 -0.5731 -0.1205
36827SOL     OW13978   6.053   5.106   1.108 -1.0733  1.0338 -0.4291
36827SOL    HW113979   5.979   5.165   1.095 -0.8282  1.1240 -1.4612
36827SOL    HW213980   6.081   5.083   1.020 -0.5715  0.1134 -0.0359
36828SOL     OW13981   6.546   0.552   5.643  0.3933  0.3984  0.1496
36828SOL    HW113982   6.521   0.637   5.606  1.2046  0.3396 -0.5578
36828SOL    HW213983   6.564   0.497   5.567 -0.1054 -0.4158  0.6004
36829SOL     OW13984   1.365   9.627   7.570 -0.1264 -0.7347 -0.2016
36829SOL    HW113985   1.373   9.723   7.567  0.1612 -0.7660 -0.5336
36829SOL    HW213986   1.452   9.596   7.595 -0.7273 -0.8317  1.9448
36830SOL     OW13987   9.786   5.152   6.303  0.3304  0.8881  0.4274
36830SOL    HW113988   9.798   5.147   6.398 -0.5964  1.7868  0.6177
36830SOL    HW213989   9.813   5.241   6.280  1.2506  0.4394 -0.2763
36831SOL     OW13990   0.153   7.356   5.197  0.5909 -0.3506  0.6008
36831SOL    HW113991   0.100   7.384   5.123  1.1252 -0.5073  0.1584
36831SOL    HW213992   0.106   7.281   5.233  0.0812  0.0190  0.7181
36832SOL     OW13993   3.397   2.706   2.267  0.6717 -0.0269  0.2339
36832SOL    HW113994   3.345   2.785   2.265 -0.6237 -0.8570  0.2421
36832SOL    HW213995   3.355   2.650   2.332  0.5319 -1.3944 -0.9876
36833SOL     OW13996   1.645   6.097   8.065  0.2641 -0.0133  0.1083
36833SOL    HW113997   1.706   6.025   8.078 -0.3055 -0.0994  2.7754
36833SOL    HW213998   1.559   6.055   8.061  0.1688  0.2600 -1.9770
36834SOL     OW13999   4.382   3.468   5.736 -0.1575 -0.3207 -0.0648
36834SOL    HW114000   4.423   3.385   5.712  0.5459  0.6971 -2.6477
36834SOL    HW214001   4.358   3.508   5.653  1.8674  3.2459  0.8838
36835SOL     OW14002   4.944   7.696  10.633  0.0142  0.1106  0.1286
36835SOL    HW114003   4.903   7.702  10.720 -0.8571 -0.1395 -0.2584
36835SOL    HW214004   5.026   7.745  10.642  0.1179 -0.2301  1.2002
36836SOL     OW14005   4.153   5.495   3.701  0.2430  0.2975  0.3908
36836SOL    HW114006   4.128   5.587   3.706  0.5505  0.3889  0.2605
36836SOL    HW214007   4.132   5.460   3.788  0.2936  0.5326  0.5003
36837SOL     OW14008  10.899   1.235   3.972  0.1333 -0.0429  0.4316
36837SOL    HW114009  10.959   1.241   3.898 -1.2432  0.7949 -0.6738
36837SOL    HW214010  10.876   1.325   3.993  0.7942 -0.2413  2.1713
36838SOL     OW14011   9.656   4.163  10.588 -0.0884 -0.0397 -0.0604
36838SOL    HW114012   9.578   4.219  10.591  0.4975  0.7606  1.1249
36838SOL    HW214013   9.652   4.113  10.670 -0.2265 -1.2470 -0.7793
36839SOL     OW14014   0.742   9.006   6.157 -1.0831 -0.5251  0.1430
36839SOL    HW114015   0.807   8.969   6.096 -2.1426 -0.5053 -1.0492
36839SOL    HW214016   0.772   9.096   6.171 -1.1631 -0.3255 -0.8820
36840SOL     OW14017   0.126   6.994   5.864 -0.0660  0.0755 -0.4941
36840SOL    HW114018   0.050   6.936   5.873 -0.9082  1.1721 -0.2952
36840SOL    HW214019   0.177   6.980   5.943 -1.0705  0.7225  0.2925
36841SOL     OW14020   7.063   3.570   1.773  0.0957 -0.0440 -0.1074
36841SOL    HW114021   7.130   3.503   1.785  0.7604  0.4924 -0.7057
36841SOL    HW214022   7.100   3.629   1.707 -1.7224 -0.7423 -1.8688
36842SOL     OW14023   3.307   7.403   0.980 -0.3377  0.5112 -0.1096
36842SOL    HW114024   3.382   7.437   1.029  0.7267  0.4085 -1.5906
36842SOL    HW214025   3.297   7.313   1.011  2.4493 -0.7090 -2.3080
36843SOL     OW14026  10.005   8.403   5.381  0.2340 -0.5538 -0.0666
36843SOL    HW114027  10.031   8.464   5.449 -1.8855  0.9215 -0.4599
36843SOL    HW214028   9.983   8.323   5.427  0.1851 -0.0294  0.8411
36844SOL     OW14029   0.202   7.203   3.747  0.5028 -0.3161 -0.1860
36844SOL    HW114030   0.198   7.134   3.681 -4.0876  0.0286 -0.5836
36844SOL    HW214031   0.131   7.183   3.808  2.3154  1.3114  2.7364
36845SOL     OW14032   3.782   8.261   5.832  0.0565  0.0427  0.6640
36845SOL    HW114033   3.729   8.330   5.793  0.5489 -0.5551 -1.1209
36845SOL    HW214034   3.854   8.308   5.876 -1.8107  0.8555  3.0605
36846SOL     OW14035   8.190   9.364   6.431 -0.3281  0.4954 -0.0105
36846SOL    HW114036   8.156   9.407   6.509  0.2309  0.9694 -0.0122
36846SOL    HW214037   8.229   9.436   6.380  2.6554 -0.2536  1.0329
36847SOL     OW14038  10.382   1.268  10.670  0.3829 -0.1859  0.0782
36847SOL    HW114039  10.379   1.353  10.712 -2.3350  0.3975 -1.1076
36847SOL    HW214040  10.374   1.205  10.741 -1.4534  0.6900  0.6903
36848SOL     OW14041  10.684   2.482   4.700 -0.0379 -0.1755  0.0330
36848SOL    HW114042  10.613   2.497   4.638 -0.4953  0.1168  0.6146
36848SOL    HW214043  10.660   2.400   4.744  0.3958 -0.4992 -0.3182
36849SOL     OW14044   8.846   6.597   0.524 -0.4983 -0.0268 -0.2140
36849SOL    HW114045   8.785   6.527   0.502  0.5497 -1.0299 -0.0418
36849SOL    HW214046   8.875   6.632   0.439 -1.2497  0.4156 -0.2949
36850SOL     OW14047   1.594   8.105   7.689  0.4316  0.1468 -0.0845
36850SOL    HW114048   1.652   8.144   7.755  0.1704  0.3917  0.0030
36850SOL    HW214049   1.506   8.119   7.724  0.3762 -2.4028  1.0006
36851SOL     OW14050   5.997  10.187   4.007  0.3539 -0.1986 -0.0274
36851SOL    HW114051   6.073  10.142   4.043  0.5119  0.2609  0.2211
36851SOL    HW214052   6.018  10.197   3.914  0.8943  0.5049  0.1588
36852SOL     OW14053   6.314   6.779   7.954  0.3192  0.4650 -0.0742
36852SOL    HW114054   6.258   6.824   8.017 -1.6491 -0.9402 -0.7453
36852SOL    HW214055   6.362   6.715   8.006 -0.0550  0.4414  0.2429
36853SOL     OW14056   5.321  10.123  10.993  0.9619  0.2595  0.4151
36853SOL    HW114057   5.347  10.210  10.963  0.5669 -0.0003 -0.7311
36853SOL    HW214058   5.402  10.073  10.998  1.0142  0.2141 -0.6000
36854SOL     OW14059   2.758   2.886   6.828 -0.2783 -0.1679  0.0879
36854SOL    HW114060   2.700   2.956   6.858 -0.7680  0.5178 -2.2246
36854SOL    HW214061   2.830   2.931   6.784  1.0705 -1.0768  1.2671
36855SOL     OW14062   2.086   3.205   9.779 -0.6934  0.3171  0.0859
36855SOL    HW114063   2.026   3.131   9.782 -0.0041 -0.2807 -0.2702
36855SOL    HW214064   2.125   3.200   9.691 -1.6610  1.9543 -0.4928
36856SOL     OW14065   0.654   5.300   0.006 -0.3678 -0.0506 -0.6937
36856SOL    HW114066   0.560   5.318   0.008 -0.3499  0.0532 -0.7460
36856SOL    HW214067   0.695   5.381   0.035 -0.2195  0.6288 -2.6510
36857SOL     OW14068   5.527   7.360   7.963 -0.0807  0.0170 -0.1149
36857SOL    HW114069   5.453   7.311   7.927 -0.4749  1.4448 -1.3009
36857SOL    HW214070   5.562   7.302   8.031 -2.1983 -0.7533  0.3994
36858SOL     OW14071   3.203   8.206   2.563  0.4588 -0.0919  0.1930
36858SOL    HW114072   3.286   8.170   2.532  0.1484 -0.1446 -0.5971
36858SOL    HW214073   3.157   8.132   2.602 -0.1807 -0.5959 -1.4305
36859SOL     OW14074   0.517   2.878   4.793  0.3889  0.0502  0.4355
36859SOL    HW114075   0.568   2.830   4.857  0.3213  0.1528  0.5669
36859SOL    HW214076   0.564   2.961   4.782  0.5809 -0.0992  0.1083
36860SOL     OW14077   0.977   9.092   5.007  0.2513  0.0558  0.2034
36860SOL    HW114078   0.890   9.095   5.045 -0.3760  0.8488 -1.2229
36860SOL    HW214079   0.979   9.163   4.943  1.2292 -1.1774 -1.2503
36861SOL     OW14080   0.041   6.584  10.709 -0.6056 -0.2684 -0.1269
36861SOL    HW114081  -0.029   6.636  10.750  0.2493  1.6270 -0.9467
36861SOL    HW214082   0.007   6.563  10.622 -0.6151 -0.3624 -0.1004
36862SOL     OW14083   1.653  10.578   0.535 -0.3966 -0.6857 -0.3902
36862SOL    HW114084   1.702  10.514   0.586  0.2689  0.0459 -0.0924
36862SOL    HW214085   1.609  10.632   0.600 -0.6568 -0.6139 -0.6270
36863SOL     OW14086   9.213   3.616   7.519 -0.8002 -0.1364 -0.0082
36863SOL    HW114087   9.124   3.594   7.491 -0.8040  0.4324 -0.4549
36863SOL    HW214088   9.208   3.617   7.615 -1.2711 -0.1116 -0.0309
36864SOL     OW14089   7.030   6.355   1.916 -0.1776  0.1989 -0.6015
36864SOL    HW114090   7.098   6.333   1.979 -1.0063 -0.9554 -0.0686
36864SOL    HW214091   7.048   6.446   1.892  2.3411 -0.4526 -1.5223
36865SOL     OW14092   1.436  10.335   8.702  0.6419 -0.1711  0.3843
36865SOL    HW114093   1.489  10.405   8.664 -0.2245  1.0998  1.4089
36865SOL    HW214094   1.371  10.314   8.634  1.3829 -0.5467 -0.2218
36866SOL     OW14095   4.662  10.816   6.128 -0.4059  0.2020  0.2381
36866SOL    HW114096   4.570  10.839   6.117 -0.5728 -0.7270 -0.3373
36866SOL    HW214097   4.671  10.731   6.087  0.0602 -1.1280  2.8848
36867SOL     OW14098   4.594   4.240   2.891  0.2150 -0.3986  0.8886
36867SOL    HW114099   4.569   4.329   2.865 -0.4577 -0.4528  1.3170
36867SOL    HW214100   4.536   4.183   2.841 -0.8284 -0.5136  2.1691
36868SOL     OW14101   6.169   2.523   0.446 -0.1319 -0.3996  0.0764
36868SOL    HW114102   6.171   2.502   0.540 -1.7899  0.1125  0.2619
36868SOL    HW214103   6.097   2.472   0.412 -0.0966  0.0863 -0.7515
36869SOL     OW14104   4.305   2.521   8.895 -0.1711  0.0157  0.2732
36869SOL    HW114105   4.385   2.495   8.941 -0.0809  0.0006  0.1079
36869SOL    HW214106   4.237   2.516   8.962  0.1061  0.8297  0.6329
36870SOL     OW14107  10.668   7.684   4.206 -0.1604  0.3084  0.1935
36870SOL    HW114108  10.753   7.691   4.164  0.3275 -0.6417  0.9894
36870SOL    HW214109  10.686   7.687   4.299 -0.9997  0.1181  0.3751
36871SOL     OW14110  10.894   3.729   2.020 -0.1171 -0.1010  0.4820
36871SOL    HW114111  10.826   3.768   2.075 -0.1944 -1.5856  1.4960
36871SOL    HW214112  10.876   3.635   2.022  0.1994 -0.2695 -1.6931
36872SOL     OW14113   8.432   5.964   4.405 -0.0408  0.0626 -0.2317
36872SOL    HW114114   8.358   6.020   4.381  0.1078 -0.7294 -2.9692
36872SOL    HW214115   8.395   5.875   4.407  0.6160 -0.2342 -0.6709
36873SOL     OW14116   7.763   6.828   2.483  0.2342  0.0298  0.4169
36873SOL    HW114117   7.697   6.871   2.537  2.0250  1.1651  1.8622
36873SOL    HW214118   7.716   6.797   2.406 -1.8622  1.2054  1.1460
36874SOL     OW14119   5.824   3.958   5.349 -0.2688 -0.1749  0.7070
36874SOL    HW114120   5.846   3.868   5.322 -0.9559 -0.2533  0.3854
36874SOL    HW214121   5.839   3.958   5.443  0.5091 -0.3941  0.5966
36875SOL     OW14122   1.984   3.929  10.225  0.6671  0.0247  0.4336
36875SOL    HW114123   2.001   3.966  10.311 -0.1849  2.7769 -0.4716
36875SOL    HW214124   1.919   3.987  10.186  0.8326 -1.2619 -1.9727
36876SOL     OW14125   2.434   3.501   1.662 -0.4664 -0.3485 -0.0797
36876SOL    HW114126   2.449   3.490   1.756 -0.1113  1.1084  0.0489
36876SOL    HW214127   2.473   3.586   1.641  0.8989 -1.3348 -1.8619
36877SOL     OW14128   7.412   6.608   8.251  0.1987  0.0056 -0.7880
36877SOL    HW114129   7.416   6.531   8.194 -1.9128 -2.0599  1.5661
36877SOL    HW214130   7.326   6.646   8.233 -0.3830 -0.5153  0.6802
36878SOL     OW14131   3.438   3.255   1.209 -0.0544 -0.1741 -0.8234
36878SOL    HW114132   3.366   3.316   1.227 -0.6323 -0.6494 -1.4495
36878SOL    HW214133   3.515   3.295   1.250 -0.6559  0.3899 -0.2253
36879SOL     OW14134   1.952   0.978   8.978 -0.1853  0.6827 -0.3827
36879SOL    HW114135   1.865   0.966   9.016 -0.4853  0.7970 -1.0288
36879SOL    HW214136   2.007   0.915   9.025 -0.8861 -0.3197 -0.8798
36880SOL     OW14137   7.697   3.723   2.084  0.4407  0.4021 -0.1141
36880SOL    HW114138   7.751   3.659   2.131  2.5543  1.6841 -0.6429
36880SOL    HW214139   7.747   3.805   2.088 -2.2961  2.1626  0.7942
36881SOL     OW14140  10.529   9.013   2.932  0.1956  0.2283  0.2184
36881SOL    HW114141  10.526   8.992   2.839  1.1321 -1.3534  0.5214
36881SOL    HW214142  10.488   9.100   2.938  0.0709  0.3337 -1.6427
36882SOL     OW14143   5.361   0.014   0.905 -0.2898  0.3825  0.1802
36882SOL    HW114144   5.393   0.102   0.887  0.2292  0.1050 -0.2691
36882SOL    HW214145   5.421  -0.020   0.971 -0.6959  0.4828  0.6118
36883SOL     OW14146   3.762   1.484   0.484  0.3140  0.1340 -0.6828
36883SOL    HW114147   3.679   1.491   0.437 -2.0239 -0.5606  2.9243
36883SOL    HW214148   3.792   1.394   0.467 -1.4824 -0.7534  0.4614
36884SOL     OW14149   6.768   8.827   4.370 -0.7443 -0.1305  0.9247
36884SOL    HW114150   6.684   8.796   4.403 -0.6898  1.6784  2.9787
36884SOL    HW214151   6.821   8.840   4.448  1.2133 -0.4572 -0.2710
36885SOL     OW14152   7.144   4.471   0.615  0.0292  0.1619  0.0062
36885SOL    HW114153   7.224   4.524   0.621  0.3297 -0.1804 -0.7937
36885SOL    HW214154   7.176   4.382   0.599 -0.5034 -0.0380  0.0426
36886SOL     OW14155   0.921   2.892   3.564 -0.0808 -0.3566  0.3326
36886SOL    HW114156   0.839   2.845   3.552 -1.5362  1.9906  0.4803
36886SOL    HW214157   0.943   2.879   3.656 -1.6102  0.9087  0.9239
36887SOL     OW14158  10.986   0.103   3.287  0.3360 -0.3258 -0.1912
36887SOL    HW114159  11.031   0.180   3.322  1.0519 -0.0851 -1.5806
36887SOL    HW214160  10.952   0.132   3.203 -1.5402 -0.8290  0.3559
36888SOL     OW14161  10.623   0.114   0.962 -0.8009  0.7581 -0.4732
36888SOL    HW114162  10.590   0.033   1.001  0.2829  1.3869  1.8969
36888SOL    HW214163  10.567   0.183   0.997 -0.0923  1.3049 -0.3914
36889SOL     OW14164   4.557   6.579  10.203 -0.0482 -0.2596  0.1814
36889SOL    HW114165   4.526   6.573  10.113  0.4537  3.6648 -0.4106
36889SOL    HW214166   4.484   6.616  10.252  0.5890  0.2749  0.7530
36890SOL     OW14167   7.902   6.130   9.616 -0.0496 -0.8195 -0.1578
36890SOL    HW114168   7.967   6.121   9.686  1.0498  1.7371 -0.7283
36890SOL    HW214169   7.821   6.152   9.662  0.9300  2.0727  0.4005
36891SOL     OW14170   3.106  10.863   6.040  0.0147 -0.0651 -0.8362
36891SOL    HW114171   3.159  10.921   5.986  0.7049  0.5150  0.4183
36891SOL    HW214172   3.019  10.903   6.043  0.6686  1.3351  0.5981
36892SOL     OW14173   7.066   4.062   4.780  0.7831  0.1926  0.0375
36892SOL    HW114174   7.049   4.085   4.689 -0.7082  0.0758  0.2566
36892SOL    HW214175   7.045   4.141   4.829 -1.4401 -0.6343  0.5230
36893SOL     OW14176   2.981   4.215   4.631 -0.2757  0.0904 -0.0828
36893SOL    HW114177   2.947   4.126   4.639  1.1991 -0.4983 -0.0747
36893SOL    HW214178   2.991   4.229   4.537 -1.5404  0.6727 -0.1458
36894SOL     OW14179   8.257   2.292   1.864  0.1417 -0.2064  0.3607
36894SOL    HW114180   8.198   2.270   1.792 -1.8383  0.7446  1.6071
36894SOL    HW214181   8.225   2.240   1.938  0.0264  1.2448  1.3836
36895SOL     OW14182   6.682   3.299   2.597 -0.0662 -0.3567 -0.1041
36895SOL    HW114183   6.754   3.260   2.645  0.0245  0.5174  0.4948
36895SOL    HW214184   6.656   3.233   2.533  1.9344 -0.2851 -1.0379
36896SOL     OW14185   2.424   1.586   8.689  0.1896 -0.2202 -0.3098
36896SOL    HW114186   2.465   1.592   8.775 -0.6915 -1.9538  0.2766
36896SOL    HW214187   2.401   1.494   8.679 -2.7021  0.4711 -0.9942
36897SOL     OW14188   4.524   8.681   6.468  0.3699 -0.2338  0.4176
36897SOL    HW114189   4.551   8.696   6.378 -2.1317  0.3601 -0.3124
36897SOL    HW214190   4.605   8.685   6.519  1.5785  1.5426 -1.5239
36898SOL     OW14191   2.426   0.813   5.620  0.0246 -0.3836 -0.0523
36898SOL    HW114192   2.474   0.848   5.545 -1.8815 -0.0524 -1.1833
36898SOL    HW214193   2.488   0.819   5.693  2.6961 -2.6527 -1.9414
36899SOL     OW14194   2.679   6.287   8.197 -0.0538  0.2710  0.5639
36899SOL    HW114195   2.619   6.350   8.156  1.3626  1.9422  0.8882
36899SOL    HW214196   2.737   6.260   8.125 -0.1857 -0.0671  0.5858
36900SOL     OW14197  10.664   7.078   2.779  0.2859  0.0688  0.5261
36900SOL    HW114198  10.672   6.983   2.774 -3.2700 -0.4029  1.0711
36900SOL    HW214199  10.580   7.097   2.736  0.6989  2.9352  0.7837
36901SOL     OW14200   4.342   7.621   8.593  0.0853  0.3613  0.2063
36901SOL    HW114201   4.340   7.693   8.655  0.5961  1.2340 -0.7638
36901SOL    HW214202   4.255   7.621   8.553 -0.3013 -0.3100  1.0175
36902SOL     OW14203   4.907   9.435   7.562  0.1764 -0.0510 -0.1729
36902SOL    HW114204   4.821   9.394   7.560  0.5670 -0.8995 -0.3319
36902SOL    HW214205   4.964   9.373   7.515  0.5516  1.2501 -1.4919
36903SOL     OW14206   0.804   5.844   7.118  0.6495  0.2444 -0.2429
36903SOL    HW114207   0.855   5.763   7.117  1.7209  0.8719 -2.4876
36903SOL    HW214208   0.714   5.815   7.100  0.7272 -0.5689  0.5697
36904SOL     OW14209   2.053   3.910   6.112  0.6057  0.7619  0.8112
36904SOL    HW114210   1.965   3.948   6.118  0.2456 -0.2421  2.5589
36904SOL    HW214211   2.070   3.874   6.199  2.7407  0.8591  0.4933
36905SOL     OW14212   8.163   4.858   6.822  0.4543  0.0615 -0.2111
36905SOL    HW114213   8.163   4.781   6.878  0.1526  0.7247  0.7267
36905SOL    HW214214   8.189   4.930   6.880 -1.7103  1.1069 -0.4343
36906SOL     OW14215   2.846   9.891  10.719 -0.1280  0.1520 -0.3738
36906SOL    HW114216   2.881   9.804  10.699 -0.4581  0.2747 -1.5712
36906SOL    HW214217   2.911   9.952  10.684 -0.2624  0.3894 -0.2139
36907SOL     OW14218   4.300   4.806   7.078  0.1517  0.3788  0.2069
36907SOL    HW114219   4.378   4.851   7.109 -0.0323  0.6369  0.2922
36907SOL    HW214220   4.231   4.832   7.138 -0.3076  1.2309 -0.6549
36908SOL     OW14221   4.272   0.883   4.947 -0.9954 -0.1527 -0.2170
36908SOL    HW114222   4.295   0.846   5.032  0.1493  0.7413 -0.1139
36908SOL    HW214223   4.265   0.808   4.888 -2.1627 -0.8175  0.7240
36909SOL     OW14224   7.449   4.539  10.341 -0.1263  0.6462 -0.1634
36909SOL    HW114225   7.388   4.471  10.371 -1.1474  1.2332 -0.8212
36909SOL    HW214226   7.535   4.499  10.346 -0.4580  0.0743  1.6422
36910SOL     OW14227   5.613   6.503   8.205 -0.0352  0.0983  0.2514
36910SOL    HW114228   5.537   6.515   8.263 -0.5122  2.4199 -0.7650
36910SOL    HW214229   5.577   6.458   8.128  0.1309 -0.8774  0.7223
36911SOL     OW14230   3.188   7.906   4.450 -0.9368  0.7383  0.1359
36911SOL    HW114231   3.162   7.988   4.409 -1.8405  0.7277  0.6557
36911SOL    HW214232   3.155   7.913   4.540 -0.3072  0.1442  0.4208
36912SOL     OW14233   9.825   5.976   5.065 -0.6487  0.1108  0.4199
36912SOL    HW114234   9.774   5.993   5.144  0.4466  1.1894  0.9300
36912SOL    HW214235   9.779   6.022   4.996  0.0819  1.8566  1.0493
36913SOL     OW14236  10.414   2.576   0.987 -0.0715 -0.4790 -0.4546
36913SOL    HW114237  10.450   2.618   1.064  0.2722  0.0335 -0.8924
36913SOL    HW214238  10.418   2.642   0.918 -2.0913 -0.2867 -0.4681
36914SOL     OW14239   7.751   0.241   8.978  0.4329  0.3559  0.2401
36914SOL    HW114240   7.843   0.231   8.951  0.4727  0.6761  0.2435
36914SOL    HW214241   7.726   0.155   9.012  1.0471  0.5359  1.1801
36915SOL     OW14242   9.488   6.057   3.592  0.3292  0.3159  0.0521
36915SOL    HW114243   9.482   6.101   3.507 -0.6553 -0.8798 -0.5256
36915SOL    HW214244   9.416   6.094   3.644 -0.2556 -0.3266 -0.2978
36916SOL     OW14245   1.889   5.990   8.410 -0.4583 -0.3544  0.3329
36916SOL    HW114246   1.804   5.946   8.422 -0.4022 -0.1759  1.5284
36916SOL    HW214247   1.942   5.959   8.483 -0.4417  1.7544  1.2880
36917SOL     OW14248  10.368   2.034   7.912 -0.1463  0.0946  0.4860
36917SOL    HW114249  10.358   2.085   7.832  1.0130 -1.6696 -0.8580
36917SOL    HW214250  10.410   2.094   7.974 -0.6347  1.3449 -0.3559
36918SOL     OW14251   0.223   7.939   4.852  0.7837  0.4286 -1.0213
36918SOL    HW114252   0.277   7.871   4.892  0.6480  0.6769 -0.3950
36918SOL    HW214253   0.149   7.891   4.815  0.3550  0.2799 -0.0162
36919SOL     OW14254   6.135   7.520   2.248 -0.3359  0.2136 -0.2339
36919SOL    HW114255   6.134   7.428   2.274 -1.6186  0.2260 -0.1624
36919SOL    HW214256   6.227   7.545   2.252 -0.1600 -0.5746  1.5138
36920SOL     OW14257   5.079   1.989   6.519  0.2991 -0.5571  0.0369
36920SOL    HW114258   5.092   2.057   6.452  2.0046 -0.8095  0.0613
36920SOL    HW214259   5.099   1.907   6.474  1.3298 -0.7427  0.7934
36921SOL     OW14260   5.208   6.432   3.653 -0.4320 -1.0161  0.4740
36921SOL    HW114261   5.183   6.522   3.674  0.4279 -0.3651 -1.1036
36921SOL    HW214262   5.288   6.417   3.703 -0.3434 -0.7414  0.4195
36922SOL     OW14263   1.172   9.422   1.026  0.0345  0.3939 -0.1132
36922SOL    HW114264   1.204   9.475   1.099  1.0148 -1.1961  0.6942
36922SOL    HW214265   1.209   9.335   1.043  0.9136  0.1342 -2.9123
36923SOL     OW14266   6.522   7.048   2.560 -0.4898  0.2696  1.2035
36923SOL    HW114267   6.482   7.081   2.640 -0.7324 -1.6156  1.8978
36923SOL    HW214268   6.450   7.009   2.511 -0.2255  0.7992  0.3629
36924SOL     OW14269   8.018   7.350   0.005 -0.4569  0.6734  0.0750
36924SOL    HW114270   8.088   7.388   0.058 -0.6282  1.7509 -0.4382
36924SOL    HW214271   8.060   7.329  -0.079 -0.2771 -0.6452  0.4874
36925SOL     OW14272   8.270   0.969   9.355 -0.4234  0.2893  0.7270
36925SOL    HW114273   8.265   1.033   9.284  1.9730 -1.3842 -1.1331
36925SOL    HW214274   8.331   1.008   9.418  0.6829  0.1145 -0.1884
36926SOL     OW14275   8.463   8.343  10.524 -0.3391 -0.1154  0.2120
36926SOL    HW114276   8.471   8.412  10.458 -0.5246 -0.0815  0.2255
36926SOL    HW214277   8.471   8.261  10.475  0.2888 -0.0801  0.2470
36927SOL     OW14278  10.418   3.350   8.125  0.7153 -0.0293  0.7698
36927SOL    HW114279  10.343   3.343   8.184  1.6388  1.0435  2.1218
36927SOL    HW214280  10.480   3.284   8.156  0.1603 -1.2934 -0.6833
36928SOL     OW14281   4.664   3.859   4.906 -0.6234  0.9820  0.6422
36928SOL    HW114282   4.595   3.823   4.961 -0.2374 -1.7099 -0.4382
36928SOL    HW214283   4.662   3.953   4.922 -0.3360  0.3994  5.3970
36929SOL     OW14284   8.886   5.285   4.836 -0.3050 -0.2454 -0.5657
36929SOL    HW114285   8.826   5.270   4.762  0.7576 -2.2418 -1.1098
36929SOL    HW214286   8.954   5.342   4.800 -0.9643  0.6324 -0.4451
36930SOL     OW14287   2.152   6.164   8.588 -0.4256 -0.1045  0.0186
36930SOL    HW114288   2.068   6.208   8.580 -0.4087  0.2022  1.2401
36930SOL    HW214289   2.170   6.165   8.682  0.9999 -0.0343 -0.2306
36931SOL     OW14290   7.065   9.188   0.146 -0.0351 -0.6578  0.2956
36931SOL    HW114291   7.126   9.151   0.081 -0.2687  0.1453 -0.3917
36931SOL    HW214292   7.104   9.165   0.231  0.2817 -1.7110 -0.1147
36932SOL     OW14293   2.107   4.604  10.807  0.4651 -0.1083 -0.3793
36932SOL    HW114294   2.085   4.675  10.748 -0.4508 -0.0614  0.0089
36932SOL    HW214295   2.062   4.625  10.889  0.5573 -0.8900 -0.1134
36933SOL     OW14296   1.758   0.991   1.319  0.0123 -0.5297  0.7571
36933SOL    HW114297   1.722   1.074   1.289  2.6105  0.5209  0.3374
36933SOL    HW214298   1.703   0.925   1.278 -0.0890  0.9495 -1.6521
36934SOL     OW14299   7.452   4.881   5.251 -0.1430  0.5253  0.5458
36934SOL    HW114300   7.389   4.951   5.268 -2.6709 -1.4940  0.0862
36934SOL    HW214301   7.456   4.874   5.156  1.3338  1.0259  0.5401
36935SOL     OW14302   9.742   8.607   9.159 -0.0605 -0.2027 -0.3779
36935SOL    HW114303   9.762   8.627   9.068 -0.5527 -0.7311 -0.6100
36935SOL    HW214304   9.670   8.544   9.154  0.3355 -0.7216  0.3568
36936SOL     OW14305  10.811   6.880   0.257  0.0699 -0.6050 -0.5289
36936SOL    HW114306  10.847   6.792   0.253 -0.3547 -0.7321 -2.4890
36936SOL    HW214307  10.734   6.877   0.200 -0.3878  0.8514 -0.0386
36937SOL     OW14308   1.319   9.776   2.858 -0.0679  0.5241  0.1624
36937SOL    HW114309   1.414   9.778   2.847 -0.1760  0.0639 -0.9863
36937SOL    HW214310   1.288   9.716   2.790 -1.1172  0.0556  1.0314
36938SOL     OW14311   3.852   2.269   2.041 -0.0774 -0.2526 -0.2140
36938SOL    HW114312   3.929   2.225   2.075  0.0967  0.0036 -0.2737
36938SOL    HW214313   3.829   2.334   2.108  0.8870  0.9801 -1.0175
36939SOL     OW14314   9.204   1.475   8.871  0.2694 -0.9108  0.0442
36939SOL    HW114315   9.132   1.415   8.891  0.9213 -0.8678  3.0227
36939SOL    HW214316   9.173   1.560   8.903  1.1583 -0.6640  0.2772
36940SOL     OW14317   6.317   6.911   4.108 -0.0954 -0.2770 -1.2783
36940SOL    HW114318   6.411   6.915   4.088  0.2065 -0.2832  0.0170
36940SOL    HW214319   6.275   6.953   4.034  1.0735  1.3628 -1.0878
36941SOL     OW14320   5.395   5.345  10.601  0.5488  0.2909  0.2966
36941SOL    HW114321   5.379   5.405  10.674  0.7938 -0.7900  1.2670
36941SOL    HW214322   5.408   5.259  10.643  1.0753 -0.2810 -0.9952
36942SOL     OW14323   5.875   7.481   3.522  0.4005  0.1279  0.5437
36942SOL    HW114324   5.961   7.444   3.499  1.2274  2.2448  0.0474
36942SOL    HW214325   5.848   7.528   3.443 -0.9037  0.0991  0.9531
36943SOL     OW14326   5.134   2.824   2.517  0.0091  0.0922  0.2869
36943SOL    HW114327   5.075   2.815   2.443  0.2205 -0.6270  0.1971
36943SOL    HW214328   5.098   2.897   2.568  0.8941  1.8398 -1.4725
36944SOL     OW14329   1.737   7.953  10.273  0.2913  0.1788 -0.0730
36944SOL    HW114330   1.829   7.955  10.301  0.3056 -2.5112  0.3533
36944SOL    HW214331   1.737   7.895  10.196 -0.7605  1.9882 -1.5007
36945SOL     OW14332   4.255   9.415   6.464 -0.0147 -0.3960  0.0478
36945SOL    HW114333   4.243   9.450   6.553 -0.3694 -0.2635 -0.0517
36945SOL    HW214334   4.225   9.486   6.406  0.3722 -0.4186 -0.1816
36946SOL     OW14335   7.966   1.517   7.038  0.0524 -0.3478 -0.0469
36946SOL    HW114336   7.995   1.563   6.960  0.6927  0.0945  0.4423
36946SOL    HW214337   7.930   1.585   7.095 -0.0383 -0.6060  0.2076
36947SOL     OW14338   3.214  10.610   2.673 -0.4287 -0.0759 -0.7641
36947SOL    HW114339   3.202  10.688   2.727 -0.0008  0.0547 -0.8544
36947SOL    HW214340   3.230  10.539   2.735 -0.4710 -0.0277 -0.6988
36948SOL     OW14341   3.085   5.883   6.661 -0.1697 -0.3113  0.7204
36948SOL    HW114342   3.039   5.944   6.719  0.1784  0.7935 -0.1297
36948SOL    HW214343   3.161   5.855   6.712 -0.8771 -0.8597  1.5095
36949SOL     OW14344   7.332  10.624   7.558  0.2586  0.2292  0.7163
36949SOL    HW114345   7.322  10.546   7.503 -2.7897  1.9441 -1.4570
36949SOL    HW214346   7.288  10.602   7.639 -0.6266 -0.3157  0.0997
36950SOL     OW14347   4.311   2.821   2.012  0.2375 -0.8323 -0.6624
36950SOL    HW114348   4.385   2.804   1.953  0.7454  0.7803 -0.5545
36950SOL    HW214349   4.352   2.832   2.098  0.1827  1.8823 -0.8855
36951SOL     OW14350  10.975   2.205   5.686  0.1907 -0.3404  0.1815
36951SOL    HW114351  10.892   2.234   5.725 -0.8767 -2.2772 -0.4996
36951SOL    HW214352  10.954   2.121   5.645  2.2115 -0.2678 -1.1421
36952SOL     OW14353  10.556   8.906   2.636 -0.0697 -0.4784 -0.0452
36952SOL    HW114354  10.488   8.840   2.622 -0.1387 -0.4293  0.0618
36952SOL    HW214355  10.637   8.862   2.609 -0.1952 -0.3970 -0.5698
36953SOL     OW14356  10.123   8.016   2.034 -0.6061 -0.3034 -0.0613
36953SOL    HW114357  10.099   7.983   2.121 -2.6822 -2.5560 -1.3855
36953SOL    HW214358  10.213   7.985   2.022  0.8301  2.4514  2.2802
36954SOL     OW14359   0.008   1.897   8.140 -0.0976  0.1140 -0.0405
36954SOL    HW114360   0.092   1.929   8.106  0.4518 -1.8396 -0.6777
36954SOL    HW214361  -0.048   1.892   8.062 -0.3413  0.0368  0.1408
36955SOL     OW14362   8.646   2.244   3.971 -0.6692 -0.1800  0.4820
36955SOL    HW114363   8.599   2.257   4.054 -1.0733  0.9216  0.1048
36955SOL    HW214364   8.592   2.289   3.906 -0.0493 -0.5190 -0.2780
36956SOL     OW14365   8.638   7.605   6.331 -0.4875 -0.0544 -0.2707
36956SOL    HW114366   8.600   7.628   6.246  1.5797 -0.6190 -1.4105
36956SOL    HW214367   8.715   7.661   6.339  0.7981 -1.7670 -0.0055
36957SOL     OW14368   8.524   8.315   9.743 -0.4844 -0.1551  0.1177
36957SOL    HW114369   8.526   8.338   9.650  1.3697  0.1958  0.2128
36957SOL    HW214370   8.570   8.232   9.749  0.0548  0.1776  0.7976
36958SOL     OW14371   7.423   6.009   9.659 -0.2471  0.4488  0.3962
36958SOL    HW114372   7.403   6.099   9.633  0.4318  0.0219 -1.7816
36958SOL    HW214373   7.436   5.962   9.576  1.5069 -1.1748  1.5038
36959SOL     OW14374   8.703   2.868  10.213 -0.8711 -0.4701  0.4016
36959SOL    HW114375   8.682   2.931  10.282 -1.5220 -2.1164  1.7511
36959SOL    HW214376   8.797   2.878  10.199 -1.0606  1.2080  0.1387
36960SOL     OW14377  10.936   1.882   0.824 -0.3553 -0.2436  0.1359
36960SOL    HW114378  10.871   1.815   0.803  0.4860 -0.9741 -0.1485
36960SOL    HW214379  11.019   1.836   0.828  0.6573  1.1661 -2.6351
36961SOL     OW14380  10.893   8.692   0.102  0.4962  0.3338  0.2663
36961SOL    HW114381  10.906   8.600   0.078 -1.3451  0.2528 -0.6011
36961SOL    HW214382  10.949   8.740   0.042  0.2045 -0.1632 -0.4240
36962SOL     OW14383   0.876   4.123   2.663 -0.0088 -0.3577  0.2795
36962SOL    HW114384   0.790   4.088   2.640 -0.5401  0.2225  1.2667
36962SOL    HW214385   0.918   4.053   2.714  0.3801 -0.8888 -0.7460
36963SOL     OW14386   0.144   9.491   6.880 -0.2176  0.1270 -0.1354
36963SOL    HW114387   0.225   9.442   6.865  1.5209  1.6842  3.0491
36963SOL    HW214388   0.115   9.465   6.967 -3.1833 -0.2954 -1.1543
36964SOL     OW14389   6.066  10.027   8.186  0.0548  0.0813  0.0538
36964SOL    HW114390   6.026   9.964   8.126 -1.0432  0.3654  0.4735
36964SOL    HW214391   6.005  10.100   8.189  0.3752  0.3189  1.0705
36965SOL     OW14392   7.844   0.705   5.065 -0.3058  0.2386 -0.4013
36965SOL    HW114393   7.768   0.762   5.065  0.6958  1.7145  1.6528
36965SOL    HW214394   7.810   0.618   5.043 -2.5900  0.8373  0.4992
36966SOL     OW14395   2.867   5.755   7.265 -0.4915 -0.2801 -0.1504
36966SOL    HW114396   2.878   5.821   7.197 -0.8127  0.3061  0.3467
36966SOL    HW214397   2.776   5.726   7.255  0.3506 -2.5710 -2.0262
36967SOL     OW14398   8.083   5.868   0.788  0.2967  0.4272 -0.1334
36967SOL    HW114399   8.003   5.895   0.742  0.6765  1.2771 -0.2909
36967SOL    HW214400   8.105   5.784   0.748 -0.5958  0.1075  0.0091
36968SOL     OW14401   9.963   1.138   7.177  0.5219 -0.0824 -0.3138
36968SOL    HW114402   9.878   1.136   7.133  0.1426  0.9299  0.3321
36968SOL    HW214403  10.025   1.156   7.107 -0.2425  3.1156 -0.3417
36969SOL     OW14404   6.218   5.060   1.349 -0.4148  0.8159 -0.1454
36969SOL    HW114405   6.306   5.066   1.312 -0.2917 -3.0369 -0.8681
36969SOL    HW214406   6.160   5.077   1.275 -0.4062  3.4730  0.3551
36970SOL     OW14407   0.920   6.294   0.847  0.1802  0.2342  0.0149
36970SOL    HW114408   0.990   6.232   0.870  1.2050  0.3023 -2.6356
36970SOL    HW214409   0.960   6.380   0.863 -0.6902  0.3138  2.1345
36971SOL     OW14410  10.218   2.873   0.022  0.0395 -0.1582  0.3856
36971SOL    HW114411  10.295   2.816   0.019  0.5557  0.5107  0.7114
36971SOL    HW214412  10.144   2.814   0.003  0.6269 -0.7947  0.0220
36972SOL     OW14413   6.412   4.273   8.730  0.2634  0.1632 -0.1023
36972SOL    HW114414   6.458   4.205   8.680  0.6830  1.4154 -1.4776
36972SOL    HW214415   6.482   4.327   8.767 -0.0643 -0.3037  1.2444
36973SOL     OW14416   0.527   4.904   3.879 -0.4776  0.2307  0.0700
36973SOL    HW114417   0.594   4.963   3.915 -1.2209  0.7118  0.6973
36973SOL    HW214418   0.559   4.816   3.898  0.9871  0.3758 -1.4775
36974SOL     OW14419   8.658   0.693   5.456 -0.0620  0.6910  0.2369
36974SOL    HW114420   8.714   0.752   5.405 -1.5388  2.5635  0.6793
36974SOL    HW214421   8.591   0.664   5.393  2.0106 -2.6736 -0.6898
36975SOL     OW14422   4.828   2.180   6.845 -0.0974  0.1404  0.7532
36975SOL    HW114423   4.773   2.229   6.785  0.4905 -0.3071 -0.1686
36975SOL    HW214424   4.916   2.215   6.830  0.1871 -0.5856  0.7163
36976SOL     OW14425   8.601   6.232   4.837  0.2786  0.3209 -0.4079
36976SOL    HW114426   8.626   6.296   4.771  0.9159 -0.2162 -0.6916
36976SOL    HW214427   8.604   6.147   4.792 -2.0837  0.2039 -0.4707
36977SOL     OW14428   7.611   5.785   5.018  0.3458 -0.0642  0.2425
36977SOL    HW114429   7.544   5.801   4.952 -0.9054  0.3679  1.5833
36977SOL    HW214430   7.632   5.692   5.008 -1.4467 -0.5427  0.6880
36978SOL     OW14431   3.334   4.770   0.446  0.0876  0.2865 -0.0432
36978SOL    HW114432   3.378   4.854   0.433  0.4616  0.2174  0.7563
36978SOL    HW214433   3.386   4.708   0.394  1.6959 -0.0197  1.7947
36979SOL     OW14434   5.870   1.381   5.585 -0.0726  0.1032 -0.1846
36979SOL    HW114435   5.941   1.335   5.629 -0.2046 -0.8460 -0.9278
36979SOL    HW214436   5.881   1.359   5.492  0.4792  2.4046 -0.7292
36980SOL     OW14437   6.894   2.831   2.591  0.2516 -0.5328 -0.0893
36980SOL    HW114438   6.985   2.858   2.579  0.3192 -0.8662 -0.3238
36980SOL    HW214439   6.889   2.803   2.682  0.7089 -1.7578 -0.4245
36981SOL     OW14440   0.680  10.376   7.143 -0.3264  0.1972 -0.2413
36981SOL    HW114441   0.688  10.284   7.167  2.1178  0.1956 -0.7594
36981SOL    HW214442   0.711  10.424   7.220  0.8118  0.4622 -0.8485
36982SOL     OW14443   7.600   1.874   4.131  0.0711 -0.2913  0.3833
36982SOL    HW114444   7.541   1.808   4.168  0.8916 -2.3405 -1.7004
36982SOL    HW214445   7.561   1.896   4.046  0.8114  0.5190  0.2357
36983SOL     OW14446   1.937   1.579   5.232 -0.3312  0.1252 -0.2092
36983SOL    HW114447   1.880   1.584   5.156 -0.0618 -1.8889 -0.5965
36983SOL    HW214448   2.020   1.618   5.202 -0.1508 -0.8585 -1.0483
36984SOL     OW14449   5.085   9.764   3.800 -0.1825  0.2562 -0.1743
36984SOL    HW114450   5.066   9.831   3.866  0.1833  0.0800  0.1135
36984SOL    HW214451   5.005   9.757   3.749 -0.0127  1.3955 -0.6324
36985SOL     OW14452   2.761   7.072   2.316  0.1285 -0.0598 -0.1618
36985SOL    HW114453   2.757   7.050   2.223 -1.0504  0.1030 -0.1582
36985SOL    HW214454   2.703   7.009   2.358  0.4178  0.0632  0.4288
36986SOL     OW14455   5.172   3.615   5.044 -0.0930  0.3080 -0.0832
36986SOL    HW114456   5.186   3.591   5.136 -0.7543 -1.5848 -0.4208
36986SOL    HW214457   5.250   3.664   5.019  0.2663  0.5233  1.3748
36987SOL     OW14458   2.632   8.101   0.305 -0.0970  0.8557 -0.1179
36987SOL    HW114459   2.663   8.164   0.370 -1.5660 -0.6817  2.1966
36987SOL    HW214460   2.626   8.018   0.352 -0.1137 -0.6340 -2.5486
36988SOL     OW14461   1.828   7.541   0.726  0.6719  0.7118 -0.4816
36988SOL    HW114462   1.801   7.469   0.783 -0.1685 -0.0234 -1.7524
36988SOL    HW214463   1.760   7.607   0.738 -0.3516 -0.0658 -1.7176
36989SOL     OW14464   7.598   9.356  10.686  0.3697 -0.0354  0.0913
36989SOL    HW114465   7.523   9.305  10.657  0.2585 -0.0147  0.3434
36989SOL    HW214466   7.662   9.291  10.714 -0.4849 -0.0369  2.2390
36990SOL     OW14467   5.190   9.928   5.869  0.5238  0.1874 -0.0296
36990SOL    HW114468   5.216   9.865   5.936 -1.9120 -0.2896  0.5614
36990SOL    HW214469   5.207   9.882   5.786 -2.9887 -2.2917  0.3653
36991SOL     OW14470  10.038   7.255   2.625  0.1761 -0.0099 -0.0213
36991SOL    HW114471  10.066   7.276   2.535 -1.2572  1.6599 -0.1302
36991SOL    HW214472   9.949   7.223   2.615  0.5040 -1.1732  0.6946
36992SOL     OW14473   1.461   8.603   0.193 -0.1323 -0.2216  0.1748
36992SOL    HW114474   1.492   8.639   0.110 -1.9269 -0.4211 -0.6360
36992SOL    HW214475   1.393   8.664   0.221 -2.4023 -2.2010 -0.6230
36993SOL     OW14476   1.123   4.992   5.720  0.0759  0.0516 -0.5331
36993SOL    HW114477   1.204   5.019   5.678  0.0355  1.8799  0.4680
36993SOL    HW214478   1.139   5.003   5.814 -0.7264 -1.3244 -0.2111
36994SOL     OW14479   5.469   4.857   9.080 -0.1662  0.0234 -0.8596
36994SOL    HW114480   5.531   4.926   9.103  0.1891 -0.3623 -0.6495
36994SOL    HW214481   5.397   4.903   9.037  0.1385  0.5056 -0.8601
36995SOL     OW14482   8.594   4.736   8.275 -0.1405  0.0040  0.1633
36995SOL    HW114483   8.672   4.738   8.331  0.0830 -0.2640 -0.1381
36995SOL    HW214484   8.541   4.810   8.305  0.0715 -0.0143  0.5949
36996SOL     OW14485   6.140   3.061   5.946 -0.6119  0.5222  0.6348
36996SOL    HW114486   6.130   3.083   5.853 -1.4569  2.1683  1.0766
36996SOL    HW214487   6.154   2.966   5.947 -0.0413  0.5397 -1.1983
36997SOL     OW14488   4.351   1.848   1.439 -0.2444  0.4274 -0.2630
36997SOL    HW114489   4.307   1.923   1.399 -0.3058  0.0788 -0.8640
36997SOL    HW214490   4.332   1.856   1.532 -1.4536  0.3715 -0.4943
36998SOL     OW14491   9.103   4.775   5.052 -0.6551 -0.3006  0.5058
36998SOL    HW114492   9.120   4.750   5.142  0.1157  0.7227  0.6622
36998SOL    HW214493   9.186   4.760   5.006 -0.5994  0.5581  0.3027
36999SOL     OW14494   2.186   8.832   0.342 -0.1181  0.0810  0.3117
36999SOL    HW114495   2.223   8.851   0.256  0.0455  0.8050  0.5328
36999SOL    HW214496   2.225   8.748   0.367 -1.2094 -0.8271 -0.8863
37000SOL     OW14497   5.732   1.537   6.976 -0.3575  0.2533  0.4344
37000SOL    HW114498   5.722   1.532   6.881 -0.5704  2.6216  0.2491
37000SOL    HW214499   5.810   1.485   6.995  0.7291  1.1329 -1.3008
37001SOL     OW14500   9.575   5.185   2.616  0.1073 -0.5330 -0.1903
37001SOL    HW114501   9.489   5.224   2.632 -0.0863 -1.7641  2.2798
37001SOL    HW214502   9.629   5.257   2.583 -1.5696  0.5159 -0.7309
37002SOL     OW14503   6.544   4.496   1.979  0.2498 -0.1960  0.3504
37002SOL    HW114504   6.529   4.460   2.067  0.8834 -1.5927 -0.0828
37002SOL    HW214505   6.633   4.467   1.957  0.7896  1.6380 -0.0590
37003SOL     OW14506   1.584   3.572   6.650  0.1123 -0.3525 -0.0692
37003SOL    HW114507   1.523   3.644   6.664 -0.7981 -1.2954  1.0104
37003SOL    HW214508   1.620   3.588   6.563 -1.8302  0.1255 -0.8437
37004SOL     OW14509   5.740   5.204   0.916  0.2231  0.1325 -0.2305
37004SOL    HW114510   5.678   5.149   0.964  0.2600 -0.3008 -0.6710
37004SOL    HW214511   5.756   5.279   0.974 -1.1005  0.5133 -0.3138
37005SOL     OW14512   9.268   7.457   5.752  0.0890  0.3702  0.4335
37005SOL    HW114513   9.281   7.365   5.732 -1.0465 -0.2778  2.4262
37005SOL    HW214514   9.218   7.491   5.677 -0.6710 -0.9633  0.3149
37006SOL     OW14515   3.154   4.054   0.101  0.0410  0.3038  0.1662
37006SOL    HW114516   3.151   4.050   0.006 -0.0229  1.1501  0.1285
37006SOL    HW214517   3.160   4.147   0.122 -0.2212  0.1483  0.9983
37007SOL     OW14518   9.399   1.293   7.091  0.3278 -0.0855  0.4913
37007SOL    HW114519   9.420   1.262   7.003 -0.5671  0.4388  0.0757
37007SOL    HW214520   9.304   1.282   7.098  0.3057  0.4664  1.1580
37008SOL     OW14521   1.313   9.677   3.299 -0.0442  0.2379  0.0368
37008SOL    HW114522   1.392   9.722   3.272 -0.5006  1.0225 -0.0192
37008SOL    HW214523   1.330   9.585   3.280  0.7295  0.4384 -0.2595
37009SOL     OW14524   4.046  10.189   4.195  0.1829 -0.1058 -0.0238
37009SOL    HW114525   4.023  10.281   4.212  1.1791  0.0438  0.5605
37009SOL    HW214526   4.053  10.184   4.099  0.4641  0.5091 -0.0385
37010SOL     OW14527   8.564   0.256   0.416  0.0754 -0.2481  0.2422
37010SOL    HW114528   8.546   0.167   0.446 -1.2813 -0.5168 -1.2007
37010SOL    HW214529   8.654   0.252   0.384 -0.2538 -1.3827 -0.6491
37011SOL     OW14530   7.565   8.960  10.215 -0.0464 -0.0445 -0.1329
37011SOL    HW114531   7.515   8.975  10.135 -2.4346 -0.5650  1.1428
37011SOL    HW214532   7.634   8.899  10.190 -0.8442 -0.3266 -1.7600
37012SOL     OW14533   7.793   3.366   0.658 -0.2174  0.7529 -0.0998
37012SOL    HW114534   7.786   3.461   0.650 -0.5628  0.9122  1.7858
37012SOL    HW214535   7.799   3.350   0.752  1.5240 -0.9895 -0.4354
37013SOL     OW14536   4.157   4.236   3.190 -0.0171  0.0188  0.3632
37013SOL    HW114537   4.106   4.236   3.110  0.3573  1.6844  0.0984
37013SOL    HW214538   4.192   4.147   3.196 -0.6286 -0.3290 -0.9189
37014SOL     OW14539   4.600   6.770   7.172 -0.1752 -0.2773  0.0492
37014SOL    HW114540   4.545   6.729   7.105  0.2462  0.7494 -0.9668
37014SOL    HW214541   4.648   6.697   7.211 -0.6229 -0.9379 -0.5996
37015SOL     OW14542   3.496   2.758   4.522 -0.3453  0.0803 -0.0111
37015SOL    HW114543   3.494   2.721   4.434 -0.5741  1.6966 -0.7141
37015SOL    HW214544   3.474   2.851   4.510  0.2938  0.4831  1.6671
37016SOL     OW14545   1.437   8.226   5.422 -0.6715 -0.3382 -0.3592
37016SOL    HW114546   1.398   8.273   5.495  2.0641  0.7693  0.5090
37016SOL    HW214547   1.532   8.236   5.434 -0.0458  0.9029 -4.6847
37017SOL     OW14548   7.970   1.923   9.813  0.0448 -0.4407  0.0575
37017SOL    HW114549   7.957   1.840   9.766  0.1856  0.2688 -1.2912
37017SOL    HW214550   7.920   1.987   9.762 -1.8903 -0.0320  2.2822
37018SOL     OW14551   8.138   6.360   9.468  0.3167  0.3032  0.8005
37018SOL    HW114552   8.101   6.399   9.388  0.4343  1.8341  1.4718
37018SOL    HW214553   8.096   6.408   9.539 -1.6866 -2.6627  1.8210
37019SOL     OW14554   4.004   4.444   3.473  0.1438  0.7219 -0.8339
37019SOL    HW114555   3.924   4.412   3.430 -0.8096  2.5646 -0.5063
37019SOL    HW214556   4.016   4.384   3.546 -1.6517  1.0913 -0.1787
37020SOL     OW14557   7.367   2.708   2.462  0.3425 -0.2010 -0.1344
37020SOL    HW114558   7.295   2.647   2.481  1.5281 -1.7817 -0.4811
37020SOL    HW214559   7.335   2.761   2.389 -1.2718  0.6327  1.0968
37021SOL     OW14560  10.164   6.462   3.824  0.5401 -0.4818  0.7022
37021SOL    HW114561  10.124   6.539   3.784  0.5524 -0.2862  1.0680
37021SOL    HW214562  10.243   6.495   3.866  1.0895 -0.8647 -0.0073
37022SOL     OW14563   3.860   8.872   2.214  0.3380  0.4590  0.0115
37022SOL    HW114564   3.890   8.784   2.234  1.3128  0.5991 -0.8090
37022SOL    HW214565   3.772   8.860   2.178  0.5746 -0.2046 -0.3540
37023SOL     OW14566   4.795   8.129   5.283  0.0457  0.6397  0.2632
37023SOL    HW114567   4.820   8.163   5.369 -0.0782  2.5007 -0.3917
37023SOL    HW214568   4.700   8.122   5.287  0.1192 -0.2367  0.5999
37024SOL     OW14569  10.675   0.267   1.650  0.2581 -0.3041  0.1035
37024SOL    HW114570  10.736   0.226   1.711  0.4341 -1.6168 -0.9326
37024SOL    HW214571  10.601   0.292   1.705  0.1350 -2.0390  0.7922
37025SOL     OW14572   4.937   3.388   1.830 -0.2638  0.5505  0.0039
37025SOL    HW114573   4.897   3.475   1.839  1.0223  1.2137 -0.4309
37025SOL    HW214574   4.952   3.378   1.736 -0.1082 -0.0003  0.0875
37026SOL     OW14575   2.413   9.957   0.092 -0.0177  0.3779 -0.0454
37026SOL    HW114576   2.323   9.925   0.080  0.2555 -0.2233 -0.5780
37026SOL    HW214577   2.442   9.918   0.174 -0.1513  0.3632 -0.0047
37027SOL     OW14578   1.642   9.727   2.546  0.1857  0.2014  0.4462
37027SOL    HW114579   1.726   9.771   2.557  0.1358  0.7439 -1.0377
37027SOL    HW214580   1.647   9.650   2.603  1.6927  0.2271  0.3863
37028SOL     OW14581   1.452   8.956  10.536 -0.4685  0.1795  0.2311
37028SOL    HW114582   1.483   9.017  10.469 -0.7298  0.8102  0.6827
37028SOL    HW214583   1.466   8.869  10.497 -0.0592  0.5203 -0.3952
37029SOL     OW14584   9.745  10.527   1.106 -0.0610  0.2096  0.3059
37029SOL    HW114585   9.776  10.570   1.186  2.9049 -0.9914 -0.0712
37029SOL    HW214586   9.766  10.588   1.036 -0.9853  0.4774  0.2467
37030SOL     OW14587   9.637  10.485   3.918  0.0905 -0.3613  0.1359
37030SOL    HW114588   9.713  10.455   3.867  1.2868  0.7115  1.2101
37030SOL    HW214589   9.625  10.576   3.890 -1.6847 -0.8880 -0.9918
37031SOL     OW14590   7.441   3.161  10.747 -0.4509 -0.1416  0.3254
37031SOL    HW114591   7.439   3.202  10.834  0.8350 -4.0275  2.4103
37031SOL    HW214592   7.359   3.113  10.741  0.7417 -2.4355  0.9405
37032SOL     OW14593   8.438   5.036   7.088 -0.2360  0.0906  0.1635
37032SOL    HW114594   8.472   4.952   7.057 -0.1445 -0.1660  0.9485
37032SOL    HW214595   8.349   5.040   7.051 -0.5163 -0.6963  0.7102
37033SOL     OW14596   6.139  10.401   2.111  0.1770 -0.1911 -0.6481
37033SOL    HW114597   6.086  10.355   2.046 -1.0339  2.5669 -1.7288
37033SOL    HW214598   6.112  10.363   2.195 -0.2567 -1.8722 -1.4941
37034SOL     OW14599  10.052   5.823   4.804 -0.1942 -0.3288 -0.4091
37034SOL    HW114600   9.998   5.882   4.751  1.4536 -0.4829 -2.3914
37034SOL    HW214601   9.992   5.755   4.833 -1.4522  0.5300 -0.9231
37035SOL     OW14602   8.770   6.409   4.362 -0.2429 -0.3176 -0.1205
37035SOL    HW114603   8.702   6.471   4.339  0.7229  0.0029 -2.4792
37035SOL    HW214604   8.770   6.346   4.290 -0.0244 -2.0610  1.3323
37036SOL     OW14605   1.912   1.723   4.179  0.1712  0.3937  0.7242
37036SOL    HW114606   1.923   1.810   4.140  2.8746  0.0633  0.5085
37036SOL    HW214607   1.988   1.674   4.147 -0.7537 -1.7553  1.6562
37037SOL     OW14608   1.485   7.871   1.235 -0.1142  0.3096  0.3993
37037SOL    HW114609   1.524   7.953   1.266  0.2828 -0.1793  1.2398
37037SOL    HW214610   1.537   7.802   1.278 -0.3670 -0.3859 -0.3756
37038SOL     OW14611   9.405   3.706  10.173 -0.6395  0.8078 -0.6771
37038SOL    HW114612   9.451   3.773  10.223  1.4812 -0.0215 -1.4387
37038SOL    HW214613   9.338   3.673  10.234  1.0246  0.7046  1.2000
37039SOL     OW14614   1.350   2.056   7.859  0.1176 -0.0748  0.0228
37039SOL    HW114615   1.303   2.124   7.907  1.6301  1.7802 -0.9884
37039SOL    HW214616   1.352   1.981   7.919 -0.3008  1.2706  1.7938
37040SOL     OW14617   3.202   3.622   1.809  0.3700  0.2063  0.2414
37040SOL    HW114618   3.111   3.626   1.836  0.5234 -1.5052  1.1594
37040SOL    HW214619   3.248   3.584   1.884  1.5082 -0.7013 -0.8694
37041SOL     OW14620   8.620   7.234   6.075 -0.1676 -0.0228  0.2622
37041SOL    HW114621   8.669   7.154   6.092  2.0573  0.8482 -1.5302
37041SOL    HW214622   8.658   7.299   6.134  0.6774  0.5589 -0.8601
37042SOL     OW14623   0.769   6.542   6.073 -0.2847  0.0431 -0.8008
37042SOL    HW114624   0.754   6.536   6.167 -0.2175  0.0076 -0.7931
37042SOL    HW214625   0.774   6.636   6.056 -0.9682  0.0722 -0.8697
37043SOL     OW14626   9.245   8.920   0.966 -0.6048 -0.5316  0.0702
37043SOL    HW114627   9.277   8.995   0.916  1.2054 -1.4796 -0.2722
37043SOL    HW214628   9.174   8.884   0.913 -1.3172  0.7572  0.1133
37044SOL     OW14629   5.453   5.716   3.462 -0.7879  0.4853  0.2640
37044SOL    HW114630   5.464   5.811   3.451 -0.7170  0.7914  2.4173
37044SOL    HW214631   5.379   5.694   3.405 -2.0921  2.2360  1.1816
37045SOL     OW14632   5.226   6.631   4.090 -0.0896 -0.0775 -0.5370
37045SOL    HW114633   5.320   6.619   4.089 -0.1082 -1.4461  2.3860
37045SOL    HW214634   5.206   6.657   4.180 -2.6099 -1.0366 -0.7160
37046SOL     OW14635   4.492   0.584   4.656  0.4813  0.2403  0.2915
37046SOL    HW114636   4.582   0.611   4.671  0.2548  2.1694 -1.3734
37046SOL    HW214637   4.440   0.643   4.711  0.1856 -1.3306  1.8057
37047SOL     OW14638   6.437   6.559   8.105 -0.0616 -0.0194 -0.2784
37047SOL    HW114639   6.457   6.492   8.040 -0.7276  0.7183 -1.2755
37047SOL    HW214640   6.347   6.540   8.133 -0.7409  1.1679 -1.5221
37048SOL     OW14641   4.757   8.537   1.844 -0.3855  0.6460 -0.5574
37048SOL    HW114642   4.663   8.526   1.855 -0.5906  2.2862 -0.3537
37048SOL    HW214643   4.793   8.522   1.932 -0.1507 -2.1413 -1.0365
37049SOL     OW14644   5.680   2.785   5.283 -0.3566 -0.7135 -0.2668
37049SOL    HW114645   5.689   2.723   5.354  0.1911 -1.9472 -1.3618
37049SOL    HW214646   5.702   2.870   5.322  1.4991 -1.5654  0.6934
37050SOL     OW14647   3.646   9.961   5.595  0.3408  0.7157 -0.0310
37050SOL    HW114648   3.719   9.925   5.646  1.8728  1.7889 -1.3671
37050SOL    HW214649   3.652   9.915   5.511  0.1898  1.6290 -0.5459
37051SOL     OW14650  10.626   9.011   2.149 -0.3056  0.3135  0.2388
37051SOL    HW114651  10.542   8.989   2.109 -1.2270  0.7514  1.8386
37051SOL    HW214652  10.642   9.101   2.122  0.4687 -0.2586 -1.3491
37052SOL     OW14653   4.701   2.913   2.654  0.6247  0.1003 -0.0470
37052SOL    HW114654   4.659   2.992   2.688  0.8702 -0.3550  1.4080
37052SOL    HW214655   4.648   2.888   2.578 -0.0782  1.0707  0.1091
37053SOL     OW14656   3.679   8.331   2.633 -0.0649 -0.2652 -0.4378
37053SOL    HW114657   3.701   8.369   2.548  0.9475  0.3422  0.0710
37053SOL    HW214658   3.693   8.237   2.621 -1.4498 -0.3800 -1.3744
37054SOL     OW14659   3.669   1.995   8.326 -0.9604  0.4914  0.5632
37054SOL    HW114660   3.723   1.916   8.324 -1.4765  0.1379  0.2280
37054SOL    HW214661   3.608   1.984   8.253 -0.0612  1.9028 -0.4542
37055SOL     OW14662   9.017   7.696   4.097  0.0986 -0.0567 -0.2325
37055SOL    HW114663   9.056   7.784   4.096 -0.3156  0.1243 -1.2965
37055SOL    HW214664   9.068   7.649   4.163  1.8060  0.3189 -1.2089
37056SOL     OW14665   9.469   4.571   6.629  0.0546  0.1561 -0.2207
37056SOL    HW114666   9.550   4.585   6.581 -0.2137 -2.7019 -1.7179
37056SOL    HW214667   9.491   4.504   6.694 -0.6102  1.0059  0.9308
37057SOL     OW14668   0.896   8.822   5.423 -0.1508  0.6824  0.2339
37057SOL    HW114669   0.841   8.751   5.454 -1.9979  2.8600  2.3853
37057SOL    HW214670   0.956   8.839   5.496  2.4883 -0.6429 -1.4779
37058SOL     OW14671   4.937   5.472   9.495 -0.1246 -0.1430  0.3736
37058SOL    HW114672   4.949   5.565   9.476 -1.6021  0.1273  0.6444
37058SOL    HW214673   4.975   5.461   9.583  0.3612  0.1201  0.1996
37059SOL     OW14674   2.464   9.008  10.025 -0.1006  0.0152 -0.0353
37059SOL    HW114675   2.425   9.093  10.046 -1.7477 -0.8616  0.5312
37059SOL    HW214676   2.536   8.998  10.087 -1.7563 -0.2975  1.9096
37060SOL     OW14677   6.314   3.197   6.287 -0.0633 -0.1750  0.3767
37060SOL    HW114678   6.228   3.232   6.264 -0.7755 -1.5553  0.8322
37060SOL    HW214679   6.297   3.108   6.318  1.6760 -0.9639 -0.7589
37061SOL     OW14680   0.124   4.587  10.581 -0.0722  0.3208  0.1381
37061SOL    HW114681   0.140   4.653  10.648  0.4941  0.6008 -0.2594
37061SOL    HW214682   0.071   4.633  10.515 -1.9852 -0.4008  1.1135
37062SOL     OW14683   0.207   4.384   1.143  0.3205 -0.6848 -0.0723
37062SOL    HW114684   0.294   4.354   1.116  0.5987  0.0615 -0.0373
37062SOL    HW214685   0.174   4.433   1.067 -0.7402 -2.2683 -0.6889
37063SOL     OW14686   5.613   6.733   7.671  0.3250 -0.5488  0.0701
37063SOL    HW114687   5.684   6.726   7.734  0.5225 -1.5185 -0.2380
37063SOL    HW214688   5.655   6.762   7.590 -0.0205  1.3280  0.5095
37064SOL     OW14689   7.248  10.945  10.675  0.1636  0.5439  0.0952
37064SOL    HW114690   7.286  10.951  10.588 -1.3899 -0.4946 -0.7153
37064SOL    HW214691   7.217  11.033  10.694 -1.2320  0.3924 -1.2892
37065SOL     OW14692   1.345   1.825   0.565 -0.7424  0.1396  0.1464
37065SOL    HW114693   1.405   1.891   0.530  0.3989 -0.5872  0.6854
37065SOL    HW214694   1.365   1.745   0.516 -0.3930 -0.4202  1.1777
37066SOL     OW14695   2.724  10.825   0.559 -0.6286  0.3515 -0.6543
37066SOL    HW114696   2.676  10.793   0.636  1.5148 -1.8385 -0.0991
37066SOL    HW214697   2.667  10.805   0.485 -1.4125 -0.3768  0.1266
37067SOL     OW14698   7.217  10.266   3.249  0.2935  0.5292  0.6509
37067SOL    HW114699   7.172  10.345   3.278  0.2154  0.0574  1.8943
37067SOL    HW214700   7.180  10.246   3.163 -2.5171 -0.3195  1.9503
37068SOL     OW14701   2.783   3.298   7.213 -0.6237 -0.3828 -0.0939
37068SOL    HW114702   2.876   3.277   7.217 -1.0796 -2.7354 -0.1196
37068SOL    HW214703   2.777   3.372   7.153  1.3715  1.0527  1.3594
37069SOL     OW14704   9.175   2.727   2.632  0.5531  0.5751  0.3504
37069SOL    HW114705   9.088   2.756   2.659 -0.5539 -1.5669 -0.7009
37069SOL    HW214706   9.190   2.771   2.548  0.0651  0.2262  0.0759
37070SOL     OW14707   1.150   8.153   0.695 -0.4471  0.3888  0.4309
37070SOL    HW114708   1.235   8.131   0.733 -0.1638 -0.9169 -0.8616
37070SOL    HW214709   1.094   8.078   0.714 -1.3729  1.2833  1.3743
37071SOL     OW14710   1.147   0.029   1.112  0.2373  0.0951 -0.0443
37071SOL    HW114711   1.053   0.039   1.101  0.3719  0.5996 -0.8260
37071SOL    HW214712   1.165   0.055   1.202 -0.2590  0.7863 -0.1440
37072SOL     OW14713   1.666   3.308   6.695  0.1416 -0.1938  0.4613
37072SOL    HW114714   1.640   3.400   6.687  0.1704 -0.2185  0.0495
37072SOL    HW214715   1.745   3.310   6.748  0.2078  0.0301  0.3575
37073SOL     OW14716   0.308   3.241   6.213  0.1780  0.5739  0.0868
37073SOL    HW114717   0.235   3.256   6.273  0.2717  1.5662 -0.0261
37073SOL    HW214718   0.369   3.186   6.262 -0.7414 -0.4973  0.0925
37074SOL     OW14719   6.303   3.125   3.192  0.1805  0.1141 -0.4804
37074SOL    HW114720   6.372   3.107   3.257  0.6650  0.8323 -0.7760
37074SOL    HW214721   6.254   3.198   3.229 -0.5713 -0.5415 -0.1697
37075SOL     OW14722   5.958   7.419   1.451  0.1776 -0.2174 -0.8990
37075SOL    HW114723   5.988   7.498   1.406  0.1165  0.7356  0.6686
37075SOL    HW214724   5.920   7.365   1.382 -0.3186  1.3885 -1.9253
37076SOL     OW14725   6.597   0.783   9.304  0.1410 -0.3157 -0.2298
37076SOL    HW114726   6.601   0.728   9.226  0.6370  0.7272 -0.9767
37076SOL    HW214727   6.658   0.855   9.285 -1.9173  1.5499 -0.1339
37077SOL     OW14728   4.563   1.192   3.981  0.8245 -0.3249  0.3526
37077SOL    HW114729   4.564   1.096   3.978 -0.0299 -0.3517  0.6162
37077SOL    HW214730   4.603   1.219   3.898  0.0407 -0.9166 -0.2301
37078SOL     OW14731   1.199   7.565   1.994 -0.0862  0.2092  0.3018
37078SOL    HW114732   1.111   7.559   1.958 -0.1628 -1.4444  0.6953
37078SOL    HW214733   1.199   7.648   2.043 -1.1739  0.5867 -0.3097
37079SOL     OW14734   6.455   4.868  10.650  0.7075 -0.4858 -0.2036
37079SOL    HW114735   6.398   4.812  10.703 -0.3245 -0.3767 -1.1703
37079SOL    HW214736   6.523   4.810  10.618 -0.3442 -1.2147 -1.1857
37080SOL     OW14737   1.924  10.085   7.755 -0.3664  0.6234 -0.3061
37080SOL    HW114738   1.932   9.990   7.741 -1.7004  0.3935  0.3089
37080SOL    HW214739   1.996  10.123   7.704 -0.7530 -0.6115 -1.8545
37081SOL     OW14740  10.475   8.743   3.764 -0.1746 -0.1491  0.1214
37081SOL    HW114741  10.541   8.750   3.695  1.4351 -0.5613  1.5342
37081SOL    HW214742  10.482   8.825   3.812 -4.0565  1.9429 -2.3814
37082SOL     OW14743   1.979   6.430   7.549  0.6774  0.0299 -0.1931
37082SOL    HW114744   1.927   6.353   7.524  2.4223 -1.4166  0.4058
37082SOL    HW214745   2.045   6.437   7.480  1.1457  0.3488  0.2802
37083SOL     OW14746   6.661   6.320  10.289  0.0222  0.4266 -0.7289
37083SOL    HW114747   6.611   6.384  10.238  1.2394  2.6832  0.7493
37083SOL    HW214748   6.629   6.329  10.378 -0.3048 -1.6292 -0.6086
37084SOL     OW14749   4.667   7.111   9.879 -0.3501 -0.0103 -0.7741
37084SOL    HW114750   4.668   7.162   9.798 -0.3002 -0.0352 -0.7891
37084SOL    HW214751   4.683   7.175   9.949  1.8894 -0.2922 -0.9626
37085SOL     OW14752   8.013   8.537   1.489 -0.6601  0.2787 -0.3568
37085SOL    HW114753   7.973   8.550   1.575 -2.5745  0.1319 -1.1813
37085SOL    HW214754   8.088   8.597   1.489 -0.8936  0.6274  1.2199
37086SOL     OW14755   7.694   3.397   5.749  0.3795  0.8076  0.1701
37086SOL    HW114756   7.602   3.380   5.772  0.0830 -0.2810 -1.6284
37086SOL    HW214757   7.743   3.332   5.799 -0.1446 -0.7316 -1.2368
37087SOL     OW14758   6.141   3.150   5.134  0.1523  0.5715  0.2573
37087SOL    HW114759   6.220   3.151   5.189 -1.6097  0.3138  2.9725
37087SOL    HW214760   6.145   3.233   5.086  1.9441  0.6712  0.4869
37088SOL     OW14761   6.560   7.797   0.556 -0.0654  0.5047 -0.4342
37088SOL    HW114762   6.590   7.718   0.512  1.4551  1.7528 -1.7939
37088SOL    HW214763   6.640   7.849   0.570 -0.8594  1.3631  1.3904
37089SOL     OW14764   2.054   7.817   4.053  0.6785  0.2324 -0.2895
37089SOL    HW114765   2.041   7.828   3.958 -0.4322 -1.2021 -0.3333
37089SOL    HW214766   2.135   7.767   4.061  0.4354 -0.2015 -0.5164
37090SOL     OW14767   0.943   2.375  10.304 -0.7130 -0.1982 -0.3277
37090SOL    HW114768   0.887   2.350  10.231 -0.9612 -0.1261 -0.1639
37090SOL    HW214769   0.940   2.471  10.305  0.6103 -0.1266 -1.2447
37091SOL     OW14770   2.881   0.049   0.783  0.0878  0.1796  0.5042
37091SOL    HW114771   2.946   0.112   0.814  3.0380 -1.3713 -1.9572
37091SOL    HW214772   2.809   0.103   0.752  0.9266  2.1219  1.7269
37092SOL     OW14773   9.827  10.165   7.037  0.1887  0.0969 -0.1441
37092SOL    HW114774   9.773  10.086   7.030 -1.0545  0.8954  0.1772
37092SOL    HW214775   9.903  10.146   6.982 -1.7035 -0.0025 -2.9153
37093SOL     OW14776   7.878   2.895   5.272  0.4745 -0.6993 -0.4772
37093SOL    HW114777   7.848   2.840   5.200  2.7760 -0.7648 -1.4483
37093SOL    HW214778   7.829   2.977   5.261 -0.4835 -1.3265 -1.0451
37094SOL     OW14779   9.226   6.551   3.827 -0.3222  0.5567  0.5308
37094SOL    HW114780   9.265   6.467   3.851  0.3329  0.2726 -1.3864
37094SOL    HW214781   9.161   6.529   3.759 -0.3229  1.5699  0.1880
37095SOL     OW14782   8.779   0.119   1.608  0.0449  0.2137  0.4976
37095SOL    HW114783   8.841   0.189   1.629  0.5322 -0.4676  1.3882
37095SOL    HW214784   8.827   0.061   1.549  0.6724 -0.9009  2.0519
37096SOL     OW14785   7.940   9.655   0.447  1.1136  0.4145  0.2631
37096SOL    HW114786   7.865   9.710   0.472  0.5637 -0.4690  0.6265
37096SOL    HW214787   8.017   9.708   0.467  0.5911  1.0667  0.5669
37097SOL     OW14788   1.041   1.365   9.352  0.7009 -0.4237  0.5367
37097SOL    HW114789   1.017   1.273   9.360 -1.1219  0.0229  0.7331
37097SOL    HW214790   1.019   1.403   9.437 -1.4252  0.7496 -0.4619
37098SOL     OW14791   1.563   7.165  10.555  0.4277 -0.2491 -0.6167
37098SOL    HW114792   1.623   7.209  10.614  0.4829 -0.1991 -0.7098
37098SOL    HW214793   1.478   7.205  10.571 -0.0651 -1.8569  1.1524
37099SOL     OW14794   0.762   1.258   7.830  0.6610  0.2734  0.4705
37099SOL    HW114795   0.669   1.272   7.850  0.3874  0.8146 -1.0883
37099SOL    HW214796   0.764   1.181   7.774  0.8245  1.8547 -1.8144
37100SOL     OW14797  10.697   3.190   9.723 -0.4041 -0.3955 -0.4446
37100SOL    HW114798  10.733   3.278   9.715 -0.8025 -0.1421  0.4184
37100SOL    HW214799  10.759   3.143   9.777  0.5601 -1.1046 -2.0809
37101SOL     OW14800   4.485  10.835   1.086  0.2501 -0.1030 -0.3154
37101SOL    HW114801   4.399  10.794   1.089  0.1429 -0.0302 -1.5279
37101SOL    HW214802   4.546  10.762   1.092  0.2039 -0.0023  2.8015
37102SOL     OW14803   9.683   3.599   4.180 -0.1713  0.1985 -0.0836
37102SOL    HW114804   9.588   3.587   4.177 -0.0950 -0.3254 -0.6883
37102SOL    HW214805   9.708   3.577   4.270 -0.2845 -2.4751 -0.6224
37103SOL     OW14806   4.317   4.035   0.264 -0.0945  0.0662  0.4435
37103SOL    HW114807   4.271   4.107   0.222  0.7864 -0.6236 -1.8587
37103SOL    HW214808   4.263   4.014   0.341 -0.7873  2.5848  0.7358
37104SOL     OW14809   7.983   3.468   0.370 -0.0506  0.1490 -0.3522
37104SOL    HW114810   8.052   3.402   0.370 -0.6656 -0.5300  1.0290
37104SOL    HW214811   8.023   3.543   0.325  1.0901 -0.7094 -0.8353
37105SOL     OW14812   9.179   9.445   8.742 -0.4718 -0.4879  0.2384
37105SOL    HW114813   9.117   9.501   8.790  0.9487  1.6516 -0.3076
37105SOL    HW214814   9.229   9.401   8.811 -0.7823 -0.1335  0.7037
37106SOL     OW14815   8.894   4.907   3.840  0.4052  0.2696 -0.8221
37106SOL    HW114816   8.894   4.995   3.880  2.3476  0.5615 -1.3383
37106SOL    HW214817   8.803   4.891   3.817 -0.8129  0.3295  3.1320
37107SOL     OW14818  10.426   5.623   7.771  0.3918  0.1254 -0.8085
37107SOL    HW114819  10.371   5.567   7.825  0.4408  1.1814  0.3810
37107SOL    HW214820  10.393   5.611   7.682 -0.8167 -0.3479 -0.3135
37108SOL     OW14821   5.067   8.291   5.253 -0.9626  0.1232  0.5442
37108SOL    HW114822   4.980   8.257   5.234 -1.1948  0.1484  1.5137
37108SOL    HW214823   5.109   8.298   5.167 -1.5518 -0.8577  0.1563
37109SOL     OW14824   3.543   0.461   8.786  0.4902  0.1524  0.3248
37109SOL    HW114825   3.549   0.513   8.705 -2.9543  0.9222  0.3768
37109SOL    HW214826   3.550   0.526   8.856 -2.3308  0.5122  0.4117
37110SOL     OW14827   5.837   6.929   6.124  0.3912  0.5224 -0.0667
37110SOL    HW114828   5.895   6.966   6.190  0.1116  1.2479 -0.2187
37110SOL    HW214829   5.751   6.966   6.144 -0.1678 -1.0051  0.5251
37111SOL     OW14830   7.476   2.541   4.312 -0.1381 -0.0929 -0.3850
37111SOL    HW114831   7.516   2.534   4.225  0.9856  0.3010  0.0906
37111SOL    HW214832   7.455   2.451   4.336  2.8683 -0.6898  0.4431
37112SOL     OW14833   7.555   4.903   8.807 -0.0251 -0.0338 -0.1425
37112SOL    HW114834   7.470   4.912   8.850 -0.7511  1.3929 -1.7770
37112SOL    HW214835   7.604   4.844   8.865 -2.1833 -1.1076  0.7249
37113SOL     OW14836  10.690   1.273  10.622  0.1372  0.0118  0.1846
37113SOL    HW114837  10.601   1.278  10.656  0.5999 -1.8292  1.8285
37113SOL    HW214838  10.738   1.221  10.687  2.0650 -0.2617 -1.3618
37114SOL     OW14839   7.795   8.775   2.887 -0.1229  0.1992 -0.7551
37114SOL    HW114840   7.880   8.765   2.930 -0.1058  4.1874  0.5099
37114SOL    HW214841   7.814   8.771   2.794  0.9694 -1.4475 -0.5165
37115SOL     OW14842   5.625   7.428   4.842  0.0392  0.5282  0.0308
37115SOL    HW114843   5.601   7.341   4.874 -1.7445  1.0474  0.2149
37115SOL    HW214844   5.720   7.427   4.839  0.0639 -1.9691 -1.4786
37116SOL     OW14845   7.722  10.820   2.892  0.4145 -0.2427  0.1823
37116SOL    HW114846   7.667  10.861   2.825  0.4373 -1.8199 -0.8445
37116SOL    HW214847   7.670  10.825   2.972 -0.4154 -0.0051 -0.3611
37117SOL     OW14848  10.086   0.027   2.164 -0.2142  0.4379  0.4726
37117SOL    HW114849  10.145   0.015   2.239 -2.0482 -1.3219  1.7164
37117SOL    HW214850  10.004  -0.012   2.191 -1.6015  1.6375 -1.7170
37118SOL     OW14851   0.007   1.577   2.685 -1.2013 -0.2514  0.1775
37118SOL    HW114852   0.049   1.509   2.738 -0.5824  0.8589  1.1569
37118SOL    HW214853  -0.046   1.529   2.622  0.1213 -1.6761  0.0959
37119SOL     OW14854   0.370   4.185   4.505 -0.2220  0.0839  0.2641
37119SOL    HW114855   0.353   4.092   4.492  0.4440  0.0500 -0.3933
37119SOL    HW214856   0.436   4.188   4.575 -0.7458  0.0990  0.7677
37120SOL     OW14857  10.632   7.735   8.191  0.2207 -0.2183 -0.4889
37120SOL    HW114858  10.620   7.679   8.268  2.0026  0.7423  0.5590
37120SOL    HW214859  10.556   7.716   8.136 -1.5634 -0.3658  1.8428
37121SOL     OW14860   4.339   8.616  10.600  0.0524  0.1992 -0.1295
37121SOL    HW114861   4.289   8.541  10.568  1.1363 -1.2221  1.3244
37121SOL    HW214862   4.279   8.661  10.660 -0.3338 -0.0078 -0.3581
37122SOL     OW14863   6.885   1.179  10.726 -0.0096 -0.1578 -0.0362
37122SOL    HW114864   6.940   1.185  10.804 -0.6498  0.7968  0.3708
37122SOL    HW214865   6.864   1.086  10.718  0.1982 -0.2854  0.8397
37123SOL     OW14866   7.013  10.888   0.407  0.2564  0.0513  0.4795
37123SOL    HW114867   6.979  10.871   0.495  1.2988  1.3141  1.1609
37123SOL    HW214868   6.965  10.965   0.377  0.1306 -0.1865  0.0597
37124SOL     OW14869   8.152   6.656   6.410 -0.6387 -0.2509  0.4167
37124SOL    HW114870   8.131   6.666   6.503  3.2163 -0.6516  1.5170
37124SOL    HW214871   8.178   6.564   6.401  1.3239  0.3232 -0.4057
37125SOL     OW14872   5.478   9.175   3.528 -0.3056  0.5682  0.2174
37125SOL    HW114873   5.430   9.206   3.605 -0.8547 -0.0976  0.1631
37125SOL    HW214874   5.537   9.108   3.562 -0.4816  0.3396  0.0776
37126SOL     OW14875  10.282   0.359   2.259  0.4943 -0.0020  0.1188
37126SOL    HW114876  10.313   0.441   2.298 -1.5735  1.5797 -1.2989
37126SOL    HW214877  10.238   0.313   2.331 -1.1771  1.7350  0.2885
37127SOL     OW14878   0.653  10.479   2.128 -0.2210 -0.1604 -0.8758
37127SOL    HW114879   0.700  10.509   2.205 -1.8661 -0.2293  0.1972
37127SOL    HW214880   0.675  10.386   2.121 -1.3534 -0.5785  0.5485
37128SOL     OW14881   0.749   0.358   3.962 -0.0122  0.1899 -0.0482
37128SOL    HW114882   0.665   0.360   3.917  0.6233  2.4101 -1.3196
37128SOL    HW214883   0.807   0.410   3.907  1.6562  0.4423  1.8104
37129SOL     OW14884   5.162   3.511  10.800  0.4293  0.1533 -0.5355
37129SOL    HW114885   5.230   3.450  10.772  1.0021  1.2979 -1.7352
37129SOL    HW214886   5.170   3.514  10.895  1.6223 -0.2065 -0.6126
37130SOL     OW14887   3.321   4.549   1.192  0.2551 -0.2840 -0.2279
37130SOL    HW114888   3.395   4.593   1.150  0.2998 -0.5950 -0.4768
37130SOL    HW214889   3.243   4.585   1.149  0.2598  0.0826  0.0715
37131SOL     OW14890   5.277   2.698   8.861 -0.1734 -0.1453  0.0580
37131SOL    HW114891   5.186   2.729   8.868  0.3280  1.2481  0.7256
37131SOL    HW214892   5.280   2.653   8.776 -0.7407  2.4260 -1.4150
37132SOL     OW14893   7.915   4.667   1.519 -0.1677  0.0746  0.2882
37132SOL    HW114894   7.998   4.699   1.555  0.2768 -2.4326  1.7645
37132SOL    HW214895   7.938   4.634   1.433  0.5431 -1.0901  0.8956
37133SOL     OW14896   9.175   3.599   7.887 -0.1130  0.1010 -0.1554
37133SOL    HW114897   9.132   3.518   7.915  0.7526 -0.0131  0.8979
37133SOL    HW214898   9.186   3.649   7.967  2.1412 -0.0817 -0.2857
37134SOL     OW14899   2.888   3.811  10.236 -0.8227  0.1045  0.3734
37134SOL    HW114900   2.836   3.860  10.172 -0.4267  0.4544  0.3117
37134SOL    HW214901   2.829   3.800  10.311 -1.1838 -0.0295  0.0736
37135SOL     OW14902   4.061   2.645  10.099  0.1720  0.0990 -0.5293
37135SOL    HW114903   4.153   2.630  10.120  0.1308 -3.0870 -2.0774
37135SOL    HW214904   4.062   2.701  10.022  0.7747  0.3609 -0.3339
37136SOL     OW14905   6.603   2.408   3.768 -0.1802  0.0095 -0.4690
37136SOL    HW114906   6.573   2.426   3.679  0.9645 -1.0109 -1.0815
37136SOL    HW214907   6.526   2.427   3.823 -1.6387 -1.4915 -1.8632
37137SOL     OW14908   5.358   0.328   3.232  0.1326 -0.3676  0.3208
37137SOL    HW114909   5.297   0.399   3.211 -1.5928 -2.5640 -2.8546
37137SOL    HW214910   5.337   0.304   3.322 -0.2549  2.0700  0.9599
37138SOL     OW14911   2.424   6.238  10.531 -0.0807  0.3064  0.4285
37138SOL    HW114912   2.467   6.306  10.585 -1.6577  0.3965  1.6462
37138SOL    HW214913   2.371   6.287  10.469  1.2747  0.1892 -0.8769
37139SOL     OW14914   9.238   7.548   5.425 -0.3629  0.3148  0.7141
37139SOL    HW114915   9.188   7.622   5.392 -1.9427 -0.0652  2.1346
37139SOL    HW214916   9.310   7.587   5.475 -1.6633  0.9470  2.1609
37140SOL     OW14917   9.312   9.547   0.594 -0.1214 -0.0881  0.6061
37140SOL    HW114918   9.254   9.496   0.651 -0.8362 -0.6687 -0.6004
37140SOL    HW214919   9.398   9.542   0.636 -0.1598 -2.3608  0.5272
37141SOL     OW14920   9.308   6.873   0.724 -0.2663  0.7716  0.2076
37141SOL    HW114921   9.386   6.927   0.713 -0.8437  1.3703 -1.2165
37141SOL    HW214922   9.276   6.859   0.635 -1.9968  0.8679  0.7813
37142SOL     OW14923   1.056   7.357   8.098 -0.3473  0.6661  0.6785
37142SOL    HW114924   1.149   7.337   8.108 -0.2232 -0.2859 -1.7086
37142SOL    HW214925   1.014   7.272   8.093 -1.0274  1.0463 -0.5219
37143SOL     OW14926   8.332   9.383   3.691  0.4607 -0.9439  0.2860
37143SOL    HW114927   8.384   9.337   3.626  1.8732  0.1643  0.5697
37143SOL    HW214928   8.295   9.314   3.746  0.5824 -1.8165 -0.6984
37144SOL     OW14929   4.641   4.673   7.583 -0.3778 -0.1123 -0.0737
37144SOL    HW114930   4.625   4.740   7.517 -0.6654  0.8812  0.9811
37144SOL    HW214931   4.554   4.645   7.611 -0.2594 -0.0537  0.3595
37145SOL     OW14932   9.940   3.997   8.250 -0.4509  0.0128  0.1407
37145SOL    HW114933   9.961   3.921   8.196  0.8751  0.0149  0.6196
37145SOL    HW214934   9.844   4.002   8.247 -0.4661 -0.5393 -1.4149
37146SOL     OW14935   1.331   1.732   3.386 -0.1436 -0.4090 -0.4264
37146SOL    HW114936   1.416   1.761   3.420 -0.5599 -1.1253  1.3325
37146SOL    HW214937   1.349   1.646   3.349  0.0260 -0.2602 -0.6951
37147SOL     OW14938   6.374  10.868   2.816 -0.2065  0.1051 -0.0480
37147SOL    HW114939   6.441  10.801   2.831 -0.7916 -0.4724  0.0135
37147SOL    HW214940   6.390  10.897   2.726  0.4754  0.3765  0.1516
37148SOL     OW14941   9.424  10.448   5.874 -0.3793 -0.0051  0.5416
37148SOL    HW114942   9.361  10.388   5.912  0.4638 -1.2503  0.0419
37148SOL    HW214943   9.488  10.391   5.831  0.1856  1.2704 -0.3587
37149SOL     OW14944   6.912  10.165   6.383 -0.4760  0.5632  0.2069
37149SOL    HW114945   6.968  10.242   6.370 -2.7535  2.3970  0.5698
37149SOL    HW214946   6.855  10.165   6.307  0.1341 -1.4494 -0.3034
37150SOL     OW14947   0.400   3.069   6.770  0.1729 -0.1829  0.7534
37150SOL    HW114948   0.442   3.152   6.790 -0.9100  0.5627  0.0263
37150SOL    HW214949   0.330   3.061   6.834 -0.7428  0.2591 -0.1667
37151SOL     OW14950   7.047   1.192   1.750 -0.6155 -0.0345  0.0710
37151SOL    HW114951   6.977   1.132   1.725 -0.7943 -0.5064  1.6335
37151SOL    HW214952   7.122   1.136   1.765 -0.4264  0.2766  0.2795
37152SOL     OW14953   2.092   4.113  10.958 -0.0130  0.5250  0.0136
37152SOL    HW114954   2.112   4.099  10.865  0.2328  0.6079  0.0524
37152SOL    HW214955   2.147   4.049  11.003 -0.1509  0.4681  0.1013
37153SOL     OW14956   8.694   0.465   3.297 -0.0272  0.3543 -0.4904
37153SOL    HW114957   8.728   0.390   3.248 -0.3834 -1.0427  1.3103
37153SOL    HW214958   8.772   0.512   3.325  0.5236 -1.7051  1.8704
37154SOL     OW14959   2.031   5.241   2.571 -0.2946 -0.7290 -0.3972
37154SOL    HW114960   2.047   5.181   2.498  1.9922 -0.3564 -0.2923
37154SOL    HW214961   1.963   5.300   2.540  1.1951 -0.0380 -2.6312
37155SOL     OW14962  10.654   7.114   2.433 -0.1127  0.4115 -0.2426
37155SOL    HW114963  10.622   7.117   2.523  0.2293 -2.0139  0.0271
37155SOL    HW214964  10.658   7.206   2.406  4.2977  1.7767  3.7318
37156SOL     OW14965   8.265  10.813   6.923  0.0413 -0.0730 -0.2855
37156SOL    HW114966   8.323  10.856   6.985  0.0506 -0.3786 -0.0793
37156SOL    HW214967   8.209  10.883   6.889 -0.2951  0.0126  0.4353
37157SOL     OW14968   6.855   3.500   4.017 -0.4303  0.3878 -0.0890
37157SOL    HW114969   6.940   3.459   4.034  0.3442  2.4091  1.2853
37157SOL    HW214970   6.800   3.471   4.090  0.4230  2.4578  1.4728
37158SOL     OW14971   3.054   3.141   7.247  0.3609 -0.8764 -0.0347
37158SOL    HW114972   2.994   3.066   7.252 -1.1303  0.2613 -0.1154
37158SOL    HW214973   3.114   3.119   7.176 -0.9784 -1.3680 -1.0462
37159SOL     OW14974   2.103   4.010   0.766 -0.1893  0.0572 -0.0579
37159SOL    HW114975   2.115   3.973   0.854 -0.6802 -2.5599 -0.9895
37159SOL    HW214976   2.026   4.066   0.774 -0.1636 -0.0561  1.2196
37160SOL     OW14977   3.025   7.927   7.139  0.3863  0.4073  0.2387
37160SOL    HW114978   2.969   7.903   7.065  1.0597  0.3957 -0.2769
37160SOL    HW214979   3.009   8.021   7.152  0.4595  0.4629 -0.0842
37161SOL     OW14980   7.516   2.362   5.042  0.9850  0.1452  0.0865
37161SOL    HW114981   7.468   2.429   5.091 -1.3305 -0.3241 -1.3770
37161SOL    HW214982   7.483   2.279   5.075  1.3973 -0.2211 -0.4026
37162SOL     OW14983   1.558   5.565   9.453 -0.4100 -0.1404 -0.7011
37162SOL    HW114984   1.594   5.649   9.423 -1.7647  0.7520  0.0997
37162SOL    HW214985   1.619   5.500   9.419  0.7628  1.1743 -1.2143
37163SOL     OW14986   2.305   5.806   5.843  0.1347 -0.3074 -0.8733
37163SOL    HW114987   2.235   5.763   5.891 -0.1128  0.0295 -0.9309
37163SOL    HW214988   2.363   5.840   5.911 -0.0718 -0.0669 -0.8157
37164SOL     OW14989   6.939   3.374   0.351  0.4077  0.1589  0.5654
37164SOL    HW114990   6.992   3.310   0.399 -0.9460 -1.1691  0.3719
37164SOL    HW214991   6.874   3.404   0.414  0.4859  0.6861  0.3997
37165SOL     OW14992   2.581  10.680   4.586 -0.0825  0.4940 -0.3979
37165SOL    HW114993   2.602  10.593   4.619 -0.9974  0.2053 -0.5241
37165SOL    HW214994   2.552  10.729   4.663  2.1431  1.2830 -0.0009
37166SOL     OW14995   0.952   2.173   9.155 -0.1600  0.7780  0.2243
37166SOL    HW114996   0.964   2.267   9.143  0.9598  0.5952 -0.3211
37166SOL    HW214997   0.860   2.162   9.178 -0.4173  1.9576 -0.1918
37167SOL     OW14998   4.478   5.345   7.027  0.1286  0.3210  0.2760
37167SOL    HW114999   4.412   5.415   7.021 -0.4083 -0.2257 -0.4066
37167SOL    HW215000   4.429   5.264   7.012  0.9382 -0.1079 -0.1248
37168SOL     OW15001   1.406   7.529   8.012  0.3800 -0.1493 -0.2883
37168SOL    HW115002   1.335   7.473   7.981 -0.5446  0.6017  0.4355
37168SOL    HW215003   1.392   7.613   7.969  0.6087  0.1192  0.1479
37169SOL     OW15004   7.511   1.536   6.828  0.4652 -0.2567 -0.3505
37169SOL    HW115005   7.446   1.600   6.859  1.2273  0.1716  0.4060
37169SOL    HW215006   7.595   1.571   6.858  1.2958  0.2733 -3.0653
37170SOL     OW15007   8.491   5.934   1.340  0.1751 -0.0833 -0.0805
37170SOL    HW115008   8.536   6.018   1.344  0.6328 -0.3684  1.3992
37170SOL    HW215009   8.435   5.940   1.263  1.6091  0.8538 -1.0899
37171SOL     OW15010   5.447   5.352   3.916  0.2552 -0.3286 -0.0458
37171SOL    HW115011   5.372   5.306   3.878 -0.1611 -0.4471  0.9018
37171SOL    HW215012   5.418   5.444   3.922  0.2365 -0.3488  0.1816
37172SOL     OW15013   8.511   5.999   5.327  0.4278 -0.4600 -0.9606
37172SOL    HW115014   8.522   5.933   5.396  1.1557  0.0628 -0.5603
37172SOL    HW215015   8.426   6.039   5.345 -0.4215 -1.8594 -1.7159
37173SOL     OW15016   1.035   6.106   8.514 -0.0659  0.1112 -0.3500
37173SOL    HW115017   1.105   6.071   8.459 -0.7867 -0.3565 -0.9987
37173SOL    HW215018   0.970   6.036   8.518 -0.5678  0.5881  0.1133
37174SOL     OW15019   5.067  10.510   7.475 -0.2363 -0.4191 -0.3044
37174SOL    HW115020   5.154  10.471   7.479 -0.5670 -1.1001  1.2963
37174SOL    HW215021   5.064  10.570   7.550 -0.7856  0.4026 -0.9672
37175SOL     OW15022   4.138   2.340   1.344 -0.0164  0.4871 -0.6225
37175SOL    HW115023   4.216   2.348   1.399  0.0427  0.5079 -0.7091
37175SOL    HW215024   4.096   2.426   1.349 -0.5233  0.2137  0.1497
37176SOL     OW15025   0.785  10.000   5.214  0.2262  0.7565 -0.0025
37176SOL    HW115026   0.742   9.969   5.134 -0.9412 -0.4464  1.0394
37176SOL    HW215027   0.712  10.022   5.273  1.0192 -0.5182  1.5136
37177SOL     OW15028   6.959   3.112   4.015  0.2272 -0.4370 -0.0691
37177SOL    HW115029   6.864   3.108   4.025  0.3003 -2.3213  0.1722
37177SOL    HW215030   6.977   3.202   3.989 -1.4548  0.4046  1.5241
37178SOL     OW15031   1.295   0.387   5.471 -0.4336  0.3414  0.2674
37178SOL    HW115032   1.375   0.334   5.471  0.2203  1.3038 -0.2428
37178SOL    HW215033   1.225   0.324   5.459  0.2895 -0.4653  0.1665
37179SOL     OW15034   1.563   5.748   9.791 -0.1609 -0.3593  0.1684
37179SOL    HW115035   1.592   5.711   9.875 -0.9802 -0.0299  0.6050
37179SOL    HW215036   1.474   5.717   9.780 -0.8646  1.3985  0.5251
37180SOL     OW15037   8.658   0.925   0.161 -0.7072  0.2911 -0.2473
37180SOL    HW115038   8.633   0.908   0.069 -2.1770 -0.5554  0.2672
37180SOL    HW215039   8.583   0.893   0.212  0.2903  0.3047  1.2857
37181SOL     OW15040   2.397  10.992   0.481 -0.0814  0.1361 -0.0860
37181SOL    HW115041   2.412  11.048   0.558 -0.8663  0.6360 -0.2880
37181SOL    HW215042   2.308  10.959   0.493  0.3574 -1.0762  0.0184
37182SOL     OW15043   2.938   3.700   8.844  0.3321  0.2012  0.0133
37182SOL    HW115044   2.932   3.778   8.789  0.2235  0.2057  0.0320
37182SOL    HW215045   2.874   3.714   8.914  0.1325 -0.0158 -0.1248
37183SOL     OW15046   5.194   6.075   8.923  0.5699 -0.5446 -0.2710
37183SOL    HW115047   5.282   6.112   8.911  0.6833 -0.6272  0.2401
37183SOL    HW215048   5.155   6.131   8.991  0.1669 -0.4099 -0.6142
37184SOL     OW15049   7.789   1.253   3.479 -0.2956 -0.0793 -0.0843
37184SOL    HW115050   7.824   1.329   3.525 -0.2168 -0.2804  0.1940
37184SOL    HW215051   7.731   1.290   3.412  0.3993  0.2504 -0.5111
37185SOL     OW15052   5.412   2.865   0.340 -0.2433  0.6090  0.5255
37185SOL    HW115053   5.397   2.816   0.259  0.4168  2.2732 -0.6488
37185SOL    HW215054   5.328   2.863   0.385 -0.4681 -0.8207  0.0954
37186SOL     OW15055   3.786   1.591   3.411  0.2953  0.2229  0.2754
37186SOL    HW115056   3.879   1.572   3.427  0.5376  1.6264  0.6058
37186SOL    HW215057   3.767   1.548   3.327  1.4241  0.5065 -0.1375
37187SOL     OW15058   7.309   0.247   8.028  0.1598 -0.4948 -0.0655
37187SOL    HW115059   7.275   0.267   7.940 -0.1110 -0.1743  0.1086
37187SOL    HW215060   7.248   0.291   8.087  1.0322  0.3006  0.2492
37188SOL     OW15061   8.039   2.144   3.978 -0.3008  0.2557  0.3816
37188SOL    HW115062   8.068   2.208   3.913 -1.1668  1.3933  1.0711
37188SOL    HW215063   8.034   2.061   3.930  0.5952  0.7508 -0.5954
37189SOL     OW15064  10.955  10.203   5.098 -0.1319  0.0710 -0.1070
37189SOL    HW115065  10.964  10.193   5.193 -0.8604  2.1605  0.2273
37189SOL    HW215066  10.863  10.182   5.081 -0.4944  1.5334 -0.0475
37190SOL     OW15067   5.566   9.951   6.823 -0.1696 -0.8015 -0.1173
37190SOL    HW115068   5.485   9.951   6.773 -0.3970 -1.0006  0.2541
37190SOL    HW215069   5.606   9.866   6.804  0.6720 -0.1497 -1.4543
37191SOL     OW15070   2.764   8.100   4.837 -1.0486 -0.6269 -0.4620
37191SOL    HW115071   2.699   8.086   4.768 -2.0638 -0.8442  0.5032
37191SOL    HW215072   2.816   8.174   4.805 -0.6014 -1.5842 -2.0759
37192SOL     OW15073   5.378  10.613   5.034  0.4114  0.2221 -0.3584
37192SOL    HW115074   5.463  10.601   5.076  0.0129  1.4648  0.8548
37192SOL    HW215075   5.314  10.587   5.100 -0.1925  0.9506 -0.6373
37193SOL     OW15076   6.099  10.426   9.768 -0.6935 -0.0259  0.4788
37193SOL    HW115077   6.063  10.339   9.784  1.1164 -1.0078 -0.4020
37193SOL    HW215078   6.194  10.414   9.778 -0.4685  2.1092  1.4301
37194SOL     OW15079  10.647  10.296   6.838 -0.2682 -0.4444  0.3824
37194SOL    HW115080  10.565  10.333   6.805 -0.5864 -0.4218  1.1855
37194SOL    HW215081  10.694  10.268   6.759 -1.0457 -0.4642 -0.0831
37195SOL     OW15082   8.890   0.261   8.913 -0.0607 -0.2772 -0.8448
37195SOL    HW115083   8.833   0.237   8.986  0.1971 -2.5167 -1.3060
37195SOL    HW215084   8.972   0.216   8.930  0.1609 -0.4631 -2.2638
37196SOL     OW15085   3.253   2.939   5.313 -0.3108  0.2691 -0.0252
37196SOL    HW115086   3.226   2.979   5.231 -0.8462 -0.3422 -0.1501
37196SOL    HW215087   3.242   3.009   5.378 -0.3168  0.6168 -0.3923
37197SOL     OW15088   5.746   9.765   9.898  0.5886 -0.4333 -0.5364
37197SOL    HW115089   5.827   9.807   9.926  1.2450 -1.4522 -0.8642
37197SOL    HW215090   5.721   9.710   9.973  0.1021  0.0063 -0.3706
37198SOL     OW15091   0.044   9.939   9.801 -0.0771  0.2783 -0.4614
37198SOL    HW115092   0.092   9.917   9.881  0.9542 -1.3133 -1.4611
37198SOL    HW215093   0.001  10.022   9.821 -0.9321 -0.6896  2.1875
37199SOL     OW15094   6.953   2.351   2.678 -0.6878 -0.2500 -0.4804
37199SOL    HW115095   6.945   2.267   2.724 -0.1725 -1.1845 -2.0251
37199SOL    HW215096   6.885   2.406   2.717 -0.2281 -0.9368  1.4467
37200SOL     OW15097   3.830   9.643   0.640  0.0909  0.5619 -0.6070
37200SOL    HW115098   3.835   9.687   0.726  0.0256  1.4765 -1.0586
37200SOL    HW215099   3.920   9.614   0.623 -0.4605 -2.8737  1.3733
37201SOL     OW15100   1.411   7.820   7.432  0.5006 -0.0152  0.0431
37201SOL    HW115101   1.481   7.872   7.393 -0.3390  0.4186 -0.9341
37201SOL    HW215102   1.381   7.763   7.361 -0.5243  0.2209  0.2814
37202SOL     OW15103   7.438   1.007  10.431 -0.0551 -0.5601 -0.7784
37202SOL    HW115104   7.490   1.071  10.479 -0.4491 -0.9237  0.1756
37202SOL    HW215105   7.410   1.052  10.351  0.7018  0.0310 -0.7197
37203SOL     OW15106   7.595   9.654   6.013  0.6653  0.1155  0.1880
37203SOL    HW115107   7.647   9.720   6.058  1.5653 -1.4665  1.6206
37203SOL    HW215108   7.528   9.630   6.077 -0.4961  0.5943 -0.8306
37204SOL     OW15109   1.030   5.615   2.287  0.3540  0.4545 -0.0907
37204SOL    HW115110   0.936   5.628   2.298  0.2827  0.1982 -0.3728
37204SOL    HW215111   1.061   5.696   2.246  0.2998  0.6371  0.2264
37205SOL     OW15112   1.172   9.339   0.513 -0.2613  0.3662  0.0252
37205SOL    HW115113   1.166   9.250   0.477  0.7391  0.5933 -0.7350
37205SOL    HW215114   1.215   9.390   0.444 -0.8270  1.4506  0.4530
37206SOL     OW15115   9.261   7.767   5.082  0.1442 -0.2484 -0.0889
37206SOL    HW115116   9.187   7.738   5.029  1.3718 -1.2484 -1.3581
37206SOL    HW215117   9.282   7.854   5.049 -0.3016 -0.0687  0.0993
37207SOL     OW15118   2.640   9.787   7.723  0.1991 -0.1369  0.1242
37207SOL    HW115119   2.722   9.834   7.737  1.5444 -2.3031 -0.1010
37207SOL    HW215120   2.665   9.695   7.721 -2.0645 -0.7962 -1.2273
37208SOL     OW15121   8.862  10.596   1.049 -0.1721  0.3781  0.3908
37208SOL    HW115122   8.852  10.506   1.017  0.0072  0.6326 -0.4074
37208SOL    HW215123   8.822  10.596   1.136  0.2648 -0.5931  0.6048
37209SOL     OW15124   3.177   8.389   6.898  0.2670  0.0782 -0.3309
37209SOL    HW115125   3.143   8.464   6.850  0.5689 -0.1548 -0.9124
37209SOL    HW215126   3.272   8.404   6.904  0.1619  0.4179  0.7447
37210SOL     OW15127   4.800   3.798  10.151 -0.5147 -0.3063  0.0434
37210SOL    HW115128   4.782   3.889  10.128  0.8187 -0.3511 -1.3517
37210SOL    HW215129   4.832   3.802  10.241  1.2884  0.8898 -0.5783
37211SOL     OW15130   4.222   0.573  10.024 -0.7475 -0.2553 -0.5780
37211SOL    HW115131   4.264   0.487  10.020  1.4283  0.7694 -1.7662
37211SOL    HW215132   4.185   0.579  10.112 -1.4429 -2.5865 -0.6657
37212SOL     OW15133   5.564   1.888   3.736  0.2858  0.0656 -0.1967
37212SOL    HW115134   5.639   1.835   3.708  1.3725  1.2595  0.3504
37212SOL    HW215135   5.538   1.852   3.820  0.7432  0.1172 -0.0309
37213SOL     OW15136   4.604   7.820   3.736 -0.0930 -0.7270  0.0161
37213SOL    HW115137   4.608   7.761   3.661  0.4030  0.0562 -0.5783
37213SOL    HW215138   4.514   7.810   3.769 -1.0389  0.5620 -2.0187
37214SOL     OW15139   8.735   7.546   6.809  0.3394 -0.0239  0.1042
37214SOL    HW115140   8.672   7.617   6.800  1.3148  0.8041 -0.4230
37214SOL    HW215141   8.779   7.564   6.893 -1.0853 -1.4306  1.2219
37215SOL     OW15142   3.193   9.162   7.304 -0.0560 -0.0108  0.4163
37215SOL    HW115143   3.199   9.089   7.366 -1.9352 -0.7461 -0.1729
37215SOL    HW215144   3.120   9.138   7.247 -0.3806  2.0924 -0.1376
37216SOL     OW15145   4.794   8.114   6.705 -0.1106  0.2556 -0.0002
37216SOL    HW115146   4.773   8.205   6.681 -0.1419 -0.3041 -2.2854
37216SOL    HW215147   4.711   8.076   6.731 -0.5684  0.2222 -1.4383
37217SOL     OW15148   2.134  10.322   6.072 -0.3093  0.0746 -0.3627
37217SOL    HW115149   2.153  10.377   6.148  0.4058  1.2130 -1.3124
37217SOL    HW215150   2.081  10.378   6.015  0.9930  0.0589 -1.6578
37218SOL     OW15151   9.107  10.368   3.178  0.1521 -0.6373 -0.7042
37218SOL    HW115152   9.044  10.334   3.115  1.8448  0.0463 -2.8949
37218SOL    HW215153   9.130  10.455   3.144  1.4409 -0.4084  0.6501
37219SOL     OW15154   5.051   8.042   6.793  0.0680 -0.2013 -0.0947
37219SOL    HW115155   5.089   8.030   6.706  0.0659 -2.8716  0.1915
37219SOL    HW215156   4.965   8.081   6.776  1.1367  1.9007 -1.0380
37220SOL     OW15157   2.127   5.073   5.365 -0.1785 -0.1457  0.2898
37220SOL    HW115158   2.171   5.079   5.450 -1.2993 -0.0367  0.8781
37220SOL    HW215159   2.167   5.143   5.313 -0.5485  0.7945  1.2390
37221SOL     OW15160   4.377   1.745   7.916  0.2628 -0.5397  0.2643
37221SOL    HW115161   4.370   1.679   7.985 -0.4508  0.7379  1.4792
37221SOL    HW215162   4.295   1.794   7.923  1.4311  1.4785  0.5090
37222SOL     OW15163  10.922   1.540   6.990 -0.5071 -0.6028  0.6373
37222SOL    HW115164  10.987   1.508   6.928 -1.2830  0.8881 -1.0391
37222SOL    HW215165  10.973   1.588   7.056  0.1298  0.8551 -0.8476
37223SOL     OW15166   1.747   7.152   9.847  0.2327 -0.0585  0.1233
37223SOL    HW115167   1.713   7.064   9.830  2.6955 -1.0850  0.0659
37223SOL    HW215168   1.727   7.168   9.939  0.2163 -0.9257  0.2774
37224SOL     OW15169   5.712   5.043   4.765  0.2763  0.0539 -0.5031
37224SOL    HW115170   5.620   5.072   4.764  0.5537  0.9808 -0.1315
37224SOL    HW215171   5.744   5.061   4.677 -0.2286 -1.4224 -1.0169
37225SOL     OW15172   3.942   5.363   3.105  0.1004  0.3952 -0.2325
37225SOL    HW115173   3.890   5.305   3.161  0.4903  0.0417 -0.2315
37225SOL    HW215174   3.879   5.426   3.070 -0.9331 -1.8478 -2.7213
37226SOL     OW15175   4.424   7.991   3.598 -0.0263 -0.1265 -0.3600
37226SOL    HW115176   4.422   7.971   3.691  0.8722 -0.4737 -0.3999
37226SOL    HW215177   4.516   8.014   3.581  0.4606 -2.6343 -1.6470
37227SOL     OW15178   7.707   4.599   8.658  0.3159 -0.0251  0.0304
37227SOL    HW115179   7.669   4.560   8.737  1.0607 -1.8026 -0.4510
37227SOL    HW215180   7.633   4.615   8.601 -0.1546  0.6173  0.8001
37228SOL     OW15181   2.187   7.026   1.892 -0.1875 -0.3095  0.2243
37228SOL    HW115182   2.133   7.036   1.970  0.9700  0.5862  0.9412
37228SOL    HW215183   2.187   6.932   1.874 -0.8598 -0.4638  1.0075
37229SOL     OW15184   3.067   9.133   7.960 -0.2562  0.2197  0.3417
37229SOL    HW115185   3.072   9.053   8.013  1.1253  0.1243  0.1239
37229SOL    HW215186   3.045   9.102   7.872  1.9814 -0.1940 -0.1587
37230SOL     OW15187   5.039   1.607   8.937 -0.4814 -0.4166 -0.1071
37230SOL    HW115188   5.010   1.667   8.868 -0.5974 -0.0268  0.2739
37230SOL    HW215189   5.078   1.533   8.890  0.9127  0.5746 -0.5872
37231SOL     OW15190   9.394   7.694   5.645  0.2482  0.2621  0.2441
37231SOL    HW115191   9.429   7.643   5.718 -0.5939  1.0557  1.2460
37231SOL    HW215192   9.444   7.776   5.648 -1.2856  1.2121  1.3924
37232SOL     OW15193   2.179   4.321   9.025 -0.6458  0.1924 -0.1560
37232SOL    HW115194   2.147   4.239   9.062  1.1618 -1.0555 -1.1830
37232SOL    HW215195   2.270   4.326   9.055 -0.4313  1.3142 -0.9486
37233SOL     OW15196   2.760   8.979   2.723  0.2946  0.0958  0.7838
37233SOL    HW115197   2.850   8.956   2.703  0.4562  1.7259 -0.6484
37233SOL    HW215198   2.749   9.067   2.685 -2.1794 -0.4764 -0.0204
37234SOL     OW15199  10.452   6.809   9.346  0.0794  0.3498  0.2823
37234SOL    HW115200  10.495   6.819   9.261 -0.6493  0.8492 -0.0403
37234SOL    HW215201  10.398   6.889   9.355  0.3818  0.4459  1.3442
37235SOL     OW15202   4.673   2.342   4.841 -0.0331  0.2285 -0.0432
37235SOL    HW115203   4.766   2.357   4.826  0.8501 -3.2430  0.9649
37235SOL    HW215204   4.667   2.316   4.932 -1.7871 -0.7796 -0.3990
37236SOL     OW15205   9.551   1.948   7.220  0.2761 -0.3200 -0.2204
37236SOL    HW115206   9.630   1.907   7.182  1.3666  0.6819  0.8757
37236SOL    HW215207   9.498   1.971   7.144  2.2404  1.3375 -1.2107
37237SOL     OW15208   5.127   0.945   4.709 -0.4842 -0.6502  0.2607
37237SOL    HW115209   5.153   0.974   4.796 -2.0327 -0.8498  0.8209
37237SOL    HW215210   5.153   0.853   4.705 -0.2888 -0.6038  0.4429
37238SOL     OW15211   6.081   8.123   1.360  0.6409 -0.5937 -0.1455
37238SOL    HW115212   6.088   8.215   1.336 -0.2531 -0.5605 -0.3439
37238SOL    HW215213   6.071   8.077   1.276  1.5725 -0.9305 -0.0817
37239SOL     OW15214   9.902   1.137   3.856  0.0943 -0.9036  0.1087
37239SOL    HW115215   9.979   1.116   3.803 -0.2409 -1.4269 -0.1875
37239SOL    HW215216   9.899   1.068   3.923 -1.0777 -1.9356 -0.9377
37240SOL     OW15217   1.800   3.456   0.829 -0.2511 -0.5605  0.2259
37240SOL    HW115218   1.729   3.450   0.893  0.5069 -1.1265  1.0336
37240SOL    HW215219   1.762   3.504   0.756 -1.0246  0.4814  1.2674
37241SOL     OW15220   2.651   7.129   5.443  0.0532 -0.1929 -0.4288
37241SOL    HW115221   2.674   7.043   5.408 -2.6117 -0.7260 -1.0790
37241SOL    HW215222   2.556   7.128   5.450 -0.0679  2.6651 -0.3311
37242SOL     OW15223   3.031   1.083   1.938  0.4175 -0.1615  0.3577
37242SOL    HW115224   3.034   1.086   2.033 -1.6845  0.5025  0.4459
37242SOL    HW215225   3.053   0.993   1.915 -0.2749 -0.6481  1.5395
37243SOL     OW15226   0.457   6.005   6.163  0.5681  0.5119  0.1539
37243SOL    HW115227   0.503   6.013   6.079 -1.4045 -2.4831 -1.4145
37243SOL    HW215228   0.419   5.917   6.161 -1.1312  1.0064  3.4292
37244SOL     OW15229   5.228   4.231   0.040  0.4803  0.0984  0.4491
37244SOL    HW115230   5.268   4.239  -0.047  0.2701  0.3194  0.3696
37244SOL    HW215231   5.167   4.158   0.031  1.9536 -1.2697  0.9989
37245SOL     OW15232   1.013   6.997   9.590 -0.0404 -0.1577  0.7847
37245SOL    HW115233   1.013   7.008   9.685  1.5116 -1.0746  0.9213
37245SOL    HW215234   1.105   6.989   9.566 -0.2840  1.6329 -1.0302
37246SOL     OW15235   8.093   8.333   0.058  0.6124  0.3235  0.2253
37246SOL    HW115236   8.026   8.377   0.005 -0.2150 -0.7713  0.3206
37246SOL    HW215237   8.141   8.280  -0.005  1.0703  0.7187  0.2382
37247SOL     OW15238   4.758   7.739   6.507 -0.1001 -0.3230 -0.2207
37247SOL    HW115239   4.715   7.655   6.492 -2.4805  0.9291 -0.9702
37247SOL    HW215240   4.785   7.737   6.598  2.1353 -2.7890 -0.8175
37248SOL     OW15241   5.120   0.785   8.214  0.2031 -0.0435 -0.0309
37248SOL    HW115242   5.138   0.711   8.156  2.2054  0.1859  0.2093
37248SOL    HW215243   5.180   0.854   8.184 -0.1835  0.7749  1.0066
37249SOL     OW15244   0.007   1.606   1.478  0.0187 -0.0218  0.0795
37249SOL    HW115245   0.084   1.653   1.448 -0.8241  1.0709 -0.4243
37249SOL    HW215246   0.011   1.522   1.432 -0.0021  0.7115 -1.3026
37250SOL     OW15247   8.896   7.474   4.644  0.4416 -0.3834 -0.0528
37250SOL    HW115248   8.902   7.442   4.554 -1.5811 -0.5876 -0.1667
37250SOL    HW215249   8.836   7.548   4.639  0.6785 -0.0993  1.0688
37251SOL     OW15250   5.030   6.839   2.943  0.6442 -0.4125  0.0025
37251SOL    HW115251   5.058   6.747   2.938 -0.1148 -0.6563  0.1326
37251SOL    HW215252   4.986   6.856   2.860 -2.2899 -1.2325  1.2468
37252SOL     OW15253   4.105   1.410   5.745 -0.2287 -0.0417 -0.8626
37252SOL    HW115254   4.121   1.335   5.688 -0.7536 -1.0143  0.2393
37252SOL    HW215255   4.045   1.377   5.812 -1.4755  1.6884 -1.0532
37253SOL     OW15256   5.744   5.380   5.483 -0.5572  0.1887 -0.0502
37253SOL    HW115257   5.663   5.428   5.467 -0.3563  0.3583 -0.5807
37253SOL    HW215258   5.740   5.356   5.576 -0.7928  0.9774  0.1492
37254SOL     OW15259   1.694   4.602   5.838  0.0388  0.2332  0.0916
37254SOL    HW115260   1.748   4.633   5.910  1.5127 -0.8392 -0.4978
37254SOL    HW215261   1.692   4.675   5.775  1.4362  0.0454 -0.1991
37255SOL     OW15262  10.827   7.434   7.505 -0.5209 -0.5725  0.4783
37255SOL    HW115263  10.815   7.479   7.421  0.9124 -1.0525 -0.0137
37255SOL    HW215264  10.814   7.341   7.485  0.9438 -0.8101  0.5106
37256SOL     OW15265   2.409   5.378   9.219  0.3439 -0.5367  0.1763
37256SOL    HW115266   2.351   5.357   9.292 -0.9059  0.4335 -0.4954
37256SOL    HW215267   2.419   5.473   9.222  1.7213 -0.6640  0.1221
37257SOL     OW15268   1.661   7.310   6.186 -0.4472  0.0535  0.1989
37257SOL    HW115269   1.705   7.300   6.270  0.5226 -0.4795 -0.3497
37257SOL    HW215270   1.728   7.346   6.128 -1.0851  0.3644 -0.3631
37258SOL     OW15271   2.795   4.019   8.450  0.4291 -0.0181 -0.1179
37258SOL    HW115272   2.780   4.009   8.544  0.8071  1.0671  0.0765
37258SOL    HW215273   2.879   4.066   8.444  0.6735 -0.5407 -1.0141
37259SOL     OW15274   5.402   5.844   4.560 -0.2832  0.2409  0.1860
37259SOL    HW115275   5.360   5.758   4.554  0.9263 -0.4921  1.6417
37259SOL    HW215276   5.481   5.837   4.507  0.4940  0.0045  1.3452
37260SOL     OW15277   6.688   5.571   0.952  0.2112  0.1567 -0.2284
37260SOL    HW115278   6.753   5.563   0.882  0.1956  1.9262 -0.4790
37260SOL    HW215279   6.723   5.637   1.011 -1.8389  2.0248 -0.9711
37261SOL     OW15280   7.053   5.277  10.903 -0.1447 -0.0950  0.3164
37261SOL    HW115281   7.133   5.330  10.905 -0.8741  1.1955 -1.4247
37261SOL    HW215282   7.000   5.317  10.834 -1.3665 -2.2612 -0.1017
37262SOL     OW15283   9.792   7.942   1.078  0.2631 -0.0649  0.1524
37262SOL    HW115284   9.870   7.990   1.050  2.0634 -2.2578  1.1019
37262SOL    HW215285   9.735   7.944   1.001  2.1266 -0.1214 -1.3142
37263SOL     OW15286   1.499   1.382   3.885  0.4039  0.0813 -0.2567
37263SOL    HW115287   1.577   1.416   3.841  1.9360 -1.9884  0.6585
37263SOL    HW215288   1.505   1.415   3.974 -0.3927  0.8052 -0.4598
37264SOL     OW15289   5.671   7.187   6.539  0.5434 -0.1333  0.1738
37264SOL    HW115290   5.596   7.140   6.575  0.8143 -0.2154  0.6360
37264SOL    HW215291   5.655   7.279   6.562 -0.6154  0.2165 -1.8020
37265SOL     OW15292   4.293  10.605  10.777  0.1535  0.3893 -0.3183
37265SOL    HW115293   4.234  10.568  10.842  0.9565 -0.0498  0.1837
37265SOL    HW215294   4.258  10.576  10.693 -0.7024  0.6807 -0.0717
37266SOL     OW15295  10.732   0.816   9.546  0.4227 -0.4510  0.2982
37266SOL    HW115296  10.763   0.844   9.632 -1.3658  0.0871  0.8267
37266SOL    HW215297  10.639   0.798   9.560  0.3458 -1.4142 -1.2930
37267SOL     OW15298   2.201   9.809   6.290 -0.5013  0.1483  0.5706
37267SOL    HW115299   2.121   9.790   6.339 -1.5127 -1.3916 -1.4990
37267SOL    HW215300   2.186   9.895   6.251 -0.5261  0.4915  1.3249
37268SOL     OW15301   8.941   3.438   6.437  0.8482  0.2947 -0.1685
37268SOL    HW115302   8.978   3.443   6.349  0.2832  0.1871 -0.4148
37268SOL    HW215303   8.857   3.484   6.430  0.1265 -0.9481 -0.0446
37269SOL     OW15304   6.075   6.142  10.549  0.0444  0.1886 -0.1289
37269SOL    HW115305   6.020   6.064  10.550  1.3157 -0.7589  1.5283
37269SOL    HW215306   6.031   6.204  10.606  0.2523 -0.2647  0.5381
37270SOL     OW15307   3.843   7.071   5.700  0.1003  0.1180 -0.2792
37270SOL    HW115308   3.886   7.058   5.615 -0.1752 -0.6078 -0.3138
37270SOL    HW215309   3.788   6.993   5.711  0.2780  0.1167  0.6565
37271SOL     OW15310   0.160   2.830   2.666 -0.1642 -0.4604  0.6832
37271SOL    HW115311   0.156   2.769   2.593 -0.1418 -1.1156  1.2158
37271SOL    HW215312   0.148   2.917   2.627 -0.9328 -0.8677  0.0096
37272SOL     OW15313   0.087   0.787   8.414  0.5888  0.2295  0.0125
37272SOL    HW115314   0.076   0.860   8.353  0.4929 -0.4486 -0.7993
37272SOL    HW215315   0.056   0.822   8.498 -0.2085  0.8814 -0.5247
37273SOL     OW15316   5.039   7.930   3.340 -0.4359 -0.4898 -0.2220
37273SOL    HW115317   5.112   7.869   3.352  1.0780  1.0911 -0.9792
37273SOL    HW215318   5.018   7.924   3.247 -0.4117 -0.0336 -0.2592
37274SOL     OW15319   8.341   6.680   2.832  0.6383  0.0573  0.1941
37274SOL    HW115320   8.429   6.673   2.868  0.8339  0.2390 -0.2385
37274SOL    HW215321   8.346   6.638   2.746 -0.6384 -3.5163  1.6660
37275SOL     OW15322   0.092   9.246   7.424 -0.5080  0.2009  0.9058
37275SOL    HW115323   0.125   9.158   7.408 -0.1515  0.3867  0.6120
37275SOL    HW215324  -0.002   9.234   7.436 -0.7567 -0.0202 -0.9460
37276SOL     OW15325   4.764   6.482   4.406 -0.0743  0.2664  0.0101
37276SOL    HW115326   4.743   6.392   4.379  0.3212 -0.1059  0.8864
37276SOL    HW215327   4.698   6.536   4.363 -0.9302 -0.5556  0.2562
37277SOL     OW15328  10.474   7.585   2.542  0.0005  0.3890  0.0334
37277SOL    HW115329  10.401   7.527   2.563  0.4234 -0.3783 -0.5362
37277SOL    HW215330  10.509   7.612   2.627  0.0639 -0.5486  0.3153
37278SOL     OW15331   2.016   6.393   9.942 -0.0975  0.3012 -0.3328
37278SOL    HW115332   2.108   6.383   9.920  0.0470  1.0322 -0.0867
37278SOL    HW215333   1.969   6.367   9.862  0.2611 -1.2229 -0.0822
37279SOL     OW15334  10.257   1.364   5.432 -0.3653  0.2491 -0.1636
37279SOL    HW115335  10.320   1.295   5.452 -1.3867 -0.8343 -0.6212
37279SOL    HW215336  10.200   1.327   5.365 -0.6464  1.7114 -0.7775
37280SOL     OW15337   1.268   6.331  10.953  0.9363  0.3017 -0.1756
37280SOL    HW115338   1.272   6.265  11.022  2.1410 -0.7290 -1.1783
37280SOL    HW215339   1.180   6.323  10.916  0.9016 -0.3816  0.0546
37281SOL     OW15340  10.381   4.430   8.819  0.0112  0.3350  0.0834
37281SOL    HW115341  10.430   4.381   8.753 -0.6730 -0.3379  0.0610
37281SOL    HW215342  10.292   4.395   8.814 -0.1262  0.4957  1.1414
37282SOL     OW15343  10.334   7.991   1.289  0.0766  0.8838 -0.0631
37282SOL    HW115344  10.361   7.951   1.206  0.5960  1.6079 -0.2568
37282SOL    HW215345  10.405   8.052   1.310 -0.9283  2.0991 -0.0652
37283SOL     OW15346   0.275   1.071   6.881 -0.3469 -0.3302 -0.4630
37283SOL    HW115347   0.254   1.116   6.963 -0.1827 -2.4845  0.8461
37283SOL    HW215348   0.189   1.050   6.843 -0.4306  0.0777 -0.5027
37284SOL     OW15349   0.940  10.952   6.858 -0.6863 -0.5603  0.9955
37284SOL    HW115350   0.871  10.890   6.882 -0.1066 -1.5676  0.1267
37284SOL    HW215351   0.919  10.980   6.769 -1.5023  1.3111  1.7289
37285SOL     OW15352   5.465   7.563   5.946 -0.0856  0.0542  0.4218
37285SOL    HW115353   5.461   7.658   5.960 -0.8412  0.0144  0.4787
37285SOL    HW215354   5.521   7.554   5.869  1.2998  0.4464  1.3436
37286SOL     OW15355   3.658   4.434   8.562 -0.2929 -0.2421  0.3400
37286SOL    HW115356   3.571   4.398   8.542 -0.5197  1.1139 -1.4043
37286SOL    HW215357   3.652   4.526   8.536  1.5603 -0.0388  0.5191
37287SOL     OW15358   8.145   7.682   7.078  0.1532  0.0282  0.0610
37287SOL    HW115359   8.131   7.717   7.166 -0.2491 -0.0526  0.0330
37287SOL    HW215360   8.217   7.735   7.042 -0.1174  0.4986  0.1985
37288SOL     OW15361   1.853   3.312   7.658  0.3531 -0.1973  0.0465
37288SOL    HW115362   1.839   3.340   7.567 -0.1027  1.5810  0.6195
37288SOL    HW215363   1.888   3.389   7.701 -0.0160 -0.8280  1.5298
37289SOL     OW15364   9.137   8.098   4.405  0.1790 -0.2882  0.0510
37289SOL    HW115365   9.127   8.003   4.401 -0.3489 -0.3877  2.3112
37289SOL    HW215366   9.224   8.115   4.370  0.5428 -1.6595  0.2406
37290SOL     OW15367   3.440   2.469   3.896  0.1355 -0.2741 -0.0012
37290SOL    HW115368   3.452   2.563   3.881 -0.2811 -0.1857  0.1805
37290SOL    HW215369   3.374   2.464   3.965 -0.8049 -0.7099 -0.8959
37291SOL     OW15370   0.428   4.724   4.734 -0.2259  1.1860 -0.0253
37291SOL    HW115371   0.424   4.697   4.642 -0.1170 -1.6458  0.7105
37291SOL    HW215372   0.351   4.780   4.746 -0.5542  1.1332 -1.7008
37292SOL     OW15373   2.554   0.338   5.185 -0.4022  0.0567 -0.4682
37292SOL    HW115374   2.586   0.320   5.273 -2.3037  1.2531  0.5385
37292SOL    HW215375   2.630   0.373   5.138  0.3753  0.4273  1.0173
37293SOL     OW15376  10.017   3.829   0.338  0.3477  0.1754 -0.4224
37293SOL    HW115377  10.023   3.767   0.266 -1.1943  0.5844 -0.9383
37293SOL    HW215378  10.011   3.775   0.416  0.5042 -0.3014 -0.7402
37294SOL     OW15379   8.817   9.086   6.230 -0.2498 -0.0328  0.5258
37294SOL    HW115380   8.821   8.990   6.225  1.3223  0.0687 -0.6503
37294SOL    HW215381   8.770   9.103   6.312 -2.2788 -1.7879 -0.1711
37295SOL     OW15382   9.863   6.669  10.537 -0.0397 -0.5485 -0.0160
37295SOL    HW115383   9.891   6.700  10.451 -0.1704 -0.8177 -0.1606
37295SOL    HW215384   9.844   6.748  10.587  1.1973 -0.3577  0.1619
37296SOL     OW15385   5.551   8.716   2.066  0.4724  0.3545 -0.1090
37296SOL    HW115386   5.628   8.772   2.052 -0.4065  1.6228 -0.0710
37296SOL    HW215387   5.476   8.776   2.061 -0.4104 -0.4950  1.8736
37297SOL     OW15388   4.267  10.236  10.055  0.3912 -0.0556 -0.4774
37297SOL    HW115389   4.273  10.240   9.960  1.5508  0.7150 -0.3935
37297SOL    HW215390   4.356  10.252  10.085 -0.3201  1.8893  0.7730
37298SOL     OW15391   0.175   8.838   3.337 -0.4228  0.1860 -0.7638
37298SOL    HW115392   0.134   8.918   3.304  0.6429  0.2783 -1.9379
37298SOL    HW215393   0.111   8.769   3.317 -0.3929  0.4407 -1.7890
37299SOL     OW15394   2.601   9.771  10.797 -0.2328 -0.4056 -0.4310
37299SOL    HW115395   2.621   9.705  10.864 -0.4944  0.4184  0.4838
37299SOL    HW215396   2.686   9.809  10.775 -0.4219  1.5904  1.8733
37300SOL     OW15397   2.664   0.428   8.740 -0.1818 -0.0757  0.0194
37300SOL    HW115398   2.709   0.486   8.680 -0.7032 -0.7048 -1.0024
37300SOL    HW215399   2.708   0.344   8.731  1.1092  0.3090  2.0993
37301SOL     OW15400   0.693   3.944   6.978  0.0326  0.3751  0.2678
37301SOL    HW115401   0.621   3.883   6.997  0.5208 -0.5023 -0.6169
37301SOL    HW215402   0.678   3.971   6.888  1.8842 -1.3891 -0.6468
37302SOL     OW15403  10.895   8.899   3.787 -0.5575 -0.3210  0.3637
37302SOL    HW115404  10.929   8.967   3.845 -0.4419  0.0428 -0.1284
37302SOL    HW215405  10.959   8.828   3.794 -1.0691 -0.7076  1.4663
37303SOL     OW15406   6.170   9.680  10.629  0.4125 -0.1614  0.2038
37303SOL    HW115407   6.101   9.638  10.578  0.0280  1.0692 -0.3307
37303SOL    HW215408   6.164   9.639  10.715 -0.8576 -0.2102  0.1160
37304SOL     OW15409   5.872   0.603   9.880 -0.4899  0.2029 -0.3855
37304SOL    HW115410   5.963   0.613   9.907 -0.0922  0.5324 -1.7767
37304SOL    HW215411   5.839   0.529   9.931  0.7713 -0.3727 -0.3859
37305SOL     OW15412   7.922   4.803   3.560  0.1587 -0.0615 -0.4855
37305SOL    HW115413   7.945   4.712   3.543  0.2233 -0.2566  0.5592
37305SOL    HW215414   7.843   4.818   3.509  0.5722 -0.4774 -1.2567
37306SOL     OW15415   0.703   4.404   7.975  0.1838  0.0283 -0.4599
37306SOL    HW115416   0.773   4.431   8.034 -2.1530  0.9311  2.1518
37306SOL    HW215417   0.684   4.314   8.001 -2.1970  1.0485  1.8463
37307SOL     OW15418   6.259   4.997   1.629 -0.1480 -0.4276  0.0107
37307SOL    HW115419   6.203   5.013   1.553  1.8935  0.6063 -1.3818
37307SOL    HW215420   6.333   5.057   1.617  0.8228 -1.0736  2.2195
37308SOL     OW15421   3.610   0.300   2.477  0.4785  0.4653  0.2487
37308SOL    HW115422   3.597   0.206   2.491 -0.7274  0.9202  2.9100
37308SOL    HW215423   3.702   0.315   2.501  0.4637  0.0615  0.5732
37309SOL     OW15424   2.041   6.570  10.682 -0.4333  0.0909 -0.2170
37309SOL    HW115425   2.039   6.499  10.747  0.8083  0.9540  0.8144
37309SOL    HW215426   1.960   6.618  10.697  0.2166  0.7822  1.3396
37310SOL     OW15427   2.369   9.939   2.221  0.1690 -0.0025  0.1788
37310SOL    HW115428   2.314   9.864   2.244  0.3810 -0.0444  0.5419
37310SOL    HW215429   2.457   9.913   2.247  0.1800  0.5350  0.6890
37311SOL     OW15430   8.675   1.676   7.982  0.5685 -0.2191  0.5193
37311SOL    HW115431   8.687   1.707   8.071 -3.4820  0.9128  0.8501
37311SOL    HW215432   8.713   1.745   7.927  0.3979  0.5603  1.3586
37312SOL     OW15433   3.558   1.753   0.759 -0.3909 -0.0243  0.0256
37312SOL    HW115434   3.563   1.832   0.813 -0.4590  0.5895 -0.8412
37312SOL    HW215435   3.575   1.681   0.820  0.2144  0.6946  0.7221
37313SOL     OW15436   7.229   3.582   4.541  0.7495  1.5804  0.4175
37313SOL    HW115437   7.164   3.593   4.471  0.6447 -0.0059  0.2235
37313SOL    HW215438   7.178   3.552   4.616  1.3839 -2.0536 -0.3857
37314SOL     OW15439  10.319   1.690   6.943  0.0064  0.2486  0.2394
37314SOL    HW115440  10.322   1.715   7.036 -2.0560  0.9643  0.1639
37314SOL    HW215441  10.294   1.771   6.897  0.2856 -0.2751 -0.8633
37315SOL     OW15442   0.812   7.280   8.459  0.2339  0.3353 -0.4546
37315SOL    HW115443   0.801   7.265   8.553  1.1187 -0.7616 -0.5100
37315SOL    HW215444   0.896   7.240   8.438 -0.7835 -1.0595 -2.0534
37316SOL     OW15445   8.956   1.694   1.154 -0.3310  0.0662 -0.1365
37316SOL    HW115446   9.008   1.730   1.083 -2.2308 -2.5677 -3.1315
37316SOL    HW215447   9.011   1.624   1.190 -0.0496  0.2517 -0.2008
37317SOL     OW15448   6.575   8.732   4.752 -0.2752  0.1780 -0.4252
37317SOL    HW115449   6.576   8.691   4.839  1.0226 -0.1131 -0.5545
37317SOL    HW215450   6.558   8.824   4.769  0.3684  0.1947  0.1872
37318SOL     OW15451  10.660   3.033   8.908  0.2728  0.2747  0.1761
37318SOL    HW115452  10.754   3.029   8.888  0.4769  0.2653  1.1001
37318SOL    HW215453  10.630   3.113   8.864  0.7000  0.2367 -0.1872
37319SOL     OW15454  10.321   9.395   4.735 -0.4704 -0.0895  0.4487
37319SOL    HW115455  10.261   9.391   4.809 -0.7494 -0.0624  0.2242
37319SOL    HW215456  10.265   9.412   4.659 -0.1397  0.3060  0.2909
37320SOL     OW15457   4.336   5.035   8.229  0.8403 -0.4464  0.0961
37320SOL    HW115458   4.253   5.064   8.266  1.1201 -0.8407  1.0577
37320SOL    HW215459   4.333   4.939   8.236  0.2684 -0.6542 -2.2859
37321SOL     OW15460   2.610   5.722   3.988 -0.2740 -0.2173 -0.4332
37321SOL    HW115461   2.694   5.721   4.034 -0.1165 -0.8806 -0.7240
37321SOL    HW215462   2.547   5.687   4.051 -0.1152 -0.8330 -0.6158
37322SOL     OW15463   2.194   5.867   1.639 -0.6724  0.3115  0.7733
37322SOL    HW115464   2.288   5.875   1.658 -0.3423 -0.2094 -0.4992
37322SOL    HW215465   2.151   5.903   1.716  0.5439 -1.6668  2.5140
37323SOL     OW15466   5.744   7.572   1.628 -0.0933  0.6674 -0.3051
37323SOL    HW115467   5.669   7.620   1.665 -1.4226 -1.3611 -0.2089
37323SOL    HW215468   5.707   7.524   1.554  1.1220 -0.3922 -0.2546
37324SOL     OW15469   7.681   2.233   7.183  0.4164 -0.1851 -0.0923
37324SOL    HW115470   7.631   2.306   7.219  0.6663 -1.2002  2.5305
37324SOL    HW215471   7.618   2.184   7.129 -2.0852 -2.1848  4.1121
37325SOL     OW15472   8.317   3.792   2.630 -0.1590 -0.7464 -0.1900
37325SOL    HW115473   8.340   3.699   2.624  1.1832 -0.3629 -1.9518
37325SOL    HW215474   8.311   3.809   2.724 -2.9395 -3.1456  0.1909
37326SOL     OW15475  10.031   9.325   7.855  0.2247  0.1178 -0.0023
37326SOL    HW115476  10.041   9.378   7.934 -0.5488  0.1603  0.0796
37326SOL    HW215477   9.936   9.325   7.838  0.0409 -2.2624  0.6920
37327SOL     OW15478   7.837   6.706   1.399 -0.4278 -0.3069 -0.0811
37327SOL    HW115479   7.875   6.734   1.316 -1.3424 -3.2818 -1.6490
37327SOL    HW215480   7.897   6.640   1.432 -0.6415  0.0676  1.0891
37328SOL     OW15481   7.131   4.264   7.987  0.5563  0.0074 -0.2393
37328SOL    HW115482   7.077   4.295   7.914 -0.2706 -0.9005 -0.0396
37328SOL    HW215483   7.068   4.238   8.054  1.2256 -1.0033  0.0298
37329SOL     OW15484   9.966   4.462   8.959 -0.0155 -0.1977  0.0291
37329SOL    HW115485   9.981   4.526   8.889 -0.0173 -0.1522  0.0699
37329SOL    HW215486  10.041   4.403   8.954  0.2491  0.1024  0.3122
37330SOL     OW15487   2.846   0.077   8.045  0.4471  0.2518  0.5010
37330SOL    HW115488   2.905   0.001   8.043  0.9531  0.6544 -0.7463
37330SOL    HW215489   2.895   0.145   8.091  0.0981 -0.0704  1.3775
37331SOL     OW15490   4.035   0.844  10.939  0.2635  0.3088 -0.2827
37331SOL    HW115491   4.120   0.804  10.959 -0.2310 -1.3434 -1.2438
37331SOL    HW215492   4.005   0.878  11.023  0.7906 -1.3082  0.6125
37332SOL     OW15493  10.981   6.671   1.833 -0.5139  0.0184  0.0153
37332SOL    HW115494  10.994   6.750   1.781  0.4372  0.0964  0.3454
37332SOL    HW215495  10.940   6.609   1.773  0.1378  0.2577 -0.6985
37333SOL     OW15496   8.590   6.257   7.997  0.2081  0.3948  0.5731
37333SOL    HW115497   8.583   6.224   8.087 -2.0991 -1.0585 -0.0401
37333SOL    HW215498   8.531   6.332   7.995 -0.0953  0.1507  0.1911
37334SOL     OW15499   9.445   4.938   2.567 -0.1782  0.6444  0.3551
37334SOL    HW115500   9.507   4.997   2.610 -0.3671  0.5195  0.8092
37334SOL    HW215501   9.367   4.992   2.554  1.0864  1.9408 -3.4370
37335SOL     OW15502   5.320   9.330   5.150 -0.4144 -0.1435 -0.3956
37335SOL    HW115503   5.356   9.377   5.075  1.3743 -2.0607 -0.8502
37335SOL    HW215504   5.231   9.306   5.124 -0.2306  0.2522 -1.4229
37336SOL     OW15505   0.255   9.078   8.138 -0.1943  0.3712 -0.6461
37336SOL    HW115506   0.213   9.081   8.053  1.5128 -1.6254 -1.6682
37336SOL    HW215507   0.305   9.159   8.144  1.1218 -0.2315 -2.4391
37337SOL     OW15508   5.124   0.894   5.992 -0.0870  0.0239  0.3641
37337SOL    HW115509   5.204   0.928   5.951 -0.4677 -0.5769 -0.9420
37337SOL    HW215510   5.053   0.927   5.938 -0.7030  0.1183  1.2098
37338SOL     OW15511   6.467   3.110   1.840  0.3190 -0.1168  0.0278
37338SOL    HW115512   6.466   3.025   1.797  3.2412 -0.4074  0.2831
37338SOL    HW215513   6.447   3.092   1.932  0.4359 -0.4574 -0.0141
37339SOL     OW15514   5.682   2.017   7.725 -0.3110 -0.1215 -0.1092
37339SOL    HW115515   5.766   1.993   7.764 -0.9136 -0.6596  0.9008
37339SOL    HW215516   5.660   2.101   7.765 -0.0150  0.2717 -0.7636
37340SOL     OW15517   7.315   0.243   7.220  0.4830 -0.3088  0.1819
37340SOL    HW115518   7.406   0.272   7.227  0.4654 -0.5432  1.8929
37340SOL    HW215519   7.318   0.168   7.160  1.2048  0.4750 -0.7827
37341SOL     OW15520   7.660   6.391   6.277  0.0451 -0.1888 -0.2189
37341SOL    HW115521   7.660   6.486   6.286 -1.7476 -0.2896  2.3066
37341SOL    HW215522   7.607   6.374   6.199  0.7623  0.8794 -0.9527
37342SOL     OW15523   6.984   3.254   9.743 -0.1900  0.0895  0.5236
37342SOL    HW115524   6.899   3.284   9.711  0.8237  0.9175 -1.5833
37342SOL    HW215525   7.042   3.330   9.731  0.9982 -0.6839  1.2382
37343SOL     OW15526   0.268   7.271   5.502 -1.1247  0.2727 -0.0718
37343SOL    HW115527   0.265   7.186   5.458 -0.2298 -0.3151  0.9459
37343SOL    HW215528   0.236   7.254   5.591 -0.7015  0.9335  0.2204
37344SOL     OW15529  10.341   6.232   6.755  0.4234 -0.5412  0.0964
37344SOL    HW115530  10.306   6.154   6.713  0.5969 -1.0298  0.8333
37344SOL    HW215531  10.267   6.269   6.803  0.1716  0.1321 -0.7735
37345SOL     OW15532   8.422   2.076  10.431  0.3178 -0.1174 -0.1476
37345SOL    HW115533   8.446   2.149  10.490  3.7290 -1.3362  0.2195
37345SOL    HW215534   8.424   1.999  10.487 -2.4747 -0.6935 -0.7070
37346SOL     OW15535   4.450   8.923   3.915  0.0219 -0.3001  0.0359
37346SOL    HW115536   4.460   8.935   3.820  1.4607 -0.3451  0.1672
37346SOL    HW215537   4.525   8.869   3.940 -1.6125 -2.3437  0.8333
37347SOL     OW15538   7.836   4.854   2.099 -0.3250  0.7054  0.4450
37347SOL    HW115539   7.842   4.790   2.170 -1.0135  1.2009  0.9662
37347SOL    HW215540   7.927   4.878   2.081  0.2575 -2.5123 -1.7551
37348SOL     OW15541   0.379   2.581   4.228 -0.4284 -0.1951 -0.4480
37348SOL    HW115542   0.394   2.675   4.237  3.0503 -0.6562  0.0982
37348SOL    HW215543   0.448   2.551   4.169 -2.7439 -2.1752 -2.3559
37349SOL     OW15544   9.283   8.238  10.382 -0.8570 -0.1946  0.6333
37349SOL    HW115545   9.372   8.256  10.412 -0.8234 -1.2574  1.2378
37349SOL    HW215546   9.277   8.282  10.298 -0.3826  1.4431  1.4131
37350SOL     OW15547   9.716   6.394   0.306  0.1007 -0.4460  0.8533
37350SOL    HW115548   9.641   6.375   0.251  0.5650 -1.7858  0.6492
37350SOL    HW215549   9.787   6.342   0.270  1.2557  1.0613  0.8209
37351SOL     OW15550   3.132  10.096  10.844  0.3129  0.2800 -0.4612
37351SOL    HW115551   3.054  10.089  10.789 -0.3845 -0.3810  0.5631
37351SOL    HW215552   3.189  10.158  10.798 -0.8435  0.8312 -1.1928
37352SOL     OW15553  10.581   9.371  10.379  0.2131 -0.4470  0.1268
37352SOL    HW115554  10.604   9.293  10.430 -2.0078 -1.6567 -0.5945
37352SOL    HW215555  10.591   9.344  10.288  1.4253  0.8173 -0.1468
37353SOL     OW15556   8.744   2.698   7.497  0.9814  0.0950  0.1203
37353SOL    HW115557   8.680   2.769   7.504  0.4393 -0.4406  0.7441
37353SOL    HW215558   8.790   2.715   7.415 -1.0346 -0.3774 -1.1683
37354SOL     OW15559   3.108   7.873   4.921  0.0328  0.0613 -0.7619
37354SOL    HW115560   3.105   7.948   4.980 -0.6584  0.4737 -1.3008
37354SOL    HW215561   3.024   7.828   4.935  0.2681 -0.3815 -0.7409
37355SOL     OW15562   0.065   5.415   1.650 -0.2998  0.2651 -0.5543
37355SOL    HW115563  -0.016   5.465   1.640 -0.1184  0.5586 -0.5771
37355SOL    HW215564   0.118   5.468   1.710  0.8466  1.3109 -2.3807
37356SOL     OW15565   4.767   9.262   8.313 -0.2806 -0.0569 -0.0768
37356SOL    HW115566   4.817   9.189   8.349 -1.0316 -0.8684 -0.6348
37356SOL    HW215567   4.782   9.334   8.374  1.0919 -0.4406  0.0781
37357SOL     OW15568   9.143   9.808   9.498 -0.2550 -0.0492 -0.5313
37357SOL    HW115569   9.232   9.835   9.473  0.6357 -1.8636  0.4346
37357SOL    HW215570   9.130   9.725   9.453 -1.3597  0.0750 -0.4510
37358SOL     OW15571   0.607   7.218   5.232 -0.0888 -0.0127  0.2238
37358SOL    HW115572   0.540   7.287   5.222  0.4942  0.4631 -0.5056
37358SOL    HW215573   0.585   7.154   5.165 -0.0747 -0.0746  0.2789
37359SOL     OW15574   0.320   7.794   9.501  0.1512  0.0947  0.0467
37359SOL    HW115575   0.393   7.855   9.494 -0.3467  0.8285  1.0178
37359SOL    HW215576   0.360   7.710   9.519  0.7100  0.8422  2.6729
37360SOL     OW15577   4.259   8.625   4.283  0.8060 -0.1029 -0.1043
37360SOL    HW115578   4.301   8.594   4.363  1.1297 -0.8788 -0.5590
37360SOL    HW215579   4.256   8.720   4.292  0.2221 -0.2192  1.1203
37361SOL     OW15580   1.379   9.309   4.271  0.7161 -0.1709  0.2009
37361SOL    HW115581   1.394   9.225   4.315  0.5970 -0.9142 -1.1170
37361SOL    HW215582   1.296   9.339   4.305 -0.0298 -1.3924 -0.4406
37362SOL     OW15583   7.301   0.715  10.429 -0.2398  0.3598  0.9903
37362SOL    HW115584   7.361   0.788  10.445 -0.6156  0.5999  1.3157
37362SOL    HW215585   7.358   0.638  10.425  0.2853  0.7731 -0.3047
37363SOL     OW15586   5.039   5.148   6.216  0.3841 -0.1983 -0.7176
37363SOL    HW115587   5.073   5.232   6.184 -1.8848  0.9104 -0.3847
37363SOL    HW215588   4.955   5.138   6.171  0.7122 -2.4416 -0.9322
37364SOL     OW15589   9.224   1.666   9.494 -0.3055  0.5483  0.1212
37364SOL    HW115590   9.181   1.629   9.417 -1.8219 -0.4654  1.3841
37364SOL    HW215591   9.232   1.592   9.555 -1.8216  1.8325  2.0338
37365SOL     OW15592   4.202  10.659   3.015 -0.0268 -0.4567 -0.4478
37365SOL    HW115593   4.143  10.584   3.022  1.3574 -1.4871  0.6262
37365SOL    HW215594   4.186  10.692   2.926 -1.0666 -1.6644 -0.7565
37366SOL     OW15595   2.439   1.537   5.857 -0.5800  0.0465  0.9752
37366SOL    HW115596   2.505   1.532   5.787 -1.3317 -0.6983  0.3023
37366SOL    HW215597   2.484   1.502   5.934  0.7224  2.1844  1.2745
37367SOL     OW15598   3.993   3.640   4.864 -0.2680  0.1008 -0.4453
37367SOL    HW115599   4.008   3.630   4.770 -0.4918  0.9491 -0.5815
37367SOL    HW215600   4.081   3.645   4.902 -0.1789  0.4282 -0.6926
37368SOL     OW15601   1.292   8.943   8.936 -0.0631  0.0997 -0.0069
37368SOL    HW115602   1.334   8.936   9.022  0.5008 -0.1998 -0.3079
37368SOL    HW215603   1.326   8.870   8.886  0.2569  0.7536 -0.7672
37369SOL     OW15604   0.514   9.995   1.923  0.1986 -0.4739 -0.4991
37369SOL    HW115605   0.458   9.929   1.963 -0.7360  0.9677  0.6755
37369SOL    HW215606   0.462  10.076   1.926  0.9976  0.1922 -2.5675
37370SOL     OW15607   6.449   6.509   1.515 -0.0648 -0.2467  0.4969
37370SOL    HW115608   6.437   6.419   1.547 -2.0385  0.1733  1.0675
37370SOL    HW215609   6.422   6.565   1.588  3.0596  0.9378  0.8994
37371SOL     OW15610   5.367   9.893   9.250  0.0863  0.2301 -0.2264
37371SOL    HW115611   5.352   9.929   9.163  3.8273  1.3618 -0.5902
37371SOL    HW215612   5.374   9.799   9.236 -2.3359  0.0342 -0.5411
37372SOL     OW15613   4.056   2.099   7.856  0.5605  0.0666 -0.0076
37372SOL    HW115614   3.987   2.147   7.809 -1.8506 -1.9490  1.2007
37372SOL    HW215615   4.057   2.138   7.943  0.1874 -0.5678  0.2883
37373SOL     OW15616   5.510   3.961   4.909 -0.2474 -0.9948 -0.1469
37373SOL    HW115617   5.473   4.045   4.936  1.5823 -0.2470  0.2173
37373SOL    HW215618   5.479   3.898   4.975 -0.9938 -0.4579  0.0222
37374SOL     OW15619   5.209   7.675   8.446  0.1928 -0.2161  0.2832
37374SOL    HW115620   5.267   7.747   8.471 -0.0803  0.4055 -0.7553
37374SOL    HW215621   5.122   7.716   8.440 -0.0585 -0.7537  0.1895
37375SOL     OW15622   8.015   3.024   5.715 -0.5522  0.3138  0.6157
37375SOL    HW115623   8.070   2.974   5.655 -1.0149 -0.2439  0.6490
37375SOL    HW215624   8.074   3.049   5.786 -0.3813 -0.4866  0.7721
37376SOL     OW15625   2.273   1.083   2.586  0.7737  0.0416 -0.1962
37376SOL    HW115626   2.262   1.058   2.678  0.6159  0.7527 -0.0146
37376SOL    HW215627   2.285   1.001   2.540 -1.9652 -0.5975  0.0585
37377SOL     OW15628   1.930   7.423   7.956  0.6769  0.3312  0.0259
37377SOL    HW115629   1.951   7.462   7.871 -2.1831  2.0571 -0.0424
37377SOL    HW215630   2.008   7.374   7.980  2.5316  1.8385 -2.4074
37378SOL     OW15631   1.054   5.186   3.470  0.5287  0.4632  0.1312
37378SOL    HW115632   1.121   5.240   3.429 -0.5567  2.4600  0.8647
37378SOL    HW215633   0.974   5.239   3.466 -0.3153 -0.5493  2.0364
37379SOL     OW15634   7.714   3.132   2.576 -0.4092  0.0321  0.0210
37379SOL    HW115635   7.780   3.099   2.516  0.5061  0.5575  0.7145
37379SOL    HW215636   7.752   3.120   2.663 -0.6076  1.6452  0.3632
37380SOL     OW15637   9.882   3.757   7.395 -0.1114 -0.1233  0.0854
37380SOL    HW115638   9.796   3.734   7.359 -0.5362  1.5853 -0.0721
37380SOL    HW215639   9.886   3.710   7.479 -1.4763  0.2688  0.3941
37381SOL     OW15640   5.034   9.031   3.978  0.1536 -0.6219  0.1581
37381SOL    HW115641   5.052   9.074   4.062  1.0173  0.7628 -0.7059
37381SOL    HW215642   4.973   8.960   4.001 -0.5838  0.4546  1.7717
37382SOL     OW15643   0.226   7.050   4.294  0.1405  0.0287  0.1806
37382SOL    HW115644   0.226   6.967   4.247 -0.5823  0.1896 -0.1272
37382SOL    HW215645   0.316   7.063   4.322  0.0565 -1.4403  1.2595
37383SOL     OW15646   6.266   6.783   1.523 -0.8487  0.2055  0.1568
37383SOL    HW115647   6.232   6.703   1.563  0.9872  0.2099  1.8672
37383SOL    HW215648   6.196   6.847   1.535 -0.9452 -0.1968  2.1294
37384SOL     OW15649  10.471   7.292   7.912 -0.2887  0.1998 -0.2260
37384SOL    HW115650  10.535   7.337   7.857 -0.9851  0.3772 -0.9140
37384SOL    HW215651  10.493   7.317   8.001  0.1422  0.8534 -0.5121
37385SOL     OW15652   6.392   1.615   9.944  0.1427  0.7136 -0.5979
37385SOL    HW115653   6.321   1.679   9.953  0.7708  1.2859  0.5740
37385SOL    HW215654   6.347   1.531   9.935 -0.6977  1.2874 -2.1862
37386SOL     OW15655   6.943   5.559   6.760 -0.5631  0.6255 -0.0169
37386SOL    HW115656   6.920   5.621   6.829 -0.3373  0.5750  0.1054
37386SOL    HW215657   7.036   5.574   6.744  0.3683 -1.8524  2.2921
37387SOL     OW15658   9.373   2.831   8.151 -0.0054 -0.0165 -0.0482
37387SOL    HW115659   9.303   2.766   8.158 -1.1319  1.1722  0.1639
37387SOL    HW215660   9.353   2.878   8.070  0.6868  0.2072 -0.0939
37388SOL     OW15661   6.596   4.183   3.868  0.3524  0.2141 -0.3505
37388SOL    HW115662   6.640   4.171   3.952  1.1868  0.9581 -0.6595
37388SOL    HW215663   6.621   4.107   3.816  1.0356  0.4696 -0.4101
37389SOL     OW15664  10.374   7.280  10.095  0.4789  0.1606 -0.2417
37389SOL    HW115665  10.392   7.372  10.114 -1.6296  0.3237  1.3426
37389SOL    HW215666  10.451   7.250  10.047  1.4503  2.5997 -0.3578
37390SOL     OW15667   3.501   0.783  10.363 -0.1936 -0.8648  0.0013
37390SOL    HW115668   3.571   0.781  10.428 -0.2566 -0.3388  0.0913
37390SOL    HW215669   3.514   0.866  10.316 -1.9761  0.3056  1.3991
37391SOL     OW15670   1.080   6.832   4.212 -0.0887 -0.0777 -0.0128
37391SOL    HW115671   1.010   6.767   4.207 -1.7011  1.4788  0.8730
37391SOL    HW215672   1.119   6.832   4.125  1.4603 -3.6956  0.5250
37392SOL     OW15673   1.138  10.129   4.204  0.5641 -0.0561 -0.1559
37392SOL    HW115674   1.135  10.091   4.117 -0.6728  1.5105 -0.8740
37392SOL    HW215675   1.077  10.076   4.256  0.1814 -0.1140 -0.6574
37393SOL     OW15676   7.689   7.408   7.829 -0.2917  0.2141 -0.2395
37393SOL    HW115677   7.651   7.436   7.912 -0.2453  0.0627 -0.1672
37393SOL    HW215678   7.671   7.480   7.768 -0.3697  0.3020 -0.1110
37394SOL     OW15679   0.910   2.059   1.574 -0.2385 -0.7059 -0.4940
37394SOL    HW115680   0.953   2.063   1.489 -1.2142  0.4793 -0.9693
37394SOL    HW215681   0.980   2.076   1.637  0.0482  1.2232 -1.2530
37395SOL     OW15682   8.226   4.694   0.353  0.0596 -0.0505 -0.1003
37395SOL    HW115683   8.306   4.722   0.398 -0.4132 -1.3236  1.6297
37395SOL    HW215684   8.156   4.716   0.414 -0.6142 -1.7826 -0.2023
37396SOL     OW15685   3.237   7.602   2.387 -0.4424 -0.1190  0.0597
37396SOL    HW115686   3.317   7.624   2.435 -0.2545  2.8213 -1.3577
37396SOL    HW215687   3.265   7.536   2.324  0.2079 -1.0638  1.2974
37397SOL     OW15688   9.972   9.756  10.482  0.5389  0.1676  0.0633
37397SOL    HW115689  10.040   9.730  10.421 -0.8926 -2.6459 -0.5130
37397SOL    HW215690   9.896   9.775  10.426  0.2142  1.0918  0.7963
37398SOL     OW15691   1.556   7.656   2.157  0.2995 -0.2858 -0.1361
37398SOL    HW115692   1.500   7.708   2.099  0.6843 -1.4745 -1.6536
37398SOL    HW215693   1.508   7.652   2.239 -1.2779 -0.2651 -1.0122
37399SOL     OW15694   6.225   6.654   2.347 -0.1223 -0.6722  0.0515
37399SOL    HW115695   6.258   6.567   2.369 -0.5363 -1.0480 -0.8002
37399SOL    HW215696   6.262   6.711   2.415  1.9202 -1.1289 -0.6148
37400SOL     OW15697   5.909   5.967   7.444  0.5227  0.5608 -0.2808
37400SOL    HW115698   5.973   5.965   7.373  0.5824  1.0772 -0.2442
37400SOL    HW215699   5.885   5.875   7.457  0.8224  0.4215 -0.6849
37401SOL     OW15700   1.963   5.511   1.865 -0.2982 -0.1313 -0.2616
37401SOL    HW115701   1.907   5.466   1.928  0.2386 -1.5295 -0.7366
37401SOL    HW215702   1.922   5.596   1.853  0.0940  0.5858  2.6778
37402SOL     OW15703   7.060   1.015   2.331  0.1909 -0.1385  0.0378
37402SOL    HW115704   7.071   0.940   2.274  1.4044  0.1263 -0.0909
37402SOL    HW215705   6.992   1.068   2.289 -0.2109 -0.8384 -0.1984
37403SOL     OW15706   6.186   1.371   2.711 -0.1048 -0.0817  0.2424
37403SOL    HW115707   6.205   1.280   2.690 -0.5436 -0.2580  0.5966
37403SOL    HW215708   6.267   1.418   2.690  0.0448 -0.5165 -0.1580
37404SOL     OW15709   2.763  10.045   8.851 -0.2160 -0.1366  0.1565
37404SOL    HW115710   2.738   9.956   8.825 -1.9280  0.6922 -1.2211
37404SOL    HW215711   2.858  10.048   8.838  0.1118 -2.1528  1.5884
37405SOL     OW15712   1.952   9.015   7.799 -0.3089  0.0829 -0.0234
37405SOL    HW115713   1.943   8.937   7.743 -1.2339  0.4772 -0.4548
37405SOL    HW215714   2.011   9.073   7.751  1.5847 -0.9268  0.9859
37406SOL     OW15715   8.371   3.926  10.662 -0.7387  0.8877  0.2279
37406SOL    HW115716   8.386   3.840  10.701 -0.2073  1.4006  1.1787
37406SOL    HW215717   8.277   3.941  10.673 -1.1308 -0.2350 -1.3656
37407SOL     OW15718   7.196   6.538   5.359  0.0482  0.0961 -0.2786
37407SOL    HW115719   7.194   6.630   5.385  0.1565 -0.0606  0.3173
37407SOL    HW215720   7.229   6.492   5.437  0.2019 -0.4200 -0.6409
37408SOL     OW15721  10.153  10.303  10.760  0.5727  0.2584  0.2093
37408SOL    HW115722  10.111  10.223  10.727 -1.0767  0.8832  0.6467
37408SOL    HW215723  10.118  10.312  10.849  2.5523  0.2414  1.0284
37409SOL     OW15724   0.650  10.316   5.970  0.0427  0.2368 -0.2816
37409SOL    HW115725   0.593  10.389   5.946 -0.9506 -0.0181  1.1681
37409SOL    HW215726   0.612  10.240   5.926 -0.5159  0.1386  0.3608
37410SOL     OW15727   8.640   4.444   9.902  0.1388  0.1154  0.4603
37410SOL    HW115728   8.593   4.436   9.985 -0.9366 -1.4065 -0.2528
37410SOL    HW215729   8.732   4.444   9.927 -0.1707  1.6072  1.7813
37411SOL     OW15730  10.213   3.225   9.838 -0.1584  0.2061  0.4743
37411SOL    HW115731  10.278   3.157   9.857  0.9998  1.1304 -0.0328
37411SOL    HW215732  10.149   3.182   9.781  0.4645 -0.5017  0.2940
37412SOL     OW15733   1.374   1.833   9.800 -0.3784  0.4654  0.8460
37412SOL    HW115734   1.468   1.827   9.785 -0.5347 -1.9398  0.4882
37412SOL    HW215735   1.344   1.895   9.733  0.5736 -1.0966 -1.1524
37413SOL     OW15736   8.246   9.895   9.605  1.2115  0.5532  0.4640
37413SOL    HW115737   8.251   9.959   9.534  0.3331 -0.9922 -1.0960
37413SOL    HW215738   8.317   9.833   9.586  0.3307 -0.4414  0.3022
37414SOL     OW15739   1.975   1.003   1.028 -0.0596  0.0614  0.2826
37414SOL    HW115740   1.934   1.086   1.052 -1.3560 -0.9299  1.6064
37414SOL    HW215741   1.910   0.958   0.975 -0.3421 -1.1080  1.5748
37415SOL     OW15742   4.845   1.819  10.230  0.4839  0.0760  0.4734
37415SOL    HW115743   4.891   1.881  10.174  1.3925 -0.9261  0.0915
37415SOL    HW215744   4.910   1.790  10.294 -0.6989  1.7455  2.5829
37416SOL     OW15745   9.649   4.465   4.632 -0.2532  0.3161 -0.4420
37416SOL    HW115746   9.731   4.418   4.622 -1.2441 -1.3648 -1.1169
37416SOL    HW215747   9.590   4.402   4.674 -2.2332  0.1177 -3.2253
37417SOL     OW15748   5.074  10.594   7.957  0.2314  0.1105 -0.1852
37417SOL    HW115749   5.068  10.526   8.023  0.2564 -0.6840 -0.9761
37417SOL    HW215750   5.008  10.659   7.982  0.2295 -0.1823  0.5912
37418SOL     OW15751   6.224   8.389   0.437  0.4944  0.0420 -0.0234
37418SOL    HW115752   6.274   8.385   0.356 -0.4914 -0.0903 -0.6498
37418SOL    HW215753   6.203   8.297   0.456  0.9432  0.0498  0.5295
37419SOL     OW15754   5.830   0.031   2.497 -0.5857 -0.0334  0.2718
37419SOL    HW115755   5.887  -0.046   2.487 -0.4719 -0.0474  0.9926
37419SOL    HW215756   5.841   0.080   2.415 -1.0535 -1.0404 -0.4186
37420SOL     OW15757  10.348   1.070   8.175  0.2716  0.6131  0.3200
37420SOL    HW115758  10.415   1.041   8.237 -0.0143  1.2198  0.9372
37420SOL    HW215759  10.295   1.132   8.226 -0.4549  0.5086 -0.3045
37421SOL     OW15760   0.257   6.254   7.536  0.1009 -0.1368  0.1841
37421SOL    HW115761   0.194   6.316   7.499 -1.4877 -0.3294  2.3633
37421SOL    HW215762   0.314   6.307   7.592  0.3302 -0.2965  0.1040
37422SOL     OW15763   4.151  10.873   3.956  0.1623  0.3847 -0.1637
37422SOL    HW115764   4.187  10.945   3.905 -1.0002  1.5204  0.5736
37422SOL    HW215765   4.091  10.914   4.017  0.4930 -1.0791  1.2126
37423SOL     OW15766   4.753   0.437   0.713  0.2550  0.5378 -0.2037
37423SOL    HW115767   4.690   0.487   0.765 -0.4573 -0.3499 -0.1731
37423SOL    HW215768   4.829   0.494   0.705  1.1109  0.0912  3.3089
37424SOL     OW15769  10.953   5.698   6.343  0.2116 -0.2855  0.3643
37424SOL    HW115770  10.999   5.617   6.319 -1.1192 -0.7533 -0.7000
37424SOL    HW215771  10.876   5.700   6.286 -1.0268  0.5506  1.9800
37425SOL     OW15772  11.003   3.451   2.972  0.0783  0.0821  0.1672
37425SOL    HW115773  11.012   3.526   2.914 -0.9543  0.7229  0.7977
37425SOL    HW215774  10.910   3.451   2.997  0.2647 -0.8352  0.9241
37426SOL     OW15775   9.151   3.324   3.764  0.1168  0.1260 -0.4627
37426SOL    HW115776   9.120   3.252   3.708  0.0891  1.9309 -2.9368
37426SOL    HW215777   9.243   3.336   3.738  0.7208 -0.2205  1.3422
37427SOL     OW15778   7.815   5.613   7.031 -0.0414  0.3120 -0.0238
37427SOL    HW115779   7.779   5.667   7.102 -1.1860  1.2120 -1.2389
37427SOL    HW215780   7.819   5.672   6.956 -1.0788 -1.2198 -1.3261
37428SOL     OW15781   6.286   8.336   8.753 -0.0813 -0.5859 -0.3673
37428SOL    HW115782   6.375   8.302   8.742  0.9395  1.9152 -0.4718
37428SOL    HW215783   6.268   8.382   8.671  0.3816  2.7635  1.2610
37429SOL     OW15784  10.266   8.812   5.694  0.7109 -0.0813 -0.3546
37429SOL    HW115785  10.357   8.824   5.667  0.6736  0.4467 -0.2547
37429SOL    HW215786  10.271   8.745   5.763  1.0896  0.3137  0.0108
37430SOL     OW15787  10.882   4.138   1.935 -0.3301 -0.2472  0.6474
37430SOL    HW115788  10.904   4.231   1.943  3.9372 -1.1269  1.1014
37430SOL    HW215789  10.907   4.116   1.845  1.0969 -1.4418  1.3136
37431SOL     OW15790   2.652   7.228   8.329 -0.0305  0.3917 -0.4253
37431SOL    HW115791   2.588   7.164   8.359 -1.7420  2.4450  0.5260
37431SOL    HW215792   2.625   7.249   8.240  1.1853 -0.9158 -1.1539
37432SOL     OW15793   3.117   9.526   8.595 -0.1950 -0.3747 -0.3332
37432SOL    HW115794   3.152   9.520   8.506  2.5795 -1.0859  0.7122
37432SOL    HW215795   3.101   9.435   8.621 -0.6280 -0.1970  0.0457
37433SOL     OW15796   9.329  10.233   3.114  0.0910 -0.7742 -0.1342
37433SOL    HW115797   9.259  10.281   3.157  0.5678 -0.7302  0.6078
37433SOL    HW215798   9.293  10.146   3.096 -0.0326 -0.8672  0.5648
37434SOL     OW15799   5.560   1.715   8.030 -0.3277 -0.1082 -0.7686
37434SOL    HW115800   5.521   1.721   7.942  1.0882  0.2574 -1.4057
37434SOL    HW215801   5.581   1.806   8.053  1.1599 -0.3679 -0.9596
37435SOL     OW15802   6.846   9.900   8.738  0.4316 -0.0866 -0.1893
37435SOL    HW115803   6.845   9.984   8.783 -0.3392 -1.0655  1.7009
37435SOL    HW215804   6.756   9.887   8.707  1.1184  0.9826 -2.9574
37436SOL     OW15805   2.559   3.612   6.354 -0.4062 -0.0767 -0.3428
37436SOL    HW115806   2.629   3.669   6.322  1.0967 -1.7165 -0.1965
37436SOL    HW215807   2.587   3.586   6.442 -1.0223 -1.0154 -0.4049
37437SOL     OW15808   0.724   5.525   9.970  0.8755  0.5216  0.4513
37437SOL    HW115809   0.719   5.509  10.065 -1.2628  2.7972  0.8231
37437SOL    HW215810   0.697   5.442   9.930  2.3227 -0.6513  1.7621
37438SOL     OW15811   6.371   6.699   4.527 -0.0332  0.5634 -0.0385
37438SOL    HW115812   6.329   6.639   4.466 -1.2607  1.4825 -0.1522
37438SOL    HW215813   6.361   6.785   4.486 -1.3159  1.2662  1.6380
37439SOL     OW15814   0.106   9.300  10.105  0.3486  0.5261 -0.1667
37439SOL    HW115815   0.196   9.325  10.126  0.3326 -0.7229  1.5141
37439SOL    HW215816   0.091   9.217  10.151 -0.6811 -0.9169 -2.8627
37440SOL     OW15817  10.925   9.249  10.812 -0.2005 -0.5732  0.1234
37440SOL    HW115818  10.834   9.219  10.802 -0.1864 -0.2933 -0.9210
37440SOL    HW215819  10.952   9.212  10.896 -1.6767  0.3878  1.0725
37441SOL     OW15820   5.962   8.974   5.666 -0.1726 -0.4942 -0.3922
37441SOL    HW115821   5.919   8.980   5.751 -0.4814 -2.1345 -0.3971
37441SOL    HW215822   5.926   8.895   5.626 -0.3785  0.4692 -2.2532
37442SOL     OW15823   5.755   0.557   1.272 -0.1807 -0.3415 -0.0463
37442SOL    HW115824   5.700   0.583   1.346 -0.3638 -3.2831  0.9708
37442SOL    HW215825   5.694   0.550   1.198 -0.3726  0.5781  0.0151
37443SOL     OW15826   9.019   5.602   3.131  0.2075 -0.4946 -0.1765
37443SOL    HW115827   9.021   5.543   3.207  0.6927  0.3189  0.4618
37443SOL    HW215828   8.950   5.566   3.075  0.2856 -1.4853  0.3397
37444SOL     OW15829   0.142   2.404   0.155  0.5337 -0.1726 -0.1634
37444SOL    HW115830   0.221   2.415   0.103  1.4112 -0.1910  1.1122
37444SOL    HW215831   0.072   2.440   0.101  2.0197  4.1161  0.4166
37445SOL     OW15832   2.160   2.592   9.581 -0.0089 -0.5477 -0.1622
37445SOL    HW115833   2.079   2.571   9.535  0.6425  0.3254 -1.7726
37445SOL    HW215834   2.133   2.648   9.654 -0.9369 -1.0246 -0.1297
37446SOL     OW15835   0.421   2.642   7.270  0.4060 -0.4351 -0.7656
37446SOL    HW115836   0.423   2.635   7.366  1.1017 -0.5377 -0.7812
37446SOL    HW215837   0.513   2.637   7.244  0.2992  0.4987 -1.3761
37447SOL     OW15838   1.215   8.781   8.285  0.0487 -0.5598 -0.2942
37447SOL    HW115839   1.137   8.735   8.317 -0.6314  1.2866  0.8751
37447SOL    HW215840   1.187   8.821   8.203  0.6161 -2.0887 -1.2706
37448SOL     OW15841   0.445   9.272   8.241 -0.9486  0.3693 -0.2294
37448SOL    HW115842   0.492   9.314   8.314 -0.3338 -1.7284  0.6553
37448SOL    HW215843   0.513   9.221   8.196 -1.7223  0.0970 -1.1123
37449SOL     OW15844   8.569   8.989   6.627  0.5413  0.1495 -0.1518
37449SOL    HW115845   8.537   8.899   6.622  0.4684  0.2164 -1.2132
37449SOL    HW215846   8.491   9.041   6.644  0.2966  0.1630 -1.2244
37450SOL     OW15847   9.798   1.638   8.755  0.3884 -0.3491  0.1026
37450SOL    HW115848   9.846   1.680   8.827 -0.2316 -1.7796  1.4225
37450SOL    HW215849   9.716   1.686   8.750 -0.6565 -1.7644  2.1340
37451SOL     OW15850  10.967   6.313   0.180  0.3713  0.5618  0.1587
37451SOL    HW115851  10.927   6.229   0.155  2.3193 -0.2826 -0.2678
37451SOL    HW215852  10.963   6.366   0.100 -2.3182  1.5811  0.8288
37452SOL     OW15853   6.755   8.133   8.460 -0.8523 -0.3136  0.1637
37452SOL    HW115854   6.798   8.056   8.497  0.2384  0.3553  0.3308
37452SOL    HW215855   6.717   8.178   8.536  1.4275  1.0847  0.5535
37453SOL     OW15856   8.953  10.349   0.529 -0.0538 -0.1209 -0.0342
37453SOL    HW115857   9.035  10.306   0.552  0.5058  0.6064 -0.6274
37453SOL    HW215858   8.909  10.288   0.469  1.3666  0.6725 -1.9955
37454SOL     OW15859   7.495   9.195   3.805  0.0138  0.3263 -0.3028
37454SOL    HW115860   7.572   9.193   3.862  0.9555  1.0395 -1.4767
37454SOL    HW215861   7.421   9.184   3.864  0.9837  0.1448  0.9372
37455SOL     OW15862   9.022   5.327   0.242  0.2603  0.0296  0.2115
37455SOL    HW115863   9.022   5.335   0.337 -0.5232  0.4572  0.1840
37455SOL    HW215864   8.992   5.412   0.210 -0.0050 -0.2803 -0.3921
37456SOL     OW15865   0.296   7.182   2.030 -0.6818  0.5830  0.0376
37456SOL    HW115866   0.257   7.269   2.024 -1.0815  0.3413 -1.0499
37456SOL    HW215867   0.258   7.133   1.957  0.9516  0.0714 -0.5157
37457SOL     OW15868   5.032   4.546   9.501  0.1939 -0.0782 -0.1485
37457SOL    HW115869   4.975   4.554   9.424 -1.1561 -1.4858  0.6491
37457SOL    HW215870   5.096   4.479   9.477 -0.9118 -1.3392  0.2984
37458SOL     OW15871   2.398   5.732   1.959  0.5954 -0.1414  0.0372
37458SOL    HW115872   2.346   5.673   1.904  0.0846  0.7293 -0.4336
37458SOL    HW215873   2.483   5.689   1.965 -0.1745 -1.6043  0.8596
37459SOL     OW15874   8.881   9.896   4.153  0.3475  0.1410 -0.4178
37459SOL    HW115875   8.966   9.909   4.111  0.5640 -1.8789 -0.6958
37459SOL    HW215876   8.828   9.852   4.086 -0.0728 -0.9703  0.6230
37460SOL     OW15877   3.474   7.813   9.338 -0.2306  0.2937 -0.0977
37460SOL    HW115878   3.506   7.901   9.357  1.3415 -0.2115 -0.2500
37460SOL    HW215879   3.386   7.810   9.376  1.0752  0.7337  3.3061
37461SOL     OW15880   7.383   9.564   8.049 -0.2724 -0.2431 -0.0317
37461SOL    HW115881   7.311   9.605   8.098 -0.3346  0.0756 -0.3870
37461SOL    HW215882   7.462   9.589   8.096 -0.4318 -1.1214  0.7340
37462SOL     OW15883  10.077   3.419   1.160  0.7463 -0.5752  0.7141
37462SOL    HW115884  10.013   3.414   1.232  1.3431  0.0969  1.3086
37462SOL    HW215885  10.072   3.511   1.131 -0.1492 -1.0406 -0.7386
37463SOL     OW15886  10.174   0.705   3.766 -0.3031  0.1186  0.1492
37463SOL    HW115887  10.130   0.660   3.838 -1.0423 -0.0675 -0.4016
37463SOL    HW215888  10.247   0.648   3.742 -0.1360  0.1171  0.6602
37464SOL     OW15889   3.088   5.829   4.253  0.1880  0.2287 -0.0634
37464SOL    HW115890   3.138   5.872   4.322  0.7354  0.4814 -0.5963
37464SOL    HW215891   3.143   5.755   4.227  0.2895  0.5030 -0.6489
37465SOL     OW15892   3.501   4.460   9.884 -0.3333 -0.4689  0.6773
37465SOL    HW115893   3.558   4.390   9.853  1.4929  1.2371 -0.0717
37465SOL    HW215894   3.417   4.442   9.843  0.1794 -2.0157  0.2363
37466SOL     OW15895   3.104   8.733   8.123  1.0480  0.0462 -0.3581
37466SOL    HW115896   3.178   8.677   8.098  1.2648 -1.2442  2.7611
37466SOL    HW215897   3.145   8.815   8.150  1.2643 -0.2257  0.1666
37467SOL     OW15898   8.417   1.792   1.394  0.0249  0.0831 -0.0981
37467SOL    HW115899   8.361   1.726   1.354  1.9814  0.1840 -3.4194
37467SOL    HW215900   8.489   1.741   1.434 -0.6161  0.1023  1.1354
37468SOL     OW15901   6.680   9.358   4.768 -0.2754 -0.1649 -0.6777
37468SOL    HW115902   6.723   9.370   4.683 -0.7033 -0.0716 -0.8841
37468SOL    HW215903   6.724   9.283   4.807  0.4707  0.2885 -0.6331
37469SOL     OW15904  10.320   8.062   5.172  0.7712 -0.1473 -0.0795
37469SOL    HW115905  10.229   8.038   5.150  1.1846 -0.6444 -1.3578
37469SOL    HW215906  10.314   8.153   5.200  0.0505  0.3105 -1.5823
37470SOL     OW15907   6.653  10.848   4.827 -0.2924  0.1017 -0.2445
37470SOL    HW115908   6.671  10.935   4.793  1.3353 -0.2919 -0.4376
37470SOL    HW215909   6.610  10.802   4.755 -0.0162  0.3499 -0.5666
37471SOL     OW15910   1.610   7.188   0.482  0.0199  0.2029  0.1078
37471SOL    HW115911   1.631   7.178   0.575  0.1592  1.3445  0.2094
37471SOL    HW215912   1.695   7.202   0.440  0.0525 -1.1210 -0.3268
37472SOL     OW15913  10.781   1.059   5.706 -0.5198  0.0906 -0.4466
37472SOL    HW115914  10.807   1.151   5.710  0.1965 -0.1346  0.4299
37472SOL    HW215915  10.749   1.047   5.617 -2.1297  1.5883 -0.1379
37473SOL     OW15916   1.917   5.197   9.017  0.4716  0.1248 -0.2479
37473SOL    HW115917   1.973   5.130   9.057  0.2521 -0.8058 -1.4514
37473SOL    HW215918   1.975   5.273   9.005  0.6098  0.3348  1.5261
37474SOL     OW15919   1.135   4.113  10.779 -0.2802 -0.5802  0.1848
37474SOL    HW115920   1.056   4.147  10.821  1.0565  1.6555  0.9973
37474SOL    HW215921   1.152   4.030  10.824 -1.2050 -0.2705  1.1363
37475SOL     OW15922   7.534   6.255   6.840 -1.1169 -0.0636 -0.3013
37475SOL    HW115923   7.515   6.343   6.805  0.5423  1.0105  1.3069
37475SOL    HW215924   7.488   6.252   6.923  1.4052  0.6471  1.2375
37476SOL     OW15925   5.880   7.195   2.454  0.1412  0.0286  0.7040
37476SOL    HW115926   5.950   7.189   2.519 -0.5503  0.1214  1.4662
37476SOL    HW215927   5.834   7.112   2.460  0.0215  0.0694  0.3841
37477SOL     OW15928  10.194   2.424   0.949  0.5103  0.1500  0.1298
37477SOL    HW115929  10.127   2.485   0.920  1.7858  0.2091 -3.2047
37477SOL    HW215930  10.261   2.479   0.990 -0.0273  0.4883  0.5629
37478SOL     OW15931  11.007   7.360  10.367  0.1472 -0.5598 -0.2115
37478SOL    HW115932  11.085   7.310  10.391  1.6258  1.4182 -0.6010
37478SOL    HW215933  10.933   7.303  10.390  1.5697 -1.2789  3.1980
37479SOL     OW15934   9.425   4.183   0.360 -0.1807 -0.0344  0.5048
37479SOL    HW115935   9.515   4.188   0.392  0.3880  0.2787 -1.0542
37479SOL    HW215936   9.397   4.274   0.353 -1.2843 -0.1297  2.5980
37480SOL     OW15937   5.575   2.296   9.796  0.3709 -0.3583 -0.0925
37480SOL    HW115938   5.496   2.251   9.826  0.7827 -0.3760  1.0151
37480SOL    HW215939   5.647   2.240   9.826  0.8419  0.3086  0.0450
37481SOL     OW15940  10.409   1.690   2.888  0.5823 -0.2023  1.0775
37481SOL    HW115941  10.483   1.742   2.857 -0.6932  0.2691 -1.4290
37481SOL    HW215942  10.366   1.746   2.953  0.3199  1.1195 -0.1842
37482SOL     OW15943   3.513   7.464   9.697 -0.1908 -0.0010  0.6431
37482SOL    HW115944   3.597   7.509   9.685 -0.0609 -0.1848  0.8580
37482SOL    HW215945   3.453   7.532   9.726 -0.3253  0.3052 -0.3021
37483SOL     OW15946   0.374   4.052   1.569 -0.0697 -0.2587 -0.2425
37483SOL    HW115947   0.445   4.012   1.619 -0.4527 -1.2937 -0.5113
37483SOL    HW215948   0.340   3.981   1.514 -0.8970  0.3856 -0.5786
37484SOL     OW15949   7.129   4.678   6.499  0.6930  0.1338  0.1190
37484SOL    HW115950   7.059   4.613   6.500 -0.9122  1.7562 -0.5627
37484SOL    HW215951   7.206   4.630   6.529 -0.3878 -2.0716 -0.3493
37485SOL     OW15952   3.002   8.044   0.048 -0.1341 -0.0474 -0.2440
37485SOL    HW115953   3.018   8.101  -0.028  1.0850 -1.1197 -0.8221
37485SOL    HW215954   3.004   7.955   0.012  0.0230 -0.5491  0.9734
37486SOL     OW15955   8.631   4.259   1.565 -0.0793  0.2023  0.8616
37486SOL    HW115956   8.679   4.328   1.518  2.6611 -0.2481  2.7156
37486SOL    HW215957   8.563   4.306   1.613 -0.9261  1.0326 -1.0709
37487SOL     OW15958   5.776   3.294   3.295  0.4948 -0.4508  0.4007
37487SOL    HW115959   5.820   3.243   3.227  1.6605 -0.1061  0.8562
37487SOL    HW215960   5.778   3.384   3.263  1.9191 -0.1344  1.2682
37488SOL     OW15961   8.310  10.868   2.154 -0.4332 -0.1657 -0.7801
37488SOL    HW115962   8.231  10.912   2.187 -0.8498 -1.0047 -0.6282
37488SOL    HW215963   8.279  10.817   2.080 -0.4828 -2.1400  0.5131
37489SOL     OW15964   4.780   4.804   0.738 -0.2875 -0.1605  0.4932
37489SOL    HW115965   4.758   4.862   0.811 -0.4428 -0.8116  0.9652
37489SOL    HW215966   4.698   4.795   0.689 -0.1159  0.5050  0.0636
37490SOL     OW15967   7.868   3.828   6.712  0.0792 -0.2836 -0.5582
37490SOL    HW115968   7.831   3.910   6.744  0.0910 -0.8688  1.0760
37490SOL    HW215969   7.805   3.796   6.648 -1.3683 -0.3521  0.8389
37491SOL     OW15970   5.824   1.297   2.396 -0.5946 -0.5184  0.3666
37491SOL    HW115971   5.915   1.286   2.424 -0.6934  0.5726  1.1590
37491SOL    HW215972   5.776   1.228   2.442  0.0047 -1.9604 -1.0810
37492SOL     OW15973   0.831   1.467   8.960  0.1519  0.5143  0.1813
37492SOL    HW115974   0.758   1.466   9.022 -1.1140  1.6358 -1.2112
37492SOL    HW215975   0.790   1.451   8.875  2.0936 -3.1546 -0.2363
37493SOL     OW15976  10.436   3.044   1.882 -0.7403 -0.1152  0.3908
37493SOL    HW115977  10.412   3.058   1.790  0.3561  0.3568  0.1614
37493SOL    HW215978  10.483   3.124   1.907 -0.7256 -0.3844  1.2653
37494SOL     OW15979   1.035   0.643   0.238  0.2228 -0.0550  0.8053
37494SOL    HW115980   0.944   0.660   0.211  0.4600  0.7561  0.4980
37494SOL    HW215981   1.030   0.637   0.333 -0.1425  0.0705  0.7988
37495SOL     OW15982   4.465   4.760   1.252  0.1771  0.5782  0.1658
37495SOL    HW115983   4.511   4.842   1.231 -0.6215  0.7733 -0.9279
37495SOL    HW215984   4.421   4.778   1.335  0.4135  1.0803  0.1897
37496SOL     OW15985  10.611  10.436   0.701 -0.1666  0.0031 -0.4187
37496SOL    HW115986  10.599  10.431   0.607  1.4742 -0.4971 -0.6340
37496SOL    HW215987  10.624  10.529   0.719  1.3536 -0.0652 -0.9822
37497SOL     OW15988   0.478   1.866   4.800  0.6564 -0.1803 -0.1851
37497SOL    HW115989   0.418   1.883   4.872  0.3159 -1.1094 -0.2310
37497SOL    HW215990   0.440   1.912   4.725  0.3314 -0.2449 -0.0621
37498SOL     OW15991   4.771   8.371   0.733  0.3150 -0.9130 -0.1311
37498SOL    HW115992   4.770   8.372   0.637  1.9226 -0.4575 -0.1789
37498SOL    HW215993   4.696   8.317   0.757 -0.5057 -0.5061 -1.6198
37499SOL     OW15994   7.689   2.823   3.495  0.2071  0.2070 -0.2638
37499SOL    HW115995   7.600   2.847   3.469  0.7170  0.9085 -1.4381
37499SOL    HW215996   7.704   2.871   3.577 -0.7269 -0.4739  0.3285
37500SOL     OW15997   4.391   7.396   1.075  0.6005  0.3657  0.3051
37500SOL    HW115998   4.312   7.343   1.062  0.0455  1.0843  0.7000
37500SOL    HW215999   4.458   7.351   1.023 -0.2735  0.2252 -0.7518
37501SOL     OW16000   0.061   1.219   6.627 -0.0337  0.0335 -0.1320
37501SOL    HW116001   0.016   1.217   6.712  0.9524  0.1054  0.4029
37501SOL    HW216002   0.013   1.156   6.574 -2.2895  1.7927 -0.3833
37502SOL     OW16003   0.487   3.473   5.805  0.4080 -0.1317 -0.4041
37502SOL    HW116004   0.521   3.435   5.724 -0.2669  0.6463 -1.0711
37502SOL    HW216005   0.426   3.406   5.838 -0.7802  0.3181 -1.5761
37503SOL     OW16006   6.578   2.212   2.904  0.2340 -0.0517  0.2169
37503SOL    HW116007   6.550   2.125   2.934 -0.7842 -0.1235 -0.8829
37503SOL    HW216008   6.522   2.273   2.951  0.2771 -0.0384  0.2515
37504SOL     OW16009   9.828   9.134   9.076 -0.1407 -0.6598  0.3732
37504SOL    HW116010   9.867   9.084   9.148 -0.5501 -0.0914  0.9981
37504SOL    HW216011   9.776   9.202   9.119 -1.6490 -1.2629 -0.4552
37505SOL     OW16012   4.095   9.164   0.132  0.1125  0.3876 -0.0516
37505SOL    HW116013   4.035   9.097   0.100  1.8589 -0.2915 -2.1275
37505SOL    HW216014   4.038   9.236   0.158 -1.8176 -1.7834  2.1621
37506SOL     OW16015   8.045  10.062   0.262  0.4675  0.2400  0.2321
37506SOL    HW116016   8.083   9.975   0.273  0.0607 -0.0648 -0.6975
37506SOL    HW216017   8.052  10.080   0.169 -0.2694  0.8304  0.2801
37507SOL     OW16018   4.392   5.144   6.387 -0.0025 -0.1753  0.3449
37507SOL    HW116019   4.389   5.057   6.428 -0.3522 -0.6970 -0.7631
37507SOL    HW216020   4.442   5.198   6.449  1.8981 -1.6420  0.1665
37508SOL     OW16021   2.088   6.694   4.195  0.1192 -0.0559 -0.7374
37508SOL    HW116022   1.993   6.682   4.202  0.0556  0.9863  0.7167
37508SOL    HW216023   2.102   6.786   4.217  1.5956 -0.5807  0.7093
37509SOL     OW16024   9.736   6.912   0.887 -0.3552  0.7628  0.3941
37509SOL    HW116025   9.729   6.849   0.815  1.6565  0.0464  0.7681
37509SOL    HW216026   9.761   6.860   0.963  2.2593  2.0510  0.5200
37510SOL     OW16027  10.668  10.040   7.420  0.0741 -0.0370  0.1538
37510SOL    HW116028  10.688   9.969   7.482 -1.5530 -0.4178  0.2889
37510SOL    HW216029  10.634   9.995   7.343 -0.0581  0.5530 -0.1360
37511SOL     OW16030   3.736   8.759  10.262  0.7340 -0.1404  0.6825
37511SOL    HW116031   3.697   8.677  10.233  0.9910 -0.9271  2.4342
37511SOL    HW216032   3.665   8.823  10.256  0.0999 -0.8247  0.7219
37512SOL     OW16033   1.788   4.385   2.303 -0.1094 -0.0403 -0.0558
37512SOL    HW116034   1.862   4.325   2.294 -0.3434 -0.6322  1.5323
37512SOL    HW216035   1.727   4.339   2.360 -0.8511  1.2006  0.1963
37513SOL     OW16036   5.159   1.594   4.670  0.4227 -0.0421 -0.0607
37513SOL    HW116037   5.240   1.585   4.722 -0.6297  2.2917  2.2529
37513SOL    HW216038   5.120   1.507   4.671  1.2503 -0.4610  1.8316
37514SOL     OW16039  10.414   1.981   4.405 -0.5504  0.3154 -0.7552
37514SOL    HW116040  10.376   2.069   4.417  0.2555  0.6857 -0.8850
37514SOL    HW216041  10.401   1.938   4.489 -2.1645  0.0642 -1.0898
37515SOL     OW16042   3.865   5.284   3.932  0.5485 -0.1791  0.3695
37515SOL    HW116043   3.823   5.331   4.004 -0.9733 -0.4519 -0.3099
37515SOL    HW216044   3.829   5.195   3.936  1.1410 -0.4555 -0.1698
37516SOL     OW16045   4.894   1.735   8.736 -0.4918 -0.1941  0.3806
37516SOL    HW116046   4.968   1.738   8.676 -0.6624 -2.1732 -0.0075
37516SOL    HW216047   4.882   1.826   8.765  0.3110  0.6099 -1.6669
37517SOL     OW16048  10.018   5.041   7.879  0.0215  0.0606  0.2387
37517SOL    HW116049  10.111   5.048   7.858 -0.0132  1.3946  0.4372
37517SOL    HW216050  10.003   4.947   7.894  1.1510 -0.2612 -0.5786
37518SOL     OW16051   3.716   3.951   8.130  0.3796  0.3321 -0.1509
37518SOL    HW116052   3.650   3.957   8.200  0.8378  3.0582  0.1546
37518SOL    HW216053   3.798   3.933   8.176  0.4875  0.9488 -0.0957
37519SOL     OW16054   1.474   5.959   1.924  0.2796  1.2694 -0.4446
37519SOL    HW116055   1.553   5.983   1.874 -0.2385  2.3860 -0.7682
37519SOL    HW216056   1.465   6.029   1.989  0.4348  0.3031  0.6390
37520SOL     OW16057   8.044   8.581   5.333  0.7823 -1.0075 -0.3568
37520SOL    HW116058   8.003   8.496   5.316  3.2602 -2.3763 -0.0557
37520SOL    HW216059   8.040   8.591   5.428  0.1015 -0.5551 -0.4282
37521SOL     OW16060   7.329   7.514   8.062  0.0045  0.0225 -0.0178
37521SOL    HW116061   7.317   7.428   8.101  0.0253  0.4045  0.8531
37521SOL    HW216062   7.257   7.567   8.098 -0.3601  0.2282 -0.9944
37522SOL     OW16063   5.125   1.762   2.943  0.4579 -0.0753  0.2582
37522SOL    HW116064   5.199   1.800   2.895  0.8513 -1.7360 -0.5368
37522SOL    HW216065   5.094   1.691   2.887 -1.3158  0.1464  0.9026
37523SOL     OW16066   4.440  10.227   1.129  0.3604 -0.4379  0.2831
37523SOL    HW116067   4.381  10.189   1.194  1.1944  1.8897  2.6137
37523SOL    HW216068   4.398  10.210   1.045 -2.3552 -1.0384  1.6472
37524SOL     OW16069   7.913   1.390   9.681  0.0713 -0.3454  0.4999
37524SOL    HW116070   8.005   1.364   9.681  0.1111 -0.2319 -0.4528
37524SOL    HW216071   7.871   1.331   9.743  0.6142 -1.0143  0.2360
37525SOL     OW16072   6.938   2.034   9.508 -0.3781  0.4055  0.3127
37525SOL    HW116073   6.885   2.113   9.513  1.0092  1.3620  0.8098
37525SOL    HW216074   6.895   1.973   9.568 -2.4867  0.0869 -1.4170
37526SOL     OW16075   2.193   8.675   1.665 -0.2163 -0.3908 -0.3449
37526SOL    HW116076   2.099   8.669   1.648 -0.5145 -1.6826  1.4189
37526SOL    HW216077   2.228   8.589   1.644  0.4070 -0.2083 -0.1136
37527SOL     OW16078   0.356   1.745   3.296  0.6704 -0.2788  0.0334
37527SOL    HW116079   0.360   1.661   3.341  3.1608  0.3724  1.1581
37527SOL    HW216080   0.347   1.722   3.203  0.5739 -1.7507  0.3918
37528SOL     OW16081   8.319   8.123   7.301 -0.3384  0.1132 -0.2923
37528SOL    HW116082   8.239   8.153   7.345  0.4532  1.8046  0.1107
37528SOL    HW216083   8.350   8.050   7.353 -1.8163 -0.8288 -0.6868
37529SOL     OW16084  10.951   3.338   9.092  0.0345  0.9901 -0.1251
37529SOL    HW116085  10.969   3.311   9.002  1.5916  0.9394  0.1683
37529SOL    HW216086  10.866   3.299   9.113  0.0376  0.3201 -1.2901
37530SOL     OW16087   4.648   1.484   8.469 -0.0133 -0.3505 -0.3797
37530SOL    HW116088   4.705   1.529   8.407  0.2485 -0.5885 -0.3158
37530SOL    HW216089   4.659   1.533   8.551 -3.1738  2.3205 -1.3320
37531SOL     OW16090   3.039   3.631   0.100  0.1785 -0.0091 -0.2936
37531SOL    HW116091   3.125   3.652   0.064 -0.2167 -0.5589 -1.6579
37531SOL    HW216092   3.017   3.547   0.059 -1.8041  1.0204 -1.4819
37532SOL     OW16093   4.770   8.189   3.994 -0.0556 -0.5210  0.5935
37532SOL    HW116094   4.746   8.145   3.913 -0.0683 -0.1970  0.4192
37532SOL    HW216095   4.695   8.245   4.014  1.3775  2.2897 -1.2061
37533SOL     OW16096   4.334   5.795   1.249  0.4436 -0.2505 -0.4067
37533SOL    HW116097   4.402   5.817   1.185 -0.2520  1.2777 -0.6612
37533SOL    HW216098   4.369   5.719   1.296  1.4309 -0.7557 -1.8801
37534SOL     OW16099   0.246   3.412   8.868  0.7906 -0.4614  0.6323
37534SOL    HW116100   0.196   3.348   8.818  0.2782 -0.9364  1.7268
37534SOL    HW216101   0.312   3.444   8.807 -1.1947  0.6367 -1.0808
37535SOL     OW16102   0.085   4.982   7.996  0.3516 -0.2183  0.0166
37535SOL    HW116103   0.075   4.893   7.964 -2.5289 -0.6323  1.7199
37535SOL    HW216104   0.056   5.037   7.923 -1.4560 -0.9067  0.1588
37536SOL     OW16105   0.690   6.953   9.220 -0.0080 -0.2118 -0.3968
37536SOL    HW116106   0.677   7.025   9.282 -2.5450 -2.1774  1.5537
37536SOL    HW216107   0.675   6.992   9.134  0.5318  1.9362  0.4234
37537SOL     OW16108   5.690   8.693   8.601 -0.8447 -0.4052 -0.6076
37537SOL    HW116109   5.763   8.662   8.548  0.2519  2.6161 -1.0284
37537SOL    HW216110   5.703   8.652   8.687  0.8027 -0.6386 -0.9433
37538SOL     OW16111   5.506   2.909   5.537  0.0246 -0.0936 -0.2891
37538SOL    HW116112   5.488   2.940   5.448 -1.0588 -1.2200 -0.5019
37538SOL    HW216113   5.448   2.960   5.593 -1.5155 -1.3950 -0.6016
37539SOL     OW16114  10.179   5.796   7.925  0.2402 -0.3749  0.1663
37539SOL    HW116115  10.162   5.755   8.010  2.6045 -0.2719  0.7466
37539SOL    HW216116  10.145   5.734   7.861 -4.6680  0.9397  1.0688
37540SOL     OW16117   3.270   4.615   6.324  0.4327  0.5553 -0.1451
37540SOL    HW116118   3.333   4.682   6.348 -0.5540  1.4785 -0.0261
37540SOL    HW216119   3.258   4.564   6.405 -0.6657  1.8124  0.5237
37541SOL     OW16120   9.249   9.819   1.886 -0.1459 -0.9994 -0.1778
37541SOL    HW116121   9.279   9.873   1.959 -0.5171 -0.3697 -0.4856
37541SOL    HW216122   9.326   9.808   1.831 -0.2024 -0.3282 -0.3925
37542SOL     OW16123   1.022   4.265   5.262 -0.1422  0.1590  0.0672
37542SOL    HW116124   0.993   4.284   5.352 -0.6823 -0.8760  0.1333
37542SOL    HW216125   0.943   4.273   5.209  0.1416  0.6031 -0.2937
37543SOL     OW16126   6.427   6.461   0.131 -0.3301 -0.0961  0.0401
37543SOL    HW116127   6.423   6.389   0.068 -2.5374  0.2421 -0.2976
37543SOL    HW216128   6.349   6.449   0.185  0.4220  0.8297  1.3990
37544SOL     OW16129   7.213   4.139   6.865 -0.4518 -0.6862 -0.4314
37544SOL    HW116130   7.194   4.132   6.958 -1.3372 -0.6500 -0.6062
37544SOL    HW216131   7.150   4.081   6.823 -0.2122 -0.5201 -1.0309
37545SOL     OW16132   5.526   1.063   3.158  0.5504 -0.7185 -0.1825
37545SOL    HW116133   5.609   1.015   3.168 -0.0546 -1.7227  0.2412
37545SOL    HW216134   5.531   1.102   3.071  0.5653 -2.6368 -1.1044
37546SOL     OW16135  10.728   2.767   8.054  0.4616  0.3946  0.1029
37546SOL    HW116136  10.810   2.743   8.010  1.1907  2.8884 -0.0260
37546SOL    HW216137  10.660   2.736   7.995  1.3446 -0.1824 -0.6467
37547SOL     OW16138   5.151   7.016   8.114 -0.4520  0.6299 -0.3874
37547SOL    HW116139   5.081   7.078   8.095 -1.2161 -0.6876 -2.1991
37547SOL    HW216140   5.112   6.955   8.176 -0.5672  0.5040 -0.5814
37548SOL     OW16141   5.670   5.540   3.509  0.6576 -0.0283  0.1557
37548SOL    HW116142   5.659   5.448   3.483  1.6540 -0.0852 -0.0895
37548SOL    HW216143   5.594   5.584   3.471  0.3172 -0.7047  0.0318
37549SOL     OW16144   7.374   5.655   5.267  0.0204  0.0755  0.0710
37549SOL    HW116145   7.363   5.714   5.192 -0.1318  0.1852  0.1778
37549SOL    HW216146   7.460   5.678   5.303  0.2700 -0.2488 -0.3036
37550SOL     OW16147   7.632   3.042   1.392  0.1606  0.2756 -0.7062
37550SOL    HW116148   7.660   2.951   1.379 -0.6309 -0.1577  0.4096
37550SOL    HW216149   7.628   3.052   1.487 -0.8900  1.1073 -0.8245
37551SOL     OW16150   8.497   1.457   5.240  0.0255 -0.0257 -0.3464
37551SOL    HW116151   8.414   1.417   5.214  1.2504 -1.6788 -1.9969
37551SOL    HW216152   8.493   1.461   5.335 -2.5117  1.3168 -0.4412
37552SOL     OW16153   7.050   5.902   2.771 -0.5410  0.0798  0.4918
37552SOL    HW116154   7.137   5.889   2.733  0.0204  1.0832  1.3498
37552SOL    HW216155   7.018   5.814   2.789  0.5607 -0.2961  0.7126
37553SOL     OW16156   9.240   8.115   9.041  0.2068 -0.2333  0.6267
37553SOL    HW116157   9.264   8.040   9.096 -0.4405 -1.4280 -0.6720
37553SOL    HW216158   9.177   8.164   9.094  0.4521 -0.7243  1.4004
37554SOL     OW16159   3.923  10.217   5.385  0.3044  0.2041  0.3868
37554SOL    HW116160   4.006  10.209   5.338  0.1297 -0.6820  0.1940
37554SOL    HW216161   3.874  10.138   5.360 -0.1508  0.1627  1.3646
37555SOL     OW16162   8.324   1.838   7.569  0.6591  0.1378 -0.1168
37555SOL    HW116163   8.413   1.820   7.538  0.3550 -0.3129 -0.7536
37555SOL    HW216164   8.282   1.753   7.571 -0.8203  0.6282 -3.2263
37556SOL     OW16165   6.596   1.959   1.510 -0.1150 -0.2550 -0.1721
37556SOL    HW116166   6.617   2.005   1.591 -0.7266  0.1451 -0.2331
37556SOL    HW216167   6.649   1.880   1.513  0.7786  0.3325  0.0513
37557SOL     OW16168  10.527   1.985   5.778  0.3004  0.1182  0.2437
37557SOL    HW116169  10.490   1.979   5.690  1.4760 -0.5193 -0.2315
37557SOL    HW216170  10.547   2.078   5.789  3.8440 -0.2160 -1.8203
37558SOL     OW16171   2.818   9.432   2.055  0.4094 -0.1538 -0.3088
37558SOL    HW116172   2.912   9.426   2.071  0.2352 -0.8096  0.5750
37558SOL    HW216173   2.792   9.514   2.097  0.5500 -0.0730 -0.3778
37559SOL     OW16174   7.693   3.638  10.099  0.4486  0.1678 -0.3147
37559SOL    HW116175   7.715   3.617  10.008 -1.1290 -0.2260 -0.6216
37559SOL    HW216176   7.706   3.555  10.146 -2.0615 -0.5979 -0.8394
37560SOL     OW16177   4.487   4.430   2.279  0.1965  0.1434  0.4866
37560SOL    HW116178   4.464   4.502   2.220  0.9001  1.7658  2.1078
37560SOL    HW216179   4.448   4.454   2.363  0.4423 -1.3991  1.0868
37561SOL     OW16180   7.098   9.455   9.099  0.4760 -0.4935  0.3821
37561SOL    HW116181   7.062   9.530   9.145 -0.9283 -0.3045 -0.9353
37561SOL    HW216182   7.150   9.492   9.028  0.4138 -0.7677  0.1898
37562SOL     OW16183   7.688   3.115   7.740  0.3257 -0.2903 -0.0144
37562SOL    HW116184   7.629   3.145   7.671  0.9978 -0.8764 -0.8639
37562SOL    HW216185   7.646   3.143   7.821  0.0848  1.4105 -0.6843
37563SOL     OW16186  10.930   1.554   9.027  0.9261  0.7502  0.0561
37563SOL    HW116187  10.994   1.601   9.080  3.4303  0.3062 -2.3951
37563SOL    HW216188  10.871   1.623   8.995  1.5827  1.5024  0.4335
37564SOL     OW16189   3.695   3.444   2.537 -0.0292  0.2085 -0.5232
37564SOL    HW116190   3.650   3.507   2.480  2.2236  1.6976 -0.7927
37564SOL    HW216191   3.730   3.497   2.608  2.1383 -0.6710 -0.8707
37565SOL     OW16192   1.239   4.928   5.134  0.2692 -0.0065 -0.7822
37565SOL    HW116193   1.281   4.885   5.208 -0.7430  0.0806 -0.1332
37565SOL    HW216194   1.171   4.866   5.105  1.0529 -0.3139 -2.0500
37566SOL     OW16195   2.889  10.091   5.850  0.2973  0.2735  0.2113
37566SOL    HW116196   2.902  10.004   5.888  1.9564 -0.0716 -1.0418
37566SOL    HW216197   2.804  10.119   5.885  0.5638 -1.0511  2.0913
37567SOL     OW16198   4.763   8.554   8.030  0.2036 -0.4100 -0.6939
37567SOL    HW116199   4.854   8.584   8.018 -0.0787 -0.2456 -2.8420
37567SOL    HW216200   4.724   8.561   7.943 -2.2898  0.8079  0.4229
37568SOL     OW16201   5.871   3.759   4.425 -0.4786 -0.1944  0.5873
37568SOL    HW116202   5.882   3.791   4.514  1.5730 -2.0045  1.0784
37568SOL    HW216203   5.927   3.815   4.372  0.2190 -0.6498  0.8397
37569SOL     OW16204   2.303   9.497   8.138 -0.5383  0.0546  0.0097
37569SOL    HW116205   2.328   9.433   8.071  1.9907  0.1815  0.7138
37569SOL    HW216206   2.213   9.476   8.160 -0.6400 -1.5312 -1.6975
37570SOL     OW16207   8.847   4.336   3.438 -0.2623 -0.5291  0.7419
37570SOL    HW116208   8.921   4.316   3.381 -0.4132 -0.2261  0.4378
37570SOL    HW216209   8.813   4.250   3.463 -0.9429 -0.6849 -0.6158
37571SOL     OW16210   4.869   9.450   5.849 -0.0001 -0.5630  0.5175
37571SOL    HW116211   4.940   9.395   5.882 -0.6841 -0.3067  2.5564
37571SOL    HW216212   4.900   9.539   5.862 -0.7171 -0.4474  1.5825
37572SOL     OW16213   5.771   7.833   7.236 -0.3323 -1.0940 -0.3418
37572SOL    HW116214   5.784   7.831   7.330  0.1684  0.0743 -0.3626
37572SOL    HW216215   5.680   7.861   7.224 -0.2930 -0.8996 -0.1973
37573SOL     OW16216   8.568   3.238   5.183  0.0950 -0.3650  0.3388
37573SOL    HW116217   8.559   3.164   5.243 -0.4332 -0.2396  0.4231
37573SOL    HW216218   8.500   3.225   5.117 -0.6187  0.5104  0.8659
37574SOL     OW16219   6.423   0.117   2.964  0.0203  0.0615 -0.0863
37574SOL    HW116220   6.362   0.051   2.931 -0.7870 -0.3497  2.0853
37574SOL    HW216221   6.431   0.098   3.057  0.5822  2.4045  0.4005
37575SOL     OW16222   9.471   2.515   5.844 -0.6447  0.1443 -0.3202
37575SOL    HW116223   9.514   2.455   5.905  1.1247  0.5676 -1.1061
37575SOL    HW216224   9.379   2.490   5.847 -0.1724 -1.6221  0.4778
37576SOL     OW16225   1.512   5.035   3.097 -0.1756 -0.3670 -0.2391
37576SOL    HW116226   1.572   4.960   3.095  0.1167 -0.1660  0.8244
37576SOL    HW216227   1.540   5.088   3.171 -1.9973 -0.5432  0.6441
37577SOL     OW16228   9.044   2.792   0.965 -0.2772  0.3883  0.0252
37577SOL    HW116229   9.105   2.726   0.998 -0.1923  0.9946  1.1146
37577SOL    HW216230   9.026   2.848   1.040  1.0014  2.6545 -1.2467
37578SOL     OW16231   7.741   2.579   8.340  0.0385 -0.7068 -0.4577
37578SOL    HW116232   7.767   2.566   8.431 -1.2560 -1.1880 -0.1413
37578SOL    HW216233   7.775   2.502   8.295  1.3812 -0.0825 -0.5545
37579SOL     OW16234   7.819   8.315   7.995  0.0727  0.0883 -0.3893
37579SOL    HW116235   7.824   8.271   8.080  1.5274  1.0193  0.0528
37579SOL    HW216236   7.811   8.244   7.931 -0.0219 -0.6765  0.4488
37580SOL     OW16237  10.175   7.142   1.268 -0.2213  0.1651 -0.5149
37580SOL    HW116238  10.161   7.078   1.199  0.9274  1.5867 -2.1487
37580SOL    HW216239  10.087   7.173   1.291 -0.6198 -0.3820 -1.2759
37581SOL     OW16240   3.450   6.243   4.872 -0.2896 -0.2393 -0.2685
37581SOL    HW116241   3.469   6.322   4.821  0.3902  0.5716  1.1565
37581SOL    HW216242   3.527   6.232   4.928 -1.7298  0.0167  1.8859
37582SOL     OW16243   6.741   7.495   3.201 -0.3293  0.1163  0.1000
37582SOL    HW116244   6.764   7.496   3.108  0.5387  0.0189  0.3058
37582SOL    HW216245   6.660   7.445   3.205 -2.3276  3.0329 -1.0121
37583SOL     OW16246   9.176   1.389   4.767  0.0529 -0.0404 -0.3171
37583SOL    HW116247   9.130   1.323   4.819  0.5901  0.3060  0.6242
37583SOL    HW216248   9.145   1.375   4.677 -1.2155 -0.3727  0.1532
37584SOL     OW16249   9.894  10.569   0.174 -0.4280  0.5254 -0.1440
37584SOL    HW116250   9.889  10.606   0.086  0.3396  2.9745  0.7739
37584SOL    HW216251   9.987  10.549   0.186 -0.5225  0.2380  0.1405
37585SOL     OW16252   5.447   1.287  10.761 -0.3157 -0.1240 -0.3918
37585SOL    HW116253   5.458   1.370  10.807  1.3039 -0.0413 -0.8598
37585SOL    HW216254   5.412   1.227  10.827  0.6083  0.3619  0.5608
37586SOL     OW16255   2.926   8.893   5.498 -0.0302  0.6691  0.4949
37586SOL    HW116256   2.857   8.929   5.442 -0.2405  1.0258  0.9754
37586SOL    HW216257   2.944   8.962   5.562 -0.8332 -0.2693  1.7796
37587SOL     OW16258   1.306   0.308   0.743 -0.1559  0.1426  0.0112
37587SOL    HW116259   1.233   0.300   0.805  0.5304  1.7475  1.0831
37587SOL    HW216260   1.354   0.386   0.772  0.4077  0.7438 -2.3499
37588SOL     OW16261  10.116  10.939   2.435  0.8202 -0.6016 -0.1841
37588SOL    HW116262  10.089  10.953   2.526  0.5534 -0.8646 -0.2201
37588SOL    HW216263  10.071  10.858   2.409 -0.5371  0.3999 -1.1182
37589SOL     OW16264   1.165   9.180   5.525  0.1363 -0.4549 -0.8493
37589SOL    HW116265   1.111   9.256   5.545  2.0002  0.3399  1.7093
37589SOL    HW216266   1.125   9.108   5.575  0.3800 -0.2900 -0.4092
37590SOL     OW16267   7.823   7.134   3.786  0.3699  0.0922  0.4132
37590SOL    HW116268   7.833   7.227   3.766  2.2590 -0.1305  0.0773
37590SOL    HW216269   7.811   7.131   3.881 -1.1620  0.7271  0.2712
37591SOL     OW16270   8.726   8.021   8.640  0.2682  0.0562  0.2239
37591SOL    HW116271   8.638   7.985   8.642  0.9846 -1.7611  0.5111
37591SOL    HW216272   8.717   8.108   8.681 -1.0962 -0.7850  1.8231
37592SOL     OW16273   6.758   3.480   8.416 -0.4372 -0.3175 -0.0617
37592SOL    HW116274   6.840   3.459   8.373 -0.9081  2.0266 -2.3726
37592SOL    HW216275   6.772   3.568   8.453 -1.9249  0.2251 -0.7040
37593SOL     OW16276   6.456   2.457   0.377 -0.3472 -0.4757  0.0827
37593SOL    HW116277   6.400   2.380   0.379 -0.4403 -0.4035  0.9163
37593SOL    HW216278   6.399   2.528   0.407  0.2556 -0.4621  1.2597
37594SOL     OW16279   2.182   7.633   5.519 -0.3355  0.0281  0.0836
37594SOL    HW116280   2.116   7.571   5.488  0.5645 -0.1142 -1.7418
37594SOL    HW216281   2.134   7.715   5.532 -1.3353 -0.7435  1.4673
37595SOL     OW16282   6.798   4.287   9.306  0.2068  0.5551 -0.0558
37595SOL    HW116283   6.883   4.331   9.309  0.0063  0.9984 -0.6913
37595SOL    HW216284   6.738   4.348   9.349  0.0187  0.6972 -0.5141
37596SOL     OW16285   3.397   0.560   2.609  0.5394  0.3445 -0.2948
37596SOL    HW116286   3.433   0.570   2.521  0.1057  0.4699 -0.4567
37596SOL    HW216287   3.350   0.641   2.626  0.3961  0.2122 -0.0493
37597SOL     OW16288   5.392   9.524   8.284  0.0543 -0.9703  0.1599
37597SOL    HW116289   5.396   9.478   8.201  1.3158  0.6499 -0.7339
37597SOL    HW216290   5.366   9.613   8.261 -1.8279 -1.0365  1.7691
37598SOL     OW16291   1.129   9.449   9.886  0.6980 -0.0148  0.4450
37598SOL    HW116292   1.146   9.355   9.875  1.4833 -0.0324  1.6141
37598SOL    HW216293   1.174   9.472   9.967 -2.0392  0.7350  1.8742
37599SOL     OW16294   0.761   9.013   9.889  0.1702 -0.2297  0.0239
37599SOL    HW116295   0.710   9.022   9.809 -0.7985 -1.7867  0.4137
37599SOL    HW216296   0.852   9.009   9.860  0.2444  3.3368 -0.6317
37600SOL     OW16297   2.787   4.565   0.821 -0.3654 -0.1799 -0.2421
37600SOL    HW116298   2.737   4.598   0.896  0.9012  0.3104  0.4006
37600SOL    HW216299   2.746   4.480   0.801  0.2575 -1.0911  2.0210
37601SOL     OW16300   8.605   6.944   7.136 -0.3414 -0.1204 -0.4421
37601SOL    HW116301   8.581   6.935   7.229 -0.1007 -0.2763 -0.3940
37601SOL    HW216302   8.629   7.036   7.126 -0.1890 -0.1436 -0.3038
37602SOL     OW16303   8.237   6.586   7.910  0.1197 -0.8750  0.4296
37602SOL    HW116304   8.230   6.529   7.834  1.1913 -0.8131  0.2719
37602SOL    HW216305   8.219   6.674   7.876  0.6636 -0.8385  0.2258
37603SOL     OW16306   5.584   7.448   3.236  0.6326 -0.3651  0.3338
37603SOL    HW116307   5.503   7.458   3.286  0.1985  1.5594 -0.6593
37603SOL    HW216308   5.592   7.354   3.222 -2.4873 -0.5492 -1.1319
37604SOL     OW16309   2.787   7.118  10.158  0.2396 -0.8023 -1.1281
37604SOL    HW116310   2.828   7.032  10.147  2.0489 -0.3164  0.9807
37604SOL    HW216311   2.706   7.100  10.205  0.7660 -1.3667 -0.4007
37605SOL     OW16312   6.534  10.260   2.869 -0.6303 -0.3672 -0.2154
37605SOL    HW116313   6.536  10.202   2.793  0.3252 -2.0671  1.0517
37605SOL    HW216314   6.617  10.308   2.864  0.1327 -1.5635  0.5243
37606SOL     OW16315   2.714   0.190   2.797 -0.0341  0.0128  0.5224
37606SOL    HW116316   2.767   0.233   2.730  0.5562 -1.0140  0.3051
37606SOL    HW216317   2.755   0.104   2.808 -0.6476 -0.1601  1.5782
37607SOL     OW16318   6.517   1.840   0.001 -0.2491 -0.3104  0.4025
37607SOL    HW116319   6.490   1.926  -0.031 -0.1061 -0.5233 -0.3192
37607SOL    HW216320   6.498   1.781  -0.072 -0.0198 -0.8325  0.7594
37608SOL     OW16321   7.069   1.661   9.451  0.0038 -0.3217  0.6237
37608SOL    HW116322   6.979   1.629   9.454 -1.5326  3.3118 -0.5148
37608SOL    HW216323   7.070   1.735   9.512  2.2305 -0.2206  0.5352
37609SOL     OW16324   4.199   9.118   3.498  0.1394 -0.4760 -0.3839
37609SOL    HW116325   4.121   9.080   3.538  0.3054 -0.6550 -0.2228
37609SOL    HW216326   4.239   9.046   3.449  0.6154 -0.6000  0.1640
37610SOL     OW16327   8.253   2.648   6.458  0.0984 -0.0703  0.0776
37610SOL    HW116328   8.266   2.722   6.517  1.8880 -0.1172 -0.2208
37610SOL    HW216329   8.157   2.637   6.455 -0.4401  3.6172 -1.5861
37611SOL     OW16330   4.984   6.930   2.259  0.0405  0.1673  0.2225
37611SOL    HW116331   5.024   6.868   2.321 -2.2810 -0.7624  0.8734
37611SOL    HW216332   5.033   6.915   2.177  1.5257 -0.3323  1.1492
37612SOL     OW16333   8.378   1.314   7.026  0.2945  0.1533  0.2961
37612SOL    HW116334   8.294   1.342   7.061 -1.1032 -2.3050 -0.8626
37612SOL    HW216335   8.430   1.292   7.103 -0.9170 -0.3929  0.9777
37613SOL     OW16336   5.276  10.653   2.556 -0.5681 -0.6562 -0.2890
37613SOL    HW116337   5.199  10.599   2.573  0.2004 -1.4360  0.9367
37613SOL    HW216338   5.325  10.651   2.638 -0.5298  2.0152 -0.1773
37614SOL     OW16339   3.550   3.155   7.280  0.4210  0.4651 -0.3172
37614SOL    HW116340   3.545   3.126   7.189  0.7680  1.7083 -0.7495
37614SOL    HW216341   3.627   3.212   7.283  1.6503 -1.1813  1.2461
37615SOL     OW16342   4.573   6.403   9.776 -0.4926 -0.1599 -0.0001
37615SOL    HW116343   4.628   6.404   9.854  0.1648 -0.3457 -0.4604
37615SOL    HW216344   4.634   6.404   9.702 -0.9216 -3.3817 -0.5767
37616SOL     OW16345   8.574   3.502   2.253  0.6165 -0.1035 -0.4816
37616SOL    HW116346   8.580   3.461   2.167 -2.9300  1.2034 -1.5264
37616SOL    HW216347   8.500   3.460   2.296  1.3294  0.3670  1.3364
37617SOL     OW16348  10.381   1.557   0.769 -1.1519 -0.3140  0.4781
37617SOL    HW116349  10.415   1.513   0.847 -0.5918  1.5167  1.3173
37617SOL    HW216350  10.286   1.551   0.777 -1.0993  0.0099  1.3973
37618SOL     OW16351   7.444  10.686   0.212  0.7626  0.0205 -0.0702
37618SOL    HW116352   7.466  10.650   0.126 -2.2275  1.0912 -1.3917
37618SOL    HW216353   7.350  10.671   0.222  0.3605  2.8141  1.5399
37619SOL     OW16354   8.875   1.510  10.887 -0.5879 -0.2961  0.1499
37619SOL    HW116355   8.836   1.593  10.861 -0.7730 -0.8698 -1.5358
37619SOL    HW216356   8.804   1.464  10.933 -0.3591  0.6063  1.4596
37620SOL     OW16357   8.320   3.203   2.775 -0.2239 -0.4354  0.0150
37620SOL    HW116358   8.263   3.249   2.836  0.3352 -0.8771  0.8922
37620SOL    HW216359   8.312   3.111   2.799  1.3078 -0.4477  0.5678
37621SOL     OW16360   6.409   9.948   6.550 -0.4292 -0.0322 -0.1633
37621SOL    HW116361   6.467   9.991   6.486 -1.8824  1.3460 -0.6249
37621SOL    HW216362   6.326   9.937   6.503 -1.5527  1.0437  1.4584
37622SOL     OW16363   3.418   8.490  10.353 -0.1072 -0.2869 -0.4785
37622SOL    HW116364   3.331   8.471  10.317 -0.8693  1.3982  0.3606
37622SOL    HW216365   3.468   8.525  10.279 -0.7913  0.5969 -0.5341
37623SOL     OW16366   5.974   7.887   9.034 -0.1368 -0.3251  0.3724
37623SOL    HW116367   5.989   7.829   8.959 -0.3302  1.2814 -0.9712
37623SOL    HW216368   5.918   7.836   9.093 -1.8684 -0.8617 -1.6166
37624SOL     OW16369  10.860   6.028   9.243 -0.0075 -0.2618 -0.2495
37624SOL    HW116370  10.853   6.117   9.278 -0.2167 -0.0979 -0.6957
37624SOL    HW216371  10.895   6.041   9.155  0.0833 -0.6329 -0.2659
37625SOL     OW16372  10.669   3.422   4.788  0.5174  0.1913 -0.3052
37625SOL    HW116373  10.659   3.499   4.844  0.7756  0.7777 -1.0438
37625SOL    HW216374  10.754   3.385   4.813  0.5036  0.2905 -0.1124
37626SOL     OW16375   5.495  10.990   9.476 -0.0898 -0.5803 -0.4856
37626SOL    HW116376   5.569  11.038   9.512 -1.2863  1.7839 -0.9625
37626SOL    HW216377   5.535  10.921   9.423  1.7963  0.7102 -0.8621
37627SOL     OW16378   7.720  10.627  10.519  0.0630  0.0277 -0.3301
37627SOL    HW116379   7.723  10.703  10.461 -0.0437 -0.0512 -0.4405
37627SOL    HW216380   7.627  10.613  10.536  0.0361 -0.4685 -0.8346
37628SOL     OW16381   2.897   5.587   1.326 -0.3495 -0.1452  0.0338
37628SOL    HW116382   2.814   5.634   1.335 -0.2847  0.0520 -0.3749
37628SOL    HW216383   2.947   5.611   1.404  0.2403  1.5946 -0.8230
37629SOL     OW16384   5.036   6.083  10.106  0.3300  0.1006  0.8019
37629SOL    HW116385   4.993   6.118  10.184  1.9036  1.4617  1.1114
37629SOL    HW216386   5.063   6.160  10.056  1.0351 -0.7201 -0.1391
37630SOL     OW16387   5.278   8.341  11.001  0.3922  0.5012 -0.0703
37630SOL    HW116388   5.275   8.249  10.977  0.5070  0.4819 -0.0112
37630SOL    HW216389   5.206   8.353  11.062  0.5057  0.4035  0.0844
37631SOL     OW16390   3.024   5.971   1.530 -0.4796 -0.5377  0.5986
37631SOL    HW116391   3.012   5.881   1.560  0.9535 -0.4473  1.5163
37631SOL    HW216392   2.951   6.019   1.568 -0.8258 -1.1669  0.7409
37632SOL     OW16393   3.999   8.012   5.882  0.1326  0.5132  0.1169
37632SOL    HW116394   3.944   7.942   5.846  1.2622 -2.0679  2.9279
37632SOL    HW216395   4.075   8.015   5.822  0.4183 -1.2767  0.3291
37633SOL     OW16396   7.146   0.069   1.698 -0.1155 -0.4732 -0.0722
37633SOL    HW116397   7.082   0.119   1.647 -0.3992 -0.8545 -0.0916
37633SOL    HW216398   7.220   0.058   1.639  0.5694  1.1994  0.4243
37634SOL     OW16399   7.123   0.916   7.942 -0.2592  0.3731  0.0461
37634SOL    HW116400   7.063   0.941   7.871  0.1391  1.9280  0.2299
37634SOL    HW216401   7.209   0.940   7.909 -0.0629  1.0220  1.0147
37635SOL     OW16402   8.960   0.627   8.638  0.1352  0.3840 -0.5857
37635SOL    HW116403   8.923   0.715   8.644  0.3468  0.4095  0.5899
37635SOL    HW216404   8.938   0.597   8.550 -1.2623  1.0232 -0.4739
37636SOL     OW16405   9.376   4.200   3.020  0.1796 -0.0842 -0.0448
37636SOL    HW116406   9.409   4.157   2.941 -0.0409 -0.4827  0.0773
37636SOL    HW216407   9.368   4.293   2.996  1.1896 -0.0122 -0.1348
37637SOL     OW16408   7.693  10.556   2.747  0.4507  0.1320 -0.1728
37637SOL    HW116409   7.733  10.574   2.662  0.6848 -0.8689 -0.2767
37637SOL    HW216410   7.702  10.639   2.795  1.9356  0.1778 -0.4846
37638SOL     OW16411   9.199   9.806   4.100 -0.2807  0.0626 -0.3879
37638SOL    HW116412   9.273   9.827   4.157 -0.3757 -1.2183  0.2318
37638SOL    HW216413   9.141   9.882   4.107  0.2455  0.4130  0.3087
37639SOL     OW16414   7.168   5.008   6.563  0.3318  0.0923 -0.1992
37639SOL    HW116415   7.078   4.977   6.556  0.6542 -0.9844  0.2005
37639SOL    HW216416   7.205   4.957   6.635  0.8960  1.4379  0.4859
37640SOL     OW16417   3.071   4.849   1.191 -0.0170 -0.1595 -0.1271
37640SOL    HW116418   3.133   4.918   1.166 -1.7955  2.1216  1.3355
37640SOL    HW216419   3.081   4.783   1.123  1.8116  1.4944 -1.6281
37641SOL     OW16420   9.635   5.813   4.407  0.2448  0.2384 -0.3985
37641SOL    HW116421   9.697   5.750   4.444 -0.4044 -0.1353  0.0790
37641SOL    HW216422   9.550   5.769   4.412 -0.0223  0.6087 -1.3515
37642SOL     OW16423   4.353   0.939  10.521  0.4250  0.0980  0.2433
37642SOL    HW116424   4.441   0.933  10.483  0.7664 -0.7752  1.1307
37642SOL    HW216425   4.297   0.966  10.448  1.2988 -0.1324 -0.5281
37643SOL     OW16426   2.220   9.087   2.297  0.9325 -0.0349 -0.0454
37643SOL    HW116427   2.206   9.182   2.304  0.8390  0.0055 -0.6785
37643SOL    HW216428   2.315   9.077   2.293  0.9530  0.0076  0.3237
37644SOL     OW16429   9.261   1.295   6.624  0.1185  0.3748 -0.0691
37644SOL    HW116430   9.181   1.273   6.576 -1.3966  0.2495  2.3897
37644SOL    HW216431   9.241   1.376   6.670  1.8146  0.9276 -0.2241
37645SOL     OW16432   2.916   7.162   8.927  0.3302  0.4174 -0.1517
37645SOL    HW116433   2.839   7.197   8.882  0.3548  0.5174 -0.1158
37645SOL    HW216434   2.984   7.228   8.912  0.0437  0.9797  0.9459
37646SOL     OW16435   7.497   7.475   4.507  0.6248 -0.3561 -0.3872
37646SOL    HW116436   7.528   7.435   4.589 -0.7155 -1.2256 -0.2705
37646SOL    HW216437   7.577   7.502   4.462  1.4859 -1.3813  0.4534
37647SOL     OW16438  10.704   1.363   6.039  0.1345  0.4453 -0.0029
37647SOL    HW116439  10.781   1.343   6.093  0.3610  0.3518 -0.3562
37647SOL    HW216440  10.698   1.458   6.040  1.1431  0.5375 -1.1931
37648SOL     OW16441  10.857   9.490   2.151  0.3070 -0.2700 -0.4636
37648SOL    HW116442  10.822   9.564   2.200  1.9496  0.8176 -0.8414
37648SOL    HW216443  10.949   9.511   2.138  0.6724 -2.0914 -1.1531
37649SOL     OW16444  10.528   7.420   7.180 -0.2544 -0.0416 -0.4469
37649SOL    HW116445  10.546   7.459   7.095  0.4020  1.0702  0.1779
37649SOL    HW216446  10.486   7.490   7.230  0.8628 -0.1371  0.6747
37650SOL     OW16447   7.715   8.398   9.393  0.3436  0.0723 -0.2127
37650SOL    HW116448   7.732   8.419   9.485  0.5869 -1.8445  0.2274
37650SOL    HW216449   7.666   8.316   9.396  1.8773 -0.9663 -1.8216
37651SOL     OW16450   8.452   4.130  10.925 -0.3963  0.2719 -0.3560
37651SOL    HW116451   8.377   4.074  10.908 -0.6987  1.2095 -2.3555
37651SOL    HW216452   8.415   4.214  10.952 -0.0252  0.2860  0.1231
37652SOL     OW16453   7.297   3.975   6.620 -0.3718  0.2904  0.3374
37652SOL    HW116454   7.382   3.930   6.623 -0.9363 -0.7604  1.2606
37652SOL    HW216455   7.249   3.940   6.695 -0.7328  2.7392  1.3343
37653SOL     OW16456   6.195   7.296   1.942 -0.3045 -0.4927 -0.6847
37653SOL    HW116457   6.122   7.345   1.905 -0.7663  0.7732  1.7643
37653SOL    HW216458   6.196   7.214   1.891 -2.0707  0.3129 -2.1552
37654SOL     OW16459   6.715   0.019   8.544  0.1586  0.4234  0.3960
37654SOL    HW116460   6.720   0.063   8.459 -1.3447 -0.5067 -0.2137
37654SOL    HW216461   6.805   0.018   8.577  1.2784 -1.5169 -2.3951
37655SOL     OW16462   3.727   1.076   3.775 -0.8222  0.5148  0.0294
37655SOL    HW116463   3.779   1.001   3.747 -1.8458 -0.4251  0.5689
37655SOL    HW216464   3.640   1.061   3.739 -0.5436  2.5671 -1.7068
37656SOL     OW16465   6.480   9.347  10.431 -0.0573  0.5630 -0.5403
37656SOL    HW116466   6.488   9.329  10.525 -0.5917 -4.9866 -1.2403
37656SOL    HW216467   6.570   9.366  10.403  1.0348 -2.4621  0.5248
37657SOL     OW16468   5.550   0.474   7.589  0.0441  0.0781 -0.3731
37657SOL    HW116469   5.503   0.495   7.669 -0.4158 -1.2998 -0.2595
37657SOL    HW216470   5.607   0.550   7.574  0.4680  0.1718  1.4974
37658SOL     OW16471   8.021   3.480   2.457 -0.5781 -0.1661  0.2778
37658SOL    HW116472   7.967   3.469   2.534 -0.6093 -1.2848  0.1068
37658SOL    HW216473   8.050   3.392   2.435  0.9732  0.3494  0.1229
37659SOL     OW16474   6.051   2.180   7.421 -0.4626  0.4077 -0.0736
37659SOL    HW116475   6.123   2.211   7.367 -1.6895  0.2321 -1.9343
37659SOL    HW216476   6.055   2.233   7.500  2.3291 -0.3631  0.4041
37660SOL     OW16477   5.970   1.907   1.042  0.4556 -0.3332 -0.0703
37660SOL    HW116478   6.033   1.839   1.019  1.0903 -0.2418  1.2823
37660SOL    HW216479   5.923   1.871   1.118  0.4633  0.5338  0.3609
37661SOL     OW16480  10.685   5.367   2.848  0.1503  0.3089  0.0851
37661SOL    HW116481  10.621   5.311   2.803  0.8428  0.3338 -0.9508
37661SOL    HW216482  10.682   5.337   2.939 -0.9982 -0.0000 -0.0353
37662SOL     OW16483   1.009   7.526   4.748  0.7814 -0.5245  0.0956
37662SOL    HW116484   0.968   7.491   4.827  0.8607 -0.8567 -0.0075
37662SOL    HW216485   0.936   7.550   4.692  0.6812  1.2173  0.8885
37663SOL     OW16486   6.881   8.365   0.603 -0.2952  0.1577  0.1072
37663SOL    HW116487   6.976   8.362   0.612 -0.0437  3.6424 -0.0089
37663SOL    HW216488   6.867   8.374   0.509 -0.5151  2.1219  0.2864
37664SOL     OW16489   3.132   5.704   8.911  1.2098  0.1279 -1.0303
37664SOL    HW116490   3.093   5.749   8.836  0.1580  0.6161 -0.2266
37664SOL    HW216491   3.197   5.766   8.944 -0.7014  1.4441  0.4792
37665SOL     OW16492   1.262   6.791  10.335  0.2700 -0.3371  0.4216
37665SOL    HW116493   1.350   6.813  10.303  0.8401  0.4339  2.4119
37665SOL    HW216494   1.203   6.838  10.276  1.2018 -0.3472 -0.5522
37666SOL     OW16495   7.549   6.044   7.488  0.3974  0.4035  0.0626
37666SOL    HW116496   7.459   6.054   7.520 -0.0086  0.0953 -0.9471
37666SOL    HW216497   7.572   5.954   7.510  0.7989  0.7551  1.1316
37667SOL     OW16498  10.122   7.261   6.173  0.2619 -0.1603 -0.1931
37667SOL    HW116499  10.110   7.167   6.186  0.9524 -0.3595 -0.9265
37667SOL    HW216500  10.034   7.298   6.181  0.1402 -0.6977  1.3381
37668SOL     OW16501   9.837   6.431   9.141  0.3194  0.5205  0.0130
37668SOL    HW116502   9.838   6.428   9.045 -1.9563  0.1512 -0.0493
37668SOL    HW216503   9.898   6.363   9.168  2.1509  1.6208 -1.1194
37669SOL     OW16504   8.761   5.999   1.158  0.1227  0.3451 -0.0546
37669SOL    HW116505   8.749   5.929   1.222 -1.6912 -0.3251 -1.0542
37669SOL    HW216506   8.832   5.967   1.102 -1.5290 -1.4387 -1.3085
37670SOL     OW16507   6.273   8.111   6.193 -0.3863 -0.0401  0.0921
37670SOL    HW116508   6.200   8.056   6.165  0.0650 -0.7143  0.2085
37670SOL    HW216509   6.232   8.183   6.241 -1.0769  0.3976 -1.1117
37671SOL     OW16510   1.933   6.644   5.108  0.0784 -0.3874 -0.2926
37671SOL    HW116511   1.974   6.569   5.066  0.6430 -1.5874  2.1711
37671SOL    HW216512   1.851   6.609   5.144 -0.0099  0.3636  0.2631
37672SOL     OW16513   6.225   5.553   7.069  0.1702  0.2160  0.4676
37672SOL    HW116514   6.133   5.561   7.091  0.2899  0.2674  0.9668
37672SOL    HW216515   6.263   5.639   7.092  0.0661  0.7250 -1.1410
37673SOL     OW16516   6.871   4.198   0.499  0.4045 -1.2609 -0.3733
37673SOL    HW116517   6.896   4.284   0.466  0.9960 -0.2785  2.4415
37673SOL    HW216518   6.817   4.161   0.429  0.9677  0.9354 -2.0895
37674SOL     OW16519   8.739   1.943   1.500 -0.6272  0.3852  0.6416
37674SOL    HW116520   8.774   1.870   1.552  3.7574  0.9446 -1.1318
37674SOL    HW216521   8.721   2.012   1.564  0.9665 -0.2424  1.8428
37675SOL     OW16522   0.471   0.935   2.895 -0.4189  0.1611  0.0421
37675SOL    HW116523   0.459   1.029   2.881 -0.5213  0.2816  0.9085
37675SOL    HW216524   0.453   0.896   2.810 -0.8902  0.8802 -0.1977
37676SOL     OW16525   7.817   8.712   8.230 -0.3277 -0.4141 -0.4367
37676SOL    HW116526   7.764   8.747   8.302  1.3625 -0.0480  0.6813
37676SOL    HW216527   7.859   8.634   8.267 -0.1398 -0.7395 -1.3287
37677SOL     OW16528   2.301   7.137   5.265 -0.2842  0.0406  0.4626
37677SOL    HW116529   2.305   7.091   5.349  0.0165  1.5027  1.2773
37677SOL    HW216530   2.292   7.229   5.289 -1.5200  0.3672 -1.1281
37678SOL     OW16531   3.541   3.388   2.073 -0.2451 -0.0662 -0.2927
37678SOL    HW116532   3.607   3.345   2.018 -0.0614 -0.7565  0.4466
37678SOL    HW216533   3.509   3.318   2.131 -0.3432  0.6623  0.5570
37679SOL     OW16534   2.939  10.657   7.460  0.0140 -0.4552 -0.0531
37679SOL    HW116535   3.029  10.623   7.457 -0.0582 -0.9634  2.0536
37679SOL    HW216536   2.883  10.580   7.453 -0.1533 -0.8342  3.5013
37680SOL     OW16537   3.750   0.674  11.006  0.0593 -0.3940 -0.1528
37680SOL    HW116538   3.709   0.642  10.926  1.2287 -2.7082  0.0754
37680SOL    HW216539   3.725   0.766  11.011 -1.9525 -0.7617 -1.9349
37681SOL     OW16540   5.419   9.167   6.074 -0.5562 -0.4613  0.5706
37681SOL    HW116541   5.455   9.256   6.077 -0.3992 -0.4658 -0.6618
37681SOL    HW216542   5.422   9.143   5.981 -2.7635 -0.8779  0.5563
37682SOL     OW16543   6.151   7.666   0.816  0.7427 -0.0678  0.4500
37682SOL    HW116544   6.160   7.589   0.871 -0.2718 -1.5274 -1.3133
37682SOL    HW216545   6.240   7.684   0.785  1.1020 -0.0575  1.4682
37683SOL     OW16546   1.357   2.311   1.797 -0.6944 -0.0326 -0.1297
37683SOL    HW116547   1.448   2.311   1.826 -0.8418 -0.8946  0.3554
37683SOL    HW216548   1.336   2.404   1.784  0.8769  0.0981 -2.2666
37684SOL     OW16549   8.882   2.044   0.664  0.3557 -0.4496  0.4941
37684SOL    HW116550   8.973   2.029   0.638  0.8658  1.4028  1.0473
37684SOL    HW216551   8.831   1.986   0.607  1.7782 -0.3056 -1.0128
37685SOL     OW16552   7.873   5.377   9.640  0.5456  0.1334 -0.6468
37685SOL    HW116553   7.847   5.390   9.548 -1.5591 -0.4009 -0.1947
37685SOL    HW216554   7.807   5.316   9.674  2.2892 -1.0399  0.7802
37686SOL     OW16555   4.672   6.798   6.897 -0.6720 -0.5324 -0.0494
37686SOL    HW116556   4.694   6.774   6.987 -1.8743 -0.5473  0.2615
37686SOL    HW216557   4.751   6.842   6.864  0.0363 -1.1437  0.7664
37687SOL     OW16558   6.884   6.899   9.436 -0.1837  0.1874 -0.7821
37687SOL    HW116559   6.871   6.943   9.520 -0.6580  0.8057 -1.1684
37687SOL    HW216560   6.841   6.956   9.373 -0.5578 -0.6973 -1.3415
37688SOL     OW16561   8.337   9.167   6.668 -0.3658 -0.1281  0.2834
37688SOL    HW116562   8.292   9.235   6.618  0.7325  0.1331 -0.3717
37688SOL    HW216563   8.330   9.195   6.759 -0.7008  0.3918  0.1017
37689SOL     OW16564  10.390  10.644   1.603  0.0103 -0.5855  0.7250
37689SOL    HW116565  10.342  10.587   1.663 -1.9349 -0.5277 -0.6990
37689SOL    HW216566  10.384  10.731   1.643  0.4768 -0.8571  1.4224
37690SOL     OW16567   9.697   0.700   6.043  0.1816 -0.2206 -0.1905
37690SOL    HW116568   9.708   0.725   6.134 -0.7637 -0.4619 -0.0028
37690SOL    HW216569   9.773   0.645   6.023  1.0418  0.8555  0.0744
37691SOL     OW16570   7.314  10.502   9.512  0.6440  0.8316 -0.0782
37691SOL    HW116571   7.291  10.595   9.513 -0.6471  0.5237 -0.1720
37691SOL    HW216572   7.291  10.473   9.424 -0.1818  0.1299  0.3558
37692SOL     OW16573   0.409   8.353   2.604 -0.7152  0.1674  0.0453
37692SOL    HW116574   0.317   8.326   2.614 -0.4170 -0.8292  0.2264
37692SOL    HW216575   0.459   8.274   2.624  0.1807  0.6326 -0.3181
37693SOL     OW16576   0.468   5.854   8.000 -0.1330  0.5227 -0.3940
37693SOL    HW116577   0.464   5.854   8.095 -0.2574  0.1700 -0.3983
37693SOL    HW216578   0.514   5.773   7.978 -0.8175  0.1990 -0.6606
37694SOL     OW16579   3.313   2.772   6.383 -0.1007  0.5759  0.1455
37694SOL    HW116580   3.340   2.857   6.418 -0.9414  1.4677 -1.2801
37694SOL    HW216581   3.390   2.741   6.335 -0.0811  0.9687 -0.0872
37695SOL     OW16582  10.257   4.585   4.830 -0.0627 -0.2365 -0.1300
37695SOL    HW116583  10.243   4.669   4.873  0.2507 -0.0834 -0.3247
37695SOL    HW216584  10.263   4.521   4.901 -0.4833 -0.1242  0.0102
37696SOL     OW16585   1.748   2.722   2.768 -0.5332  0.5954  0.2724
37696SOL    HW116586   1.677   2.681   2.719 -1.0297  0.2300  1.2710
37696SOL    HW216587   1.703   2.775   2.834  0.1108 -0.8147  1.8857
37697SOL     OW16588   6.227   3.931   7.738  0.4510 -0.7533  0.2489
37697SOL    HW116589   6.287   3.881   7.682  0.1477 -0.9518  0.0989
37697SOL    HW216590   6.223   4.018   7.697 -1.4497 -1.5122 -1.3147
37698SOL     OW16591   3.847  10.410   6.007 -1.0144 -0.3611 -0.1523
37698SOL    HW116592   3.832  10.327   5.960  1.3040  1.5362 -4.9703
37698SOL    HW216593   3.772  10.464   5.984 -0.3487  0.2690 -0.8887
37699SOL     OW16594   0.083   0.345   9.443 -0.0462 -0.0372 -0.0018
37699SOL    HW116595  -0.001   0.356   9.398 -1.0680  1.6633  2.1715
37699SOL    HW216596   0.063   0.291   9.519  0.8621  0.2200  0.4309
37700SOL     OW16597   9.748   0.543   4.657  0.1643  0.3303 -0.1223
37700SOL    HW116598   9.839   0.570   4.643  0.3851 -0.6565 -0.6636
37700SOL    HW216599   9.696   0.607   4.608  0.7339 -0.8230 -2.3318
37701SOL     OW16600   2.631   6.448   9.054 -0.4778 -0.5119  0.4798
37701SOL    HW116601   2.607   6.519   9.114  0.0199  0.5466 -0.5473
37701SOL    HW216602   2.726   6.456   9.043 -0.6084 -0.4466 -0.7507
37702SOL     OW16603   8.071   4.668   1.913  0.4409 -0.1692 -0.1227
37702SOL    HW116604   8.146   4.667   1.853  0.1321  0.9606 -0.5312
37702SOL    HW216605   8.085   4.745   1.968  1.0387 -1.5013  1.7036
37703SOL     OW16606   8.464   1.179  10.376  0.5934  0.0005  0.4984
37703SOL    HW116607   8.519   1.245  10.418  0.3771  0.8443 -0.4995
37703SOL    HW216608   8.446   1.214  10.289 -1.6779 -0.1444  0.8480
37704SOL     OW16609   7.101   8.539   0.337 -0.2787 -0.4605 -0.1855
37704SOL    HW116610   7.156   8.528   0.415 -0.8123 -0.8002  0.1486
37704SOL    HW216611   7.153   8.502   0.266 -0.2988 -1.3016  0.2228
37705SOL     OW16612   4.810   4.831   6.798 -0.0269  0.2235  0.4705
37705SOL    HW116613   4.802   4.764   6.867 -0.3902  0.4140  0.6119
37705SOL    HW216614   4.816   4.914   6.845 -0.9707  0.4245  0.2622
37706SOL     OW16615   1.947   8.221   3.237 -0.6315  0.0596  1.0785
37706SOL    HW116616   2.007   8.194   3.168 -1.0600  0.5652  0.5028
37706SOL    HW216617   1.990   8.296   3.278 -0.9267  0.5067  0.5784
37707SOL     OW16618   6.388  10.614   8.120  0.1482 -0.0911  0.4772
37707SOL    HW116619   6.344  10.651   8.197 -0.9377  2.0904 -1.0659
37707SOL    HW216620   6.339  10.650   8.046  1.2986 -1.9189 -1.2469
37708SOL     OW16621   7.513   3.130   9.199 -0.2591  0.1573 -0.0966
37708SOL    HW116622   7.510   3.118   9.104  1.3486  0.4331 -0.2070
37708SOL    HW216623   7.438   3.185   9.219  0.0114  1.0074 -1.3575
37709SOL     OW16624   0.406   7.593   3.114  0.8216 -0.1187 -0.2770
37709SOL    HW116625   0.424   7.505   3.079  1.0732  0.2923 -1.2094
37709SOL    HW216626   0.491   7.628   3.138  0.9987  0.6701 -1.8979
37710SOL     OW16627   3.839   0.612   8.475 -1.0237  0.9059 -0.5420
37710SOL    HW116628   3.902   0.650   8.536  0.1860 -0.1517 -1.0915
37710SOL    HW216629   3.755   0.623   8.519 -0.2573  0.7429  1.0446
37711SOL     OW16630   5.142   1.764   7.260 -0.4490  0.0484  0.4383
37711SOL    HW116631   5.156   1.850   7.222 -0.0039 -0.4593 -0.5883
37711SOL    HW216632   5.214   1.753   7.322  1.4004 -0.8331 -1.7368
37712SOL     OW16633   0.907   0.961   5.020  0.0679 -0.0278 -0.3418
37712SOL    HW116634   0.923   0.890   4.958  2.1792 -0.0434  0.1546
37712SOL    HW216635   0.919   0.921   5.106  1.3130  0.9008 -0.0515
37713SOL     OW16636   8.596   6.242   5.750  0.0257  0.4980 -0.2930
37713SOL    HW116637   8.653   6.221   5.676 -0.5700  0.4488 -0.7444
37713SOL    HW216638   8.588   6.337   5.748 -1.1515  0.3907 -1.1747
37714SOL     OW16639   1.726   0.988  10.762 -0.0030 -0.4623 -0.2144
37714SOL    HW116640   1.709   1.078  10.790 -0.7751 -0.2786 -1.2031
37714SOL    HW216641   1.690   0.934  10.832  1.6104 -0.0136  1.0025
37715SOL     OW16642   0.566   9.181   4.637  0.0923  0.1619 -0.0160
37715SOL    HW116643   0.541   9.160   4.728 -1.4531 -3.2262 -1.0370
37715SOL    HW216644   0.498   9.242   4.608 -1.2017 -1.0414  0.3096
37716SOL     OW16645   0.259   7.918   3.354  0.3356 -0.3187 -0.3973
37716SOL    HW116646   0.168   7.918   3.323  0.2700 -0.1762 -0.2003
37716SOL    HW216647   0.256   7.873   3.439  0.3945  0.0117 -0.2219
37717SOL     OW16648   8.420   5.030   6.547 -0.2714 -0.2304  0.1425
37717SOL    HW116649   8.476   5.047   6.472 -1.1478  1.9619 -0.0757
37717SOL    HW216650   8.479   4.993   6.613  0.7608 -0.9296 -1.1287
37718SOL     OW16651   2.368  10.653   7.088  0.2001  0.1018 -0.6685
37718SOL    HW116652   2.351  10.585   7.023 -1.2903  1.1272 -1.4035
37718SOL    HW216653   2.344  10.613   7.172  0.3978 -0.6299 -0.9548
37719SOL     OW16654   3.653   8.291   7.505  0.4655  0.3788 -0.4940
37719SOL    HW116655   3.706   8.291   7.585  2.5566  1.5315 -1.7771
37719SOL    HW216656   3.642   8.199   7.483  3.1913  0.0456 -0.8765
37720SOL     OW16657   5.317  10.743   7.531  0.0431  0.9006 -0.2010
37720SOL    HW116658   5.280  10.798   7.599  0.3566 -0.0760  0.8014
37720SOL    HW216659   5.314  10.654   7.567 -0.8807  0.1728 -1.9475
37721SOL     OW16660   0.652   0.993   9.275  0.1659  0.1320  0.0943
37721SOL    HW116661   0.719   0.931   9.305 -0.0951 -0.2518 -0.0981
37721SOL    HW216662   0.663   0.997   9.180  0.1373  0.3264  0.0983
37722SOL     OW16663   8.111   2.249   5.273  0.0252  0.1518  0.6935
37722SOL    HW116664   8.098   2.249   5.367  0.3696 -4.6498  1.0320
37722SOL    HW216665   8.186   2.307   5.258  0.3749  0.5376  3.4716
37723SOL     OW16666   4.319   3.481   9.500  0.8680 -0.1057  0.3296
37723SOL    HW116667   4.361   3.459   9.584 -0.3200 -2.6593  0.3341
37723SOL    HW216668   4.233   3.440   9.505 -0.1712  1.7155 -1.2446
37724SOL     OW16669   6.030   8.480   9.599 -0.4437 -0.6178  0.4231
37724SOL    HW116670   5.984   8.397   9.586 -1.1859 -0.1285 -0.1566
37724SOL    HW216671   5.961   8.542   9.621 -0.0368  0.0824 -0.2455
37725SOL     OW16672   1.797   9.067   0.864 -0.1215  0.3532 -0.1163
37725SOL    HW116673   1.862   9.091   0.930  1.0544  0.0246 -1.1215
37725SOL    HW216674   1.764   9.150   0.832 -0.5088  0.5203  0.6820
37726SOL     OW16675   9.126   2.149   6.075 -0.5892 -0.2705  0.1695
37726SOL    HW116676   9.054   2.203   6.041  1.1171  1.5917 -0.6786
37726SOL    HW216677   9.126   2.166   6.169  0.9557  2.7628 -0.2326
37727SOL     OW16678   8.643   6.737  10.768  0.0822  0.2916  0.0843
37727SOL    HW116679   8.686   6.773  10.846 -1.5519  1.5563  0.4600
37727SOL    HW216680   8.600   6.657  10.799 -0.0313  0.4471  0.3301
37728SOL     OW16681   9.790   2.124   1.428  0.0422 -0.8630 -0.0419
37728SOL    HW116682   9.884   2.143   1.432 -0.0517 -0.3926 -0.0556
37728SOL    HW216683   9.768   2.132   1.335  0.2096 -2.0709 -0.2028
37729SOL     OW16684   2.178   7.405   3.572 -0.6717 -0.1171  0.4114
37729SOL    HW116685   2.223   7.386   3.490 -2.4987 -0.8606 -0.4694
37729SOL    HW216686   2.204   7.495   3.593 -0.2585  0.1373 -1.0538
37730SOL     OW16687   1.964  10.833   3.143 -0.3004  0.1858 -0.2534
37730SOL    HW116688   1.887  10.890   3.142 -1.1553 -0.9517 -0.6084
37730SOL    HW216689   1.936  10.754   3.188  1.6530  1.0077  2.6596
37731SOL     OW16690   9.332  10.110  10.061 -0.0770  0.3161  0.0122
37731SOL    HW116691   9.320  10.060   9.980  1.2124 -1.1347  0.6460
37731SOL    HW216692   9.289  10.194  10.045 -1.3899 -0.5990 -1.5091
37732SOL     OW16693   2.318   3.565   9.950  0.8501 -0.0396 -0.2624
37732SOL    HW116694   2.300   3.529  10.038 -1.6932 -0.6807 -0.9502
37732SOL    HW216695   2.300   3.658   9.958  2.4282  0.2518  0.2885
37733SOL     OW16696   7.061   6.822   1.631 -0.1491  0.1313  0.0879
37733SOL    HW116697   7.153   6.835   1.656  0.3525 -0.1534 -1.5171
37733SOL    HW216698   7.032   6.748   1.685  0.0861  1.1713  1.6990
37734SOL     OW16699   8.102   9.612   6.071  0.1280 -0.4108  0.2460
37734SOL    HW116700   8.043   9.628   5.997  1.1591  0.5353 -0.4021
37734SOL    HW216701   8.066   9.665   6.142 -0.6487 -1.0256  0.3319
37735SOL     OW16702   4.832   0.655   3.291  0.3104 -0.0110 -0.1180
37735SOL    HW116703   4.872   0.733   3.252  2.0952 -0.4572  0.7516
37735SOL    HW216704   4.881   0.640   3.371 -1.4802 -0.7495  0.8907
37736SOL     OW16705   4.835   2.659   3.182 -0.6760  0.3794  0.1620
37736SOL    HW116706   4.763   2.718   3.158  0.0606  1.3275  0.2344
37736SOL    HW216707   4.908   2.686   3.126  0.1737  0.6672  1.3736
37737SOL     OW16708   5.356   0.079   9.766  0.0766 -0.8815 -0.0357
37737SOL    HW116709   5.339   0.081   9.672  1.1745  0.8087 -0.2223
37737SOL    HW216710   5.392  -0.009   9.782  0.5382 -0.9351 -1.3009
37738SOL     OW16711   2.055   0.074   4.659  0.4046  0.5842 -0.1207
37738SOL    HW116712   2.076   0.131   4.584 -1.2142 -0.1538 -1.1891
37738SOL    HW216713   1.985   0.120   4.705  1.6548  1.2225  1.2283
37739SOL     OW16714   9.294   1.847   2.887 -0.4319 -0.0028  0.0336
37739SOL    HW116715   9.346   1.769   2.873  2.1047  1.5160  0.3943
37739SOL    HW216716   9.357   1.914   2.914 -2.8178  1.4616  2.5136
37740SOL     OW16717   6.204   6.773   6.368  0.0781 -0.4135 -0.0326
37740SOL    HW116718   6.251   6.795   6.287 -0.5793 -2.1888 -0.9367
37740SOL    HW216719   6.271   6.778   6.436  0.8654  0.1224 -0.8161
37741SOL     OW16720   4.751   2.384   7.460 -0.1062 -0.0009  0.3602
37741SOL    HW116721   4.682   2.319   7.471  1.2008 -1.4248  0.3953
37741SOL    HW216722   4.786   2.369   7.373  2.5135 -1.7452  1.5964
37742SOL     OW16723   1.059  10.201   6.418  0.2843 -0.2445 -0.0106
37742SOL    HW116724   1.043  10.257   6.342 -1.9855 -2.2764 -1.1495
37742SOL    HW216725   1.040  10.112   6.387 -0.0217 -1.2267  2.7382
37743SOL     OW16726   2.485   7.644  10.571  0.0858 -0.0831  0.1509
37743SOL    HW116727   2.508   7.552  10.580  2.1077  0.5769  4.3352
37743SOL    HW216728   2.562   7.685  10.533 -0.3518  0.0818 -0.5802
37744SOL     OW16729   1.791   8.806   3.742  0.3705  0.2015  0.1087
37744SOL    HW116730   1.720   8.832   3.683  0.6728  1.9659  0.4665
37744SOL    HW216731   1.801   8.881   3.801  1.8416 -0.4496  0.7234
37745SOL     OW16732   2.161   5.181  10.244  0.3006  0.2111  0.3072
37745SOL    HW116733   2.124   5.143  10.164 -1.1814  0.5610  0.7875
37745SOL    HW216734   2.243   5.135  10.257 -0.0497 -0.7485 -0.7256
37746SOL     OW16735   7.954   4.784   7.490 -0.5976 -0.1546 -0.1468
37746SOL    HW116736   7.968   4.814   7.400  1.0381 -0.9102 -0.1733
37746SOL    HW216737   8.018   4.832   7.542 -1.2554 -0.0236  0.5573
37747SOL     OW16738   6.060   4.469  10.323 -0.0537 -0.7002  0.5783
37747SOL    HW116739   6.148   4.479  10.360  0.6303 -0.5442 -1.0002
37747SOL    HW216740   6.050   4.375  10.311  0.7610 -0.6115 -1.1198
37748SOL     OW16741   4.384   4.890   4.078 -0.4475  0.0364  0.5911
37748SOL    HW116742   4.444   4.877   4.152  0.5160 -0.3417 -0.2310
37748SOL    HW216743   4.382   4.805   4.034 -0.0376  0.5871 -0.5223
37749SOL     OW16744   4.488   5.577  10.419  0.2757  0.2533 -0.2842
37749SOL    HW116745   4.469   5.590  10.512  0.6123  2.3960 -0.4747
37749SOL    HW216746   4.497   5.482  10.410  0.8723  0.0322  1.9988
37750SOL     OW16747   5.790   8.249  10.315 -0.5066 -0.0091 -0.6284
37750SOL    HW116748   5.876   8.225  10.279 -0.5888 -0.4407 -0.5359
37750SOL    HW216749   5.729   8.190  10.272 -0.4816 -1.3014  1.0123
37751SOL     OW16750   4.872  10.603   2.078  0.5134 -0.2909 -0.1930
37751SOL    HW116751   4.926  10.614   2.157 -2.1363  0.7141  1.6318
37751SOL    HW216752   4.900  10.674   2.020  3.3129 -1.7214 -0.7972
37752SOL     OW16753   8.871   7.521  10.303 -0.0598  0.3774  0.3303
37752SOL    HW116754   8.807   7.524  10.232 -1.0392  0.4770  1.1976
37752SOL    HW216755   8.941   7.464  10.270  0.5928  2.1495 -1.5809
37753SOL     OW16756   6.121  10.899   9.947 -0.3889  0.1156 -0.0312
37753SOL    HW116757   6.102  10.822  10.001 -0.2015 -0.1603 -0.3541
37753SOL    HW216758   6.035  10.931   9.919 -0.5851  1.1341  1.6105
37754SOL     OW16759  10.928   3.846   8.247  0.5492 -0.3053 -0.4076
37754SOL    HW116760  10.977   3.879   8.172  0.0074  0.9369 -0.2399
37754SOL    HW216761  10.846   3.814   8.211  0.3654  0.1217 -0.3708
37755SOL     OW16762  10.824   3.008   5.099 -0.2065  0.1534 -0.1586
37755SOL    HW116763  10.764   3.077   5.127 -1.0229 -0.6609  0.1519
37755SOL    HW216764  10.798   2.931   5.151  0.5451 -0.4400 -0.6414
37756SOL     OW16765   7.120   1.879   5.845 -0.2976  0.3709 -0.3403
37756SOL    HW116766   7.107   1.866   5.938 -2.8096  0.7163 -0.5808
37756SOL    HW216767   7.195   1.939   5.839 -0.4963  0.8415  1.4679
37757SOL     OW16768  10.271   9.483   2.717 -0.2829 -0.3129 -0.1626
37757SOL    HW116769  10.207   9.496   2.647 -1.3324  0.7525  0.9304
37757SOL    HW216770  10.219   9.450   2.790  1.0226 -2.7947 -0.2654
37758SOL     OW16771   0.180   4.004   8.441  0.0784 -0.3224  0.2931
37758SOL    HW116772   0.174   4.075   8.505 -1.5259  0.9069 -1.1282
37758SOL    HW216773   0.263   4.020   8.395 -0.4848  0.9379 -0.3234
37759SOL     OW16774   0.409  10.934  10.092 -0.4938  0.2372 -0.1951
37759SOL    HW116775   0.397  10.884  10.173  0.2134  0.0515 -0.1941
37759SOL    HW216776   0.484  10.892  10.050 -0.3879  0.8078 -0.5816
37760SOL     OW16777   4.673   2.607   4.106 -0.1827  0.1098 -0.1816
37760SOL    HW116778   4.729   2.598   4.029 -0.4032 -2.9422 -0.1330
37760SOL    HW216779   4.584   2.611   4.071 -0.2081 -0.0585 -0.1393
37761SOL     OW16780   1.363   4.785   2.414  0.0843  0.1735  0.1378
37761SOL    HW116781   1.399   4.737   2.340 -0.3978  0.2997 -0.1794
37761SOL    HW216782   1.343   4.718   2.479  1.2465  0.1314  0.4858
37762SOL     OW16783   5.435   1.105   6.457  0.1103 -0.3049  0.9024
37762SOL    HW116784   5.440   1.011   6.440  0.8592 -0.4088  1.6376
37762SOL    HW216785   5.517   1.126   6.502  1.0276  1.1406 -1.2678
37763SOL     OW16786   2.839   3.032  10.365  0.5163  0.5955 -0.1153
37763SOL    HW116787   2.914   2.981  10.335 -0.0380  0.3994 -1.2378
37763SOL    HW216788   2.877   3.109  10.408  1.3494  0.1867 -0.1198
37764SOL     OW16789   9.264   5.324   2.321  0.2596 -0.0304  0.2759
37764SOL    HW116790   9.245   5.239   2.361 -1.4534 -0.0031 -0.4134
37764SOL    HW216791   9.256   5.387   2.393  1.7185 -0.4293  0.8315
37765SOL     OW16792   4.085   4.865   4.592  0.0981 -0.3877  0.2457
37765SOL    HW116793   4.006   4.812   4.584 -0.7134  0.9755 -1.1793
37765SOL    HW216794   4.057   4.955   4.576  1.9457  0.1192 -0.5052
37766SOL     OW16795   5.345   4.875   7.902  0.1217  0.0206  0.4167
37766SOL    HW116796   5.273   4.871   7.840 -1.2009  2.0183  1.6777
37766SOL    HW216797   5.367   4.968   7.907  0.5632 -0.1339  2.4620
37767SOL     OW16798   1.627   5.526   1.912  0.2416  0.0508 -0.0375
37767SOL    HW116799   1.587   5.593   1.968  1.3530 -0.9086  2.0354
37767SOL    HW216800   1.571   5.449   1.923  0.3844 -0.1056 -0.3882
37768SOL     OW16801   8.463   5.759   9.528  0.1063  0.0324  0.1093
37768SOL    HW116802   8.409   5.750   9.606  1.6776 -0.5932  1.1683
37768SOL    HW216803   8.404   5.796   9.462 -2.3207 -3.0296  0.3782
37769SOL     OW16804   4.983   2.958   2.681 -0.2786 -0.5698  0.1713
37769SOL    HW116805   4.898   2.962   2.638 -0.0568  2.5683 -0.1911
37769SOL    HW216806   4.964   2.924   2.768 -1.6912 -1.1127 -0.3247
37770SOL     OW16807   7.134   5.583   7.123  0.1192 -0.1050  0.6702
37770SOL    HW116808   7.227   5.586   7.101 -0.0923  0.5984 -0.1830
37770SOL    HW216809   7.103   5.502   7.082  0.1216  0.2519 -0.0577
37771SOL     OW16810   8.739   0.157   3.771 -0.7448  0.0476  0.5324
37771SOL    HW116811   8.720   0.210   3.693  1.7798  0.2041 -0.0388
37771SOL    HW216812   8.822   0.190   3.804 -0.3893 -1.8368  1.7067
37772SOL     OW16813   4.203   5.078   1.811 -0.2700 -0.8867  0.4341
37772SOL    HW116814   4.140   5.009   1.833 -0.7673 -0.4699  0.3260
37772SOL    HW216815   4.167   5.158   1.849 -0.5843 -0.3636 -0.9205
37773SOL     OW16816   9.794   0.022  10.627 -0.3815  0.7745 -0.5467
37773SOL    HW116817   9.773   0.110  10.658  2.2004  1.3659 -0.2173
37773SOL    HW216818   9.753  -0.036  10.692  0.0997  1.8340  0.7502
37774SOL     OW16819   2.394   6.233   5.701 -0.7998  0.2829  0.4665
37774SOL    HW116820   2.459   6.299   5.678 -0.7349 -0.4154 -1.5138
37774SOL    HW216821   2.311   6.269   5.669 -1.3198  0.8333  2.3113
37775SOL     OW16822   4.041   9.935   5.641 -0.1226 -0.3837  0.3347
37775SOL    HW116823   4.042   9.922   5.546  0.4326  2.1231 -0.0947
37775SOL    HW216824   4.127   9.973   5.660 -0.5489 -0.0620  1.6903
37776SOL     OW16825   4.795   3.446   9.216 -0.4565  0.3381 -0.6306
37776SOL    HW116826   4.711   3.486   9.241 -0.6283 -0.5925  0.3937
37776SOL    HW216827   4.812   3.382   9.286 -0.2553 -1.4290 -2.2110
37777SOL     OW16828   0.312   7.258   0.813 -0.1582  0.5175  0.0823
37777SOL    HW116829   0.307   7.321   0.886  0.5538 -0.0707  0.6618
37777SOL    HW216830   0.222   7.244   0.787 -0.5456 -0.0935  1.6099
37778SOL     OW16831   9.831   9.476   3.049 -0.2187  0.0043  0.3284
37778SOL    HW116832   9.771   9.413   3.086  0.5404  0.1032  1.7793
37778SOL    HW216833   9.918   9.447   3.077  0.1436  1.6933  1.0807
37779SOL     OW16834   5.524  10.142   5.137 -0.6504  0.2110 -0.1236
37779SOL    HW116835   5.544  10.069   5.078  1.1982  0.8649 -0.3835
37779SOL    HW216836   5.459  10.194   5.090 -0.3800 -0.1319 -0.8993
37780SOL     OW16837   1.630   6.136   4.493 -0.0580  0.4386  0.0850
37780SOL    HW116838   1.671   6.205   4.546 -1.6181  0.6496  1.0672
37780SOL    HW216839   1.580   6.183   4.427 -1.2696  0.3028  0.8668
37781SOL     OW16840  10.898   5.524   4.287  0.6717  0.3870 -0.1272
37781SOL    HW116841  10.949   5.454   4.329 -2.0577 -1.7902 -0.1516
37781SOL    HW216842  10.943   5.539   4.204  0.7263 -2.2813 -0.6772
37782SOL     OW16843   6.503   7.922   5.131  0.2378 -0.3957  0.3232
37782SOL    HW116844   6.431   7.943   5.189 -0.6631 -0.0435 -0.8903
37782SOL    HW216845   6.496   7.827   5.117  0.3753 -0.4583  0.6623
37783SOL     OW16846   3.404   7.348   0.706  0.0433  0.0656  0.2389
37783SOL    HW116847   3.375   7.388   0.788 -2.1092 -1.8148  0.4759
37783SOL    HW216848   3.458   7.274   0.733 -1.7525 -1.3670  0.0871
37784SOL     OW16849   2.852   4.285   7.593  0.0342  0.1393  0.0889
37784SOL    HW116850   2.774   4.333   7.621 -0.0931 -1.2595  2.4260
37784SOL    HW216851   2.823   4.194   7.587  0.3320  0.1247 -3.9502
37785SOL     OW16852   5.129   6.927   9.968  0.0291  0.4024 -0.5211
37785SOL    HW116853   5.191   6.889   9.906  0.9559 -1.4580  1.4221
37785SOL    HW216854   5.056   6.865   9.971  0.3663  0.0361  0.7914
37786SOL     OW16855   6.267  10.257   4.967 -0.6447  0.3787 -0.5533
37786SOL    HW116856   6.346  10.213   4.935 -2.0576 -0.3248 -3.3900
37786SOL    HW216857   6.199  10.231   4.906 -2.5052  3.1596  0.1449
37787SOL     OW16858   5.603   1.240   6.095  0.1348  0.4602  0.4240
37787SOL    HW116859   5.655   1.231   6.175  0.4861  0.0103  0.1562
37787SOL    HW216860   5.532   1.177   6.105 -0.7192  1.5092  1.0564
37788SOL     OW16861   4.741   3.763   0.891  0.2021  0.5451 -0.2566
37788SOL    HW116862   4.792   3.843   0.895  0.3916  0.5218 -1.7790
37788SOL    HW216863   4.806   3.694   0.876 -0.1615  0.4079 -1.2955
37789SOL     OW16864   6.512   6.159   5.997 -0.6631 -0.0940  0.3460
37789SOL    HW116865   6.578   6.170   6.066 -1.2460 -0.0947  0.9162
37789SOL    HW216866   6.563   6.147   5.917  0.0771 -1.6319  0.9955
37790SOL     OW16867   0.423   1.838  10.790  0.4634 -0.2044 -0.2067
37790SOL    HW116868   0.437   1.923  10.748  2.0830 -1.0879 -1.6141
37790SOL    HW216869   0.333   1.814  10.765  0.8268  0.0277 -1.9058
37791SOL     OW16870  10.621   1.796  10.036  0.0177 -0.7975  0.5487
37791SOL    HW116871  10.570   1.736  10.091 -1.1021  1.2153  1.8622
37791SOL    HW216872  10.703   1.808  10.084  0.2898 -1.3630  0.2262
37792SOL     OW16873   8.755   7.626   7.594 -0.0980 -0.0583  0.0491
37792SOL    HW116874   8.669   7.588   7.576  0.9591 -4.2737  2.3282
37792SOL    HW216875   8.767   7.614   7.688  2.3684  1.9648  0.1105
37793SOL     OW16876   2.768   9.152   3.087 -0.4755  0.1589 -0.2155
37793SOL    HW116877   2.859   9.128   3.073 -0.2912  0.9671 -0.4182
37793SOL    HW216878   2.748   9.119   3.175 -0.2398 -0.7403 -0.4883
37794SOL     OW16879  10.437  10.478   6.281  0.0686  0.1015  0.6368
37794SOL    HW116880  10.416  10.444   6.368 -1.5870  1.5799  0.8623
37794SOL    HW216881  10.425  10.403   6.223  0.9548 -0.8419  1.6162
37795SOL     OW16882  10.034   8.856   7.620  0.0084 -0.1728  0.1280
37795SOL    HW116883   9.965   8.827   7.560 -0.4379  1.3282 -0.1438
37795SOL    HW216884  10.047   8.783   7.680 -0.3205 -1.2852 -1.1196
37796SOL     OW16885   0.400   9.174   4.320 -0.0716 -0.0090  0.0409
37796SOL    HW116886   0.389   9.087   4.359  0.5906 -0.1120  0.0166
37796SOL    HW216887   0.371   9.234   4.389  1.7300 -0.1591  1.0095
37797SOL     OW16888   1.761   3.598   4.980 -0.0771  0.4424 -0.6939
37797SOL    HW116889   1.704   3.637   5.047  0.3326 -1.2193  0.7018
37797SOL    HW216890   1.716   3.613   4.898 -1.1842  1.5343  0.0731
37798SOL     OW16891   1.611   4.203   8.627  0.3977 -0.0913 -0.3399
37798SOL    HW116892   1.549   4.250   8.572 -1.5549 -2.8790 -0.7587
37798SOL    HW216893   1.620   4.256   8.705  0.0517  1.9765 -1.6271
37799SOL     OW16894   8.132   8.257   5.618 -0.0441  0.0986  0.0018
37799SOL    HW116895   8.036   8.251   5.622 -0.2240  0.1942 -2.5984
37799SOL    HW216896   8.160   8.171   5.586  0.4289  1.0053 -2.1717
37800SOL     OW16897   2.721   2.068   3.450 -0.1477  0.5788  0.2509
37800SOL    HW116898   2.684   2.156   3.443  0.6809  0.8208 -2.0277
37800SOL    HW216899   2.767   2.056   3.367  2.0983 -0.9534  1.6430
37801SOL     OW16900   7.837   6.913   1.935 -0.0923  0.3422  0.8217
37801SOL    HW116901   7.911   6.930   1.877  0.1500 -0.0034  1.0217
37801SOL    HW216902   7.811   6.999   1.967 -1.1528  0.6931 -0.9010
37802SOL     OW16903   3.388   6.974   9.575 -0.1376 -0.4476 -0.3091
37802SOL    HW116904   3.359   7.015   9.493 -0.8547  1.6163  0.9040
37802SOL    HW216905   3.438   7.042   9.619 -1.6242 -0.7125  1.9385
37803SOL     OW16906   0.154   5.741   1.328  0.6037  0.0408 -0.3165
37803SOL    HW116907   0.185   5.723   1.239 -1.1077  0.5572 -1.0521
37803SOL    HW216908   0.103   5.822   1.320  0.6625  0.2413  1.1892
37804SOL     OW16909   1.444   8.810   6.292  0.5534 -0.1577 -0.0665
37804SOL    HW116910   1.385   8.784   6.363 -1.2428 -0.0268 -1.4166
37804SOL    HW216911   1.482   8.728   6.260  1.8733 -0.1554  1.4142
37805SOL     OW16912   6.795   6.798   4.310 -0.2840 -0.6476 -0.0249
37805SOL    HW116913   6.781   6.863   4.241 -1.5335  0.6743  1.4259
37805SOL    HW216914   6.887   6.774   4.301  0.2237  1.3301 -0.6189
37806SOL     OW16915   5.306   1.970   1.716 -0.3485 -0.1515  0.0804
37806SOL    HW116916   5.291   2.060   1.746 -0.9511 -0.0937 -0.3634
37806SOL    HW216917   5.367   1.933   1.780 -0.1479  0.5509  0.3055
37807SOL     OW16918   5.376   2.513   4.448  0.1521  0.0924 -0.1686
37807SOL    HW116919   5.343   2.602   4.461 -1.7409 -0.7040  0.8284
37807SOL    HW216920   5.397   2.509   4.354 -1.3865  1.0989 -0.5972
37808SOL     OW16921   0.329   4.389   6.066  0.2486 -0.2890  0.1837
37808SOL    HW116922   0.261   4.407   6.002 -1.1005  0.9859  1.8586
37808SOL    HW216923   0.284   4.394   6.151  1.8673 -2.2016  1.2684
37809SOL     OW16924   7.202   9.919   7.636  0.3891  0.5743  0.2024
37809SOL    HW116925   7.144   9.880   7.702  0.1056  0.7615  0.0677
37809SOL    HW216926   7.144   9.973   7.583  0.5071 -0.1035 -0.6251
37810SOL     OW16927   3.156   6.285   3.626  0.9455  0.1614 -0.3850
37810SOL    HW116928   3.062   6.274   3.608  0.7404 -0.3275  0.8803
37810SOL    HW216929   3.194   6.200   3.606  0.3955 -1.0854  3.1352
37811SOL     OW16930   0.806   1.517   0.958 -0.2165 -0.5370 -0.2276
37811SOL    HW116931   0.727   1.555   0.919  0.5494  1.4698  0.0825
37811SOL    HW216932   0.823   1.569   1.036  0.9736 -1.4447  0.1578
37812SOL     OW16933   0.659   4.689   8.185 -0.1039 -0.5412 -0.0209
37812SOL    HW116934   0.720   4.615   8.178 -2.1006 -2.3267  0.5793
37812SOL    HW216935   0.682   4.745   8.111  2.2740 -1.0968  0.2129
37813SOL     OW16936  10.392   9.166   6.547 -0.2719 -0.1837  0.5170
37813SOL    HW116937  10.338   9.206   6.615  1.4091  0.1724  1.7207
37813SOL    HW216938  10.437   9.239   6.505 -1.6609 -0.3588 -1.3692
37814SOL     OW16939   5.325   4.260  10.201 -0.0100 -0.0993 -0.0049
37814SOL    HW116940   5.362   4.228  10.119  1.0904  0.6550  0.1671
37814SOL    HW216941   5.386   4.329  10.229 -0.1934 -0.5583  1.6080
37815SOL     OW16942  10.205  10.665   2.611 -0.0153  0.0597  0.5249
37815SOL    HW116943  10.119  10.649   2.571  0.1029 -1.4686  0.8265
37815SOL    HW216944  10.259  10.695   2.538 -0.5577  0.1326  0.1400
37816SOL     OW16945   7.938   7.421   8.062  0.1531  0.0655  0.2558
37816SOL    HW116946   7.886   7.485   8.109  0.0631  0.3300 -0.1972
37816SOL    HW216947   7.910   7.337   8.097 -0.5923  0.2021  0.0013
37817SOL     OW16948   4.263   5.654   5.083 -0.0091 -0.0399  0.1796
37817SOL    HW116949   4.186   5.704   5.110  0.1780 -0.0463  0.7451
37817SOL    HW216950   4.247   5.565   5.114  0.3101  0.0029  0.4699
37818SOL     OW16951   7.121   4.815  10.975  0.0476  0.8332  0.0606
37818SOL    HW116952   7.039   4.809  11.025 -0.3421  0.5803 -0.5907
37818SOL    HW216953   7.160   4.728  10.982  0.5949  1.1383  0.9146
37819SOL     OW16954  10.880   1.348   3.518 -0.0844 -0.0912 -0.1626
37819SOL    HW116955  10.832   1.298   3.452 -0.5645  1.0290 -0.6944
37819SOL    HW216956  10.875   1.439   3.487 -0.5275  0.5020  1.5258
37820SOL     OW16957  10.894   5.176   0.005  0.8971  0.5141  0.1058
37820SOL    HW116958  10.881   5.109  -0.062 -1.3191  0.1436  0.8346
37820SOL    HW216959  10.978   5.152   0.045  0.5577 -1.3646 -0.1814
37821SOL     OW16960   1.909   5.078   5.652  0.7476 -0.2514 -0.2362
37821SOL    HW116961   1.973   5.067   5.722  1.1201 -2.4511 -0.8451
37821SOL    HW216962   1.924   5.166   5.619  3.2266 -0.5417 -0.0919
37822SOL     OW16963   5.426   1.968   0.928 -0.1433  0.3479  0.0481
37822SOL    HW116964   5.512   1.951   0.891 -0.3649  1.9378 -1.2858
37822SOL    HW216965   5.366   1.917   0.873 -0.0628 -1.0850  1.2252
37823SOL     OW16966   6.859   0.100   4.944  0.1856  0.5001 -0.2773
37823SOL    HW116967   6.805   0.069   5.016 -2.0584 -1.0262 -2.4560
37823SOL    HW216968   6.804   0.090   4.867  3.0577  0.4097 -2.4770
37824SOL     OW16969   1.508   5.200   2.166 -0.2586  0.2066 -0.7065
37824SOL    HW116970   1.598   5.228   2.179  0.8245 -2.7994 -1.0606
37824SOL    HW216971   1.469   5.270   2.113  2.6636  0.3403 -2.9257
37825SOL     OW16972   4.970  10.930   3.323  0.0834  0.4637  0.2255
37825SOL    HW116973   4.946  11.007   3.374 -0.9088  0.5476 -0.3334
37825SOL    HW216974   4.952  10.856   3.381 -2.3494  0.4775 -0.4161
37826SOL     OW16975  10.961   5.027   3.789  0.0132  0.3984  0.1426
37826SOL    HW116976  11.046   4.987   3.771  0.2276  1.0444 -0.3188
37826SOL    HW216977  10.982   5.106   3.839 -0.3099  0.6080 -0.0486
37827SOL     OW16978   8.338   9.189   2.395 -0.0308  0.3635 -0.4305
37827SOL    HW116979   8.347   9.131   2.471  0.0507  1.7680  0.6700
37827SOL    HW216980   8.334   9.129   2.320  1.3976 -1.0310  0.5226
37828SOL     OW16981   0.661   7.086   9.460  0.1250 -0.4950 -0.2321
37828SOL    HW116982   0.606   7.008   9.465  2.4105 -2.2192 -0.4187
37828SOL    HW216983   0.637   7.137   9.537 -2.2256 -0.7801 -0.7121
37829SOL     OW16984   4.870   7.156   2.735  0.4175 -0.6419  0.0715
37829SOL    HW116985   4.866   7.102   2.814  0.4144  1.0806  1.2970
37829SOL    HW216986   4.780   7.158   2.703 -0.0122  0.3132  1.2344
37830SOL     OW16987   8.978   3.826   9.429 -0.2863  0.0380 -0.1012
37830SOL    HW116988   9.015   3.812   9.516  1.9686  2.6779 -0.4536
37830SOL    HW216989   9.017   3.757   9.375  0.8144  0.2327  0.4120
37831SOL     OW16990   7.912   4.376   0.310 -0.0013  0.8129 -0.2121
37831SOL    HW116991   7.955   4.291   0.306 -2.6009 -0.5728 -1.7829
37831SOL    HW216992   7.919   4.411   0.221 -0.5810  1.3617 -0.0513
37832SOL     OW16993   2.253   7.666   3.584 -0.3448 -0.0311 -0.0229
37832SOL    HW116994   2.331   7.720   3.596 -0.1370 -0.5412  1.0304
37832SOL    HW216995   2.180   7.728   3.582 -0.2984  0.2379  2.9411
37833SOL     OW16996   3.223   7.930   7.821 -0.0481 -1.0003  0.2287
37833SOL    HW116997   3.268   8.006   7.858 -1.5357 -0.7602  1.6488
37833SOL    HW216998   3.139   7.965   7.791 -0.9385 -2.1467  1.3085
37834SOL     OW16999   8.542  10.510   4.268 -0.2646 -0.4300  0.2948
37834SOL    HW117000   8.612  10.513   4.203 -2.0553 -2.0958 -1.8948
37834SOL    HW217001   8.537  10.418   4.294 -0.3521  0.0096  1.9811
37835SOL     OW17002   6.547   4.442   6.335  0.1092  0.1623  0.2749
37835SOL    HW117003   6.586   4.374   6.281  0.9890 -0.6291  1.8336
37835SOL    HW217004   6.602   4.519   6.319  0.2047  0.0140 -0.1319
37836SOL     OW17005   7.665   7.156   6.849  0.2687  0.3261 -0.2981
37836SOL    HW117006   7.722   7.211   6.796 -0.0164 -0.4906 -1.5068
37836SOL    HW217007   7.584   7.206   6.856  1.1516  1.5915  1.6159
37837SOL     OW17008   0.793   7.821   2.765  0.0707  0.3278 -0.2322
37837SOL    HW117009   0.776   7.728   2.751 -0.2507  0.3115  0.2739
37837SOL    HW217010   0.791   7.833   2.860  0.9489  0.6935 -0.2497
37838SOL     OW17011   6.006   2.337   7.623 -0.0879 -0.4518 -0.3749
37838SOL    HW117012   5.972   2.424   7.641 -0.5802 -0.8222  0.5842
37838SOL    HW217013   6.023   2.299   7.709  0.9771 -0.9808 -0.7977
37839SOL     OW17014   6.868   2.753   2.867 -0.2176 -0.2131  0.7174
37839SOL    HW117015   6.815   2.828   2.894 -1.1521 -1.1807  1.6790
37839SOL    HW217016   6.936   2.747   2.933  1.1672  1.0108 -0.5017
37840SOL     OW17017   7.420   9.774   7.613  0.1312  0.6020 -0.0427
37840SOL    HW117018   7.352   9.841   7.612  0.6472  1.1599  0.7659
37840SOL    HW217019   7.461   9.780   7.527 -1.1663 -0.1044 -0.7379
37841SOL     OW17020   8.782   6.718   6.450 -0.1776 -0.9861 -0.3783
37841SOL    HW117021   8.827   6.669   6.519 -0.7628  0.1999  0.8882
37841SOL    HW217022   8.853   6.760   6.401  0.1988 -0.8520  0.2664
37842SOL     OW17023   8.458   0.574   9.508 -0.1410  0.3468  0.6253
37842SOL    HW117024   8.435   0.496   9.559 -0.3311 -0.4562 -0.6338
37842SOL    HW217025   8.380   0.628   9.510 -0.0274  0.4926  1.4681
37843SOL     OW17026   1.596   0.061   3.522  0.2953  0.1463  0.2980
37843SOL    HW117027   1.691   0.057   3.521  0.2685 -0.8943  0.5296
37843SOL    HW217028   1.573   0.115   3.446  1.0611  0.3298  0.1894
37844SOL     OW17029   8.224   3.354  10.797  0.1602  0.5522 -0.4302
37844SOL    HW117030   8.148   3.346  10.739  0.8882 -2.7032 -1.1138
37844SOL    HW217031   8.289   3.402  10.746 -0.4973  1.0384 -0.8274
37845SOL     OW17032   6.151   4.720   0.727 -0.1773  0.5072  0.3523
37845SOL    HW117033   6.083   4.659   0.699 -0.6511  0.4318  1.5710
37845SOL    HW217034   6.151   4.788   0.661  0.6842 -1.0073 -1.3016
37846SOL     OW17035   5.249   6.750   0.053 -0.2285 -0.5955  0.0191
37846SOL    HW117036   5.336   6.771   0.085  0.4654 -0.9861 -1.4971
37846SOL    HW217037   5.262   6.671  -0.001 -1.4163 -0.3608 -0.6456
37847SOL     OW17038   4.024   3.937   5.844  0.1102 -0.0029 -0.2866
37847SOL    HW117039   3.961   4.009   5.844 -0.9556 -0.9029 -0.1939
37847SOL    HW217040   4.086   3.959   5.774 -0.0914  1.0772 -0.1392
37848SOL     OW17041  10.360   7.485   3.401  0.9468 -0.0614  0.0552
37848SOL    HW117042  10.305   7.564   3.401  0.5419 -0.3242 -0.9297
37848SOL    HW217043  10.299   7.413   3.416  1.0844 -0.3178 -0.5847
37849SOL     OW17044   9.325   4.934   8.323  0.2859  0.2124  0.2468
37849SOL    HW117045   9.389   4.912   8.391  0.0244  1.1239  0.7920
37849SOL    HW217046   9.365   5.006   8.275  0.0942  0.1387 -0.0246
37850SOL     OW17047   3.511   0.066  10.353 -0.4451 -0.2316  0.0430
37850SOL    HW117048   3.456   0.003  10.306 -0.7086  0.6902 -0.9286
37850SOL    HW217049   3.470   0.151  10.336  0.8287  0.3840 -0.0540
37851SOL     OW17050   7.635  10.380   4.473  0.1535  0.0567  0.2853
37851SOL    HW117051   7.596  10.319   4.535 -0.4579 -0.0276 -0.1740
37851SOL    HW217052   7.560  10.417   4.425  0.6528 -0.5400 -1.0188
37852SOL     OW17053   3.444   3.130   0.792 -0.1275  0.0120  0.7475
37852SOL    HW117054   3.535   3.104   0.804 -0.1471 -0.0546  0.7483
37852SOL    HW217055   3.405   3.121   0.878  0.3119  1.7667  1.1786
37853SOL     OW17056   1.312   6.306   7.622  0.2277  0.4394  0.4144
37853SOL    HW117057   1.399   6.327   7.658  0.2099  0.6926  0.3128
37853SOL    HW217058   1.326   6.227   7.570  0.5935  1.0063 -0.3754
37854SOL     OW17059   5.004  10.271   1.318  0.4187  0.5184  0.2262
37854SOL    HW117060   4.916  10.286   1.285  0.4266  2.3119  0.9228
37854SOL    HW217061   5.027  10.184   1.285 -1.3574  0.2672 -0.4737
37855SOL     OW17062   1.153   4.177   0.385  0.2744 -0.5349 -0.2889
37855SOL    HW117063   1.244   4.147   0.393  0.7172  0.6827 -0.5509
37855SOL    HW217064   1.144   4.203   0.294  0.2862  1.2138  0.1748
37856SOL     OW17065   0.583   5.954   0.041 -0.4664  0.0528  0.7721
37856SOL    HW117066   0.652   5.943  -0.025 -0.8044 -2.4066  0.7307
37856SOL    HW217067   0.533   6.029   0.010 -0.2752 -0.6562 -1.5045
37857SOL     OW17068   9.815   9.322   8.822 -0.4046  0.2326  0.2169
37857SOL    HW117069   9.757   9.307   8.897 -2.5968 -1.9470 -1.7495
37857SOL    HW217070   9.758   9.360   8.756  0.6136 -1.0736 -1.4788
37858SOL     OW17071   9.032   3.278   6.640  0.0481 -0.3873 -0.2397
37858SOL    HW117072   9.087   3.320   6.706  0.5410  0.7807 -1.3328
37858SOL    HW217073   9.007   3.350   6.581  0.9774 -1.6154 -2.2438
37859SOL     OW17074  10.443   8.012   5.772  0.3597  0.3136 -0.3747
37859SOL    HW117075  10.529   7.984   5.740  0.2978  0.1445 -0.3970
37859SOL    HW217076  10.410   7.936   5.820 -0.1915  0.0268 -1.1978
37860SOL     OW17077   9.135  10.343   1.085 -0.2827 -0.5402  0.1615
37860SOL    HW117078   9.044  10.356   1.112 -0.1238 -1.3642  1.1340
37860SOL    HW217079   9.133  10.262   1.034 -0.1836 -0.2467 -0.3146
37861SOL     OW17080   4.494   1.372   7.003 -0.2858 -0.4713  0.1529
37861SOL    HW117081   4.434   1.447   7.004 -0.5651 -0.6858  1.1172
37861SOL    HW217082   4.543   1.381   7.085  2.8647  1.1447 -1.7046
37862SOL     OW17083   4.505  10.981   8.788 -0.5172  0.0293 -0.2808
37862SOL    HW117084   4.459  11.036   8.726 -1.6214 -0.8248 -0.2533
37862SOL    HW217085   4.593  11.018   8.793 -1.1400  1.5993 -0.4644
37863SOL     OW17086  10.487   7.099   9.170  0.4231 -0.1808 -0.3941
37863SOL    HW117087  10.471   7.188   9.139  0.7669 -0.1509 -0.4943
37863SOL    HW217088  10.411   7.078   9.224  0.7259  0.4893  0.3192
37864SOL     OW17089   5.390   6.956   3.218 -0.4767 -0.0516  0.2069
37864SOL    HW117090   5.466   6.959   3.277 -0.1571 -0.2333 -0.1866
37864SOL    HW217091   5.426   6.978   3.132 -0.6909 -1.0940 -0.1584
37865SOL     OW17092   6.160   7.740   9.368  0.0102 -0.1736 -0.0252
37865SOL    HW117093   6.164   7.820   9.317  1.6741  0.4796  1.0598
37865SOL    HW217094   6.180   7.767   9.458  0.1880 -1.7350  0.4418
37866SOL     OW17095   5.843   3.198   1.936 -0.1208  0.2179 -0.0302
37866SOL    HW117096   5.825   3.121   1.882 -1.2171  0.5137 -0.1121
37866SOL    HW217097   5.768   3.205   1.995  0.2792  0.8430  0.4221
37867SOL     OW17098  10.495  10.673   3.337  0.1601  1.0628  0.7182
37867SOL    HW117099  10.477  10.744   3.276 -0.0262 -1.1211 -1.9541
37867SOL    HW217100  10.423  10.676   3.400  1.2179  4.3851  1.9909
37868SOL     OW17101   6.650  10.351   8.417 -0.6431  0.1320  0.2140
37868SOL    HW117102   6.675  10.310   8.334 -0.4754  1.2697 -0.3187
37868SOL    HW217103   6.570  10.399   8.396 -1.7349 -1.1820  1.2158
37869SOL     OW17104   8.563   7.063   7.672 -0.0095 -0.2471  0.3093
37869SOL    HW117105   8.565   6.981   7.722 -0.1914 -0.1110  0.5366
37869SOL    HW217106   8.488   7.111   7.707 -0.7183 -0.5515 -0.7260
37870SOL     OW17107   4.797  10.571   2.777 -0.0825 -0.3037 -0.1668
37870SOL    HW117108   4.704  10.590   2.774 -0.1145 -0.3691 -4.2966
37870SOL    HW217109   4.840  10.656   2.761  0.4006 -0.7667 -1.4429
37871SOL     OW17110   0.473  10.383   3.611  0.4968  0.4319 -0.2768
37871SOL    HW117111   0.496  10.439   3.537 -1.1715  1.4256 -0.0947
37871SOL    HW217112   0.416  10.315   3.573 -1.2899  1.5891  0.2076
37872SOL     OW17113   0.643   4.154   0.590  0.1109  0.1951 -0.3590
37872SOL    HW117114   0.593   4.075   0.613 -0.0283  0.0990 -0.9713
37872SOL    HW217115   0.723   4.148   0.642 -0.7557  0.6471  1.0979
37873SOL     OW17116   4.217   2.096   9.810 -0.8925  0.2715 -0.2947
37873SOL    HW117117   4.242   2.131   9.895 -1.3803 -0.4632  0.1667
37873SOL    HW217118   4.264   2.150   9.746 -2.1837  2.2147  0.3431
37874SOL     OW17119   3.144   5.895  10.451 -0.6256 -0.0006  0.0155
37874SOL    HW117120   3.150   5.805  10.485  2.2255 -0.3479 -1.1827
37874SOL    HW217121   3.076   5.890  10.383  1.1798 -1.9692 -1.8062
37875SOL     OW17122   9.852   2.565  10.352  0.5790  1.0832 -0.0613
37875SOL    HW117123   9.930   2.568  10.297  0.4342  0.0346 -0.3549
37875SOL    HW217124   9.884   2.533  10.436  0.3256 -0.3859 -0.4975
37876SOL     OW17125   9.997   2.729   9.364 -0.5384  0.6608  0.4323
37876SOL    HW117126  10.076   2.701   9.410  0.3651  3.2970  0.6194
37876SOL    HW217127   9.984   2.662   9.296  1.3462 -0.2749  0.9363
37877SOL     OW17128   6.783  10.462   7.497  0.3991 -0.1002 -0.1131
37877SOL    HW117129   6.813  10.538   7.545 -1.0898 -0.1769  1.0315
37877SOL    HW217130   6.725  10.416   7.558  0.4810 -1.6197 -1.1047
37878SOL     OW17131   8.807   1.472   4.782  0.9506 -0.0354 -0.0227
37878SOL    HW117132   8.846   1.464   4.695 -0.3429  1.7175 -0.8565
37878SOL    HW217133   8.717   1.439   4.770  0.8207  0.0606  0.6806
37879SOL     OW17134   2.593   5.229   0.943  0.6174  0.0488 -0.2090
37879SOL    HW117135   2.667   5.171   0.959  1.6548  0.7264 -2.2070
37879SOL    HW217136   2.517   5.180   0.973  1.5375 -2.0327 -1.1007
37880SOL     OW17137   8.375  10.422   0.598  1.0028  0.2830  0.3982
37880SOL    HW117138   8.284  10.394   0.602  1.0419  0.2226  1.0685
37880SOL    HW217139   8.371  10.518   0.593  0.9065  0.3396  1.3468
37881SOL     OW17140   0.097   7.697  10.896 -0.3842  0.3202 -0.1064
37881SOL    HW117141   0.002   7.693  10.885 -0.3672 -0.0580 -0.1541
37881SOL    HW217142   0.113   7.663  10.984 -0.3769  1.5138  0.3634
37882SOL     OW17143   3.966   2.859   2.543 -0.1707  0.5959  0.0634
37882SOL    HW117144   3.969   2.884   2.450  1.8064 -1.3358 -0.4721
37882SOL    HW217145   3.994   2.938   2.589 -1.8602  1.8195 -0.8794
37883SOL     OW17146   3.306   7.599   3.966 -0.6072  0.1313 -0.1563
37883SOL    HW117147   3.336   7.678   4.012  0.6940 -0.2804 -0.2480
37883SOL    HW217148   3.240   7.630   3.905  1.1824  1.4986 -1.5280
37884SOL     OW17149   9.026   1.326   9.890  0.0302  0.3620 -0.0794
37884SOL    HW117150   9.059   1.237   9.902 -0.7730  0.1078  0.3697
37884SOL    HW217151   8.970   1.340   9.967  1.6557  1.9676  0.8875
37885SOL     OW17152  10.944   3.478   0.171 -0.6702  0.1061  0.3265
37885SOL    HW117153  10.981   3.427   0.100  1.2347  0.9314  0.6684
37885SOL    HW217154  10.911   3.413   0.233 -0.3240 -0.6538 -0.2712
37886SOL     OW17155   7.413   7.000   3.925  0.4054  0.5197  0.1020
37886SOL    HW117156   7.410   7.095   3.938  0.6723  0.5602 -0.1442
37886SOL    HW217157   7.322   6.972   3.938  0.0309  1.0034 -1.3411
37887SOL     OW17158   6.602   5.291  10.648  0.7901 -0.0855 -0.1435
37887SOL    HW117159   6.678   5.233  10.658  0.6914  0.1289  2.5093
37887SOL    HW217160   6.607   5.350  10.723 -1.5324  0.5061 -0.3741
37888SOL     OW17161   4.614   0.012  10.761 -0.0347  0.2063 -0.0105
37888SOL    HW117162   4.677   0.046  10.697 -0.3473  2.4528  0.7861
37888SOL    HW217163   4.667  -0.033  10.826  0.4253 -0.6645 -0.9518
37889SOL     OW17164   7.978   5.481   0.868  0.4431 -0.0705  0.4009
37889SOL    HW117165   7.970   5.432   0.950  0.9036  0.3719  0.7151
37889SOL    HW217166   7.918   5.554   0.877 -0.7651 -0.9251 -0.3504
37890SOL     OW17167   6.837   1.744   0.037  0.1527 -0.0935 -0.3914
37890SOL    HW117168   6.752   1.785   0.023  1.0536  2.4190  0.9493
37890SOL    HW217169   6.818   1.667   0.090 -1.2314  0.8157  0.4748
37891SOL     OW17170   4.763   6.979   2.006 -0.2626 -0.7134  0.3975
37891SOL    HW117171   4.827   7.011   1.943 -1.0707  0.0812 -0.0371
37891SOL    HW217172   4.731   6.897   1.968 -2.2316  0.7412 -1.3268
37892SOL     OW17173  10.798   3.494   4.456 -0.3398 -0.1236 -0.6687
37892SOL    HW117174  10.717   3.545   4.447 -0.2058  0.4366  0.9366
37892SOL    HW217175  10.801   3.470   4.549  0.6357 -1.3454 -0.9868
37893SOL     OW17176   3.755   7.695   9.680  0.2139  0.3533  0.1708
37893SOL    HW117177   3.730   7.689   9.587  1.0546 -2.0592  0.0142
37893SOL    HW217178   3.801   7.613   9.697  1.8604  1.6067  2.2291
37894SOL     OW17179   8.900   2.518   4.796 -0.3515 -1.0581  0.4393
37894SOL    HW117180   8.854   2.602   4.798  1.7764  0.1835  0.1237
37894SOL    HW217181   8.876   2.479   4.712  1.2759  0.8815 -1.0287
37895SOL     OW17182   8.509   7.604   2.390  0.1835 -0.1452  0.9152
37895SOL    HW117183   8.581   7.552   2.426  0.6663 -0.9391 -1.0767
37895SOL    HW217184   8.430   7.563   2.425  0.5648 -2.0912 -0.3509
37896SOL     OW17185  10.920   2.647   4.428  0.8453 -0.2943 -0.4922
37896SOL    HW117186  10.843   2.594   4.409  0.2944  0.6073 -0.8225
37896SOL    HW217187  10.901   2.733   4.389  1.4953  0.3075  0.4700
37897SOL     OW17188   9.593   4.579   0.316 -0.4305  0.5630  0.2423
37897SOL    HW117189   9.500   4.562   0.329 -0.5524  1.4103  0.5189
37897SOL    HW217190   9.614   4.649   0.377  0.3334  0.5604 -0.0035
37898SOL     OW17191  10.744   9.547   9.854 -0.0599  0.2734 -0.6917
37898SOL    HW117192  10.835   9.564   9.827  0.6824 -0.8688  0.9267
37898SOL    HW217193  10.698   9.629   9.834  1.7595  1.5900  0.2152
37899SOL     OW17194   9.377   7.798   9.899 -0.0392  0.7746  0.1848
37899SOL    HW117195   9.355   7.883   9.860  1.1469  0.7349 -0.6205
37899SOL    HW217196   9.472   7.800   9.910  0.2959 -1.1568 -1.6514
37900SOL     OW17197   9.683   4.084   7.648 -0.0052 -0.4068  0.2795
37900SOL    HW117198   9.709   4.174   7.631  0.8848 -0.3637  1.7185
37900SOL    HW217199   9.676   4.044   7.561 -0.6271  1.0893 -0.3853
37901SOL     OW17200   5.913   9.387   6.008 -0.0050  0.2074  0.3742
37901SOL    HW117201   5.918   9.298   6.043  1.3647 -0.4231 -1.2803
37901SOL    HW217202   5.857   9.434   6.070 -0.3467 -1.6603  1.5647
37902SOL     OW17203   0.287   5.486   4.819  0.4760 -0.0454  0.6448
37902SOL    HW117204   0.296   5.496   4.914  3.1390  1.4766  0.3248
37902SOL    HW217205   0.352   5.546   4.782 -0.1444 -0.9499 -2.1511
37903SOL     OW17206   2.263   7.727   6.662 -0.2719 -0.0957 -0.4796
37903SOL    HW117207   2.268   7.811   6.709 -2.8417  0.4391 -1.0136
37903SOL    HW217208   2.312   7.743   6.581 -0.5686  0.8306 -0.4896
37904SOL     OW17209   2.144   5.933   3.222  0.0553  0.1295  0.0811
37904SOL    HW117210   2.205   5.877   3.175  0.0573  1.0205 -1.0166
37904SOL    HW217211   2.176   6.022   3.207 -1.4750  0.6224 -0.5100
37905SOL     OW17212   0.832   1.624  10.562  0.1694  0.2113  0.1817
37905SOL    HW117213   0.817   1.635  10.468  0.1644 -2.3750 -0.1889
37905SOL    HW217214   0.758   1.668  10.603  0.4069  1.7832 -0.9681
37906SOL     OW17215  10.869   8.268   8.793  0.9414  0.1668 -0.3091
37906SOL    HW117216  10.884   8.237   8.883 -1.2810 -2.3839 -0.6841
37906SOL    HW217217  10.943   8.235   8.743  0.8925 -0.6316  0.1380
37907SOL     OW17218   1.945   6.362   8.638 -0.2885  0.1247  0.0125
37907SOL    HW117219   2.026   6.390   8.595 -0.0764  0.1773  0.4456
37907SOL    HW217220   1.930   6.426   8.706 -1.2172  0.6523 -0.6679
37908SOL     OW17221   8.252   7.628   1.156  0.0374 -0.1340  0.1211
37908SOL    HW117222   8.304   7.619   1.076 -0.4729 -2.6167 -0.0107
37908SOL    HW217223   8.201   7.708   1.142  2.1018  1.1161 -0.7228
37909SOL     OW17224   1.819   1.848   2.003  0.5953 -0.1887 -0.2905
37909SOL    HW117225   1.901   1.871   2.046  0.3543 -2.0307  1.3060
37909SOL    HW217226   1.755   1.911   2.037  1.3924  1.6280 -1.9900
37910SOL     OW17227  10.943   1.887   5.841 -0.1645 -0.1397  0.8731
37910SOL    HW117228  10.984   1.952   5.898  2.0193 -1.7022  1.2210
37910SOL    HW217229  10.884   1.838   5.899 -1.5911  1.2812  0.6724
37911SOL     OW17230  10.657   5.662   0.703  0.0236 -0.1057  0.0925
37911SOL    HW117231  10.643   5.720   0.778 -0.1283  1.1108 -0.8639
37911SOL    HW217232  10.744   5.624   0.719 -0.1241 -0.0914  1.0210
37912SOL     OW17233   4.635   8.078   1.518  0.4627 -0.2632 -0.2236
37912SOL    HW117234   4.718   8.094   1.564  1.3704 -2.9049 -0.7609
37912SOL    HW217235   4.575   8.144   1.552  2.7395  1.6651  0.2811
37913SOL     OW17236   9.588   8.744   7.801  0.0158 -0.3196 -0.0348
37913SOL    HW117237   9.503   8.701   7.792  0.2076 -0.7157  0.0783
37913SOL    HW217238   9.651   8.683   7.762  0.4329 -0.6221  1.0788
37914SOL     OW17239  10.860   1.993   7.032  0.5117 -0.6009  0.4040
37914SOL    HW117240  10.859   2.018   6.940  1.0360 -1.3237  0.1899
37914SOL    HW217241  10.775   1.952   7.047  0.3296 -0.2613  0.3048
37915SOL     OW17242   7.740   2.015   1.368 -0.0020 -0.0448 -0.4990
37915SOL    HW117243   7.662   2.005   1.314 -0.3713  1.6852 -0.3358
37915SOL    HW217244   7.778   1.927   1.371 -2.1374 -1.0134 -0.2487
37916SOL     OW17245   4.561   6.148   0.343  0.0861  0.1914 -0.3056
37916SOL    HW117246   4.646   6.177   0.309  1.3245 -0.0896  2.3340
37916SOL    HW217247   4.532   6.218   0.400  0.9459 -1.6475  2.5952
37917SOL     OW17248   4.549   3.853   3.436  0.5124  0.3730  0.4006
37917SOL    HW117249   4.522   3.882   3.524  0.1287 -0.0874  0.4399
37917SOL    HW217250   4.643   3.870   3.433  0.0977  3.0126 -0.1197
37918SOL     OW17251   8.022  10.718   9.768 -0.7343  0.0126  0.2024
37918SOL    HW117252   8.049  10.675   9.687  1.1971  1.8285 -0.2031
37918SOL    HW217253   8.103  10.725   9.819 -1.6300  0.2539  1.6383
37919SOL     OW17254   8.815   5.158   1.279  0.2730  0.0741 -0.1633
37919SOL    HW117255   8.841   5.095   1.346  0.1987  0.2008 -0.0143
37919SOL    HW217256   8.824   5.243   1.322  2.7410  0.3572 -1.1226
37920SOL     OW17257   7.132   1.321   8.140 -0.5587 -0.4245  0.4257
37920SOL    HW117258   7.182   1.344   8.218 -1.0435 -0.3298  0.7090
37920SOL    HW217259   7.178   1.245   8.103  1.0088  0.9035 -0.4703
37921SOL     OW17260   7.675  10.660   7.011 -0.4010  0.3245  0.4043
37921SOL    HW117261   7.720  10.578   6.988  1.0467  1.0594  0.5084
37921SOL    HW217262   7.619  10.637   7.085 -1.7020 -1.0502 -0.9332
37922SOL     OW17263  10.284   9.689   5.922  0.4670 -0.2986 -0.4102
37922SOL    HW117264  10.254   9.778   5.903  1.0170 -0.5362 -2.7085
37922SOL    HW217265  10.379   9.697   5.931  0.4011 -0.4943  0.6591
37923SOL     OW17266   8.951   4.889  10.295  0.0103  0.1740  0.2843
37923SOL    HW117267   8.903   4.936  10.363  1.5167  0.0674  1.4696
37923SOL    HW217268   8.894   4.895  10.218 -0.9140  1.8980  1.0290
37924SOL     OW17269  10.363   3.044   3.465 -0.0778 -0.3203  0.2115
37924SOL    HW117270  10.384   2.951   3.456  2.1476  0.0943  0.5733
37924SOL    HW217271  10.429   3.088   3.411 -0.8866  1.0733  0.3353
37925SOL     OW17272   7.900   8.787   7.295 -0.3096  0.1762 -0.6719
37925SOL    HW117273   7.895   8.768   7.201 -0.0464 -0.7255 -0.5160
37925SOL    HW217274   7.817   8.832   7.314 -0.8816 -0.6382 -1.1304
37926SOL     OW17275   7.623   0.140   8.563 -0.1918 -0.4807 -0.1379
37926SOL    HW117276   7.534   0.164   8.587  0.6014 -0.6860  3.5251
37926SOL    HW217277   7.647   0.069   8.623  2.5590 -0.2502 -0.7957
37927SOL     OW17278   7.463   9.232   2.225  0.2264  0.0046 -0.7604
37927SOL    HW117279   7.440   9.213   2.316  1.0858  1.8266 -0.1193
37927SOL    HW217280   7.534   9.295   2.231 -0.8217  1.4612 -2.7091
37928SOL     OW17281   1.476   5.877   9.238 -0.1311  0.0255  0.8560
37928SOL    HW117282   1.519   5.891   9.154 -0.0165  0.3751  0.9682
37928SOL    HW217283   1.428   5.795   9.228 -0.6194  0.3776  0.2490
37929SOL     OW17284   4.576   6.584   9.383  0.6305 -0.3475 -0.3932
37929SOL    HW117285   4.492   6.539   9.396  1.1090 -0.7471  1.7977
37929SOL    HW217286   4.557   6.653   9.320 -0.9385 -1.4766 -1.2356
37930SOL     OW17287  11.003   9.116   6.302 -0.5715  0.2633 -0.6541
37930SOL    HW117288  10.992   9.092   6.393  1.6400 -0.2440 -0.4658
37930SOL    HW217289  10.993   9.034   6.253  1.8561 -0.1990 -0.4826
37931SOL     OW17290   4.575   5.468   7.549 -0.0665  0.1635 -0.0156
37931SOL    HW117291   4.657   5.438   7.508 -1.3309 -1.5223 -1.4551
37931SOL    HW217292   4.536   5.527   7.484 -0.1642  0.7320  0.5435
37932SOL     OW17293   8.993   4.465   6.984 -0.1465  0.6890  0.5295
37932SOL    HW117294   9.008   4.473   6.890  0.0652 -0.0842  0.4860
37932SOL    HW217295   9.074   4.496   7.024 -0.6787  2.1741  0.5148
37933SOL     OW17296  10.165   8.252   6.519 -0.0667  0.3360  0.0411
37933SOL    HW117297  10.257   8.276   6.508 -0.0705 -0.2401 -1.5316
37933SOL    HW217298  10.117   8.328   6.485 -0.1573  0.2530 -0.0149
37934SOL     OW17299   0.356   6.450   2.716 -0.2473 -0.2439 -0.0401
37934SOL    HW117300   0.276   6.445   2.663 -0.8618  0.9255  0.7404
37934SOL    HW217301   0.409   6.516   2.672  0.8411 -1.8342 -1.2235
37935SOL     OW17302   3.187   8.763   7.209  0.1281  0.1591  0.2152
37935SOL    HW117303   3.194   8.733   7.299  1.4635  1.2309  0.4974
37935SOL    HW217304   3.276   8.788   7.185 -0.3840  0.8251 -1.0589
37936SOL     OW17305   0.622   1.057  10.942  0.4629 -0.1135 -0.2011
37936SOL    HW117306   0.587   1.000  11.010  0.7478 -0.4168 -0.3063
37936SOL    HW217307   0.551   1.064  10.877  0.5314 -0.5739 -0.3242
37937SOL     OW17308   6.804  10.933   5.170 -0.0646 -0.0036 -0.4947
37937SOL    HW117309   6.734  10.960   5.230 -1.6180  1.1190 -2.6661
37937SOL    HW217310   6.885  10.950   5.218 -1.2423  0.0147  1.5842
37938SOL     OW17311   7.996   8.237  10.166  0.1980 -0.3263  0.2513
37938SOL    HW117312   7.952   8.232  10.081 -0.1518  2.3387  0.1752
37938SOL    HW217313   8.089   8.232  10.145  0.1073  0.1118 -0.3055
37939SOL     OW17314   7.578   7.960   7.921  0.4103  0.1193 -0.3601
37939SOL    HW117315   7.648   7.981   7.860  0.1370  1.7883 -0.1462
37939SOL    HW217316   7.604   7.876   7.960  1.6652  0.1101 -1.1629
37940SOL     OW17317   1.746   5.328   7.237 -0.2464 -0.3586  0.3871
37940SOL    HW117318   1.768   5.403   7.292  0.2375 -0.3926  0.2456
37940SOL    HW217319   1.651   5.324   7.239 -0.2796  0.2592  0.3972
37941SOL     OW17320   6.410   1.044  10.001  0.3145 -0.4077 -0.3635
37941SOL    HW117321   6.476   1.063  10.068  1.0178  0.0028 -1.1588
37941SOL    HW217322   6.327   1.072  10.041  0.7809  0.2619  0.1534
37942SOL     OW17323   4.410   9.282   6.301  0.3093 -0.0095  0.3775
37942SOL    HW117324   4.434   9.363   6.255 -2.6604  0.0464 -1.3356
37942SOL    HW217325   4.345   9.310   6.365  0.4954 -0.8442  0.9378
37943SOL     OW17326   9.960   8.784   1.267  0.3418 -0.1936  0.1741
37943SOL    HW117327  10.048   8.748   1.275 -0.3570 -1.8044  1.2476
37943SOL    HW217328   9.958   8.824   1.180  2.4246  0.7891  0.5350
37944SOL     OW17329   1.345   9.749   6.060 -0.0190  0.7576  0.2251
37944SOL    HW117330   1.385   9.663   6.046  1.7012  1.8562 -2.1406
37944SOL    HW217331   1.298   9.740   6.143 -1.5931 -3.0667 -0.8664
37945SOL     OW17332   3.617   1.862   5.514 -0.2015 -0.8255 -0.1260
37945SOL    HW117333   3.676   1.828   5.447 -1.7177 -1.1234 -1.3623
37945SOL    HW217334   3.612   1.793   5.580 -0.8462 -1.7282 -1.0953
37946SOL     OW17335   4.392   2.767   4.251 -0.6051 -0.0908 -0.0868
37946SOL    HW117336   4.329   2.838   4.267 -0.1705  0.3006 -0.0931
37946SOL    HW217337   4.338   2.692   4.227 -1.1068  0.0608  0.5514
37947SOL     OW17338   6.565   1.692   6.897  0.1937 -0.1073  0.6957
37947SOL    HW117339   6.605   1.775   6.870 -1.4097  0.5217  0.1019
37947SOL    HW217340   6.629   1.626   6.870  0.1814  0.7325 -1.7061
37948SOL     OW17341  10.083  10.204   4.730  0.5456  0.3244 -0.3132
37948SOL    HW117342  10.135  10.136   4.774  3.0304  2.0079 -0.4798
37948SOL    HW217343  10.095  10.186   4.636  0.5798  0.5575 -0.3528
37949SOL     OW17344   7.934   1.232  10.180 -0.0443  0.0071  0.4366
37949SOL    HW117345   7.962   1.312  10.225 -0.2004  0.1495  0.2861
37949SOL    HW217346   7.845   1.252  10.150  0.3432  0.2245 -0.6400
37950SOL     OW17347   2.904   4.610   2.464 -0.3230 -0.1751  0.0003
37950SOL    HW117348   2.952   4.653   2.392 -0.9555  1.4780  0.5161
37950SOL    HW217349   2.816   4.646   2.458 -0.7476 -1.0652  0.7851
37951SOL     OW17350   5.579   0.119   3.364 -0.2474 -0.0641  0.3396
37951SOL    HW117351   5.488   0.126   3.396 -0.1392  2.6428  0.2672
37951SOL    HW217352   5.601   0.207   3.334  2.0042 -0.9572 -0.8689
37952SOL     OW17353   1.624   3.338   9.921  0.3264  0.1669 -0.0791
37952SOL    HW117354   1.678   3.288   9.860  0.7016 -0.4419  0.7450
37952SOL    HW217355   1.646   3.430   9.903  1.1327 -0.0497 -0.2076
37953SOL     OW17356   8.792   9.711   1.764  0.2786  0.0322  0.5246
37953SOL    HW117357   8.880   9.747   1.752  0.7081 -1.4115 -1.1463
37953SOL    HW217358   8.792   9.632   1.710 -2.0580  0.0082  0.4908
37954SOL     OW17359   9.849   9.330   2.178 -0.0896 -0.3778  0.4028
37954SOL    HW117360   9.821   9.293   2.094 -0.6278 -0.4966  0.6361
37954SOL    HW217361   9.925   9.276   2.203  1.5749  1.1336 -1.1391
37955SOL     OW17362   5.066   0.328   3.010  0.1479 -0.0045 -0.1414
37955SOL    HW117363   5.125   0.391   3.051  0.5426 -1.2429  1.2494
37955SOL    HW217364   5.004   0.305   3.079 -0.0791 -1.0333 -0.6734
37956SOL     OW17365   5.735   9.237   1.477 -0.0641 -0.2304  0.0118
37956SOL    HW117366   5.777   9.285   1.406 -1.0470 -0.2652 -0.6149
37956SOL    HW217367   5.648   9.216   1.444 -0.9638  0.7063  1.6415
37957SOL     OW17368   0.245   4.136   0.851  0.4956 -0.0544 -0.3919
37957SOL    HW117369   0.332   4.144   0.890  0.0255 -0.9183  0.9036
37957SOL    HW217370   0.234   4.043   0.836  0.1268  0.1401 -1.3843
37958SOL     OW17371   3.710   1.625  10.387 -0.1700 -0.5028  0.6407
37958SOL    HW117372   3.778   1.683  10.353 -1.9236  1.0625 -0.4422
37958SOL    HW217373   3.660   1.681  10.447 -1.1925 -1.2487  0.5061
37959SOL     OW17374   6.749   5.511   5.091 -1.0710 -0.1196 -0.5167
37959SOL    HW117375   6.758   5.526   5.185  1.2204  0.9301 -0.8224
37959SOL    HW217376   6.661   5.543   5.069 -0.5427  2.5530  0.8017
37960SOL     OW17377   3.501   4.897   7.299  0.8655 -0.3112 -0.3264
37960SOL    HW117378   3.457   4.980   7.316 -0.7162 -1.0087 -0.9070
37960SOL    HW217379   3.451   4.833   7.349 -0.8923 -1.6476 -3.5721
37961SOL     OW17380   8.067   9.012   6.876 -0.2906 -0.1885 -0.3539
37961SOL    HW117381   8.006   8.959   6.928  0.3078  0.9309  1.5923
37961SOL    HW217382   8.013   9.083   6.841 -0.2387  0.6281  1.1158
37962SOL     OW17383   6.725   5.917  10.324  0.4088  0.3191  0.8794
37962SOL    HW117384   6.780   5.947  10.395  2.3109 -1.6693  0.3657
37962SOL    HW217385   6.699   5.828  10.350  1.5830 -0.6631 -1.0554
37963SOL     OW17386   6.078   8.111   1.983  0.6324 -0.4335 -0.6737
37963SOL    HW117387   6.167   8.132   1.953  1.8257 -0.4089  2.5015
37963SOL    HW217388   6.064   8.169   2.058 -0.6602 -2.8009  1.0368
37964SOL     OW17389   5.250   4.262   6.648  0.6645  0.2591 -0.0382
37964SOL    HW117390   5.329   4.306   6.680  0.7074  0.3239 -0.2285
37964SOL    HW217391   5.268   4.247   6.555  0.6842 -0.2338  0.0408
37965SOL     OW17392   7.287   6.705   0.163  0.2421 -0.2864 -0.2636
37965SOL    HW117393   7.339   6.782   0.187  1.3046 -1.0403 -0.0508
37965SOL    HW217394   7.263   6.720   0.071 -2.1696  1.6955  0.5703
37966SOL     OW17395   4.464   3.609   1.945  0.1391 -0.5040 -0.3783
37966SOL    HW117396   4.492   3.692   1.984 -0.8592 -0.3305  0.0116
37966SOL    HW217397   4.388   3.632   1.891 -0.1636 -1.1553 -0.2464
37967SOL     OW17398   7.919  10.727   9.114 -0.0598  0.5073 -0.4776
37967SOL    HW117399   7.837  10.682   9.138 -0.1689 -0.2533 -2.0983
37967SOL    HW217400   7.936  10.698   9.024  1.6114  1.2363 -0.4287
37968SOL     OW17401   6.823   0.759   3.243  0.0897 -0.4395  0.4164
37968SOL    HW117402   6.795   0.848   3.222  0.9642 -0.1830  0.3130
37968SOL    HW217403   6.856   0.765   3.332 -2.3065 -1.2329  1.4450
37969SOL     OW17404  11.002   3.564   4.306  0.3347  0.1346  0.0209
37969SOL    HW117405  10.926   3.548   4.362  1.0397  1.3353  1.4293
37969SOL    HW217406  10.983   3.647   4.262 -0.6146 -1.2662 -2.3104
37970SOL     OW17407   7.022   3.852   3.042  0.0956  0.2221 -0.4645
37970SOL    HW117408   7.022   3.947   3.029 -1.1675  0.3092  0.0428
37970SOL    HW217409   7.106   3.823   3.006 -0.4634  1.2196 -2.7321
37971SOL     OW17410   3.188   6.210   6.258  0.8459  0.4281 -0.7537
37971SOL    HW117411   3.241   6.149   6.207 -0.9402 -1.0903 -0.9121
37971SOL    HW217412   3.185   6.171   6.346 -0.9693 -0.2256 -1.0606
37972SOL     OW17413   2.479   1.209   0.998 -0.4079  0.2510  0.2898
37972SOL    HW117414   2.501   1.170   0.913  1.2444 -0.9845  1.2201
37972SOL    HW217415   2.561   1.206   1.048 -1.5171  0.1765  2.2074
37973SOL     OW17416   4.756   0.039   8.042  0.6701  0.8110  0.7990
37973SOL    HW117417   4.829  -0.012   8.007  1.0162  1.1829  0.9669
37973SOL    HW217418   4.680  -0.019   8.033  1.2975 -0.3051  2.3180
37974SOL     OW17419   1.241   5.215   9.343  0.0240 -0.0976  0.6089
37974SOL    HW117420   1.227   5.155   9.416  1.0858 -1.6413 -0.4003
37974SOL    HW217421   1.313   5.176   9.294  0.9225  2.1597  0.0396
37975SOL     OW17422   0.669   1.599   7.635 -0.0679  0.0258 -0.1055
37975SOL    HW117423   0.712   1.568   7.715 -0.6132 -0.7205 -0.0942
37975SOL    HW217424   0.733   1.657   7.594  0.8649 -0.9195  0.0012
37976SOL     OW17425   2.676   8.627   7.723 -0.0324  0.3745  0.0278
37976SOL    HW117426   2.632   8.705   7.688 -0.7068 -0.6168 -1.4104
37976SOL    HW217427   2.680   8.566   7.649 -0.8590 -1.5474  1.4893
37977SOL     OW17428   9.606  11.007   4.739 -0.3593 -1.0178  0.0826
37977SOL    HW117429   9.695  11.017   4.772  0.1274 -2.0839 -0.8235
37977SOL    HW217430   9.614  11.022   4.644 -1.5154  0.8761  0.2349
37978SOL     OW17431   4.779   1.403   8.006  0.3005 -0.1746 -0.0737
37978SOL    HW117432   4.754   1.332   8.065  0.9649 -2.0375 -1.9343
37978SOL    HW217433   4.697   1.428   7.963  0.2194 -0.4349 -0.0723
37979SOL     OW17434   5.046   3.023   0.295  0.0900 -0.1550  0.1113
37979SOL    HW117435   5.095   2.956   0.342  1.0607 -0.0288 -0.6732
37979SOL    HW217436   5.012   3.081   0.363  0.5033 -0.6022  0.7089
37980SOL     OW17437   7.588   3.758   2.951 -0.1055 -0.0869 -0.0731
37980SOL    HW117438   7.624   3.732   3.036  3.0910  1.3222 -0.8262
37980SOL    HW217439   7.579   3.853   2.957  2.4135  0.3718 -1.9255
37981SOL     OW17440   5.706   8.972   8.529  0.5089  0.1589 -0.5127
37981SOL    HW117441   5.695   8.884   8.564  0.7175  0.8225  1.3287
37981SOL    HW217442   5.682   8.964   8.437  0.8679 -1.8858 -0.4824
37982SOL     OW17443   1.668   9.548   5.877 -0.5232 -0.2217  0.1455
37982SOL    HW117444   1.675   9.541   5.973  1.5891 -0.8197 -0.0088
37982SOL    HW217445   1.677   9.642   5.859  2.6781 -0.3824  0.3842
37983SOL     OW17446  10.570   5.447   5.614  0.4253  0.4772 -0.5734
37983SOL    HW117447  10.564   5.507   5.539  1.7067 -0.3750 -1.4097
37983SOL    HW217448  10.494   5.390   5.606  1.7661 -1.1616 -2.6960
37984SOL     OW17449   9.197   5.062   7.506 -0.0688 -0.4139 -0.1652
37984SOL    HW117450   9.257   5.020   7.445  0.7497  0.4400  0.0396
37984SOL    HW217451   9.123   5.089   7.452  1.5563  2.2342 -1.2751
37985SOL     OW17452   8.557  10.673   1.833  0.0579 -0.0943 -0.0827
37985SOL    HW117453   8.577  10.580   1.842  1.1876  0.1318 -0.1955
37985SOL    HW217454   8.604  10.715   1.905  1.2557  0.6171 -1.2419
37986SOL     OW17455   5.942   5.946   9.568 -0.4962  0.2486  0.0460
37986SOL    HW117456   5.883   5.985   9.632 -1.2793 -0.1075 -0.4431
37986SOL    HW217457   5.984   6.021   9.525 -1.6001  0.5689 -0.5240
37987SOL     OW17458   1.014   7.201   1.430 -0.9105  0.7865 -0.3852
37987SOL    HW117459   1.093   7.171   1.385  0.7688  2.4811  1.2771
37987SOL    HW217460   1.041   7.216   1.520 -3.2136  1.1759  0.3106
37988SOL     OW17461   9.795   3.561   4.427  0.3701  0.3773  0.4189
37988SOL    HW117462   9.801   3.475   4.468  2.6817  0.2082 -0.1341
37988SOL    HW217463   9.751   3.616   4.492 -2.9842 -1.5958  0.0164
37989SOL     OW17464  10.821   4.594   7.894  0.6561  0.1387 -0.4809
37989SOL    HW117465  10.811   4.634   7.807 -0.8962 -1.9942 -1.3759
37989SOL    HW217466  10.796   4.502   7.881 -0.9714  0.0395  2.4764
37990SOL     OW17467   3.757   6.455   3.515 -0.5925 -0.1600 -0.2635
37990SOL    HW117468   3.663   6.457   3.494 -0.5764 -0.4364 -0.3672
37990SOL    HW217469   3.770   6.527   3.576 -0.5544  0.9871 -1.5844
37991SOL     OW17470   9.065   8.442   4.849 -0.0989 -0.3929  0.7681
37991SOL    HW117471   9.157   8.415   4.856 -0.8907 -4.0707 -0.6921
37991SOL    HW217472   9.015   8.366   4.876 -2.6922 -0.1773 -2.7149
37992SOL     OW17473   5.435   8.326   8.601  0.0871  0.0837  0.4880
37992SOL    HW117474   5.447   8.373   8.518  1.3213  1.7891  1.5568
37992SOL    HW217475   5.466   8.237   8.583  1.0708  0.6286 -0.6847
37993SOL     OW17476   6.624   2.932   9.990  0.0422 -0.1345  0.1986
37993SOL    HW117477   6.602   2.839   9.989  0.4479 -0.2549 -1.8479
37993SOL    HW217478   6.647   2.950  10.081 -0.0654 -2.0158  0.6409
37994SOL     OW17479   8.321   1.062   2.654 -0.2662  0.0523  0.2441
37994SOL    HW117480   8.377   1.055   2.576 -1.4205  0.0665 -0.6155
37994SOL    HW217481   8.381   1.089   2.724  0.8724 -0.3564 -0.5396
37995SOL     OW17482   2.720   1.214   9.128 -0.4294  0.8140  0.6058
37995SOL    HW117483   2.810   1.193   9.150 -0.4980  1.0833  1.1628
37995SOL    HW217484   2.725   1.257   9.043 -0.2285 -0.8725 -0.2601
37996SOL     OW17485   8.529   5.141   3.380  0.6824 -0.4839  0.0199
37996SOL    HW117486   8.513   5.051   3.407  2.2640 -1.2721 -1.4403
37996SOL    HW217487   8.486   5.148   3.294  1.5696 -0.2452 -0.4189
37997SOL     OW17488   8.209   2.123   2.897 -0.2768 -0.1236 -0.3178
37997SOL    HW117489   8.209   2.216   2.876 -1.1323 -0.5395 -2.3683
37997SOL    HW217490   8.162   2.117   2.980  1.0994  1.3865  0.6376
37998SOL     OW17491   0.979   2.309   9.490 -0.4641  0.0754  0.2872
37998SOL    HW117492   0.953   2.217   9.482  0.8043 -0.4127  1.3520
37998SOL    HW217493   0.960   2.332   9.581 -1.4508  1.1225 -0.1522
37999SOL     OW17494   0.667   0.253   3.486  0.1232 -0.5432 -0.2806
37999SOL    HW117495   0.622   0.189   3.541 -1.4580 -0.7720 -1.7398
37999SOL    HW217496   0.635   0.338   3.518  0.4500 -0.5865  0.1715
38000SOL     OW17497   3.654   3.642   3.112  1.0830  0.0356  0.1869
38000SOL    HW117498   3.638   3.696   3.189  1.3206 -0.4194  0.5618
38000SOL    HW217499   3.569   3.607   3.089  1.1115 -0.3351  0.6302
38001SOL     OW17500   6.729   8.028   0.916  0.0005  0.1898 -0.2415
38001SOL    HW117501   6.825   8.023   0.917  0.1062 -1.0516 -3.5229
38001SOL    HW217502   6.710   8.088   0.844 -1.7030  0.0094  0.0347
38002SOL     OW17503   0.566   2.084   7.465 -0.5615 -0.2570  0.1314
38002SOL    HW117504   0.563   2.176   7.436 -0.3243  0.0345  1.0109
38002SOL    HW217505   0.641   2.047   7.419  0.8919  0.6671  1.6357
38003SOL     OW17506   1.266   9.454   4.529  0.1273 -0.2359  0.7539
38003SOL    HW117507   1.294   9.531   4.479 -0.3760  1.1285  2.4423
38003SOL    HW217508   1.182   9.429   4.491  1.2237 -1.2901 -1.1408
38004SOL     OW17509   7.946   0.709   9.003  0.3562  0.2954  0.4940
38004SOL    HW117510   7.991   0.633   8.964  1.9188  0.8474  1.1653
38004SOL    HW217511   7.995   0.728   9.083 -0.9469  1.0877  1.1422
38005SOL     OW17512   1.367   4.596   2.643  0.2752  0.0231  0.1985
38005SOL    HW117513   1.367   4.629   2.733  0.8977  1.0193 -0.1568
38005SOL    HW217514   1.290   4.540   2.638 -0.6132  1.1436  0.9215
38006SOL     OW17515   5.217   4.136   3.469  0.4002  0.4979  0.3642
38006SOL    HW117516   5.144   4.077   3.484  1.4484 -0.3667  2.5754
38006SOL    HW217517   5.257   4.105   3.387  0.9506 -1.9868  1.4687
38007SOL     OW17518   8.013   6.474   9.270 -0.3223 -0.5062  0.1242
38007SOL    HW117519   7.980   6.414   9.204  1.7314  0.4708 -1.9165
38007SOL    HW217520   8.034   6.554   9.222 -0.6604  0.9987  2.3343
38008SOL     OW17521   3.642   2.077   9.656 -0.8156 -0.0190  0.5279
38008SOL    HW117522   3.727   2.097   9.617 -0.7558  0.5688  0.9452
38008SOL    HW217523   3.644   2.120   9.741 -1.5397  0.0074  0.5365
38009SOL     OW17524   5.582   4.710   0.680 -0.0157 -0.6150  0.1746
38009SOL    HW117525   5.500   4.730   0.634  0.6005 -0.9417 -1.1234
38009SOL    HW217526   5.648   4.765   0.637  0.0764  1.7191  2.9620
38010SOL     OW17527   6.274   8.856   5.545 -0.5353 -0.0640  0.4716
38010SOL    HW117528   6.366   8.844   5.568 -0.2703  1.4407  0.2535
38010SOL    HW217529   6.237   8.767   5.550  0.5087 -0.4487  2.2867
38011SOL     OW17530   6.860   6.085   3.233  0.3489  0.0563  0.0789
38011SOL    HW117531   6.899   6.086   3.146 -1.8298 -2.0259 -1.0382
38011SOL    HW217532   6.915   6.024   3.284  1.5489  1.1827  0.1898
38012SOL     OW17533   1.394   7.027   9.323  0.1086  0.3301  0.0104
38012SOL    HW117534   1.319   6.979   9.288  0.7726 -0.5798 -0.2137
38012SOL    HW217535   1.442   6.962   9.375 -0.2238  1.3723  1.6614
38013SOL     OW17536   4.324   5.158   5.771  0.2837  0.4151 -0.0183
38013SOL    HW117537   4.309   5.087   5.834  1.2057  0.3211  0.1136
38013SOL    HW217538   4.346   5.113   5.689  0.9125  0.5431  0.0768
38014SOL     OW17539   2.722   6.026   9.378  0.1517 -0.6133 -0.5995
38014SOL    HW117540   2.673   6.109   9.377 -1.0760 -1.1802  2.4348
38014SOL    HW217541   2.812   6.052   9.361 -0.3630  1.2010 -0.7965
38015SOL     OW17542   4.946   0.607   4.843  0.0887  0.0060  0.0469
38015SOL    HW117543   4.944   0.515   4.870  0.8384 -0.7008 -2.1218
38015SOL    HW217544   5.039   0.625   4.827  0.0849  1.4908  1.4338
38016SOL     OW17545   7.250   9.536   7.153  0.2605  0.2128 -0.2768
38016SOL    HW117546   7.214   9.603   7.211 -0.2396 -0.4804  0.2225
38016SOL    HW217547   7.273   9.463   7.210  1.1882  0.1076 -0.7643
38017SOL     OW17548   3.878   9.156   7.030  0.5327 -0.2165 -0.4418
38017SOL    HW117549   3.863   9.246   7.059  0.3508 -0.2774 -0.3534
38017SOL    HW217550   3.792   9.123   7.007  0.4815 -0.6527  0.3389
38018SOL     OW17551  10.220   0.990  10.127 -0.1135  0.2408  0.2170
38018SOL    HW117552  10.295   0.938  10.099  0.5473  0.9194  0.7070
38018SOL    HW217553  10.156   0.925  10.158 -0.2639 -0.4260 -1.3874
38019SOL     OW17554   3.853   9.797  10.072  0.1627 -0.2348 -0.4295
38019SOL    HW117555   3.916   9.862  10.102 -0.8129 -0.3422  2.0354
38019SOL    HW217556   3.903   9.715  10.067  0.5710 -0.0160  0.0284
38020SOL     OW17557   9.352   7.665   2.566 -0.2619  0.1848  0.9440
38020SOL    HW117558   9.426   7.726   2.576 -1.3859  1.4325  2.1374
38020SOL    HW217559   9.393   7.580   2.555  1.3739  1.0156  0.2136
38021SOL     OW17560   7.639   0.467   5.769 -0.2956 -0.1264  0.1593
38021SOL    HW117561   7.663   0.519   5.693 -0.4916  0.1117  0.2588
38021SOL    HW217562   7.702   0.493   5.836 -0.5621  0.1890  0.2926
38022SOL     OW17563   7.020   9.468  10.308  0.2499  0.2194  0.1359
38022SOL    HW117564   7.100   9.416  10.303  0.0824  0.0762 -2.9613
38022SOL    HW217565   7.050   9.555  10.334  1.7289  0.5704 -2.4119
38023SOL     OW17566   5.408   9.630   2.166  0.2485  0.0693 -0.4382
38023SOL    HW117567   5.476   9.564   2.178  0.2822  0.3406  1.0337
38023SOL    HW217568   5.345   9.614   2.237 -0.2471  0.9913 -0.6498
38024SOL     OW17569   9.673   9.652   8.567  0.5075 -0.6457  0.1036
38024SOL    HW117570   9.685   9.732   8.618  1.8935 -1.8602  1.7987
38024SOL    HW217571   9.579   9.639   8.564  0.3445  0.1617  1.2612
38025SOL     OW17572   8.692   8.596   1.024  0.2173 -0.7711 -0.6589
38025SOL    HW117573   8.762   8.588   1.088  0.1491  0.6671 -0.3864
38025SOL    HW217574   8.618   8.631   1.073  0.2158  0.5190 -1.5369
38026SOL     OW17575   1.488   1.607   2.915 -0.0202  0.2002 -0.0701
38026SOL    HW117576   1.560   1.574   2.969  0.2838  0.1509 -0.4986
38026SOL    HW217577   1.532   1.657   2.846 -0.2505 -1.6515 -1.6388
38027SOL     OW17578   7.164  10.073   0.054  0.0996  0.3546  0.2406
38027SOL    HW117579   7.245  10.124   0.058 -0.6655  1.5434  1.0378
38027SOL    HW217580   7.097  10.130   0.092 -1.0116 -0.8242  0.1278
38028SOL     OW17581   6.009   2.116  10.510 -0.0560  0.4995 -0.4373
38028SOL    HW117582   5.931   2.168  10.530  0.8674  1.9776 -0.4713
38028SOL    HW217583   6.043   2.154  10.429  0.6051 -0.2418 -0.5210
38029SOL     OW17584   7.599   7.360   3.532 -0.3455 -0.9437 -0.2651
38029SOL    HW117585   7.627   7.268   3.532 -1.5942 -1.3341 -0.5034
38029SOL    HW217586   7.534   7.365   3.462 -1.8924 -0.3858  1.1777
38030SOL     OW17587   8.706   7.953   1.626 -0.1528  0.5757  0.1041
38030SOL    HW117588   8.739   8.020   1.566  0.7772 -1.1184 -1.3434
38030SOL    HW217589   8.612   7.974   1.634 -0.3416  0.8266 -2.0329
38031SOL     OW17590   4.396   6.128   4.384  0.4594 -0.6311 -0.2390
38031SOL    HW117591   4.365   6.119   4.293 -0.1045  0.8018 -0.2033
38031SOL    HW217592   4.380   6.219   4.406  0.4368 -1.0048  1.3803
38032SOL     OW17593   4.224   2.916   6.026  0.0201  0.1653  0.2458
38032SOL    HW117594   4.208   2.924   5.932  0.3094 -0.1613  0.1687
38032SOL    HW217595   4.259   2.828   6.038  1.6542  0.8053  0.4266
38033SOL     OW17596   2.108   0.038   2.109 -0.4874  0.1577  0.5239
38033SOL    HW117597   2.150   0.056   2.194 -0.1568 -0.8981  0.5993
38033SOL    HW217598   2.015   0.043   2.128 -0.4162  1.7369  0.5362
38034SOL     OW17599   3.755   0.743   4.095 -0.3585  0.2492 -0.2308
38034SOL    HW117600   3.757   0.684   4.170 -0.2009  1.8460  1.0751
38034SOL    HW217601   3.722   0.825   4.130  0.8351  1.3912 -1.6578
38035SOL     OW17602  10.130   9.229  10.836  0.3118 -0.5143  0.7597
38035SOL    HW117603  10.040   9.262  10.843  0.2269 -0.5570  0.0443
38035SOL    HW217604  10.185   9.301  10.866  0.1152  0.1900 -0.5027
38036SOL     OW17605   3.265   4.190   0.535 -0.4747  0.1505  0.1159
38036SOL    HW117606   3.189   4.133   0.538  0.0750 -0.5677  0.7561
38036SOL    HW217607   3.316   4.159   0.460 -0.5529  0.3062 -0.0038
38037SOL     OW17608   8.193   9.892   3.141 -0.3414  0.8613 -0.4076
38037SOL    HW117609   8.205   9.814   3.086  0.8568  0.3156  0.5769
38037SOL    HW217610   8.282   9.918   3.165 -0.7630  2.1269 -0.1270
38038SOL     OW17611   9.283   7.874   8.533 -0.4349  0.3784  0.5681
38038SOL    HW117612   9.187   7.872   8.535 -0.4559 -0.1228 -0.3007
38038SOL    HW217613   9.309   7.787   8.563 -0.2080  0.9245  2.0080
38039SOL     OW17614   1.095   3.349   3.507 -0.3031 -0.3231  0.0288
38039SOL    HW117615   1.105   3.271   3.562 -0.3259 -0.1544  0.2734
38039SOL    HW217616   1.161   3.410   3.540  0.4937 -0.6511 -0.8959
38040SOL     OW17617   0.356   5.421   5.259 -0.4424 -0.1900 -0.5960
38040SOL    HW117618   0.416   5.446   5.329  0.2366 -0.0064 -1.2244
38040SOL    HW217619   0.280   5.384   5.304  0.1723 -0.4928  0.2160
38041SOL     OW17620   5.879   6.437   3.627  0.4643 -0.0609  0.5166
38041SOL    HW117621   5.897   6.503   3.560  1.3815 -0.7472  0.0725
38041SOL    HW217622   5.840   6.364   3.579 -0.5605  0.1382  1.0082
38042SOL     OW17623   9.865   5.252   3.523  0.4719  0.4559  0.1496
38042SOL    HW117624   9.870   5.226   3.431  0.0175  1.4452 -0.1715
38042SOL    HW217625   9.825   5.339   3.521  0.0743  0.3175  1.3170
38043SOL     OW17626   6.380   9.885   4.645 -0.3736 -0.1033 -0.3514
38043SOL    HW117627   6.393   9.956   4.582 -0.9572  0.9635  0.6877
38043SOL    HW217628   6.469   9.859   4.671 -0.1267 -0.5857 -1.6188
38044SOL     OW17629   9.615   5.797   6.012  0.2171 -0.6568  0.0258
38044SOL    HW117630   9.522   5.820   6.015  0.1485 -0.5145 -1.9165
38044SOL    HW217631   9.616   5.705   5.987  0.5994 -0.9771  1.1725
38045SOL     OW17632   8.821   5.050   2.304 -0.1632  0.2718 -0.2164
38045SOL    HW117633   8.837   5.083   2.216 -1.2620 -2.1476 -1.4159
38045SOL    HW217634   8.729   5.070   2.321 -0.4184 -0.7338 -0.3420
38046SOL     OW17635   0.531   8.191   0.600 -0.3646 -0.0879 -0.1896
38046SOL    HW117636   0.529   8.207   0.506 -0.7609  0.1923 -0.1324
38046SOL    HW217637   0.600   8.249   0.633  0.0041 -0.4281 -0.3502
38047SOL     OW17638   0.601   2.018   4.338 -0.1317  0.4503 -0.2678
38047SOL    HW117639   0.626   1.926   4.351 -0.9513  0.6391  4.2074
38047SOL    HW217640   0.508   2.014   4.313 -0.0328  0.0920 -0.6009
38048SOL     OW17641   7.079   4.982   4.172 -0.3430 -0.0383  0.4534
38048SOL    HW117642   7.151   4.988   4.108 -0.2756 -0.5775  0.4745
38048SOL    HW217643   7.017   5.049   4.143 -0.2346 -0.1585 -0.0847
38049SOL     OW17644   6.229   5.999   3.588 -0.2829 -0.2617 -0.7069
38049SOL    HW117645   6.255   6.088   3.563 -0.2239  0.0925  0.5252
38049SOL    HW217646   6.306   5.945   3.569  0.0592  0.1398 -0.4714
38050SOL     OW17647   2.774   5.682   0.467 -0.7616 -0.3661 -0.0362
38050SOL    HW117648   2.784   5.697   0.374  0.5176  0.4268  0.2068
38050SOL    HW217649   2.756   5.769   0.504  1.1724 -0.2266  0.7170
38051SOL     OW17650   8.782   0.368   4.377 -0.1666  0.2324 -0.2482
38051SOL    HW117651   8.692   0.400   4.382  0.2604  1.4698 -0.1204
38051SOL    HW217652   8.834   0.445   4.354  0.8605 -0.4730 -0.3934
38052SOL     OW17653   2.190   6.365   5.162 -0.1090  0.2135 -0.3105
38052SOL    HW117654   2.103   6.326   5.151 -0.1357  0.0462  0.4566
38052SOL    HW217655   2.251   6.297   5.133 -0.2265  0.2996 -0.7676
38053SOL     OW17656   7.325   6.860   2.175  0.4427 -0.3510 -0.0612
38053SOL    HW117657   7.276   6.825   2.250  0.7714 -1.0610 -0.1752
38053SOL    HW217658   7.399   6.906   2.214  0.5870 -0.6772  0.0480
38054SOL     OW17659  10.583   5.617   3.862  0.4904 -0.1316 -0.3089
38054SOL    HW117660  10.663   5.664   3.883  1.2253 -1.0999 -0.8106
38054SOL    HW217661  10.586   5.539   3.917 -0.9089  0.5573  0.8103
38055SOL     OW17662   4.642   7.507   7.626  0.1615  0.4985 -0.7762
38055SOL    HW117663   4.729   7.541   7.646  0.7543 -0.8283 -0.9610
38055SOL    HW217664   4.582   7.579   7.644  1.2361  1.2109  0.0134
38056SOL     OW17665   9.637   7.206   5.673 -0.0438 -0.4023  0.5140
38056SOL    HW117666   9.569   7.189   5.739 -1.5327 -0.3680 -0.9621
38056SOL    HW217667   9.642   7.302   5.669 -0.6825 -0.3814 -0.0993
38057SOL     OW17668   4.539   8.964   2.630 -0.6509  0.0542  0.1988
38057SOL    HW117669   4.632   8.953   2.648 -0.7993  1.0145  1.6773
38057SOL    HW217670   4.520   8.900   2.561  1.3579  0.7259 -1.0286
38058SOL     OW17671   6.606   4.668   9.574  0.5382  0.2056 -0.0356
38058SOL    HW117672   6.685   4.624   9.607 -1.0889 -1.0231  2.5178
38058SOL    HW217673   6.550   4.679   9.651 -1.8677  0.9189 -1.7556
38059SOL     OW17674  10.392   6.550   9.283 -0.4884 -0.1028  0.1485
38059SOL    HW117675  10.417   6.639   9.309 -1.2326 -0.0490  0.7164
38059SOL    HW217676  10.422   6.543   9.192  1.2556  0.0582  0.6738
38060SOL     OW17677   4.245   8.335   1.344 -0.3246 -0.1863 -0.6722
38060SOL    HW117678   4.161   8.371   1.314 -0.8862 -2.0320 -1.4988
38060SOL    HW217679   4.241   8.342   1.439 -2.2897 -1.8902 -0.5433
38061SOL     OW17680   4.981   3.262   5.572  0.0913  0.7836  0.1702
38061SOL    HW117681   4.969   3.240   5.480  5.3645 -0.3754 -0.5972
38061SOL    HW217682   4.958   3.182   5.619  0.8545  0.0581 -0.6369
38062SOL     OW17683   2.131   2.976   0.100 -0.4154 -0.1751  0.2013
38062SOL    HW117684   2.051   2.979   0.047 -1.9203  0.2193  2.3823
38062SOL    HW217685   2.114   2.907   0.164  0.4617  0.7914  1.5017
38063SOL     OW17686  10.540   7.449   4.104 -0.4635  0.2065 -0.1084
38063SOL    HW117687  10.566   7.530   4.149 -0.0337 -0.5945  1.1359
38063SOL    HW217688  10.524   7.387   4.175  0.9304 -1.3343 -1.0910
38064SOL     OW17689   0.712   0.850   9.818  0.0696 -0.4240 -0.4030
38064SOL    HW117690   0.784   0.829   9.878  0.0071  0.1034 -0.1385
38064SOL    HW217691   0.633   0.825   9.866 -0.0433  0.9166  0.1532
38065SOL     OW17692   6.277  10.530   3.733  0.3600 -0.0540  0.3287
38065SOL    HW117693   6.337  10.459   3.755  0.2105 -0.6586 -1.1217
38065SOL    HW217694   6.255  10.516   3.641 -0.3403  1.3878  0.2426
38066SOL     OW17695   9.444   9.363  10.652 -0.2118  0.2665  0.4226
38066SOL    HW117696   9.505   9.387  10.722  0.3790  0.3688 -0.1107
38066SOL    HW217697   9.368   9.328  10.697 -0.3099  1.3593  1.1598
38067SOL     OW17698   9.624   9.042   5.832 -0.5419  0.4481  0.0475
38067SOL    HW117699   9.558   8.978   5.859  1.0112 -1.1525  0.1993
38067SOL    HW217700   9.673   9.061   5.912  1.2842 -0.9589 -0.6782
38068SOL     OW17701  11.008   3.751  10.013  0.3138 -0.8669  0.2488
38068SOL    HW117702  11.016   3.731   9.920  1.0290 -0.6415  0.2582
38068SOL    HW217703  10.990   3.666  10.055  1.9360 -1.3099  0.1253
38069SOL     OW17704  10.487   0.321   2.830  0.4146 -0.3465 -0.7875
38069SOL    HW117705  10.514   0.299   2.919  1.7955  1.0168 -0.8260
38069SOL    HW217706  10.535   0.260   2.774  0.3525 -0.5110 -0.6624
38070SOL     OW17707   6.676   1.030   9.156 -0.0933  0.1950 -0.0618
38070SOL    HW117708   6.771   1.041   9.155  0.2800 -2.0359  1.8175
38070SOL    HW217709   6.653   1.018   9.064  1.2749  1.6783 -0.6538
38071SOL     OW17710   3.067   0.134   6.666 -0.1689 -0.4347  0.2004
38071SOL    HW117711   3.008   0.109   6.737  0.5025 -1.6866  0.3503
38071SOL    HW217712   3.030   0.092   6.588 -2.5359  3.2324 -0.8849
38072SOL     OW17713   0.495   7.934   2.003  0.8712 -0.2881  0.4423
38072SOL    HW117714   0.530   7.872   1.939  0.7965  0.7380 -0.6459
38072SOL    HW217715   0.440   7.993   1.951  1.0219  0.7419  1.4027
38073SOL     OW17716   6.692   7.810   2.879  0.0175 -0.2509  0.2379
38073SOL    HW117717   6.769   7.780   2.831  0.7060  0.6092  0.7803
38073SOL    HW217718   6.628   7.832   2.810  0.7630  0.3601 -0.2806
38074SOL     OW17719   0.501   3.654   3.469  0.2602 -0.0639 -0.1230
38074SOL    HW117720   0.534   3.570   3.501 -1.5976 -0.7855  0.0084
38074SOL    HW217721   0.467   3.635   3.381  0.6914  0.7672 -0.4774
38075SOL     OW17722   0.378   8.117   1.832 -0.1854  0.1087 -0.0656
38075SOL    HW117723   0.438   8.184   1.799 -0.6260 -1.0138 -3.6993
38075SOL    HW217724   0.300   8.165   1.860  0.1097  1.2473 -1.1201
38076SOL     OW17725   5.069   6.319   4.651 -0.0578 -0.0556  0.3359
38076SOL    HW117726   5.092   6.387   4.587 -2.7551  0.9255  0.2435
38076SOL    HW217727   5.147   6.265   4.659  1.3528  1.5647 -1.5309
38077SOL     OW17728  10.849   1.509   3.984  0.2170 -1.2245  0.2415
38077SOL    HW117729  10.795   1.493   3.906  0.0074 -1.1955  0.3816
38077SOL    HW217730  10.796   1.568   4.038  0.6773 -0.6261  0.0549
38078SOL     OW17731   7.920  10.046   6.864  0.5495  0.2865 -0.0147
38078SOL    HW117732   7.949  10.062   6.954  0.9675  0.0671 -0.1095
38078SOL    HW217733   7.951  10.122   6.815  0.3737  0.3772  0.0146
38079SOL     OW17734   7.727   1.832   5.708  0.2603  0.0767 -0.5725
38079SOL    HW117735   7.698   1.750   5.747  1.5016 -0.4880 -0.7688
38079SOL    HW217736   7.664   1.849   5.638  1.2136 -1.9238 -2.0211
38080SOL     OW17737   3.811   0.650   2.508  0.6176 -0.2297  0.0339
38080SOL    HW117738   3.867   0.727   2.514  0.0399  0.1230  1.1527
38080SOL    HW217739   3.777   0.638   2.596 -1.8507  0.1458 -0.7837
38081SOL     OW17740   8.757   8.327   7.610 -0.0072 -0.0550  0.6069
38081SOL    HW117741   8.846   8.313   7.577 -0.2208  1.3458 -0.7115
38081SOL    HW217742   8.747   8.422   7.611 -1.7683 -0.1870 -0.1232
38082SOL     OW17743   4.924   4.635   6.398  0.6427 -0.3488  0.5966
38082SOL    HW117744   4.858   4.627   6.468 -1.1823  1.3199 -0.8081
38082SOL    HW217745   4.950   4.727   6.402  1.6468 -0.6077  0.0320
38083SOL     OW17746   2.071   2.910   4.756 -0.7527  0.4732 -0.1987
38083SOL    HW117747   1.996   2.954   4.716  0.4364 -0.0772 -3.2579
38083SOL    HW217748   2.091   2.838   4.697  2.3453  0.7455  0.3624
38084SOL     OW17749   1.591   1.386   5.831 -0.1160 -0.0480  0.4811
38084SOL    HW117750   1.669   1.366   5.781 -0.5677 -0.2795 -0.1426
38084SOL    HW217751   1.551   1.459   5.784  0.2917  0.7953  1.4133
38085SOL     OW17752   4.493   9.429   8.680  0.3012  0.1157 -0.1648
38085SOL    HW117753   4.529   9.496   8.621 -0.8313  0.7023 -0.2137
38085SOL    HW217754   4.511   9.464   8.768 -0.6038  0.6796 -0.1907
38086SOL     OW17755   5.762  10.193   5.547  0.0210  0.3900  0.0676
38086SOL    HW117756   5.844  10.144   5.550  0.1338  0.5645 -0.1754
38086SOL    HW217757   5.724  10.181   5.634  0.6915  0.9625  0.4476
38087SOL     OW17758   3.662   7.442   4.613 -0.2842 -0.4667 -0.4942
38087SOL    HW117759   3.703   7.505   4.672  1.9570 -0.2617 -2.1378
38087SOL    HW217760   3.655   7.489   4.529 -0.3552 -1.7738 -1.2502
38088SOL     OW17761   0.283   0.079   1.838 -0.0725  0.1429 -0.1443
38088SOL    HW117762   0.216   0.041   1.895  0.5375  0.5080  0.8547
38088SOL    HW217763   0.261   0.049   1.750 -1.1626 -0.2711  0.2589
38089SOL     OW17764  10.551  10.398   7.227  0.7034  0.6650 -0.0058
38089SOL    HW117765  10.516  10.448   7.301  0.2924 -0.4440  0.5710
38089SOL    HW217766  10.473  10.370   7.179  0.7949 -0.9397  0.7021
38090SOL     OW17767   8.139   4.899   5.059  0.0923  0.2786 -0.1691
38090SOL    HW117768   8.045   4.887   5.048  0.3257 -1.2846 -0.6954
38090SOL    HW217769   8.164   4.833   5.123  1.0088 -0.0393 -0.8457
38091SOL     OW17770   2.369   0.226   1.817 -0.0060 -0.9048 -0.0269
38091SOL    HW117771   2.360   0.265   1.904 -3.0173 -1.1084 -0.1655
38091SOL    HW217772   2.356   0.132   1.832  0.5953 -1.0878 -0.5830
38092SOL     OW17773  10.919   7.150   7.618 -0.8073  0.3651 -0.1120
38092SOL    HW117774  11.004   7.172   7.580 -0.6744  0.9281  0.4995
38092SOL    HW217775  10.940   7.114   7.704 -1.0720 -1.3655 -0.7236
38093SOL     OW17776   0.868   5.686   6.507 -0.1569  0.0409  0.1382
38093SOL    HW117777   0.952   5.642   6.518 -0.5450 -1.6965 -2.7576
38093SOL    HW217778   0.804   5.615   6.508 -1.4798  1.1936  0.9087
38094SOL     OW17779   4.951  10.949   7.321 -0.0072  0.5077  0.0802
38094SOL    HW117780   4.926  10.984   7.235  1.4197 -0.4823 -0.7811
38094SOL    HW217781   4.972  10.857   7.304 -1.1448 -0.1189  1.8000
38095SOL     OW17782   7.910   9.721   5.891  0.1878 -0.1238  0.0344
38095SOL    HW117783   7.877   9.783   5.957  0.5740 -0.3080  0.4066
38095SOL    HW217784   7.838   9.712   5.829  0.4731  1.4619 -0.5788
38096SOL     OW17785   8.323   4.061   6.015 -0.5947 -0.4675  0.0042
38096SOL    HW117786   8.304   4.043   6.107  2.1751 -1.8769  0.3854
38096SOL    HW217787   8.389   4.130   6.016 -1.1672  0.1319 -1.0018
38097SOL     OW17788   3.006   1.527   8.922 -0.3151 -0.4276  0.8044
38097SOL    HW117789   2.992   1.487   8.837  2.3978  0.4637 -0.1444
38097SOL    HW217790   2.917   1.539   8.957 -1.5005 -0.9936 -1.7707
38098SOL     OW17791   8.091  10.725   4.003 -0.0449 -0.6998 -0.4745
38098SOL    HW117792   8.032  10.789   3.964  0.2280  1.9493  3.0210
38098SOL    HW217793   8.177  10.768   4.003  0.9403 -2.5538 -1.1637
38099SOL     OW17794   4.417   1.849   9.127 -0.4489  0.0069  0.2394
38099SOL    HW117795   4.416   1.859   9.222  1.2213  1.3231  0.1621
38099SOL    HW217796   4.510   1.840   9.105 -0.7711  0.2364 -1.3136
38100SOL     OW17797  10.173   1.802   9.092 -0.1153 -0.3901  0.2744
38100SOL    HW117798  10.234   1.751   9.039 -0.0553  0.6634 -0.6971
38100SOL    HW217799  10.198   1.893   9.078 -3.4259  0.3515 -2.2576
38101SOL     OW17800   0.065   0.231   2.914  0.0411  0.5798 -0.1250
38101SOL    HW117801  -0.003   0.295   2.932 -1.0727 -0.7629  0.6369
38101SOL    HW217802   0.026   0.146   2.937  1.8314 -0.2795 -0.0260
38102SOL     OW17803   1.451   6.102   1.531  0.2649  0.0762 -0.1123
38102SOL    HW117804   1.506   6.037   1.574 -0.2897 -0.0104  0.4819
38102SOL    HW217805   1.368   6.099   1.579 -1.0327 -1.2904 -2.2957
38103SOL     OW17806   4.848   0.183   3.784  0.7436 -0.1728  0.6452
38103SOL    HW117807   4.793   0.243   3.835  2.1297  0.1685  1.8072
38103SOL    HW217808   4.839   0.099   3.828 -0.2197 -0.5522 -0.2398
38104SOL     OW17809   4.403   9.557   1.463 -0.0508 -0.1130 -0.4812
38104SOL    HW117810   4.364   9.556   1.376 -2.0928 -1.6101  0.3790
38104SOL    HW217811   4.432   9.466   1.476 -0.8884 -0.2117  0.8433
38105SOL     OW17812   9.968   7.968   8.466 -0.8104 -0.8191 -0.0855
38105SOL    HW117813   9.877   7.983   8.491 -0.5566 -0.8865  0.9231
38105SOL    HW217814  10.017   7.981   8.547  0.2749  0.9464 -0.9520
38106SOL     OW17815   0.213   8.069   8.507  0.0766 -0.8060  0.4044
38106SOL    HW117816   0.202   8.089   8.414 -0.8297  0.5766  0.7810
38106SOL    HW217817   0.183   7.979   8.516 -3.3815  0.1341 -0.0952
38107SOL     OW17818   8.947   4.161  10.454 -0.0157  0.5932 -0.4239
38107SOL    HW117819   9.038   4.145  10.427 -0.2670 -1.0600 -0.3857
38107SOL    HW217820   8.942   4.125  10.543 -0.4326  1.7164  0.0291
38108SOL     OW17821   2.330   0.953   2.182 -0.0400 -0.4571  0.0404
38108SOL    HW117822   2.361   0.920   2.266  1.1013  1.1927  0.3302
38108SOL    HW217823   2.276   1.029   2.204  0.0008 -0.1997 -0.6949
38109SOL     OW17824   5.182  10.634   0.866 -0.4822  0.4500  0.2295
38109SOL    HW117825   5.189  10.569   0.936 -2.1185 -0.4013 -0.3486
38109SOL    HW217826   5.163  10.716   0.911  2.4919  0.8252  1.0471
38110SOL     OW17827   3.399   8.699   3.161  0.5906 -0.3525 -0.3136
38110SOL    HW117828   3.332   8.754   3.202  1.5725  1.6374 -1.2227
38110SOL    HW217829   3.430   8.642   3.231  0.1381  0.8743  0.9329
38111SOL     OW17830   3.747   1.198   6.867 -0.0698  0.8403 -0.0637
38111SOL    HW117831   3.826   1.146   6.884 -0.0604  1.1706  0.9927
38111SOL    HW217832   3.778   1.289   6.865 -0.3294  0.9255 -0.2708
38112SOL     OW17833   9.352   7.173   4.552  0.1991  0.1275  0.6928
38112SOL    HW117834   9.306   7.111   4.495  2.3553 -1.2783  0.3902
38112SOL    HW217835   9.352   7.131   4.638  2.9743 -1.1238  0.1737
38113SOL     OW17836   4.761   5.957   9.965  0.5884 -0.1393 -0.0744
38113SOL    HW117837   4.684   5.978  10.016  1.3379  2.9866 -0.0438
38113SOL    HW217838   4.781   5.866   9.987 -3.3356 -1.2733 -0.5445
38114SOL     OW17839   8.336   0.604   8.200  0.2461  0.9050 -0.0672
38114SOL    HW117840   8.272   0.569   8.262  1.5817  1.0451  1.4541
38114SOL    HW217841   8.326   0.699   8.207 -1.6890  0.9808 -2.3975
38115SOL     OW17842  10.745   6.842   2.402 -0.3460  0.0680  0.3167
38115SOL    HW117843  10.742   6.926   2.356  1.9619  0.2333  0.3271
38115SOL    HW217844  10.728   6.865   2.494 -2.2101  0.1277 -0.0080
38116SOL     OW17845   8.600   4.862   9.580  0.1574  0.0487  0.1242
38116SOL    HW117846   8.567   4.855   9.490 -1.6887  1.5041  0.6099
38116SOL    HW217847   8.648   4.945   9.581  1.9132 -0.9132  0.0426
38117SOL     OW17848   2.262   9.612   6.089 -0.9003 -0.0005 -0.3479
38117SOL    HW117849   2.298   9.543   6.144  4.5609  1.1223 -1.8624
38117SOL    HW217850   2.264   9.690   6.143  0.9368  0.3871 -0.8854
38118SOL     OW17851   2.863   6.725   1.500  0.4589 -0.1966  0.5128
38118SOL    HW117852   2.940   6.775   1.471 -0.1113 -0.0719 -0.8583
38118SOL    HW217853   2.900   6.645   1.536  1.4081  1.2024  2.8840
38119SOL     OW17854   0.962  10.748   4.695 -0.1818  0.5524  0.3642
38119SOL    HW117855   0.895  10.680   4.697  0.3488  0.0346  0.7827
38119SOL    HW217856   1.002  10.746   4.782  1.8827 -0.6795 -0.5353
38120SOL     OW17857   7.479   0.971   0.890 -0.1260  0.0004  0.4841
38120SOL    HW117858   7.418   1.041   0.910 -0.7413 -0.7087  1.1610
38120SOL    HW217859   7.496   0.928   0.974 -0.2831 -1.0673 -0.0060
38121SOL     OW17860   3.756   8.731   3.326  0.4980  0.2443  0.7014
38121SOL    HW117861   3.701   8.668   3.280 -0.2161  0.6362  0.9950
38121SOL    HW217862   3.828   8.750   3.265  1.1790 -1.4534  0.9432
38122SOL     OW17863   3.047   0.764   5.618  0.2220 -0.1671  0.3979
38122SOL    HW117864   3.102   0.810   5.681 -1.1029  0.2335  1.3284
38122SOL    HW217865   3.093   0.773   5.534  1.2976  0.5786  1.0418
38123SOL     OW17866  10.722   1.972   2.560  0.1279 -1.1425  0.1959
38123SOL    HW117867  10.745   1.898   2.616 -0.2520 -0.7288  0.9146
38123SOL    HW217868  10.803   1.995   2.515  0.5608 -1.1719  0.9541
38124SOL     OW17869   1.311   5.449  10.977  0.1161  0.3438 -0.1188
38124SOL    HW117870   1.342   5.366  11.014 -0.8924 -0.3191 -0.7264
38124SOL    HW217871   1.237   5.474  11.033  0.0435  0.5369 -0.2996
38125SOL     OW17872   8.211   4.732  10.820  0.0457  0.5161 -0.5486
38125SOL    HW117873   8.180   4.803  10.876 -1.2359  1.6211 -2.5528
38125SOL    HW217874   8.166   4.654  10.854 -1.1479  1.2541 -0.3881
38126SOL     OW17875   1.175  10.261   1.354 -0.2172  0.1226  0.1613
38126SOL    HW117876   1.184  10.279   1.448  0.0761  0.1176  0.1368
38126SOL    HW217877   1.177  10.347   1.313  4.1964  0.0760 -0.2103
38127SOL     OW17878   4.180  10.797   5.596 -0.0376 -0.3138  0.0107
38127SOL    HW117879   4.108  10.735   5.602 -0.3060 -0.0256 -0.1942
38127SOL    HW217880   4.258  10.743   5.583 -0.4652 -0.5569 -1.8917
38128SOL     OW17881   3.618   9.226   9.256 -0.1954  0.8078 -0.2108
38128SOL    HW117882   3.703   9.200   9.221 -0.7095 -1.4242  0.0405
38128SOL    HW217883   3.557   9.216   9.183 -0.5737  0.2870  0.1635
38129SOL     OW17884   5.210   5.198   2.888  0.0224  0.0659  0.1420
38129SOL    HW117885   5.121   5.165   2.888 -0.0497  0.2486 -0.1047
38129SOL    HW217886   5.258   5.139   2.830  0.8757 -2.0718  2.8679
38130SOL     OW17887   9.091   1.012   1.224  0.0248  0.2301  0.1470
38130SOL    HW117888   9.043   0.954   1.166 -1.7182 -0.7035  2.3900
38130SOL    HW217889   9.116   1.086   1.168 -2.5506 -0.0470 -1.5437
38131SOL     OW17890   7.100   7.608   2.805 -0.1323 -0.3482 -0.5201
38131SOL    HW117891   7.115   7.563   2.722  1.8266  0.8435 -0.8841
38131SOL    HW217892   7.144   7.692   2.795 -0.4075  0.0951  1.5024
38132SOL     OW17893  10.010  10.980   2.715 -0.0846  0.9359 -0.1156
38132SOL    HW117894  10.044  11.061   2.753 -1.5668  1.8085 -0.5658
38132SOL    HW217895  10.059  10.910   2.759  1.8122  2.0834 -0.3153
38133SOL     OW17896  11.002   1.142   2.954  0.6193 -0.0983  0.3934
38133SOL    HW117897  11.074   1.085   2.980  0.4068  0.3902  2.1299
38133SOL    HW217898  10.982   1.116   2.864 -0.3849 -3.7306  1.5051
38134SOL     OW17899   0.973   4.922   9.271 -0.0404  0.1577  0.0595
38134SOL    HW117900   1.058   4.880   9.282 -0.0420  0.1304 -0.0382
38134SOL    HW217901   0.993   5.015   9.259 -0.0591  0.2603  0.7532
38135SOL     OW17902   4.797   7.001   3.479  0.1071  0.0450  0.2355
38135SOL    HW117903   4.824   6.910   3.467 -1.2662 -0.4058  0.4359
38135SOL    HW217904   4.702   6.999   3.473  0.0951  1.6168 -0.6547
38136SOL     OW17905   5.405   6.439   0.675  0.6205  0.5689  0.4414
38136SOL    HW117906   5.438   6.438   0.765  3.0528  0.8036 -0.3738
38136SOL    HW217907   5.404   6.347   0.649  0.1919  0.5273  0.5869
38137SOL     OW17908   3.123   7.179   6.336 -0.3527 -0.1673 -0.4787
38137SOL    HW117909   3.150   7.153   6.424 -0.4765 -0.4387 -0.5206
38137SOL    HW217910   3.045   7.232   6.349  0.5853  1.2189 -0.3023
38138SOL     OW17911  10.122   0.634   2.305 -0.0806  0.4774 -0.0522
38138SOL    HW117912  10.083   0.611   2.221  1.3771 -3.0881  0.0693
38138SOL    HW217913  10.057   0.609   2.371 -0.5780  1.7597 -0.0341
38139SOL     OW17914   2.832   8.893   0.610  0.0974 -0.3690  0.6664
38139SOL    HW117915   2.763   8.870   0.548  0.9533  0.7755 -0.7626
38139SOL    HW217916   2.790   8.955   0.670  0.0163  0.8636 -0.6022
38140SOL     OW17917   0.228   0.701   0.995 -0.2644 -0.4066  0.0102
38140SOL    HW117918   0.210   0.620   1.042 -3.8344  0.8675  1.1344
38140SOL    HW217919   0.164   0.764   1.028  1.8714  2.7559 -1.2761
38141SOL     OW17920   2.567   7.792   1.133  0.5005  0.1422  0.4677
38141SOL    HW117921   2.549   7.740   1.211 -0.4551 -1.0902 -0.5337
38141SOL    HW217922   2.631   7.740   1.084 -0.1229  0.1076 -0.3318
38142SOL     OW17923   7.795  10.284   3.607  0.0375 -0.0752  0.2023
38142SOL    HW117924   7.765  10.343   3.538 -0.5699  1.3602  1.6210
38142SOL    HW217925   7.822  10.343   3.678 -1.7271 -1.4650  2.1418
38143SOL     OW17926   8.577   7.585  10.610 -0.5637 -0.1494 -0.0325
38143SOL    HW117927   8.673   7.586  10.612 -0.5403 -0.3694 -0.7502
38143SOL    HW217928   8.555   7.505  10.562 -1.0813  0.5768 -1.0334
38144SOL     OW17929   8.084   9.710   7.587 -0.5826 -0.3219  0.5488
38144SOL    HW117930   8.070   9.630   7.637  0.6687 -1.1983 -0.4446
38144SOL    HW217931   8.171   9.741   7.615 -0.7637  0.3268  0.4268
38145SOL     OW17932   2.609   2.033   9.215 -0.4557 -0.1683 -0.1472
38145SOL    HW117933   2.563   1.955   9.184 -0.6551 -0.2656  0.3781
38145SOL    HW217934   2.690   2.035   9.164 -0.4047 -0.7705 -0.1025
38146SOL     OW17935   6.123   0.668   7.900  0.1756  0.3838 -0.3780
38146SOL    HW117936   6.128   0.762   7.880  0.0653  0.0966 -1.9005
38146SOL    HW217937   6.029   0.651   7.910 -0.0847 -0.0597 -2.9542
38147SOL     OW17938   0.042   9.447   7.132 -0.0632  0.1923 -0.0489
38147SOL    HW117939   0.120   9.479   7.178  0.2978  1.2648 -1.3362
38147SOL    HW217940   0.050   9.351   7.136  1.1426  0.2791  0.1583
38148SOL     OW17941   7.100   7.908   7.686  0.0005  0.3505 -0.3203
38148SOL    HW117942   7.168   7.930   7.622  1.5753  0.5150  1.3440
38148SOL    HW217943   7.083   7.989   7.733  1.1950 -0.4420  1.5715
38149SOL     OW17944   7.065   8.378   9.207 -0.3062 -0.3129 -0.0939
38149SOL    HW117945   7.063   8.463   9.161 -1.3987 -0.1644  0.2222
38149SOL    HW217946   7.108   8.319   9.145  1.8823  0.7909  0.2546
38150SOL     OW17947   0.290   7.738   9.114  0.0321 -0.4469  0.2810
38150SOL    HW117948   0.323   7.730   9.204 -1.1384  1.3496  0.9298
38150SOL    HW217949   0.339   7.811   9.077  0.4921 -1.1642 -0.5666
38151SOL     OW17950   4.374   0.788   5.171  0.2352  0.1355  0.3519
38151SOL    HW117951   4.357   0.739   5.252 -0.3713  0.4339  0.4107
38151SOL    HW217952   4.440   0.853   5.196 -2.3885  2.5419  1.5583
38152SOL     OW17953   9.552   6.148   1.754  0.9520 -0.1365 -0.0298
38152SOL    HW117954   9.572   6.076   1.694 -1.8797  0.5371 -2.0093
38152SOL    HW217955   9.624   6.210   1.742  1.3299 -0.8060 -1.5056
38153SOL     OW17956   4.796   2.925   9.444 -0.0442  0.3373  0.5076
38153SOL    HW117957   4.867   2.989   9.443  1.7703 -1.6004  0.1278
38153SOL    HW217958   4.747   2.943   9.364  0.4302  1.2342  0.4011
38154SOL     OW17959   1.211   5.354   0.474  0.6822  0.4426 -0.8526
38154SOL    HW117960   1.174   5.270   0.447 -0.1912  1.0848 -1.6844
38154SOL    HW217961   1.184   5.362   0.566  1.5048 -0.5662 -0.4971
38155SOL     OW17962   3.140   7.404   5.038  0.2156  0.1068 -0.5476
38155SOL    HW117963   3.167   7.465   5.107 -0.4351 -0.0108 -0.1809
38155SOL    HW217964   3.139   7.458   4.959 -0.8571  0.7245 -0.1402
38156SOL     OW17965   8.654  10.537   9.861 -0.4342 -0.0591 -0.5309
38156SOL    HW117966   8.717  10.590   9.909  0.0970  0.3033 -1.6126
38156SOL    HW217967   8.703  10.460   9.833 -1.0954 -0.9487  0.6687
38157SOL     OW17968   9.912   3.828   1.996 -0.1080  0.0812  0.0832
38157SOL    HW117969   9.890   3.781   1.916 -3.4061 -0.7616  1.3597
38157SOL    HW217970  10.006   3.845   1.988  0.1098 -1.8195 -2.9585
38158SOL     OW17971  10.102   4.643   0.291  0.1856  0.0582  0.1961
38158SOL    HW117972  10.146   4.574   0.240 -2.7836 -2.3867  0.6681
38158SOL    HW217973  10.022   4.661   0.242  0.7739  3.2153  0.1833
38159SOL     OW17974   1.758  10.422   5.032 -0.7904  0.4801  0.2952
38159SOL    HW117975   1.782  10.415   4.940 -0.0449  0.7583  0.4606
38159SOL    HW217976   1.778  10.513   5.056  0.2623  0.0664  1.0620
38160SOL     OW17977   3.567   6.648   8.053 -0.0265 -0.3253  0.7671
38160SOL    HW117978   3.513   6.693   8.117  1.3753 -0.3661  2.0358
38160SOL    HW217979   3.536   6.557   8.055 -1.6357  0.1377 -0.4788
38161SOL     OW17980   8.667   2.999   4.875 -0.1184  0.2778  0.0426
38161SOL    HW117981   8.680   2.979   4.967 -4.3342 -3.2426  0.1943
38161SOL    HW217982   8.722   2.937   4.828  0.3305  0.5642  0.1823
38162SOL     OW17983   0.071   9.495   1.492  0.3309  0.1225  0.5134
38162SOL    HW117984   0.112   9.566   1.441  0.6137 -0.7516 -0.5055
38162SOL    HW217985   0.063   9.531   1.580 -0.2653  1.7311 -0.1566
38163SOL     OW17986   5.601   6.629  10.375  0.2774 -0.2446  0.3641
38163SOL    HW117987   5.646   6.572  10.313  0.6833  2.3542 -1.9611
38163SOL    HW217988   5.671   6.674  10.422  0.0105 -0.1601  0.6892
38164SOL     OW17989   0.044   7.958   1.747  0.3236  0.1460 -0.5709
38164SOL    HW117990  -0.047   7.931   1.762 -0.0018  1.1896 -0.5770
38164SOL    HW217991   0.037   8.027   1.681  0.9829  1.1561  0.3865
38165SOL     OW17992   6.001   2.179   4.215 -0.2065 -1.1306 -0.1824
38165SOL    HW117993   6.008   2.213   4.126 -2.3967 -0.6563 -0.2157
38165SOL    HW217994   6.046   2.245   4.269  1.1075 -1.4110 -0.9040
38166SOL     OW17995   9.834   9.098   7.639 -0.2917 -0.3987 -0.3634
38166SOL    HW117996   9.893   9.022   7.645  0.3308  0.0989 -0.0656
38166SOL    HW217997   9.812   9.118   7.730 -0.5565 -0.3005 -0.4501
38167SOL     OW17998   0.504  10.264   1.592 -0.8818  0.4218 -0.1960
38167SOL    HW117999   0.472  10.354   1.601 -2.2000  0.0602 -0.8654
38167SOL    HW218000   0.430  10.216   1.554 -0.9337 -1.4100  1.9966
38168SOL     OW18001   3.453   3.272   4.066 -0.2462 -0.4091  0.2642
38168SOL    HW118002   3.508   3.263   4.144 -1.4871 -0.9309  1.1125
38168SOL    HW218003   3.490   3.210   4.004  1.7575  1.1381 -0.2175
38169SOL     OW18004   8.037  10.676   6.154 -0.1996  0.2834  0.1931
38169SOL    HW118005   8.049  10.684   6.060  0.0759  0.7683  0.2647
38169SOL    HW218006   7.975  10.745   6.177  2.8841  3.0830  0.9507
38170SOL     OW18007   1.356   2.179   7.027 -0.2836 -0.0854  0.4108
38170SOL    HW118008   1.431   2.163   6.970 -0.0667 -0.2096  0.7300
38170SOL    HW218009   1.388   2.239   7.093 -1.4287  2.8871 -1.5260
38171SOL     OW18010   0.655   3.622   6.899  0.3534  0.3526 -0.3743
38171SOL    HW118011   0.607   3.676   6.962 -0.5954 -0.9129  0.0293
38171SOL    HW218012   0.608   3.539   6.898  1.1132 -0.0926 -1.8206
38172SOL     OW18013   3.179   9.406   9.944 -0.2018 -0.4276 -0.4362
38172SOL    HW118014   3.129   9.329   9.972  0.5500 -1.3583 -1.5616
38172SOL    HW218015   3.205   9.448  10.026 -2.4192 -0.1592  0.1826
38173SOL     OW18016   6.838   9.429   2.098 -0.3670  0.0972  0.2128
38173SOL    HW118017   6.868   9.367   2.031  0.8157  0.4472  0.3838
38173SOL    HW218018   6.840   9.514   2.055 -0.1289  0.2540  0.5286
38174SOL     OW18019   4.520   6.943   2.477 -0.2623 -0.1239  0.6138
38174SOL    HW118020   4.430   6.931   2.447 -0.1541 -1.5424  0.8092
38174SOL    HW218021   4.511   6.985   2.563 -0.6840  0.7557  0.1489
38175SOL     OW18022   0.999   0.775   2.811 -0.5193 -0.2441  1.1411
38175SOL    HW118023   0.926   0.759   2.752 -1.7159  0.0029  2.5036
38175SOL    HW218024   1.071   0.723   2.775 -1.2925 -0.3392 -0.3392
38176SOL     OW18025   0.741   9.620   1.326 -0.1273  0.3315 -0.0775
38176SOL    HW118026   0.649   9.633   1.300 -0.0362  1.7518  0.2251
38176SOL    HW218027   0.736   9.579   1.412 -0.4862  0.6303  0.0471
38177SOL     OW18028  10.077   4.306   7.165  0.1726 -0.0249  0.0815
38177SOL    HW118029  10.066   4.211   7.168 -1.5762  0.1377 -0.2184
38177SOL    HW218030   9.988   4.341   7.168  0.6326  1.5410 -2.0878
38178SOL     OW18031   3.533  10.356   5.024  0.0573  0.1167 -0.2199
38178SOL    HW118032   3.476  10.278   5.024 -1.2264  1.0196 -1.3209
38178SOL    HW218033   3.600  10.335   5.090  0.9222 -2.7300 -1.8212
38179SOL     OW18034   7.506   8.549   4.897  0.3186  0.2696 -0.2685
38179SOL    HW118035   7.441   8.486   4.866  0.2327  0.0040  0.4382
38179SOL    HW218036   7.589   8.502   4.893  0.0205 -0.5874  2.0771
38180SOL     OW18037   4.395   7.295  10.308 -0.6927  0.3357  0.3965
38180SOL    HW118038   4.388   7.227  10.242  4.1101  0.5602 -0.7299
38180SOL    HW218039   4.468   7.267  10.363 -0.2865  3.2688  1.5397
38181SOL     OW18040  10.624   9.867   7.193 -0.0599 -0.1891  0.0962
38181SOL    HW118041  10.529   9.874   7.184  0.0594  0.3585 -0.8583
38181SOL    HW218042  10.645   9.781   7.156 -0.1478 -0.1930  0.0547
38182SOL     OW18043   4.147   8.765   2.692 -0.1844 -0.3190 -0.5889
38182SOL    HW118044   4.222   8.708   2.710 -0.1199 -0.0220  0.0871
38182SOL    HW218045   4.182   8.853   2.699 -0.7557 -0.1659  0.4450
38183SOL     OW18046   1.182   8.499   2.283  0.6336  0.0361 -0.2408
38183SOL    HW118047   1.110   8.562   2.280  0.4439 -0.1958 -0.7961
38183SOL    HW218048   1.161   8.436   2.214  1.2971 -0.1142 -0.3139
38184SOL     OW18049   3.637   6.768   0.424 -0.4044 -0.0327  0.4758
38184SOL    HW118050   3.644   6.724   0.509  3.0243  0.2663  0.4799
38184SOL    HW218051   3.681   6.852   0.437 -2.5459  1.3726 -0.8435
38185SOL     OW18052   9.918   5.757   4.537  0.2860  0.4895 -0.4473
38185SOL    HW118053   9.906   5.782   4.445  1.4698  0.5348 -0.6113
38185SOL    HW218054   9.926   5.662   4.535  2.0145  0.6059 -0.6370
38186SOL     OW18055   5.479   0.339   5.660  0.3410  0.1068  0.2627
38186SOL    HW118056   5.477   0.344   5.565 -0.4325  1.8426  0.3293
38186SOL    HW218057   5.406   0.395   5.689  1.8838  1.4034  1.8916
38187SOL     OW18058   9.686   7.975   2.343 -0.1716  0.4210 -0.4618
38187SOL    HW118059   9.730   7.919   2.279 -1.4493 -1.4178  0.1734
38187SOL    HW218060   9.620   8.021   2.293 -0.9427 -0.7608 -0.5795
38188SOL     OW18061   0.698   5.002   9.784  0.3593  0.1280  0.2680
38188SOL    HW118062   0.649   4.947   9.845  0.2523 -0.9744 -0.7664
38188SOL    HW218063   0.790   4.975   9.795  0.2772 -0.4647 -0.4227
38189SOL     OW18064   9.019   0.076   9.668 -0.2549 -0.0624  0.2346
38189SOL    HW118065   8.988   0.057   9.579  0.6175 -0.2385 -0.0480
38189SOL    HW218066   8.972   0.155   9.693  0.9855  1.1939 -1.2011
38190SOL     OW18067   7.592   6.997   3.726 -0.1966  0.4835  0.9908
38190SOL    HW118068   7.518   7.015   3.784 -0.6350  0.2249  0.5171
38190SOL    HW218069   7.665   7.045   3.765 -0.2971 -0.2914  2.1829
38191SOL     OW18070   7.116   1.048   8.669  0.0057 -0.6199 -0.1575
38191SOL    HW118071   7.043   1.048   8.731 -1.1992 -0.5398 -1.5239
38191SOL    HW218072   7.149   0.958   8.671  0.1975 -0.5374  0.8144
38192SOL     OW18073   4.922   1.271   3.521 -0.4723  0.6106 -0.0851
38192SOL    HW118074   4.931   1.286   3.426 -1.5572  1.9973  0.0017
38192SOL    HW218075   4.999   1.311   3.559 -1.1894  2.1829 -0.2233
38193SOL     OW18076   0.961   5.969  10.365  0.0113  0.6713  0.4448
38193SOL    HW118077   0.893   5.929  10.418 -0.0106  0.8846  0.5750
38193SOL    HW218078   1.035   5.981  10.425  0.3898 -0.1289  0.1636
38194SOL     OW18079   8.978   5.124   9.955  0.3853 -0.2200  0.5080
38194SOL    HW118080   9.067   5.119   9.988  0.4168  1.5071  0.7741
38194SOL    HW218081   8.933   5.050   9.996  1.3590 -0.3238  1.4253
38195SOL     OW18082   4.948   4.965   2.951  0.4485 -0.1931  0.8836
38195SOL    HW118083   4.919   5.015   3.027 -0.6195 -0.3109  0.5640
38195SOL    HW218084   4.903   5.004   2.877  0.8358 -0.6127  0.4197
38196SOL     OW18085  10.321   1.840   0.092 -0.3004  0.3633  0.3069
38196SOL    HW118086  10.244   1.893   0.071 -0.2693 -0.2094 -1.4369
38196SOL    HW218087  10.383   1.901   0.132 -1.7103  0.7909  1.9827
38197SOL     OW18088   2.806   4.862   7.066 -0.0079 -0.3934 -0.2444
38197SOL    HW118089   2.777   4.904   7.148 -1.1258  0.7785 -1.2013
38197SOL    HW218090   2.882   4.913   7.039  0.1775 -0.5891 -0.0918
38198SOL     OW18091  10.256   0.768   4.544  0.3817 -0.6159  0.3341
38198SOL    HW118092  10.348   0.756   4.568  0.3423 -0.8317  0.3797
38198SOL    HW218093  10.230   0.847   4.590  1.1343  0.6667 -1.3450
38199SOL     OW18094   6.026   7.109   5.016  0.1487  0.6503 -0.4931
38199SOL    HW118095   5.931   7.101   5.025 -0.0108  1.4129 -1.4177
38199SOL    HW218096   6.054   7.025   4.980 -0.0488  0.0829  0.6407
38200SOL     OW18097   3.034   6.927   0.546 -0.1621 -0.1218 -0.3132
38200SOL    HW118098   2.951   6.964   0.514 -1.2512  0.3601  2.7069
38200SOL    HW218099   3.043   6.962   0.634  1.6960 -2.6436  0.6198
38201SOL     OW18100   4.156   8.465   9.515 -0.2967 -0.3493 -0.0604
38201SOL    HW118101   4.234   8.419   9.547  0.3921  0.5198 -0.4729
38201SOL    HW218102   4.189   8.541   9.468 -1.4086  0.3064  0.1679
38202SOL     OW18103  10.163   3.320   8.267 -0.1991 -0.1190 -0.1408
38202SOL    HW118104  10.192   3.231   8.252 -0.2746 -0.0106 -0.9648
38202SOL    HW218105  10.083   3.311   8.319  0.5066 -0.4681  0.9122
38203SOL     OW18106   0.908   1.634   7.320  0.1988  0.3392  0.3663
38203SOL    HW118107   0.905   1.539   7.317 -0.7639  0.3744 -0.1812
38203SOL    HW218108   0.837   1.663   7.263  1.6648  1.4217 -0.9914
38204SOL     OW18109   9.176   3.124   1.830  0.7453 -0.3775 -0.1861
38204SOL    HW118110   9.186   3.123   1.925  2.3381  0.7843 -0.2915
38204SOL    HW218111   9.081   3.126   1.816  0.4840 -0.1865  1.3774
38205SOL     OW18112   7.477   9.429   9.582  0.4564  0.2637 -0.8876
38205SOL    HW118113   7.400   9.394   9.626 -0.2760  2.0882 -0.6329
38205SOL    HW218114   7.548   9.419   9.645  0.0228  0.3099 -0.3879
38206SOL     OW18115   7.885  10.212   5.026  0.0747 -0.5098 -0.6663
38206SOL    HW118116   7.875  10.300   4.991  1.5184  0.7503  1.7941
38206SOL    HW218117   7.812  10.203   5.089  0.4162 -0.7379 -0.2976
38207SOL     OW18118   0.991   5.488   8.201  0.1845  0.4793  0.1011
38207SOL    HW118119   1.078   5.472   8.238 -0.5195  0.4049  1.8059
38207SOL    HW218120   0.963   5.570   8.241 -1.5070 -0.7257  1.5201
38208SOL     OW18121   6.189   1.689  10.420  0.0835  0.4749  0.0166
38208SOL    HW118122   6.097   1.712  10.410  0.0444  0.6629  0.7293
38208SOL    HW218123   6.209   1.707  10.512  1.1179  1.4609 -0.3782
38209SOL     OW18124   9.872   3.705   5.012  0.0008 -0.4266 -0.1596
38209SOL    HW118125   9.786   3.742   5.033 -0.4444 -0.5678 -1.6118
38209SOL    HW218126   9.935   3.766   5.052 -0.7535  0.6090 -0.5060
38210SOL     OW18127   2.980   3.515  10.807  0.2047 -0.3900  0.0854
38210SOL    HW118128   2.892   3.490  10.779  0.7090 -1.2938 -0.7930
38210SOL    HW218129   2.986   3.608  10.787 -0.6956 -0.2170  0.5690
38211SOL     OW18130   6.037   2.816   0.508  0.5174  0.0561  0.5468
38211SOL    HW118131   6.073   2.741   0.460  2.5935  1.1915  0.2223
38211SOL    HW218132   6.111   2.876   0.518 -1.6132  3.3669 -1.6698
38212SOL     OW18133   4.958   9.965   7.080 -0.1468 -0.1809  0.1227
38212SOL    HW118134   4.872   9.974   7.122  0.1366  0.8316  0.5059
38212SOL    HW218135   4.939   9.920   6.997 -1.5067  2.5329 -1.1720
38213SOL     OW18136   0.201  10.171   2.062  0.1607 -0.0516  0.1053
38213SOL    HW118137   0.285  10.169   2.016 -1.3919  0.0715 -2.9787
38213SOL    HW218138   0.183  10.264   2.076 -0.8001  0.1666 -2.1141
38214SOL     OW18139   2.632   1.903   2.750 -0.0641  0.3191  0.4041
38214SOL    HW118140   2.666   1.989   2.727 -0.3291  0.6274  1.1400
38214SOL    HW218141   2.575   1.919   2.825 -1.1893 -0.2972 -0.2892
38215SOL     OW18142   5.464   2.455   6.144  0.0253 -0.4049  0.7152
38215SOL    HW118143   5.498   2.540   6.174 -2.1317  0.8565 -0.2067
38215SOL    HW218144   5.435   2.412   6.225  0.8990 -0.1554  1.1715
38216SOL     OW18145   1.573   3.156   9.209 -0.0124 -0.1035 -0.1724
38216SOL    HW118146   1.608   3.092   9.270 -0.5776 -0.3254 -0.0742
38216SOL    HW218147   1.597   3.241   9.247  0.5955 -0.2468 -0.2220
38217SOL     OW18148   6.052   5.587   4.191 -0.0166  0.4265  0.2394
38217SOL    HW118149   6.053   5.663   4.133  1.0450 -0.5336 -1.0551
38217SOL    HW218150   6.000   5.615   4.266 -2.1212  1.4557 -1.4991
38218SOL     OW18151   5.592   3.461  10.538 -0.3557 -0.1945  0.2861
38218SOL    HW118152   5.579   3.556  10.531  2.0591  0.1061 -3.2039
38218SOL    HW218153   5.683   3.452  10.568  0.5914 -1.1693 -2.5209
38219SOL     OW18154   6.987   9.474   2.536 -0.1840 -0.5042  0.1916
38219SOL    HW118155   7.003   9.425   2.455  1.0528 -0.7674  0.5765
38219SOL    HW218156   7.020   9.562   2.517  0.7885 -0.7602  0.6333
38220SOL     OW18157   4.070   0.371  10.448  0.1622 -0.2424  0.0507
38220SOL    HW118158   4.158   0.339  10.467  0.0742  0.3390  1.5752
38220SOL    HW218159   4.084   0.445  10.389  0.6548 -0.4399 -0.0900
38221SOL     OW18160   6.559   6.866   3.028 -0.0344 -0.4821  0.6915
38221SOL    HW118161   6.652   6.885   3.016 -0.0478 -0.5795  0.4343
38221SOL    HW218162   6.548   6.777   2.993 -0.5768  0.2034 -0.9563
38222SOL     OW18163   9.099   6.696   0.866 -0.1447 -0.0503  0.6408
38222SOL    HW118164   9.050   6.742   0.798  0.1829  1.9166  1.6381
38222SOL    HW218165   9.032   6.667   0.929 -0.3937 -1.3691 -0.2061
38223SOL     OW18166   6.828   0.973   2.814 -0.6027  0.0168 -0.1225
38223SOL    HW118167   6.765   0.976   2.886 -0.0904 -0.8380  0.3878
38223SOL    HW218168   6.785   0.919   2.747 -0.1321 -1.2298  0.5414
38224SOL     OW18169   2.086   3.618   5.281 -0.3847 -0.2400  0.2287
38224SOL    HW118170   2.105   3.677   5.354  1.7123 -1.3208  0.6491
38224SOL    HW218171   2.168   3.571   5.267 -1.1981 -1.1699 -1.8321
38225SOL     OW18172   0.878   9.319   6.480 -0.0890 -0.6453 -0.1770
38225SOL    HW118173   0.941   9.328   6.551  0.0665 -0.4018 -0.3437
38225SOL    HW218174   0.797   9.292   6.523  0.1802 -1.1642  0.0145
38226SOL     OW18175   6.830   8.727   4.657  0.3732 -0.5310 -0.0483
38226SOL    HW118176   6.880   8.646   4.655  1.5852  0.1683  0.5969
38226SOL    HW218177   6.747   8.703   4.699  0.8488 -1.3695  0.4355
38227SOL     OW18178   0.828   8.417   6.943  0.1196  0.3090  0.3354
38227SOL    HW118179   0.827   8.373   7.028  0.2238 -0.9075 -0.2674
38227SOL    HW218180   0.910   8.466   6.942  0.4766 -0.2671  0.6560
38228SOL     OW18181   5.222   9.472   5.871  0.6835 -0.4390 -0.7410
38228SOL    HW118182   5.287   9.500   5.935 -2.6250 -0.3466  2.9722
38228SOL    HW218183   5.181   9.554   5.842 -0.7202 -0.6605  0.5057
38229SOL     OW18184   6.186  10.867   3.470 -0.0226 -0.1445 -0.6554
38229SOL    HW118185   6.178  10.962   3.458  0.8099 -0.0218 -0.3149
38229SOL    HW218186   6.146  10.830   3.391  0.4411  0.5201 -1.2197
38230SOL     OW18187  10.986   1.032   8.289  0.3005 -0.0817 -0.5413
38230SOL    HW118188  11.058   1.092   8.310  1.6966 -1.2804 -1.6754
38230SOL    HW218189  10.928   1.082   8.233  1.0502  0.4536 -0.8495
38231SOL     OW18190   7.692   6.426   1.516 -0.1576  0.9349 -0.3273
38231SOL    HW118191   7.671   6.480   1.592  0.4324 -0.8671  1.1961
38231SOL    HW218192   7.617   6.367   1.508  0.3763  0.2414 -0.3064
38232SOL     OW18193   3.866   8.017   9.231  0.2655 -0.0623  0.4019
38232SOL    HW118194   3.798   8.062   9.181 -0.8218  0.0592  1.9006
38232SOL    HW218195   3.819   7.979   9.305  1.3585 -2.6236 -0.1337
38233SOL     OW18196   5.415   8.570   3.398 -0.2554  0.5817 -0.8856
38233SOL    HW118197   5.375   8.629   3.335  0.6151  1.0922 -0.9748
38233SOL    HW218198   5.341   8.533   3.447 -0.8143  1.8041 -0.7736
38234SOL     OW18199   4.615   2.138   2.628 -0.0922 -0.6493 -0.5192
38234SOL    HW118200   4.648   2.195   2.698  0.6626  0.9261 -2.0838
38234SOL    HW218201   4.691   2.085   2.603 -0.0050 -0.3071 -0.9897
38235SOL     OW18202   5.165   5.492  10.548  0.3599  0.2230 -0.8792
38235SOL    HW118203   5.102   5.451  10.607  0.0501  0.8079 -0.7971
38235SOL    HW218204   5.248   5.446  10.566 -0.0808 -0.6934 -1.1399
38236SOL     OW18205   1.640   2.289   1.829  0.0510  0.4685  0.0379
38236SOL    HW118206   1.649   2.264   1.737  0.3953  0.7716 -0.0126
38236SOL    HW218207   1.624   2.383   1.827  0.2020  0.5010  0.2959
38237SOL     OW18208   8.861   1.646   1.936  1.0362  0.1368  0.4904
38237SOL    HW118209   8.956   1.639   1.930  0.9895  0.5792 -0.9552
38237SOL    HW218210   8.828   1.577   1.878  0.4145 -1.5735  2.7145
38238SOL     OW18211   5.008   9.411   3.553  0.0764  0.1720 -0.0355
38238SOL    HW118212   5.042   9.379   3.636 -1.5280 -0.6177  0.3655
38238SOL    HW218213   4.943   9.477   3.579  1.1234  1.5391 -0.7592
38239SOL     OW18214   0.010   2.641   1.661 -0.3442 -0.2646  0.4055
38239SOL    HW118215   0.039   2.558   1.623  1.0300  0.2331  0.3249
38239SOL    HW218216   0.079   2.703   1.639 -1.4676  0.9760  0.2541
38240SOL     OW18217   5.961   2.597   7.708 -0.1355  0.6613  0.4443
38240SOL    HW118218   5.913   2.679   7.706 -0.1954  0.6822  1.8146
38240SOL    HW218219   6.053   2.623   7.699 -0.3064  0.6587 -1.6628
38241SOL     OW18220   7.330   5.963  10.650  0.3027 -0.3663  0.0183
38241SOL    HW118221   7.419   5.951  10.617 -0.1746 -1.2046 -1.0147
38241SOL    HW218222   7.282   6.003  10.577 -0.2328 -0.1453  0.4801
38242SOL     OW18223   6.018   7.090   3.382 -0.4559 -0.7554  0.2796
38242SOL    HW118224   5.947   7.115   3.441 -0.6751  1.0321 -0.6737
38242SOL    HW218225   5.981   7.022   3.326 -1.8521  0.9418 -0.9567
38243SOL     OW18226   0.922   1.068   6.832  0.2346  0.1520 -0.3003
38243SOL    HW118227   0.924   1.035   6.922  0.6003 -0.5979 -0.5784
38243SOL    HW218228   0.997   1.127   6.827  1.3224 -1.1955 -0.6174
38244SOL     OW18229   6.623   1.293   2.602 -0.3252 -0.9874  0.3631
38244SOL    HW118230   6.646   1.342   2.681  1.3844 -1.9236  0.4861
38244SOL    HW218231   6.582   1.213   2.634 -0.3779 -0.9971  0.2729
38245SOL     OW18232   6.912   3.635   0.257  0.2337  0.3196  0.9189
38245SOL    HW118233   6.902   3.660   0.165 -1.3358  1.3232  1.3285
38245SOL    HW218234   6.949   3.547   0.254 -1.5096 -0.4328 -0.7295
38246SOL     OW18235   6.585   4.158   4.911  0.5476  0.1722 -0.0054
38246SOL    HW118236   6.649   4.091   4.937 -0.9973 -0.1946  3.4315
38246SOL    HW218237   6.507   4.109   4.886  0.5844  0.6681 -1.1530
38247SOL     OW18238   7.775   7.075   3.473 -0.3024  0.0792  0.3060
38247SOL    HW118239   7.794   7.091   3.566  2.1415 -0.1276 -0.0947
38247SOL    HW218240   7.759   6.980   3.469 -0.0902  0.0355  0.4645
38248SOL     OW18241   7.685   1.013   9.453  0.2285  0.2455 -0.2379
38248SOL    HW118242   7.616   1.073   9.482 -0.2827 -0.4451  0.0216
38248SOL    HW218243   7.756   1.026   9.516  0.6984  1.5923 -1.0170
38249SOL     OW18244   0.931   4.437   1.043 -0.0543 -0.3894  0.4862
38249SOL    HW118245   0.915   4.446   1.136 -1.6248  0.3086  0.1789
38249SOL    HW218246   1.024   4.416   1.036  0.7505  2.2985  2.0527
38250SOL     OW18247   6.385   8.746   2.687  0.2541 -0.0774  0.6538
38250SOL    HW118248   6.331   8.672   2.657  0.1185  0.4862 -0.5522
38250SOL    HW218249   6.420   8.717   2.771 -0.4728 -1.1808  0.6029
38251SOL     OW18250   6.335   6.271   2.934 -0.4405 -0.1982 -0.4239
38251SOL    HW118251   6.409   6.240   2.882  1.7192  2.3226  0.9513
38251SOL    HW218252   6.356   6.246   3.023  0.6148  3.4325  0.5135
38252SOL     OW18253   3.696   4.394   8.235 -0.2152  0.1032  0.3950
38252SOL    HW118254   3.714   4.449   8.158 -1.0537  1.5675  1.1892
38252SOL    HW218255   3.659   4.455   8.299 -0.6569 -1.3174  1.5363
38253SOL     OW18256   8.266   7.668   0.368 -0.1913  0.2314 -0.3331
38253SOL    HW118257   8.355   7.666   0.403 -0.1930  1.6992 -0.1630
38253SOL    HW218258   8.227   7.746   0.407 -0.4770  1.4573 -2.8850
38254SOL     OW18259   5.718   9.004   1.666  0.4609 -0.6110  0.5856
38254SOL    HW118260   5.699   9.076   1.607  1.1704  0.2585  1.3809
38254SOL    HW218261   5.718   9.043   1.753  0.0798 -1.7329  1.1076
38255SOL     OW18262   3.512   9.006   5.692  0.4687  0.7944  0.2099
38255SOL    HW118263   3.591   8.964   5.727  0.2124 -0.1716 -0.3420
38255SOL    HW218264   3.446   8.993   5.760 -0.0298 -1.0828 -0.5884
38256SOL     OW18265   5.954   0.324   3.231  0.2598 -0.1146  0.0632
38256SOL    HW118266   5.941   0.281   3.146  1.0626 -2.0657  0.8826
38256SOL    HW218267   5.866   0.340   3.263 -0.0601 -0.4551 -0.6114
38257SOL     OW18268   6.482   2.876  10.940  0.4954 -0.3877  0.1365
38257SOL    HW118269   6.466   2.783  10.931  1.1055 -0.3901 -1.2984
38257SOL    HW218270   6.559   2.893  10.884 -0.5876  1.2223 -0.9667
38258SOL     OW18271  10.723   5.578   1.257 -0.0277  1.0209 -0.0512
38258SOL    HW118272  10.654   5.584   1.191  1.2504 -1.1199 -1.7193
38258SOL    HW218273  10.789   5.641   1.228 -0.0143  0.9869 -0.0938
38259SOL     OW18274   3.805   1.270   4.051 -0.5479  0.4308 -0.1787
38259SOL    HW118275   3.829   1.218   3.975  2.8329  1.2081  0.2081
38259SOL    HW218276   3.741   1.333   4.017 -3.8346 -2.9436 -0.8966
38260SOL     OW18277   8.689   5.588   7.344 -0.0916  0.0171  0.2859
38260SOL    HW118278   8.659   5.647   7.275  3.3802  0.0019 -1.4516
38260SOL    HW218279   8.693   5.502   7.302  1.4052 -0.1342  0.6752
38261SOL     OW18280   8.823   6.641   8.767  0.7951 -0.1626 -0.1893
38261SOL    HW118281   8.848   6.678   8.851 -0.5337 -0.6719  0.4598
38261SOL    HW218282   8.830   6.714   8.706 -2.5639  1.5386  1.1970
38262SOL     OW18283  10.924   1.641   9.672  0.0940  0.4665  0.1216
38262SOL    HW118284  10.876   1.636   9.590  1.9599 -1.2432 -0.9707
38262SOL    HW218285  10.857   1.647   9.740 -1.6156 -1.0925 -1.3471
38263SOL     OW18286   5.788   5.701  10.642 -0.0510 -0.2797 -0.6770
38263SOL    HW118287   5.694   5.713  10.649  0.1217  0.5450  0.5260
38263SOL    HW218288   5.799   5.606  10.629 -0.9609 -0.9781  2.5097
38264SOL     OW18289   5.979   1.125   0.703  0.3104 -0.6890 -0.5895
38264SOL    HW118290   5.982   1.177   0.783 -0.7217 -0.8983 -0.4049
38264SOL    HW218291   5.943   1.184   0.637  2.6712  0.0154 -1.3535
38265SOL     OW18292   8.716   0.896   7.915 -0.4855 -0.0194 -0.5641
38265SOL    HW118293   8.652   0.834   7.951 -0.2335  0.3121  0.5197
38265SOL    HW218294   8.766   0.924   7.992  0.2781  0.5080 -1.2479
38266SOL     OW18295   8.654   5.221   0.800 -0.2233  0.2936  0.4390
38266SOL    HW118296   8.690   5.215   0.712  0.6985 -1.8525  0.8982
38266SOL    HW218297   8.565   5.186   0.792  0.9069 -3.0079  0.8182
38267SOL     OW18298   5.420   6.586   7.785  0.3524 -0.2121  0.3831
38267SOL    HW118299   5.445   6.495   7.774  0.7098 -0.0642 -0.0595
38267SOL    HW218300   5.465   6.633   7.715 -0.9821  0.1004 -0.3090
38268SOL     OW18301   7.380   4.874  10.974  0.0462  0.3979  0.3135
38268SOL    HW118302   7.298   4.873  10.924  0.8279 -1.3403 -1.0375
38268SOL    HW218303   7.401   4.782  10.987  2.1634  0.7814 -0.0339
38269SOL     OW18304   9.939   5.399   4.262  0.1712 -0.2163 -0.3325
38269SOL    HW118305   9.971   5.449   4.187 -2.0229  1.7825 -0.0588
38269SOL    HW218306   9.931   5.310   4.229  2.4348 -0.0927 -1.4183
38270SOL     OW18307   1.489   8.678   9.697 -0.0481 -0.2423 -0.1198
38270SOL    HW118308   1.525   8.643   9.615  0.2725  0.6748 -0.3879
38270SOL    HW218309   1.534   8.630   9.766  0.1600 -0.5647 -0.4817
38271SOL     OW18310   9.976   4.372   6.320  0.1532  0.0259  0.1925
38271SOL    HW118311   9.934   4.294   6.357  0.8320  0.1958  1.3616
38271SOL    HW218312  10.000   4.346   6.230  0.3741 -1.1237  0.5663
38272SOL     OW18313   5.919   9.697   2.592 -0.0085  0.3686  0.9461
38272SOL    HW118314   5.925   9.791   2.611 -1.4359  0.2923  1.9876
38272SOL    HW218315   5.919   9.656   2.679 -0.6503 -0.4930  0.5493
38273SOL     OW18316   8.386   6.392   4.344  0.3904 -0.1467 -0.6797
38273SOL    HW118317   8.353   6.342   4.270  2.3119 -0.8122 -1.1351
38273SOL    HW218318   8.357   6.482   4.328  0.1575 -0.4220 -1.8536
38274SOL     OW18319   1.323   8.461   8.684 -0.4288  0.2144 -0.2081
38274SOL    HW118320   1.333   8.437   8.776  0.1843  0.1602 -0.2884
38274SOL    HW218321   1.261   8.397   8.649  3.0113 -2.9762 -1.0465
38275SOL     OW18322   0.053   6.579   5.566  0.1417 -0.0528  0.3682
38275SOL    HW118323   0.018   6.535   5.644 -0.3622  0.4969  0.4577
38275SOL    HW218324  -0.020   6.578   5.504  0.2273  0.3904  0.2621
38276SOL     OW18325   1.647   2.870   1.152  0.2622  0.2729  0.1938
38276SOL    HW118326   1.737   2.902   1.148  0.8749 -1.1510  1.7229
38276SOL    HW218327   1.653   2.784   1.193 -1.9407  0.7763  1.7481
38277SOL     OW18328   4.813   4.145   4.362  0.8564  0.4492 -0.2218
38277SOL    HW118329   4.739   4.102   4.406 -0.9886  3.6599  0.1071
38277SOL    HW218330   4.880   4.151   4.429 -0.0950  0.9776  0.7170
38278SOL     OW18331  10.733   7.017   6.505  0.2609 -0.0429  0.2005
38278SOL    HW118332  10.768   6.941   6.459  0.3132 -0.9860  1.7234
38278SOL    HW218333  10.638   7.007   6.501  0.1946 -2.2706  3.4786
38279SOL     OW18334   0.401   0.818   1.357  0.2182 -0.4933  0.3258
38279SOL    HW118335   0.454   0.753   1.404  0.0325 -0.5892  0.4043
38279SOL    HW218336   0.350   0.766   1.295 -1.2984 -0.6397  1.6493
38280SOL     OW18337   0.147   8.937   8.708  0.5896  0.1138  0.3845
38280SOL    HW118338   0.179   9.004   8.647 -0.4039  0.9762  0.7798
38280SOL    HW218339   0.179   8.855   8.672  0.1049  0.5988 -1.2596
38281SOL     OW18340   9.592   4.355   5.399 -0.1431 -0.2856  0.2823
38281SOL    HW118341   9.570   4.311   5.482 -0.4991 -0.3066  0.1744
38281SOL    HW218342   9.515   4.344   5.344 -0.4702  1.0211  0.4689
38282SOL     OW18343   2.060   6.224  10.161  0.3880 -0.3120  0.2062
38282SOL    HW118344   2.036   6.135  10.136  0.3370 -0.7112  1.5769
38282SOL    HW218345   2.058   6.273  10.080 -0.5702 -1.3428 -0.4206
38283SOL     OW18346   7.406   0.360   2.678 -0.4175  0.4457  0.4588
38283SOL    HW118347   7.436   0.316   2.758 -0.1369 -0.6295 -0.2129
38283SOL    HW218348   7.316   0.386   2.698 -1.0947 -1.6556  0.4566
38284SOL     OW18349   2.550  10.115   8.180  0.2112 -0.5084 -0.4029
38284SOL    HW118350   2.517  10.112   8.090  0.0616 -0.5245 -0.3481
38284SOL    HW218351   2.605  10.037   8.189 -1.4869 -1.6877  0.1799
38285SOL     OW18352   4.827   8.674   3.533  0.0005  0.1959 -0.6390
38285SOL    HW118353   4.833   8.733   3.458  1.3535 -0.4466 -1.0520
38285SOL    HW218354   4.771   8.603   3.503  0.3835  0.0364 -0.9788
38286SOL     OW18355   7.346   7.707   9.052  0.0540  0.4284  0.4087
38286SOL    HW118356   7.328   7.709   8.958  0.3510 -0.5955  0.3146
38286SOL    HW218357   7.441   7.702   9.058  0.0961  1.5473  0.8000
38287SOL     OW18358  10.160   4.697   8.511 -0.6401 -0.1702  0.1508
38287SOL    HW118359  10.214   4.675   8.435  1.2799 -0.1917  1.4604
38287SOL    HW218360  10.088   4.635   8.509 -0.1029 -0.7784 -1.1263
38288SOL     OW18361   6.534   9.369   1.862 -0.3839 -0.0803 -0.6670
38288SOL    HW118362   6.460   9.381   1.803  0.6704  0.7716 -1.8747
38288SOL    HW218363   6.606   9.345   1.804  0.8107  1.2540  0.2062
38289SOL     OW18364   4.415   3.253   4.722 -0.0823 -0.5129  0.1607
38289SOL    HW118365   4.394   3.163   4.746  0.4812 -0.5993  0.3588
38289SOL    HW218366   4.459   3.245   4.637 -0.2419 -0.4015  0.0674
38290SOL     OW18367   2.864  10.299   5.293  0.4639  0.1768  0.2395
38290SOL    HW118368   2.871  10.345   5.377 -0.4656  0.9894 -0.1157
38290SOL    HW218369   2.955  10.293   5.262  0.6243  1.7463  0.3229
38291SOL     OW18370   9.307   9.446   8.190  0.0536 -0.6066 -0.1897
38291SOL    HW118371   9.218   9.479   8.180 -0.2817 -0.8381  1.6879
38291SOL    HW218372   9.299   9.351   8.177  0.0281 -0.6274 -0.0237
38292SOL     OW18373   9.917   9.566  10.916  0.0947  0.2776 -0.2007
38292SOL    HW118374   9.869   9.492  10.953  0.2654  0.7973  1.0899
38292SOL    HW218375   9.853   9.636  10.910  0.6835  1.0648  1.7979
38293SOL     OW18376   0.585   4.721   3.574  0.0965  0.1092  0.2708
38293SOL    HW118377   0.670   4.676   3.572  0.0547  0.0435 -1.7549
38293SOL    HW218378   0.586   4.776   3.496 -2.1764 -0.7386 -0.4221
38294SOL     OW18379   3.832   2.520   1.149 -0.0747 -0.0008 -0.3972
38294SOL    HW118380   3.794   2.539   1.235 -0.2643  2.3099 -0.9392
38294SOL    HW218381   3.855   2.605   1.113 -1.1616 -0.7750 -3.1754
38295SOL     OW18382   7.284   4.701   0.380  0.2185 -0.2394  0.2796
38295SOL    HW118383   7.279   4.782   0.329 -4.4550 -0.2881  0.2253
38295SOL    HW218384   7.288   4.730   0.471  1.2403 -0.0354  0.1789
38296SOL     OW18385   3.468   0.069   3.643  0.6647 -0.2012 -0.1264
38296SOL    HW118386   3.461   0.092   3.550  1.1887 -1.0131 -0.3756
38296SOL    HW218387   3.384   0.029   3.664  0.6145 -0.1928 -0.3053
38297SOL     OW18388   7.525  10.948   1.831 -0.3399 -0.1841 -0.0653
38297SOL    HW118389   7.563  10.861   1.845 -0.0019  0.0202  0.2737
38297SOL    HW218390   7.543  10.967   1.739  0.2194 -0.1630  0.0464
38298SOL     OW18391   0.976   5.177   2.432  0.0959  0.1676  0.2446
38298SOL    HW118392   1.038   5.238   2.473  0.9050 -1.2279  1.1892
38298SOL    HW218393   1.031   5.111   2.391 -0.7362 -1.0007  0.9404
38299SOL     OW18394   7.819   8.582   4.449  0.0747  0.0642  0.0703
38299SOL    HW118395   7.765   8.655   4.418 -0.3926 -0.1390  0.4006
38299SOL    HW218396   7.783   8.505   4.405 -2.0171 -0.5861  2.7033
38300SOL     OW18397   0.236   5.204   0.075 -0.4191  0.4841 -0.3182
38300SOL    HW118398   0.322   5.204   0.117 -1.4216  1.7571  1.9622
38300SOL    HW218399   0.242   5.272   0.008  0.2154  0.9059  0.1523
38301SOL     OW18400   8.786   3.281   2.962  0.1268 -0.2784  0.1181
38301SOL    HW118401   8.714   3.281   2.899 -0.2023 -0.8216  0.4990
38301SOL    HW218402   8.816   3.372   2.962 -1.0361  0.1191  0.5110
38302SOL     OW18403  10.211   5.219   5.181  0.1222 -0.2768 -0.0195
38302SOL    HW118404  10.180   5.212   5.271  0.8028 -1.3104  0.1490
38302SOL    HW218405  10.226   5.313   5.168 -0.0318 -0.1170  0.9188
38303SOL     OW18406   5.014   5.421   6.469  0.7229 -0.8646  0.0131
38303SOL    HW118407   4.952   5.484   6.507  2.2906  0.9929 -0.3689
38303SOL    HW218408   4.961   5.370   6.408 -0.6898 -0.1925  0.6279
38304SOL     OW18409   8.975   1.824   1.644  0.1854 -0.2543 -0.0761
38304SOL    HW118410   9.070   1.810   1.640  0.1769 -1.9429  2.7998
38304SOL    HW218411   8.966   1.913   1.680  0.6017  0.3631 -1.4297
38305SOL     OW18412   1.662   4.782   4.159 -0.4346 -0.5384  0.4083
38305SOL    HW118413   1.688   4.692   4.182  0.8780 -0.2931 -0.0381
38305SOL    HW218414   1.705   4.799   4.075 -2.2125 -0.1396 -0.4743
38306SOL     OW18415   2.883   2.705   3.563 -0.3506  0.5653 -0.5583
38306SOL    HW118416   2.827   2.775   3.529  0.6543  1.5983 -0.1510
38306SOL    HW218417   2.868   2.706   3.658 -2.1651 -1.4376 -0.7488
38307SOL     OW18418   8.756   4.919   0.103  0.5068 -0.5271  0.9349
38307SOL    HW118419   8.667   4.895   0.129  0.1710 -1.6542 -1.0393
38307SOL    HW218420   8.764   5.012   0.125 -1.4036 -0.2398  0.5586
38308SOL     OW18421   6.954   7.681   7.095 -0.1447  1.3970  0.0863
38308SOL    HW118422   7.045   7.670   7.067  0.2807 -0.6434  1.9302
38308SOL    HW218423   6.907   7.608   7.053 -0.7174  1.8081 -0.0059
38309SOL     OW18424   0.976   7.294   7.597  0.1542 -0.1745  0.3005
38309SOL    HW118425   0.982   7.223   7.533  3.4327 -0.5533  0.8542
38309SOL    HW218426   0.994   7.373   7.546 -0.2227 -0.1281  0.2404
38310SOL     OW18427   6.909   7.348   2.378 -0.1643  0.2400  0.1342
38310SOL    HW118428   6.968   7.275   2.361 -0.3060 -0.2731  1.6629
38310SOL    HW218429   6.828   7.307   2.411 -1.1467  0.9640 -1.2681
38311SOL     OW18430   7.500   1.396   6.607  0.2422  0.1655 -0.3243
38311SOL    HW118431   7.508   1.466   6.671  0.9844  0.4912 -0.7613
38311SOL    HW218432   7.579   1.344   6.618 -0.6186 -1.0335  0.4735
38312SOL     OW18433   5.807   4.365   5.077 -0.2625 -0.4322 -0.3149
38312SOL    HW118434   5.890   4.411   5.061  0.6119 -1.7839  0.1470
38312SOL    HW218435   5.741   4.434   5.075  0.8715  0.6964 -0.6435
38313SOL     OW18436   2.352   6.511   0.252 -0.2823 -0.2121 -0.5528
38313SOL    HW118437   2.358   6.419   0.277  1.9135 -0.3923 -1.5499
38313SOL    HW218438   2.390   6.559   0.326  0.6300 -0.2970 -0.9535
38314SOL     OW18439   1.006   0.859   5.885 -0.2438 -0.1990  0.1129
38314SOL    HW118440   0.918   0.821   5.895  0.1657 -1.4206 -0.7090
38314SOL    HW218441   1.009   0.929   5.950 -1.7117 -0.3504  0.3843
38315SOL     OW18442   8.933   0.074   5.422  0.0649  0.0038  0.0938
38315SOL    HW118443   8.915   0.167   5.407  2.2787  0.2706 -1.3912
38315SOL    HW218444   8.936   0.065   5.517 -3.3592  0.6994  0.4044
38316SOL     OW18445   1.122   4.715   1.351 -0.0570  0.1660  0.0823
38316SOL    HW118446   1.111   4.784   1.416  0.9147  2.1316 -1.6911
38316SOL    HW218447   1.040   4.667   1.352 -0.2313  0.3997  2.4011
38317SOL     OW18448   2.712   5.484   8.073 -0.2176 -0.7239 -0.3609
38317SOL    HW118449   2.628   5.443   8.055  0.4047 -1.4731 -1.7457
38317SOL    HW218450   2.766   5.464   7.996  1.4020 -0.7279  0.7198
38318SOL     OW18451   6.470   8.355   5.471  0.1598 -0.5747 -0.4273
38318SOL    HW118452   6.555   8.341   5.512 -0.3659  1.3036  1.4949
38318SOL    HW218453   6.452   8.273   5.425  1.2719 -2.4890  2.2953
38319SOL     OW18454   7.617   9.661   1.478  0.9152  0.4277 -0.3211
38319SOL    HW118455   7.539   9.631   1.431  0.7688  2.2678 -1.3407
38319SOL    HW218456   7.688   9.652   1.415  1.6006 -1.2700  0.6133
38320SOL     OW18457   9.997   2.339   0.507  0.2513 -0.3582  0.4266
38320SOL    HW118458  10.064   2.318   0.572  1.9072 -0.1300 -1.1335
38320SOL    HW218459   9.986   2.258   0.457 -0.1414 -0.1947  0.2458
38321SOL     OW18460   7.575   3.386   6.691  0.3605  0.1492 -0.3412
38321SOL    HW118461   7.594   3.478   6.675  1.7562 -0.1069 -0.3230
38321SOL    HW218462   7.583   3.376   6.786  0.0819  0.0393 -0.3285
38322SOL     OW18463   2.777   3.896   6.761 -0.0150  0.1434 -0.1430
38322SOL    HW118464   2.689   3.882   6.727  0.0179 -1.4520  0.3194
38322SOL    HW218465   2.793   3.990   6.751 -1.2315  0.2391 -1.4862
38323SOL     OW18466   3.419  10.420   4.721 -0.6200 -1.0337 -0.3992
38323SOL    HW118467   3.464  10.380   4.647  0.9559 -1.7570  0.8852
38323SOL    HW218468   3.348  10.359   4.741 -1.6572 -0.3560 -1.8585
38324SOL     OW18469   9.025   1.301   5.280  0.5390 -0.4140  0.0092
38324SOL    HW118470   8.967   1.349   5.339  0.4757 -2.0428  1.3447
38324SOL    HW218471   9.026   1.353   5.200 -1.0626  0.7655  0.7013
38325SOL     OW18472   2.022   5.352   3.361  0.5549  0.1847 -0.0791
38325SOL    HW118473   2.032   5.447   3.353 -0.8726  0.3744  0.2499
38325SOL    HW218474   2.082   5.327   3.431  2.4782  0.5232 -1.5202
38326SOL     OW18475   4.874   8.108   0.158  0.2528  0.1864 -0.5069
38326SOL    HW118476   4.835   8.133   0.073  0.0965  1.7688 -0.0073
38326SOL    HW218477   4.801   8.113   0.220  0.3660 -0.9689 -0.2600
38327SOL     OW18478  10.283   9.294   7.778  0.0832  0.2846 -0.6468
38327SOL    HW118479  10.269   9.219   7.720 -0.0921  0.2932 -0.6177
38327SOL    HW218480  10.195   9.328   7.795  0.2919  2.0981 -2.7463
38328SOL     OW18481   2.957   3.542   6.619  0.2515  0.3945 -0.0539
38328SOL    HW118482   2.998   3.627   6.607  0.8844  0.0959 -0.0296
38328SOL    HW218483   2.882   3.558   6.676  0.0963  1.0080 -0.4241
38329SOL     OW18484   7.408   4.118   9.096 -0.0502 -0.0287 -0.2631
38329SOL    HW118485   7.469   4.164   9.038  0.4412  0.3159  0.5099
38329SOL    HW218486   7.350   4.069   9.036  1.2181 -0.6786 -1.0109
38330SOL     OW18487   4.814   8.181   4.389  0.3099 -0.5067  0.4803
38330SOL    HW118488   4.865   8.253   4.426  1.4436 -1.1122  0.1234
38330SOL    HW218489   4.878   8.124   4.349 -0.7186 -0.9667 -0.5558
38331SOL     OW18490   8.247   4.739  10.189 -0.1482  0.1443 -0.0954
38331SOL    HW118491   8.314   4.795  10.230 -0.8413  1.7620 -1.1192
38331SOL    HW218492   8.287   4.710  10.107 -0.9391  1.7411 -1.0840
38332SOL     OW18493   0.230   1.663   1.794 -0.0706 -0.0048  0.2541
38332SOL    HW118494   0.314   1.691   1.757  0.3548 -0.2616  0.9974
38332SOL    HW218495   0.242   1.570   1.813 -0.6985 -0.1638 -0.1016
38333SOL     OW18496  10.795   3.013   1.717 -0.4501  0.1874 -0.3407
38333SOL    HW118497  10.736   3.078   1.679  1.7997  1.6922 -1.5001
38333SOL    HW218498  10.852   2.988   1.645  1.5624  0.2833  1.1273
38334SOL     OW18499  10.331   4.472   9.829  0.3661  0.2659  0.1886
38334SOL    HW118500  10.337   4.547   9.887  1.1503  0.4250 -0.0717
38334SOL    HW218501  10.293   4.402   9.882 -0.0162  0.7379  0.5397
38335SOL     OW18502  10.943   7.091   0.369 -0.1508 -0.5855  0.7687
38335SOL    HW118503  10.889   7.021   0.333  0.7266 -0.9310  0.1050
38335SOL    HW218504  10.888   7.130   0.438 -0.8622 -1.5456  0.7654
38336SOL     OW18505   1.908   3.695   4.186 -0.2081  0.4591 -0.1027
38336SOL    HW118506   1.859   3.673   4.266  0.5985 -1.3118 -0.0476
38336SOL    HW218507   1.979   3.752   4.217 -0.2954  0.3298  0.3492
38337SOL     OW18508   3.076   9.175   2.370  0.2233 -0.0951  0.5458
38337SOL    HW118509   3.157   9.210   2.408  1.8877 -2.2501 -0.7168
38337SOL    HW218510   3.030   9.135   2.444  1.7099 -1.2231  0.9075
38338SOL     OW18511   5.017   7.862   2.680  0.0669 -0.3299 -0.2595
38338SOL    HW118512   5.107   7.887   2.701 -0.1416 -0.0650  0.3572
38338SOL    HW218513   5.006   7.775   2.719  0.1740 -0.5304 -0.6721
38339SOL     OW18514   8.808   0.850   8.637 -0.1379  0.3898 -0.2578
38339SOL    HW118515   8.773   0.827   8.551 -0.2567 -1.3647  0.2286
38339SOL    HW218516   8.759   0.796   8.698  0.1858  1.3564  0.9044
38340SOL     OW18517   4.913  10.339   7.344 -0.5448  0.4655 -0.3555
38340SOL    HW118518   4.953  10.325   7.259  1.2707  0.3130  0.4719
38340SOL    HW218519   4.973  10.398   7.390 -0.2826 -1.1987  1.5926
38341SOL     OW18520   2.933   3.327   7.635 -0.0247 -0.8247  0.8633
38341SOL    HW118521   2.852   3.277   7.620 -0.1591 -0.0122 -1.6940
38341SOL    HW218522   3.001   3.274   7.594 -0.2500  1.1219 -2.4422
38342SOL     OW18523   0.730   8.304   9.566 -0.0162 -0.4234  0.3367
38342SOL    HW118524   0.782   8.236   9.609  1.7893  1.2726  0.9871
38342SOL    HW218525   0.736   8.283   9.473  1.2688 -0.6818  0.4550
38343SOL     OW18526   6.253   1.893   4.540  0.4552  0.2309 -0.1915
38343SOL    HW118527   6.263   1.866   4.449 -1.4736 -1.3395 -0.0061
38343SOL    HW218528   6.217   1.981   4.535  1.1238  0.4706 -0.9265
38344SOL     OW18529   5.889   2.272   7.110  0.5542  0.1338 -0.2674
38344SOL    HW118530   5.979   2.306   7.106 -0.0082  1.5724 -2.2798
38344SOL    HW218531   5.838   2.344   7.148  0.1535 -0.4776  0.3714
38345SOL     OW18532   7.270   3.402  10.797 -0.1817 -0.8554  0.3031
38345SOL    HW118533   7.260   3.482  10.746  1.2833 -0.6884  0.2473
38345SOL    HW218534   7.256   3.332  10.734  0.4159 -0.6436 -0.0735
38346SOL     OW18535   3.327   1.497   0.771 -0.2830 -0.2553 -0.8397
38346SOL    HW118536   3.399   1.453   0.816  0.7364  0.5883 -1.5947
38346SOL    HW218537   3.253   1.492   0.832  0.3582 -1.2766 -0.1210
38347SOL     OW18538   4.721   1.770   5.599  0.2736  0.1409 -0.1440
38347SOL    HW118539   4.778   1.826   5.546 -0.2498  0.7235 -0.1038
38347SOL    HW218540   4.639   1.766   5.550  0.2048 -0.3564  0.0026
38348SOL     OW18541   9.349   7.960   7.138 -0.3662 -0.6066  0.0905
38348SOL    HW118542   9.317   8.026   7.200  1.0263 -0.6070  0.8506
38348SOL    HW218543   9.274   7.901   7.125 -0.2879 -1.5566  3.0427
38349SOL     OW18544   3.221   8.775   3.772  0.3215 -0.0805  0.1841
38349SOL    HW118545   3.199   8.867   3.755  0.0173 -0.4437 -1.5480
38349SOL    HW218546   3.153   8.725   3.727 -0.2905 -1.1938  2.2016
38350SOL     OW18547   5.392   3.595   1.882 -0.2135 -0.7702 -0.3185
38350SOL    HW118548   5.305   3.609   1.845  0.3793 -0.9301 -1.8794
38350SOL    HW218549   5.381   3.521   1.941 -1.2287 -0.4648 -0.0991
38351SOL     OW18550   3.163  10.245   7.646  0.2370 -0.3181 -0.0614
38351SOL    HW118551   3.211  10.189   7.585 -2.8123  0.0904 -3.0997
38351SOL    HW218552   3.184  10.335   7.618  0.5907 -0.0128  1.0832
38352SOL     OW18553   7.995   4.178   2.363 -0.0915 -0.3289  0.1007
38352SOL    HW118554   8.061   4.124   2.320  1.1059  1.6038 -0.6446
38352SOL    HW218555   7.923   4.182   2.300  0.3917  0.0151 -0.4534
38353SOL     OW18556   0.059   0.171  10.103 -0.0669 -0.2546  0.4178
38353SOL    HW118557   0.116   0.119  10.159 -0.1011 -1.8771 -0.9644
38353SOL    HW218558  -0.020   0.184  10.155  0.0203 -1.4619  0.8946
38354SOL     OW18559   4.445   0.870   7.858  0.3967  0.2153  0.6939
38354SOL    HW118560   4.365   0.860   7.805  1.5585  0.3794 -1.2085
38354SOL    HW218561   4.424   0.938   7.921 -1.2273 -0.3167  0.7644
38355SOL     OW18562   2.371   4.302   7.206 -0.1179 -0.3234  0.3099
38355SOL    HW118563   2.404   4.392   7.201 -0.7195  0.1012  2.6241
38355SOL    HW218564   2.291   4.309   7.258  1.0026 -2.4225  2.5459
38356SOL     OW18565   3.595   0.958   9.348 -0.1467  0.2296  0.0531
38356SOL    HW118566   3.659   0.889   9.362 -0.4798 -0.1017 -0.0451
38356SOL    HW218567   3.543   0.928   9.273 -1.2164 -0.0960  0.9077
38357SOL     OW18568   1.429   2.281   9.221 -0.4448 -0.3779 -0.1658
38357SOL    HW118569   1.357   2.326   9.266  0.3549  0.1789  0.5705
38357SOL    HW218570   1.420   2.308   9.129 -0.7316  0.2868  0.0502
38358SOL     OW18571   7.057   6.412  10.958  0.1135  0.2348 -0.0334
38358SOL    HW118572   7.022   6.452  10.878  0.6627  0.9639  0.0764
38358SOL    HW218573   7.138   6.370  10.931  0.9833  1.5939  0.3546
38359SOL     OW18574  11.008   1.956   0.231  0.1916 -0.0152  0.6472
38359SOL    HW118575  10.983   1.885   0.172  0.1954 -0.9042  1.6905
38359SOL    HW218576  10.947   1.950   0.305  0.7623  0.4980  1.1821
38360SOL     OW18577   7.842   4.869   5.042  0.1763  0.4870 -0.6766
38360SOL    HW118578   7.769   4.901   4.990 -1.1764 -1.6090 -0.1568
38360SOL    HW218579   7.821   4.778   5.062  3.3856 -0.5333 -1.2980
38361SOL     OW18580   7.315   4.301   1.345 -0.3291  0.0437 -0.3871
38361SOL    HW118581   7.273   4.383   1.321 -1.6780 -1.0532 -2.1227
38361SOL    HW218582   7.351   4.316   1.432 -2.0718  1.8994  0.0884
38362SOL     OW18583   7.737   6.105   6.908 -0.7376  0.2914 -0.5351
38362SOL    HW118584   7.799   6.088   6.836 -1.2426  1.0191 -1.1578
38362SOL    HW218585   7.670   6.160   6.869 -0.3627  1.7836  0.8378
38363SOL     OW18586   9.145   6.458   2.583  0.0136  0.5455  0.1409
38363SOL    HW118587   9.169   6.546   2.556 -0.1721  0.6173  0.2089
38363SOL    HW218588   9.071   6.470   2.643 -1.4352  0.2421 -1.5045
38364SOL     OW18589  10.696   3.832   9.287 -0.1709  0.1452 -0.3121
38364SOL    HW118590  10.701   3.744   9.250  1.7160  0.5560 -1.1502
38364SOL    HW218591  10.619   3.871   9.245 -1.6529 -1.3889  0.8435
38365SOL     OW18592   1.712   4.269   6.453  0.9167  0.0897 -0.3939
38365SOL    HW118593   1.756   4.215   6.519  2.3150  1.3730 -0.2073
38365SOL    HW218594   1.773   4.272   6.379  0.8713  1.3357 -0.4137
38366SOL     OW18595   2.172  10.662   3.933  0.3393  0.0710 -0.1302
38366SOL    HW118596   2.110  10.728   3.900  0.6921 -0.0169 -0.9975
38366SOL    HW218597   2.120  10.582   3.939  0.7627 -0.5096 -2.7479
38367SOL     OW18598   2.696  10.874   2.374 -0.0711 -0.3897  0.0257
38367SOL    HW118599   2.691  10.850   2.467 -1.6785 -3.4387 -0.7222
38367SOL    HW218600   2.605  10.892   2.350  0.4599  1.4709 -0.7689
38368SOL     OW18601   3.700   3.758   4.236 -0.4641  0.7269  0.3483
38368SOL    HW118602   3.741   3.811   4.304 -2.3479  1.0845  1.2967
38368SOL    HW218603   3.749   3.676   4.235  0.5098  1.2865  1.1052
38369SOL     OW18604   5.261   5.803   8.886 -0.0851 -0.0060  0.1896
38369SOL    HW118605   5.227   5.891   8.898 -0.6684 -0.1073 -0.6169
38369SOL    HW218606   5.346   5.803   8.931 -0.1220  0.9332  0.2741
38370SOL     OW18607   6.592   7.538  10.986  0.2038 -0.3498 -0.3183
38370SOL    HW118608   6.539   7.473  10.941 -0.0094 -0.9404  0.7452
38370SOL    HW218609   6.547   7.551  11.070  1.8960 -1.1046  0.7592
38371SOL     OW18610   6.945   8.512  10.323  0.5173  0.1837  0.3038
38371SOL    HW118611   6.895   8.449  10.272 -1.2453  1.4807  0.3380
38371SOL    HW218612   7.003   8.553  10.259  0.2436 -0.0764 -0.1217
38372SOL     OW18613   2.418   7.631   2.001  0.1686  0.0241  0.0281
38372SOL    HW118614   2.385   7.543   2.015  0.6699 -0.4581 -1.6870
38372SOL    HW218615   2.496   7.620   1.947  2.5859  1.2119  2.9427
38373SOL     OW18616   5.435  10.517   3.891  0.5038 -0.4891 -0.1176
38373SOL    HW118617   5.382  10.558   3.960  0.2930 -0.1034 -0.5063
38373SOL    HW218618   5.524  10.518   3.927  0.4464  0.0014  0.0197
38374SOL     OW18619   8.580   3.450   8.899  0.3638 -0.6277  0.6854
38374SOL    HW118620   8.583   3.521   8.835 -0.3563  1.0597  2.4076
38374SOL    HW218621   8.577   3.370   8.846  1.4498  0.5789 -1.3293
38375SOL     OW18622   9.826  10.005   4.471 -0.1877  0.0987 -0.1057
38375SOL    HW118623   9.760  10.010   4.540 -1.1444 -1.2662 -0.8794
38375SOL    HW218624   9.793  10.064   4.402 -0.5133 -0.4314 -0.4095
38376SOL     OW18625   1.836   7.307   1.424  0.3174 -0.2736  0.2098
38376SOL    HW118626   1.850   7.340   1.512  2.6095 -1.6656  0.4568
38376SOL    HW218627   1.788   7.225   1.436 -1.5648  0.7364 -0.0773
38377SOL     OW18628   5.155   1.478   8.724  0.9917  0.9205  0.0125
38377SOL    HW118629   5.248   1.479   8.700  0.4343  0.1151 -2.5409
38377SOL    HW218630   5.109   1.469   8.640 -1.4693  2.5076  1.0692
38378SOL     OW18631   4.403   5.531   7.757  0.5191  0.2435  0.2548
38378SOL    HW118632   4.478   5.523   7.697 -0.1537 -3.7725 -0.3564
38378SOL    HW218633   4.327   5.541   7.700  0.2646  0.7257  0.6761
38379SOL     OW18634   0.613   9.805  10.967  0.3699 -0.0187  0.0817
38379SOL    HW118635   0.612   9.784  11.060 -3.1225 -1.8884 -0.2151
38379SOL    HW218636   0.639   9.897  10.964 -1.8023  0.8783  3.1787
38380SOL     OW18637   4.930   3.144   5.338 -0.1975  0.5003  0.5376
38380SOL    HW118638   4.958   3.117   5.250  0.0604 -0.4034  0.8843
38380SOL    HW218639   4.933   3.064   5.390 -1.9302  0.6741  0.9868
38381SOL     OW18640   2.180   3.084   8.359 -0.0724 -0.0441  0.2406
38381SOL    HW118641   2.159   3.092   8.266 -0.0193 -0.6198  0.1740
38381SOL    HW218642   2.135   3.005   8.388  1.9131 -1.3162  0.0918
38382SOL     OW18643   7.707   4.061   8.881  0.2478 -0.1643  0.2634
38382SOL    HW118644   7.688   4.079   8.789  3.1523 -1.6420 -0.7629
38382SOL    HW218645   7.787   4.110   8.899 -0.1800 -0.0183  1.9908
38383SOL     OW18646   5.953   9.192   5.482  0.1412 -0.2393 -0.1473
38383SOL    HW118647   5.867   9.191   5.439 -0.4089  0.4167  0.8692
38383SOL    HW218648   5.938   9.148   5.566  0.3288  1.3699  0.7904
38384SOL     OW18649   4.248   9.415   9.766  0.0169  0.1247  0.4328
38384SOL    HW118650   4.220   9.379   9.850  1.1526 -0.1945  0.7020
38384SOL    HW218651   4.343   9.398   9.764  0.7036  3.2948  0.6893
38385SOL     OW18652   9.710   4.555   6.129  0.3277  0.8732  0.0551
38385SOL    HW118653   9.759   4.524   6.205  2.6300  1.2276 -1.1921
38385SOL    HW218654   9.761   4.630   6.097 -1.3649  1.6255 -1.0129
38386SOL     OW18655   6.419   9.663   5.981  0.0381  0.3632  0.2132
38386SOL    HW118656   6.348   9.712   6.021 -1.5392 -1.8206  0.3030
38386SOL    HW218657   6.438   9.708   5.900 -2.2579  0.4120 -0.3477
38387SOL     OW18658   2.996   3.433   7.916  0.2053  0.0327  0.0946
38387SOL    HW118659   3.077   3.394   7.884  1.3194  0.8869  1.6956
38387SOL    HW218660   3.025   3.510   7.966 -1.5770  0.2451  0.8701
38388SOL     OW18661   3.736   8.440   4.294  0.5191  0.1586  0.4929
38388SOL    HW118662   3.685   8.414   4.370 -0.5243  0.0973 -0.1963
38388SOL    HW218663   3.749   8.534   4.304 -1.1857  0.4864 -0.1307
38389SOL     OW18664   2.543  10.379   4.083 -0.5275 -0.2971  0.0511
38389SOL    HW118665   2.638  10.377   4.095 -0.6852  1.6698  2.3587
38389SOL    HW218666   2.530  10.355   3.991  2.1891 -0.5215 -0.3583
38390SOL     OW18667  10.153   2.708   1.679  0.0859  0.3726  0.7525
38390SOL    HW118668  10.233   2.657   1.676 -0.5427 -0.5945 -1.0781
38390SOL    HW218669  10.182   2.799   1.685  1.2727 -0.0507  1.5449
38391SOL     OW18670   0.470   5.911   7.238  0.0757 -0.3090 -0.2720
38391SOL    HW118671   0.472   5.841   7.173 -1.1992 -0.2228 -0.4163
38391SOL    HW218672   0.381   5.910   7.273 -0.5116  2.2754 -1.4611
38392SOL     OW18673   4.740   9.904   5.922 -0.2699  0.2657  0.2988
38392SOL    HW118674   4.785   9.903   6.006 -1.0329 -0.7751  0.7250
38392SOL    HW218675   4.649   9.882   5.943 -0.8586  1.6575 -0.6099
38393SOL     OW18676   6.827   0.391   4.896  0.2475 -0.6974 -0.0452
38393SOL    HW118677   6.863   0.329   4.831  0.8435 -1.2057  0.7513
38393SOL    HW218678   6.838   0.346   4.980  1.0211  0.6415  0.5947
38394SOL     OW18679   1.914   7.156   5.641  0.5539 -1.1232  0.4339
38394SOL    HW118680   1.883   7.083   5.586 -0.5737  0.1473 -0.7067
38394SOL    HW218681   1.988   7.192   5.593 -0.1450 -0.2971 -0.0592
38395SOL     OW18682   1.889   9.938   9.918 -0.0212 -0.0208  0.8931
38395SOL    HW118683   1.963   9.981   9.962 -0.3059 -0.9382  2.3173
38395SOL    HW218684   1.833   9.907   9.989 -0.6867 -1.2462 -0.1347
38396SOL     OW18685   3.074   0.431   3.318  0.4496  0.3815 -0.6903
38396SOL    HW118686   3.147   0.482   3.353  0.3423  0.8338 -1.1183
38396SOL    HW218687   3.025   0.493   3.264  0.1574 -0.1036 -0.9887
38397SOL     OW18688  10.189   2.467   7.800  0.2147  0.3987  0.3793
38397SOL    HW118689  10.210   2.430   7.886  1.2064  3.0221  1.3753
38397SOL    HW218690  10.096   2.488   7.805  0.4237  1.2116  1.1342
38398SOL     OW18691   9.378   5.432   7.796 -0.3253  0.2965 -0.0794
38398SOL    HW118692   9.361   5.501   7.732 -0.6742  0.5688  0.3035
38398SOL    HW218693   9.368   5.475   7.881  0.3085 -0.0222  0.1592
38399SOL     OW18694   0.081   3.570   4.999  0.1986 -0.0945  0.3661
38399SOL    HW118695   0.005   3.629   4.993 -1.6320 -2.1739  1.4345
38399SOL    HW218696   0.132   3.604   5.072 -0.9771  0.0667  1.1448
38400SOL     OW18697   8.347   2.986  10.672  0.2254 -0.1397  0.2473
38400SOL    HW118698   8.373   2.898  10.700  2.0443  0.7351  1.5670
38400SOL    HW218699   8.283   3.013  10.737 -3.0009 -1.6315 -2.0267
38401SOL     OW18700   1.231   5.417  10.700  0.5824  0.3678  0.3280
38401SOL    HW118701   1.243   5.411  10.795  0.0751 -1.7859  0.3001
38401SOL    HW218702   1.142   5.386  10.685  1.1583 -0.7542 -0.9686
38402SOL     OW18703   4.948   5.737   5.206  0.0018 -0.2551  0.0926
38402SOL    HW118704   4.920   5.828   5.216  0.7547  0.3285 -2.4405
38402SOL    HW218705   4.911   5.710   5.121 -0.7283 -2.5536  1.0645
38403SOL     OW18706   9.569   2.005   5.951 -0.4752  0.2661 -0.4687
38403SOL    HW118707   9.619   1.925   5.964 -0.0658  0.6741  0.6167
38403SOL    HW218708   9.478   1.979   5.965 -0.4658 -0.2395 -1.2884
38404SOL     OW18709   7.039  10.504   3.229 -0.2344  0.4398 -0.1566
38404SOL    HW118710   6.962  10.500   3.172  0.5199  0.4330 -1.1965
38404SOL    HW218711   7.070  10.594   3.221  0.1469  0.3101 -0.1184
38405SOL     OW18712   6.358   9.828   9.411 -0.1533 -0.5716  0.2470
38405SOL    HW118713   6.274   9.867   9.433  0.1009 -0.0811  0.3676
38405SOL    HW218714   6.406   9.826   9.493  0.5303  0.6110 -0.0947
38406SOL     OW18715   7.546   2.499  10.475 -0.1175  0.2893 -0.1553
38406SOL    HW118716   7.540   2.404  10.461 -0.4661 -0.3307  3.3150
38406SOL    HW218717   7.456   2.530  10.474 -0.0468  0.4782 -0.6931
38407SOL     OW18718   8.729   4.173  10.886  0.4482 -0.2650 -0.1605
38407SOL    HW118719   8.638   4.152  10.910 -1.5132  4.6129 -1.9795
38407SOL    HW218720   8.762   4.222  10.960  0.8348 -0.2042 -0.3724
38408SOL     OW18721   6.711   5.876   3.858  0.2194  0.1262  0.5827
38408SOL    HW118722   6.732   5.923   3.777 -1.6253  0.4860  0.2772
38408SOL    HW218723   6.684   5.945   3.919 -0.5038 -0.3472  0.7993
38409SOL     OW18724   8.901   3.747   2.687 -0.0642  0.1226 -0.4808
38409SOL    HW118725   8.970   3.808   2.663  0.6126 -0.9023 -1.2384
38409SOL    HW218726   8.832   3.763   2.622  0.6470 -0.7717 -1.5010
38410SOL     OW18727   2.800   1.400   1.775  0.2549  0.7225 -0.0816
38410SOL    HW118728   2.796   1.372   1.683  2.1177  0.9469 -0.2811
38410SOL    HW218729   2.709   1.401   1.804 -0.1809 -4.4390 -0.3501
38411SOL     OW18730   3.862   4.558   5.227 -0.1127  0.1525 -0.3746
38411SOL    HW118731   3.920   4.487   5.256  0.6463 -0.0597 -2.2697
38411SOL    HW218732   3.774   4.528   5.251  0.4085 -0.0994  1.3899
38412SOL     OW18733   6.299   1.865   6.428 -0.3507 -0.2670 -0.0896
38412SOL    HW118734   6.290   1.770   6.424  0.0686 -0.4817  2.4433
38412SOL    HW218735   6.221   1.894   6.476  0.4148  0.4528  0.7378
38413SOL     OW18736  10.238   8.734   4.649 -0.4517 -0.2955 -0.2995
38413SOL    HW118737  10.281   8.662   4.695 -0.3617 -0.2571 -0.3233
38413SOL    HW218738  10.201   8.694   4.571 -2.8491 -0.9025  1.0382
38414SOL     OW18739   9.234   5.182   2.545 -0.6228  0.1619 -0.5893
38414SOL    HW118740   9.140   5.200   2.543 -1.5100 -3.2834  1.7053
38414SOL    HW218741   9.266   5.229   2.622 -0.3803  1.4146 -1.4257
38415SOL     OW18742   5.755   7.247  10.537  0.1223  0.1487 -0.7887
38415SOL    HW118743   5.731   7.313  10.602 -0.6682 -0.8537 -0.0341
38415SOL    HW218744   5.846   7.223  10.559 -0.3376 -0.6193  0.3619
38416SOL     OW18745   0.390   8.614   9.742 -0.2299  0.1812  0.0589
38416SOL    HW118746   0.405   8.522   9.718 -1.0508  0.1572 -0.3815
38416SOL    HW218747   0.299   8.617   9.771  0.1516  0.6130  1.3111
38417SOL     OW18748   1.615   6.903  10.555  0.0942  0.3477  0.1634
38417SOL    HW118749   1.598   6.997  10.563 -0.2535  0.2539  0.5318
38417SOL    HW218750   1.546   6.871  10.497  1.3049  0.6359 -1.5045
38418SOL     OW18751   5.417  10.996   5.468 -0.2927 -0.0452  0.4607
38418SOL    HW118752   5.493  10.965   5.419 -0.7832 -0.2309 -0.2018
38418SOL    HW218753   5.403  10.929   5.535  0.0290 -0.0973  0.4737
38419SOL     OW18754   9.490   2.104   1.160  0.1516 -0.0966  0.2981
38419SOL    HW118755   9.433   2.033   1.131 -0.5243  0.5916 -0.1038
38419SOL    HW218756   9.446   2.142   1.235 -0.0717  0.6153 -0.1830
38420SOL     OW18757   2.969   8.361   9.226  0.4384 -0.4541  0.0822
38420SOL    HW118758   2.992   8.323   9.311  3.6885  1.2545  0.1342
38420SOL    HW218759   2.933   8.447   9.247 -0.1578 -0.6190 -0.2436
38421SOL     OW18760   1.206   6.810   5.406  0.1911  0.1781 -0.1960
38421SOL    HW118761   1.159   6.894   5.401  2.1487  1.4726  1.2312
38421SOL    HW218762   1.139   6.744   5.392 -1.2050  1.9755 -2.8347
38422SOL     OW18763   0.773   4.350   2.330  0.0382  0.2774 -0.5305
38422SOL    HW118764   0.711   4.412   2.292 -2.8867 -0.6722  2.2689
38422SOL    HW218765   0.790   4.288   2.259 -1.7412  0.9287 -1.6052
38423SOL     OW18766   1.069   9.095   1.204  1.3747  0.0869 -0.2630
38423SOL    HW118767   1.151   9.123   1.164  1.2175  0.4993 -0.3106
38423SOL    HW218768   1.025   9.043   1.137 -0.0269  2.8034 -1.6413
38424SOL     OW18769   8.561   8.202   0.249 -0.7781 -0.1208 -0.7843
38424SOL    HW118770   8.650   8.166   0.247 -1.1225 -1.6225  2.9341
38424SOL    HW218771   8.562   8.264   0.321 -2.9418 -0.9396  0.0453
38425SOL     OW18772   3.460   3.512   5.729 -0.3036  0.0143  0.4261
38425SOL    HW118773   3.397   3.471   5.670 -1.1875  1.3766  0.3726
38425SOL    HW218774   3.518   3.561   5.671 -1.5824  1.9098  0.6496
38426SOL     OW18775   8.084   0.234   6.971  0.2421  0.3949 -0.5965
38426SOL    HW118776   8.085   0.181   6.891  0.3555  0.2465 -0.4962
38426SOL    HW218777   8.171   0.222   7.009 -0.3983 -0.9830  0.5067
38427SOL     OW18778  10.352  10.136   8.422 -0.6379 -0.3826 -0.3010
38427SOL    HW118779  10.371  10.165   8.333 -0.1369 -1.9658 -0.7421
38427SOL    HW218780  10.437  10.122   8.462 -0.8622 -0.4123  0.1748
38428SOL     OW18781   6.617   0.855   9.905 -0.0903 -0.3414 -0.2544
38428SOL    HW118782   6.557   0.929   9.895 -2.5739 -2.1540  0.2791
38428SOL    HW218783   6.704   0.894   9.901 -1.2499  2.3795 -1.6401
38429SOL     OW18784   1.912   5.806   3.236 -1.0347  0.2182  0.0201
38429SOL    HW118785   1.989   5.852   3.203 -0.7496  0.5496  1.0909
38429SOL    HW218786   1.855   5.796   3.160  0.0878 -0.0809 -0.7977
38430SOL     OW18787  10.351   5.044   5.923  0.4069  0.3869 -1.0191
38430SOL    HW118788  10.257   5.025   5.928 -0.0359  2.5076  0.0504
38430SOL    HW218789  10.368   5.055   5.830 -0.0207 -1.6454 -1.3697
38431SOL     OW18790   1.352   7.097   5.290 -0.1490 -0.2574  0.0567
38431SOL    HW118791   1.369   7.048   5.210 -1.7033 -1.6604  0.5311
38431SOL    HW218792   1.439   7.122   5.323  0.5658 -0.8660 -1.3110
38432SOL     OW18793   0.678   9.500   3.731 -0.2056 -0.1468 -0.2400
38432SOL    HW118794   0.719   9.523   3.814  0.3190 -0.0149 -0.5356
38432SOL    HW218795   0.750   9.473   3.675 -0.3967  0.9492 -1.0498
38433SOL     OW18796   4.837   2.500   6.547 -0.3600  0.2339 -0.1642
38433SOL    HW118797   4.802   2.414   6.527  0.5411  0.1362 -1.4277
38433SOL    HW218798   4.844   2.544   6.462 -1.7432  1.9383  0.5370
38434SOL     OW18799   8.280   0.328   9.094 -0.0592  0.3275  0.1362
38434SOL    HW118800   8.364   0.334   9.049 -0.2120 -2.1186 -0.6327
38434SOL    HW218801   8.250   0.238   9.078 -0.7472 -0.3479  4.0650
38435SOL     OW18802   8.740   4.465   4.220 -0.1082  0.2907 -0.0840
38435SOL    HW118803   8.695   4.549   4.232  0.2490  0.4721  0.0017
38435SOL    HW218804   8.676   4.409   4.177 -0.7696  0.2315  0.9408
38436SOL     OW18805   1.686   2.974   9.397  0.3916  0.7037 -0.2478
38436SOL    HW118806   1.646   2.965   9.483  0.7149 -0.3343 -0.1931
38436SOL    HW218807   1.771   2.931   9.405 -0.2912 -1.0079 -1.5548
38437SOL     OW18808   7.117   5.267   7.906  0.5567 -0.4260  0.3348
38437SOL    HW118809   7.201   5.276   7.950  1.3617  1.3988 -1.4268
38437SOL    HW218810   7.137   5.218   7.826  0.6777  2.5984 -1.6460
38438SOL     OW18811   5.343  10.326   9.639  0.0858 -0.6648  0.2730
38438SOL    HW118812   5.281  10.253   9.634 -0.7850  0.0814 -0.1638
38438SOL    HW218813   5.399  10.315   9.562 -0.9017 -0.1418 -0.5494
38439SOL     OW18814   7.311   3.932   4.462  0.0229  0.5533 -0.2428
38439SOL    HW118815   7.333   3.878   4.386 -1.4338  1.6989 -1.5466
38439SOL    HW218816   7.312   3.871   4.536  0.4619 -0.8161 -1.3288
38440SOL     OW18817  10.398   6.582   1.601 -0.4887  0.2188 -0.0548
38440SOL    HW118818  10.356   6.500   1.627 -1.2604  0.8555  0.7204
38440SOL    HW218819  10.435   6.617   1.682  0.5584  0.2534 -0.5214
38441SOL     OW18820   7.267   4.111   7.181 -0.1258 -0.4309  0.3704
38441SOL    HW118821   7.253   4.202   7.208 -0.4773 -1.0598  2.4771
38441SOL    HW218822   7.362   4.102   7.174 -0.0945  0.1080  0.0917
38442SOL     OW18823   2.004   1.708   9.024  0.1919 -0.1067  0.0348
38442SOL    HW118824   1.982   1.765   8.951  0.7734  0.5825  0.3886
38442SOL    HW218825   2.008   1.766   9.100  0.9879 -0.5731  0.3698
38443SOL     OW18826   4.301   8.634   5.498 -0.1864  0.3705 -0.0410
38443SOL    HW118827   4.387   8.668   5.472 -1.0463 -0.1670 -4.2493
38443SOL    HW218828   4.246   8.712   5.504  0.1006  0.5337  0.5544
38444SOL     OW18829   2.436   7.446   1.319 -0.3625 -0.4028  0.0679
38444SOL    HW118830   2.408   7.415   1.405 -1.7016  1.7897  0.5267
38444SOL    HW218831   2.375   7.405   1.258 -1.7229  0.7614  0.5903
38445SOL     OW18832   1.911   9.960   0.248 -0.0528  0.0300  0.0538
38445SOL    HW118833   1.831   9.918   0.217  0.3821 -2.2251  1.7336
38445SOL    HW218834   1.976   9.937   0.181 -0.3776  0.2433 -0.3430
38446SOL     OW18835   4.660   5.698   3.951  0.0643  0.6317  0.7606
38446SOL    HW118836   4.582   5.675   3.901  1.0803  2.8844 -2.1423
38446SOL    HW218837   4.638   5.782   3.992  0.2451  0.1820  1.8206
38447SOL     OW18838   2.014   0.579   4.004  0.0493 -0.0339  0.2207
38447SOL    HW118839   2.002   0.602   3.912 -1.1824  0.8292  0.5769
38447SOL    HW218840   1.978   0.652   4.053 -2.3898 -1.8643  1.3869
38448SOL     OW18841   7.798  10.587   5.797  0.0276  0.1250 -0.0186
38448SOL    HW118842   7.864  10.592   5.728 -0.2381 -0.0859 -0.2918
38448SOL    HW218843   7.771  10.678   5.810  0.3540  0.2080  0.0778
38449SOL     OW18844   4.090   2.087   6.500 -0.0616 -0.3065 -0.5259
38449SOL    HW118845   4.079   2.137   6.419 -0.4852 -1.0182 -0.9184
38449SOL    HW218846   4.144   2.013   6.476  0.4556 -0.1234  0.0272
38450SOL     OW18847   7.543   7.257   6.495  0.3432 -0.0993 -0.5423
38450SOL    HW118848   7.489   7.335   6.512  0.7360 -0.0475  0.5360
38450SOL    HW218849   7.630   7.292   6.475  0.3457 -0.2334 -0.7634
38451SOL     OW18850   7.659  10.851   5.289 -0.5400  0.3650 -0.2932
38451SOL    HW118851   7.695  10.940   5.283  0.2711  0.0353 -0.3779
38451SOL    HW218852   7.665  10.817   5.200 -0.0859 -0.0671 -0.1008
38452SOL     OW18853   1.087   2.675   5.155  0.0560  0.4323 -0.4257
38452SOL    HW118854   1.155   2.742   5.165  0.9984 -0.6018  0.3751
38452SOL    HW218855   1.033   2.706   5.083  0.7164  1.8419 -0.3459
38453SOL     OW18856   8.262   4.559   2.099 -0.1723  0.1803  0.0867
38453SOL    HW118857   8.186   4.559   2.041 -2.4892  1.3602  2.8571
38453SOL    HW218858   8.285   4.467   2.110 -0.9260 -0.1639 -1.0902
38454SOL     OW18859   4.495   3.068   8.158  0.7348  0.3638  0.0972
38454SOL    HW118860   4.573   3.118   8.133 -0.1937  1.1536 -1.3442
38454SOL    HW218861   4.519   2.977   8.142  1.4244  0.5803 -0.1517
38455SOL     OW18862   8.048   1.230   1.428 -0.3225 -0.2799 -0.0482
38455SOL    HW118863   8.089   1.185   1.354 -0.2565  1.1339 -0.8930
38455SOL    HW218864   8.121   1.270   1.475 -0.5500  0.6125 -0.4458
38456SOL     OW18865   6.126   5.104  10.493 -0.3948 -0.4305  0.2516
38456SOL    HW118866   6.048   5.152  10.522 -0.4656 -0.4076  0.0228
38456SOL    HW218867   6.196   5.135  10.551 -0.0662  1.2071 -0.9333
38457SOL     OW18868   7.403   0.588  10.817  0.7797 -0.3739  0.0910
38457SOL    HW118869   7.316   0.559  10.790  0.8895  0.3428 -1.1093
38457SOL    HW218870   7.426   0.531  10.890 -1.1574  0.1420  1.1717
38458SOL     OW18871   0.656   0.206   4.483 -0.2001 -0.6238  0.5320
38458SOL    HW118872   0.575   0.256   4.493  0.0901  0.8082 -2.9864
38458SOL    HW218873   0.703   0.221   4.565 -2.0067  1.3723  1.2947
38459SOL     OW18874   4.243   8.055   2.841 -0.0356  0.0018  0.1455
38459SOL    HW118875   4.277   8.120   2.779  2.0644  0.2310  1.4231
38459SOL    HW218876   4.245   7.973   2.792  2.1663  0.0683  0.0072
38460SOL     OW18877   9.398   3.569   7.111 -0.6760 -0.0125  0.1995
38460SOL    HW118878   9.304   3.590   7.107 -0.3824  1.5318  0.4653
38460SOL    HW218879   9.403   3.475   7.094 -2.2925 -0.1726  0.4429
38461SOL     OW18880   1.695   2.871   4.784  0.1723  0.2331  0.4697
38461SOL    HW118881   1.616   2.878   4.838 -0.5178 -2.2350 -0.0980
38461SOL    HW218882   1.664   2.838   4.700  1.8110 -0.9365  0.2867
38462SOL     OW18883   1.401   3.699   2.161 -0.0976 -0.0073  0.4509
38462SOL    HW118884   1.405   3.640   2.236 -2.1139 -0.8642 -0.0622
38462SOL    HW218885   1.308   3.711   2.144  0.2690  2.3469 -0.2614
38463SOL     OW18886   5.430   9.828   7.067 -0.1167 -0.0991  0.0251
38463SOL    HW118887   5.424   9.874   7.150  0.0179  1.3011 -0.7185
38463SOL    HW218888   5.480   9.886   7.010  0.4440 -1.3533 -0.8257
38464SOL     OW18889   9.453  10.057   6.989  0.2418 -0.3804  0.4603
38464SOL    HW118890   9.363  10.054   7.022 -0.0044 -0.0355 -0.1653
38464SOL    HW218891   9.460  10.141   6.943  0.1179 -1.4275 -1.5891
38465SOL     OW18892   4.824   2.954   7.321 -0.7378  0.1279 -0.1010
38465SOL    HW118893   4.796   2.969   7.231 -3.7598  2.2981  1.0279
38465SOL    HW218894   4.860   3.038   7.350 -1.4672  0.0238  1.1998
38466SOL     OW18895   8.197   6.034   7.785 -0.0537 -0.3681  0.2429
38466SOL    HW118896   8.281   6.017   7.827 -0.0749 -2.1016 -0.3436
38466SOL    HW218897   8.144   5.956   7.803 -1.5110  0.6398  0.5113
38467SOL     OW18898  10.386   9.324   1.929  0.4503 -0.3486 -0.5394
38467SOL    HW118899  10.479   9.344   1.939  0.6667 -0.3345 -2.1979
38467SOL    HW218900  10.358   9.379   1.855 -1.3577  1.0974  1.1059
38468SOL     OW18901   7.629   5.368   4.212 -0.5020  0.4766  0.3009
38468SOL    HW118902   7.636   5.333   4.123 -2.6101 -1.4367  0.7721
38468SOL    HW218903   7.582   5.451   4.201  0.5737  1.0080 -0.4700
38469SOL     OW18904   5.409   9.401   0.131  0.1985  0.0879 -0.5174
38469SOL    HW118905   5.356   9.480   0.132 -0.4828 -0.3183 -1.6191
38469SOL    HW218906   5.379   9.350   0.206  0.1748  0.5823 -0.1953
38470SOL     OW18907   3.768   7.217   9.863 -0.1025 -0.5773 -0.1375
38470SOL    HW118908   3.680   7.229   9.899  0.3122 -2.7287  1.8264
38470SOL    HW218909   3.776   7.285   9.796 -2.4363  1.0803  1.1171
38471SOL     OW18910  10.474   1.556   6.242 -0.2848  0.1667 -0.0113
38471SOL    HW118911  10.484   1.637   6.292 -1.7281  1.2297 -1.3595
38471SOL    HW218912  10.380   1.542   6.237 -0.0627 -1.7747  0.4254
38472SOL     OW18913   2.640   7.673   9.640 -0.0033  0.0850 -0.1896
38472SOL    HW118914   2.674   7.690   9.552 -0.3870  0.9629 -0.1712
38472SOL    HW218915   2.689   7.595   9.669  0.0222 -0.3045 -1.2260
38473SOL     OW18916   2.661   4.504   9.419  0.4280  0.5230  0.1784
38473SOL    HW118917   2.724   4.540   9.482  0.0738  2.9288 -0.7229
38473SOL    HW218918   2.706   4.510   9.335 -0.3877  0.7305 -0.2525
38474SOL     OW18919  10.416   5.296   3.580  0.2948 -0.2110  0.1678
38474SOL    HW118920  10.493   5.252   3.543  1.2865 -0.0556  1.9426
38474SOL    HW218921  10.348   5.286   3.513  1.9616  0.0297 -1.6631
38475SOL     OW18922   0.229   0.592   2.299 -0.0234 -0.4818  0.5940
38475SOL    HW118923   0.303   0.553   2.252  1.4309  0.7955  1.6913
38475SOL    HW218924   0.178   0.517   2.330 -0.4609 -1.3635 -2.0432
38476SOL     OW18925   0.591  10.690   9.939 -0.2697  0.0699 -0.3368
38476SOL    HW118926   0.573  10.725   9.852  1.9124  0.0762 -0.8396
38476SOL    HW218927   0.628  10.603   9.924  0.7402  0.3246  0.5268
38477SOL     OW18928   5.468   8.055   6.551  0.7449  0.4693 -0.2742
38477SOL    HW118929   5.554   8.057   6.508 -0.1862  0.8166 -2.2366
38477SOL    HW218930   5.418   7.990   6.502 -0.1692  0.3889  0.7347
38478SOL     OW18931   2.677   6.364   1.937 -0.0783 -0.1019  0.3194
38478SOL    HW118932   2.691   6.324   2.023 -0.6787  0.6139  0.7704
38478SOL    HW218933   2.610   6.431   1.953  1.2201  1.4043 -0.2994
38479SOL     OW18934   6.405   6.446   5.276  0.0484 -0.1880  0.4857
38479SOL    HW118935   6.337   6.396   5.322  1.7277 -1.2027  1.9988
38479SOL    HW218936   6.462   6.379   5.239  0.2617  0.6522 -0.7411
38480SOL     OW18937   2.991   8.211   0.362  0.5884  0.1093 -0.5698
38480SOL    HW118938   2.940   8.222   0.281  1.1630 -1.4672 -1.1900
38480SOL    HW218939   3.057   8.146   0.339  0.9700 -0.1211  1.0988
38481SOL     OW18940   7.304  10.130   8.589 -0.1282  0.2684 -0.6835
38481SOL    HW118941   7.262  10.216   8.586  0.7193  0.7596  0.6570
38481SOL    HW218942   7.397  10.148   8.579  0.1733 -0.3544  0.6816
38482SOL     OW18943   2.289   1.947   3.019  0.2334 -0.5497  1.0844
38482SOL    HW118944   2.248   1.874   2.973  0.2263 -1.3942  2.3944
38482SOL    HW218945   2.372   1.962   2.972 -0.6437 -0.0924 -0.3814
38483SOL     OW18946   3.937   8.696   0.308  0.2632  0.4035 -0.6609
38483SOL    HW118947   4.007   8.736   0.257  0.9823  1.5285  1.1186
38483SOL    HW218948   3.940   8.741   0.392 -2.8429  0.7540 -0.6181
38484SOL     OW18949   5.025   5.734   8.330  0.2810  0.3351  0.2514
38484SOL    HW118950   5.060   5.805   8.384  0.8580 -2.0979  3.3687
38484SOL    HW218951   4.976   5.679   8.391  1.6825 -3.1225 -1.4610
38485SOL     OW18952   9.854   7.417   0.631 -0.7038  0.0619  0.1448
38485SOL    HW118953   9.922   7.384   0.689  1.1972  0.8437 -1.4988
38485SOL    HW218954   9.813   7.339   0.593  0.1290 -0.4256  0.2366
38486SOL     OW18955   4.696   6.826   9.528 -0.3674  0.1501  0.7050
38486SOL    HW118956   4.718   6.769   9.602 -0.3884 -0.3269  0.3503
38486SOL    HW218957   4.607   6.801   9.505 -0.6508  0.8612  1.0303
38487SOL     OW18958   6.511   1.323   4.222 -0.2713  0.0829  0.3512
38487SOL    HW118959   6.528   1.229   4.221 -0.5870  0.0226  0.8747
38487SOL    HW218960   6.569   1.358   4.153  0.0721 -0.4487  0.3656
38488SOL     OW18961   2.100   5.736   8.715 -0.3146  0.4493  0.2612
38488SOL    HW118962   2.171   5.721   8.653 -2.0257 -4.0702 -0.9677
38488SOL    HW218963   2.131   5.697   8.797 -0.3138  1.1091  0.5837
38489SOL     OW18964   9.434   6.253   4.066  0.2073  0.8249 -0.4713
38489SOL    HW118965   9.359   6.196   4.085  1.5112 -0.2303  1.8593
38489SOL    HW218966   9.501   6.194   4.032  0.7772  1.3719 -0.3064
38490SOL     OW18967   7.630   7.599   7.651 -0.1700 -0.1658  0.7661
38490SOL    HW118968   7.684   7.678   7.660 -0.7608  0.3685 -0.2552
38490SOL    HW218969   7.541   7.628   7.668 -0.1957 -1.0101  2.2497
38491SOL     OW18970   8.816   7.837   2.333  0.4916  0.4450  0.0926
38491SOL    HW118971   8.843   7.846   2.425 -1.3570  0.0705  0.7018
38491SOL    HW218972   8.731   7.881   2.328  1.3321  2.0283 -1.8827
38492SOL     OW18973   8.721   2.534   2.094  1.0463  0.2785 -0.2198
38492SOL    HW118974   8.642   2.553   2.044  0.8251  0.0548  0.0389
38492SOL    HW218975   8.722   2.438   2.102  1.8532  0.2064 -1.0435
38493SOL     OW18976   0.839   5.237   4.253 -0.4728 -0.0581  0.5379
38493SOL    HW118977   0.839   5.200   4.341 -1.4897 -1.1345  0.1092
38493SOL    HW218978   0.864   5.164   4.197 -0.2475  0.5116 -0.1110
38494SOL     OW18979   0.822   3.095   2.309  0.1794  0.4654  0.4211
38494SOL    HW118980   0.856   3.121   2.223 -0.2019  2.6154  0.8697
38494SOL    HW218981   0.812   3.177   2.356 -1.1875 -0.5401  1.9601
38495SOL     OW18982   5.052   2.146   2.507  0.1709  0.3390 -0.2261
38495SOL    HW118983   5.090   2.128   2.593  0.2550  2.3312  0.2150
38495SOL    HW218984   4.975   2.089   2.502  2.3505 -2.8117 -0.5884
38496SOL     OW18985   8.273   0.523   7.738  0.2658  0.0965 -0.7703
38496SOL    HW118986   8.355   0.553   7.777  0.5765 -0.8291 -0.6664
38496SOL    HW218987   8.300   0.483   7.655 -0.3996  2.1287 -2.0328
38497SOL     OW18988   3.619  10.599  10.894 -0.1414 -0.4138  0.1549
38497SOL    HW118989   3.590  10.537  10.827 -0.1473  0.6462 -0.8620
38497SOL    HW218990   3.571  10.680  10.873  1.0786  0.4024  0.4536
38498SOL     OW18991   0.778   4.667   5.067  0.2262  0.4216 -0.4244
38498SOL    HW118992   0.771   4.756   5.033 -0.0794  0.8458  0.6812
38498SOL    HW218993   0.738   4.672   5.154 -2.4941 -1.4369 -1.4345
38499SOL     OW18994   6.813   8.170   2.755 -0.1097 -0.2981  0.4262
38499SOL    HW118995   6.831   8.121   2.674  0.3655  0.8216 -0.1602
38499SOL    HW218996   6.823   8.262   2.731  1.0090  0.0350  1.9844
38500SOL     OW18997   8.862   2.107   5.134 -0.0147 -0.3280 -0.2106
38500SOL    HW118998   8.891   2.193   5.102 -1.5127  0.3613  0.1738
38500SOL    HW218999   8.786   2.126   5.189  0.5731 -1.7806  1.1880
38501SOL     OW19000   3.200  10.375   3.341 -0.3116  0.5220  0.3881
38501SOL    HW119001   3.161  10.289   3.355 -0.1907  0.4874  0.5221
38501SOL    HW219002   3.254  10.364   3.263 -0.9970  0.7176 -0.1095
38502SOL     OW19003   1.209   7.782  10.902 -0.3095 -0.8051  0.2306
38502SOL    HW119004   1.153   7.849  10.862  1.1150 -0.5663 -1.5145
38502SOL    HW219005   1.159   7.750  10.977 -1.8252  0.8988  0.0163
38503SOL     OW19006  10.905   9.369   7.771 -0.1372  0.2179  0.2882
38503SOL    HW119007  10.828   9.361   7.827 -0.7693 -0.2905 -0.6258
38503SOL    HW219008  10.873   9.350   7.683  1.0111  0.1394 -0.1343
38504SOL     OW19009   0.934   3.134   1.350 -0.3224 -0.1381 -0.7390
38504SOL    HW119010   0.973   3.079   1.418  0.0473 -0.4034 -1.1585
38504SOL    HW219011   0.996   3.130   1.277  0.1217  1.5139 -0.4747
38505SOL     OW19012   6.552   5.768   5.737  0.3888  0.0875  0.3056
38505SOL    HW119013   6.464   5.756   5.700  0.8770 -1.0669 -0.5500
38505SOL    HW219014   6.539   5.767   5.831 -0.6357  0.9499  0.1932
38506SOL     OW19015   2.788   8.274   6.897  0.4195 -0.1922  0.1016
38506SOL    HW119016   2.787   8.190   6.851 -3.1619  0.0159 -0.5483
38506SOL    HW219017   2.805   8.252   6.988  0.2428 -1.5690 -0.1789
38507SOL     OW19018   1.146   5.992   9.355  0.3515  0.3062 -0.1530
38507SOL    HW119019   1.219   5.953   9.403  0.5319  0.1073 -0.5922
38507SOL    HW219020   1.095   6.036   9.423 -0.4202 -1.5218  0.5288
38508SOL     OW19021  10.926  11.002   2.968 -0.8345 -0.5515  0.2824
38508SOL    HW119022  10.980  10.923   2.957 -0.2308 -0.0519 -0.5029
38508SOL    HW219023  10.857  10.976   3.028 -0.0655 -1.3951  0.8222
38509SOL     OW19024   4.358   1.245   2.132  0.0209 -0.0994  0.2328
38509SOL    HW119025   4.273   1.232   2.175  0.6704  1.7119  2.2499
38509SOL    HW219026   4.362   1.339   2.114  2.0322  0.0630  1.2528
38510SOL     OW19027   4.500   0.043   5.012  0.1778  0.1045  0.3349
38510SOL    HW119028   4.415   0.052   5.055 -0.7352 -0.5227 -1.2474
38510SOL    HW219029   4.499   0.109   4.942  0.7671 -0.2645 -0.0362
38511SOL     OW19030   4.106   8.924   2.111 -0.4008 -0.6211  0.2218
38511SOL    HW119031   4.085   8.901   2.020 -0.9224  0.6031  0.0246
38511SOL    HW219032   4.023   8.916   2.157 -0.3159 -0.3866  0.4147
38512SOL     OW19033   6.856   9.196   3.098 -0.0002 -0.1900  0.5579
38512SOL    HW119034   6.784   9.199   3.160  1.3286  0.3774  2.1584
38512SOL    HW219035   6.891   9.107   3.106  0.8775  0.2146  1.5344
38513SOL     OW19036   4.158   7.396   6.355  0.5530  0.2855  0.1110
38513SOL    HW119037   4.219   7.386   6.428  0.7380  0.0613 -0.0734
38513SOL    HW219038   4.147   7.308   6.320  0.0770  0.3143  0.1749
38514SOL     OW19039  10.130   4.629   6.437  0.6195 -0.5666 -0.1424
38514SOL    HW119040  10.055   4.581   6.404  0.4739  0.5816 -1.5635
38514SOL    HW219041  10.197   4.620   6.369  0.8399  0.5959 -0.1047
38515SOL     OW19042   7.929   3.254   7.739  0.0622 -0.4024 -0.0264
38515SOL    HW119043   7.941   3.293   7.825  0.6926  0.0087 -0.2924
38515SOL    HW219044   7.846   3.207   7.745 -0.4233  0.5006  0.4815
38516SOL     OW19045   9.511   6.346   2.071  0.2976  0.4008  0.3363
38516SOL    HW119046   9.576   6.279   2.089 -0.0964 -0.0951 -0.0597
38516SOL    HW219047   9.433   6.317   2.120 -0.6660 -0.7573 -1.7370
38517SOL     OW19048  10.423   8.974   9.939 -0.1739  0.3355 -0.0809
38517SOL    HW119049  10.414   8.994  10.032 -0.9384  0.8282 -0.2477
38517SOL    HW219050  10.373   9.043   9.895 -1.9017 -1.2540 -0.7367
38518SOL     OW19051   1.844   0.854   6.410 -0.2924  0.4487  0.0332
38518SOL    HW119052   1.790   0.803   6.471 -0.0229  2.6641  2.2729
38518SOL    HW219053   1.933   0.823   6.425 -0.5459 -1.5031 -1.9303
38519SOL     OW19054   7.011   1.194   4.661  0.5087 -0.1736  0.2652
38519SOL    HW119055   7.042   1.284   4.666  1.4594 -0.3867 -1.1806
38519SOL    HW219056   7.084   1.142   4.696 -0.4580 -0.3530  2.1441
38520SOL     OW19057   0.802   9.700   2.961 -0.0049  0.1261 -0.0037
38520SOL    HW119058   0.809   9.610   2.992 -0.2201 -0.3282 -1.2106
38520SOL    HW219059   0.893   9.728   2.947  0.0851  0.2810  0.8430
38521SOL     OW19060   2.066   4.552   0.719 -0.2501 -0.4271  0.9098
38521SOL    HW119061   2.112   4.635   0.730 -0.2929  0.0931 -2.0547
38521SOL    HW219062   2.105   4.495   0.785  0.7716  1.5229  2.1032
38522SOL     OW19063  10.395   7.782   8.036 -0.0652  0.2818  0.2139
38522SOL    HW119064  10.397   7.715   7.968  1.4114  0.4792  0.0320
38522SOL    HW219065  10.466   7.842   8.012  0.8534  0.0653  2.2192
38523SOL     OW19066   7.938   9.432   9.599  0.7712 -0.1905  0.1496
38523SOL    HW119067   8.027   9.469   9.596  0.5924  0.1915 -0.8411
38523SOL    HW219068   7.910   9.429   9.508 -0.6929  0.8020  0.5305
38524SOL     OW19069  10.828   8.392  10.080  0.3324  0.3877 -0.2710
38524SOL    HW119070  10.753   8.424  10.130  0.9753 -0.6273  1.4254
38524SOL    HW219071  10.806   8.301  10.059  0.4463  0.5453 -1.1072
38525SOL     OW19072   7.229   1.263   5.229  0.2191  0.5682 -0.4292
38525SOL    HW119073   7.259   1.344   5.269 -1.5865  1.4213 -0.7052
38525SOL    HW219074   7.150   1.239   5.277 -0.0634 -0.2659 -1.2583
38526SOL     OW19075   1.335   9.328   2.733 -0.6186  0.1180  0.1415
38526SOL    HW119076   1.429   9.314   2.717 -0.5713  0.4594  0.1179
38526SOL    HW219077   1.329   9.338   2.828 -0.3937  1.7894  0.0068
38527SOL     OW19078   6.842   5.056  10.979  0.4141  0.0900 -0.1207
38527SOL    HW119079   6.851   4.977  11.032 -0.1907  0.2509  0.2281
38527SOL    HW219080   6.927   5.100  10.987  0.8580 -0.6696 -0.5648
38528SOL     OW19081  10.383   6.325   4.398 -0.4474  0.1115  0.2532
38528SOL    HW119082  10.459   6.378   4.374 -0.3732  0.4362  1.1764
38528SOL    HW219083  10.392   6.246   4.345 -0.2224  0.7469 -0.6704
38529SOL     OW19084   3.578   4.485   4.654  0.2618 -0.1949 -0.1507
38529SOL    HW119085   3.590   4.411   4.595 -0.7510 -0.0980 -0.5000
38529SOL    HW219086   3.573   4.446   4.741  0.9966 -0.4059 -0.1906
38530SOL     OW19087   2.720   7.859   4.958 -0.1565 -0.1679 -0.0745
38530SOL    HW119088   2.742   7.946   4.924 -0.1699  0.4549  1.4038
38530SOL    HW219089   2.780   7.846   5.031 -1.6104 -0.4177  1.1330
38531SOL     OW19090   8.490   6.541   7.926  0.5686 -0.2352  0.4252
38531SOL    HW119091   8.529   6.622   7.894  0.1827 -0.9335 -2.0381
38531SOL    HW219092   8.396   6.560   7.930  0.3251 -0.8662 -1.3820
38532SOL     OW19093   8.540   7.586   6.590 -0.9210 -0.3860  0.5587
38532SOL    HW119094   8.519   7.669   6.632 -0.8573 -0.9037  1.6419
38532SOL    HW219095   8.554   7.609   6.498  0.7572  1.0952  1.1118
38533SOL     OW19096   0.386   5.148   3.438  0.8719 -0.4496  0.3483
38533SOL    HW119097   0.310   5.099   3.407  0.7795 -0.8912  1.2471
38533SOL    HW219098   0.402   5.115   3.527  2.9338 -1.3489 -0.2775
38534SOL     OW19099   1.972   6.182   4.508  0.3197  0.9618  0.0438
38534SOL    HW119100   1.987   6.270   4.544  0.2165  1.6492 -1.5103
38534SOL    HW219101   1.935   6.198   4.421  0.0369 -0.6383 -0.1566
38535SOL     OW19102   8.435   3.314   3.076 -0.0272  0.2570 -0.3691
38535SOL    HW119103   8.487   3.233   3.081 -0.5160  0.0186  1.4184
38535SOL    HW219104   8.375   3.299   3.003  0.8313 -0.4134 -0.9624
38536SOL     OW19105   1.126   5.859   6.856  0.2292 -0.0433  0.0287
38536SOL    HW119106   1.151   5.766   6.854  0.0666 -0.0772 -0.4329
38536SOL    HW219107   1.210   5.906   6.855  0.3045 -0.1797 -0.1500
38537SOL     OW19108   7.303   1.497   9.500 -0.2128 -0.0410 -0.0327
38537SOL    HW119109   7.247   1.570   9.526 -0.1759  0.2707 -0.8067
38537SOL    HW219110   7.242   1.423   9.491 -0.3842  0.1067 -0.1066
38538SOL     OW19111   9.466   6.551   7.117  0.7296  0.4262  0.8324
38538SOL    HW119112   9.486   6.645   7.122  2.1129  0.1251  1.2476
38538SOL    HW219113   9.484   6.528   7.026 -1.3828  0.9100  0.2324
38539SOL     OW19114   2.780   1.686   6.282  0.1662 -0.1413 -0.4752
38539SOL    HW119115   2.707   1.640   6.240  0.1502  0.0374 -0.6482
38539SOL    HW219116   2.804   1.754   6.219 -1.4054  1.6816  0.7629
38540SOL     OW19117   8.179   4.434   1.115 -0.5986  0.0901  0.2476
38540SOL    HW119118   8.168   4.365   1.181 -2.3750 -2.3466 -2.3379
38540SOL    HW219119   8.255   4.406   1.064 -1.1755  0.1490 -0.6715
38541SOL     OW19120   0.228   6.007   0.829 -0.0790 -0.2264  0.6960
38541SOL    HW119121   0.299   5.969   0.779  1.0761  0.3027  1.8722
38541SOL    HW219122   0.214   6.093   0.789 -1.9924 -1.3529 -1.2976
38542SOL     OW19123   5.037   4.656   5.453  0.5451 -0.0109  0.2520
38542SOL    HW119124   5.102   4.703   5.401 -0.0904  1.4122  0.6897
38542SOL    HW219125   4.957   4.709   5.445 -0.0169 -0.6649  1.3047
38543SOL     OW19126   8.407   0.876   1.303 -0.2389 -0.0156 -0.5994
38543SOL    HW119127   8.369   0.816   1.368  0.2239  0.8166  0.4668
38543SOL    HW219128   8.489   0.834   1.276  0.2068  0.2448  0.3277
38544SOL     OW19129  10.597  10.133   3.143 -0.0869  0.1996 -0.3629
38544SOL    HW119130  10.569  10.220   3.172 -1.4942 -0.4121  0.1865
38544SOL    HW219131  10.517  10.089   3.118  0.3377 -1.6219  1.2262
38545SOL     OW19132   4.597   0.585   6.217 -0.2370  0.1375  0.1808
38545SOL    HW119133   4.521   0.529   6.199  0.2487 -0.6296  0.4726
38545SOL    HW219134   4.664   0.555   6.155 -0.2282  0.9547 -0.2247
38546SOL     OW19135   4.892   2.987   1.328  0.0115 -0.0563  1.2418
38546SOL    HW119136   4.857   2.908   1.287 -0.3721  0.2091  1.0515
38546SOL    HW219137   4.987   2.972   1.332  0.0338 -0.1931  0.4700
38547SOL     OW19138  10.980   8.392   7.424 -0.4322  0.5045 -0.3641
38547SOL    HW119139  10.943   8.465   7.472  0.7576  0.7987  0.1436
38547SOL    HW219140  10.914   8.369   7.359 -1.3044  1.2619  0.2446
38548SOL     OW19141   1.937   6.010   6.057  0.6304  0.0091 -0.6599
38548SOL    HW119142   1.973   6.034   6.142  0.4499 -1.0151 -0.2809
38548SOL    HW219143   1.855   6.060   6.051 -0.4436 -1.4984  0.7163
38549SOL     OW19144   0.645   5.341   4.578 -0.4638  0.0790 -0.1132
38549SOL    HW119145   0.657   5.384   4.663 -1.3580  1.2616 -0.5697
38549SOL    HW219146   0.567   5.287   4.589 -0.0409 -0.5083  0.0842
38550SOL     OW19147   8.045   7.967   3.815  0.0317  0.2278  0.3256
38550SOL    HW119148   8.105   8.042   3.811 -0.9442  1.0063 -0.6520
38550SOL    HW219149   8.051   7.936   3.905  1.1938  0.8643  0.4947
38551SOL     OW19150   6.298   9.152   7.444 -0.2818 -0.1457 -0.9004
38551SOL    HW119151   6.337   9.196   7.519 -0.9940 -0.1593 -0.5199
38551SOL    HW219152   6.372   9.107   7.402 -0.1130 -1.4506  0.6935
38552SOL     OW19153   1.505   4.105   3.458  0.1822 -0.1330  0.1229
38552SOL    HW119154   1.561   4.144   3.526 -1.1340  0.1618  1.0772
38552SOL    HW219155   1.505   4.012   3.478 -1.0388  0.0655  1.2322
38553SOL     OW19156   8.300  10.219   9.775  0.6075 -0.2530 -0.1946
38553SOL    HW119157   8.311  10.309   9.747  0.7627  0.2326  1.3250
38553SOL    HW219158   8.386  10.179   9.764  0.2568 -0.5897 -2.0058
38554SOL     OW19159   2.204   3.781   4.034  0.1592  0.1438 -0.0801
38554SOL    HW119160   2.173   3.703   3.988  0.4005 -0.1854  0.3163
38554SOL    HW219161   2.260   3.825   3.970 -1.4144  0.9731 -0.9648
38555SOL     OW19162   1.885   6.629   9.752 -0.1980  0.1929  0.5220
38555SOL    HW119163   1.860   6.540   9.728  1.7490 -0.1665 -0.3561
38555SOL    HW219164   1.886   6.629   9.848 -0.8981 -0.5118  0.5408
38556SOL     OW19165   4.122   1.930   7.364  0.0700 -0.1937  0.1334
38556SOL    HW119166   4.168   1.946   7.447  1.0819  0.5441 -0.5399
38556SOL    HW219167   4.103   1.837   7.365  2.0730 -0.6355  0.2252
38557SOL     OW19168   4.191   0.502   0.043 -0.2530  0.1478 -0.1267
38557SOL    HW119169   4.149   0.423   0.079 -0.0131 -0.0686 -0.3188
38557SOL    HW219170   4.277   0.504   0.084 -1.0894  1.6003  1.6938
38558SOL     OW19171   5.270   1.799  10.174  0.6887  0.7055 -0.4317
38558SOL    HW119172   5.199   1.751  10.131  0.9977 -1.1762  1.0253
38558SOL    HW219173   5.244   1.891  10.169 -1.6098  0.1008 -0.3623
38559SOL     OW19174   2.655   4.959   8.287 -0.0851  0.6010  0.2780
38559SOL    HW119175   2.571   5.003   8.302 -0.5258 -0.3490  0.6244
38559SOL    HW219176   2.670   4.969   8.193  0.0267  1.8426  0.4052
38560SOL     OW19177   1.828   9.371   1.015 -0.1173  0.0422  0.2210
38560SOL    HW119178   1.879   9.314   1.074 -0.3073  0.1421  0.4799
38560SOL    HW219179   1.737   9.349   1.033 -0.1700 -0.2323 -0.3405
38561SOL     OW19180   9.219   9.254  10.769 -0.0464  0.2149 -0.1875
38561SOL    HW119181   9.260   9.172  10.796  0.3924  0.5830  0.2786
38561SOL    HW219182   9.199   9.299  10.850 -3.3274 -0.8361 -0.2701
38562SOL     OW19183   3.478   8.409   6.948 -0.8438  0.0481 -0.1933
38562SOL    HW119184   3.479   8.339   7.014  2.7118 -0.3750 -0.4820
38562SOL    HW219185   3.561   8.399   6.902  0.4890  5.1505  0.5397
38563SOL     OW19186   1.042   5.030   8.560 -0.1951  0.2390  0.3170
38563SOL    HW119187   1.037   4.958   8.622  0.7616 -2.5371 -2.5303
38563SOL    HW219188   0.960   5.026   8.511  0.1195  0.6580 -0.2609
38564SOL     OW19189   1.653  10.622   1.712 -0.0156 -0.5248  0.0092
38564SOL    HW119190   1.609  10.539   1.728  0.5118 -0.8239 -0.0767
38564SOL    HW219191   1.743  10.608   1.742 -0.3910  0.6112  1.7653
38565SOL     OW19192   4.004   6.292   0.635 -0.1231  0.0789  0.1328
38565SOL    HW119193   3.932   6.267   0.692  0.6039  1.3189  1.6615
38565SOL    HW219194   4.060   6.215   0.631 -1.1184 -0.6391 -0.4637
38566SOL     OW19195   1.811   5.141  10.814 -0.1401  0.2375 -0.1586
38566SOL    HW119196   1.767   5.071  10.861 -0.7301  0.4456 -0.3961
38566SOL    HW219197   1.816   5.111  10.724  1.0295 -0.1804  0.0197
38567SOL     OW19198   1.402  10.208   6.911  0.3089  0.1438  0.3042
38567SOL    HW119199   1.408  10.218   6.816  0.6304  1.4150  0.4346
38567SOL    HW219200   1.393  10.298   6.944  1.9947 -0.0958  1.5937
38568SOL     OW19201   0.833   9.414   8.613 -0.6777  0.0905  0.2358
38568SOL    HW119202   0.814   9.501   8.648 -0.0443 -0.4562  2.0646
38568SOL    HW219203   0.926   9.401   8.633  0.2752  0.4246 -3.3392
38569SOL     OW19204  10.303   3.815   7.205 -0.4818  0.4082  0.3004
38569SOL    HW119205  10.306   3.764   7.286 -3.2171 -0.1662  0.1360
38569SOL    HW219206  10.236   3.772   7.152 -0.3799  2.1184 -1.3272
38570SOL     OW19207   8.848   9.131   2.531  0.2466  0.1115 -0.5568
38570SOL    HW119208   8.829   9.223   2.553  0.5898 -0.1645  1.0769
38570SOL    HW219209   8.762   9.090   2.523  0.0929  0.5377 -1.1404
38571SOL     OW19210   1.872   6.888   0.962  0.0811 -0.1453  0.6970
38571SOL    HW119211   1.825   6.806   0.979 -0.0443  0.0241  1.1665
38571SOL    HW219212   1.934   6.866   0.892 -0.9805 -0.2720 -0.2419
38572SOL     OW19213   5.290   2.248   1.803 -0.1061 -0.2179 -0.1870
38572SOL    HW119214   5.316   2.225   1.892  1.3960  0.0430 -0.5132
38572SOL    HW219215   5.215   2.306   1.813  1.2137  1.3516  1.0254
38573SOL     OW19216   1.662   8.532   4.089  0.4068  0.0791  0.2942
38573SOL    HW119217   1.636   8.623   4.099  1.1262  0.3859 -0.4582
38573SOL    HW219218   1.599   8.483   4.141 -0.7949  0.8888 -0.3401
38574SOL     OW19219   5.844   2.797   9.498 -0.1512  0.0791  0.5808
38574SOL    HW119220   5.787   2.852   9.443  1.8055 -0.6832 -2.4435
38574SOL    HW219221   5.925   2.848   9.506  0.6183 -1.0724  0.2748
38575SOL     OW19222   7.964   3.171   6.732  0.5463 -0.1088 -0.4751
38575SOL    HW119223   8.057   3.184   6.747  0.6350 -0.7740 -0.4062
38575SOL    HW219224   7.931   3.257   6.704  0.9907  0.3626  0.4203
38576SOL     OW19225   5.192   3.828   6.004 -0.0767  0.2874 -0.3784
38576SOL    HW119226   5.101   3.841   6.031  0.3182  1.1785  0.5847
38576SOL    HW219227   5.242   3.889   6.058  0.9056  1.1049 -2.1293
38577SOL     OW19228   7.738   2.660  10.313 -0.1158  0.1468 -0.8029
38577SOL    HW119229   7.743   2.602  10.238  1.3577  1.0332 -1.4357
38577SOL    HW219230   7.697   2.608  10.382 -0.0401 -1.1876 -1.7451
38578SOL     OW19231   5.507   1.198   8.709  0.9858 -0.5123 -0.2485
38578SOL    HW119232   5.567   1.141   8.756  1.1013 -0.3374 -0.1807
38578SOL    HW219233   5.423   1.189   8.756  0.9070 -0.9027 -0.4588
38579SOL     OW19234   7.977   0.760   5.808 -0.3669  0.4149 -0.0115
38579SOL    HW119235   8.058   0.723   5.774  0.1880 -0.1201  1.7566
38579SOL    HW219236   7.990   0.763   5.903 -1.1360  3.4296  0.0890
38580SOL     OW19237   7.189   5.661   4.876 -0.1427 -0.4340  0.4480
38580SOL    HW119238   7.259   5.617   4.826  0.6170  1.4789 -0.2791
38580SOL    HW219239   7.108   5.633   4.834  0.4427  0.5151 -1.4272
38581SOL     OW19240   9.775   9.895   0.272 -0.4432 -0.6342 -0.2063
38581SOL    HW119241   9.859   9.935   0.247 -0.1742 -1.6402 -0.9958
38581SOL    HW219242   9.736   9.868   0.189 -0.3765 -2.4558  0.3177
38582SOL     OW19243   2.634  10.552   3.320 -0.1702  0.2499 -0.4808
38582SOL    HW119244   2.632  10.553   3.225  4.0741  0.1016 -0.7480
38582SOL    HW219245   2.644  10.460   3.343  1.2564  0.4735 -0.1069
38583SOL     OW19246   8.644   1.161   1.325 -0.0346  0.0071  0.9081
38583SOL    HW119247   8.580   1.104   1.283  0.3620 -0.6117  1.1249
38583SOL    HW219248   8.694   1.197   1.252  0.4491 -0.8214  0.8073
38584SOL     OW19249   5.681   7.247   2.201  0.0832 -0.2134  0.1985
38584SOL    HW119250   5.657   7.155   2.205 -0.1296 -0.2487 -1.2787
38584SOL    HW219251   5.622   7.290   2.263 -1.1443 -0.8191 -0.5047
38585SOL     OW19252   6.181  10.670   0.037  0.0298 -0.2720  0.5044
38585SOL    HW119253   6.118  10.719  -0.016 -0.5575 -0.3326  1.1380
38585SOL    HW219254   6.265  10.714   0.020 -0.3286  0.3708  0.3482
38586SOL     OW19255   0.865   6.999  10.838 -1.0446  0.1053  0.0580
38586SOL    HW119256   0.857   6.907  10.860  0.1482 -0.1497 -0.4916
38586SOL    HW219257   0.927   7.035  10.901 -0.1679  0.1196 -0.7876
38587SOL     OW19258  10.697   7.734   1.878 -0.0612 -0.6214 -0.2462
38587SOL    HW119259  10.604   7.716   1.891 -0.2766  0.4569 -0.2111
38587SOL    HW219260  10.735   7.725   1.966  0.0165 -1.8046 -0.3856
38588SOL     OW19261   2.388   6.434   1.760  0.0963  0.0498 -0.2283
38588SOL    HW119262   2.434   6.511   1.793 -0.5447 -0.0993  1.0376
38588SOL    HW219263   2.362   6.459   1.671 -4.2974  3.2767  1.6145
38589SOL     OW19264   5.591   7.739   0.557 -0.1975  0.1831  0.0359
38589SOL    HW119265   5.611   7.826   0.593  2.6157 -0.6701  0.8088
38589SOL    HW219266   5.555   7.690   0.631  0.9029 -0.1103  0.3937
38590SOL     OW19267   9.665   0.190   5.800 -0.6254  0.0189  0.3985
38590SOL    HW119268   9.746   0.180   5.749 -1.0670  0.5488 -0.4235
38590SOL    HW219269   9.616   0.110   5.782  0.1786 -0.8220  1.7843
38591SOL     OW19270   3.679   3.464   8.221  0.4011 -0.0937 -0.7211
38591SOL    HW119271   3.596   3.470   8.268  0.0463 -0.5799 -1.2702
38591SOL    HW219272   3.705   3.372   8.230  0.7538 -0.0002 -0.7618
38592SOL     OW19273   0.496   8.273   0.328  0.3272 -0.4419  0.3804
38592SOL    HW119274   0.590   8.288   0.323  0.3632 -0.3991  1.0716
38592SOL    HW219275   0.457   8.351   0.288  0.5834 -0.3872  0.2380
38593SOL     OW19276   7.724   8.807   4.818 -0.4086 -0.3008 -0.2416
38593SOL    HW119277   7.671   8.773   4.890 -0.8905 -1.4432 -1.0888
38593SOL    HW219278   7.665   8.806   4.742  0.7479 -1.4240 -1.1799
38594SOL     OW19279   7.241   8.257   9.511  0.3795  0.1608 -0.3775
38594SOL    HW119280   7.302   8.263   9.584  2.4455  1.6575 -2.0736
38594SOL    HW219281   7.269   8.179   9.462  0.2177  0.2306 -0.5864
38595SOL     OW19282  10.000   0.901  10.976 -0.8069 -0.1201  0.0862
38595SOL    HW119283  10.019   0.981  11.025 -1.6763  0.6702 -0.8323
38595SOL    HW219284  10.029   0.920  10.887 -0.2350 -1.1469  0.0423
38596SOL     OW19285  10.162   2.094   2.086 -0.4352 -0.0600 -0.2007
38596SOL    HW119286  10.238   2.111   2.030 -0.1609 -0.1168  0.1513
38596SOL    HW219287  10.183   2.013   2.131 -0.8181 -0.2088 -0.2914
38597SOL     OW19288   8.016   0.595   4.544  0.3229  0.1384 -0.0482
38597SOL    HW119289   8.098   0.580   4.497  0.5174  0.0043  0.3303
38597SOL    HW219290   7.953   0.537   4.501  0.2837  0.6712 -0.7178
38598SOL     OW19291   4.214  10.823  10.457 -0.3182  0.2694  0.2070
38598SOL    HW119292   4.136  10.870  10.485 -0.7378  0.6942 -1.5310
38598SOL    HW219293   4.186  10.731  10.452 -0.9352  0.4994 -1.0245
38599SOL     OW19294   5.278   4.678   1.196 -0.0157  0.5089  0.3544
38599SOL    HW119295   5.232   4.594   1.203  1.5116 -0.2724  1.3454
38599SOL    HW219296   5.298   4.687   1.103  0.9626 -0.8768  0.4143
38600SOL     OW19297   4.130   2.207  10.143  0.5464  0.3859  0.7790
38600SOL    HW119298   4.176   2.149  10.205  1.2305  0.2613  0.1749
38600SOL    HW219299   4.200   2.248  10.093  0.1139  2.4094  1.7462
38601SOL     OW19300   1.091   1.746   5.878 -0.3420  0.3002  0.3647
38601SOL    HW119301   1.126   1.706   5.958 -3.1352 -0.6120  1.2356
38601SOL    HW219302   1.011   1.789   5.906 -1.0144  0.5814 -1.8459
38602SOL     OW19303   5.632   4.165   3.335  0.3050 -0.0770 -0.1269
38602SOL    HW119304   5.589   4.093   3.289  0.6901  0.4642 -1.3717
38602SOL    HW219305   5.711   4.183   3.283 -1.3755  3.3864 -1.7665
38603SOL     OW19306  11.007   0.884   5.694 -0.0121 -0.0728  0.4178
38603SOL    HW119307  10.927   0.934   5.706 -0.6366 -0.7800 -0.6962
38603SOL    HW219308  11.022   0.883   5.600  1.2550 -0.0365  0.5996
38604SOL     OW19309   4.674   6.885   1.394  0.1465  0.0739 -0.3273
38604SOL    HW119310   4.636   6.857   1.311  1.4659 -0.0251 -0.9347
38604SOL    HW219311   4.671   6.980   1.391  0.7477  0.0880 -0.7861
38605SOL     OW19312  10.596   1.015   3.080  0.1802  0.4849 -0.1183
38605SOL    HW119313  10.627   1.060   3.002 -0.9596  1.8086  0.1410
38605SOL    HW219314  10.670   0.961   3.108  0.7854  0.3654 -1.7979
38606SOL     OW19315   3.900  10.968   5.875  0.2516  0.3009  0.4186
38606SOL    HW119316   3.818  10.921   5.859  0.6189 -1.0280  2.1009
38606SOL    HW219317   3.873  11.056   5.900 -0.5063  0.7212 -1.6637
38607SOL     OW19318   6.597   3.242   6.427  0.5650 -0.5084  0.2053
38607SOL    HW119319   6.673   3.235   6.370 -0.2295  0.5507 -1.0217
38607SOL    HW219320   6.527   3.197   6.380 -0.0688  0.2702  0.3801
38608SOL     OW19321   0.569   2.610   9.727  0.3333 -0.0171 -0.3540
38608SOL    HW119322   0.646   2.661   9.751  0.6410 -1.2110  1.4797
38608SOL    HW219323   0.504   2.675   9.701  1.1912  1.1984  0.4178
38609SOL     OW19324   1.758   8.849  10.499 -0.1077  0.2905  0.3180
38609SOL    HW119325   1.715   8.929  10.529  0.6899  1.0988 -0.6340
38609SOL    HW219326   1.784   8.868  10.409  0.7157 -0.7921  0.3064
38610SOL     OW19327   3.191   0.227   5.448 -0.1136  0.0086  0.3662
38610SOL    HW119328   3.285   0.241   5.436  0.1461 -1.1982  0.8753
38610SOL    HW219329   3.164   0.298   5.506  0.2066  1.1112 -0.7734
38611SOL     OW19330   5.156   4.033   1.006  0.0136 -0.2845  0.1729
38611SOL    HW119331   5.209   3.994   1.076 -0.2498 -0.5938  0.2006
38611SOL    HW219332   5.157   3.969   0.935  2.4731  1.1378 -1.1833
38612SOL     OW19333   4.641  10.336   1.716  0.1829 -0.4499 -0.0847
38612SOL    HW119334   4.670  10.422   1.689 -1.9309  0.7147  1.0662
38612SOL    HW219335   4.604  10.296   1.638  0.7110 -0.1194 -0.5049
38613SOL     OW19336   5.384   6.932   8.608 -0.4014 -0.0335  0.1016
38613SOL    HW119337   5.365   6.894   8.522 -0.1745 -0.3211  0.1771
38613SOL    HW219338   5.469   6.896   8.632  0.3151  1.3515 -0.2864
38614SOL     OW19339   4.139   3.478   5.164  0.2193 -0.0774  0.2602
38614SOL    HW119340   4.108   3.388   5.174 -0.8171  0.2709  0.3551
38614SOL    HW219341   4.065   3.524   5.122  0.0663  1.1073  1.7439
38615SOL     OW19342   1.304   3.702   9.431  0.1382 -0.0991  0.0528
38615SOL    HW119343   1.263   3.749   9.358  1.5460  1.6112  0.2998
38615SOL    HW219344   1.355   3.633   9.389  1.5735  1.3596 -0.7185
38616SOL     OW19345   2.697   7.300   3.860  0.9476  0.0011  0.3039
38616SOL    HW119346   2.716   7.247   3.782 -0.8698 -0.4578  0.1221
38616SOL    HW219347   2.603   7.318   3.853  1.2460  2.0367  1.1355
38617SOL     OW19348   4.579   4.427   6.330  0.0841 -0.6838  0.2561
38617SOL    HW119349   4.656   4.379   6.299  0.5785  1.2010 -1.6122
38617SOL    HW219350   4.532   4.452   6.250 -0.5077  1.3357  1.1709
38618SOL     OW19351   2.163   1.976  10.795  0.2230 -0.4915  0.5269
38618SOL    HW119352   2.213   2.037  10.849  1.8894 -1.5623  0.2584
38618SOL    HW219353   2.230   1.923  10.750 -1.1556 -2.4845  0.7092
38619SOL     OW19354  10.747   3.209   7.329  0.2593  0.2744  0.4606
38619SOL    HW119355  10.762   3.292   7.374  0.5709 -0.1063  1.0631
38619SOL    HW219356  10.834   3.176   7.309  0.2194  1.9308 -3.2768
38620SOL     OW19357   5.272   1.212   9.198  0.5269 -1.0992  0.6726
38620SOL    HW119358   5.272   1.257   9.114 -0.1772 -1.7225  0.3351
38620SOL    HW219359   5.363   1.217   9.228  0.8250 -1.0601 -0.2227
38621SOL     OW19360   3.561   0.104   8.863 -0.0312  0.1674  0.3339
38621SOL    HW119361   3.640   0.051   8.870  0.9263  1.5390  0.2794
38621SOL    HW219362   3.537   0.124   8.953  0.3566  0.6909  0.3271
38622SOL     OW19363   4.642  10.392   8.620  0.5418  0.9245 -0.1208
38622SOL    HW119364   4.550  10.402   8.645  0.5627  1.7767 -0.3562
38622SOL    HW219365   4.690  10.410   8.700  0.5568  2.2006 -0.4042
38623SOL     OW19366   7.973   7.357   2.042  0.1787 -0.4263 -0.4369
38623SOL    HW119367   7.936   7.445   2.033  0.4093 -0.4595 -2.0365
38623SOL    HW219368   7.921   7.316   2.111  0.7100  1.2814  1.0518
38624SOL     OW19369   7.718   1.443   0.986 -0.3411  0.3019  0.3604
38624SOL    HW119370   7.733   1.533   1.015 -0.3408  0.7560 -0.9511
38624SOL    HW219371   7.707   1.451   0.891  1.1650 -1.2689  0.0099
38625SOL     OW19372   1.370   0.792   4.383  0.0377 -0.4364 -0.1692
38625SOL    HW119373   1.381   0.727   4.453 -0.0903 -1.1533 -0.7924
38625SOL    HW219374   1.279   0.781   4.355 -0.5697  1.3299  0.9698
38626SOL     OW19375   0.556   2.196   8.006 -0.5161 -0.1407 -0.0505
38626SOL    HW119376   0.554   2.181   7.912 -0.2821 -1.1884  0.0958
38626SOL    HW219377   0.552   2.108   8.044 -1.8701  0.3264  0.9413
38627SOL     OW19378   9.495   7.280   4.210  0.5029  0.1974 -0.5563
38627SOL    HW119379   9.536   7.212   4.158 -1.0240 -1.3693  0.1790
38627SOL    HW219380   9.566   7.317   4.262  1.3421 -1.0170 -0.8026
38628SOL     OW19381  10.041   9.106   2.352  0.1114 -0.2926  0.7095
38628SOL    HW119382  10.123   9.062   2.373  0.5339  1.0438  2.0759
38628SOL    HW219383  10.020   9.156   2.431 -0.8160  1.1856 -0.4228
38629SOL     OW19384   4.279   7.411  10.704 -0.0455  0.6979 -0.6850
38629SOL    HW119385   4.354   7.451  10.750  0.1320 -0.0331 -0.3222
38629SOL    HW219386   4.257   7.335  10.757 -2.8751  2.4145  0.8123
38630SOL     OW19387   0.315   1.492   3.359  0.4251  0.1350 -0.4037
38630SOL    HW119388   0.354   1.530   3.438 -0.0459  0.9154 -0.5357
38630SOL    HW219389   0.342   1.400   3.361  3.7498  0.9456 -1.3821
38631SOL     OW19390  10.530   4.050   0.289  0.3430  0.8154 -0.2405
38631SOL    HW119391  10.467   3.988   0.325  2.2792 -0.9742  0.3370
38631SOL    HW219392  10.576   4.085   0.365 -0.7426  3.0735 -0.5611
38632SOL     OW19393   8.173   6.508   3.056  0.1635 -0.1850  0.4047
38632SOL    HW119394   8.235   6.568   3.014 -0.3929 -0.6088 -1.0720
38632SOL    HW219395   8.112   6.566   3.103  0.6075  0.3229  0.3619
38633SOL     OW19396   6.392   2.694   6.932 -0.2035  0.1474  0.6438
38633SOL    HW119397   6.439   2.716   6.851 -0.9428  2.7007  0.8164
38633SOL    HW219398   6.359   2.606   6.917  3.4923 -1.3265  0.0118
38634SOL     OW19399   6.935   8.830   8.728 -0.7634  0.1988 -0.3609
38634SOL    HW119400   6.924   8.918   8.692 -0.0977  1.0398  1.3949
38634SOL    HW219401   6.975   8.844   8.814 -1.2492 -1.7880  0.2324
38635SOL     OW19402   8.553   1.451   2.670  0.4480  0.0576  0.6311
38635SOL    HW119403   8.474   1.431   2.620 -0.6340  0.5946  2.0508
38635SOL    HW219404   8.602   1.510   2.613 -0.6855  0.5470  0.1139
38636SOL     OW19405   8.991   5.356   5.263 -0.4292  0.0043 -0.9159
38636SOL    HW119406   9.074   5.400   5.283 -0.9983  0.8670 -0.3957
38636SOL    HW219407   8.929   5.428   5.247 -0.7338 -0.6202 -2.8348
38637SOL     OW19408   4.706  10.006   0.834 -0.1626  0.3424  0.2870
38637SOL    HW119409   4.778  10.038   0.779 -0.3940  0.3726 -0.0011
38637SOL    HW219410   4.634  10.067   0.819 -0.3364  0.1613  0.3704
38638SOL     OW19411   4.212   2.295   4.672  0.2329  0.0224 -0.1706
38638SOL    HW119412   4.207   2.387   4.698  2.0540  0.1359 -0.1060
38638SOL    HW219413   4.226   2.247   4.753  0.4891 -0.1821 -0.3324
38639SOL     OW19414  10.727   4.703  10.355  0.3282 -0.5338 -0.4178
38639SOL    HW119415  10.735   4.739  10.266  1.5690 -1.9868 -0.9185
38639SOL    HW219416  10.632   4.697  10.369  0.0745  1.4963 -0.8594
38640SOL     OW19417  10.512   7.245   9.493 -0.2871  0.2574 -0.7482
38640SOL    HW119418  10.579   7.290   9.441  1.3545 -0.0967  0.9340
38640SOL    HW219419  10.560   7.212   9.569 -2.1272 -1.3272 -0.2162
38641SOL     OW19420   0.967   9.810  10.807  0.0903 -0.0775  0.1294
38641SOL    HW119421   0.971   9.900  10.841  1.6650  0.2680 -0.8438
38641SOL    HW219422   0.941   9.757  10.881 -0.0815  1.0932  0.9342
38642SOL     OW19423   1.442   3.823  10.472  0.1030  0.1588 -0.8066
38642SOL    HW119424   1.517   3.867  10.432  0.5787 -0.1327 -0.2375
38642SOL    HW219425   1.396   3.893  10.519  0.0475  0.3249 -1.1026
38643SOL     OW19426  10.094   9.170   4.699  0.0735 -0.2778 -0.1824
38643SOL    HW119427  10.118   9.248   4.649  0.5160 -1.1127 -1.3162
38643SOL    HW219428  10.120   9.097   4.643 -1.3455 -1.2468  0.3845
38644SOL     OW19429   9.868   2.634   5.580  0.1811  0.0713  0.0456
38644SOL    HW119430   9.896   2.555   5.532  0.9007  0.0161  0.5285
38644SOL    HW219431   9.775   2.621   5.595 -0.0607  0.0822 -1.3137
38645SOL     OW19432   4.158   8.722  10.775 -0.1654  0.1400 -0.1316
38645SOL    HW119433   4.157   8.816  10.789  0.8231  0.2213 -0.5401
38645SOL    HW219434   4.075   8.691  10.813 -0.5845  1.1832 -0.1680
38646SOL     OW19435   1.521   1.498   5.103 -0.7064  0.0053 -0.8726
38646SOL    HW119436   1.501   1.406   5.083 -1.9794  0.2578 -0.8945
38646SOL    HW219437   1.458   1.548   5.050 -1.6320  0.7993  0.8673
38647SOL     OW19438   4.555   9.764   7.438 -0.4311  0.1237  0.0308
38647SOL    HW119439   4.619   9.713   7.389  0.1048  0.9133 -0.1183
38647SOL    HW219440   4.483   9.777   7.376 -0.1961  0.2653 -0.2177
38648SOL     OW19441   7.668   1.834   2.744 -0.2096 -0.3603  0.0807
38648SOL    HW119442   7.751   1.808   2.784 -0.1161 -2.2980 -1.2424
38648SOL    HW219443   7.667   1.789   2.659 -1.2687  1.9880 -1.2671
38649SOL     OW19444   4.022   8.134   8.030 -0.5084  0.0940 -0.6168
38649SOL    HW119445   3.937   8.157   8.066 -1.0467 -1.1917 -1.0071
38649SOL    HW219446   4.013   8.043   8.002  1.2599 -0.3741  0.1358
38650SOL     OW19447   9.327   1.581   2.698  0.6669 -0.4863 -0.6983
38650SOL    HW119448   9.278   1.638   2.638 -0.5396  1.9246  2.3062
38650SOL    HW219449   9.279   1.498   2.696 -2.2101  0.9950  0.2329
38651SOL     OW19450   0.579   8.909   9.264  0.0803 -0.1438  0.0471
38651SOL    HW119451   0.580   8.837   9.200 -1.8870  0.5479 -0.8520
38651SOL    HW219452   0.622   8.873   9.342 -2.7141 -3.1174  0.4235
38652SOL     OW19453   2.565   2.752   0.701  0.4950  0.4783 -0.1110
38652SOL    HW119454   2.529   2.791   0.781 -0.1379  0.0916 -0.2068
38652SOL    HW219455   2.490   2.711   0.658  1.3064 -1.9836  0.6265
38653SOL     OW19456   8.097  10.737   5.895  0.2162 -0.3327 -0.2032
38653SOL    HW119457   8.068  10.794   5.824 -3.4253  1.1294  2.1538
38653SOL    HW219458   8.077  10.649   5.864 -0.3867  0.1836 -1.3583
38654SOL     OW19459   7.153   1.682   8.696 -0.8315 -0.0640  0.5511
38654SOL    HW119460   7.168   1.605   8.750  1.2549  0.2679  0.5463
38654SOL    HW219461   7.169   1.652   8.606  0.8040  0.5169  0.6201
38655SOL     OW19462   8.082   9.678   7.115  0.4187  0.3399 -0.4297
38655SOL    HW119463   8.038   9.714   7.038  1.5737  2.5295 -0.1343
38655SOL    HW219464   8.039   9.720   7.190  0.0987 -0.8609  0.0814
38656SOL     OW19465   9.578   0.914   1.530 -0.6071 -0.2886  0.2467
38656SOL    HW119466   9.500   0.964   1.553 -1.2729 -2.0248  2.0339
38656SOL    HW219467   9.642   0.938   1.597  0.9924  2.1760 -1.9739
38657SOL     OW19468   3.594   2.103   8.864  0.0963  0.5186  0.3459
38657SOL    HW119469   3.563   2.033   8.806 -1.1050  0.4912  0.9888
38657SOL    HW219470   3.666   2.144   8.816 -0.0211 -0.3388 -0.5954
38658SOL     OW19471   7.593   9.251   1.673 -0.0251 -0.5847 -0.0148
38658SOL    HW119472   7.526   9.245   1.741  1.5432 -1.0298  1.5737
38658SOL    HW219473   7.645   9.328   1.696 -1.3338  1.2410 -2.6046
38659SOL     OW19474   9.850   3.691  10.198  0.1851 -0.0886  0.0430
38659SOL    HW119475   9.939   3.666  10.176  0.2117 -0.9408  1.0048
38659SOL    HW219476   9.811   3.611  10.234 -1.4451 -0.1502 -1.6863
38660SOL     OW19477   7.380   0.798   8.513  0.3112 -0.0005 -0.3899
38660SOL    HW119478   7.442   0.726   8.504  0.2582 -0.3283  1.4969
38660SOL    HW219479   7.300   0.757   8.547  0.2709  0.9166  0.6765
38661SOL     OW19480   8.731   1.321   2.429 -0.3494 -0.0860 -0.1264
38661SOL    HW119481   8.678   1.282   2.360 -0.9353  1.3599 -0.5394
38661SOL    HW219482   8.800   1.368   2.383 -0.2314  0.1685  0.3029
38662SOL     OW19483   7.113  10.297   9.298 -0.1447 -0.0773  0.5531
38662SOL    HW119484   7.072  10.240   9.233 -0.1365 -0.9372  1.2847
38662SOL    HW219485   7.081  10.265   9.382  0.6828  0.3408  1.0405
38663SOL     OW19486   8.618   5.877   9.177  0.1530 -0.1626 -0.0256
38663SOL    HW119487   8.598   5.900   9.268  0.3752 -1.5880  0.4078
38663SOL    HW219488   8.541   5.905   9.128 -0.4940 -0.4739  0.7841
38664SOL     OW19489   9.960   4.723   1.240  0.9425  0.3221  0.1146
38664SOL    HW119490  10.019   4.737   1.315  0.0993 -0.8671  1.0423
38664SOL    HW219491   9.874   4.711   1.279  0.5233 -0.5856 -1.0328
38665SOL     OW19492   4.970   6.282   8.049  0.1276  0.0225 -0.1976
38665SOL    HW119493   4.998   6.347   7.984 -0.3274 -0.5380 -0.9687
38665SOL    HW219494   4.877   6.299   8.062  0.6444  1.5767  2.0130
38666SOL     OW19495  10.211   2.897   4.000 -0.1834  0.2100 -0.3022
38666SOL    HW119496  10.118   2.918   4.008  0.1994  1.7477  0.4057
38666SOL    HW219497  10.227   2.832   4.069 -0.9424 -0.9179 -1.1576
38667SOL     OW19498   3.835   1.792   7.474 -0.2273  0.0584 -0.5446
38667SOL    HW119499   3.762   1.737   7.503 -0.4017  0.8365  0.5548
38667SOL    HW219500   3.901   1.782   7.542  1.0204 -1.1706 -1.8596
38668SOL     OW19501   3.130   3.141   6.046  0.6221 -0.5505  0.0148
38668SOL    HW119502   3.203   3.145   6.107  0.9111  0.2891 -0.3782
38668SOL    HW219503   3.063   3.197   6.085  1.3115  1.0980 -1.0821
38669SOL     OW19504   8.893   9.042   5.381  0.1448  0.3206  0.6653
38669SOL    HW119505   8.988   9.043   5.372  0.2701  1.7812  1.7686
38669SOL    HW219506   8.860   9.051   5.291  0.9498 -2.6361 -0.0238
38670SOL     OW19507   0.283   5.745   5.786  0.4379 -0.8873 -0.0269
38670SOL    HW119508   0.214   5.682   5.809  2.0850 -3.1011 -0.8073
38670SOL    HW219509   0.324   5.766   5.870 -1.8779  1.4751  0.6444
38671SOL     OW19510  10.706  10.564   5.146 -0.3228  0.2769  0.5987
38671SOL    HW119511  10.763  10.621   5.197  0.3726  0.4708 -0.3720
38671SOL    HW219512  10.697  10.608   5.061 -2.6753  0.7319  1.0099
38672SOL     OW19513   5.079   5.037   7.975  0.2154  0.7847 -0.3282
38672SOL    HW119514   5.026   5.095   8.031 -0.2013  0.0118  0.0871
38672SOL    HW219515   5.087   5.085   7.893  0.2548  1.6331  0.1547
38673SOL     OW19516   5.368   4.210   0.939 -0.2509 -0.1801 -0.0643
38673SOL    HW119517   5.341   4.266   1.012 -0.1291 -2.7848  2.1129
38673SOL    HW219518   5.315   4.131   0.948  1.7898 -1.7547 -1.0827
38674SOL     OW19519  10.992   0.735   3.318 -0.5652 -0.8809 -0.2654
38674SOL    HW119520  10.941   0.693   3.387  1.4859 -1.8621  0.7657
38674SOL    HW219521  11.068   0.772   3.363 -0.5706  0.9731 -1.6436
38675SOL     OW19522   0.026   7.003   4.495 -0.5103 -0.2304  0.0264
38675SOL    HW119523   0.057   7.033   4.410 -1.2426 -1.2530 -0.6353
38675SOL    HW219524   0.103   6.966   4.537  0.1250  1.4166  0.3459
38676SOL     OW19525   9.101   8.510   7.691 -0.0741  0.2838  0.1271
38676SOL    HW119526   9.090   8.444   7.623 -0.2747  0.3499  0.0935
38676SOL    HW219527   9.065   8.469   7.770  0.7765 -0.0462  0.3487
38677SOL     OW19528   9.727   0.672   9.345 -0.4946 -0.2074 -0.0950
38677SOL    HW119529   9.702   0.595   9.396 -1.6771  0.1607 -0.0856
38677SOL    HW219530   9.644   0.706   9.312 -0.1061  1.6156  0.6988
38678SOL     OW19531   0.526   8.106   0.847 -0.1773  0.2771 -0.4592
38678SOL    HW119532   0.615   8.100   0.881 -0.8212 -1.9694  1.1051
38678SOL    HW219533   0.535   8.140   0.759  2.1109  1.1548  0.0558
38679SOL     OW19534  10.678   5.220   4.719  0.0099 -0.3488  0.2350
38679SOL    HW119535  10.718   5.238   4.804  0.0898  0.3795  0.0540
38679SOL    HW219536  10.747   5.242   4.655  0.1084 -1.3160 -0.0105
38680SOL     OW19537   9.782   2.963   8.619 -0.0314 -0.4054  0.2216
38680SOL    HW119538   9.816   2.919   8.541  0.6269  0.4990 -0.0222
38680SOL    HW219539   9.752   3.048   8.587  0.3099  0.0038  0.9694
38681SOL     OW19540   5.685   4.431  10.057 -0.4930 -0.0112 -0.0681
38681SOL    HW119541   5.703   4.525  10.055 -1.6387  0.2493  0.7821
38681SOL    HW219542   5.669   4.407   9.966 -2.2976  1.0664 -0.0788
38682SOL     OW19543   1.305   9.762   3.782 -0.0105 -0.2352  0.0146
38682SOL    HW119544   1.369   9.811   3.832  0.5702 -0.9013 -0.0573
38682SOL    HW219545   1.340   9.673   3.778 -1.3738 -0.8450  0.7461
38683SOL     OW19546   1.377   6.676   9.742  0.2356  0.0254 -0.1691
38683SOL    HW119547   1.339   6.737   9.678 -0.0818 -1.0862 -1.0895
38683SOL    HW219548   1.426   6.732   9.802 -0.2556  1.2078 -0.8161
38684SOL     OW19549   7.248   4.033   4.074  0.0580 -0.4805 -0.1322
38684SOL    HW119550   7.205   4.027   3.989 -0.2368 -0.9202  0.0517
38684SOL    HW219551   7.325   4.089   4.057 -0.7971  0.6701 -0.3636
38685SOL     OW19552   6.851   6.333   7.354  0.0704  0.6279 -0.2253
38685SOL    HW119553   6.934   6.363   7.390  0.0716 -0.0227  0.3137
38685SOL    HW219554   6.788   6.400   7.381 -0.0875 -0.2358  1.7155
38686SOL     OW19555   1.912   1.216   2.305  0.3339 -0.4096 -0.2051
38686SOL    HW119556   1.877   1.305   2.298 -0.5428 -0.4969  2.0790
38686SOL    HW219557   1.837   1.159   2.284 -0.6239 -0.5734  3.0570
38687SOL     OW19558   1.792   1.554   4.951  0.2378 -0.2294  0.6923
38687SOL    HW119559   1.709   1.513   4.977 -0.0375  0.1769  0.4594
38687SOL    HW219560   1.766   1.636   4.910  0.8458  1.0378  2.6957
38688SOL     OW19561   9.055   5.094   4.248 -0.0037  0.5172 -0.5084
38688SOL    HW119562   9.066   5.110   4.342 -1.5569  1.2916 -0.4287
38688SOL    HW219563   9.059   4.999   4.239  2.6225  0.4941 -0.0393
38689SOL     OW19564   8.375   6.853   8.858 -0.1714  0.7744  0.7894
38689SOL    HW119565   8.460   6.874   8.897  0.3366  0.4205 -0.0924
38689SOL    HW219566   8.327   6.807   8.927 -0.1848  2.1664  1.7557
38690SOL     OW19567   5.923   6.840   9.815  0.0833 -0.4684  0.0037
38690SOL    HW119568   5.923   6.812   9.724 -0.0155 -0.0184 -0.1372
38690SOL    HW219569   5.831   6.839   9.841  0.0041  0.3895 -0.2153
38691SOL     OW19570   0.867   2.163   3.079  0.0610 -0.3864  0.3085
38691SOL    HW119571   0.934   2.098   3.056  0.0787  0.1216 -1.2020
38691SOL    HW219572   0.847   2.207   2.996  0.0775  1.5885  1.2966
38692SOL     OW19573   7.016   0.796   9.539 -0.1334 -0.4218 -0.0484
38692SOL    HW119574   7.094   0.751   9.572 -1.0060 -0.1582  2.5222
38692SOL    HW219575   6.945   0.733   9.551 -0.4251 -0.6236 -2.2948
38693SOL     OW19576   2.843   0.969   4.813 -0.1174  0.1495  0.2012
38693SOL    HW119577   2.766   0.914   4.795  1.2559 -1.4060 -1.3355
38693SOL    HW219578   2.810   1.042   4.865 -2.1880 -1.7870  1.7744
38694SOL     OW19579   0.485   6.448  10.702  0.3034 -0.5400  0.8958
38694SOL    HW119580   0.428   6.508  10.750  0.8356  0.0900  0.7457
38694SOL    HW219581   0.484   6.481  10.612 -0.8657 -1.8376  0.3929
38695SOL     OW19582   9.174   7.379  10.865  0.2344 -0.2218 -0.0796
38695SOL    HW119583   9.198   7.406  10.776 -0.5331  0.6807 -0.0318
38695SOL    HW219584   9.095   7.429  10.884 -0.3570 -1.4019  0.6253
38696SOL     OW19585   1.904   6.398   5.396  0.2769  0.0374 -0.6031
38696SOL    HW119586   1.858   6.349   5.464  2.2822 -2.5480 -0.9749
38696SOL    HW219587   1.834   6.435   5.342 -1.3294 -0.4456  1.0351
38697SOL     OW19588   5.765  10.257   2.958  0.4886  0.4064  0.8366
38697SOL    HW119589   5.838  10.263   2.895 -1.5212  2.2789 -1.5357
38697SOL    HW219590   5.711  10.185   2.925 -0.1541  0.8535  0.8948
38698SOL     OW19591   0.086   3.645   9.154  0.8335  0.0638  0.0511
38698SOL    HW119592   0.102   3.561   9.111 -1.5717 -1.0791  1.1581
38698SOL    HW219593   0.143   3.643   9.231 -0.8340 -1.7418  1.3664
38699SOL     OW19594   0.673   4.160   8.426 -0.3779  0.1184  0.3512
38699SOL    HW119595   0.762   4.156   8.391  0.0892 -1.4783  1.5932
38699SOL    HW219596   0.624   4.213   8.362  1.3252  0.5955 -0.6141
38700SOL     OW19597   7.568   2.981   3.095 -0.1629 -0.3268  0.1074
38700SOL    HW119598   7.620   3.031   3.159 -2.0345  1.8189  0.0835
38700SOL    HW219599   7.547   2.899   3.140  0.9508 -0.0802  1.1346
38701SOL     OW19600   6.761   2.504   5.577 -0.0803  0.3490  0.1607
38701SOL    HW119601   6.736   2.472   5.664  0.1116  0.7044  0.3497
38701SOL    HW219602   6.844   2.460   5.559 -0.6183 -0.4911 -0.2758
38702SOL     OW19603  10.068   0.997   6.350 -0.1752  0.4509  0.3702
38702SOL    HW119604  10.085   0.912   6.310 -1.0151  1.5645 -2.6466
38702SOL    HW219605   9.984   0.987   6.394  0.1796 -0.5108  0.8578
38703SOL     OW19606   5.317   0.682   0.390  0.0176  0.5463 -0.7742
38703SOL    HW119607   5.265   0.642   0.460  1.5265 -0.4313 -0.1635
38703SOL    HW219608   5.256   0.743   0.348 -1.7324 -0.7894 -0.3359
38704SOL     OW19609   3.996   0.176   8.459 -0.0358  0.4095  0.1900
38704SOL    HW119610   3.918   0.214   8.419  0.9611  2.3532 -0.0342
38704SOL    HW219611   3.991   0.082   8.439 -2.4143  0.4418  0.4174
38705SOL     OW19612   1.471   8.960   4.692 -0.4432 -0.2875 -0.1624
38705SOL    HW119613   1.553   9.004   4.667 -0.1777 -0.7403 -0.1048
38705SOL    HW219614   1.482   8.944   4.786  0.0312 -1.6501 -0.4289
38706SOL     OW19615   1.427   3.599   9.029 -0.1353  0.1275 -0.2739
38706SOL    HW119616   1.347   3.625   8.983 -0.8173 -0.2573  0.6711
38706SOL    HW219617   1.468   3.535   8.970 -0.7450  0.0029 -0.5699
38707SOL     OW19618   9.641   0.124   9.277 -0.8807  0.2945 -0.3177
38707SOL    HW119619   9.593   0.064   9.220  0.4108  0.1837 -1.3277
38707SOL    HW219620   9.577   0.150   9.344 -1.7238 -1.5125 -0.3585
38708SOL     OW19621   7.146   0.419   2.746 -0.0668  0.3331  0.2893
38708SOL    HW119622   7.079   0.480   2.716  0.4561  0.4879 -0.5999
38708SOL    HW219623   7.113   0.387   2.830 -0.8283  1.0672  0.2850
38709SOL     OW19624   7.847  10.870   6.970  0.0035 -0.5192  0.2445
38709SOL    HW119625   7.777  10.807   6.983 -0.0143 -0.4700  0.3868
38709SOL    HW219626   7.807  10.941   6.919 -0.6029  0.4728  2.0274
38710SOL     OW19627   2.431   3.375   6.379 -0.1763 -0.2182  0.0683
38710SOL    HW119628   2.476   3.459   6.365 -1.4531  0.5439  0.3332
38710SOL    HW219629   2.401   3.379   6.470 -1.3881 -0.3697 -0.3074
38711SOL     OW19630   5.576   2.589   4.924  0.0050 -0.3525  0.5513
38711SOL    HW119631   5.538   2.538   4.852  1.7465 -0.2980 -0.4403
38711SOL    HW219632   5.501   2.636   4.962 -0.9225 -0.1865 -1.3871
38712SOL     OW19633   7.598   6.948   7.008 -0.4099  0.1531  0.2212
38712SOL    HW119634   7.650   6.995   6.943 -2.6467  0.9437 -1.1049
38712SOL    HW219635   7.577   6.864   6.966 -0.3698 -0.0848  0.6709
38713SOL     OW19636   7.424   9.308   7.622  0.3307  0.1451 -0.4469
38713SOL    HW119637   7.460   9.325   7.709 -0.3571 -0.8518  0.0476
38713SOL    HW219638   7.501   9.292   7.568  0.6919 -1.3138  0.4488
38714SOL     OW19639   9.729   6.223   1.385 -0.7613  0.3744 -0.3593
38714SOL    HW119640   9.717   6.261   1.472 -1.4397 -1.9660  0.6447
38714SOL    HW219641   9.823   6.208   1.378 -0.3856  2.5534 -1.0052
38715SOL     OW19642   9.881   9.673   3.413  0.1593 -0.1356  0.2362
38715SOL    HW119643   9.965   9.656   3.456 -0.4455 -1.8897  0.8124
38715SOL    HW219644   9.904   9.722   3.334  1.6537 -0.0355  0.7029
38716SOL     OW19645   8.170   4.590   3.649 -0.1369  0.6838 -0.0706
38716SOL    HW119646   8.217   4.638   3.717 -0.4716 -1.2015  1.5656
38716SOL    HW219647   8.089   4.561   3.691  0.1858 -1.5387 -0.8707
38717SOL     OW19648   7.474   9.747   2.549 -0.2764 -0.0514  0.0725
38717SOL    HW119649   7.477   9.837   2.517 -1.3898  0.6238  1.7147
38717SOL    HW219650   7.464   9.756   2.644 -2.1903 -1.8575  0.1250
38718SOL     OW19651   2.329   4.914   7.407 -0.5963  0.0067  0.0668
38718SOL    HW119652   2.249   4.922   7.356 -0.2383  0.1447 -0.4862
38718SOL    HW219653   2.344   5.003   7.441 -0.4398  0.0902 -0.2095
38719SOL     OW19654   4.155   0.182   6.709  0.2125  0.1828 -0.0799
38719SOL    HW119655   4.159   0.155   6.617  1.5526  1.0297 -0.3018
38719SOL    HW219656   4.114   0.269   6.706  0.0452  0.1119  0.1456
38720SOL     OW19657   3.049   9.593   0.258  0.1055  0.1283 -0.2199
38720SOL    HW119658   2.989   9.540   0.205  1.5086  0.1509 -1.9547
38720SOL    HW219659   3.084   9.533   0.323  1.6139 -1.1951 -2.1013
38721SOL     OW19660   9.719   8.033   8.534  0.4441  0.7497  0.7469
38721SOL    HW119661   9.661   8.086   8.588  0.1214 -0.1607  1.3113
38721SOL    HW219662   9.663   7.997   8.465  0.6414  1.0451  0.4250
38722SOL     OW19663   5.833  10.749   5.599 -0.1403 -0.3908 -0.3621
38722SOL    HW119664   5.806  10.761   5.690  0.1971  1.0600 -0.4262
38722SOL    HW219665   5.837  10.838   5.563  0.0330 -0.9194 -1.7058
38723SOL     OW19666   5.100   7.892   9.940 -0.1894 -0.0245  0.0963
38723SOL    HW119667   5.186   7.866   9.907  0.3265  0.9816  0.5851
38723SOL    HW219668   5.038   7.850   9.881  0.6548 -0.2056 -0.6858
38724SOL     OW19669   4.003   7.299   3.843  0.3517 -0.3373  0.1206
38724SOL    HW119670   4.040   7.361   3.780 -0.4649  1.2068  1.0803
38724SOL    HW219671   3.964   7.230   3.789 -1.4994  1.5995 -1.1770
38725SOL     OW19672   2.587   1.379   0.505 -0.0042 -0.2137 -0.0464
38725SOL    HW119673   2.508   1.387   0.558  0.1390 -0.1911  0.1627
38725SOL    HW219674   2.566   1.312   0.440 -1.1649  1.6180 -1.7065
38726SOL     OW19675   3.432   6.706   3.692 -0.1089 -0.4838  0.3276
38726SOL    HW119676   3.462   6.651   3.620 -0.7698  0.9576 -1.1228
38726SOL    HW219677   3.348   6.669   3.718  0.2269 -1.1298  0.5186
38727SOL     OW19678   5.623   5.812   4.387 -0.0027 -0.0139 -0.1351
38727SOL    HW119679   5.671   5.894   4.373 -0.3486  0.7174  2.4868
38727SOL    HW219680   5.655   5.754   4.318  1.4082  1.8301 -1.1229
38728SOL     OW19681   9.691   4.426   1.518  0.0037 -0.2050  0.2252
38728SOL    HW119682   9.719   4.429   1.609 -1.3664  0.0819  0.6544
38728SOL    HW219683   9.599   4.401   1.521  0.2950 -1.6586 -1.1655
38729SOL     OW19684   1.549   9.621   4.957  0.7356 -0.5342 -0.1187
38729SOL    HW119685   1.535   9.659   5.044 -3.9415 -1.4446 -0.2129
38729SOL    HW219686   1.578   9.532   4.974 -0.3554 -0.7777  0.5984
38730SOL     OW19687   0.302   3.389   2.005 -1.1237 -0.3020  0.6377
38730SOL    HW119688   0.371   3.340   2.048  1.5678  0.7151 -2.1772
38730SOL    HW219689   0.259   3.325   1.948  0.9931  0.0198 -1.4470
38731SOL     OW19690   1.426   0.454   4.439 -0.2523 -0.3390  0.1878
38731SOL    HW119691   1.341   0.410   4.428 -0.5093  0.1500  0.1921
38731SOL    HW219692   1.410   0.522   4.505 -0.1737  0.5772 -0.7161
38732SOL     OW19693   0.870   5.273   8.993 -0.1420  0.0156  0.3206
38732SOL    HW119694   0.794   5.298   9.045 -0.9947 -2.7237  0.5029
38732SOL    HW219695   0.932   5.236   9.056 -0.4939 -1.7746 -0.3385
38733SOL     OW19696   3.602   3.659   9.903 -0.0003  0.4063 -0.2968
38733SOL    HW119697   3.609   3.590   9.969 -3.4121 -0.0800 -0.2807
38733SOL    HW219698   3.597   3.740   9.953  0.8489  0.4030 -0.1807
38734SOL     OW19699   9.663   1.829   2.197  0.4368  0.4405  0.3318
38734SOL    HW119700   9.725   1.757   2.202 -0.6423 -0.6273 -1.1094
38734SOL    HW219701   9.718   1.907   2.186  1.5300 -0.5326 -1.4662
38735SOL     OW19702   8.711  10.404   0.308  0.3603  0.0685 -0.5370
38735SOL    HW119703   8.618  10.384   0.295  0.0846 -0.3049  1.7128
38735SOL    HW219704   8.757  10.341   0.253 -0.6841  0.7357 -2.2606
38736SOL     OW19705   3.910   1.819  10.326 -0.5038  0.1389  0.1549
38736SOL    HW119706   3.974   1.747  10.323 -0.2314  0.3920 -1.6545
38736SOL    HW219707   3.960   1.894  10.356 -0.3918 -0.0561  0.4648
38737SOL     OW19708   4.933   8.602   6.093  0.4108  0.0120 -0.4399
38737SOL    HW119709   4.878   8.578   6.019 -0.9063  3.3933 -0.7149
38737SOL    HW219710   5.017   8.626   6.054  0.3193  0.0406 -0.6187
38738SOL     OW19711   0.535   4.255   0.094  0.3703  0.4495  0.2781
38738SOL    HW119712   0.528   4.200   0.172 -0.2286  0.9434  0.5829
38738SOL    HW219713   0.586   4.203   0.032  1.5239  0.3534  1.2721
38739SOL     OW19714   3.936   8.553   9.899  0.2932 -0.0618  0.3075
38739SOL    HW119715   3.943   8.596   9.813 -0.2028  0.8175  0.6900
38739SOL    HW219716   3.929   8.626   9.961 -2.6148 -0.6280  0.8159
38740SOL     OW19717   0.671   8.552   7.269 -0.0218  0.5751 -0.5107
38740SOL    HW119718   0.618   8.533   7.346 -0.1014  0.1621 -0.6685
38740SOL    HW219719   0.727   8.475   7.258 -1.0721 -0.0499 -1.7559
38741SOL     OW19720   8.822  10.685  10.010 -0.4545  0.1358  0.1646
38741SOL    HW119721   8.782  10.754   9.957 -0.3850 -1.4352 -2.0239
38741SOL    HW219722   8.881  10.732  10.069 -2.2800  2.1370  0.5120
38742SOL     OW19723   3.337   7.611  10.370 -0.5123  0.2069  0.4779
38742SOL    HW119724   3.431   7.624  10.370 -0.4366 -0.3287  0.3990
38742SOL    HW219725   3.321   7.547  10.439 -0.6151 -1.0492 -0.6728
38743SOL     OW19726   4.231   5.598   0.729 -0.7656  0.2912  0.2616
38743SOL    HW119727   4.235   5.531   0.661 -1.1431  1.4528 -0.9440
38743SOL    HW219728   4.189   5.554   0.803 -1.4215 -0.6802 -0.6489
38744SOL     OW19729   5.700   1.987   1.466 -0.1754  0.2889 -0.5554
38744SOL    HW119730   5.784   1.940   1.467 -0.1455  0.2953  1.2187
38744SOL    HW219731   5.711   2.054   1.399  0.7507 -0.5462 -1.2747
38745SOL     OW19732   7.990   1.227   6.337 -0.3284  0.2647  0.1565
38745SOL    HW119733   7.896   1.233   6.320 -0.6090 -1.2518  1.0532
38745SOL    HW219734   8.002   1.276   6.418 -0.1519  1.3342 -0.4929
38746SOL     OW19735   8.904   2.711   9.540 -0.5352  0.1220 -0.1290
38746SOL    HW119736   8.980   2.708   9.599 -0.6331  0.0117 -0.0037
38746SOL    HW219737   8.932   2.664   9.462 -0.6172 -0.3032  0.0930
38747SOL     OW19738   9.976   1.583   0.349 -0.3529  0.1278 -0.5525
38747SOL    HW119739   9.884   1.587   0.376 -0.2910  2.2919 -0.4991
38747SOL    HW219740   9.974   1.594   0.254 -0.1011  1.8548 -0.3869
38748SOL     OW19741   0.157   8.471   9.860  1.0674  0.4109 -0.0998
38748SOL    HW119742   0.143   8.377   9.860  0.5829  0.4769 -0.8280
38748SOL    HW219743   0.089   8.505   9.919  3.1897  0.0717  2.7611
38749SOL     OW19744   0.230   8.541   4.191  0.3457 -0.3082 -0.5203
38749SOL    HW119745   0.195   8.453   4.208  1.3528 -0.8137 -0.9258
38749SOL    HW219746   0.308   8.546   4.246  0.9541 -0.1338 -1.3660
38750SOL     OW19747   3.147   1.076  10.240 -1.1933 -0.1984 -0.4121
38750SOL    HW119748   3.216   1.127  10.281 -1.8620  0.4586 -0.0735
38750SOL    HW219749   3.141   0.996  10.294 -0.9724 -0.0720 -0.1993
38751SOL     OW19750   5.574   6.393   5.785 -0.1172 -0.2448  0.3701
38751SOL    HW119751   5.580   6.396   5.690 -2.9489  1.8061  0.1391
38751SOL    HW219752   5.627   6.467   5.814  0.6042 -0.7676  0.4330
38752SOL     OW19753   4.377   5.825   1.635 -0.6086  0.2062  0.7005
38752SOL    HW119754   4.414   5.875   1.708  1.6280  1.2436 -1.0057
38752SOL    HW219755   4.421   5.741   1.639  0.8340  0.8642 -0.3697
38753SOL     OW19756   2.352  10.319   3.666  0.8771  0.1465  0.9453
38753SOL    HW119757   2.278  10.343   3.610  2.0515  2.0771  0.1015
38753SOL    HW219758   2.314  10.310   3.754 -0.7556 -1.4856  0.1188
38754SOL     OW19759   8.765   5.881   4.944 -0.3740  0.2272 -0.2925
38754SOL    HW119760   8.795   5.853   4.857 -1.0456  1.3937 -0.9236
38754SOL    HW219761   8.837   5.936   4.977  1.2155 -2.5481  1.2033
38755SOL     OW19762   9.418   1.494   2.989 -0.0441  0.3364  0.2464
38755SOL    HW119763   9.393   1.499   2.896  0.7350  2.6961  0.0963
38755SOL    HW219764   9.386   1.409   3.018 -1.2046 -0.0358 -1.9278
38756SOL     OW19765   5.912   1.606   0.371  0.2359  0.5164  0.2082
38756SOL    HW119766   5.852   1.627   0.299  0.1043  0.9520  0.4457
38756SOL    HW219767   5.920   1.510   0.367 -1.1443  0.3483  0.6972
38757SOL     OW19768   4.755   1.220   0.429 -0.0162  0.0398 -0.3175
38757SOL    HW119769   4.769   1.137   0.474 -1.1039  0.1817  0.3158
38757SOL    HW219770   4.779   1.287   0.493  0.6230  0.2243 -0.7427
38758SOL     OW19771   9.219   9.915   3.781  0.7082  0.1316  0.2515
38758SOL    HW119772   9.223   9.970   3.859 -1.5641 -1.6695  1.7696
38758SOL    HW219773   9.292   9.854   3.791  1.8025  1.3074 -0.2530
38759SOL     OW19774   8.716   9.630   5.085  0.3570  0.5778 -0.0920
38759SOL    HW119775   8.801   9.594   5.061  0.8535  0.7566  1.3361
38759SOL    HW219776   8.724   9.724   5.069 -0.0468  0.4312 -1.2566
38760SOL     OW19777   5.209   0.551   3.422 -0.6834  0.3253  0.6240
38760SOL    HW119778   5.285   0.501   3.452  0.5116  0.4469 -1.9595
38760SOL    HW219779   5.211   0.630   3.476  0.0046 -0.4317  1.7550
38761SOL     OW19780   9.978   3.804   2.298 -0.0158  0.3002 -0.9345
38761SOL    HW119781   9.941   3.765   2.218 -1.6289  1.1572 -0.6435
38761SOL    HW219782   9.934   3.889   2.306 -0.1563  0.0939  1.0442
38762SOL     OW19783   6.150   3.692   1.594 -0.1204 -0.2908 -0.1733
38762SOL    HW119784   6.071   3.745   1.609  0.0614  0.2013 -0.8973
38762SOL    HW219785   6.124   3.603   1.617 -0.5589  0.0442  0.6627
38763SOL     OW19786   8.526  10.742   5.315 -0.3277  0.0421 -0.0907
38763SOL    HW119787   8.567  10.827   5.329  0.8939 -0.4386 -0.5731
38763SOL    HW219788   8.598  10.679   5.325 -1.3092 -0.9745  0.7788
38764SOL     OW19789   7.809   8.317   1.587  0.2006  0.0782  0.4793
38764SOL    HW119790   7.715   8.333   1.590  0.3095  0.7518  0.5911
38764SOL    HW219791   7.829   8.305   1.494  0.0959  0.5605  0.3908
38765SOL     OW19792   9.045   0.734   6.469  0.3956 -0.3000 -0.7456
38765SOL    HW119793   9.067   0.812   6.520 -2.5018  0.4864 -0.4778
38765SOL    HW219794   9.028   0.667   6.535  0.2794 -0.3696 -0.8471
38766SOL     OW19795   2.007   6.817   1.337 -0.3796 -0.1582 -0.5069
38766SOL    HW119796   1.914   6.827   1.353 -0.1998 -1.5953  1.9927
38766SOL    HW219797   2.015   6.733   1.292 -0.2479 -0.9921  0.9742
38767SOL     OW19798  10.955   0.276   4.861  0.1503 -0.3847  0.3692
38767SOL    HW119799  10.949   0.181   4.866 -1.3184 -0.2862  1.1125
38767SOL    HW219800  10.951   0.296   4.768 -1.2748 -0.9801  0.2823
38768SOL     OW19801   6.854   6.863   9.946 -0.5291  0.1365  0.1628
38768SOL    HW119802   6.868   6.943   9.995 -0.0179 -1.1569  2.2372
38768SOL    HW219803   6.935   6.814   9.955 -0.8386 -0.6627 -1.0282
38769SOL     OW19804   6.639   7.028   5.388 -0.5952  0.2158  0.1796
38769SOL    HW119805   6.608   7.116   5.368  0.1606  0.1205 -1.7221
38769SOL    HW219806   6.660   6.991   5.302  2.4791 -0.5296  1.1276
38770SOL     OW19807  10.924   3.970   8.531 -0.1715  0.2691 -0.2269
38770SOL    HW119808  10.838   3.929   8.533 -0.3599  0.6742  0.2914
38770SOL    HW219809  10.936   4.003   8.620  0.4330  0.3904 -0.3534
38771SOL     OW19810   6.745   9.398   1.678 -0.4399 -0.3159  0.1459
38771SOL    HW119811   6.822   9.342   1.688 -0.8257 -0.9640 -0.4146
38771SOL    HW219812   6.727   9.397   1.584  0.2126  1.6826 -0.0390
38772SOL     OW19813   9.745   7.779  10.628  0.6094 -0.2844 -0.1386
38772SOL    HW119814   9.809   7.732  10.575 -0.0693 -1.5430  0.1087
38772SOL    HW219815   9.748   7.735  10.713  0.4885  0.6251  0.3517
38773SOL     OW19816   3.495  10.778   0.595 -0.0738  0.8278  0.3756
38773SOL    HW119817   3.551  10.807   0.667  0.3730  0.3689  0.2161
38773SOL    HW219818   3.466  10.859   0.553  0.8205  1.0609  0.1929
38774SOL     OW19819   5.159   5.834   5.389  0.1047  0.2206  0.2498
38774SOL    HW119820   5.103   5.809   5.462 -0.0610 -0.3016 -0.0563
38774SOL    HW219821   5.143   5.928   5.378  0.2580  0.3406  0.9878
38775SOL     OW19822   8.479   5.276   6.100  0.1115  0.2993 -0.0543
38775SOL    HW119823   8.440   5.202   6.146 -1.3479  0.7505 -0.5225
38775SOL    HW219824   8.490   5.343   6.167  2.4343 -0.6443  0.6103
38776SOL     OW19825   4.024   6.859   3.957 -0.1748 -0.6105  0.2863
38776SOL    HW119826   3.960   6.806   4.004 -1.6630  1.1062  0.3198
38776SOL    HW219827   4.098   6.866   4.017 -0.2369 -2.0451  0.5471
38777SOL     OW19828   2.320   2.681   0.139 -0.0365 -0.5419 -0.3611
38777SOL    HW119829   2.411   2.688   0.112 -0.4548  0.8214 -1.5472
38777SOL    HW219830   2.295   2.591   0.118  1.2569 -1.2107  0.8224
38778SOL     OW19831   1.831   8.957   5.481  0.6303 -0.2103 -0.3120
38778SOL    HW119832   1.834   9.015   5.558 -0.2714 -0.7533  0.1495
38778SOL    HW219833   1.921   8.926   5.472  0.5179 -1.1901  1.3777
38779SOL     OW19834   8.215   7.255   0.580 -0.9074  0.4816 -0.6018
38779SOL    HW119835   8.219   7.234   0.487 -1.3890 -1.7084 -0.1836
38779SOL    HW219836   8.145   7.199   0.615 -1.0189  1.5387  1.0202
38780SOL     OW19837   9.237   1.455   7.937 -0.2137  0.1399 -0.3195
38780SOL    HW119838   9.157   1.436   7.888 -1.0857 -0.3454  1.2325
38780SOL    HW219839   9.210   1.518   8.004  0.7435  0.0762  0.1413
38781SOL     OW19840   8.482   2.190   8.186  0.2497  0.0362 -0.1288
38781SOL    HW119841   8.461   2.205   8.093 -1.7909  0.9552  0.4201
38781SOL    HW219842   8.467   2.097   8.199  0.1558 -0.0238 -0.6320
38782SOL     OW19843   9.638   4.992   4.532 -0.3625 -0.4986  0.0699
38782SOL    HW119844   9.717   4.962   4.577 -0.8474 -1.6794  0.1843
38782SOL    HW219845   9.567   4.948   4.578 -1.0440  0.1769 -0.3357
38783SOL     OW19846   1.916   0.013   4.035 -0.2581 -0.1332 -1.1371
38783SOL    HW119847   1.902  -0.042   4.112  0.2187 -1.1665 -1.7676
38783SOL    HW219848   1.829   0.022   3.995 -0.3724 -0.2481 -0.9163
38784SOL     OW19849   7.933   0.805   9.451  0.4713  0.4922 -0.0858
38784SOL    HW119850   7.854   0.754   9.472  0.4224  1.0578  1.2144
38784SOL    HW219851   7.935   0.874   9.518  2.0172  0.5516 -0.1691
38785SOL     OW19852   2.419   0.038   0.946  0.1492  0.2608 -0.4741
38785SOL    HW119853   2.425  -0.054   0.919 -1.8443 -0.2346  0.6039
38785SOL    HW219854   2.491   0.048   1.008 -1.0150 -1.3289  1.2597
38786SOL     OW19855   7.913   9.933   3.167 -0.4514  0.3093 -0.2118
38786SOL    HW119856   8.001   9.900   3.153 -1.1317 -1.0338 -1.5255
38786SOL    HW219857   7.926  10.022   3.200  1.3797  0.1977 -0.5501
38787SOL     OW19858   1.111   6.632   0.614 -0.4725 -0.0081 -0.3143
38787SOL    HW119859   1.147   6.714   0.647 -2.8591  0.8369  0.4134
38787SOL    HW219860   1.188   6.579   0.592  1.1667  2.5347 -1.1745
38788SOL     OW19861   2.818   3.406   5.838 -0.3051 -0.0382  0.1827
38788SOL    HW119862   2.886   3.403   5.771 -0.0608 -1.4173  0.4661
38788SOL    HW219863   2.762   3.478   5.811  0.2952  0.0202 -1.0051
38789SOL     OW19864   3.468  10.885   4.517  0.0314 -0.7507 -0.0939
38789SOL    HW119865   3.413  10.841   4.582 -0.8486  1.0190  0.4318
38789SOL    HW219866   3.472  10.824   4.444 -1.7703 -1.3858  0.2921
38790SOL     OW19867   9.453   0.437  10.317  0.0731 -0.1730  0.2029
38790SOL    HW119868   9.396   0.514  10.311 -0.5350 -0.5912  0.5522
38790SOL    HW219869   9.534   0.465  10.274 -0.1809  0.6222  0.2123
38791SOL     OW19870   9.072   6.554   4.398 -0.4905 -0.0321  0.5703
38791SOL    HW119871   9.127   6.541   4.320  0.8196  0.6012  1.3539
38791SOL    HW219872   8.983   6.559   4.364  0.2088  2.4410 -1.1681
38792SOL     OW19873   6.262   9.757   1.284  0.2026  0.0535  0.1421
38792SOL    HW119874   6.276   9.802   1.367 -2.6428  0.2058  0.6488
38792SOL    HW219875   6.292   9.820   1.218 -2.4017  2.2906  0.8930
38793SOL     OW19876  10.906  10.752   0.013  0.4153 -0.0936 -0.4063
38793SOL    HW119877  10.917  10.841   0.048 -1.5903 -0.2872  0.8839
38793SOL    HW219878  10.820  10.754  -0.029 -0.8774 -2.0537  1.9155
38794SOL     OW19879   5.775   0.986   5.652  0.4278 -1.4820 -0.2202
38794SOL    HW119880   5.802   0.954   5.565  2.1276 -0.7506 -0.0102
38794SOL    HW219881   5.753   0.907   5.701  0.5453 -1.9981 -0.9818
38795SOL     OW19882   4.645   6.848   5.186 -0.2602 -0.4619  0.2711
38795SOL    HW119883   4.730   6.880   5.217 -0.4274  0.5981 -0.2939
38795SOL    HW219884   4.581   6.907   5.227 -0.4752  1.1248 -2.1137
38796SOL     OW19885   3.702   3.064   1.995  0.0293  0.2700 -0.1241
38796SOL    HW119886   3.753   3.066   2.075  0.6963  1.2332 -0.5534
38796SOL    HW219887   3.715   3.150   1.956 -2.0629  0.6308 -0.1637
38797SOL     OW19888   2.732   2.630   4.549  0.3581 -0.2810 -0.1621
38797SOL    HW119889   2.805   2.585   4.507  0.1962 -0.4684 -0.2498
38797SOL    HW219890   2.656   2.575   4.529  0.0096  0.4901 -1.0191
38798SOL     OW19891  10.070   5.832   6.191  0.6371 -0.0206 -0.3532
38798SOL    HW119892  10.125   5.758   6.214  0.2369 -0.2628 -0.1829
38798SOL    HW219893  10.066   5.830   6.095  2.4316  1.0856 -0.5128
38799SOL     OW19894   2.406   7.263   5.647  0.0371 -0.6033  0.1132
38799SOL    HW119895   2.472   7.279   5.715 -0.3888 -2.4973  1.0342
38799SOL    HW219896   2.322   7.274   5.692 -0.2669 -0.4285 -0.4838
38800SOL     OW19897   9.252   0.487   8.046  0.5410 -0.4000  0.4964
38800SOL    HW119898   9.195   0.420   8.083  1.5819 -1.2243  0.6523
38800SOL    HW219899   9.238   0.564   8.101  0.0511 -0.7853  0.9158
38801SOL     OW19900   3.884   9.877   9.154  0.8707 -0.0990 -0.4599
38801SOL    HW119901   3.871   9.966   9.120  4.6571  0.6820 -0.3106
38801SOL    HW219902   3.950   9.838   9.096  0.5354 -2.2056  0.4761
38802SOL     OW19903  10.203   1.486   6.333  0.1447 -0.4558 -0.2517
38802SOL    HW119904  10.200   1.572   6.374 -0.2342 -0.2629 -0.6814
38802SOL    HW219905  10.250   1.431   6.396 -0.3427 -0.1360  0.4007
38803SOL     OW19906   7.134   5.441   5.942 -0.3904  0.0350 -0.3310
38803SOL    HW119907   7.057   5.498   5.949 -0.2873  0.2934 -1.2177
38803SOL    HW219908   7.128   5.384   6.019 -2.1389 -0.7545 -0.9872
38804SOL     OW19909   3.486   9.517   5.177  0.5612  0.3316  0.3604
38804SOL    HW119910   3.481   9.452   5.247  0.7304  1.1529  1.1584
38804SOL    HW219911   3.444   9.595   5.213  0.5957  0.7529 -0.4771
38805SOL     OW19912   0.033   4.994   4.121 -0.4899  0.6609  0.0852
38805SOL    HW119913   0.001   4.914   4.163 -2.0910  2.3118  2.2515
38805SOL    HW219914   0.121   4.972   4.092 -0.7679 -1.7848  0.8408
38806SOL     OW19915   8.210   0.460   1.576 -0.5784 -0.0632 -0.4862
38806SOL    HW119916   8.283   0.425   1.525 -2.4931 -1.5033 -2.4270
38806SOL    HW219917   8.191   0.391   1.640  0.2595  0.6693  0.5659
38807SOL     OW19918  10.951   8.429   3.989 -0.1184  0.6600 -0.1122
38807SOL    HW119919  10.962   8.516   4.025  2.2876  0.0578  0.7690
38807SOL    HW219920  10.969   8.370   4.062 -1.9674 -0.6251 -0.6062
38808SOL     OW19921   6.504   2.498   6.632  0.8348 -0.4215 -0.2587
38808SOL    HW119922   6.539   2.587   6.632 -1.6749  0.6371 -0.6962
38808SOL    HW219923   6.469   2.485   6.544  1.8090 -2.1826 -0.4525
38809SOL     OW19924   0.177   4.495   5.231  0.4968 -0.3270 -0.1558
38809SOL    HW119925   0.100   4.518   5.283  0.6716 -0.6060  0.2286
38809SOL    HW219926   0.153   4.517   5.141 -0.6165 -1.8889 -0.2624
38810SOL     OW19927   0.310  10.805   5.260  0.0913  0.0707 -0.1867
38810SOL    HW119928   0.401  10.775   5.266  0.1216  0.3838  1.2187
38810SOL    HW219929   0.258  10.724   5.266  0.2485  0.0226  0.7024
38811SOL     OW19930   9.210   8.173   1.638 -0.2727  0.3181 -0.9274
38811SOL    HW119931   9.126   8.213   1.616 -1.0547 -0.9900 -0.4225
38811SOL    HW219932   9.249   8.232   1.703 -0.5533  1.1868 -1.5204
38812SOL     OW19933   2.082   2.676   2.929 -0.0843 -0.4969  0.2786
38812SOL    HW119934   2.015   2.616   2.896  0.7560 -1.8872  1.0040
38812SOL    HW219935   2.158   2.659   2.874 -0.0158  0.3733  0.0909
38813SOL     OW19936  10.371   3.267   5.181  0.2703  0.2579 -0.1624
38813SOL    HW119937  10.367   3.301   5.091  1.4346  0.8895  0.0135
38813SOL    HW219938  10.461   3.236   5.191 -0.3003 -1.3873  0.2404
38814SOL     OW19939   7.335   1.341   7.571 -0.2738  0.7160 -0.2629
38814SOL    HW119940   7.261   1.354   7.511  0.0957  0.7045 -0.7333
38814SOL    HW219941   7.394   1.282   7.523 -0.7031 -0.5784  0.7699
38815SOL     OW19942   0.326   1.380   9.593  0.0309 -0.3731  0.0066
38815SOL    HW119943   0.249   1.343   9.549  0.5227  0.9150 -2.1360
38815SOL    HW219944   0.320   1.474   9.576  2.2362 -0.2651 -0.5677
38816SOL     OW19945  10.376   6.781  10.888  0.1879  0.3651  0.5897
38816SOL    HW119946  10.437   6.845  10.925 -0.0929  0.6150  0.6296
38816SOL    HW219947  10.396   6.780  10.794  1.6365 -1.0734  0.8811
38817SOL     OW19948  10.771   6.995   9.910 -0.5774 -0.1872  0.5068
38817SOL    HW119949  10.862   7.012   9.885 -0.4888 -0.7714  0.4231
38817SOL    HW219950  10.727   6.976   9.827 -0.5265 -1.0278  0.6680
38818SOL     OW19951   1.705   6.241   9.160 -0.0818  0.9166 -0.2615
38818SOL    HW119952   1.677   6.241   9.252 -0.5783 -0.8855 -0.3700
38818SOL    HW219953   1.742   6.328   9.146 -2.4518  2.2194  0.8949
38819SOL     OW19954   7.044   7.610   9.360  0.0400  0.9835  0.0723
38819SOL    HW119955   6.959   7.653   9.366  0.1193  1.2920 -0.8328
38819SOL    HW219956   7.062   7.580   9.449 -0.9510  1.0300  0.3035
38820SOL     OW19957   3.900   0.262   5.188  0.2029 -0.1876  0.1517
38820SOL    HW119958   3.922   0.245   5.096  1.0504 -0.8099  0.4545
38820SOL    HW219959   3.819   0.214   5.202 -0.1230  0.2089 -0.3710
38821SOL     OW19960   0.845   2.002   8.005  0.4464 -0.4192 -0.1485
38821SOL    HW119961   0.894   1.985   7.925 -0.2961  0.7650 -0.8869
38821SOL    HW219962   0.876   2.088   8.033 -2.2116  1.0809 -1.4754
38822SOL     OW19963   0.690   7.991   0.262  0.0037 -0.1532 -0.4856
38822SOL    HW119964   0.725   8.074   0.296  1.3497 -0.7991 -0.2357
38822SOL    HW219965   0.603   7.985   0.300  0.0166  0.9813 -0.2240
38823SOL     OW19966   0.964   6.287   5.355  0.0670 -0.0372 -0.7678
38823SOL    HW119967   0.916   6.292   5.437 -0.2610  2.0111 -1.0311
38823SOL    HW219968   0.934   6.363   5.305  3.2749  1.1886 -1.0842
38824SOL     OW19969   3.383   1.696   5.717  0.5566  0.8156 -0.3874
38824SOL    HW119970   3.381   1.652   5.632 -0.9828  2.1895 -1.1158
38824SOL    HW219971   3.332   1.639   5.774 -0.6006  1.1206 -1.0775
38825SOL     OW19972  10.959   7.952   6.702  0.0563 -0.3464  0.1080
38825SOL    HW119973  10.876   7.906   6.686 -1.5243  0.8586  3.8409
38825SOL    HW219974  10.939   8.045   6.686 -0.1198  0.2446  3.2016
38826SOL     OW19975   8.396   7.332   6.479 -0.1518 -0.2959 -0.5282
38826SOL    HW119976   8.380   7.359   6.389  0.9377  0.5757 -0.4888
38826SOL    HW219977   8.433   7.410   6.521 -2.1523 -0.1730  1.1347
38827SOL     OW19978   3.323   6.725   9.304  0.1196  0.3254 -0.8969
38827SOL    HW119979   3.401   6.746   9.356  0.4041  0.7853 -1.4966
38827SOL    HW219980   3.268   6.674   9.363 -0.0764  1.8084  0.2534
38828SOL     OW19981   6.909   4.652   7.707  0.6663  0.0174  0.3303
38828SOL    HW119982   6.928   4.574   7.759 -0.0648 -0.6878 -0.4279
38828SOL    HW219983   6.994   4.685   7.680  0.9453 -1.2457 -0.3798
38829SOL     OW19984  10.897   7.572   0.795 -0.3338 -0.8076  0.5213
38829SOL    HW119985  10.921   7.615   0.877  1.7785  2.0842 -1.4282
38829SOL    HW219986  10.805   7.595   0.781 -0.4173 -0.4808  1.5489
38830SOL     OW19987   1.900   6.009   3.920  0.2680  0.3157 -0.5974
38830SOL    HW119988   1.923   6.049   3.836  2.3258 -0.0892 -0.2772
38830SOL    HW219989   1.972   6.033   3.979 -0.0078 -1.2539  0.4412
38831SOL     OW19990   8.281   4.757   5.511  0.1890  0.6406 -0.1825
38831SOL    HW119991   8.206   4.801   5.550  1.2394  2.3517  0.0167
38831SOL    HW219992   8.296   4.681   5.568 -1.2010  0.4367 -0.0705
38832SOL     OW19993   2.849   1.184   8.505  0.6434 -0.3553  0.4983
38832SOL    HW119994   2.884   1.202   8.418 -0.6247  2.6616  0.5123
38832SOL    HW219995   2.820   1.093   8.500 -1.0947  0.2320 -2.9024
38833SOL     OW19996   2.256   3.810   3.201  0.3754  0.0894  0.2177
38833SOL    HW119997   2.213   3.726   3.219 -0.2586  0.9307  3.3172
38833SOL    HW219998   2.200   3.875   3.245  3.6564  1.4681  2.8238
38834SOL     OW19999   9.702   4.227   1.139 -0.0990 -0.0284  0.3249
38834SOL    HW120000   9.618   4.236   1.184 -0.1487  1.3163  0.0203
38834SOL    HW220001   9.682   4.175   1.061 -0.5906  0.0218  0.4174
38835SOL     OW20002   6.444   0.351   2.735  0.4882 -0.2033  0.5767
38835SOL    HW120003   6.430   0.303   2.817 -0.9370  0.2597  0.6236
38835SOL    HW220004   6.365   0.334   2.684 -0.1639  2.2362  0.6688
38836SOL     OW20005   5.371   3.961   9.774 -0.1359  0.0292  0.9159
38836SOL    HW120006   5.327   4.046   9.773 -1.9272 -0.7910 -1.8142
38836SOL    HW220007   5.451   3.976   9.824 -1.1499  2.8893  1.8706
38837SOL     OW20008   6.932   8.329   6.936 -0.6178 -0.3701 -0.3512
38837SOL    HW120009   6.841   8.303   6.946  0.0221 -3.0731 -0.6860
38837SOL    HW220010   6.952   8.310   6.844  0.0294  1.2172 -0.5738
38838SOL     OW20011   3.131   6.548   3.088  0.0656 -0.1171  0.0130
38838SOL    HW120012   3.040   6.546   3.118 -0.4020  0.4680 -1.2759
38838SOL    HW220013   3.167   6.464   3.115 -0.9955 -0.5475  0.1445
38839SOL     OW20014   2.998   4.030   4.989  0.0289 -0.3406  0.3160
38839SOL    HW120015   3.062   3.985   5.044  0.7331 -0.8108 -0.8460
38839SOL    HW220016   2.935   4.067   5.051  0.1600 -1.8004  1.3657
38840SOL     OW20017   5.810  10.609  10.257 -0.3296 -0.5511 -0.2408
38840SOL    HW120018   5.733  10.654  10.291 -0.1001 -0.4677  0.1759
38840SOL    HW220019   5.803  10.520  10.293  0.3956 -0.2042  0.8020
38841SOL     OW20020   1.718   0.346   0.262  0.0081  0.0116 -0.8022
38841SOL    HW120021   1.721   0.378   0.352 -0.1234 -2.7634  0.2924
38841SOL    HW220022   1.633   0.374   0.229 -1.1235 -1.1937  0.9241
38842SOL     OW20023   5.036   8.623   6.676 -0.2196 -0.2693  0.4420
38842SOL    HW120024   5.040   8.687   6.746 -0.7872 -1.7443  1.8777
38842SOL    HW220025   4.957   8.646   6.626  0.3235  0.9304  0.1116
38843SOL     OW20026   6.616   3.066   9.114  0.5885 -0.2081 -0.3899
38843SOL    HW120027   6.665   3.052   9.196  0.1101  0.4210  0.0137
38843SOL    HW220028   6.616   2.980   9.072  0.4086 -0.6724  0.5194
38844SOL     OW20029   4.445   7.429   5.282 -0.3460  0.1800  0.5584
38844SOL    HW120030   4.494   7.457   5.359 -0.4807  2.6270 -0.1770
38844SOL    HW220031   4.511   7.388   5.226  0.0512 -0.1843  1.2719
38845SOL     OW20032   2.525   4.356   8.359  0.4256  0.1546  0.1196
38845SOL    HW120033   2.567   4.425   8.411 -0.8295 -0.1701  1.5963
38845SOL    HW220034   2.435   4.385   8.349  0.1756 -0.7256 -0.2635
38846SOL     OW20035   3.224   4.289   0.799 -0.7095 -0.1450  0.1858
38846SOL    HW120036   3.303   4.313   0.848  0.7185 -3.2281 -0.3689
38846SOL    HW220037   3.248   4.299   0.707 -0.9329 -1.1614  0.0075
38847SOL     OW20038   8.601   0.832  10.925 -0.2792  0.0388 -0.2467
38847SOL    HW120039   8.518   0.785  10.937 -0.5658  0.5322 -0.2812
38847SOL    HW220040   8.667   0.763  10.925 -0.7421 -0.4200 -0.7868
38848SOL     OW20041   4.755   4.282   6.601  0.1912  0.2890  0.0700
38848SOL    HW120042   4.827   4.248   6.547  0.3566  2.1596 -0.9562
38848SOL    HW220043   4.675   4.254   6.554  0.2713 -0.2451  0.2420
38849SOL     OW20044   9.572   6.382   0.042  0.2743 -0.3996  0.1954
38849SOL    HW120045   9.594   6.296   0.007 -0.3812 -0.0955 -1.0271
38849SOL    HW220046   9.491   6.367   0.092 -0.7672 -0.2564 -1.3512
38850SOL     OW20047   5.184   8.458   8.171  0.0724 -0.2172  0.5068
38850SOL    HW120048   5.113   8.500   8.123 -0.4654 -0.2680  1.2243
38850SOL    HW220049   5.184   8.368   8.140  1.1647  0.2590 -0.9647
38851SOL     OW20050   9.436  10.379   4.647 -0.3206 -0.3405  0.3787
38851SOL    HW120051   9.352  10.337   4.630 -1.4353  2.2558 -1.1722
38851SOL    HW220052   9.415  10.448   4.710  0.6102  0.4208 -0.1238
38852SOL     OW20053   0.002   6.934   9.261 -0.1077 -0.0152  0.1192
38852SOL    HW120054  -0.063   7.004   9.275 -0.4897 -0.1448 -0.9059
38852SOL    HW220055  -0.050   6.854   9.263  0.1673 -0.1881  0.2337
38853SOL     OW20056   0.685   6.847   7.610  0.1443  0.7632 -0.4794
38853SOL    HW120057   0.732   6.766   7.590 -0.0803  0.6818 -0.6859
38853SOL    HW220058   0.690   6.855   7.705 -3.5877 -1.8495  0.1500
38854SOL     OW20059   3.507   6.099   7.400  0.3292 -0.0712 -0.0520
38854SOL    HW120060   3.457   6.017   7.411  1.9946 -1.1018  0.1684
38854SOL    HW220061   3.472   6.137   7.320  0.4737 -1.7380 -0.9614
38855SOL     OW20062  10.131   1.890   2.295 -0.2569  0.1900 -0.0719
38855SOL    HW120063  10.142   1.798   2.271 -0.4220  0.6319 -1.9663
38855SOL    HW220064  10.208   1.909   2.349  0.4877 -0.7162 -0.7744
38856SOL     OW20065   7.888   5.194   1.431 -0.2649 -0.2273  0.1289
38856SOL    HW120066   7.973   5.156   1.451 -0.4434 -1.4483 -1.2504
38856SOL    HW220067   7.907   5.286   1.412  0.9960 -0.7658 -1.5034
38857SOL     OW20068   5.125   6.097   7.577 -0.0214 -0.0293 -0.5419
38857SOL    HW120069   5.217   6.077   7.559 -0.0606 -0.1992 -0.5549
38857SOL    HW220070   5.085   6.012   7.592 -0.2270  0.0264 -0.7679
38858SOL     OW20071   0.074   8.983   7.897 -0.2449  0.1328  0.2266
38858SOL    HW120072   0.015   9.010   7.968 -0.3901 -0.4511  0.3339
38858SOL    HW220073   0.019   8.930   7.839  0.4669 -1.5333  1.0099
38859SOL     OW20074   8.921   7.861   6.767  0.3602 -0.3603  0.0774
38859SOL    HW120075   8.991   7.797   6.755 -1.6393 -2.3942 -1.5895
38859SOL    HW220076   8.878   7.835   6.849  0.7679  0.1325  0.4564
38860SOL     OW20077   3.843   2.568   0.188  0.4831  0.1942 -0.0751
38860SOL    HW120078   3.884   2.609   0.265  0.2201  3.6928 -1.6157
38860SOL    HW220079   3.751   2.595   0.193  0.1405 -0.7695 -0.8871
38861SOL     OW20080   5.183   2.470   6.042 -0.1559  0.3980 -0.1246
38861SOL    HW120081   5.275   2.493   6.047 -0.3176  1.0797 -0.1853
38861SOL    HW220082   5.177   2.409   5.969 -0.0428  1.9199 -1.4674
38862SOL     OW20083   5.479   9.801   2.608  0.0404  0.1609  0.2732
38862SOL    HW120084   5.456   9.745   2.683 -0.1197 -0.4977 -0.2544
38862SOL    HW220085   5.574   9.805   2.609  0.0785 -0.4746  0.0798
38863SOL     OW20086   8.354   6.457   0.972 -0.2552  0.1707 -0.7733
38863SOL    HW120087   8.260   6.471   0.958 -0.2773  0.6939 -0.1478
38863SOL    HW220088   8.397   6.523   0.917 -0.2783  0.5200 -0.3742
38864SOL     OW20089   4.930   4.337  10.389  0.0185  0.4706  0.0567
38864SOL    HW120090   4.889   4.369  10.469 -1.0323 -0.4284 -0.0931
38864SOL    HW220091   4.934   4.413  10.331  1.1367  1.2143  1.0708
38865SOL     OW20092   6.541   8.419   2.898 -0.3010 -0.1007 -0.1467
38865SOL    HW120093   6.622   8.429   2.948 -0.8317 -0.4317  0.8027
38865SOL    HW220094   6.491   8.498   2.916  0.4901  0.9129 -2.0864
38866SOL     OW20095   4.762   8.042   6.449 -0.4707 -0.3219  0.2426
38866SOL    HW120096   4.788   8.078   6.533 -0.3819 -2.2374  1.0794
38866SOL    HW220097   4.666   8.042   6.451 -0.4817  0.6785 -0.1312
38867SOL     OW20098   5.948  10.177   0.023 -0.2025  0.5627 -0.3050
38867SOL    HW120099   5.915  10.264   0.002 -2.0549  0.0477  0.2213
38867SOL    HW220100   5.935  10.126  -0.057  1.3740  0.8797 -0.7827
38868SOL     OW20101   2.872   8.827   5.087 -0.4617 -0.3267  0.4272
38868SOL    HW120102   2.823   8.876   5.022 -0.5774 -0.8834  0.0964
38868SOL    HW220103   2.875   8.885   5.164 -1.4888 -0.2323  0.3980
38869SOL     OW20104   1.386   2.256   0.763 -0.0456  0.0567  0.0276
38869SOL    HW120105   1.411   2.327   0.704 -0.9663  0.3591 -0.0208
38869SOL    HW220106   1.307   2.288   0.806 -0.7856 -1.1606 -0.3950
38870SOL     OW20107   8.517   1.691   1.861  0.2487  0.2060 -0.2671
38870SOL    HW120108   8.608   1.720   1.862 -0.2691  2.1885 -1.9125
38870SOL    HW220109   8.517   1.609   1.910  2.4947  1.2810  1.7788
38871SOL     OW20110   5.752   9.096   1.081  0.2219 -0.4542 -0.1507
38871SOL    HW120111   5.696   9.140   1.017  0.7294  1.5163  0.6933
38871SOL    HW220112   5.715   9.008   1.087 -2.2964  0.4866 -0.2492
38872SOL     OW20113   3.499   9.654   1.093  0.0825  0.1287  0.6312
38872SOL    HW120114   3.444   9.634   1.169  0.9157 -0.9648  0.9665
38872SOL    HW220115   3.563   9.718   1.125  0.2920 -0.1587  0.7822
38873SOL     OW20116   4.472   4.944   2.573  0.2083  0.0265 -1.3526
38873SOL    HW120117   4.442   4.881   2.507 -1.0798  0.8733 -1.6199
38873SOL    HW220118   4.392   4.987   2.602  0.8875  0.4338 -0.0106
38874SOL     OW20119   3.967   3.767   0.684  0.0105 -0.2875  0.1766
38874SOL    HW120120   3.964   3.718   0.766 -1.6070 -1.4074 -0.5062
38874SOL    HW220121   4.042   3.731   0.636  0.9899  0.4029  1.1320
38875SOL     OW20122   8.263   6.110   5.357 -0.9067  0.5402 -0.9656
38875SOL    HW120123   8.266   6.176   5.426 -0.2122 -0.6068  0.1400
38875SOL    HW220124   8.170   6.089   5.348 -1.0770  1.2385 -0.9430
38876SOL     OW20125   3.264   5.131   4.574 -0.1987  0.4456 -0.2666
38876SOL    HW120126   3.248   5.054   4.520  0.8152 -0.2786  0.4324
38876SOL    HW220127   3.355   5.154   4.558 -0.1880  0.8583  0.3378
38877SOL     OW20128   9.549   7.951   9.112  0.2243  0.2941  0.1404
38877SOL    HW120129   9.545   8.024   9.050  2.1646  1.2595  1.0805
38877SOL    HW220130   9.578   7.877   9.059 -0.5863  0.4784 -0.5897
38878SOL     OW20131   2.087  10.927   2.506  0.2023 -0.9797  0.3726
38878SOL    HW120132   2.074  10.894   2.417 -0.0581 -1.8085  0.7054
38878SOL    HW220133   2.170  10.889   2.534  1.2067  0.7120 -0.1330
38879SOL     OW20134   0.048   6.776  10.993 -0.1195 -0.4046  0.0153
38879SOL    HW120135  -0.030   6.770  10.939  0.4552 -0.3082 -0.8374
38879SOL    HW220136   0.067   6.870  10.998  0.4967 -0.4906 -0.5948
38880SOL     OW20137   0.206   5.574   8.334  0.1764 -0.3177  0.1809
38880SOL    HW120138   0.125   5.526   8.318  0.1581  0.2096 -1.6106
38880SOL    HW220139   0.183   5.641   8.398 -0.0651 -1.9370  1.8622
38881SOL     OW20140   6.450   4.573   7.523 -0.0860 -0.0308  0.0635
38881SOL    HW120141   6.543   4.551   7.510 -0.4317 -1.2037 -0.4923
38881SOL    HW220142   6.410   4.492   7.554 -1.2761 -0.0469 -1.4001
38882SOL     OW20143   6.947   6.844   2.589 -0.1007  0.4333 -0.0628
38882SOL    HW120144   6.876   6.890   2.544  0.4234  0.1210 -1.2587
38882SOL    HW220145   6.943   6.755   2.553  1.1697  0.5331 -0.4758
38883SOL     OW20146   8.501   8.101   8.861  0.6148  0.0452 -0.3557
38883SOL    HW120147   8.516   8.011   8.833 -1.9620 -0.5731 -0.0648
38883SOL    HW220148   8.481   8.148   8.780 -0.5235 -0.2685 -0.2792
38884SOL     OW20149   4.002   5.601  10.429 -0.0914  0.1387 -0.3635
38884SOL    HW120150   3.957   5.574  10.508 -0.6191 -0.6673 -0.9291
38884SOL    HW220151   3.954   5.678  10.399 -0.7633 -0.3814 -0.6541
38885SOL     OW20152   1.612   4.929   1.469 -0.2839 -0.6283  0.1602
38885SOL    HW120153   1.696   4.957   1.434 -0.9034 -1.2264 -1.9228
38885SOL    HW220154   1.571   5.009   1.502  1.0054 -0.3104  1.0843
38886SOL     OW20155   9.372  10.801   6.042 -0.2329 -1.0368  0.3404
38886SOL    HW120156   9.407  10.812   5.954  0.9743 -0.7098  0.8498
38886SOL    HW220157   9.277  10.796   6.029 -0.1474 -0.0503 -0.8869
38887SOL     OW20158   3.565   1.504   9.539 -0.0401 -0.8077 -0.1263
38887SOL    HW120159   3.542   1.593   9.566 -3.6411 -1.5758 -0.1868
38887SOL    HW220160   3.571   1.507   9.444  1.0888 -0.4352 -0.0590
38888SOL     OW20161   1.090   3.265   8.812  0.3248 -0.4266  0.7879
38888SOL    HW120162   1.011   3.318   8.809  0.7414  0.1438 -0.9425
38888SOL    HW220163   1.059   3.178   8.838 -1.3385 -0.8993 -2.2400
38889SOL     OW20164   5.974   0.697   6.873  0.2921 -0.1456  0.0337
38889SOL    HW120165   5.967   0.632   6.803 -0.8009 -0.1864  0.1518
38889SOL    HW220166   6.060   0.737   6.862  1.8805 -2.9596  1.1392
38890SOL     OW20167   2.434   7.631   2.832  0.3926 -0.2306 -0.0913
38890SOL    HW120168   2.424   7.723   2.809  2.0394  0.2078  0.7479
38890SOL    HW220169   2.459   7.632   2.925  0.6940 -1.5027 -0.1329
38891SOL     OW20170   2.057   1.334   2.784  0.4214 -0.7840  0.8028
38891SOL    HW120171   2.127   1.301   2.841  2.4681  1.5452 -0.1308
38891SOL    HW220172   2.047   1.267   2.717  1.9594 -1.0893  0.8360
38892SOL     OW20173   9.804   7.612   8.650  0.6203  0.1487  0.4569
38892SOL    HW120174   9.815   7.596   8.743 -0.6503 -2.9159  0.1943
38892SOL    HW220175   9.756   7.695   8.645  1.4642  0.8019  2.4368
38893SOL     OW20176   2.777   0.275   7.464 -0.2569  0.1400  0.0630
38893SOL    HW120177   2.781   0.237   7.552  3.7498 -0.1491 -0.0665
38893SOL    HW220178   2.768   0.200   7.406 -1.2135  0.1924  0.1310
38894SOL     OW20179  10.678  10.727   6.815  0.0445 -0.1036  0.3989
38894SOL    HW120180  10.599  10.741   6.762  0.3807  1.9963  0.3593
38894SOL    HW220181  10.645  10.723   6.905 -0.3062 -1.4637  0.2267
38895SOL     OW20182   5.917   4.171   6.624 -0.1418 -0.1553 -0.1938
38895SOL    HW120183   5.970   4.190   6.546 -0.4548  1.0295 -0.1435
38895SOL    HW220184   5.887   4.257   6.654 -4.1641 -0.8073 -1.6596
38896SOL     OW20185   3.462   8.128   2.453 -0.1711  0.2740  0.1281
38896SOL    HW120186   3.554   8.109   2.475 -0.3443 -0.3460  0.3359
38896SOL    HW220187   3.467   8.186   2.377  0.3923  0.2799  0.1629
38897SOL     OW20188   2.530   4.600   1.872  0.1998 -0.4064 -0.0420
38897SOL    HW120189   2.437   4.608   1.849 -0.0444  0.6286  1.1767
38897SOL    HW220190   2.568   4.547   1.802 -0.8123  1.2337 -1.9310
38898SOL     OW20191   8.093   8.639   5.589 -0.4969  0.2012 -0.1733
38898SOL    HW120192   8.184   8.623   5.563  0.2097 -0.5418  2.4549
38898SOL    HW220193   8.092   8.731   5.617 -0.4656  0.1141  0.1152
38899SOL     OW20194   1.103   7.466   6.817  0.2024  0.7175 -0.3857
38899SOL    HW120195   1.016   7.468   6.776 -0.1596 -1.5097  0.1249
38899SOL    HW220196   1.150   7.397   6.771  1.2001  0.9189  0.3008
38900SOL     OW20197   1.962   6.456   8.215 -0.0201  0.1417  0.0729
38900SOL    HW120198   2.020   6.385   8.187  0.1662  0.8827 -1.5474
38900SOL    HW220199   1.875   6.418   8.213  0.0269  0.0675 -1.2619
38901SOL     OW20200   0.685  10.225   2.035 -0.0733 -0.2130 -0.1765
38901SOL    HW120201   0.689  10.233   1.940 -0.3442  2.2624 -0.0500
38901SOL    HW220202   0.635  10.145   2.050  0.9802 -1.2979 -2.0809
38902SOL     OW20203   2.191   6.102   0.831  0.0032 -0.3761  0.2447
38902SOL    HW120204   2.250   6.083   0.758  0.2349 -1.7537  0.7558
38902SOL    HW220205   2.234   6.173   0.879  1.3960 -1.4825  0.7190
38903SOL     OW20206  10.077   4.318   1.678 -0.3696 -0.1482  0.5787
38903SOL    HW120207  10.156   4.360   1.714  0.7115 -0.5535 -1.1942
38903SOL    HW220208  10.059   4.365   1.597 -0.3395 -1.7525 -0.4102
38904SOL     OW20209  10.719  10.634   2.967 -0.2006  0.3078 -0.1027
38904SOL    HW120210  10.655  10.565   2.984 -0.5497  0.9183  1.1939
38904SOL    HW220211  10.668  10.706   2.931  0.2856 -0.3614 -2.2699
38905SOL     OW20212   7.260   0.304  10.913 -0.0298  0.1146 -0.1548
38905SOL    HW120213   7.281   0.298  11.007  1.6270 -0.3938 -0.5328
38905SOL    HW220214   7.345   0.296  10.869 -0.9083 -0.8135 -1.7479
38906SOL     OW20215   1.086   3.205  10.948 -0.0472 -0.3148 -0.4237
38906SOL    HW120216   1.181   3.214  10.950  0.1020 -1.7229  1.2987
38906SOL    HW220217   1.054   3.279  11.001  0.3223 -1.5446  1.6294
38907SOL     OW20218   5.576   7.048  10.429 -0.4518  0.0220 -0.8107
38907SOL    HW120219   5.617   7.119  10.478  1.1603 -0.7226 -1.0059
38907SOL    HW220220   5.482   7.058  10.446 -0.1209  1.1386  0.5662
38908SOL     OW20221   6.733   4.580   5.132  0.6395 -0.5168  0.1644
38908SOL    HW120222   6.691   4.558   5.049  0.3359 -0.4059  0.2877
38908SOL    HW220223   6.662   4.579   5.197  0.6657  0.4981  0.2311
38909SOL     OW20224   8.552   2.937   7.955 -0.3891  0.2804 -0.1696
38909SOL    HW120225   8.494   2.947   7.879 -0.2094 -1.5604 -0.5965
38909SOL    HW220226   8.639   2.924   7.917 -0.2940 -0.6100  0.3219
38910SOL     OW20227   6.395   8.914   3.060 -0.5352  0.4945 -0.0068
38910SOL    HW120228   6.330   8.954   3.003 -0.2641  0.8342 -0.0794
38910SOL    HW220229   6.448   8.987   3.092  0.4371  0.1296 -0.7320
38911SOL     OW20230   7.656   0.224   9.944  0.5528  0.4860  0.3430
38911SOL    HW120231   7.627   0.287   9.877  0.3183 -0.4501 -0.4638
38911SOL    HW220232   7.744   0.252   9.967  0.9189  0.4030 -0.9059
38912SOL     OW20233  10.094   7.545   3.987 -0.0688  0.6976 -0.2904
38912SOL    HW120234  10.089   7.487   4.063 -0.8093 -0.1363 -0.9522
38912SOL    HW220235  10.002   7.563   3.965 -0.0156 -1.4665 -2.7469
38913SOL     OW20236   0.941   4.244  10.923  0.4435 -0.5025 -0.3410
38913SOL    HW120237   0.874   4.298  10.965 -1.7223 -2.3407 -1.2479
38913SOL    HW220238   1.020   4.260  10.976 -0.8651  1.1116  1.2845
38914SOL     OW20239   2.610   7.037   6.672 -0.6437  0.3825 -0.3062
38914SOL    HW120240   2.627   7.129   6.651 -0.7402  0.2715 -0.8844
38914SOL    HW220241   2.555   7.005   6.600  0.0104 -0.3245 -0.5091
38915SOL     OW20242   0.415   4.420   9.790  0.6710 -0.3221 -0.4915
38915SOL    HW120243   0.340   4.370   9.757  0.7520 -1.2892  0.7293
38915SOL    HW220244   0.477   4.422   9.717 -0.0035 -0.6229 -1.0855
38916SOL     OW20245   2.357   8.053   6.272  0.3839  0.4589  0.1704
38916SOL    HW120246   2.429   7.992   6.255  0.8040  0.4966  1.7032
38916SOL    HW220247   2.399   8.126   6.318 -0.3890  1.1883 -0.2576
38917SOL     OW20248   8.874   5.075   5.574 -0.0532 -0.1796 -0.1221
38917SOL    HW120249   8.939   5.012   5.604  1.2774  1.3828  0.4490
38917SOL    HW220250   8.836   5.112   5.655 -0.3564  0.2003 -0.4290
38918SOL     OW20251   1.498  10.793   9.803  0.0828 -0.8511  0.2842
38918SOL    HW120252   1.542  10.713   9.832  2.6000  0.2388 -0.2445
38918SOL    HW220253   1.470  10.774   9.714  0.0077 -1.3778  0.4191
38919SOL     OW20254   8.129   4.247   1.982  0.2023 -0.0549 -0.1220
38919SOL    HW120255   8.194   4.248   2.052  0.7946  1.7961 -0.6311
38919SOL    HW220256   8.045   4.240   2.027  0.3838  3.4249  1.1033
38920SOL     OW20257   0.318   4.783   2.560  0.4431  0.0449 -0.3435
38920SOL    HW120258   0.309   4.814   2.650 -1.4476  0.3931 -0.6139
38920SOL    HW220259   0.405   4.811   2.534  1.0902 -0.1930  1.4167
38921SOL     OW20260   1.218   1.479   0.780 -0.3001 -1.0063 -0.9455
38921SOL    HW120261   1.277   1.477   0.704  1.4735 -1.2237  0.3657
38921SOL    HW220262   1.251   1.550   0.834 -2.1697 -0.1820 -0.8037
38922SOL     OW20263   7.285   5.764   2.707 -0.0495 -0.0170  0.3843
38922SOL    HW120264   7.300   5.755   2.613 -0.0148 -0.2093  0.4070
38922SOL    HW220265   7.229   5.689   2.729  0.6339 -0.4532  0.6712
38923SOL     OW20266   0.887   9.560   7.239 -0.2438  0.5428  0.0719
38923SOL    HW120267   0.979   9.563   7.212 -0.1359  1.4319  0.5244
38923SOL    HW220268   0.845   9.626   7.184 -0.4795  0.6310  0.3618
38924SOL     OW20269   4.261   2.702   2.752 -0.2806  0.2243  0.2592
38924SOL    HW120270   4.208   2.624   2.743  0.4022 -0.1447 -0.7945
38924SOL    HW220271   4.339   2.685   2.698  0.1354  1.4005  0.4469
38925SOL     OW20272   9.617   6.502   9.283 -0.1885  0.3073 -0.1552
38925SOL    HW120273   9.692   6.471   9.231  0.2951  0.0751  0.6742
38925SOL    HW220274   9.656   6.553   9.353 -0.8338  0.4248  0.1235
38926SOL     OW20275   4.044   5.107   3.374 -0.0617  0.2326 -0.5913
38926SOL    HW120276   4.088   5.180   3.418 -0.6500  0.2368 -0.0086
38926SOL    HW220277   4.094   5.030   3.400 -0.5964  0.1927  0.3623
38927SOL     OW20278   5.285   4.240   8.539 -0.3582  0.3189  0.0680
38927SOL    HW120279   5.273   4.209   8.449 -0.0603  0.7474 -0.1291
38927SOL    HW220280   5.354   4.185   8.575  0.3000  0.8594 -0.3409
38928SOL     OW20281   3.245   1.722   5.080 -0.0360 -0.0591 -0.1065
38928SOL    HW120282   3.260   1.747   5.172  1.8856 -0.0989 -0.3636
38928SOL    HW220283   3.331   1.693   5.049 -0.8615 -0.9834 -1.6545
38929SOL     OW20284  10.663   1.350   5.572  0.0038  0.5580  0.4054
38929SOL    HW120285  10.571   1.360   5.597 -0.3572  2.2953 -1.3928
38929SOL    HW220286  10.710   1.413   5.627  0.3804 -1.2562  2.2831
38930SOL     OW20287   8.390   7.647   7.949  0.3248  0.0676 -0.1192
38930SOL    HW120288   8.475   7.665   7.991  0.6795 -1.4300 -0.1387
38930SOL    HW220289   8.384   7.712   7.879  0.9278  0.9283  0.5964
38931SOL     OW20290   7.473   1.404  10.287 -0.3981 -0.2676  0.2415
38931SOL    HW120291   7.566   1.387  10.304 -0.1661 -1.3095 -1.7950
38931SOL    HW220292   7.432   1.318  10.294 -0.8278 -0.1720 -0.9387
38932SOL     OW20293   0.926   9.504   7.692  0.1309  0.2877 -0.3579
38932SOL    HW120294   1.013   9.491   7.656  0.2972 -1.3053  0.5136
38932SOL    HW220295   0.880   9.422   7.675 -0.5062  0.3198  1.0271
38933SOL     OW20296   8.072   6.615   6.683 -0.9262 -0.2021  0.4335
38933SOL    HW120297   8.161   6.646   6.697 -0.9841 -0.4479  1.4071
38933SOL    HW220298   8.031   6.617   6.770 -1.4791 -1.2750  0.2244
38934SOL     OW20299   9.556   0.271   6.213  0.4658 -0.0433 -0.4641
38934SOL    HW120300   9.595   0.232   6.292 -1.6675 -1.1087  0.1323
38934SOL    HW220301   9.554   0.200   6.150 -1.1435 -0.2321 -0.2280
38935SOL     OW20302  10.630   4.927   4.057  0.2800 -0.0351 -0.3038
38935SOL    HW120303  10.656   4.836   4.072  0.2268 -0.5069 -2.7720
38935SOL    HW220304  10.690   4.978   4.112 -0.2480 -1.5352  1.8068
38936SOL     OW20305   6.948   7.222   0.657  0.0157  0.2395  0.0560
38936SOL    HW120306   7.012   7.281   0.619  0.3048  1.2757  2.0273
38936SOL    HW220307   7.000   7.154   0.700 -0.2231  0.4846  0.7418
38937SOL     OW20308   0.631   4.868  10.701 -0.1817 -0.5268 -0.1340
38937SOL    HW120309   0.607   4.813  10.626 -0.8465  1.1652 -1.2313
38937SOL    HW220310   0.723   4.891  10.686 -0.1819 -0.5651 -0.1941
38938SOL     OW20311   2.584   0.244   8.319 -0.2065  0.1302  0.3492
38938SOL    HW120312   2.660   0.301   8.334  0.2810 -0.6217  0.8305
38938SOL    HW220313   2.577   0.238   8.224  1.0902 -0.7223  0.2677
38939SOL     OW20314   1.810  10.965   8.033 -0.5997  0.8244  0.5625
38939SOL    HW120315   1.796  11.035   8.097  0.9463  0.5648  1.2423
38939SOL    HW220316   1.821  11.011   7.949  0.3870  1.4175  1.0018
38940SOL     OW20317   3.119   2.484   3.131  0.2657 -0.5181 -0.0545
38940SOL    HW120318   3.081   2.562   3.171 -0.8994 -0.6565 -0.8291
38940SOL    HW220319   3.187   2.456   3.192  2.1870  2.2619 -0.7211
38941SOL     OW20320   8.641   5.687   2.401  0.2867  0.0632 -0.2333
38941SOL    HW120321   8.654   5.633   2.323 -1.1436 -1.3938  0.4837
38941SOL    HW220322   8.562   5.653   2.441 -1.0481  3.0795  0.0001
38942SOL     OW20323   3.771   8.873   4.709 -0.2908  0.4091 -0.2242
38942SOL    HW120324   3.757   8.822   4.788  0.8387  0.9467  0.3507
38942SOL    HW220325   3.807   8.810   4.646  1.4270  0.5030  0.5896
38943SOL     OW20326   8.019   8.412   2.000 -0.6741  0.0167  0.0744
38943SOL    HW120327   7.933   8.433   2.035 -0.0672  0.3772  1.3882
38943SOL    HW220328   8.054   8.496   1.968 -0.5229 -0.0025  0.1878
38944SOL     OW20329   6.796   8.687   6.714 -0.1788  0.4679 -0.4442
38944SOL    HW120330   6.834   8.747   6.649  0.7161 -0.0410 -0.4136
38944SOL    HW220331   6.719   8.733   6.747  2.5841  3.5226  2.5002
38945SOL     OW20332  10.227   8.970   9.497 -0.6914 -0.6455  0.2167
38945SOL    HW120333  10.233   8.917   9.417 -1.7013 -0.1685 -0.1886
38945SOL    HW220334  10.147   8.940   9.540 -0.4749 -0.4784  0.7418
38946SOL     OW20335   3.445   5.580   1.369  0.3078 -0.2941  0.9174
38946SOL    HW120336   3.452   5.548   1.459  1.7419  1.4558  1.4975
38946SOL    HW220337   3.372   5.642   1.370 -1.1534 -1.9177  0.2771
38947SOL     OW20338   2.266   5.275  10.525 -0.1324 -0.4818  0.3058
38947SOL    HW120339   2.179   5.276  10.564  0.1357  0.2728  0.9022
38947SOL    HW220340   2.253   5.236  10.439 -1.2834  0.7625 -0.1175
38948SOL     OW20341   1.549   8.760   4.375 -0.3060  0.3993 -0.4069
38948SOL    HW120342   1.526   8.686   4.430 -0.8197  0.0783 -1.0414
38948SOL    HW220343   1.501   8.746   4.294 -1.1092  1.8689 -0.2312
38949SOL     OW20344   7.300   7.538   2.125 -0.3357  0.3524 -0.5005
38949SOL    HW120345   7.264   7.577   2.046 -1.9006  0.6178  0.3023
38949SOL    HW220346   7.241   7.567   2.195  0.1535 -1.0596  0.5413
38950SOL     OW20347   2.397   4.714   3.136  0.1925 -0.0247  0.2651
38950SOL    HW120348   2.476   4.679   3.178  0.9449 -0.0296 -1.0809
38950SOL    HW220349   2.407   4.691   3.044  1.2762  4.4792 -0.9943
38951SOL     OW20350   4.514   3.288  10.962  0.0796  0.1376 -0.0590
38951SOL    HW120351   4.587   3.226  10.963 -0.0931 -0.0646  0.2727
38951SOL    HW220352   4.442   3.242  11.006 -0.6559 -0.1573 -1.5159
38952SOL     OW20353   4.492   5.515   5.664 -0.3505  0.4934  0.2280
38952SOL    HW120354   4.514   5.594   5.615  1.0119 -0.7398 -1.2283
38952SOL    HW220355   4.445   5.460   5.602 -1.3800  0.1602  1.2578
38953SOL     OW20356   9.532   2.673   8.533  0.0982  0.3913 -0.0416
38953SOL    HW120357   9.564   2.635   8.452  1.8867 -1.2694  1.3584
38953SOL    HW220358   9.522   2.766   8.514 -0.2137 -0.0572 -2.3224
38954SOL     OW20359   0.389   1.740   0.047  0.7104  0.4926 -0.1981
38954SOL    HW120360   0.454   1.774   0.109  0.4707  1.3283 -0.3958
38954SOL    HW220361   0.409   1.784  -0.036  1.7932 -1.4936 -1.0678
38955SOL     OW20362   4.838   5.111   2.020 -0.0419 -1.0512  0.4856
38955SOL    HW120363   4.895   5.165   2.075  1.0840 -1.2944 -0.4076
38955SOL    HW220364   4.753   5.112   2.065 -0.4085  2.3500 -0.0174
38956SOL     OW20365   8.064   7.674   0.038  0.3817  0.2286  0.0752
38956SOL    HW120366   8.108   7.694  -0.045  1.2055  0.2933  0.5220
38956SOL    HW220367   8.113   7.601   0.075 -1.7213 -1.7804 -0.8439
38957SOL     OW20368   1.042   3.822   0.186 -0.1372 -0.4863  0.3279
38957SOL    HW120369   1.134   3.801   0.174  0.2694  0.6909  1.1382
38957SOL    HW220370   1.037   3.917   0.172 -0.8725 -0.2296  2.0706
38958SOL     OW20371  10.470   4.535   1.915  0.4356 -0.3113  0.3244
38958SOL    HW120372  10.449   4.467   1.980  0.7021  0.3207  1.0856
38958SOL    HW220373  10.541   4.585   1.955  0.0477  0.5970 -0.0992
38959SOL     OW20374   5.104   3.922   6.974  0.3216  0.3719  0.0672
38959SOL    HW120375   5.022   3.887   6.938 -1.4501  2.0281  2.2101
38959SOL    HW220376   5.136   3.982   6.907 -0.0960 -0.4279 -0.8790
38960SOL     OW20377   4.530   0.891   3.053  0.1900  0.0879 -0.3413
38960SOL    HW120378   4.606   0.848   3.014  0.1340  0.5027 -0.9255
38960SOL    HW220379   4.512   0.965   2.995 -0.4825  0.1647 -0.0451
38961SOL     OW20380   1.035   1.457   9.632  0.3115  0.4911 -0.8226
38961SOL    HW120381   1.048   1.517   9.706 -0.1091  0.8954 -1.0773
38961SOL    HW220382   0.941   1.439   9.632  0.2224  0.9575 -1.6246
38962SOL     OW20383   2.799   2.703   3.172  0.1459  0.0569  0.2004
38962SOL    HW120384   2.883   2.709   3.217 -0.3428 -1.8463  1.5052
38962SOL    HW220385   2.736   2.682   3.241 -0.6560 -2.9262 -1.2815
38963SOL     OW20386   1.073   7.426   7.124  0.1166  0.1656 -0.5613
38963SOL    HW120387   1.144   7.453   7.066 -0.0626  1.0600 -0.3873
38963SOL    HW220388   1.096   7.338   7.151  0.1409 -0.3438 -2.1098
38964SOL     OW20389   3.583   7.466   4.047 -0.1095 -0.3593  0.4342
38964SOL    HW120390   3.494   7.502   4.044  0.3026  0.6417  0.0640
38964SOL    HW220391   3.582   7.408   4.124 -1.5421 -1.6173 -0.4751
38965SOL     OW20392   9.038  10.515   1.689  0.0628 -0.5441 -0.5233
38965SOL    HW120393   9.111  10.545   1.634  0.1573  0.3224  0.0535
38965SOL    HW220394   9.006  10.595   1.731 -1.8130 -0.7681 -1.4416
38966SOL     OW20395   3.522   4.587   5.087  0.3691  0.2632 -0.7948
38966SOL    HW120396   3.493   4.527   5.156 -0.5036  1.0579 -0.4535
38966SOL    HW220397   3.446   4.597   5.030  0.0122  2.1642 -0.0465
38967SOL     OW20398   8.254   2.472  10.705  0.2480 -0.7287  0.1777
38967SOL    HW120399   8.221   2.458  10.616 -0.3539  0.7834  0.1310
38967SOL    HW220400   8.179   2.507  10.752  0.8683 -0.4889  0.9978
38968SOL     OW20401   9.565   3.934   6.302  0.6589  0.2274 -0.7283
38968SOL    HW120402   9.656   3.952   6.279  1.4187 -0.5842  1.3605
38968SOL    HW220403   9.571   3.870   6.373 -1.5261  0.5708 -0.1648
38969SOL     OW20404   5.623  10.895  10.003 -0.1022 -0.3464 -0.1445
38969SOL    HW120405   5.566  10.940  10.065 -1.1060 -1.1412 -0.4623
38969SOL    HW220406   5.567  10.877   9.927 -0.2564 -3.5242  0.5852
38970SOL     OW20407   4.939   7.436   9.442  0.0278 -0.3052  0.0821
38970SOL    HW120408   5.014   7.383   9.417  0.7665  0.6046  0.3225
38970SOL    HW220409   4.966   7.482   9.521  0.6088  2.7595 -1.7121
38971SOL     OW20410   7.561   0.358   3.756 -0.4797 -0.2248 -0.5575
38971SOL    HW120411   7.635   0.381   3.811  0.4024  0.8142 -2.1000
38971SOL    HW220412   7.563   0.262   3.751 -1.0783 -0.4273  1.7950
38972SOL     OW20413   5.934   9.308   3.616 -0.3243 -0.3327  0.0864
38972SOL    HW120414   5.942   9.229   3.670 -1.2793  0.5462  1.5673
38972SOL    HW220415   5.999   9.368   3.652  0.7019 -0.5331 -1.3115
38973SOL     OW20416   3.791   8.462   3.792  0.3569 -0.3827 -0.4227
38973SOL    HW120417   3.879   8.428   3.811  0.6295  0.3269 -0.3815
38973SOL    HW220418   3.764   8.503   3.874  0.6203  0.7386 -0.8849
38974SOL     OW20419   1.295   1.576   6.069 -0.2341 -0.5566  0.2056
38974SOL    HW120420   1.266   1.658   6.108  0.3762 -0.7654  1.1302
38974SOL    HW220421   1.387   1.591   6.048  0.2998 -1.4493  1.7297
38975SOL     OW20422   9.227   9.221   0.050  0.4385  0.4773  0.3770
38975SOL    HW120423   9.158   9.276   0.086 -0.5795 -1.5444  1.7596
38975SOL    HW220424   9.277   9.192   0.126  0.3136 -1.2425 -0.1358
38976SOL     OW20425   5.829   0.824   2.286  0.0687 -0.1711 -0.4154
38976SOL    HW120426   5.907   0.785   2.325  1.4294  0.5731 -2.2382
38976SOL    HW220427   5.844   0.816   2.192 -0.9456  2.1278 -0.8203
38977SOL     OW20428   7.753   9.191   1.160 -0.1938  0.1409 -0.1503
38977SOL    HW120429   7.664   9.223   1.146  0.0437  0.4003 -1.1897
38977SOL    HW220430   7.801   9.221   1.082  0.6620 -0.4794  0.1278
38978SOL     OW20431   4.455   4.417   0.243  0.3684  0.4345  0.2914
38978SOL    HW120432   4.433   4.458   0.160 -2.5605  0.0174  0.7447
38978SOL    HW220433   4.430   4.481   0.309 -0.5337 -0.5045  0.8992
38979SOL     OW20434   4.497   0.430   8.104 -0.0068 -0.1056 -0.0499
38979SOL    HW120435   4.520   0.451   8.013  0.5659  2.7983  0.6752
38979SOL    HW220436   4.403   0.444   8.109  0.3284  2.3371  0.3580
38980SOL     OW20437   9.812   5.099   8.024  0.2693 -0.0246 -0.5648
38980SOL    HW120438   9.886   5.092   7.964  0.8018  0.5467  0.0049
38980SOL    HW220439   9.734   5.096   7.968  0.7021 -1.2081 -1.1180
38981SOL     OW20440   4.153   4.346   9.944 -0.5663  0.4751 -0.6478
38981SOL    HW120441   4.059   4.363   9.942 -0.5765  0.3989 -1.7692
38981SOL    HW220442   4.161   4.257   9.909 -0.3149 -0.9001  2.5985
38982SOL     OW20443   2.694   7.249   8.813  0.3431 -0.0338  0.2426
38982SOL    HW120444   2.704   7.317   8.746 -0.5414  2.1677  2.2150
38982SOL    HW220445   2.624   7.193   8.779 -2.4678  2.9566  0.6439
38983SOL     OW20446   9.267   5.533   1.230  0.4194  0.4702 -0.1888
38983SOL    HW120447   9.328   5.483   1.176  0.9407 -1.1640  1.7729
38983SOL    HW220448   9.321   5.566   1.302 -0.2577  2.5589 -0.5520
38984SOL     OW20449   6.846   7.517   5.356  0.1285 -0.4904  0.0270
38984SOL    HW120450   6.832   7.607   5.327  0.7826 -0.3486  0.1495
38984SOL    HW220451   6.911   7.523   5.425  1.2489 -1.1948 -0.9347
38985SOL     OW20452   2.862   5.049   9.029 -0.4014 -0.0477  0.1653
38985SOL    HW120453   2.803   5.009   8.966  0.2625  0.1105 -0.5816
38985SOL    HW220454   2.893   5.129   8.985 -0.3329  0.3432  0.9050
38986SOL     OW20455   5.830   6.632   4.882  0.1609 -0.1007 -0.6143
38986SOL    HW120456   5.741   6.604   4.862 -0.5985  0.9873  1.0447
38986SOL    HW220457   5.835   6.630   4.977  1.8328  0.1478 -0.6599
38987SOL     OW20458   5.578   4.060   5.404  0.0559 -0.3471  0.0696
38987SOL    HW120459   5.654   4.019   5.361  0.3692  1.9160 -1.7520
38987SOL    HW220460   5.595   4.154   5.397 -2.0689  0.1880  1.2856
38988SOL     OW20461   5.282   3.874  10.800 -0.5652 -0.2758  0.0616
38988SOL    HW120462   5.299   3.855  10.892  1.1693 -0.6068 -0.2839
38988SOL    HW220463   5.280   3.970  10.796 -1.4374 -0.2626  0.5500
38989SOL     OW20464   0.551  10.452   4.341  0.4017 -0.2379 -0.1831
38989SOL    HW120465   0.530  10.431   4.250  3.3275  1.0697 -1.2925
38989SOL    HW220466   0.520  10.542   4.352  0.4277 -0.2472 -0.0386
38990SOL     OW20467   6.250   2.716   4.514 -0.1374 -0.5744  0.0101
38990SOL    HW120468   6.178   2.779   4.506 -2.3596 -2.6399  2.1823
38990SOL    HW220469   6.270   2.691   4.424 -0.1109  2.1144 -0.8290
38991SOL     OW20470   3.242   5.791   3.271  0.2171  0.1463 -0.1176
38991SOL    HW120471   3.330   5.755   3.286 -0.4403 -1.0987  0.9107
38991SOL    HW220472   3.183   5.717   3.284 -1.2228  1.5669  2.4130
38992SOL     OW20473   1.581   2.189   1.569  0.2095 -0.0284 -0.6805
38992SOL    HW120474   1.558   2.104   1.604  2.0053 -0.2009  0.2030
38992SOL    HW220475   1.650   2.171   1.505  0.2054  0.7180 -0.9089
38993SOL     OW20476  10.753   7.679   8.927 -0.0002  0.5209  0.0739
38993SOL    HW120477  10.735   7.773   8.929 -1.6696  0.2880 -1.4072
38993SOL    HW220478  10.752   7.652   9.019 -0.6146  1.7679  0.4542
38994SOL     OW20479   7.366   0.411   2.409 -0.1025 -0.0635 -0.1589
38994SOL    HW120480   7.362   0.415   2.505  0.8594  1.2260 -0.1300
38994SOL    HW220481   7.329   0.326   2.386 -0.8957 -0.1458  1.3185
38995SOL     OW20482   2.342   1.810   9.773 -0.0571 -0.1882 -0.1876
38995SOL    HW120483   2.304   1.892   9.804  0.0552 -0.9339  2.0680
38995SOL    HW220484   2.423   1.836   9.729 -0.6264  0.9849 -0.5766
38996SOL     OW20485   0.199   9.057  10.684 -0.5858 -0.4854 -0.0885
38996SOL    HW120486   0.187   9.022  10.772  0.8859 -0.7814  0.0130
38996SOL    HW220487   0.282   9.103  10.687  0.5525 -2.2405 -1.8289
38997SOL     OW20488   3.165   4.474   8.153  0.2425 -0.3014  0.0712
38997SOL    HW120489   3.255   4.482   8.121 -0.6668 -0.1200 -2.8054
38997SOL    HW220490   3.141   4.562   8.181  0.9715 -0.3731  0.9418
38998SOL     OW20491   4.109   1.687  10.008 -0.2629 -0.7254 -0.2701
38998SOL    HW120492   4.110   1.724  10.096 -0.7405 -0.7382 -0.2565
38998SOL    HW220493   4.075   1.757   9.952 -0.0019 -0.7309 -0.4403
38999SOL     OW20494   0.196   7.076   8.370  0.1801  0.0165  0.6722
38999SOL    HW120495   0.108   7.114   8.364 -0.9659 -2.3684  1.0236
38999SOL    HW220496   0.220   7.086   8.462 -0.0413  0.0128  0.7308
39000SOL     OW20497   3.731   3.251  10.157  0.5167 -0.6866  0.7218
39000SOL    HW120498   3.734   3.159  10.134  1.6802 -0.8396  1.3845
39000SOL    HW220499   3.817   3.285  10.131 -0.2785  0.4731 -0.5100
39001SOL     OW20500   1.191   8.637   5.739  0.5575  0.4288  0.1617
39001SOL    HW120501   1.186   8.561   5.797 -0.9632  0.0454 -0.4110
39001SOL    HW220502   1.243   8.701   5.788  1.1070 -0.6455  1.0290
39002SOL     OW20503   1.040   9.036   2.548  0.2680  0.8313  0.4128
39002SOL    HW120504   0.975   8.979   2.588 -1.8481  1.6098 -1.6588
39002SOL    HW220505   1.123   9.012   2.590 -0.7808 -2.4667  0.8791
39003SOL     OW20506   1.166   4.955   0.905 -0.0218 -0.2935  0.3719
39003SOL    HW120507   1.150   5.030   0.961 -0.1789 -0.2097  0.2183
39003SOL    HW220508   1.139   4.879   0.957  0.8933 -0.3160  0.8216
39004SOL     OW20509   4.047   8.806   9.209  0.0622 -0.4328 -0.2942
39004SOL    HW120510   4.080   8.888   9.244 -0.4985  0.2707 -1.3554
39004SOL    HW220511   4.101   8.739   9.250  0.6773  0.4730  0.4204
39005SOL     OW20512   5.811   6.490   4.024  0.8759 -0.1151  0.4350
39005SOL    HW120513   5.783   6.547   3.953  0.4093  0.5291  1.1213
39005SOL    HW220514   5.797   6.401   3.991  4.3640 -0.0159 -1.8327
39006SOL     OW20515   8.668   3.669   3.596 -0.4723 -0.8862  0.1168
39006SOL    HW120516   8.739   3.657   3.533 -1.6544 -4.4984 -0.7835
39006SOL    HW220517   8.595   3.702   3.543 -0.3498 -0.1012  0.4290
39007SOL     OW20518   1.254   6.245   0.567  0.4191  0.0357 -0.2099
39007SOL    HW120519   1.288   6.156   0.577 -0.6730 -0.4311 -0.5518
39007SOL    HW220520   1.177   6.236   0.512 -0.5978  0.9782  0.9797
39008SOL     OW20521   1.777   1.665  10.515  0.1669  0.3145  0.5373
39008SOL    HW120522   1.798   1.735  10.454  0.3719 -0.3421 -0.1663
39008SOL    HW220523   1.795   1.702  10.601  2.1112  0.5044  0.0920
39009SOL     OW20524  10.249   1.816   7.567 -0.1920 -0.0385  0.5064
39009SOL    HW120525  10.320   1.789   7.625 -0.4839  0.0627  0.9210
39009SOL    HW220526  10.288   1.820   7.480  0.1967 -0.4215  0.6623
39010SOL     OW20527   6.959   2.498   8.240 -0.1032  0.0235  0.3381
39010SOL    HW120528   6.911   2.418   8.219 -1.0803  0.9532 -1.1568
39010SOL    HW220529   6.892   2.557   8.275 -0.4264  1.6808 -2.6715
39011SOL     OW20530   7.298   5.369  10.067  0.4307  0.3611 -0.2240
39011SOL    HW120531   7.207   5.385  10.091  0.6515  1.9575 -0.3992
39011SOL    HW220532   7.296   5.360   9.971  0.1603 -1.9446 -0.0775
39012SOL     OW20533   7.555   9.132   4.929 -0.2290  0.1554  0.5918
39012SOL    HW120534   7.492   9.204   4.927 -1.9754 -1.2977  0.3220
39012SOL    HW220535   7.615   9.154   5.000 -0.7447  1.8495  0.5324
39013SOL     OW20536   9.840  10.574  10.009 -0.1892 -0.0947  0.3682
39013SOL    HW120537   9.895  10.522  10.069  1.3639  0.1060 -0.8188
39013SOL    HW220538   9.846  10.663  10.044 -0.4610 -0.2183  0.7355
39014SOL     OW20539   6.475   0.903   6.714  0.3274 -0.0354  0.4265
39014SOL    HW120540   6.382   0.910   6.735  0.5906  0.0323  1.6799
39014SOL    HW220541   6.517   0.888   6.799  1.4471 -0.1719 -0.1362
39015SOL     OW20542   0.385   1.330   3.873 -0.2364  0.1849 -0.3030
39015SOL    HW120543   0.364   1.405   3.929 -1.7877  0.4369 -1.1722
39015SOL    HW220544   0.434   1.271   3.930 -2.2146  0.1877  1.5349
39016SOL     OW20545   6.861   3.836   7.084  0.1824 -0.3645 -0.6150
39016SOL    HW120546   6.838   3.811   7.173 -0.0656  0.6323 -0.3828
39016SOL    HW220547   6.955   3.818   7.077  0.3511  0.2104  0.0856
39017SOL     OW20548   4.265  10.995   4.754 -0.0703 -0.8106  0.1006
39017SOL    HW120549   4.241  10.915   4.800 -0.1563 -0.5582  0.5026
39017SOL    HW220550   4.207  10.997   4.678 -0.6141 -0.7279  0.5166
39018SOL     OW20551  10.573   4.512   2.489 -0.0217  0.4211  0.5125
39018SOL    HW120552  10.525   4.467   2.559  0.7796 -0.0526  0.7582
39018SOL    HW220553  10.586   4.601   2.523 -0.1757  0.3733  0.6993
39019SOL     OW20554   7.098  10.562   6.632  0.5132 -0.7537 -0.0602
39019SOL    HW120555   7.086  10.470   6.658 -0.1935 -0.9213 -0.8990
39019SOL    HW220556   7.192  10.577   6.637  0.5421 -1.2509  0.9790
39020SOL     OW20557   4.392   9.634   5.850  0.7954 -0.4170  0.5358
39020SOL    HW120558   4.334   9.559   5.860  0.4314 -0.2138  0.0123
39020SOL    HW220559   4.439   9.618   5.768  1.5427 -0.6166  0.9937
39021SOL     OW20560   6.677   8.589   4.974  0.6332 -0.6289 -0.4962
39021SOL    HW120561   6.721   8.630   5.048  0.2301 -0.6158 -0.2632
39021SOL    HW220562   6.653   8.502   5.006 -0.9143 -0.0710 -0.0941
39022SOL     OW20563  10.214   8.883   5.313  0.0491  0.5730 -0.0504
39022SOL    HW120564  10.131   8.910   5.352  0.6487  1.7512  0.4526
39022SOL    HW220565  10.189   8.830   5.237 -1.1505  0.1539  0.6098
39023SOL     OW20566   9.214   4.118   5.077  0.3384  0.0178 -0.2044
39023SOL    HW120567   9.139   4.176   5.085  1.4723  1.4480  0.4637
39023SOL    HW220568   9.183   4.034   5.113 -0.8566  0.6285  0.2441
39024SOL     OW20569  10.961   5.453   9.293 -0.4523  0.2193  0.5065
39024SOL    HW120570  10.939   5.384   9.231  1.5516  0.7898 -0.9583
39024SOL    HW220571  11.001   5.406   9.367 -0.5021 -0.2869  0.2197
39025SOL     OW20572   4.418   0.045   1.265  0.6728 -0.7815  0.5386
39025SOL    HW120573   4.468   0.037   1.184  2.1229 -0.6122  1.3685
39025SOL    HW220574   4.448  -0.029   1.318 -1.1182 -1.5757  0.5033
39026SOL     OW20575   3.233   5.263   2.753 -0.2655 -0.1144  0.1283
39026SOL    HW120576   3.241   5.174   2.717 -0.9203  0.2823 -1.0524
39026SOL    HW220577   3.230   5.250   2.847  0.6022 -1.2775  0.0222
39027SOL     OW20578   1.525  10.823   7.678 -0.5545  0.6531  0.2212
39027SOL    HW120579   1.517  10.787   7.590  0.1284  3.0701 -0.8997
39027SOL    HW220580   1.434  10.832   7.708 -0.7745 -1.1123  0.2476
39028SOL     OW20581   3.365   7.424   2.769 -0.0297  0.6726 -0.0817
39028SOL    HW120582   3.324   7.505   2.797 -0.0287  0.3036  1.0402
39028SOL    HW220583   3.293   7.361   2.764  0.0500  0.6042 -0.4439
39029SOL     OW20584   8.457   9.509   2.336  0.1861 -0.3850 -0.1179
39029SOL    HW120585   8.440   9.430   2.286 -0.5361 -0.0009 -0.5044
39029SOL    HW220586   8.471   9.577   2.270 -1.3548  0.2519  0.1500
39030SOL     OW20587  10.622   0.859   4.504  0.2540  0.7037 -0.0735
39030SOL    HW120588  10.572   0.808   4.567  0.3704 -1.5260 -1.6585
39030SOL    HW220589  10.603   0.950   4.526 -2.7945 -0.0062  0.7011
39031SOL     OW20590   3.189   2.094   4.029 -0.2294 -0.3003 -0.7764
39031SOL    HW120591   3.114   2.119   3.973 -0.7937 -0.9290 -0.3151
39031SOL    HW220592   3.210   2.005   4.003 -0.1406 -0.4017 -0.3604
39032SOL     OW20593   3.668   0.827   5.980  0.0864 -0.2303 -0.4157
39032SOL    HW120594   3.676   0.732   5.977  0.8232 -0.1486 -2.0068
39032SOL    HW220595   3.629   0.851   5.896  0.9005  0.9357 -0.4853
39033SOL     OW20596   9.728   1.644   7.532  0.3702  0.2982  0.3502
39033SOL    HW120597   9.648   1.614   7.576  0.9026  0.3677  1.4107
39033SOL    HW220598   9.731   1.738   7.549 -0.1964  0.6149 -1.1671
39034SOL     OW20599   3.748   0.754   8.261  0.6015 -0.3057 -0.0680
39034SOL    HW120600   3.665   0.741   8.306  1.3817 -0.3810  1.4186
39034SOL    HW220601   3.813   0.711   8.317  2.0148  2.0607  0.2774
39035SOL     OW20602  10.065   6.860   2.397  0.0796 -0.2130 -0.0344
39035SOL    HW120603  10.136   6.911   2.357  0.2987 -1.1179 -0.8481
39035SOL    HW220604  10.082   6.770   2.369  0.5912 -1.0308  2.6136
39036SOL     OW20605   1.944   1.140   9.412  0.2191 -0.3129  0.2506
39036SOL    HW120606   2.010   1.122   9.480  0.0730 -0.8083  0.2640
39036SOL    HW220607   1.861   1.142   9.460  0.1620 -0.2459  0.1480
39037SOL     OW20608   8.639   4.813   2.234  0.2413 -0.1442 -0.5305
39037SOL    HW120609   8.682   4.802   2.319  0.3677  0.7996 -0.4558
39037SOL    HW220610   8.628   4.908   2.225 -0.6998 -0.2938 -1.1103
39038SOL     OW20611   5.450   9.526   0.423 -0.5903 -0.0144  0.2124
39038SOL    HW120612   5.511   9.520   0.349 -0.2701 -0.5445  0.5164
39038SOL    HW220613   5.374   9.573   0.387 -0.4268 -0.2388 -0.4485
39039SOL     OW20614   2.838   9.627   7.406 -0.1763  0.4310  0.2880
39039SOL    HW120615   2.837   9.555   7.469 -0.3050 -0.9082 -1.1992
39039SOL    HW220616   2.755   9.618   7.358 -0.1385  1.4987 -0.0066
39040SOL     OW20617   5.340   8.717   2.370 -0.4700  0.3728 -0.7066
39040SOL    HW120618   5.435   8.728   2.366 -0.2459 -1.2995 -0.7130
39040SOL    HW220619   5.320   8.715   2.463 -0.2340 -1.0437 -0.6636
39041SOL     OW20620   3.785   8.947   8.711 -0.4512  0.1999 -0.3230
39041SOL    HW120621   3.784   8.852   8.722  0.5910  0.1141 -0.8334
39041SOL    HW220622   3.876   8.968   8.693 -0.7619  1.2426 -0.7504
39042SOL     OW20623   7.612   9.161   0.106  0.3201 -0.1551  0.5422
39042SOL    HW120624   7.601   9.076   0.149 -0.5114 -1.1256 -1.4451
39042SOL    HW220625   7.707   9.169   0.094  0.3385 -1.5998 -0.6486
39043SOL     OW20626   0.735   5.763   4.595  0.3852 -0.0225  0.0103
39043SOL    HW120627   0.680   5.840   4.607  0.8874  0.4788 -0.8182
39043SOL    HW220628   0.820   5.787   4.631  0.4094 -0.3631  0.1885
39044SOL     OW20629  10.701   3.495   7.122 -0.6800  0.7620  0.1955
39044SOL    HW120630  10.749   3.577   7.126 -0.3264  0.6218 -0.7756
39044SOL    HW220631  10.728   3.447   7.201 -0.9775  1.6089  0.8254
39045SOL     OW20632   7.936   9.936   4.991  0.2408  0.4800 -0.0894
39045SOL    HW120633   7.948   9.926   5.085 -1.8814  0.7159  0.2624
39045SOL    HW220634   7.891  10.020   4.981 -0.4752 -0.0103 -1.2145
39046SOL     OW20635   5.761   3.032   5.345 -0.1195 -0.8418 -0.0618
39046SOL    HW120636   5.748   3.125   5.327  1.7070 -0.3018  1.0643
39046SOL    HW220637   5.856   3.023   5.352 -0.2599 -2.8107 -0.1393
39047SOL     OW20638   0.651   0.635   4.875  0.1075  0.0472 -0.4375
39047SOL    HW120639   0.732   0.629   4.927  0.9905  0.5558 -1.6996
39047SOL    HW220640   0.600   0.703   4.919  0.5213 -0.0283  0.1749
39048SOL     OW20641   4.045   7.066   6.547  0.8284 -0.5697 -0.9231
39048SOL    HW120642   4.140   7.078   6.554  0.7937 -0.4534 -0.6680
39048SOL    HW220643   4.030   6.976   6.576  0.6988 -0.1368  0.3837
39049SOL     OW20644   0.164   9.579   6.328 -0.0236 -0.0188  0.4084
39049SOL    HW120645   0.172   9.579   6.424  2.3469 -0.8709  0.2873
39049SOL    HW220646   0.191   9.491   6.302  0.8329  0.6465 -1.1085
39050SOL     OW20647   6.388   7.875   7.864  0.1173  0.0713  0.2659
39050SOL    HW120648   6.477   7.911   7.866  0.1412  0.0923 -0.9229
39050SOL    HW220649   6.400   7.782   7.846 -0.1295  0.2240 -0.7384
39051SOL     OW20650  10.319   0.990   0.440  0.1616  0.3309 -0.4645
39051SOL    HW120651  10.225   0.986   0.422  0.0110  0.2448  0.3021
39051SOL    HW220652  10.359   1.005   0.354 -0.4128 -1.4420 -1.0829
39052SOL     OW20653   0.052  10.495   1.038 -0.0041 -0.3826  0.5258
39052SOL    HW120654   0.036  10.483   0.944 -2.0390 -0.7834  0.8832
39052SOL    HW220655   0.136  10.451   1.054  3.2097  3.9781 -1.9915
39053SOL     OW20656   2.032   3.376   3.699 -0.0239  0.1374 -0.0289
39053SOL    HW120657   2.126   3.389   3.687  0.4481 -0.6389  2.2954
39053SOL    HW220658   2.015   3.288   3.664  0.1517  0.1764 -0.2137
39054SOL     OW20659   4.031   8.851   3.068 -0.4568 -0.9034  0.3116
39054SOL    HW120660   3.996   8.935   3.097 -1.9478 -1.6135  0.7132
39054SOL    HW220661   3.987   8.835   2.984 -0.8887 -1.6785  0.6741
39055SOL     OW20662   5.116   6.098   6.645  0.2424 -0.3636 -0.3922
39055SOL    HW120663   5.022   6.092   6.627 -0.1253 -0.2942  1.3985
39055SOL    HW220664   5.128   6.053   6.728  1.8656 -0.6812 -0.7667
39056SOL     OW20665   2.743   8.612   6.512  0.0504  0.6329 -0.4013
39056SOL    HW120666   2.679   8.551   6.475 -1.9035  1.9003  0.6803
39056SOL    HW220667   2.814   8.614   6.448 -1.4291 -0.1105 -2.1694
39057SOL     OW20668   0.380   2.936   0.042  0.6732 -0.6079  0.4664
39057SOL    HW120669   0.312   2.918   0.107  0.5165  0.0268  0.4847
39057SOL    HW220670   0.463   2.922   0.089  0.5692 -1.3752  0.4458
39058SOL     OW20671   0.331   2.137   9.288  0.3844 -0.3304  0.4208
39058SOL    HW120672   0.253   2.192   9.299 -0.7953 -1.9839  0.8512
39058SOL    HW220673   0.397   2.195   9.250 -1.7183  0.6214 -2.0471
39059SOL     OW20674   6.693   4.250   8.257 -0.5369 -0.6486  0.0480
39059SOL    HW120675   6.678   4.290   8.342  2.1665 -1.6963  1.1485
39059SOL    HW220676   6.663   4.315   8.194 -2.2232  0.3374  1.7579
39060SOL     OW20677   2.968   8.264   3.639 -0.1863  0.6220  0.0712
39060SOL    HW120678   2.966   8.304   3.552 -1.7083 -0.5829 -0.5111
39060SOL    HW220679   2.883   8.221   3.647  0.7037 -1.0142  1.3462
39061SOL     OW20680   3.142   8.416   0.456  0.3437 -0.1502 -0.1081
39061SOL    HW120681   3.114   8.326   0.443  2.3251 -0.8528  0.1636
39061SOL    HW220682   3.142   8.428   0.551 -2.6405  1.1250 -0.1567
39062SOL     OW20683   1.247   8.379   8.053  0.6418  0.7356  0.4116
39062SOL    HW120684   1.269   8.295   8.093 -0.5619  1.0023  1.7140
39062SOL    HW220685   1.297   8.443   8.104 -1.5548  1.1636  2.1958
39063SOL     OW20686  10.784   0.962   3.995 -0.3379 -0.3571  0.4491
39063SOL    HW120687  10.813   1.051   4.017 -3.0410  0.5643  0.6865
39063SOL    HW220688  10.853   0.927   3.940  1.3645  1.4547  1.2979
39064SOL     OW20689   4.991   4.959   4.406 -0.0462  0.0440  0.0113
39064SOL    HW120690   4.965   4.903   4.479 -1.0270  2.9423  2.0851
39064SOL    HW220691   5.045   4.903   4.351  2.0710 -2.0140  3.7377
39065SOL     OW20692   9.658   2.662   2.911  0.5377 -0.1552 -0.4327
39065SOL    HW120693   9.612   2.623   2.837 -1.7872  0.3283  0.6582
39065SOL    HW220694   9.698   2.587   2.956  0.0045 -0.7251 -0.8881
39066SOL     OW20695   5.063   1.486   6.917  0.6458  0.5227 -0.5273
39066SOL    HW120696   5.014   1.458   6.840  1.1627 -0.4864 -0.4970
39066SOL    HW220697   5.005   1.465   6.991  0.3144  1.1346 -0.6051
39067SOL     OW20698   8.386   0.647   3.454  0.0204 -0.0439  0.2898
39067SOL    HW120699   8.301   0.678   3.485 -0.1656 -1.0073  0.8009
39067SOL    HW220700   8.441   0.648   3.532  0.7644  1.4543 -0.2236
39068SOL     OW20701   3.861   1.461   1.892  0.4506  0.2430  0.4601
39068SOL    HW120702   3.822   1.381   1.927  0.2172  0.7988  1.5118
39068SOL    HW220703   3.891   1.437   1.804 -1.0343 -0.5572  0.1455
39069SOL     OW20704   5.232   7.165   1.950  0.4224 -0.1793 -0.0387
39069SOL    HW120705   5.176   7.206   1.883 -0.9561 -1.0661  0.5164
39069SOL    HW220706   5.308   7.134   1.901  0.0664  0.3632 -0.9752
39070SOL     OW20707   0.937   2.494   0.045  0.2961 -0.0905 -0.2514
39070SOL    HW120708   0.946   2.439  -0.033  2.0508  0.3472 -0.3973
39070SOL    HW220709   0.999   2.458   0.107 -0.4570  0.1191  0.6441
39071SOL     OW20710   3.446   6.054   1.978  0.2148  0.2276 -0.2120
39071SOL    HW120711   3.459   6.130   1.921  0.5282 -1.5757 -2.6962
39071SOL    HW220712   3.529   6.044   2.024  0.1354  1.3979  0.2344
39072SOL     OW20713   6.505   6.682   4.792  0.4600 -0.3072  0.3857
39072SOL    HW120714   6.440   6.653   4.856 -0.7532  2.4894  0.6001
39072SOL    HW220715   6.479   6.639   4.711 -1.6316  0.5584  0.5125
39073SOL     OW20716   1.925   3.840  10.819 -0.1052 -0.6061  0.1495
39073SOL    HW120717   1.919   3.889  10.901 -2.7484  0.6537 -0.6677
39073SOL    HW220718   1.837   3.847  10.781  0.4462 -2.9617 -1.7861
39074SOL     OW20719   7.139   2.616   7.707 -0.1624  0.5167 -0.2235
39074SOL    HW120720   7.108   2.615   7.798 -0.0984  0.5068 -0.2013
39074SOL    HW220721   7.206   2.685   7.706  0.2495  0.1269 -0.1235
39075SOL     OW20722   5.766   3.925   5.844  0.3351  0.1368  0.1141
39075SOL    HW120723   5.730   3.992   5.902  0.0299  0.5431 -0.5387
39075SOL    HW220724   5.694   3.900   5.787  0.2758 -1.1991  0.7389
39076SOL     OW20725  10.080   4.418   9.700  0.0373  0.5794 -0.0044
39076SOL    HW120726  10.155   4.444   9.753 -0.2746 -0.9814  1.2894
39076SOL    HW220727  10.005   4.454   9.746 -0.1920 -0.2660  0.2949
39077SOL     OW20728   7.265   7.262   8.121 -0.0862  0.3388  0.9523
39077SOL    HW120729   7.274   7.212   8.202 -2.8548 -0.1056  1.0780
39077SOL    HW220730   7.274   7.196   8.052 -0.8409  0.1444  1.0279
39078SOL     OW20731   8.322   8.804   6.898 -0.2238  0.2369  0.1551
39078SOL    HW120732   8.261   8.877   6.893  0.2304  0.6993  1.0543
39078SOL    HW220733   8.312   8.770   6.987  0.2368 -0.1987  0.0466
39079SOL     OW20734   7.551   7.069   9.457 -0.0363 -0.2367 -0.3411
39079SOL    HW120735   7.498   7.063   9.378 -0.8531  0.1039  0.1737
39079SOL    HW220736   7.547   6.981   9.495 -0.2603 -0.2050 -0.2883
39080SOL     OW20737   8.797   2.406   6.499 -0.4109  0.1556 -0.0643
39080SOL    HW120738   8.874   2.406   6.556 -0.0704 -1.8933 -0.4592
39080SOL    HW220739   8.822   2.460   6.424  0.8383 -0.8183 -0.3870
39081SOL     OW20740   5.460   4.924   2.860  0.2091 -0.0516  0.2226
39081SOL    HW120741   5.377   4.887   2.831 -0.7408  1.4040  0.9545
39081SOL    HW220742   5.489   4.978   2.787  0.1580 -0.0222  0.2238
39082SOL     OW20743   3.901   5.427   9.633  0.0425 -0.0212 -0.5856
39082SOL    HW120744   3.892   5.347   9.686 -0.0754  0.6792  0.4723
39082SOL    HW220745   3.826   5.425   9.574 -0.0822 -0.5854 -0.4139
39083SOL     OW20746   8.493   3.110   1.878  0.7881  0.3381  0.0149
39083SOL    HW120747   8.524   3.146   1.795  1.3878 -1.3624 -0.5366
39083SOL    HW220748   8.561   3.050   1.905 -0.3461 -0.6878  0.6774
39084SOL     OW20749   7.925   2.431   3.942  0.2760 -0.4523  0.4327
39084SOL    HW120750   7.992   2.406   3.879  1.1310 -1.6493  1.7539
39084SOL    HW220751   7.968   2.495   3.999 -0.3471  0.2788  0.1070
39085SOL     OW20752   0.915   8.810   4.704  0.8347 -0.2620  0.3035
39085SOL    HW120753   0.826   8.813   4.739  0.9361  0.2221  0.5294
39085SOL    HW220754   0.946   8.901   4.709  0.3826  0.1215 -2.2387
39086SOL     OW20755   1.496   2.422   4.929  0.7373 -0.2535 -0.0549
39086SOL    HW120756   1.407   2.402   4.901  1.0625 -0.8577 -0.6904
39086SOL    HW220757   1.520   2.501   4.881  1.0690 -0.9345 -1.0336
39087SOL     OW20758   8.859   9.873   9.249  0.9096 -0.4343 -0.0328
39087SOL    HW120759   8.916   9.865   9.325  0.4876  0.7092  0.4224
39087SOL    HW220760   8.780   9.825   9.272  1.1421 -0.8721 -0.1293
39088SOL     OW20761  10.073   0.978   5.980  0.6068 -0.4146  0.3814
39088SOL    HW120762  10.026   0.901   5.949 -1.7741  1.2311 -0.4016
39088SOL    HW220763  10.067   0.974   6.075  0.5986 -1.2331  0.3486
39089SOL     OW20764   7.127   7.711   6.534 -0.4593 -0.3200 -0.5352
39089SOL    HW120765   7.193   7.724   6.602  1.2737  0.0299 -2.1944
39089SOL    HW220766   7.176   7.675   6.460 -2.0938  0.2124 -1.9324
39090SOL     OW20767   9.753   2.233   3.942  0.6332 -0.1620  0.2231
39090SOL    HW120768   9.701   2.154   3.956  0.0577  0.4110  1.5303
39090SOL    HW220769   9.805   2.242   4.021  0.9348  0.5950 -0.0490
39091SOL     OW20770   1.885   6.204   2.329 -0.2332  0.4152  0.6955
39091SOL    HW120771   1.790   6.201   2.339 -0.0185 -0.2216  3.4710
39091SOL    HW220772   1.918   6.147   2.399  2.1688 -1.8896 -2.0401
39092SOL     OW20773   4.618   4.150   4.902 -0.4112 -0.7419  0.0703
39092SOL    HW120774   4.641   4.196   4.983 -0.3426 -0.6275 -0.0132
39092SOL    HW220775   4.551   4.205   4.862 -0.5844 -0.8990  0.1458
39093SOL     OW20776   2.231   9.013   5.388  0.1353  0.0287 -0.7899
39093SOL    HW120777   2.207   9.061   5.309 -0.2957  0.3473 -0.4724
39093SOL    HW220778   2.233   9.080   5.457 -0.8261 -0.4440 -0.2737
39094SOL     OW20779  10.099  10.339   5.988 -0.0423  0.6681  0.1124
39094SOL    HW120780  10.138  10.424   6.008  1.2033  0.7717 -2.4398
39094SOL    HW220781  10.024  10.359   5.932  0.5820  0.0691 -0.9481
39095SOL     OW20782   0.835   3.165  10.879  0.2732 -0.4035  0.5364
39095SOL    HW120783   0.924   3.179  10.911  0.3178  0.2528  0.1413
39095SOL    HW220784   0.841   3.181  10.785 -0.7271  2.1404  0.8119
39096SOL     OW20785   7.033   6.031   9.552  0.1809 -0.3943 -0.1206
39096SOL    HW120786   6.950   5.997   9.519  0.8472 -1.5514 -0.6984
39096SOL    HW220787   7.032   6.009   9.645  0.5457 -1.9788 -0.4597
39097SOL     OW20788   5.513   0.267   1.447 -0.2617  0.2129  0.3048
39097SOL    HW120789   5.467   0.237   1.369  1.8576  1.3006 -1.4387
39097SOL    HW220790   5.558   0.189   1.479 -1.4819 -0.3380  0.7496
39098SOL     OW20791   8.209   9.532   1.954  0.1264  0.2586 -0.4346
39098SOL    HW120792   8.155   9.562   1.881 -2.6395 -0.0120  1.3498
39098SOL    HW220793   8.180   9.442   1.969  0.6842  0.2804  0.9186
39099SOL     OW20794   4.376   3.494   8.019 -0.5218 -0.1452  0.2764
39099SOL    HW120795   4.324   3.426   8.061 -0.7562 -0.7154 -0.9149
39099SOL    HW220796   4.455   3.500   8.074 -0.0180 -2.1041 -0.1548
39100SOL     OW20797   9.638   3.857  10.201 -0.4041  0.7599  0.4845
39100SOL    HW120798   9.700   3.786  10.215 -0.3425  0.6854 -0.1791
39100SOL    HW220799   9.628   3.897  10.288  0.9061  1.0518  0.5300
39101SOL     OW20800  10.918   2.842   3.231  0.1779 -0.3677 -0.0705
39101SOL    HW120801  10.847   2.870   3.289  0.4045 -1.6101  0.8341
39101SOL    HW220802  10.987   2.906   3.247 -0.2573  0.0894  0.0160
39102SOL     OW20803   4.918   3.354   0.141 -0.3465 -0.6249  0.1429
39102SOL    HW120804   5.006   3.382   0.165  0.0607 -0.8310 -1.0202
39102SOL    HW220805   4.932   3.269   0.097 -1.1959 -0.9959  0.5767
39103SOL     OW20806   4.135   3.157   8.085  0.5939  0.4191  0.3234
39103SOL    HW120807   4.205   3.194   8.138  0.1106  1.4919  0.2265
39103SOL    HW220808   4.146   3.198   7.999  2.1518 -2.2265 -0.8551
39104SOL     OW20809   3.259  10.927   6.944 -0.2330 -0.2218 -0.0470
39104SOL    HW120810   3.245  11.003   6.887 -0.1059  0.1935  0.4564
39104SOL    HW220811   3.354  10.916   6.946 -0.2175 -0.0514  0.3051
39105SOL     OW20812   3.927   4.291   2.735  0.5194  0.6186  0.8202
39105SOL    HW120813   3.878   4.212   2.759 -0.0373  0.0755 -1.7780
39105SOL    HW220814   3.994   4.299   2.803  0.0739 -1.6261  1.6267
39106SOL     OW20815   9.615  10.221   7.986  0.1197 -0.5833 -0.3249
39106SOL    HW120816   9.681  10.162   7.952  1.1084  0.2615  0.0614
39106SOL    HW220817   9.533  10.190   7.948  0.5830 -2.2379 -0.0624
39107SOL     OW20818   6.399   1.697   0.492 -0.0132  0.5230 -0.1175
39107SOL    HW120819   6.309   1.678   0.464  0.0133  0.4042 -0.1219
39107SOL    HW220820   6.416   1.785   0.460 -0.2097  0.6346  0.0823
39108SOL     OW20821   7.608   3.692   4.436 -0.3721 -0.3780  0.2693
39108SOL    HW120822   7.586   3.641   4.359  0.7815 -1.0707  0.3757
39108SOL    HW220823   7.544   3.666   4.502  0.7209 -2.4074  0.6090
39109SOL     OW20824   4.982   3.801  10.822 -0.0659  0.6912  0.0392
39109SOL    HW120825   4.906   3.857  10.806 -0.9304 -1.2682 -3.7664
39109SOL    HW220826   4.955   3.742  10.892 -2.2917 -0.2022 -1.4843
39110SOL     OW20827  10.394   0.014   5.797  0.0090  0.2200  0.2823
39110SOL    HW120828  10.413  -0.080   5.796  1.3865  0.4800 -0.7050
39110SOL    HW220829  10.388   0.036   5.890 -0.9146 -0.9460  0.5140
39111SOL     OW20830   2.746  10.014   3.687  0.4341 -0.6233 -0.0796
39111SOL    HW120831   2.835   9.982   3.672  0.5023 -0.6850  0.4629
39111SOL    HW220832   2.750  10.058   3.772  0.1405  0.0864 -0.4229
39112SOL     OW20833   2.813   7.772   8.160 -0.2490  0.3527  0.1892
39112SOL    HW120834   2.885   7.835   8.169 -0.9555  1.3310 -0.8658
39112SOL    HW220835   2.856   7.692   8.128  0.8049 -0.1045  2.4566
39113SOL     OW20836   6.535   9.823   4.376  0.4913 -0.1817 -0.1642
39113SOL    HW120837   6.589   9.857   4.448 -0.1539  1.9512 -0.6188
39113SOL    HW220838   6.593   9.823   4.300  1.0751 -2.1240  0.2187
39114SOL     OW20839   8.308   7.612   9.672  0.1646 -0.7111 -0.2595
39114SOL    HW120840   8.304   7.517   9.684  1.7760 -1.0564 -1.9700
39114SOL    HW220841   8.387   7.639   9.720  1.0106 -0.6346 -1.6295
39115SOL     OW20842   0.389   2.535   5.632 -0.1386  0.2094  0.0153
39115SOL    HW120843   0.448   2.576   5.569  0.6367  1.5408  1.5690
39115SOL    HW220844   0.305   2.578   5.617  0.4505  1.7687  1.0072
39116SOL     OW20845   6.446   5.828  10.903 -0.2360  0.0209  0.1688
39116SOL    HW120846   6.433   5.881  10.982  0.4405  1.3434 -0.5722
39116SOL    HW220847   6.358   5.808  10.873 -0.4988 -0.0976  0.9976
39117SOL     OW20848   9.969   3.658   0.784 -0.9587  0.0476 -0.4886
39117SOL    HW120849   9.906   3.709   0.734 -1.7028 -0.9799 -0.6364
39117SOL    HW220850  10.017   3.722   0.835 -2.8279  0.7916  0.4268
39118SOL     OW20851   7.687   3.334   1.573  0.1218 -0.0341 -0.0707
39118SOL    HW120852   7.711   3.389   1.648 -1.9045  0.2797  0.4140
39118SOL    HW220853   7.642   3.394   1.513  1.5667 -0.3167 -1.5115
39119SOL     OW20854   2.181   6.464   8.571  0.0391  0.2178 -0.0827
39119SOL    HW120855   2.227   6.511   8.500  0.8944  1.7127  1.3875
39119SOL    HW220856   2.238   6.390   8.591  1.4148  1.5315  1.0835
39120SOL     OW20857   5.620   5.647   2.035  0.0110 -0.2066 -0.1962
39120SOL    HW120858   5.553   5.648   2.103 -0.7128 -1.1533 -0.8719
39120SOL    HW220859   5.694   5.602   2.076 -0.3677 -0.6387  0.0219
39121SOL     OW20860   2.339   1.131   3.878  0.6811 -0.1984 -0.2360
39121SOL    HW120861   2.397   1.104   3.806 -1.0919 -0.7920 -1.5259
39121SOL    HW220862   2.339   1.227   3.874 -0.3045 -0.2194 -1.8698
39122SOL     OW20863  10.681   5.608   9.154  0.4468  0.2833  0.0581
39122SOL    HW120864  10.610   5.628   9.215 -0.0759 -0.0339 -0.4374
39122SOL    HW220865  10.721   5.528   9.188  0.4666  0.3759  0.2528
39123SOL     OW20866   8.573   9.147   5.314 -0.2510  0.1393 -0.4542
39123SOL    HW120867   8.607   9.102   5.236 -0.0850 -1.3089  0.4084
39123SOL    HW220868   8.513   9.084   5.354  1.1137  0.0517  1.6106
39124SOL     OW20869   1.958   2.384   1.467 -0.5669 -0.1003  0.3590
39124SOL    HW120870   2.009   2.390   1.386 -1.6872 -0.7308 -0.4192
39124SOL    HW220871   1.888   2.322   1.447 -0.7437 -0.4309  1.8882
39125SOL     OW20872   3.568   2.559   0.289  0.6449 -0.3388  0.3945
39125SOL    HW120873   3.515   2.519   0.358 -0.5132  0.8043  0.2164
39125SOL    HW220874   3.504   2.604   0.234  1.7051  0.0528 -0.5432
39126SOL     OW20875   1.654   6.099  10.303  0.6523  0.5320 -0.4208
39126SOL    HW120876   1.624   6.035  10.367  1.1513  1.6800  1.0311
39126SOL    HW220877   1.733   6.061  10.265  0.0374 -0.4081 -0.7791
39127SOL     OW20878   2.484   9.895   2.650 -0.1740  0.5007 -0.2097
39127SOL    HW120879   2.413   9.938   2.601  0.5717  2.4220  0.2853
39127SOL    HW220880   2.464   9.802   2.645 -1.0952  0.7402 -2.6437
39128SOL     OW20881   7.332   3.065   5.507 -0.6325  0.1368 -0.5334
39128SOL    HW120882   7.282   3.041   5.585 -1.5138 -0.3768 -1.2381
39128SOL    HW220883   7.276   3.042   5.433  0.0682  0.8632 -1.3320
39129SOL     OW20884   4.883   4.857   5.676  0.3806 -0.4384  0.2911
39129SOL    HW120885   4.918   4.938   5.712  1.6989 -1.3907  1.2639
39129SOL    HW220886   4.872   4.875   5.583  0.0123  1.0527  0.6014
39130SOL     OW20887   3.867   5.205   3.648 -0.4574 -0.2364  0.0454
39130SOL    HW120888   3.929   5.134   3.630 -0.0369 -0.1188  0.9817
39130SOL    HW220889   3.884   5.230   3.739 -0.0512  1.6087 -0.5056
39131SOL     OW20890   9.355   3.122   2.786  0.3879  0.3941 -0.7265
39131SOL    HW120891   9.418   3.054   2.811 -0.3354 -1.1247 -2.7096
39131SOL    HW220892   9.303   3.138   2.865  0.3436 -1.6528 -0.2908
39132SOL     OW20893   5.667   2.748   8.173  0.4181  0.7516  0.5350
39132SOL    HW120894   5.658   2.710   8.085 -0.8519 -0.1124  1.0028
39132SOL    HW220895   5.624   2.684   8.230 -0.7371  2.3412  1.5152
39133SOL     OW20896   3.539   8.743   2.913 -0.5369  0.1831  0.1775
39133SOL    HW120897   3.577   8.655   2.917 -2.4549 -0.6785  0.5720
39133SOL    HW220898   3.483   8.749   2.990 -0.5994  1.6992  0.0521
39134SOL     OW20899   2.920   6.267   7.954  0.3320  0.0739  0.2637
39134SOL    HW120900   2.849   6.314   7.911  0.2099  1.4660  1.8699
39134SOL    HW220901   2.962   6.332   8.010  1.4652 -1.2622  1.0482
39135SOL     OW20902   4.859   1.914   4.962  0.5738  0.3074  0.9661
39135SOL    HW120903   4.923   1.852   4.927  0.8508  0.1712  1.6885
39135SOL    HW220904   4.912   1.980   5.007  0.1843 -0.6160  2.8809
39136SOL     OW20905   8.241   8.873   8.406 -0.0307 -0.1764  0.2259
39136SOL    HW120906   8.227   8.793   8.457  2.2891 -1.4589 -0.9654
39136SOL    HW220907   8.153   8.904   8.385 -1.0451 -0.5986  3.3586
39137SOL     OW20908   2.313   6.352   4.533  0.0599 -0.4429 -0.0719
39137SOL    HW120909   2.327   6.363   4.439  0.5727 -0.6886 -0.0254
39137SOL    HW220910   2.383   6.401   4.575 -0.6712  0.3987  0.2079
39138SOL     OW20911   7.765   8.510   0.271  0.1501  0.0080  0.2476
39138SOL    HW120912   7.826   8.558   0.215  2.2219 -2.3775  0.2823
39138SOL    HW220913   7.759   8.563   0.351  1.1113  0.9732 -0.2892
39139SOL     OW20914   8.822   5.854   6.434 -0.1035 -0.2569  0.7214
39139SOL    HW120915   8.796   5.931   6.384 -0.5531 -1.3004 -0.7044
39139SOL    HW220916   8.740   5.820   6.470 -0.1507 -1.0195 -0.0734
39140SOL     OW20917   0.537   8.804   5.416 -0.1371 -0.2161  0.4838
39140SOL    HW120918   0.599   8.776   5.484  0.1915 -0.1117  0.2292
39140SOL    HW220919   0.591   8.848   5.351 -0.3265 -1.0265 -0.2438
39141SOL     OW20920   6.082   9.454   2.464 -0.6425 -0.4108  0.0434
39141SOL    HW120921   6.069   9.508   2.542 -0.0550  1.5951 -1.1584
39141SOL    HW220922   5.998   9.457   2.419 -0.8186 -1.1077  0.3180
39142SOL     OW20923   2.193   4.973   6.171 -0.0943 -0.2024 -0.4407
39142SOL    HW120924   2.284   4.995   6.152  0.1491 -1.7484 -1.3024
39142SOL    HW220925   2.142   5.027   6.111  0.2987  0.0867 -0.5156
39143SOL     OW20926   3.592   7.011   2.440  0.5450  0.1407  0.1157
39143SOL    HW120927   3.498   7.019   2.431  0.6260 -0.5520 -1.6158
39143SOL    HW220928   3.604   6.942   2.505 -0.1292  0.2313  0.3454
39144SOL     OW20929   6.267   1.119   1.298  0.3872  0.2935 -0.2485
39144SOL    HW120930   6.293   1.030   1.278 -1.5161  0.0704 -2.2243
39144SOL    HW220931   6.235   1.116   1.388 -2.8812 -1.9627 -1.2753
39145SOL     OW20932   1.449  10.311   6.223  0.6161 -0.0440 -0.3270
39145SOL    HW120933   1.535  10.293   6.261  0.0853  0.2146  1.0209
39145SOL    HW220934   1.389  10.255   6.271 -0.3029  1.5130  0.3966
39146SOL     OW20935   9.923   8.588   0.021  0.0303 -0.0051 -0.1993
39146SOL    HW120936   9.917   8.521   0.089  0.5137  0.4186  0.2678
39146SOL    HW220937   9.853   8.649   0.041 -0.8079 -0.6865 -0.9881
39147SOL     OW20938   6.054   8.832   7.867 -0.0896 -0.1215  0.2665
39147SOL    HW120939   5.986   8.900   7.870 -1.8098 -1.7695  0.2094
39147SOL    HW220940   6.108   8.856   7.791 -0.0508  1.7034  0.8293
39148SOL     OW20941   3.115   0.872   3.154  0.7918 -0.0850 -0.7415
39148SOL    HW120942   3.156   0.863   3.068  3.1858 -0.3426  0.3521
39148SOL    HW220943   3.168   0.816   3.211 -1.6617 -1.1377  0.6464
39149SOL     OW20944   9.461   4.048   0.059  0.7935 -0.5944  0.6677
39149SOL    HW120945   9.450   4.111   0.130 -0.8351  0.2205 -0.2381
39149SOL    HW220946   9.406   3.974   0.084  1.0406 -0.7556  0.7370
39150SOL     OW20947   8.273   8.684   3.152 -0.2354 -0.2380  0.1659
39150SOL    HW120948   8.298   8.740   3.226  0.1412  0.3640 -0.4098
39150SOL    HW220949   8.258   8.598   3.192 -0.0205  0.0703  0.9404
39151SOL     OW20950   9.855   7.977   6.306 -0.1397 -0.6268 -0.1115
39151SOL    HW120951   9.875   7.895   6.351  1.0949  0.2856  1.0754
39151SOL    HW220952   9.771   8.004   6.343  0.9913  0.2567  1.9516
39152SOL     OW20953   1.187   7.384  10.138 -0.2866 -0.5489 -0.5880
39152SOL    HW120954   1.156   7.469  10.169 -1.9536 -1.6554  0.9819
39152SOL    HW220955   1.244   7.353  10.208 -1.0347 -1.4291 -0.3567
39153SOL     OW20956   4.113  10.746   1.395  0.0108  0.3574 -0.1015
39153SOL    HW120957   4.046  10.687   1.431 -0.4157 -0.3272 -1.8890
39153SOL    HW220958   4.063  10.819   1.358  0.2176 -0.1281 -1.3937
39154SOL     OW20959   9.446  10.397  10.612 -0.4520 -0.1113 -0.0607
39154SOL    HW120960   9.358  10.393  10.574 -0.3316 -0.7717 -0.2895
39154SOL    HW220961   9.443  10.471  10.672 -0.7178  0.8502 -1.2056
39155SOL     OW20962   7.140   2.950   4.344 -1.0987 -0.4177 -0.0548
39155SOL    HW120963   7.143   3.044   4.323 -0.6648 -0.1521  1.1273
39155SOL    HW220964   7.180   2.908   4.268 -0.1916  0.4527 -0.0910
39156SOL     OW20965  10.518   9.231   6.199 -0.6084 -0.0594 -0.3588
39156SOL    HW120966  10.479   9.318   6.208 -1.7410 -0.5740 -0.1608
39156SOL    HW220967  10.588   9.242   6.135 -1.7425  0.6818 -1.5121
39157SOL     OW20968   0.727   3.619   0.514 -0.8265 -0.0115  0.0355
39157SOL    HW120969   0.815   3.645   0.485 -1.7252  2.3868 -0.7904
39157SOL    HW220970   0.695   3.561   0.444  0.4470 -1.8368  0.8834
39158SOL     OW20971   1.325  10.398   9.835  0.2389 -0.0889  0.0076
39158SOL    HW120972   1.249  10.351   9.870  1.1554 -0.9476  0.8999
39158SOL    HW220973   1.293  10.439   9.755 -1.1052 -0.6254  0.2488
39159SOL     OW20974   9.828   6.474   2.953  0.1434  0.2181 -0.0044
39159SOL    HW120975   9.886   6.545   2.928 -0.7700  0.3717 -1.8830
39159SOL    HW220976   9.821   6.481   3.048 -0.3503  3.0215 -0.1605
39160SOL     OW20977   5.784   7.910   1.897  0.2141  1.1231 -0.3438
39160SOL    HW120978   5.839   7.910   1.975  0.0484  1.6297 -0.2192
39160SOL    HW220979   5.787   8.001   1.866 -0.4941  1.1380 -0.3783
39161SOL     OW20980   8.110  10.793   3.709  0.2263  0.2643 -0.2933
39161SOL    HW120981   8.071  10.779   3.622  0.2203  0.2261 -0.2842
39161SOL    HW220982   8.200  10.763   3.699 -0.4426 -2.2259  0.4292
39162SOL     OW20983   9.243   4.124   4.653  0.5419  0.0643 -0.2054
39162SOL    HW120984   9.217   4.209   4.690 -1.7283 -0.2223 -1.0024
39162SOL    HW220985   9.238   4.137   4.558 -1.4063 -1.3523 -0.3549
39163SOL     OW20986   6.028   3.786   7.882  0.1429  0.4161  0.4266
39163SOL    HW120987   6.034   3.826   7.969  1.6458  0.6090  0.2661
39163SOL    HW220988   6.091   3.835   7.829 -0.3735 -0.0456 -0.6394
39164SOL     OW20989   8.732   5.179   2.697 -0.4819  0.2139  0.4137
39164SOL    HW120990   8.678   5.190   2.775 -1.5147  0.1908 -0.2832
39164SOL    HW220991   8.798   5.114   2.723 -1.3780 -0.4948  0.9898
39165SOL     OW20992   0.542   3.098   0.506 -0.3037  0.1514 -0.2661
39165SOL    HW120993   0.610   3.036   0.534 -0.2554  0.1069 -0.4790
39165SOL    HW220994   0.496   3.120   0.586 -0.3940 -0.2532 -0.2031
39166SOL     OW20995   8.328   4.656   0.960 -0.1524 -1.0644 -0.1766
39166SOL    HW120996   8.267   4.598   1.005 -0.0551 -1.3454 -0.4022
39166SOL    HW220997   8.406   4.602   0.945 -0.6518 -1.3915 -1.8122
39167SOL     OW20998   4.968   7.231   3.483 -0.4441  0.3787  0.2755
39167SOL    HW120999   4.993   7.226   3.575  1.0942 -1.5224 -0.1648
39167SOL    HW221000   4.882   7.188   3.479 -0.6647  0.7659  0.8704
39168SOL     OW21001   3.411   2.925   9.285  0.0978  0.0498 -0.3602
39168SOL    HW121002   3.371   3.001   9.242 -0.5149 -0.4265 -0.6325
39168SOL    HW221003   3.360   2.850   9.255  0.6802 -0.4740 -0.0665
39169SOL     OW21004   5.886   2.991   3.182 -0.2639  0.0976 -0.8356
39169SOL    HW121005   5.905   3.050   3.108 -1.9570  0.1209 -1.2885
39169SOL    HW221006   5.827   2.926   3.145  0.7912 -1.3249 -0.0823
39170SOL     OW21007   7.655  10.295   5.186 -0.0395 -0.0452  0.7252
39170SOL    HW121008   7.567  10.258   5.194  0.6292 -1.5605  1.3183
39170SOL    HW221009   7.640  10.389   5.176 -1.6658  0.4426  5.2563
39171SOL     OW21010   7.396   2.669   7.376 -0.2799 -0.3721  0.1204
39171SOL    HW121011   7.370   2.729   7.446  1.5126  0.1209  0.4212
39171SOL    HW221012   7.332   2.684   7.307  0.4205  2.3723 -0.0507
39172SOL     OW21013   8.507   1.517   8.642  0.5586 -0.4988 -0.7548
39172SOL    HW121014   8.530   1.516   8.735  1.4239  1.3098 -0.9121
39172SOL    HW221015   8.567   1.453   8.602  0.9994 -0.4220 -0.2308
39173SOL     OW21016   0.678   2.376   8.921 -0.2327 -0.0207  0.1592
39173SOL    HW121017   0.620   2.305   8.896 -1.5997  1.0496  0.1525
39173SOL    HW221018   0.619   2.448   8.944  1.0705  0.7748  1.1989
39174SOL     OW21019   3.930   2.229   8.214  0.0978  0.2349 -0.5309
39174SOL    HW121020   3.899   2.148   8.173  0.5854 -0.6412  0.7476
39174SOL    HW221021   4.024   2.231   8.195  0.9318 -1.6173  2.6405
39175SOL     OW21022   0.972   5.425   6.679  0.3550  0.3651  0.1918
39175SOL    HW121023   0.958   5.374   6.759 -0.4402  0.0550 -0.1310
39175SOL    HW221024   0.885   5.432   6.641  0.6431  1.0006 -0.3566
39176SOL     OW21025   7.892   4.290   1.102 -0.1779 -0.0313  0.4018
39176SOL    HW121026   7.824   4.307   1.167 -0.9753  1.5718 -0.8122
39176SOL    HW221027   7.960   4.244   1.151 -1.3086 -0.0096  2.0677
39177SOL     OW21028   2.652   3.351   9.174 -0.2568  0.6255 -0.1186
39177SOL    HW121029   2.683   3.263   9.194  0.0044  1.2100  2.4994
39177SOL    HW221030   2.729   3.397   9.141 -0.2598  0.0261 -0.9717
39178SOL     OW21031   0.042   3.985   6.783 -0.1275 -0.1005 -0.0053
39178SOL    HW121032   0.091   3.923   6.837  0.2035  0.3115  0.1770
39178SOL    HW221033   0.065   4.071   6.819 -0.5860  0.1269 -0.2467
39179SOL     OW21034   2.031   0.726   5.471 -0.2328  0.1212 -0.9102
39179SOL    HW121035   2.009   0.814   5.439  0.2035 -0.4588 -2.9918
39179SOL    HW221036   2.127   0.724   5.471 -0.2286 -0.7163 -2.0733
39180SOL     OW21037   6.503   2.170   2.360  0.4481 -0.3544 -0.7764
39180SOL    HW121038   6.475   2.261   2.367  0.1059 -0.5331  0.3326
39180SOL    HW221039   6.558   2.155   2.437  0.8291 -0.9768 -1.1549
39181SOL     OW21040   7.259   2.373   4.561  0.2647  0.3150  0.2816
39181SOL    HW121041   7.343   2.327   4.559 -0.3450 -0.8384  0.0797
39181SOL    HW221042   7.220   2.354   4.476  0.1303  1.5106  0.0647
39182SOL     OW21043   3.627   3.575   0.455 -0.2639  0.0613 -0.5010
39182SOL    HW121044   3.665   3.572   0.543 -0.4941 -1.5902 -0.4403
39182SOL    HW221045   3.666   3.501   0.409 -2.8912 -1.3738 -0.6214
39183SOL     OW21046   7.071   7.683   0.297 -0.4205 -0.1274 -0.2351
39183SOL    HW121047   7.047   7.593   0.322 -0.2224 -0.5331 -1.4507
39183SOL    HW221048   7.080   7.729   0.380 -3.1675 -0.5232  0.3903
39184SOL     OW21049   9.831   9.295   5.883  0.3159  0.2315  0.0935
39184SOL    HW121050   9.837   9.385   5.916  1.0066  0.2966 -0.1948
39184SOL    HW221051   9.798   9.245   5.957  0.2796  0.6572  0.3697
39185SOL     OW21052   0.696   4.179  10.283 -0.3760  0.1080  0.9794
39185SOL    HW121053   0.730   4.125  10.355  0.1579  0.0546  0.6938
39185SOL    HW221054   0.694   4.120  10.208  0.3957  0.5334  0.6203
39186SOL     OW21055  10.237   9.447   6.809  0.1770  1.3491 -0.8957
39186SOL    HW121056  10.198   9.364   6.836 -0.2586  1.8188 -0.0227
39186SOL    HW221057  10.232   9.446   6.713 -0.0433  0.4827 -0.8838
39187SOL     OW21058   1.719   2.137   0.069 -0.0357  0.2848 -0.5202
39187SOL    HW121059   1.716   2.117   0.162  2.2989  0.8482 -0.2845
39187SOL    HW221060   1.642   2.091   0.033  0.6696 -2.4897  1.1786
39188SOL     OW21061   1.062  10.730   6.723  0.0265 -0.0848 -0.1361
39188SOL    HW121062   1.035  10.821   6.732  1.1967  0.3692 -1.0125
39188SOL    HW221063   1.144  10.724   6.771  0.2141 -0.5586 -0.5037
39189SOL     OW21064  10.768   0.911   1.098 -0.2070  0.2427  0.8002
39189SOL    HW121065  10.718   0.835   1.071  1.4575 -0.3786 -0.7783
39189SOL    HW221066  10.707   0.964   1.149 -1.6149 -1.7683  1.3030
39190SOL     OW21067   0.570   0.323  10.309 -0.1719 -0.1839  0.0644
39190SOL    HW121068   0.527   0.408  10.300 -0.6703 -0.3698  0.6687
39190SOL    HW221069   0.522   0.265  10.250 -0.2320 -0.1935  0.1217
39191SOL     OW21070   7.842   3.384   3.611 -0.3826  0.3831  0.5021
39191SOL    HW121071   7.833   3.371   3.706 -0.1812  1.9418  0.7761
39191SOL    HW221072   7.814   3.475   3.598  0.5173  0.4903 -0.7947
39192SOL     OW21073   8.364   7.478   2.738  0.5190 -0.1115  0.2878
39192SOL    HW121074   8.449   7.434   2.731 -0.6329 -2.3590 -0.4063
39192SOL    HW221075   8.319   7.432   2.808 -0.7484 -0.0671 -0.4643
39193SOL     OW21076   4.657   6.248   5.413 -0.1865  0.1478 -0.4255
39193SOL    HW121077   4.656   6.313   5.343  0.2242 -1.1347 -1.6728
39193SOL    HW221078   4.565   6.232   5.432 -0.3493 -0.4674 -1.6411
39194SOL     OW21079   8.401   3.575   5.085 -0.4373 -0.0059  0.3509
39194SOL    HW121080   8.494   3.563   5.104 -0.5424 -3.0382 -0.4708
39194SOL    HW221081   8.399   3.616   4.998  0.0906  1.3308  0.9548
39195SOL     OW21082  10.601   0.491   0.095  0.1346 -0.0792 -0.0830
39195SOL    HW121083  10.684   0.529   0.125  0.1919 -0.4290  0.2052
39195SOL    HW221084  10.534   0.540   0.144  0.0071  1.9370 -2.1267
39196SOL     OW21085   8.222   2.279   4.886 -0.1719  0.1533 -0.2443
39196SOL    HW121086   8.286   2.238   4.828 -0.5651 -0.7789 -0.0306
39196SOL    HW221087   8.146   2.296   4.829 -0.0593  0.4670 -0.3024
39197SOL     OW21088   0.750   1.649   7.919  0.0136 -0.2557  0.4137
39197SOL    HW121089   0.713   1.721   7.868  0.5900 -0.0201  0.3254
39197SOL    HW221090   0.704   1.654   8.003 -0.8024 -0.5292 -0.0068
39198SOL     OW21091   8.536   8.306   7.409 -0.1333  0.6775 -0.2401
39198SOL    HW121092   8.573   8.239   7.466  4.0547  0.7415 -2.4914
39198SOL    HW221093   8.460   8.263   7.369  1.5897 -2.3290 -0.5830
39199SOL     OW21094   7.318   3.944  10.061 -0.2962 -0.6222 -0.2776
39199SOL    HW121095   7.396   3.945  10.117 -0.2193 -0.4051 -0.3913
39199SOL    HW221096   7.285   4.033  10.062 -1.1977 -0.9521  0.6783
39200SOL     OW21097   9.601   1.005   2.546  0.0770  0.4557  0.0058
39200SOL    HW121098   9.552   1.009   2.464 -0.2289 -0.7077  0.1166
39200SOL    HW221099   9.535   0.994   2.613  0.2955  1.8277  0.4753
39201SOL     OW21100   9.210   4.910   2.768  0.1785 -0.1093  0.0920
39201SOL    HW121101   9.175   4.946   2.850 -0.4961 -1.3869  0.3881
39201SOL    HW221102   9.260   4.833   2.796 -1.8961 -1.8958 -0.8431
39202SOL     OW21103   8.898   9.558  10.725 -0.8070  0.5166 -0.3015
39202SOL    HW121104   8.909   9.481  10.670 -0.1885  1.1619 -1.1040
39202SOL    HW221105   8.821   9.602  10.688 -2.1240 -0.4823  1.1102
39203SOL     OW21106  10.866   0.480   0.522 -0.1598  0.8261 -0.4125
39203SOL    HW121107  10.791   0.537   0.505 -0.2370  1.4226  1.6167
39203SOL    HW221108  10.940   0.540   0.532  0.2781  0.3619 -0.8128
39204SOL     OW21109   7.688   2.163   0.104 -0.6851 -0.2826  0.2487
39204SOL    HW121110   7.653   2.180   0.016  0.4996 -0.3285 -0.2460
39204SOL    HW221111   7.615   2.125   0.152 -2.0819  1.8775  0.0053
39205SOL     OW21112   8.512   1.434   5.520 -0.0606  0.0907 -0.2194
39205SOL    HW121113   8.595   1.468   5.553  0.3011 -0.0713 -0.9466
39205SOL    HW221114   8.525   1.340   5.514  0.1250  0.1768 -1.4529
39206SOL     OW21115   6.207   6.026   1.691  0.1310 -0.0560  0.6111
39206SOL    HW121116   6.155   5.955   1.727  1.0652 -1.6368 -0.9767
39206SOL    HW221117   6.290   6.023   1.739 -0.2337  0.7490  1.3270
39207SOL     OW21118   5.191   9.821   5.467  0.1876  0.3153 -0.0119
39207SOL    HW121119   5.261   9.808   5.532  0.4743 -1.0648 -0.5519
39207SOL    HW221120   5.225   9.889   5.409  0.0912  1.2877  1.0332
39208SOL     OW21121   9.396   8.887  10.199  0.0037  0.4956  0.3468
39208SOL    HW121122   9.393   8.982  10.205 -0.3557  0.4519  0.9752
39208SOL    HW221123   9.481   8.868  10.159 -1.4036  1.2187 -3.4361
39209SOL     OW21124   2.623   9.215   0.031  0.0121 -0.0493  0.2773
39209SOL    HW121125   2.562   9.204   0.104 -0.9822 -0.4987 -0.5885
39209SOL    HW221126   2.654   9.126   0.013  1.9458  0.3153  1.5187
39210SOL     OW21127   6.271   1.792   8.231 -0.2671  0.9148 -0.0913
39210SOL    HW121128   6.297   1.701   8.245  0.5914  1.1456 -0.0920
39210SOL    HW221129   6.256   1.798   8.137 -1.0122  0.6104  0.0025
39211SOL     OW21130   8.821   0.339   3.083  0.5334  0.6804 -0.1675
39211SOL    HW121131   8.807   0.344   2.988 -1.0073  0.8067  0.0367
39211SOL    HW221132   8.914   0.358   3.095  0.7014  0.8849 -1.6358
39212SOL     OW21133   0.190   4.979   0.534  0.4035  0.3526  0.1802
39212SOL    HW121134   0.205   4.966   0.441  0.7793  1.7956  0.0044
39212SOL    HW221135   0.104   4.941   0.550 -0.1534  1.0567 -0.9993
39213SOL     OW21136   5.851   0.590   7.904 -0.1431 -0.3784  0.2880
39213SOL    HW121137   5.805   0.625   7.827 -2.3166 -0.2405  1.5489
39213SOL    HW221138   5.792   0.523   7.939  1.3536 -1.2949  1.1527
39214SOL     OW21139   9.971   1.535   3.371 -0.4906 -0.2969  0.0399
39214SOL    HW121140  10.042   1.506   3.314  0.1891  0.5704  0.4164
39214SOL    HW221141  10.015   1.588   3.438 -1.4281 -0.2247  0.6043
39215SOL     OW21142   1.107  10.618   1.508 -0.3869 -0.0130 -0.2269
39215SOL    HW121143   1.018  10.632   1.476  0.0602 -1.1589 -2.1666
39215SOL    HW221144   1.162  10.670   1.449  0.4769 -2.1962 -1.4636
39216SOL     OW21145   6.177   4.106   8.717 -0.8716  0.4341 -0.1473
39216SOL    HW121146   6.096   4.153   8.739  0.0191  0.5558  3.4117
39216SOL    HW221147   6.247   4.168   8.735  0.1641 -0.8557  0.4216
39217SOL     OW21148   2.623   8.919   9.833  0.0378  0.1392  0.4936
39217SOL    HW121149   2.581   8.837   9.808  0.2716 -0.1224  0.9407
39217SOL    HW221150   2.564   8.959   9.896  0.5877 -0.3820  1.3682
39218SOL     OW21151   0.527   6.270   8.896  0.6824 -0.0234  0.6630
39218SOL    HW121152   0.434   6.258   8.914  0.7152  0.8954  1.5379
39218SOL    HW221153   0.536   6.364   8.880  1.1359 -0.3823 -1.4947
39219SOL     OW21154  10.931   0.066   9.892  0.2533 -0.5174  0.4246
39219SOL    HW121155  10.980   0.097   9.967 -1.4865  0.4737  1.2134
39219SOL    HW221156  10.943   0.133   9.825  1.2400 -1.0689  0.0146
39220SOL     OW21157   4.199   1.340   3.211  0.7685 -0.3807 -0.2676
39220SOL    HW121158   4.182   1.426   3.249 -2.2893  0.1115 -2.3857
39220SOL    HW221159   4.184   1.278   3.283 -1.1655  0.6907  0.3234
39221SOL     OW21160  10.612   4.586   7.403  0.1797  0.3000  0.5668
39221SOL    HW121161  10.560   4.583   7.322  1.6396 -0.7537 -0.4065
39221SOL    HW221162  10.580   4.663   7.450 -2.5209 -0.5307  0.2567
39222SOL     OW21163   2.315   0.649   1.344 -0.6331 -0.1262  0.4506
39222SOL    HW121164   2.246   0.605   1.294 -0.5117  2.8530 -2.7525
39222SOL    HW221165   2.272   0.724   1.384  0.4124  1.0821 -0.5806
39223SOL     OW21166   6.093   9.007   8.605 -0.2324  0.1070  0.3736
39223SOL    HW121167   6.163   9.069   8.585 -0.1430  0.1598  0.8561
39223SOL    HW221168   6.012   9.055   8.590 -0.1671  0.1830  0.2616
39224SOL     OW21169   6.810   5.687   2.570  0.4326 -0.4064 -0.0376
39224SOL    HW121170   6.728   5.640   2.587  0.8977 -2.2600 -2.3044
39224SOL    HW221171   6.793   5.734   2.488  1.8501 -1.4566 -0.9654
39225SOL     OW21172   3.848   4.651   3.830  0.3971 -0.5397 -0.4331
39225SOL    HW121173   3.871   4.721   3.892  1.7973 -0.9213 -0.4845
39225SOL    HW221174   3.930   4.630   3.786  0.1590 -2.6363  0.0185
39226SOL     OW21175   2.465   5.133   5.208 -0.1946 -0.8740  0.1748
39226SOL    HW121176   2.472   5.068   5.139  0.8813 -1.6983  1.0299
39226SOL    HW221177   2.529   5.201   5.184 -0.9075 -0.3885 -0.4127
39227SOL     OW21178   2.334   7.757   4.243  0.0290  0.3397 -0.4060
39227SOL    HW121179   2.396   7.738   4.173 -0.2711 -0.5382 -0.4480
39227SOL    HW221180   2.388   7.783   4.317  0.3685  0.8727 -0.8376
39228SOL     OW21181   0.955   8.362   2.682  0.7052 -0.0676  0.0855
39228SOL    HW121182   1.011   8.356   2.605 -0.7122  2.3494 -1.2768
39228SOL    HW221183   0.903   8.282   2.680  1.5234 -0.5997 -0.7797
39229SOL     OW21184   2.028  10.452   3.999 -0.0199 -0.0123 -0.1315
39229SOL    HW121185   1.975  10.501   4.062  0.1900  0.0620 -0.0122
39229SOL    HW221186   2.090  10.404   4.053  0.0916 -0.0296 -0.2759
39230SOL     OW21187   5.922   3.501   1.430  0.0349  0.2713  0.0243
39230SOL    HW121188   5.994   3.502   1.367  0.6377 -0.0850  0.6890
39230SOL    HW221189   5.963   3.477   1.513 -1.2828 -3.4325 -0.1951
39231SOL     OW21190   4.487   5.157   6.100 -0.3879  0.7451  0.0573
39231SOL    HW121191   4.450   5.223   6.041 -2.9701 -1.6455 -1.2376
39231SOL    HW221192   4.421   5.147   6.169 -1.1574 -1.8572 -0.9291
39232SOL     OW21193   0.982   4.024   3.744  0.5790  0.1913 -0.4403
39232SOL    HW121194   1.050   3.958   3.750  0.4910  0.1005 -0.4458
39232SOL    HW221195   0.900   3.975   3.749  0.5119  0.2647 -0.7979
39233SOL     OW21196   9.796   6.504   4.201 -0.0830  0.3429 -0.0451
39233SOL    HW121197   9.825   6.588   4.236 -1.2143  0.4669  0.6410
39233SOL    HW221198   9.868   6.476   4.144  0.9904  1.0403  0.9086
39234SOL     OW21199   4.464   9.881   3.964  0.4432  0.5963  0.1477
39234SOL    HW121200   4.403   9.807   3.967  0.6645  0.4158  2.7443
39234SOL    HW221201   4.425   9.946   4.024  2.4112  0.7674  1.3198
39235SOL     OW21202   7.558   2.917   4.295 -0.2323 -0.3145  0.4556
39235SOL    HW121203   7.631   2.961   4.338 -0.3482 -0.4824  0.8340
39235SOL    HW221204   7.531   2.849   4.357 -1.1932  0.2334  0.6581
39236SOL     OW21205   7.114   6.904  10.732 -0.4844  0.1905 -0.3305
39236SOL    HW121206   7.047   6.948  10.785 -1.0643  0.5825 -1.3661
39236SOL    HW221207   7.164   6.975  10.693  1.1416 -0.0934  1.1285
39237SOL     OW21208   5.656   4.166  10.796  0.3588 -0.1813 -0.1792
39237SOL    HW121209   5.739   4.199  10.832  0.7935  0.0315 -1.3339
39237SOL    HW221210   5.683   4.110  10.722 -0.5274 -0.0433 -0.6151
39238SOL     OW21211   0.077   6.212   0.629  0.0918  0.1731 -0.1607
39238SOL    HW121212   0.161   6.182   0.594 -0.5621 -1.5836 -0.3455
39238SOL    HW221213   0.100   6.281   0.691  1.6610 -0.1163 -0.3734
39239SOL     OW21214   9.564   0.772   4.625 -0.0671 -0.1691  0.2191
39239SOL    HW121215   9.577   0.866   4.626  1.8537 -0.4009  0.2116
39239SOL    HW221216   9.476   0.760   4.589 -0.5620  1.6183  0.7404
39240SOL     OW21217   2.435   2.657   6.717 -0.5847 -0.2095 -0.0163
39240SOL    HW121218   2.428   2.689   6.627  1.8711 -2.2876 -1.0809
39240SOL    HW221219   2.530   2.655   6.734 -0.8300 -2.6374  1.4890
39241SOL     OW21220   0.583   4.363  10.471 -0.1296  0.5741  0.0640
39241SOL    HW121221   0.656   4.382  10.529 -0.3955  0.4587  0.4369
39241SOL    HW221222   0.621   4.309  10.401  0.7724  2.8495 -1.3299
39242SOL     OW21223   3.924  10.106   4.923 -0.1436  1.1025 -0.2367
39242SOL    HW121224   3.860  10.157   4.872 -0.5289  0.7176 -0.1387
39242SOL    HW221225   3.892  10.016   4.919 -0.1804  1.0662  0.6971
39243SOL     OW21226   9.968   7.394   9.658  0.3245  0.0216  0.1042
39243SOL    HW121227   9.909   7.383   9.733 -0.4158 -0.3333 -0.5111
39243SOL    HW221228  10.047   7.433   9.695  0.4071 -1.1491  1.2573
39244SOL     OW21229  10.280   7.862  10.625  0.0880 -0.1434 -0.3883
39244SOL    HW121230  10.290   7.889  10.717  0.5582 -0.4807 -0.3359
39244SOL    HW221231  10.358   7.809  10.607  0.2257  0.2940 -1.1191
39245SOL     OW21232   3.442   8.869   7.143  0.4269  0.0786  0.1326
39245SOL    HW121233   3.377   8.936   7.124  0.5720  0.3702  0.6461
39245SOL    HW221234   3.480   8.895   7.227  1.6229  0.2546 -0.4279
39246SOL     OW21235   7.192   8.573   7.914 -0.3243 -0.1956  0.0417
39246SOL    HW121236   7.212   8.660   7.880 -2.5287 -0.1609 -1.3614
39246SOL    HW221237   7.138   8.533   7.847 -2.2753 -1.3241  2.1486
39247SOL     OW21238   6.597   2.918   6.428 -0.1926  0.1933 -0.4662
39247SOL    HW121239   6.653   2.974   6.373  1.5662 -1.7757 -0.7846
39247SOL    HW221240   6.564   2.851   6.368 -0.5394 -0.3531  0.3236
39248SOL     OW21241   7.691   6.161   0.470  0.4257 -0.4481 -0.2022
39248SOL    HW121242   7.712   6.234   0.412 -0.3587  0.5228  0.7122
39248SOL    HW221243   7.624   6.111   0.422  2.2676 -1.6653 -1.6436
39249SOL     OW21244   4.758   5.207  10.532  0.2944  0.1117 -0.0744
39249SOL    HW121245   4.842   5.164  10.518 -0.3668 -1.7666  1.3150
39249SOL    HW221246   4.760   5.233  10.624 -0.5308  0.3603 -0.1229
39250SOL     OW21247  10.973   8.349   0.448  0.2668  0.2106 -0.6443
39250SOL    HW121248  10.885   8.312   0.446  0.2764  0.0001  1.0708
39250SOL    HW221249  11.030   8.273   0.462  0.6109  0.4795 -0.5888
39251SOL     OW21250   4.939   8.803   6.857 -0.0317 -0.0282  0.5320
39251SOL    HW121251   4.929   8.888   6.813  0.5762  0.0415  0.5249
39251SOL    HW221252   4.849   8.772   6.870 -0.2162 -0.5257 -1.6634
39252SOL     OW21253   1.766   6.586   0.426 -0.2639 -0.4489  0.4063
39252SOL    HW121254   1.858   6.562   0.436 -0.3803 -0.7673  0.7418
39252SOL    HW221255   1.738   6.543   0.345  0.0352  0.1369 -0.0207
39253SOL     OW21256   2.712   4.272   7.924 -0.4970 -0.1444  0.3197
39253SOL    HW121257   2.713   4.365   7.948  0.7077  0.2235 -0.9303
39253SOL    HW221258   2.623   4.243   7.943  0.1192  0.1191  4.6829
39254SOL     OW21259   6.785   9.376   0.764  0.0886  0.0204 -0.3532
39254SOL    HW121260   6.834   9.408   0.839 -0.0595 -0.5812  0.0153
39254SOL    HW221261   6.841   9.392   0.689  0.0403  1.0588 -0.1726
39255SOL     OW21262   4.832  10.038   2.382 -0.6845  0.0438  0.7191
39255SOL    HW121263   4.840   9.979   2.457 -0.9193  0.5576  1.1588
39255SOL    HW221264   4.802  10.121   2.420  2.3012  1.3408  0.5424
39256SOL     OW21265   6.916   1.393   4.229 -0.1471  0.0889 -0.0877
39256SOL    HW121266   7.006   1.416   4.253 -0.3108  1.9738 -1.0597
39256SOL    HW221267   6.869   1.392   4.313  0.6458 -0.2700  0.3632
39257SOL     OW21268  10.432   2.869   1.482 -0.5776 -0.3555  0.0604
39257SOL    HW121269  10.426   2.810   1.408 -2.6398  0.0055 -0.1203
39257SOL    HW221270  10.437   2.811   1.559 -3.7822 -0.9222 -0.0127
39258SOL     OW21271   4.084   5.717   1.253  0.1343 -0.3320 -0.0573
39258SOL    HW121272   4.179   5.726   1.256  0.1409 -0.6960  1.1014
39258SOL    HW221273   4.055   5.796   1.208  0.9784 -0.2181 -0.4302
39259SOL     OW21274   7.520   8.862   7.726 -0.1159 -0.4618 -0.3193
39259SOL    HW121275   7.514   8.835   7.817  2.7941 -1.4411 -0.3296
39259SOL    HW221276   7.503   8.956   7.727 -1.1962 -0.6447  1.0267
39260SOL     OW21277   6.464   7.758  10.296  0.0357 -0.2398  0.3128
39260SOL    HW121278   6.498   7.753  10.206 -0.6314 -0.8111  0.0870
39260SOL    HW221279   6.403   7.685  10.303  0.2699 -0.3525  1.3195
39261SOL     OW21280   4.657   4.517   3.928  0.1367  0.1648  0.1594
39261SOL    HW121281   4.744   4.556   3.919  1.1530 -2.2262 -1.4915
39261SOL    HW221282   4.662   4.465   4.008  0.0487  0.4173  0.3304
39262SOL     OW21283   1.121   2.275   3.932  0.5514 -0.1192  0.2228
39262SOL    HW121284   1.142   2.369   3.930 -0.7823  0.1934 -0.5731
39262SOL    HW221285   1.071   2.264   4.012 -0.7816  0.2334 -0.5213
39263SOL     OW21286   4.365   6.517   8.659 -0.6886 -0.5291  0.1933
39263SOL    HW121287   4.412   6.570   8.723 -0.2868  0.1539 -0.6507
39263SOL    HW221288   4.365   6.570   8.579 -0.7412 -1.5721 -0.5152
39264SOL     OW21289   0.876  10.756   9.940 -0.1207  0.1737  0.0954
39264SOL    HW121290   0.825  10.716   9.870  2.0689  0.0122 -1.5099
39264SOL    HW221291   0.889  10.686  10.004 -1.1498 -0.0077  0.1175
39265SOL     OW21292   6.959   1.522   8.023 -0.2850  0.6677 -0.3587
39265SOL    HW121293   6.983   1.599   8.076 -0.9670  0.4600  0.2701
39265SOL    HW221294   7.030   1.460   8.038 -0.4049  0.6620  0.2321
39266SOL     OW21295   2.673  10.562   0.350 -0.3729  0.2078  0.1190
39266SOL    HW121296   2.656  10.471   0.372 -1.0359  0.7344  1.9660
39266SOL    HW221297   2.586  10.600   0.336 -0.2257  0.9472  1.1250
39267SOL     OW21298   5.436   8.332   3.021  0.1693  0.0891 -0.1938
39267SOL    HW121299   5.372   8.289   3.078  0.6265 -0.2237  0.0999
39267SOL    HW221300   5.487   8.259   2.985 -0.1982  0.2766 -1.1137
39268SOL     OW21301  10.414   2.662   5.517 -0.3662 -0.2909 -0.0217
39268SOL    HW121302  10.500   2.629   5.543 -0.9951 -1.2803  0.9065
39268SOL    HW221303  10.364   2.583   5.494 -1.4365  0.1316  0.7676
39269SOL     OW21304   5.465   2.962   3.723 -0.0483  0.3202  0.4808
39269SOL    HW121305   5.391   2.917   3.764  0.3250 -0.1872  0.6007
39269SOL    HW221306   5.430   3.048   3.698 -0.8789 -0.1977 -0.1596
39270SOL     OW21307   1.446   6.978   8.815  0.2722 -0.0332 -0.2272
39270SOL    HW121308   1.535   7.001   8.792 -0.0573  1.0095 -0.4798
39270SOL    HW221309   1.431   7.018   8.901  0.5748 -1.5864  0.5931
39271SOL     OW21310   1.324   5.454   9.509 -0.0815  0.7820  0.0703
39271SOL    HW121311   1.403   5.488   9.468 -0.1806  0.1686 -0.6529
39271SOL    HW221312   1.268   5.429   9.436  0.3372 -1.7552  0.5322
39272SOL     OW21313   6.251   1.482   4.725 -0.0660  0.3003  0.1376
39272SOL    HW121314   6.179   1.540   4.750 -1.4050 -0.4852 -1.6616
39272SOL    HW221315   6.260   1.495   4.630  2.8109  1.0342  0.4354
39273SOL     OW21316   3.745   4.230   9.688 -0.0985  0.3622 -0.6793
39273SOL    HW121317   3.776   4.145   9.656  0.4827  0.0626  0.6224
39273SOL    HW221318   3.719   4.213   9.779  0.1056  1.5953 -0.3747
39274SOL     OW21319   5.952  10.128   1.171  0.6205  0.0567  0.5929
39274SOL    HW121320   5.897  10.106   1.246 -0.3773  2.1447  0.5456
39274SOL    HW221321   5.901  10.101   1.095  0.0524  1.1250  0.5804
39275SOL     OW21322   0.587   0.676   3.492  0.0175 -0.0442 -0.0840
39275SOL    HW121323   0.579   0.609   3.425 -1.1037  1.1315 -1.1854
39275SOL    HW221324   0.676   0.710   3.481  1.0534 -2.0804  1.2896
39276SOL     OW21325   1.479   4.642   1.901 -0.2951 -0.6466  0.1523
39276SOL    HW121326   1.552   4.638   1.839 -2.6173  0.1976 -2.8366
39276SOL    HW221327   1.432   4.560   1.887  0.2593 -1.4659  2.4956
39277SOL     OW21328   9.758   8.782   3.044 -0.5893  0.1789  0.4018
39277SOL    HW121329   9.849   8.793   3.071  0.5336 -0.6095 -2.7206
39277SOL    HW221330   9.726   8.708   3.096  0.4919  0.4776  1.5440
39278SOL     OW21331   4.029   7.525   1.151  0.2356 -0.7758  0.1593
39278SOL    HW121332   4.064   7.448   1.106  0.3735 -0.2862 -0.5749
39278SOL    HW221333   4.088   7.596   1.126 -1.0175 -0.0200 -0.7481
39279SOL     OW21334   9.547  10.151   2.841 -0.5575  0.2426  0.3367
39279SOL    HW121335   9.548  10.060   2.867 -0.1007  0.2449  0.3311
39279SOL    HW221336   9.536  10.149   2.746  4.0939 -0.0072 -0.4172
39280SOL     OW21337   4.877   1.375   5.668  0.1295  0.6151 -0.1640
39280SOL    HW121338   4.864   1.336   5.581  1.1981 -0.2475  0.0487
39280SOL    HW221339   4.972   1.378   5.679  0.0098  0.9010  0.9085
39281SOL     OW21340   0.435   0.832   3.144 -0.4962 -0.4366 -1.1372
39281SOL    HW121341   0.454   0.865   3.056  1.3670  1.2160 -0.1869
39281SOL    HW221342   0.516   0.790   3.173 -1.0687 -0.9297 -0.1853
39282SOL     OW21343   5.630   4.422   0.357  0.0041  0.1213  0.2864
39282SOL    HW121344   5.551   4.374   0.334 -0.5231  1.1031 -0.0153
39282SOL    HW221345   5.641   4.486   0.286  2.1912 -1.2618 -0.7375
39283SOL     OW21346   7.931   3.412   8.922  0.7561 -0.2504 -0.3343
39283SOL    HW121347   7.872   3.476   8.962  1.0152 -0.2728  0.0918
39283SOL    HW221348   7.872   3.347   8.882  0.4092 -1.6171  2.1959
39284SOL     OW21349   0.468   1.292  10.281 -0.0640 -0.2445  0.2058
39284SOL    HW121350   0.487   1.382  10.306 -1.5669  0.2534 -0.3110
39284SOL    HW221351   0.495   1.286  10.189 -1.3811  0.1645 -0.2268
39285SOL     OW21352   2.601   3.530   5.406  0.2178  0.3182  1.1112
39285SOL    HW121353   2.565   3.451   5.447  0.1906  0.0403  0.5585
39285SOL    HW221354   2.625   3.586   5.480 -0.0803 -0.0631  1.5034
39286SOL     OW21355   2.030   9.844   5.303 -0.4171  0.3740  0.2390
39286SOL    HW121356   2.119   9.809   5.315 -1.1167 -1.5333  0.1290
39286SOL    HW221357   2.037   9.936   5.330  0.9442 -0.4551  3.1477
39287SOL     OW21358   2.775  10.317  10.950 -0.2346 -0.3699 -0.2398
39287SOL    HW121359   2.726  10.300  11.031 -0.1294 -0.8043 -0.2652
39287SOL    HW221360   2.796  10.230  10.916 -0.6216 -0.1906 -0.9456
39288SOL     OW21361   8.091   4.286   6.398  0.1600  0.3699  0.5425
39288SOL    HW121362   8.097   4.371   6.442 -0.2325  1.8644 -2.1296
39288SOL    HW221363   8.161   4.286   6.334 -0.5491 -0.8512 -0.2922
39289SOL     OW21364   7.291   2.638   4.958 -0.5468 -0.1876 -0.3770
39289SOL    HW121365   7.313   2.635   5.051  1.0399 -1.4712 -0.7399
39289SOL    HW221366   7.209   2.686   4.954 -1.5196 -1.5042  1.8420
39290SOL     OW21367   2.223   5.835   2.155  0.0198  0.1447 -0.0930
39290SOL    HW121368   2.181   5.760   2.198  1.9989  0.3083  2.3482
39290SOL    HW221369   2.274   5.795   2.084 -2.6981 -0.2087 -2.0142
39291SOL     OW21370   4.238   6.582   8.279  0.5118 -0.2359 -0.6413
39291SOL    HW121371   4.163   6.584   8.220  1.5067  0.3498 -1.9507
39291SOL    HW221372   4.268   6.491   8.276  0.5248 -0.2207 -1.0050
39292SOL     OW21373   8.931   5.722   9.371  0.4201  0.3361 -0.0691
39292SOL    HW121374   8.986   5.660   9.419  1.0708  0.4303 -0.6888
39292SOL    HW221375   8.851   5.728   9.424  1.6302  1.5057  1.7594
39293SOL     OW21376  10.061   5.325   7.679  0.0383 -0.2972 -0.3525
39293SOL    HW121377  10.064   5.421   7.682 -0.4863 -0.2832  2.7329
39293SOL    HW221378   9.985   5.302   7.733  0.5662 -2.4877 -0.4584
39294SOL     OW21379   8.465   1.008   7.827  0.5017  0.6380  0.0381
39294SOL    HW121380   8.549   1.047   7.851  0.1070  1.7078 -0.2639
39294SOL    HW221381   8.481   0.968   7.741  0.7185  0.7620  0.0212
39295SOL     OW21382   2.494   5.852   6.057  0.0456 -0.0075  0.4822
39295SOL    HW121383   2.522   5.927   6.004  2.0100 -0.9606  0.0538
39295SOL    HW221384   2.511   5.880   6.148 -0.3696  0.4986  0.4070
39296SOL     OW21385   7.634   6.675   4.038 -0.5700 -0.1453 -0.0926
39296SOL    HW121386   7.699   6.718   4.093  0.0639  0.4232 -1.2582
39296SOL    HW221387   7.673   6.674   3.951 -1.1710 -1.8428 -0.3757
39297SOL     OW21388   4.523   3.338   9.962 -0.4587 -0.4130 -0.3982
39297SOL    HW121389   4.613   3.359   9.938  0.6231 -4.0927 -0.1792
39297SOL    HW221390   4.515   3.367  10.053  0.4733  0.0132 -0.4360
39298SOL     OW21391   6.253   1.500   6.679 -0.2362 -0.3598  0.3192
39298SOL    HW121392   6.326   1.439   6.664 -0.1413 -0.2436  0.3115
39298SOL    HW221393   6.209   1.466   6.757 -0.2376 -0.4911  0.2620
39299SOL     OW21394   4.856   7.570   9.924 -0.1206 -0.4028 -0.0772
39299SOL    HW121395   4.762   7.587   9.927  0.1973  1.5652  0.1013
39299SOL    HW221396   4.883   7.565  10.016  0.0051 -0.6313 -0.1244
39300SOL     OW21397   4.019   2.199   3.422 -0.5816 -0.1700  0.5014
39300SOL    HW121398   4.016   2.119   3.474 -0.3511 -1.3029 -1.1662
39300SOL    HW221399   3.947   2.190   3.359  0.4176  0.1544 -0.7424
39301SOL     OW21400   0.829   7.520   5.641 -0.5789  0.4303 -0.0269
39301SOL    HW121401   0.829   7.502   5.735 -1.2754 -0.1940 -0.1345
39301SOL    HW221402   0.765   7.458   5.605  0.5736 -0.1764 -1.0779
39302SOL     OW21403   6.529   5.598   2.587  0.4626 -0.4057  0.7899
39302SOL    HW121404   6.451   5.614   2.534  0.9440  1.5149  0.5989
39302SOL    HW221405   6.497   5.551   2.664 -0.4438 -2.0678 -0.5252
39303SOL     OW21406   9.778   4.484   7.966 -0.2151  0.5868 -0.0849
39303SOL    HW121407   9.772   4.522   7.878 -3.1147  1.9112  0.5494
39303SOL    HW221408   9.805   4.557   8.022 -1.4299  0.6008  0.5184
39304SOL     OW21409   9.283   1.804   9.733  0.1645 -0.0240  0.1718
39304SOL    HW121410   9.193   1.792   9.762 -0.4473  0.9392 -1.2287
39304SOL    HW221411   9.293   1.740   9.662  1.2429 -1.4962  1.5781
39305SOL     OW21412   5.245  10.042   2.291  0.1287 -0.2032  0.2365
39305SOL    HW121413   5.216  10.133   2.289  0.6645 -0.0288  0.2193
39305SOL    HW221414   5.227  10.014   2.381 -0.9042 -0.3811 -0.0046
39306SOL     OW21415   9.928   2.455   7.113  0.0530 -0.9834 -0.4134
39306SOL    HW121416   9.947   2.539   7.070  1.4209 -0.6470  0.7808
39306SOL    HW221417   9.834   2.456   7.126  0.1610  0.9491  0.6504
39307SOL     OW21418   9.891   0.403   3.695  0.2530 -0.3129 -0.3109
39307SOL    HW121419   9.859   0.349   3.768  1.7650 -0.9700 -0.0924
39307SOL    HW221420   9.953   0.463   3.736  0.3863 -0.0378 -0.9119
39308SOL     OW21421   2.506   8.127   1.794  0.2166 -0.3539  0.1074
39308SOL    HW121422   2.519   8.197   1.856 -1.9503 -0.4855  0.8135
39308SOL    HW221423   2.530   8.047   1.841 -2.6984 -0.6083  1.4182
39309SOL     OW21424   0.203   1.250   9.029 -0.7360  0.1359 -0.0355
39309SOL    HW121425   0.191   1.158   9.005 -1.5528 -0.4243  2.3033
39309SOL    HW221426   0.124   1.293   8.997  0.0017  0.2372 -1.8477
39310SOL     OW21427  10.031   3.348   7.428  0.1430  0.2310  0.1879
39310SOL    HW121428  10.116   3.369   7.465 -0.5396  1.0417  1.3731
39310SOL    HW221429  10.034   3.385   7.339  0.0099  2.9611  1.2320
39311SOL     OW21430   0.872   4.965   0.445 -0.4428  0.2834  0.0962
39311SOL    HW121431   0.933   4.904   0.487 -0.7953 -0.1622 -0.0366
39311SOL    HW221432   0.807   4.984   0.512 -0.6407  0.0795 -0.0344
39312SOL     OW21433   2.803   4.553   5.696 -0.0614 -0.5955 -0.1007
39312SOL    HW121434   2.823   4.642   5.668 -1.9054 -0.6215 -1.7083
39312SOL    HW221435   2.796   4.503   5.615 -0.0199 -1.9905  0.7190
39313SOL     OW21436   7.325   5.146   7.305 -0.2398 -0.1286 -0.0469
39313SOL    HW121437   7.388   5.215   7.324 -0.8798  0.2602  0.7104
39313SOL    HW221438   7.369   5.090   7.241  0.5721  0.5598 -0.1030
39314SOL     OW21439   8.892   7.338   5.726 -0.9935 -0.5918  0.1611
39314SOL    HW121440   8.931   7.356   5.641  0.5300 -0.6914  0.8079
39314SOL    HW221441   8.886   7.243   5.730  0.7199 -0.7087  0.8825
39315SOL     OW21442   5.085   1.897   0.775 -0.7184 -0.2536 -0.2063
39315SOL    HW121443   5.048   1.880   0.689  0.3542 -1.7607 -0.4097
39315SOL    HW221444   5.051   1.983   0.800 -0.3149  0.6423 -2.5158
39316SOL     OW21445   2.234   3.892   5.174  0.4439 -0.2775 -0.4806
39316SOL    HW121446   2.191   3.975   5.192  1.0126 -0.6711  3.5270
39316SOL    HW221447   2.175   3.826   5.211  2.7591 -1.0559  2.2153
39317SOL     OW21448  10.893   7.167   4.655  0.0560  0.1212 -0.0051
39317SOL    HW121449  10.966   7.147   4.714  1.9384  1.1217 -1.8435
39317SOL    HW221450  10.915   7.120   4.574  0.1834  2.5950 -1.5332
39318SOL     OW21451   5.848   2.941   7.856 -0.2442  0.2726  0.0729
39318SOL    HW121452   5.885   2.956   7.769 -1.1083  1.9500 -0.0505
39318SOL    HW221453   5.828   3.029   7.888 -1.4527 -0.4214  1.2989
39319SOL     OW21454   3.766   3.957   0.573  0.1331  0.1125  0.1552
39319SOL    HW121455   3.777   3.999   0.658  2.5875  1.6040 -0.7898
39319SOL    HW221456   3.819   3.877   0.578  0.9713  0.6286 -0.1943
39320SOL     OW21457   9.027   4.090   7.654  0.1150  0.6650 -0.2789
39320SOL    HW121458   9.091   4.121   7.589  1.2669 -0.2548  0.3770
39320SOL    HW221459   9.068   4.014   7.693 -1.0899  0.4959  0.7031
39321SOL     OW21460   1.161   0.390   2.140 -0.3644  0.0249  0.2530
39321SOL    HW121461   1.185   0.339   2.217 -1.5311  0.6079  1.0357
39321SOL    HW221462   1.226   0.460   2.136 -1.1326  0.8528  1.5971
39322SOL     OW21463  10.726   2.207   0.450 -0.9564 -0.6378  0.2315
39322SOL    HW121464  10.719   2.126   0.500  0.9878 -0.4468  0.9010
39322SOL    HW221465  10.790   2.187   0.381 -0.9414  0.1368  0.0141
39323SOL     OW21466   0.018   1.361   1.361  0.2909 -0.2791 -0.0116
39323SOL    HW121467  -0.007   1.276   1.397  3.1295 -1.5344 -0.7840
39323SOL    HW221468   0.113   1.359   1.356  0.3457  2.0389 -2.2822
39324SOL     OW21469   4.137   8.608   3.169  0.4220 -0.3545 -0.4443
39324SOL    HW121470   4.096   8.678   3.118  0.8108  1.3233  1.4613
39324SOL    HW221471   4.119   8.630   3.260  2.1786 -1.7164  0.2907
39325SOL     OW21472   3.909   4.573   1.145  0.4829 -0.0539  0.3999
39325SOL    HW121473   3.904   4.659   1.188  0.1833  0.1470 -0.0313
39325SOL    HW221474   3.986   4.580   1.088 -1.2586  1.0532 -2.0091
39326SOL     OW21475   5.406   4.008   1.164 -0.5254  0.1786 -0.0621
39326SOL    HW121476   5.464   3.966   1.228 -1.2144  2.0041  1.8795
39326SOL    HW221477   5.464   4.065   1.114 -0.2618  0.2118  0.2733
39327SOL     OW21478   9.709   7.063   7.384  0.4377  0.0315 -0.7268
39327SOL    HW121479   9.620   7.082   7.353  0.2189  0.8296  0.3221
39327SOL    HW221480   9.767   7.109   7.324  0.0859  0.5438 -0.6742
39328SOL     OW21481   0.438  10.132   9.478  1.0047 -0.8695  0.5168
39328SOL    HW121482   0.404  10.217   9.450  0.9086 -1.2421 -0.5075
39328SOL    HW221483   0.361  10.077   9.491  1.1001 -1.0041  0.5195
39329SOL     OW21484   6.196  10.164   9.612 -0.3004  0.2381 -0.2269
39329SOL    HW121485   6.141  10.189   9.686 -2.0059 -0.0545 -1.3409
39329SOL    HW221486   6.275  10.217   9.622 -1.0612  1.2041  1.0370
39330SOL     OW21487   0.152   1.475   7.835  0.5588  0.3820 -0.1011
39330SOL    HW121488   0.093   1.447   7.905  0.9408 -0.1495  0.0121
39330SOL    HW221489   0.094   1.495   7.761  0.0495  2.0680  0.7106
39331SOL     OW21490   3.989   9.446   5.210  0.3291 -0.2000  0.7422
39331SOL    HW121491   4.022   9.360   5.184 -2.6648 -0.5673 -2.9024
39331SOL    HW221492   3.921   9.427   5.275 -0.3906 -0.6851 -0.1219
39332SOL     OW21493   2.769   9.673   8.449 -0.0880  0.6325 -0.0273
39332SOL    HW121494   2.711   9.708   8.382 -1.2767 -0.2521  0.5034
39332SOL    HW221495   2.742   9.582   8.459  0.9044  0.4045  0.7733
39333SOL     OW21496   2.525   7.788   3.695  0.0388 -0.2275 -0.3287
39333SOL    HW121497   2.605   7.838   3.677 -1.1093  2.0388  0.4625
39333SOL    HW221498   2.486   7.832   3.770 -0.4736 -3.1537  1.2493
39334SOL     OW21499  10.377   7.569   1.426 -0.0037  0.3417 -0.1630
39334SOL    HW121500  10.361   7.476   1.441 -0.6467  0.4004 -0.4491
39334SOL    HW221501  10.424   7.572   1.343  2.8117  0.0750  1.3196
39335SOL     OW21502   8.483  10.293   0.355  0.6404  0.1438 -0.4719
39335SOL    HW121503   8.490  10.338   0.439  1.2332  1.8888 -1.4210
39335SOL    HW221504   8.391  10.304   0.329  0.7261  0.6278 -0.5843
39336SOL     OW21505   9.680   4.830   3.577  0.0917  0.3978  0.0758
39336SOL    HW121506   9.668   4.910   3.527  0.0237 -0.2527 -0.9796
39336SOL    HW221507   9.755   4.787   3.536  0.2834  0.0308  0.7883
39337SOL     OW21508   7.509  10.397   0.429 -0.1707 -0.7690 -0.4736
39337SOL    HW121509   7.491  10.367   0.340  1.2998  0.8158 -1.3551
39337SOL    HW221510   7.453  10.342   0.484 -0.7484 -2.1322 -2.3107
39338SOL     OW21511   0.824   4.155   5.517 -0.1435  0.2505 -0.5104
39338SOL    HW121512   0.817   4.127   5.426 -0.9459  0.4028 -0.5036
39338SOL    HW221513   0.734   4.162   5.547  0.1112  0.0782  0.3393
39339SOL     OW21514   4.444   9.286   2.239 -0.0394 -0.5933  0.6207
39339SOL    HW121515   4.429   9.271   2.332 -0.5970 -0.2060  0.6008
39339SOL    HW221516   4.535   9.314   2.233  0.3404 -1.7244  0.9103
39340SOL     OW21517   1.319   8.181  10.321 -0.1468  0.7709 -0.6951
39340SOL    HW121518   1.302   8.177  10.415  2.3459  0.4133 -0.1671
39340SOL    HW221519   1.233   8.179  10.280 -1.2589 -1.6342  1.5002
39341SOL     OW21520   2.767   9.901   0.160 -0.6453 -0.4326 -0.7192
39341SOL    HW121521   2.735   9.895   0.249 -0.4067 -1.1649 -0.6770
39341SOL    HW221522   2.862   9.911   0.169 -0.7326  0.6633 -0.8678
39342SOL     OW21523   7.929   4.252   7.055 -0.0014 -0.1730  0.0473
39342SOL    HW121524   8.005   4.291   7.012 -0.5607  1.4264  0.4193
39342SOL    HW221525   7.955   4.240   7.146 -0.1177  0.2271  0.1387
39343SOL     OW21526   7.513   4.003   6.004 -0.1028 -0.0035 -0.0513
39343SOL    HW121527   7.572   3.929   6.020  0.2338  0.2826  0.0386
39343SOL    HW221528   7.520   4.057   6.083  0.1577  0.4630 -0.3871
39344SOL     OW21529   4.567   1.315   7.833 -0.2763 -0.2313  0.4742
39344SOL    HW121530   4.499   1.274   7.780  0.7501 -0.3679 -0.7812
39344SOL    HW221531   4.606   1.381   7.776  2.3033 -1.8284  0.2117
39345SOL     OW21532   0.985   6.084   4.794 -0.0310 -0.2467  0.1928
39345SOL    HW121533   1.042   6.160   4.782 -0.8760  0.2601 -0.8369
39345SOL    HW221534   0.991   6.064   4.887 -0.0500  1.3023  0.5610
39346SOL     OW21535  10.992   1.091   0.057  0.3061  0.1902 -0.2304
39346SOL    HW121536  11.010   1.148   0.131 -0.0266  0.2676 -0.2070
39346SOL    HW221537  11.075   1.047   0.040  0.4531  0.3675  0.0196
39347SOL     OW21538   2.478  10.747   6.567 -0.0934 -0.0322  0.3095
39347SOL    HW121539   2.455  10.777   6.654 -2.0004  0.7095 -0.3926
39347SOL    HW221540   2.546  10.681   6.581  2.6562  2.8902  2.0534
39348SOL     OW21541   7.824   8.931   9.033  0.1641  0.1515 -0.0806
39348SOL    HW121542   7.810   8.935   8.939 -0.8840  0.7711  0.0811
39348SOL    HW221543   7.777   8.852   9.062  1.1477 -0.4764 -0.1751
39349SOL     OW21544   8.944  10.211   7.269 -0.1368  0.4117 -0.2823
39349SOL    HW121545   9.036  10.235   7.259 -0.1461  0.3736 -0.4702
39349SOL    HW221546   8.908  10.276   7.329  0.3803 -0.4594  1.0430
39350SOL     OW21547   8.161  10.555  10.771 -0.2458 -0.3459 -0.8718
39350SOL    HW121548   8.231  10.500  10.735  0.9112  0.2776  0.3357
39350SOL    HW221549   8.080  10.513  10.743  0.6093 -2.0648 -0.8545
39351SOL     OW21550   5.391   4.717   9.301 -0.3461  0.0607  0.4866
39351SOL    HW121551   5.457   4.757   9.245 -0.2113 -1.7387 -0.7416
39351SOL    HW221552   5.308   4.757   9.274 -0.0046  0.9451  0.7162
39352SOL     OW21553   2.688   4.317  10.587 -0.4963 -0.1036 -0.1006
39352SOL    HW121554   2.740   4.379  10.637 -1.0010 -0.3772  0.7869
39352SOL    HW221555   2.713   4.231  10.621 -1.4883 -0.2429  0.3446
39353SOL     OW21556   0.628   5.626   5.824  0.6423  0.1660  0.1368
39353SOL    HW121557   0.548   5.577   5.808 -0.9518  2.7729 -0.5251
39353SOL    HW221558   0.626   5.696   5.758  1.9286  2.0414  1.9724
39354SOL     OW21559   0.220   2.278   6.467 -0.3505 -0.2451 -0.3777
39354SOL    HW121560   0.140   2.226   6.463  0.4290 -1.5085 -0.0324
39354SOL    HW221561   0.230   2.313   6.379 -0.4762 -1.3336 -0.8393
39355SOL     OW21562   9.864   8.827   4.068  0.1014  0.0290  0.4816
39355SOL    HW121563   9.775   8.794   4.080 -0.7145  1.1154 -1.9842
39355SOL    HW221564   9.856   8.922   4.080  1.3073 -0.0142  1.9556
39356SOL     OW21565   4.104   3.652   8.273  0.1254  0.4365  0.0128
39356SOL    HW121566   4.076   3.570   8.233  2.6127 -1.0150  1.0178
39356SOL    HW221567   4.121   3.630   8.364 -0.3906  2.4183  0.6357
39357SOL     OW21568  10.699   7.262   7.313  0.0196 -0.4319 -0.0302
39357SOL    HW121569  10.658   7.323   7.251  0.3667  0.2970  0.4440
39357SOL    HW221570  10.639   7.187   7.315  0.0151 -0.4889 -1.2606
39358SOL     OW21571   8.763   8.676   1.723  0.3132 -0.6996 -0.3963
39358SOL    HW121572   8.768   8.613   1.651  2.3184 -0.8527 -0.1596
39358SOL    HW221573   8.849   8.672   1.765 -0.5079  0.0465  1.4636
39359SOL     OW21574   4.110   5.409   3.979  0.7796  0.1529  0.0823
39359SOL    HW121575   4.124   5.433   4.070 -2.8460 -1.4784  1.2452
39359SOL    HW221576   4.016   5.393   3.972  0.9411 -0.1616 -3.8967
39360SOL     OW21577   9.239  10.268  10.944  0.7045  0.4550 -0.0582
39360SOL    HW121578   9.184  10.189  10.938  2.6023 -0.8792 -0.7351
39360SOL    HW221579   9.185  10.337  10.906 -0.6506 -0.7081 -0.3640
39361SOL     OW21580   3.555   7.502   8.412  0.0948 -0.0336  0.2126
39361SOL    HW121581   3.561   7.501   8.317  1.7916 -1.2036  0.2950
39361SOL    HW221582   3.461   7.507   8.430 -0.2495  0.2359 -1.5052
39362SOL     OW21583   5.049   8.094   5.500  0.4746  0.8439 -0.0647
39362SOL    HW121584   4.956   8.117   5.504  0.7356  2.1407 -0.7875
39362SOL    HW221585   5.088   8.162   5.446  1.7486 -0.0386 -0.3069
39363SOL     OW21586   7.153   0.704   0.904 -0.1443 -0.0734 -0.4944
39363SOL    HW121587   7.139   0.781   0.960 -0.9315 -0.0850 -0.6627
39363SOL    HW221588   7.065   0.672   0.885  0.1910 -1.7075  0.4972
39364SOL     OW21589   3.638   6.540   9.884  0.0827  0.0812 -0.3162
39364SOL    HW121590   3.588   6.621   9.897  0.6008  0.0596  2.1090
39364SOL    HW221591   3.696   6.535   9.960  1.0256 -1.8962 -1.1114
39365SOL     OW21592   4.912   9.564   2.368 -0.1265  0.2862  0.1869
39365SOL    HW121593   4.973   9.530   2.433  0.1308  0.1991 -0.0976
39365SOL    HW221594   4.968   9.606   2.302 -0.2238 -1.3822 -1.0251
39366SOL     OW21595   4.766  10.230   8.915  0.0250  0.3150  0.0872
39366SOL    HW121596   4.837  10.166   8.928  0.4346  0.4982 -1.1670
39366SOL    HW221597   4.704  10.210   8.986  1.5500  0.4956  1.5569
39367SOL     OW21598   3.288   3.172   6.264 -0.0059 -0.0321  0.3656
39367SOL    HW121599   3.308   3.124   6.345 -0.8416  0.9384  1.1808
39367SOL    HW221600   3.337   3.254   6.272 -1.2879  0.7440  0.6446
39368SOL     OW21601   7.098   4.388  10.908 -0.1639 -0.2643  0.0539
39368SOL    HW121602   7.052   4.460  10.953  0.5959 -0.0606  0.5162
39368SOL    HW221603   7.161   4.356  10.972  0.1424 -0.7312 -0.4750
39369SOL     OW21604   1.630   3.107   4.976  0.5778  1.1119  0.0650
39369SOL    HW121605   1.709   3.146   4.937  1.6483 -0.9795  0.0241
39369SOL    HW221606   1.559   3.165   4.948  2.0866  3.2007  0.2846
39370SOL     OW21607   0.424   3.268   2.383  0.0794 -0.2457  0.0398
39370SOL    HW121608   0.378   3.352   2.375 -0.6351 -0.6398 -0.0778
39370SOL    HW221609   0.457   3.250   2.295 -4.0979 -2.4921 -1.3455
39371SOL     OW21610   7.405  10.370   2.870 -0.3183 -0.2782  0.5492
39371SOL    HW121611   7.436  10.394   2.782 -0.4725  2.4124  1.1379
39371SOL    HW221612   7.350  10.293   2.856 -0.3563  0.0949 -1.7211
39372SOL     OW21613   4.667   1.648   9.858 -0.3001  0.2263 -0.4361
39372SOL    HW121614   4.612   1.687   9.926 -1.3401 -2.4507  0.3576
39372SOL    HW221615   4.755   1.680   9.877 -0.5582 -0.4659  2.2229
39373SOL     OW21616   2.825   0.623   6.908 -0.3055  0.2830  0.4172
39373SOL    HW121617   2.765   0.650   6.978  0.7108  2.1981  0.6217
39373SOL    HW221618   2.807   0.530   6.895 -2.7289  0.5954  1.0261
39374SOL     OW21619   9.660   6.244   2.544  0.4647  0.3930 -0.3422
39374SOL    HW121620   9.571   6.254   2.510  0.6939  1.4587 -0.6641
39374SOL    HW221621   9.656   6.278   2.633  0.1474 -1.2719  0.3179
39375SOL     OW21622   3.247   5.828   0.743  0.4110  0.4023  0.9788
39375SOL    HW121623   3.165   5.876   0.731  0.3093  0.6857  2.5821
39375SOL    HW221624   3.256   5.777   0.663 -2.6599 -1.5780  1.7058
39376SOL     OW21625   9.468   2.710   5.271 -0.2546  0.4733 -0.1037
39376SOL    HW121626   9.482   2.617   5.293 -2.3387  0.0600 -0.3355
39376SOL    HW221627   9.500   2.757   5.348  0.9128 -0.4235 -0.0126
39377SOL     OW21628   5.650   8.579   1.049 -0.2622 -0.1579 -0.3458
39377SOL    HW121629   5.618   8.493   1.021 -0.6411 -0.1341 -0.0009
39377SOL    HW221630   5.730   8.560   1.098 -1.4010 -0.5409  1.5074
39378SOL     OW21631   3.639   5.092   3.597 -0.0109  0.1046 -0.0509
39378SOL    HW121632   3.585   5.146   3.540 -0.3094 -0.1283  0.0086
39378SOL    HW221633   3.719   5.142   3.609 -0.6736  0.9944  0.8003
39379SOL     OW21634   3.743  10.253   9.495 -0.0303  0.1158  0.6009
39379SOL    HW121635   3.676  10.185   9.492 -0.9043  0.7318  3.3949
39379SOL    HW221636   3.812  10.222   9.436 -2.3387 -0.9535 -1.7009
39380SOL     OW21637   5.465   2.832  10.323  0.1661 -0.8793 -0.3039
39380SOL    HW121638   5.389   2.798  10.370 -0.2872 -0.5275 -0.7817
39380SOL    HW221639   5.494   2.907  10.375 -0.4986 -0.3243 -0.7197
39381SOL     OW21640  10.569  10.562  10.292 -0.3314  0.4630  0.0995
39381SOL    HW121641  10.585  10.656  10.299 -0.2282  0.5211 -0.7845
39381SOL    HW221642  10.521  10.540  10.371  0.5213  1.0657  0.8077
39382SOL     OW21643   7.561   2.504  10.743 -0.0993  0.3758  0.7730
39382SOL    HW121644   7.610   2.551  10.676 -1.2410  1.5700  0.7417
39382SOL    HW221645   7.471   2.501  10.710 -0.0616 -1.8884  0.7640
39383SOL     OW21646  10.227   7.723   2.773  0.0115  0.0843  0.7991
39383SOL    HW121647  10.177   7.652   2.732  0.5039  0.0148  0.3040
39383SOL    HW221648  10.272   7.681   2.846  0.0362 -0.0414  0.7119
39384SOL     OW21649   0.423   9.418   6.859  0.4571  0.0160 -0.0763
39384SOL    HW121650   0.446   9.415   6.952  0.0243 -0.6175  0.0172
39384SOL    HW221651   0.499   9.459   6.817  0.9832 -0.3836  0.4558
39385SOL     OW21652   2.229   5.905   6.271 -0.2148  0.2628 -0.0698
39385SOL    HW121653   2.178   5.894   6.351 -0.7529 -1.1531 -0.5833
39385SOL    HW221654   2.198   5.988   6.234  0.1974  1.0448  1.2648
39386SOL     OW21655   9.278   5.882   9.895  0.2433 -0.2627  0.4912
39386SOL    HW121656   9.221   5.810   9.869 -0.9099  0.3580  1.2154
39386SOL    HW221657   9.223   5.937   9.950  0.8762  1.5557 -0.6131
39387SOL     OW21658   8.882   4.502  10.954 -0.4696  0.6755  0.4830
39387SOL    HW121659   8.789   4.518  10.937 -0.0796  1.4979 -0.9474
39387SOL    HW221660   8.927   4.529  10.875  0.9456 -0.4515  0.8503
39388SOL     OW21661   0.988   5.364   5.395 -0.2299 -0.2865  0.3703
39388SOL    HW121662   0.948   5.296   5.450  2.2496 -0.2181  2.4596
39388SOL    HW221663   0.998   5.438   5.454  3.3045 -0.4723  0.2031
39389SOL     OW21664   7.577   6.595   1.711 -0.3645 -0.8127  0.1127
39389SOL    HW121665   7.486   6.600   1.683 -1.0672 -0.5313  2.2970
39389SOL    HW221666   7.609   6.685   1.709 -0.3302 -0.8275 -0.0160
39390SOL     OW21667   9.810   6.502   4.865  0.1496  0.2392 -0.0702
39390SOL    HW121668   9.808   6.570   4.798 -1.9605  0.4855  0.1752
39390SOL    HW221669   9.720   6.498   4.898  0.6794 -1.2790  1.3350
39391SOL     OW21670   8.083   0.711   3.956  0.2830  0.0853  0.0383
39391SOL    HW121671   8.073   0.776   3.886 -2.7704 -1.2818 -0.9664
39391SOL    HW221672   8.030   0.745   4.028  0.8285 -0.0535  0.5166
39392SOL     OW21673   2.319   9.283   7.965 -0.0338  0.4291  0.1751
39392SOL    HW121674   2.280   9.222   8.027  2.8463 -1.1341  0.6575
39392SOL    HW221675   2.413   9.264   7.969  0.5021  1.6962 -3.1687
39393SOL     OW21676   1.136   2.794   7.329  0.6163 -0.1161 -0.1152
39393SOL    HW121677   1.219   2.843   7.324  0.5018  0.2396  1.1382
39393SOL    HW221678   1.103   2.795   7.239  2.1455 -0.5863 -0.7162
39394SOL     OW21679   2.542   5.872   2.177 -0.0057 -0.5112  0.0057
39394SOL    HW121680   2.460   5.850   2.133  0.2940 -1.6159 -0.0422
39394SOL    HW221681   2.531   5.838   2.266  1.1284 -2.5310 -0.5554
39395SOL     OW21682   6.221  10.542   9.289  0.2663  0.0206 -0.1426
39395SOL    HW121683   6.308  10.502   9.293  0.8498  1.2490 -0.1098
39395SOL    HW221684   6.197  10.537   9.197 -0.3270 -1.7314  0.0864
39396SOL     OW21685   1.393   9.245   4.891  0.1268 -0.1246 -0.6762
39396SOL    HW121686   1.404   9.243   4.796 -0.2922 -1.4223 -0.7189
39396SOL    HW221687   1.477   9.277   4.924 -0.2440  1.9036 -1.5205
39397SOL     OW21688   1.414   5.371   1.985 -0.3562 -0.0519  0.1619
39397SOL    HW121689   1.332   5.389   2.032 -0.0990  1.0356  0.2015
39397SOL    HW221690   1.386   5.329   1.904 -0.9990  0.7880 -0.0646
39398SOL     OW21691   4.754   8.648   8.294 -0.0927  0.0980 -0.0922
39398SOL    HW121692   4.736   8.602   8.211 -0.4768 -2.0314  1.0951
39398SOL    HW221693   4.846   8.627   8.312  0.1140  0.9158 -0.1625
39399SOL     OW21694   7.363   5.142   4.173  0.3403  0.8085 -0.3442
39399SOL    HW121695   7.295   5.187   4.123  0.3522  1.9216  0.5787
39399SOL    HW221696   7.431   5.122   4.108 -1.6625 -2.1830 -1.6965
39400SOL     OW21697   6.372   9.554   9.612 -0.1218  0.1955  0.1405
39400SOL    HW121698   6.437   9.491   9.644 -0.0820 -0.7562 -1.6827
39400SOL    HW221699   6.294   9.501   9.594 -1.4089  1.2969  2.1151
39401SOL     OW21700   7.447   2.171   2.515 -0.3231  0.4299  0.2146
39401SOL    HW121701   7.502   2.247   2.532  1.7887 -1.2304  1.3104
39401SOL    HW221702   7.460   2.114   2.591 -1.2753 -1.3218 -0.8626
39402SOL     OW21703   9.687   2.909   6.580  0.6250 -0.3950 -0.2707
39402SOL    HW121704   9.775   2.924   6.544  0.7632  0.7866  0.4947
39402SOL    HW221705   9.631   2.972   6.534 -0.1593 -2.1322 -1.8245
39403SOL     OW21706   3.296   1.821   7.585  0.6729  0.1312 -0.2894
39403SOL    HW121707   3.260   1.733   7.590 -0.1573  0.4802  0.1124
39403SOL    HW221708   3.363   1.816   7.517 -0.8125 -0.3037 -1.7953
39404SOL     OW21709   9.117   5.621   1.790  0.4226  0.6178 -0.0979
39404SOL    HW121710   9.101   5.537   1.833 -0.3063  0.0963 -1.3309
39404SOL    HW221711   9.038   5.672   1.808 -0.0128  0.2929 -1.0125
39405SOL     OW21712   8.599   9.623   8.422  0.0309 -0.1151  0.0466
39405SOL    HW121713   8.670   9.566   8.453  1.1002  1.3713  0.4268
39405SOL    HW221714   8.608   9.703   8.473 -2.0171  0.0862  0.1701
39406SOL     OW21715   6.706   8.077  10.604  0.3933  0.7053 -0.0225
39406SOL    HW121716   6.758   8.007  10.564  0.9430 -0.4097  2.4991
39406SOL    HW221717   6.621   8.037  10.620  0.5675  0.7339  1.0271
39407SOL     OW21718   3.210   5.415   0.128  0.1847  0.1198 -0.3559
39407SOL    HW121719   3.146   5.445   0.193 -0.0953  1.2021 -1.1220
39407SOL    HW221720   3.163   5.350   0.076 -0.3755  1.0440 -1.0323
39408SOL     OW21721   8.696  11.009   2.441 -0.0318  0.3300 -0.4190
39408SOL    HW121722   8.654  10.924   2.425 -0.2107 -0.1547  2.1791
39408SOL    HW221723   8.782  10.986   2.477 -0.1845  1.2193  0.5539
39409SOL     OW21724   9.488  10.936   7.986  0.0093  0.5153  0.2636
39409SOL    HW121725   9.559  10.872   7.985 -0.0028  0.4990  0.6007
39409SOL    HW221726   9.408  10.884   7.996  0.0153  0.5988  0.7344
39410SOL     OW21727   4.515   0.287   9.830 -0.3969 -0.6273 -0.7468
39410SOL    HW121728   4.593   0.343   9.834 -0.5597 -0.4150 -0.5119
39410SOL    HW221729   4.443   0.348   9.813 -0.9150 -0.4319  1.7600
39411SOL     OW21730   0.458   4.908   0.814 -0.1448 -1.0570 -0.2082
39411SOL    HW121731   0.423   4.996   0.801  0.8161 -0.7158 -0.5764
39411SOL    HW221732   0.420   4.857   0.742 -1.2640 -1.1278  0.4133
39412SOL     OW21733   2.162   9.142   3.211  0.2215  0.4422 -0.0165
39412SOL    HW121734   2.200   9.167   3.295  0.6231 -1.3943  0.3758
39412SOL    HW221735   2.231   9.161   3.147  0.0188  1.5654  0.0698
39413SOL     OW21736   2.272   2.342   9.980 -0.3722 -0.0086  0.0185
39413SOL    HW121737   2.315   2.293  10.049  1.4342  0.6873 -0.5693
39413SOL    HW221738   2.179   2.340  10.003  0.1515  0.0140  2.3105
39414SOL     OW21739   7.131   9.155   9.078 -0.2310 -0.1471  0.5157
39414SOL    HW121740   7.220   9.138   9.112 -0.0855  0.2642  0.3443
39414SOL    HW221741   7.109   9.241   9.114 -0.6977 -0.3969  0.8341
39415SOL     OW21742   6.429   9.197   6.840 -0.6010  0.0990 -0.3050
39415SOL    HW121743   6.361   9.262   6.823  0.0006  0.7940 -0.0799
39415SOL    HW221744   6.428   9.141   6.763 -1.3102  0.2020 -0.3812
39416SOL     OW21745   3.774   1.222  10.739 -0.2473 -0.9632  0.0682
39416SOL    HW121746   3.865   1.239  10.713 -0.2210 -1.5520 -0.2323
39416SOL    HW221747   3.762   1.276  10.817 -0.5086  1.3102 -1.4376
39417SOL     OW21748   9.004   2.757   5.155 -0.1839 -0.0529 -0.1465
39417SOL    HW121749   9.044   2.812   5.223  2.1065  1.0261 -2.2472
39417SOL    HW221750   8.997   2.671   5.195  2.0244  0.3116  1.1477
39418SOL     OW21751   2.190   5.471   2.565 -0.4083  0.9639 -0.5234
39418SOL    HW121752   2.146   5.387   2.550 -3.4271  2.4658 -0.9108
39418SOL    HW221753   2.263   5.471   2.503  0.1805 -1.6701  0.0756
39419SOL     OW21754   8.462   7.665   5.005  0.5244  0.1633 -0.2567
39419SOL    HW121755   8.543   7.622   4.976  0.2960 -0.9852  0.7452
39419SOL    HW221756   8.474   7.677   5.099 -1.0774 -1.4410  0.1999
39420SOL     OW21757   7.836   5.564   4.728 -0.1539 -0.7052 -0.2158
39420SOL    HW121758   7.829   5.516   4.646  1.9958 -0.6773 -0.4739
39420SOL    HW221759   7.836   5.656   4.703  0.7764 -0.7015 -0.2351
39421SOL     OW21760   4.170   4.037   5.613  0.0600  0.1956 -0.2435
39421SOL    HW121761   4.260   4.068   5.600 -0.1995  0.7090 -0.8217
39421SOL    HW221762   4.120   4.076   5.541 -0.5281 -0.5039 -0.2221
39422SOL     OW21763   6.297   0.796   5.225 -0.3888  0.0253  0.4673
39422SOL    HW121764   6.309   0.835   5.139 -0.0746  0.3277  0.6439
39422SOL    HW221765   6.323   0.704   5.214  1.3393  0.4510  0.6248
39423SOL     OW21766   8.369   2.279   0.628 -0.6487 -0.6486 -0.4218
39423SOL    HW121767   8.401   2.369   0.623  0.7822 -0.8165  2.9908
39423SOL    HW221768   8.448   2.226   0.636 -1.5510 -1.9918 -0.0893
39424SOL     OW21769   7.828   4.683   5.885  0.1848 -0.5219  0.4152
39424SOL    HW121770   7.794   4.639   5.963 -0.1480 -1.5595 -0.3038
39424SOL    HW221771   7.881   4.617   5.841  2.2090  0.7058  0.8879
39425SOL     OW21772   3.790   5.252   0.932  0.3870 -0.1545 -0.0655
39425SOL    HW121773   3.727   5.201   0.983 -0.5120 -2.2451 -2.9604
39425SOL    HW221774   3.873   5.205   0.944  0.4602  0.1150  0.4765
39426SOL     OW21775  10.449   7.756   8.779 -0.8357 -0.0442  0.1961
39426SOL    HW121776  10.510   7.829   8.776  1.3185 -1.7785 -1.8062
39426SOL    HW221777  10.379   7.780   8.718 -1.1540  1.0993  0.9817
39427SOL     OW21778   8.180   5.519   4.174  0.2422 -0.3208 -0.1552
39427SOL    HW121779   8.203   5.491   4.085 -1.1996  1.9768 -1.3427
39427SOL    HW221780   8.085   5.507   4.180  0.4904 -1.8078  1.6466
39428SOL     OW21781   4.061   4.285   5.068 -0.3375  0.2382  0.1391
39428SOL    HW121782   4.067   4.192   5.092  0.1451  0.3708  0.5479
39428SOL    HW221783   3.973   4.295   5.032 -0.4090 -0.3707  0.1393
39429SOL     OW21784   9.888   8.549   6.786 -0.2091 -0.1444  0.5735
39429SOL    HW121785   9.921   8.638   6.796 -1.1061  0.0858  1.6938
39429SOL    HW221786   9.943   8.511   6.717  1.5499  0.5886  1.5013
39430SOL     OW21787   4.967   4.738   3.551 -0.3486 -0.0983  0.1040
39430SOL    HW121788   4.885   4.693   3.571 -0.0784 -0.3009  0.8025
39430SOL    HW221789   4.988   4.713   3.461 -1.1545  0.1179 -0.1518
39431SOL     OW21790   7.894   7.041   4.936 -0.5525  0.1142 -0.1122
39431SOL    HW121791   7.815   7.003   4.974 -0.7555  0.5407 -0.1006
39431SOL    HW221792   7.965   7.009   4.992 -0.8037  0.3893  0.3714
39432SOL     OW21793   3.394   0.951   4.325 -0.3647 -0.5396  0.1359
39432SOL    HW121794   3.363   0.881   4.382 -0.1218 -0.6321  0.1550
39432SOL    HW221795   3.431   1.016   4.386  3.2248 -2.2243 -0.0401
39433SOL     OW21796   9.433   3.021   9.399  0.4702 -0.1486 -0.1320
39433SOL    HW121797   9.366   2.958   9.424 -0.1544  1.3652  2.3916
39433SOL    HW221798   9.385   3.101   9.380  1.4217  0.4909  0.0526
39434SOL     OW21799   6.948   8.984   7.123  0.6105  0.4694  0.3215
39434SOL    HW121800   6.887   8.973   7.196  0.6475  1.0038  0.4390
39434SOL    HW221801   7.007   9.053   7.152  0.4783  0.8549 -0.3107
39435SOL     OW21802   9.039   3.659   0.620  0.1898 -0.0363 -0.1727
39435SOL    HW121803   8.972   3.726   0.605  0.7049  0.5296  0.0193
39435SOL    HW221804   8.997   3.596   0.679  0.9389  2.1902  3.0426
39436SOL     OW21805   4.317   4.273   6.366 -0.5618 -0.1915 -0.2813
39436SOL    HW121806   4.295   4.209   6.299  1.6380  0.2996 -1.6061
39436SOL    HW221807   4.413   4.269   6.371 -0.5403  1.3621  1.2433
39437SOL     OW21808   4.537   8.892   3.633 -0.1118  0.4417 -0.4635
39437SOL    HW121809   4.507   8.805   3.604 -0.1595 -0.4216  1.9494
39437SOL    HW221810   4.629   8.896   3.606 -0.5350  0.3362 -2.0047
39438SOL     OW21811  10.376   1.770   5.169 -0.1578  0.7893  0.0136
39438SOL    HW121812  10.423   1.841   5.214 -0.3295  0.2981  1.0136
39438SOL    HW221813  10.436   1.742   5.100  0.5908  0.8709  0.6026
39439SOL     OW21814   8.451   0.507   6.410 -0.3083  0.1332 -0.1093
39439SOL    HW121815   8.409   0.532   6.493 -1.2192 -0.6001 -0.3324
39439SOL    HW221816   8.535   0.470   6.436 -1.8947 -3.2504  0.8599
39440SOL     OW21817   9.789   3.797   7.012  0.5363  0.7724  0.3496
39440SOL    HW121818   9.759   3.778   6.923  1.0076  2.4418 -0.2175
39440SOL    HW221819   9.723   3.759   7.069 -1.4112  2.2149 -0.7938
39441SOL     OW21820   2.597   5.887   9.651 -0.2860  0.1628  0.5919
39441SOL    HW121821   2.627   5.808   9.607 -1.2133 -0.1767  0.5316
39441SOL    HW221822   2.676   5.929   9.684  0.4597  0.4380 -1.4162
39442SOL     OW21823   9.284   6.370   0.410  1.0446 -0.0029  0.8998
39442SOL    HW121824   9.283   6.452   0.361 -0.9925 -1.3278 -1.4215
39442SOL    HW221825   9.266   6.397   0.501 -1.0081  2.0357 -0.0076
39443SOL     OW21826  10.205   6.769   7.710 -0.0196 -0.0898  0.2372
39443SOL    HW121827  10.181   6.698   7.651 -1.6532  0.8878 -0.3364
39443SOL    HW221828  10.122   6.804   7.741  0.7433  1.3678  0.7435
39444SOL     OW21829   1.011   5.028  10.148 -0.2488  0.5022  0.2115
39444SOL    HW121830   0.977   5.115  10.167 -0.3341  0.9561 -1.7703
39444SOL    HW221831   0.948   4.991  10.085  0.6487 -0.3327 -0.2211
39445SOL     OW21832   8.790  10.572   6.895 -0.6306 -0.4364 -0.4524
39445SOL    HW121833   8.750  10.520   6.825 -1.1296 -1.0211  0.2551
39445SOL    HW221834   8.761  10.530   6.976 -2.5471  1.9380  0.2279
39446SOL     OW21835   9.922   7.956   2.968  0.4472  0.4158  0.2875
39446SOL    HW121836   9.939   7.984   2.878 -2.4052 -1.4542 -0.9934
39446SOL    HW221837   9.857   8.019   3.000 -1.4403 -1.0574 -0.4435
39447SOL     OW21838   3.266   5.513   7.083 -0.0557  0.1541 -0.0687
39447SOL    HW121839   3.206   5.522   7.157  1.2289  1.1412  0.9286
39447SOL    HW221840   3.231   5.570   7.015 -0.3650  0.5417  0.4156
39448SOL     OW21841   0.771   5.871  10.159  0.3077 -0.0111 -0.6902
39448SOL    HW121842   0.831   5.886  10.086  0.6984 -0.6756 -0.5181
39448SOL    HW221843   0.818   5.902  10.236 -0.8592  2.5340 -0.9027
39449SOL     OW21844   2.897   3.601   0.748  0.4187  0.5078 -0.4101
39449SOL    HW121845   2.881   3.692   0.723  0.6569  1.1364  1.5267
39449SOL    HW221846   2.825   3.552   0.709 -0.2746  1.6843 -0.6642
39450SOL     OW21847   2.574   0.600   1.437  0.3075 -0.8083 -0.1429
39450SOL    HW121848   2.568   0.554   1.521 -0.6033  0.3285  0.4493
39450SOL    HW221849   2.484   0.627   1.419  0.6613 -0.1555 -0.9862
39451SOL     OW21850   4.042   1.470   7.561 -0.2757  0.2782 -0.3805
39451SOL    HW121851   4.084   1.392   7.599  2.4391  1.3355 -1.0021
39451SOL    HW221852   4.049   1.536   7.630  0.6434  0.9349 -1.0765
39452SOL     OW21853   1.814  10.386   0.685  0.4686 -0.2119 -0.4187
39452SOL    HW121854   1.800  10.338   0.767  0.9705 -0.3761 -0.4244
39452SOL    HW221855   1.889  10.443   0.703  0.8703 -0.5787 -0.9003
39453SOL     OW21856  10.456  10.448   3.941 -0.1100  0.2301  0.1553
39453SOL    HW121857  10.504  10.446   4.025 -0.2068 -0.5550  0.2020
39453SOL    HW221858  10.520  10.482   3.878  0.4049 -0.4456  0.2925
39454SOL     OW21859   3.836   7.949   2.406 -0.1468 -0.3379 -0.1330
39454SOL    HW121860   3.845   7.999   2.487 -0.5414 -1.2996  0.5173
39454SOL    HW221861   3.772   7.881   2.426 -1.3948  0.3086 -1.7060
39455SOL     OW21862   4.664   0.337   1.865  0.3682  0.1748  0.4986
39455SOL    HW121863   4.613   0.268   1.822  1.1440 -0.0075 -0.1442
39455SOL    HW221864   4.668   0.310   1.957 -2.9803  1.5539  1.1789
39456SOL     OW21865   5.697   3.147  10.290  0.1196 -0.1512 -0.4675
39456SOL    HW121866   5.730   3.060  10.310  0.8814 -0.4892 -2.8717
39456SOL    HW221867   5.625   3.161  10.352  1.6419 -1.3811  1.6886
39457SOL     OW21868   1.691   7.939   3.976 -0.4811  0.2988 -0.3573
39457SOL    HW121869   1.754   7.994   4.022  0.7104 -0.6511 -0.8028
39457SOL    HW221870   1.679   7.983   3.892 -0.5367  0.5686 -0.2095
39458SOL     OW21871   3.868  10.729   0.311 -0.0580 -0.5092 -0.0866
39458SOL    HW121872   3.924  10.653   0.291  0.5688  0.1676 -0.9825
39458SOL    HW221873   3.839  10.761   0.226 -1.2384 -0.3978  0.3337
39459SOL     OW21874  10.466   0.303   9.537  0.2617  0.6971 -0.1679
39459SOL    HW121875  10.534   0.304   9.604 -1.0030 -1.3270  1.2562
39459SOL    HW221876  10.388   0.338   9.582 -0.6834 -0.9776 -0.4273
39460SOL     OW21877   4.590   6.330   7.645  0.2772  0.2045 -0.1165
39460SOL    HW121878   4.660   6.285   7.597  0.0439  0.5116 -0.7604
39460SOL    HW221879   4.633   6.406   7.685  0.4724 -0.0503  0.1621
39461SOL     OW21880   5.842   5.211   1.663  0.0278 -0.5694 -0.0018
39461SOL    HW121881   5.757   5.211   1.707 -0.4149 -0.9038 -0.8318
39461SOL    HW221882   5.889   5.137   1.702  1.4591  1.7919  3.2152
39462SOL     OW21883   2.904   2.932   7.271  0.3651 -0.4188 -0.5028
39462SOL    HW121884   2.812   2.908   7.284  1.0347 -2.1471  2.0761
39462SOL    HW221885   2.948   2.848   7.255  1.7643  0.0648  0.5859
39463SOL     OW21886   7.649   2.876   2.846 -0.1021  0.3788  0.4856
39463SOL    HW121887   7.585   2.891   2.776  1.1046  1.2199 -0.4688
39463SOL    HW221888   7.606   2.910   2.925 -0.2921  2.2853 -0.3806
39464SOL     OW21889   1.793  10.887   3.679  0.0775  0.4746 -0.9373
39464SOL    HW121890   1.740  10.934   3.744 -0.3463  0.3067 -1.1573
39464SOL    HW221891   1.731  10.829   3.634  0.6054 -0.3627 -0.6140
39465SOL     OW21892   6.260   3.905   1.457  0.0744  0.1292  0.3946
39465SOL    HW121893   6.200   3.976   1.479  2.2370  1.6340  1.9851
39465SOL    HW221894   6.231   3.831   1.511 -0.9283  0.4821  0.3583
39466SOL     OW21895   0.279   5.513   7.892  0.0898 -0.0144  0.0621
39466SOL    HW121896   0.192   5.495   7.928 -0.1752  2.1523  0.6899
39466SOL    HW221897   0.335   5.524   7.968  0.2100  1.5728 -0.2144
39467SOL     OW21898   2.320   5.674   6.427 -0.0916 -0.1546  0.7932
39467SOL    HW121899   2.295   5.586   6.455  0.8934 -0.3406  1.1291
39467SOL    HW221900   2.243   5.728   6.444 -1.0079 -1.1118 -0.2176
39468SOL     OW21901   9.474   1.540   9.374  0.1738 -0.0339  0.1992
39468SOL    HW121902   9.430   1.477   9.317  1.0198 -1.2824  0.8553
39468SOL    HW221903   9.413   1.613   9.382 -0.9027 -0.8323 -0.4834
39469SOL     OW21904   3.004   2.657   8.686  0.0789 -0.6801 -0.0781
39469SOL    HW121905   2.944   2.713   8.734 -0.1290  0.6721 -1.7882
39469SOL    HW221906   3.038   2.596   8.751  0.2011  1.3360  1.8739
39470SOL     OW21907   5.836   3.401   9.409 -0.7176  0.4658 -0.3398
39470SOL    HW121908   5.876   3.328   9.455 -1.3203  0.2817 -0.0963
39470SOL    HW221909   5.810   3.365   9.324 -0.1992  0.6341 -0.5714
39471SOL     OW21910   0.315  10.861   3.748 -0.2104 -0.7062 -0.0106
39471SOL    HW121911   0.394  10.816   3.720  0.6127  1.7102 -1.9788
39471SOL    HW221912   0.245  10.820   3.697  0.1501 -1.2337 -0.0927
39472SOL     OW21913   3.506   6.304   0.742  0.0214  0.0623  0.0830
39472SOL    HW121914   3.474   6.259   0.820  0.4987  1.9531  1.4461
39472SOL    HW221915   3.487   6.396   0.758  0.8020  0.5862 -1.7180
39473SOL     OW21916  10.246   4.577   7.021 -0.2642  0.1004 -0.8057
39473SOL    HW121917  10.239   4.563   6.926 -0.7103  1.2694 -0.9676
39473SOL    HW221918  10.164   4.621   7.044  1.5169  3.7132 -0.6628
39474SOL     OW21919   8.431   9.621   6.797 -0.2968  0.5027 -0.3890
39474SOL    HW121920   8.340   9.593   6.788 -0.2999  0.3262  0.1198
39474SOL    HW221921   8.430   9.715   6.778 -0.8609  0.8336  1.1189
39475SOL     OW21922   3.424   4.710   4.710 -0.2674 -0.0508  0.0547
39475SOL    HW121923   3.395   4.687   4.798  1.1540 -1.8644  0.0939
39475SOL    HW221924   3.451   4.627   4.671 -1.0044  0.6773 -2.1656
39476SOL     OW21925   2.949   6.785   6.534  0.5729  0.3031  0.2517
39476SOL    HW121926   2.937   6.880   6.536 -1.2618  0.1120  0.3765
39476SOL    HW221927   3.016   6.768   6.601 -0.1189  1.4088  1.2786
39477SOL     OW21928   7.380   2.812   5.302 -0.2825  0.0430  0.1686
39477SOL    HW121929   7.464   2.767   5.293 -0.9641 -1.1372 -0.5245
39477SOL    HW221930   7.381   2.877   5.231  0.8584  1.4470  1.4003
39478SOL     OW21931   9.318  10.988   4.978  0.1995  0.5589  0.4244
39478SOL    HW121932   9.348  11.075   4.952  0.5292  0.1015 -0.8095
39478SOL    HW221933   9.246  11.004   5.038 -0.2422  1.6939 -0.3774
39479SOL     OW21934   9.065   3.084   4.554  0.0270 -0.0086 -0.4107
39479SOL    HW121935   9.028   3.172   4.566  0.2636  0.1915 -1.1196
39479SOL    HW221936   9.084   3.054   4.643 -2.7089 -0.5101  0.0953
39480SOL     OW21937   5.996   9.129   6.042 -0.3228  0.4351  0.0877
39480SOL    HW121938   6.025   9.053   6.093  3.4175  0.2856 -1.9508
39480SOL    HW221939   5.954   9.092   5.965 -2.4640  0.6283  1.0758
39481SOL     OW21940   6.635   0.959   3.052 -0.3049 -0.3927  0.7895
39481SOL    HW121941   6.577   0.884   3.047  0.5461 -1.0080 -0.5555
39481SOL    HW221942   6.587   1.024   3.102 -1.3088 -1.6038  1.4540
39482SOL     OW21943  10.901   6.098   1.141  0.2274  0.4743 -0.3489
39482SOL    HW121944  10.865   6.148   1.215 -0.8553 -0.4939 -0.1866
39482SOL    HW221945  10.976   6.051   1.179  0.1367  0.5624 -0.0551
39483SOL     OW21946   9.015  10.137   2.991 -0.5329  0.1957 -0.3698
39483SOL    HW121947   9.076  10.067   3.017 -1.5248 -1.1525 -1.5091
39483SOL    HW221948   8.929  10.104   3.015 -0.8504  2.2039  1.4703
39484SOL     OW21949   0.003   7.783   7.803  0.1127 -0.5483 -0.4551
39484SOL    HW121950  -0.090   7.758   7.811 -0.8315  1.4394 -3.4558
39484SOL    HW221951   0.043   7.710   7.756 -0.3121 -0.6815 -0.6179
39485SOL     OW21952   0.163   0.810   4.136  0.5325  0.4829 -0.5931
39485SOL    HW121953   0.112   0.855   4.204 -0.0213  0.4917 -1.0064
39485SOL    HW221954   0.250   0.799   4.175 -0.1036 -0.6175  0.5983
39486SOL     OW21955   5.672   0.341   6.859  0.2572 -0.4837 -0.3263
39486SOL    HW121956   5.736   0.380   6.919 -0.0103 -1.0009  0.3165
39486SOL    HW221957   5.723   0.280   6.806  0.3603 -0.6244 -0.0684
39487SOL     OW21958   7.290   7.192   9.997 -0.4702 -0.1947 -0.1678
39487SOL    HW121959   7.255   7.118   9.947 -0.9155  0.0762 -0.2611
39487SOL    HW221960   7.296   7.159  10.087 -1.8525  0.0288  0.0373
39488SOL     OW21961   6.671  10.754  10.982  0.8591  0.8266 -0.2623
39488SOL    HW121962   6.650  10.804  11.061 -1.0361  1.4097 -1.0926
39488SOL    HW221963   6.691  10.820  10.916  0.7318  0.4025 -0.7312
39489SOL     OW21964   3.864   8.768   0.599 -0.2524 -0.8707 -0.1737
39489SOL    HW121965   3.897   8.856   0.613  0.5758 -0.7594 -2.3395
39489SOL    HW221966   3.849   8.733   0.686 -0.1026  1.2164  0.7402
39490SOL     OW21967   4.401   9.284   9.202  0.2416  0.3799  0.3206
39490SOL    HW121968   4.475   9.225   9.186  0.6426  0.8710  0.3177
39490SOL    HW221969   4.441   9.371   9.205 -0.6025  0.9013 -1.7608
39491SOL     OW21970   8.399  10.057   2.222 -0.3334 -0.2484 -0.0335
39491SOL    HW121971   8.312  10.047   2.183 -0.3071 -0.7542  0.0362
39491SOL    HW221972   8.459  10.048   2.148 -0.2945 -0.9598  0.0825
39492SOL     OW21973  10.027   1.125   4.296 -0.0864 -1.0254  0.1652
39492SOL    HW121974   9.935   1.118   4.319 -0.3062  0.0686 -0.2869
39492SOL    HW221975  10.068   1.165   4.374 -0.4131  0.5344 -0.4279
39493SOL     OW21976   7.984   6.168   2.891  0.4975  0.6314  0.1153
39493SOL    HW121977   8.002   6.099   2.956  3.0724  1.4144  0.3706
39493SOL    HW221978   7.920   6.224   2.933 -2.2546 -1.8959 -0.3830
39494SOL     OW21979   5.943  10.400   5.966  0.2908 -0.3433  0.0184
39494SOL    HW121980   6.029  10.403   5.924  0.7250 -0.9743  0.8485
39494SOL    HW221981   5.928  10.308   5.986 -0.5011 -0.2189  0.0424
39495SOL     OW21982   5.496   8.177   6.783  0.1371  0.3717 -0.0898
39495SOL    HW121983   5.410   8.218   6.792  0.1897  0.5779 -0.5277
39495SOL    HW221984   5.494   8.133   6.698 -0.0683 -0.9040  0.5446
39496SOL     OW21985   6.842   3.731   1.791  0.1513 -0.8183  0.2639
39496SOL    HW121986   6.906   3.799   1.811 -0.3739 -0.4124  0.5869
39496SOL    HW221987   6.894   3.655   1.767  0.7522 -0.4901  0.5209
39497SOL     OW21988   1.446   8.157   0.789 -0.7931 -0.0082 -0.0126
39497SOL    HW121989   1.491   8.090   0.737 -0.8135 -0.1492  0.1486
39497SOL    HW221990   1.462   8.239   0.743  1.6393  0.3460  1.2763
39498SOL     OW21991   8.443  10.372   6.699 -0.2845  0.4036 -0.1373
39498SOL    HW121992   8.392  10.434   6.750 -3.2199 -2.1086  0.2754
39498SOL    HW221993   8.528  10.415   6.687 -1.4413  3.5671  1.7588
39499SOL     OW21994   5.264   2.530   7.794  0.1948 -0.4749 -0.0210
39499SOL    HW121995   5.212   2.451   7.804  1.4342 -1.2095  1.0810
39499SOL    HW221996   5.200   2.601   7.794 -0.9565 -1.4639 -1.2210
39500SOL     OW21997   7.281   9.345  10.279  0.1118  0.0099  0.0316
39500SOL    HW121998   7.372   9.371  10.294 -0.5070  1.6752  1.0619
39500SOL    HW221999   7.257   9.388  10.197 -0.2172  0.8708  0.5711
39501SOL     OW22000   9.946   7.422   2.953  0.2844  0.0688 -0.0659
39501SOL    HW122001   9.964   7.422   3.047  2.0994 -0.5292 -0.3593
39501SOL    HW222002   9.862   7.377   2.944  1.1123 -1.8491  1.1432
39502SOL     OW22003   9.908   7.817   3.715 -0.1800  0.4813 -0.2852
39502SOL    HW122004   9.862   7.763   3.780  1.4478 -0.5132  0.0927
39502SOL    HW222005   9.989   7.843   3.759  0.5933  0.4486 -1.6401
39503SOL     OW22006   3.981   2.870   8.278 -0.1943 -0.3349  0.8136
39503SOL    HW122007   4.024   2.787   8.255 -0.5826 -0.2958 -0.1195
39503SOL    HW222008   4.053   2.926   8.308  0.1725 -0.7971  0.8158
39504SOL     OW22009   8.992   7.996   2.082 -0.0940  0.3487 -0.4010
39504SOL    HW122010   8.905   8.011   2.045 -0.4132  0.6503  0.4554
39504SOL    HW222011   9.053   8.030   2.016 -0.5615 -1.0530 -1.6078
39505SOL     OW22012  10.555   9.493   2.219 -0.5059  0.6493 -0.1266
39505SOL    HW122013  10.625   9.447   2.173 -0.9001 -0.3362  0.2300
39505SOL    HW222014  10.516   9.551   2.153 -0.4049  0.0073 -0.7571
39506SOL     OW22015   6.811   1.622   9.310  0.0687  0.2499 -0.0421
39506SOL    HW122016   6.813   1.625   9.214 -0.7206 -0.4795 -0.0928
39506SOL    HW222017   6.737   1.565   9.330 -0.7456  1.6065  1.0118
39507SOL     OW22018  10.985   0.518   8.480 -0.7651  0.4775  0.5698
39507SOL    HW122019  10.911   0.542   8.535  0.0419  1.0360  1.4469
39507SOL    HW222020  11.029   0.601   8.461 -2.2075  0.6331 -2.7616
39508SOL     OW22021   8.739  10.382   6.438 -0.2489 -0.2964  0.4363
39508SOL    HW122022   8.793  10.433   6.378  1.5929 -0.7984  1.5684
39508SOL    HW222023   8.711  10.306   6.388 -1.0185  0.6144 -0.5538
39509SOL     OW22024   5.836  10.969   6.107  0.2896 -0.4391 -0.1877
39509SOL    HW122025   5.829  11.062   6.130  0.5341 -0.4230 -0.1856
39509SOL    HW222026   5.873  10.968   6.019  0.4666 -0.5410 -0.1131
39510SOL     OW22027   4.570   5.902   2.186  0.0071  0.4501  0.7187
39510SOL    HW122028   4.638   5.932   2.126 -0.2086  0.0790  0.2710
39510SOL    HW222029   4.529   5.828   2.140  1.2278 -1.2495  2.2311
39511SOL     OW22030   7.925   4.550   8.257  0.0742  0.0439  0.1416
39511SOL    HW122031   7.903   4.512   8.341 -0.0453 -0.0675  0.0605
39511SOL    HW222032   8.016   4.527   8.243 -0.2078 -0.8621 -0.2523
39512SOL     OW22033   6.630   1.661   6.032  0.0476  0.5621  0.1755
39512SOL    HW122034   6.607   1.616   5.951 -2.2584 -0.5134  1.3477
39512SOL    HW222035   6.581   1.615   6.100  0.6146  2.4666  1.9707
39513SOL     OW22036   4.744   1.152   2.003  0.0570 -0.3869  0.2590
39513SOL    HW122037   4.793   1.226   1.970 -0.9200 -0.3336 -1.1259
39513SOL    HW222038   4.806   1.079   2.000  0.0926 -0.3155 -1.4372
39514SOL     OW22039   0.284  10.899   0.381 -0.1741 -0.0422  0.0036
39514SOL    HW122040   0.206  10.846   0.395 -0.2562  0.0691 -0.0354
39514SOL    HW222041   0.274  10.974   0.440  0.8568 -1.0261  1.5084
39515SOL     OW22042   3.222   3.250   9.255  0.3973 -0.0042  0.3089
39515SOL    HW122043   3.280   3.244   9.179  1.3944 -2.6485  1.1619
39515SOL    HW222044   3.178   3.165   9.257 -1.3909  0.8900  1.3688
39516SOL     OW22045   0.305   0.980   2.617 -0.2869 -1.0549  0.0332
39516SOL    HW122046   0.289   1.055   2.560 -1.4068 -1.0280  0.3598
39516SOL    HW222047   0.398   0.958   2.603 -0.1778 -0.1645 -0.7128
39517SOL     OW22048   9.659   8.567   1.186 -0.0973  0.3870 -0.2804
39517SOL    HW122049   9.587   8.521   1.144 -0.9888  1.3787  0.1345
39517SOL    HW222050   9.730   8.566   1.121 -0.7408  0.0781 -0.9837
39518SOL     OW22051   1.964   1.260   3.761  0.5529 -0.4789 -0.2922
39518SOL    HW122052   1.905   1.186   3.771  0.1443  0.0057  1.1537
39518SOL    HW222053   1.934   1.324   3.826  1.4302  0.6015 -0.9063
39519SOL     OW22054   4.165  10.497   9.177  0.2117  0.1831 -0.1136
39519SOL    HW122055   4.196  10.417   9.220  0.2050 -0.1114 -0.6402
39519SOL    HW222056   4.240  10.555   9.178  0.6098 -0.2992 -0.8340
39520SOL     OW22057   2.009   3.835   2.252 -0.1166  0.2004  0.1730
39520SOL    HW122058   2.029   3.792   2.336  3.0911  0.9825 -0.0411
39520SOL    HW222059   2.012   3.764   2.188 -2.1148 -0.3256  0.6004
39521SOL     OW22060   4.253   0.028   9.578  0.8441 -0.3075  0.2879
39521SOL    HW122061   4.196   0.097   9.610  0.9709  0.2512 -0.6370
39521SOL    HW222062   4.324   0.023   9.642  0.7223  0.2801  0.4733
39522SOL     OW22063   1.387   1.632   4.941  0.6052 -0.4309  0.4480
39522SOL    HW122064   1.307   1.623   4.889  0.5985 -0.4267  0.4577
39522SOL    HW222065   1.455   1.651   4.877  0.5877 -0.3761  0.4456
39523SOL     OW22066   5.251   3.551   1.285 -0.0938 -0.0680  0.4411
39523SOL    HW122067   5.306   3.552   1.206 -0.7615 -0.5600 -0.0383
39523SOL    HW222068   5.263   3.463   1.321 -1.6983 -0.7202 -0.4978
39524SOL     OW22069   9.441   8.887   8.859  0.3850  0.6774 -0.0265
39524SOL    HW122070   9.530   8.922   8.850  1.0309 -1.0812 -0.9399
39524SOL    HW222071   9.407   8.886   8.770  0.3005 -0.7332  0.0049
39525SOL     OW22072   1.457   6.845   7.806 -0.1687 -0.1154  0.4922
39525SOL    HW122073   1.426   6.820   7.719 -0.5757  3.3104 -0.4805
39525SOL    HW222074   1.552   6.836   7.801 -0.1569  0.4700 -0.4490
39526SOL     OW22075   3.647   3.355   7.582  0.0183 -0.0619  0.3340
39526SOL    HW122076   3.598   3.321   7.657  1.0100  1.8073  1.9202
39526SOL    HW222077   3.729   3.306   7.582 -0.0764 -0.2216  0.3224
39527SOL     OW22078   8.218   6.610   4.249 -0.2039  0.4480  0.0362
39527SOL    HW122079   8.216   6.636   4.157 -1.3981  1.6546  0.3631
39527SOL    HW222080   8.256   6.685   4.294  1.8580 -0.7498  0.3854
39528SOL     OW22081   6.182   6.505   7.635  0.0274  0.0940 -0.4835
39528SOL    HW122082   6.151   6.450   7.706  0.9211 -1.1166 -0.9998
39528SOL    HW222083   6.142   6.591   7.652 -0.2448 -0.3172  1.1242
39529SOL     OW22084   1.494   5.405  10.744 -0.1518 -0.0462  0.2353
39529SOL    HW122085   1.495   5.438  10.834 -0.6089 -1.9244  0.9865
39529SOL    HW222086   1.401   5.401  10.721 -0.0027  1.3059 -0.6996
39530SOL     OW22087   7.757   5.156   7.689 -0.2677 -0.2205 -0.1329
39530SOL    HW122088   7.721   5.170   7.601 -0.0615  0.4152 -0.1209
39530SOL    HW222089   7.681   5.141   7.744 -0.3163 -2.4964 -0.7262
39531SOL     OW22090   8.139   1.964   3.792  0.1328 -0.4835  0.2910
39531SOL    HW122091   8.094   1.952   3.708 -1.4250  0.4713  0.9629
39531SOL    HW222092   8.138   1.877   3.832 -2.0655 -0.3154  0.7214
39532SOL     OW22093   9.987   2.565   1.483 -0.1069 -0.2021 -0.6809
39532SOL    HW122094  10.026   2.619   1.552  2.0957 -0.1992 -1.8654
39532SOL    HW222095   9.929   2.505   1.531  0.8640  0.2080  1.1192
39533SOL     OW22096   6.291   6.235   8.407 -0.1373  0.2946 -0.1890
39533SOL    HW122097   6.336   6.317   8.386  1.1498 -0.7801 -1.9230
39533SOL    HW222098   6.360   6.174   8.432 -1.1133 -0.1962  1.4769
39534SOL     OW22099  10.699  10.486   6.047  0.0309 -0.1400  0.1399
39534SOL    HW122100  10.606  10.503   6.028 -0.0197 -0.1779  0.3386
39534SOL    HW222101  10.704  10.392   6.060  0.0688 -0.1218  0.2675
39535SOL     OW22102   9.994   8.183   1.515  0.1081 -0.4966 -0.0230
39535SOL    HW122103   9.945   8.155   1.592  0.6937  0.4830  0.7272
39535SOL    HW222104  10.012   8.102   1.467 -1.3507 -0.9898  0.1963
39536SOL     OW22105   1.260   9.465   6.565  0.0648 -0.5563 -0.6877
39536SOL    HW122106   1.278   9.378   6.600 -0.3123 -0.7694 -1.0111
39536SOL    HW222107   1.220   9.449   6.479  0.1010 -0.0625 -0.8006
39537SOL     OW22108   0.918   6.897   6.237  0.3327  0.2115  0.5761
39537SOL    HW122109   0.910   6.863   6.327 -0.7595  2.1262  1.2628
39537SOL    HW222110   1.012   6.894   6.219  0.8685  1.6770  2.6275
39538SOL     OW22111   2.839   9.588   5.031  0.4707  0.0737 -0.1925
39538SOL    HW122112   2.803   9.612   4.946  0.8557  1.2226 -0.0396
39538SOL    HW222113   2.931   9.613   5.027  1.1550 -2.1958 -0.3310
39539SOL     OW22114   4.912   1.775  10.645 -0.9633  0.5773 -0.4286
39539SOL    HW122115   4.923   1.809  10.734 -3.4550  1.4156 -0.3559
39539SOL    HW222116   4.849   1.704  10.654 -0.9362  0.3986 -1.4736
39540SOL     OW22117   9.405   7.906   3.885 -0.1532  0.1235  0.0572
39540SOL    HW122118   9.327   7.871   3.841  0.5637 -1.1014 -0.2964
39540SOL    HW222119   9.370   7.955   3.960 -1.2214 -1.9442  0.9933
39541SOL     OW22120   6.810   9.533   4.987  0.0090  0.4836  0.0423
39541SOL    HW122121   6.889   9.489   5.019  1.3427  1.9969 -0.9986
39541SOL    HW222122   6.769   9.470   4.928 -0.0192 -0.6088  1.1885
39542SOL     OW22123   4.319   8.120   3.344  0.5600  0.0200 -0.0806
39542SOL    HW122124   4.353   8.209   3.338 -0.7851  0.6514  1.1176
39542SOL    HW222125   4.331   8.096   3.436  0.4646 -0.8694 -0.2883
39543SOL     OW22126   3.553   7.641   1.066 -0.2461 -0.2198 -0.1464
39543SOL    HW122127   3.634   7.592   1.053 -0.0936  0.4350 -1.9487
39543SOL    HW222128   3.557   7.670   1.157  2.7402  1.7698 -0.7522
39544SOL     OW22129   6.298   2.333   3.712 -0.3097  0.2557 -0.4180
39544SOL    HW122130   6.209   2.316   3.681  0.2723 -0.6929 -1.6239
39544SOL    HW222131   6.332   2.400   3.653  0.5367 -1.0168 -1.4448
39545SOL     OW22132   4.195  10.110   6.983 -0.2962  0.1611  0.5949
39545SOL    HW122133   4.191  10.181   7.047  0.2661  0.3098  0.4750
39545SOL    HW222134   4.280  10.121   6.940  0.2704 -1.1954  1.2964
39546SOL     OW22135   0.523   5.843   3.895  0.2007  0.1538 -0.1502
39546SOL    HW122136   0.486   5.918   3.943 -1.4416 -0.8121  0.1746
39546SOL    HW222137   0.502   5.861   3.804  1.0165  0.7238 -0.2398
39547SOL     OW22138   8.295   2.925   2.764  0.2490  0.2593 -0.7373
39547SOL    HW122139   8.357   2.882   2.705  1.9337  1.7385 -0.1531
39547SOL    HW222140   8.287   2.866   2.838  0.2330 -0.3841 -1.2465
39548SOL     OW22141   1.803   5.528   4.271  0.3154  0.5595 -0.0077
39548SOL    HW122142   1.720   5.566   4.303 -0.3536 -1.9355  1.5136
39548SOL    HW222143   1.863   5.539   4.344  0.8100  0.7676 -0.4440
39549SOL     OW22144   6.521   6.027   2.221  0.2298  0.3733  0.2598
39549SOL    HW122145   6.586   6.097   2.215 -0.1007  0.6119 -0.6388
39549SOL    HW222146   6.455   6.061   2.282  0.6733  0.3431  0.7652
39550SOL     OW22147   7.105   2.556   0.304  0.1645  0.0441 -0.2162
39550SOL    HW122148   7.113   2.618   0.376 -1.6581  0.3201 -0.2022
39550SOL    HW222149   7.140   2.475   0.338 -0.5863  0.1964  0.9828
39551SOL     OW22150   9.153   9.909   8.812 -0.7189 -0.0571 -0.0420
39551SOL    HW122151   9.211   9.985   8.818 -1.1495  0.3032 -0.3506
39551SOL    HW222152   9.066   9.946   8.795 -0.6320 -0.7021 -2.0650
39552SOL     OW22153   9.823   6.269  10.942  0.2065 -0.0151  0.4918
39552SOL    HW122154   9.878   6.287  11.018  2.5315 -1.7598 -0.6129
39552SOL    HW222155   9.851   6.333  10.877 -1.6033  1.3205  0.9804
39553SOL     OW22156   7.277   4.475   7.855 -0.0484  0.1011 -0.1532
39553SOL    HW122157   7.237   4.550   7.899 -0.0638  1.2994 -2.0879
39553SOL    HW222158   7.212   4.405   7.865 -1.3072  1.1468 -0.6580
39554SOL     OW22159   7.630   5.943   5.934  0.0218  0.2239  0.4590
39554SOL    HW122160   7.695   6.002   5.972  1.8663  0.8624 -3.2600
39554SOL    HW222161   7.680   5.868   5.903 -1.5428 -0.8840  0.4588
39555SOL     OW22162   3.588   2.223   8.023 -0.7184 -0.0242 -0.0278
39555SOL    HW122163   3.610   2.276   7.947  0.1934 -0.9168 -0.4129
39555SOL    HW222164   3.673   2.203   8.064 -1.2155  0.8435  1.5157
39556SOL     OW22165   4.925   2.164   7.678  0.0787 -0.1372  0.3705
39556SOL    HW122166   4.835   2.179   7.706  0.4179 -0.8348  1.9465
39556SOL    HW222167   4.977   2.172   7.758  1.3910 -0.0264 -0.4580
39557SOL     OW22168   7.547   5.710   3.502  0.0599  0.1897 -0.3642
39557SOL    HW122169   7.589   5.714   3.416  1.0283 -1.5263 -0.0112
39557SOL    HW222170   7.560   5.797   3.539  1.4022  0.3555 -1.1542
39558SOL     OW22171   0.199   2.009   9.563 -0.4702 -0.0487 -0.1318
39558SOL    HW122172   0.214   2.056   9.481 -1.0852 -2.5619 -1.8189
39558SOL    HW222173   0.108   1.981   9.559 -0.2416 -1.0494  0.9432
39559SOL     OW22174   3.909   6.727   9.864 -0.0039  0.2356 -0.8310
39559SOL    HW122175   3.949   6.758   9.946 -3.0708 -0.5516  1.0976
39559SOL    HW222176   3.860   6.803   9.832 -3.3200 -0.8880  1.1566
39560SOL     OW22177   6.581  10.971   0.747 -0.0201  0.3629 -0.0926
39560SOL    HW122178   6.572  11.058   0.708  0.8597  0.5823  0.1778
39560SOL    HW222179   6.586  10.988   0.841  0.5614  0.0567 -0.0650
39561SOL     OW22180   5.307   2.841  10.834 -0.3850 -0.0531 -0.4742
39561SOL    HW122181   5.303   2.931  10.802 -0.5424  0.6828  1.4643
39561SOL    HW222182   5.312   2.788  10.755  0.2565  1.6764 -1.6712
39562SOL     OW22183   8.929   5.395   4.525  0.2017  0.4706 -0.1410
39562SOL    HW122184   8.977   5.323   4.484 -0.3665  0.3281 -0.5710
39562SOL    HW222185   8.978   5.474   4.498  0.3805  0.3042 -0.3115
39563SOL     OW22186   2.374  10.832   2.498 -0.6671 -0.3807  0.1592
39563SOL    HW122187   2.379  10.775   2.421  0.3121  0.0848 -0.1304
39563SOL    HW222188   2.413  10.781   2.569  0.1578 -0.0959 -0.0876
39564SOL     OW22189   3.388   1.698  10.255 -0.5807 -0.4446  0.5015
39564SOL    HW122190   3.394   1.749  10.336  1.9204 -2.1407  1.4909
39564SOL    HW222191   3.336   1.622  10.280 -0.9327 -0.3259  0.1288
39565SOL     OW22192  10.853   3.521  10.481  0.0932  0.3846  0.4937
39565SOL    HW122193  10.892   3.470  10.410  0.7697  1.0275  0.3954
39565SOL    HW222194  10.791   3.461  10.522 -0.4029  0.0415 -0.7143
39566SOL     OW22195   8.669  10.510   5.680 -0.5830  0.5946  0.2905
39566SOL    HW122196   8.630  10.528   5.765  1.0571  0.0959  1.2024
39566SOL    HW222197   8.622  10.434   5.647 -0.1839 -0.2204  1.5270
39567SOL     OW22198   0.844   9.916   0.988 -0.3581 -0.6470  0.5204
39567SOL    HW122199   0.913   9.982   0.980 -1.6446  0.5193 -2.0635
39567SOL    HW222200   0.795   9.943   1.066  0.3073  0.2860  0.6326
39568SOL     OW22201   8.220   6.526   8.154 -0.2884 -0.2727  0.3174
39568SOL    HW122202   8.249   6.541   8.064 -0.3395  0.2238  0.3824
39568SOL    HW222203   8.136   6.571   8.160 -1.4545 -2.2373 -0.0674
39569SOL     OW22204   3.997   5.296   6.879  0.1752 -0.3045 -0.0267
39569SOL    HW122205   4.003   5.222   6.938  1.3469 -1.2325 -1.2432
39569SOL    HW222206   3.904   5.320   6.879  0.2949  0.5300  3.0528
39570SOL     OW22207   3.264   8.022   8.434 -0.1687 -0.2298 -0.2307
39570SOL    HW122208   3.274   8.070   8.352 -1.1342 -0.3398 -0.4327
39570SOL    HW222209   3.246   7.932   8.406 -0.6194 -0.2418  0.0975
39571SOL     OW22210   6.422   7.103  10.983 -0.2974 -0.2627 -0.0408
39571SOL    HW122211   6.385   7.184  10.951 -1.8645 -0.7922  0.3531
39571SOL    HW222212   6.350   7.040  10.980  0.6531 -1.4276  0.4515
39572SOL     OW22213   1.316   6.624   1.985  0.9201  0.2213 -0.3025
39572SOL    HW122214   1.246   6.645   2.047  0.8454 -1.6988  0.3193
39572SOL    HW222215   1.271   6.606   1.902  0.6165 -1.1717  0.1370
39573SOL     OW22216   1.767   2.165   8.944 -0.5235 -0.4967 -0.2982
39573SOL    HW122217   1.856   2.135   8.926 -0.3286  0.0299 -0.2392
39573SOL    HW222218   1.727   2.094   8.994 -0.3854 -1.0670 -0.9848
39574SOL     OW22219   1.114   0.167   5.354 -0.0172 -0.1428  0.5668
39574SOL    HW122220   1.192   0.136   5.308  0.6526 -1.3338  2.3642
39574SOL    HW222221   1.081   0.238   5.300  0.9400 -1.1698 -1.4783
39575SOL     OW22222   1.982   1.888   9.248  0.1447  0.4760  0.3309
39575SOL    HW122223   1.907   1.917   9.300 -0.5866 -0.5036 -0.1445
39575SOL    HW222224   2.016   1.969   9.209  0.4455  1.1689  1.9466
39576SOL     OW22225   6.094   1.803   3.710 -0.3481  0.0435  0.1469
39576SOL    HW122226   6.005   1.772   3.697 -0.6053  0.3741  1.0757
39576SOL    HW222227   6.147   1.723   3.708 -0.5869 -0.1069 -0.9213
39577SOL     OW22228   8.057   7.862   9.906  0.2893 -0.2647  0.4813
39577SOL    HW122229   7.981   7.877   9.962  1.5514 -1.8568  2.7875
39577SOL    HW222230   8.131   7.897   9.956  1.3035 -0.0733 -1.0549
39578SOL     OW22231   0.694   5.533   3.819  0.0143  1.0570  0.0563
39578SOL    HW122232   0.746   5.608   3.850 -1.1888  1.9259  0.0244
39578SOL    HW222233   0.603   5.558   3.836 -0.5192  0.3745 -1.6144
39579SOL     OW22234   3.758   4.428   6.790  0.0496 -0.8469  0.1697
39579SOL    HW122235   3.788   4.370   6.720 -1.0516  0.2167 -1.2317
39579SOL    HW222236   3.759   4.515   6.751 -2.7353 -0.4983  0.6928
39580SOL     OW22237   1.187   8.997  10.623  0.1500  0.4720 -0.5452
39580SOL    HW122238   1.137   9.058  10.569  0.2750  1.1153  0.0572
39580SOL    HW222239   1.276   9.003  10.591  0.2233  0.8514 -0.2723
39581SOL     OW22240   7.954   8.223  10.588 -0.1631  0.1784  0.4423
39581SOL    HW122241   7.893   8.218  10.661  0.5469  1.0757  1.1200
39581SOL    HW222242   8.025   8.279  10.619  1.3240 -1.3199 -0.1148
39582SOL     OW22243   6.770  10.805   4.209 -0.0422  0.1220 -0.1114
39582SOL    HW122244   6.835  10.738   4.227  0.3236  1.1271  3.0346
39582SOL    HW222245   6.820  10.887   4.207 -0.9240  0.6830  0.1841
39583SOL     OW22246   6.508   0.008   8.112  0.1068  0.0943  0.5392
39583SOL    HW122247   6.588  -0.036   8.140 -1.0487 -2.3836  0.2249
39583SOL    HW222248   6.525   0.037   8.023  0.3450 -1.4041  0.0669
39584SOL     OW22249  10.167   3.553   3.313 -0.1094  0.3173 -0.4228
39584SOL    HW122250  10.189   3.616   3.382  1.0553  1.9175 -2.1836
39584SOL    HW222251  10.098   3.595   3.262 -0.7704 -0.7481 -0.4620
39585SOL     OW22252   5.704   6.851   5.334  0.4711 -0.3185  0.0843
39585SOL    HW122253   5.736   6.767   5.302 -0.1241 -1.1959  1.6405
39585SOL    HW222254   5.683   6.834   5.427 -0.5241  1.2984  0.1928
39586SOL     OW22255   7.707   6.105   3.668 -0.1043 -0.5976 -0.2224
39586SOL    HW122256   7.789   6.147   3.694 -1.3700  1.3752  0.8072
39586SOL    HW222257   7.696   6.128   3.576 -1.6557  3.1369  0.7223
39587SOL     OW22258   7.981   3.930   8.028 -0.1561  0.2169  0.0662
39587SOL    HW122259   8.015   4.009   8.070  1.8660  0.2089 -1.3971
39587SOL    HW222260   7.959   3.957   7.939  0.0478 -0.7175 -0.2870
39588SOL     OW22261   5.515   9.641   1.819 -0.1880  0.0745  0.5872
39588SOL    HW122262   5.470   9.721   1.847 -0.3183  0.4432 -0.6388
39588SOL    HW222263   5.447   9.574   1.820 -0.1141 -0.0009  1.4682
39589SOL     OW22264   0.304   3.882   8.128  0.3011  0.3038 -0.2025
39589SOL    HW122265   0.386   3.868   8.174  0.3939  1.8343  0.1649
39589SOL    HW222266   0.242   3.822   8.170  0.8063  0.4368  0.7618
39590SOL     OW22267   8.440   7.234   2.300  0.5693  0.3244 -0.3788
39590SOL    HW122268   8.430   7.226   2.395 -1.8928 -0.7209 -0.6431
39590SOL    HW222269   8.509   7.172   2.278  2.0251  1.4485  0.8177
39591SOL     OW22270   7.739   2.303   4.701 -0.2794 -0.3528 -0.5190
39591SOL    HW122271   7.763   2.213   4.721 -1.3743 -0.3103  1.1907
39591SOL    HW222272   7.648   2.298   4.671 -1.5337  0.3943  2.6778
39592SOL     OW22273   3.998   4.208   7.735  0.0724 -0.2567  0.1746
39592SOL    HW122274   3.914   4.202   7.688  0.3681 -0.0721 -0.3812
39592SOL    HW222275   4.034   4.119   7.730 -0.9390 -0.8129  2.0256
39593SOL     OW22276   2.028   9.883   4.057  0.0391 -0.1736  0.4012
39593SOL    HW122277   2.047   9.853   3.968  0.8880  0.9691  0.1860
39593SOL    HW222278   2.033   9.804   4.110 -0.1426 -0.8120 -0.5058
39594SOL     OW22279  10.688  10.833   6.527  0.1410  0.4937 -0.0871
39594SOL    HW122280  10.721  10.748   6.496 -0.9451 -0.6461  1.7077
39594SOL    HW222281  10.755  10.865   6.586  0.0999  0.3830  0.0206
39595SOL     OW22282   5.992   1.045   1.959  0.6893  0.0517 -0.3997
39595SOL    HW122283   5.990   1.115   1.893  0.4772  0.2364 -0.1971
39595SOL    HW222284   6.058   1.073   2.022  0.1247  0.4090  0.0494
39596SOL     OW22285   5.131   5.435   5.604  0.1499  0.6137  0.0691
39596SOL    HW122286   5.042   5.402   5.588  0.9782 -0.8769 -1.9246
39596SOL    HW222287   5.157   5.475   5.520  1.8653 -0.2887  0.1233
39597SOL     OW22288   1.749  10.352   0.293  0.1147 -0.5682  0.0881
39597SOL    HW122289   1.653  10.346   0.286 -0.0659 -0.2376  1.8776
39597SOL    HW222290   1.774  10.273   0.340  0.8348 -1.0431 -1.0626
39598SOL     OW22291   4.216   2.446   6.948  0.0220  0.6663  0.0199
39598SOL    HW122292   4.164   2.527   6.947 -0.9888  0.0396  0.0672
39598SOL    HW222293   4.179   2.394   6.877  1.4444  0.7027 -0.7686
39599SOL     OW22294   7.502   1.109   9.084 -0.0024 -0.3786 -0.0546
39599SOL    HW122295   7.590   1.138   9.108 -0.1966  0.3741 -0.2214
39599SOL    HW222296   7.444   1.173   9.125 -0.6080 -2.0797  1.9107
39600SOL     OW22297   4.091   2.641   3.486  0.1172  0.0836 -0.8434
39600SOL    HW122298   4.173   2.675   3.452  0.5689  0.8432  0.8838
39600SOL    HW222299   4.114   2.556   3.523 -0.0729 -0.1088 -1.1633
39601SOL     OW22300   4.827   7.831  10.912  0.0890 -0.2797 -0.1121
39601SOL    HW122301   4.779   7.768  10.966  0.4798 -0.3557  0.1491
39601SOL    HW222302   4.805   7.916  10.951 -1.6216 -0.0896 -1.3546
39602SOL     OW22303   6.261  10.457   7.285  0.1226  0.7351  0.0916
39602SOL    HW122304   6.332  10.513   7.254  0.4933  0.6988  0.8542
39602SOL    HW222305   6.238  10.492   7.371  1.1448 -0.9432  1.0959
39603SOL     OW22306   7.698   4.930   3.486  0.0040 -0.0315  0.4039
39603SOL    HW122307   7.675   5.009   3.436  1.3346  1.2406  1.7156
39603SOL    HW222308   7.624   4.918   3.545 -1.1363 -0.9876 -1.1421
39604SOL     OW22309   7.034   3.595   4.346 -0.0959 -0.1758  0.1392
39604SOL    HW122310   6.963   3.533   4.328 -0.6282  0.4316  0.1278
39604SOL    HW222311   7.034   3.655   4.272 -1.2280  1.3485  1.3022
39605SOL     OW22312   7.733   4.171   9.364 -0.4380 -0.4005  0.1564
39605SOL    HW122313   7.641   4.192   9.377 -0.5369 -0.2178 -0.7468
39605SOL    HW222314   7.732   4.093   9.308 -0.0719  0.5783 -1.2896
39606SOL     OW22315   1.439   6.880   5.114 -0.1286 -0.0681 -0.1908
39606SOL    HW122316   1.516   6.883   5.058  0.3558 -1.0025  0.3944
39606SOL    HW222317   1.383   6.814   5.074 -0.7480  0.7724 -0.7444
39607SOL     OW22318   5.037   7.716   6.669 -0.1651 -0.3470  0.1357
39607SOL    HW122319   5.051   7.800   6.626 -0.4979 -1.1245 -1.5826
39607SOL    HW222320   4.950   7.723   6.709 -0.0798  0.2030  0.2307
39608SOL     OW22321   9.319   2.985   7.942  0.0132 -0.4075 -0.0001
39608SOL    HW122322   9.356   3.029   7.865  0.2004 -1.0028 -0.2590
39608SOL    HW222323   9.232   2.956   7.913 -0.0772 -0.2797  0.1428
39609SOL     OW22324  10.196   0.325   9.701 -0.0006 -0.3212 -0.2913
39609SOL    HW122325  10.242   0.345   9.783  2.2153 -0.7174 -1.3599
39609SOL    HW222326  10.200   0.230   9.694 -1.6729 -0.4411 -0.0914
39610SOL     OW22327   7.710   4.897   5.717 -0.3415  0.2372 -0.1531
39610SOL    HW122328   7.779   4.879   5.653  0.1391  0.9856  0.1379
39610SOL    HW222329   7.749   4.875   5.801 -1.0935 -1.0811 -0.1240
39611SOL     OW22330   4.030   6.110   1.606  0.0381  0.4311 -0.0652
39611SOL    HW122331   4.090   6.168   1.653  0.3504  0.2293 -0.2199
39611SOL    HW222332   4.086   6.048   1.559 -0.2863  0.2458 -0.2156
39612SOL     OW22333   9.047   0.351   3.619 -0.0216 -0.2014  0.2726
39612SOL    HW122334   9.044   0.446   3.606 -0.4077 -0.2161  0.2319
39612SOL    HW222335   8.959   0.329   3.650  0.2933 -0.4422  1.0041
39613SOL     OW22336  10.725   6.224   6.061 -0.1978  0.2384  0.1151
39613SOL    HW122337  10.777   6.241   6.140 -0.3339  0.3661  0.1773
39613SOL    HW222338  10.635   6.217   6.093 -0.2488  0.2627 -0.0249
39614SOL     OW22339  10.697   1.237   4.277  0.3871 -0.4877 -0.1097
39614SOL    HW122340  10.647   1.230   4.196 -0.5813 -0.1041  0.4337
39614SOL    HW222341  10.633   1.218   4.346  0.3453  2.2496  0.7373
39615SOL     OW22342   6.992   3.585   0.732 -0.0779 -0.6420 -0.1232
39615SOL    HW122343   6.945   3.660   0.770  2.8757  1.2248  0.2076
39615SOL    HW222344   6.950   3.569   0.648 -0.0239  2.3524 -0.8295
39616SOL     OW22345   3.378  10.616   6.915 -0.1448  0.1233 -0.6853
39616SOL    HW122346   3.384  10.564   6.835 -2.4716  0.2990 -1.0495
39616SOL    HW222347   3.423  10.698   6.894 -2.6414  1.1191 -2.7387
39617SOL     OW22348   4.936   1.584   7.187 -0.2737 -0.0995 -0.3907
39617SOL    HW122349   4.928   1.509   7.246 -0.8372 -0.3186 -0.7447
39617SOL    HW222350   4.997   1.643   7.232 -0.5001 -0.3758  0.2958
39618SOL     OW22351   5.123   5.708   1.002  0.2966 -0.1164  0.0136
39618SOL    HW122352   5.032   5.717   0.974 -0.9662  1.1881  3.9271
39618SOL    HW222353   5.126   5.629   1.055  2.0852 -1.4182 -1.8720
39619SOL     OW22354   0.865   3.436   4.242 -0.5142 -0.3158  0.1547
39619SOL    HW122355   0.783   3.414   4.286 -0.2781  0.4242  0.9807
39619SOL    HW222356   0.858   3.530   4.223  0.6917  0.0637  1.4507
39620SOL     OW22357   8.244   3.585   9.909  0.5431 -0.0060  0.3698
39620SOL    HW122358   8.288   3.617   9.988  0.0821 -0.3079  0.7538
39620SOL    HW222359   8.160   3.550   9.940 -0.0776  0.7652 -0.3813
39621SOL     OW22360  10.833   6.393   3.024 -0.1300 -0.4298  0.2699
39621SOL    HW122361  10.880   6.408   2.942  0.6559  0.3378  0.8319
39621SOL    HW222362  10.884   6.441   3.090  0.2820 -2.4553  1.5323
39622SOL     OW22363   9.402   3.793   1.387 -0.6875  0.4959 -0.1425
39622SOL    HW122364   9.369   3.879   1.415  0.9991  0.7743  1.1696
39622SOL    HW222365   9.478   3.777   1.443 -2.0645 -2.7687  1.0577
39623SOL     OW22366   7.163   0.922   3.069 -0.2943 -0.1638  0.1659
39623SOL    HW122367   7.214   1.001   3.087 -1.8792  0.8709  0.3237
39623SOL    HW222368   7.073   0.945   3.094 -1.0739 -1.5089 -1.2308
39624SOL     OW22369   0.221   1.066   5.788 -0.1564  0.0513 -0.3355
39624SOL    HW122370   0.219   1.140   5.728  0.8471  0.7639  0.4771
39624SOL    HW222371   0.153   1.007   5.755  0.1518  0.5468 -1.9758
39625SOL     OW22372   9.611   5.045   4.263 -0.6305  0.5430  0.1493
39625SOL    HW122373   9.618   5.041   4.359  0.7531  1.9581  0.1456
39625SOL    HW222374   9.602   4.953   4.237  1.6342 -0.1730  1.5146
39626SOL     OW22375   7.957   3.422  10.618  0.2498 -0.1392 -0.5689
39626SOL    HW122376   7.888   3.487  10.638 -0.4914  0.1984 -3.7321
39626SOL    HW222377   7.984   3.443  10.529  1.8510 -2.6150 -0.7446
39627SOL     OW22378  10.252   8.906   0.480 -0.1157 -0.2491  0.7804
39627SOL    HW122379  10.159   8.893   0.498 -0.0594 -0.3280  1.0077
39627SOL    HW222380  10.291   8.819   0.493 -0.3124 -0.6885 -1.1721
39628SOL     OW22381   8.999  10.744   7.318  0.9042  0.6425 -0.4491
39628SOL    HW122382   8.965  10.655   7.315  1.5489  0.3899 -0.2547
39628SOL    HW222383   9.062  10.744   7.389  1.6940  0.9801 -1.1312
39629SOL     OW22384   5.536   6.683   4.797  0.1097 -0.0117 -0.0509
39629SOL    HW122385   5.448   6.718   4.782 -1.0447 -1.4470  2.6976
39629SOL    HW222386   5.588   6.720   4.726 -2.6691  0.9471 -1.7657
39630SOL     OW22387   3.645   5.215   0.699  0.0074  0.4846  0.5120
39630SOL    HW122388   3.698   5.238   0.775 -0.6480  1.4385  0.7017
39630SOL    HW222389   3.580   5.285   0.693  1.2672  1.5753 -2.1432
39631SOL     OW22390   8.763   2.646   5.464  0.7146  0.2422  0.2796
39631SOL    HW122391   8.769   2.588   5.540  1.6607  1.4314  1.1489
39631SOL    HW222392   8.758   2.587   5.389 -1.8134 -1.0067  1.2878
39632SOL     OW22393   1.958   8.513   4.857  0.1985 -0.1655 -0.0618
39632SOL    HW122394   1.907   8.526   4.777 -2.0346  2.3181  1.6036
39632SOL    HW222395   1.927   8.430   4.892 -0.1011 -0.3968 -0.8448
39633SOL     OW22396   3.774   7.488   7.569 -0.2404  0.7318 -0.3364
39633SOL    HW122397   3.778   7.399   7.533 -1.1642  0.3837  0.3746
39633SOL    HW222398   3.714   7.481   7.643  1.8434  1.3532  1.5242
39634SOL     OW22399   8.395   6.601   3.630 -0.3738 -0.6239 -0.1390
39634SOL    HW122400   8.453   6.666   3.590 -0.4987 -0.1243  0.4857
39634SOL    HW222401   8.422   6.598   3.722 -2.4073  0.8447  0.5852
39635SOL     OW22402  10.987   3.385   6.396 -0.1590  0.7216  0.7072
39635SOL    HW122403  11.042   3.463   6.390  0.7087  0.0416 -1.0631
39635SOL    HW222404  10.898   3.418   6.408  0.1558  1.9992 -0.3047
39636SOL     OW22405   8.202   7.020   9.355  0.7481 -0.5584 -0.0088
39636SOL    HW122406   8.277   7.079   9.358 -0.5146  1.1352 -0.0738
39636SOL    HW222407   8.181   7.012   9.262  0.3900 -0.4104  0.0568
39637SOL     OW22408   3.845   6.521  10.634 -0.1032 -0.1580  0.5103
39637SOL    HW122409   3.833   6.581  10.707  2.4091  0.3829  0.5807
39637SOL    HW222410   3.825   6.435  10.670  0.2851  0.1994  1.6107
39638SOL     OW22411   7.620   4.720   4.310 -0.0502 -0.0148 -0.1758
39638SOL    HW122412   7.597   4.798   4.361  1.7217  0.4592 -0.0240
39638SOL    HW222413   7.536   4.677   4.293 -0.9380  1.1891  0.9120
39639SOL     OW22414   8.766  10.436   8.164 -0.1065  0.3478  0.1664
39639SOL    HW122415   8.685  10.386   8.157 -0.5150  0.5372  2.5265
39639SOL    HW222416   8.817  10.390   8.230 -0.1871  2.5022  1.8749
39640SOL     OW22417   6.844   8.222   0.262 -0.0759 -0.3968 -0.0930
39640SOL    HW122418   6.769   8.164   0.276  1.3555 -2.4057 -0.3394
39640SOL    HW222419   6.871   8.204   0.172  1.8280 -1.1474  0.5858
39641SOL     OW22420   4.877   8.516   8.744  0.1696 -0.1162  0.0747
39641SOL    HW122421   4.848   8.605   8.727 -0.7756 -0.2588  0.8574
39641SOL    HW222422   4.892   8.478   8.657 -1.6107  0.1061 -0.3632
39642SOL     OW22423   9.589   2.631   1.067 -0.0790  0.5082 -0.8733
39642SOL    HW122424   9.575   2.583   1.148 -0.1927  0.8850 -0.6682
39642SOL    HW222425   9.666   2.590   1.028 -2.1571 -2.2277 -2.4718
39643SOL     OW22426  10.474   7.837   8.428  0.0149 -0.3954  0.4838
39643SOL    HW122427  10.515   7.920   8.404 -0.3916 -0.4676 -0.5096
39643SOL    HW222428  10.543   7.788   8.473  0.3663  0.3291  0.7411
39644SOL     OW22429  10.315   8.926   4.835 -0.5650 -0.2635  0.1604
39644SOL    HW122430  10.286   8.869   4.764 -0.8345  0.1351 -0.0542
39644SOL    HW222431  10.334   9.010   4.792 -0.4715 -0.0994  0.5179
39645SOL     OW22432  10.521   9.215   3.255  0.2910  0.0860  0.0871
39645SOL    HW122433  10.480   9.235   3.339 -0.5228  0.5470 -0.4090
39645SOL    HW222434  10.448   9.189   3.198  0.6784  0.8305 -0.7827
39646SOL     OW22435   2.238   3.913   7.665 -0.1635 -0.2848  0.3793
39646SOL    HW122436   2.215   3.840   7.608  0.9115  0.1059 -0.5805
39646SOL    HW222437   2.174   3.909   7.736 -1.8298 -0.5173 -1.0684
39647SOL     OW22438   6.887   4.214   1.360 -0.6054  0.9012 -0.2547
39647SOL    HW122439   6.836   4.283   1.402 -0.3770  1.0393 -0.2048
39647SOL    HW222440   6.850   4.133   1.395 -3.8154  0.7188 -3.4811
39648SOL     OW22441   4.399   3.073   3.509 -0.0206  0.1232 -0.0224
39648SOL    HW122442   4.470   3.129   3.477 -0.3081  0.4772 -0.0521
39648SOL    HW222443   4.333   3.077   3.439 -0.8838  1.3198  0.8201
39649SOL     OW22444   1.937   5.982  10.122  0.4409 -0.0402  0.2138
39649SOL    HW122445   1.926   5.903  10.175 -2.0933  0.0877 -0.0079
39649SOL    HW222446   1.937   5.950  10.032  0.5665  0.1264  0.1531
39650SOL     OW22447   6.698  10.354  10.682  0.4738  1.0626  0.0099
39650SOL    HW122448   6.748  10.324  10.606  0.7779  0.4393  0.4444
39650SOL    HW222449   6.611  10.316  10.670  1.2157 -1.2440  1.2337
39651SOL     OW22450   9.267  10.476   0.083  0.6319 -1.2414 -0.0624
39651SOL    HW122451   9.251  10.385   0.059 -0.3024 -1.1369  0.1044
39651SOL    HW222452   9.234  10.483   0.173 -1.7180 -0.1521 -0.9278
39652SOL     OW22453  10.953   6.651   0.214  0.2325  0.5498 -0.0512
39652SOL    HW122454  11.024   6.637   0.277 -0.2160 -0.6266  0.2140
39652SOL    HW222455  10.997   6.687   0.136  1.1712 -0.4004  0.0129
39653SOL     OW22456   5.760   4.096   7.438 -0.3527 -0.4214 -0.0069
39653SOL    HW122457   5.785   4.072   7.349 -1.7579  1.5276 -0.9812
39653SOL    HW222458   5.668   4.072   7.445  0.1722 -2.2639  1.6112
39654SOL     OW22459   0.687   5.771   0.928 -0.2477 -0.1221  0.5598
39654SOL    HW122460   0.741   5.773   1.007  0.5579  0.2339  0.0178
39654SOL    HW222461   0.745   5.736   0.861  0.0123  2.2211 -0.5377
39655SOL     OW22462   3.984   1.644   2.054  0.2648 -0.5091  0.0649
39655SOL    HW122463   3.959   1.627   2.145 -0.5660  0.8981  0.1427
39655SOL    HW222464   3.920   1.596   2.002 -0.6522  0.4507  0.2604
39656SOL     OW22465   0.631   5.613   6.335  0.3300  0.3085 -0.0850
39656SOL    HW122466   0.607   5.698   6.297  1.8968  1.0571  0.4994
39656SOL    HW222467   0.642   5.555   6.259  1.9239  1.3868 -0.7278
39657SOL     OW22468   3.781  10.850   5.560 -0.1844 -0.0427  0.1062
39657SOL    HW122469   3.691  10.819   5.556 -0.1662 -0.0555 -0.2185
39657SOL    HW222470   3.821  10.797   5.629 -0.1274 -0.8162 -0.5068
39658SOL     OW22471   5.846   1.697   8.164  0.4500  0.2302 -0.0583
39658SOL    HW122472   5.790   1.771   8.137  0.1023 -0.1190 -0.3052
39658SOL    HW222473   5.817   1.625   8.108  1.5883  0.2120 -0.6506
39659SOL     OW22474   2.859   3.959   0.117 -0.3665  0.2434 -0.3024
39659SOL    HW122475   2.890   3.869   0.101  1.1668  0.7944 -0.6084
39659SOL    HW222476   2.939   4.010   0.127 -1.2262  1.5123  0.3153
39660SOL     OW22477   0.202   7.181   8.096 -0.3097  0.2639  0.1074
39660SOL    HW122478   0.172   7.133   8.173 -0.2076  1.7423  1.1087
39660SOL    HW222479   0.126   7.232   8.068 -0.2658 -0.0518 -0.6214
39661SOL     OW22480   7.604   4.146  10.839 -0.3228  0.2935 -0.1690
39661SOL    HW122481   7.578   4.231  10.803 -1.0770  0.6119  1.0793
39661SOL    HW222482   7.553   4.137  10.920 -1.8939 -2.3026 -1.3216
39662SOL     OW22483   0.339   3.455   7.128 -0.4035 -0.3651  0.1450
39662SOL    HW122484   0.403   3.405   7.079  0.3602 -1.4878  2.1538
39662SOL    HW222485   0.364   3.546   7.116  0.8780 -0.7312 -0.0519
39663SOL     OW22486   3.618   7.488   8.805 -0.4344 -0.2233 -0.0259
39663SOL    HW122487   3.647   7.447   8.887 -1.1404  0.1994  0.4504
39663SOL    HW222488   3.586   7.415   8.752  1.7757 -0.7628 -0.7272
39664SOL     OW22489   7.512   0.846   9.262  0.1037  0.4106  0.0937
39664SOL    HW122490   7.461   0.910   9.211  0.7518 -0.2661 -1.4649
39664SOL    HW222491   7.555   0.899   9.330 -3.2662  0.9032  2.0744
39665SOL     OW22492   7.751   0.455   6.428 -0.1581 -0.1533 -0.0479
39665SOL    HW122493   7.780   0.422   6.512  1.2496 -0.6363 -0.6925
39665SOL    HW222494   7.734   0.377   6.375  0.3310  0.1345 -0.6462
39666SOL     OW22495  10.113   2.274  10.164  0.9279 -0.0851  0.3748
39666SOL    HW122496  10.170   2.215  10.214  2.6973 -1.6274 -3.0726
39666SOL    HW222497  10.031   2.226  10.154  0.9512 -0.2356  0.9108
39667SOL     OW22498   2.801   3.034   0.256 -0.4872 -0.3516  0.7049
39667SOL    HW122499   2.806   2.946   0.220  1.7983  0.1673 -0.3890
39667SOL    HW222500   2.823   3.023   0.348  2.0480 -0.7295  0.1299
39668SOL     OW22501   8.336   3.825   3.736  0.0953  0.0320 -0.8277
39668SOL    HW122502   8.389   3.763   3.786 -2.5731  1.0373  3.7144
39668SOL    HW222503   8.362   3.911   3.768 -2.8327  0.6354  0.2813
39669SOL     OW22504   8.996   9.328   2.301 -0.2922 -0.1778  0.8968
39669SOL    HW122505   8.941   9.389   2.253  3.2452  0.9769 -2.2166
39669SOL    HW222506   8.990   9.356   2.392 -2.3936  1.7466  0.2686
39670SOL     OW22507   6.085   6.311   5.196 -0.2164  0.3776  0.1005
39670SOL    HW122508   6.114   6.315   5.287 -0.7752 -0.0742  0.3031
39670SOL    HW222509   6.074   6.403   5.171 -1.3640  0.4963  0.9261
39671SOL     OW22510   6.559   8.733   6.840 -0.1673 -0.2646 -0.4371
39671SOL    HW122511   6.556   8.698   6.929  1.3248 -1.4676 -0.8095
39671SOL    HW222512   6.485   8.692   6.796 -0.6824  0.0314  0.1356
39672SOL     OW22513   4.298   9.428   0.807  0.4402  0.8120  0.0271
39672SOL    HW122514   4.314   9.344   0.850  0.8775  0.7758 -0.1954
39672SOL    HW222515   4.378   9.445   0.758 -0.1256  0.7429 -0.9586
39673SOL     OW22516   7.573  10.883  10.598 -0.5948  0.0392  0.5313
39673SOL    HW122517   7.656  10.870  10.643 -0.1231  0.3641 -0.2255
39673SOL    HW222518   7.525  10.802  10.613  1.1878 -1.6000 -1.7926
39674SOL     OW22519   8.306   0.005   1.183  0.3042  0.6969  0.3311
39674SOL    HW122520   8.212  -0.016   1.179  0.1954  0.8163  1.7425
39674SOL    HW222521   8.316   0.080   1.125 -0.8021  1.6808  1.3438
39675SOL     OW22522   1.355   1.854   1.026 -0.4592  0.5263  0.0190
39675SOL    HW122523   1.404   1.832   0.947 -1.3930  0.4433 -0.5625
39675SOL    HW222524   1.356   1.774   1.079 -1.4323 -0.0509 -0.7937
39676SOL     OW22525   4.894   3.664   4.639  0.1509  0.8577  0.2855
39676SOL    HW122526   4.957   3.596   4.666 -0.5439  0.5200  1.0963
39676SOL    HW222527   4.817   3.647   4.692  0.0870  2.5164  0.7655
39677SOL     OW22528  10.090   6.186   6.503  0.5293  0.2877 -0.1950
39677SOL    HW122529  10.077   6.270   6.458  1.2004 -0.0449 -1.0383
39677SOL    HW222530  10.040   6.194   6.584 -3.2346 -0.1645 -2.2225
39678SOL     OW22531   6.191   6.900   5.649  0.1860  0.1565  0.4908
39678SOL    HW122532   6.166   6.826   5.595  1.2842 -0.4612  0.7939
39678SOL    HW222533   6.287   6.901   5.645  0.1874  2.4414 -0.6961
39679SOL     OW22534   6.089   6.204   9.501 -0.1470 -0.4235  0.0641
39679SOL    HW122535   6.154   6.237   9.438 -0.2220 -0.3006  0.0513
39679SOL    HW222536   6.134   6.207   9.585  0.1142 -1.0303 -0.0485
39680SOL     OW22537   1.087   0.877   5.243 -0.7694 -0.3390 -0.0336
39680SOL    HW122538   1.155   0.816   5.270 -0.7682 -0.3531 -0.0684
39680SOL    HW222539   1.008   0.846   5.288 -0.7932 -0.4337 -0.1417
39681SOL     OW22540   5.826   5.041   6.298  0.3153  0.2755  0.0969
39681SOL    HW122541   5.825   4.974   6.229 -0.9824 -1.4065  1.6730
39681SOL    HW222542   5.734   5.052   6.323  0.6223  1.8477  0.6708
39682SOL     OW22543   9.965  10.213   0.493 -0.0927  0.8649  0.1872
39682SOL    HW122544   9.879  10.170   0.487  0.1653  0.5253 -1.4197
39682SOL    HW222545   9.951  10.285   0.554 -1.4193  0.5563  0.2781
39683SOL     OW22546   5.927   7.342   6.472  0.1789 -0.9469  0.4625
39683SOL    HW122547   5.953   7.423   6.428  0.7106 -1.4737 -0.2143
39683SOL    HW222548   5.839   7.325   6.441  1.1749 -2.2809 -1.9099
39684SOL     OW22549   6.191   3.742   4.957  0.3120  0.0257  0.1911
39684SOL    HW122550   6.182   3.647   4.965 -0.3547 -0.1332 -1.6915
39684SOL    HW222551   6.267   3.764   5.011 -0.7954 -1.2478  2.3856
39685SOL     OW22552   0.330   8.180   7.090 -0.2514 -0.0461  0.0450
39685SOL    HW122553   0.337   8.100   7.143 -0.8946  0.5148  1.0070
39685SOL    HW222554   0.245   8.171   7.046 -0.3325  0.1170  0.1692
39686SOL     OW22555   1.474  10.361   0.664  0.6411  0.2857 -0.6885
39686SOL    HW122556   1.463  10.413   0.744  1.0738 -1.1157  0.3142
39686SOL    HW222557   1.515  10.280   0.693  0.7993 -0.2670 -2.3463
39687SOL     OW22558  10.590   8.083  10.789 -0.0970 -0.5342 -0.4204
39687SOL    HW122559  10.656   8.037  10.737  1.0318  0.9948 -0.4015
39687SOL    HW222560  10.512   8.084  10.733  0.3150 -1.1341 -1.0211
39688SOL     OW22561   5.703  10.546   3.981 -0.7875 -0.6098 -0.0101
39688SOL    HW122562   5.777  10.485   3.974 -0.9058 -0.7115 -0.4068
39688SOL    HW222563   5.724  10.600   4.057 -0.4983 -0.9003  0.1207
39689SOL     OW22564  10.169   7.680  10.887  0.0778  0.5609 -0.8832
39689SOL    HW122565  10.230   7.734  10.938  2.0287 -2.1404 -0.0865
39689SOL    HW222566  10.098   7.660  10.949  0.8714 -0.1663 -0.1701
39690SOL     OW22567   8.335   0.069   5.984  0.0650 -0.6292 -0.4688
39690SOL    HW122568   8.298   0.067   5.896 -1.0368  1.2116 -0.0904
39690SOL    HW222569   8.412   0.124   5.977  0.3762 -1.0514 -0.4099
39691SOL     OW22570   0.608   9.728   1.749  0.1703  0.0132 -0.0063
39691SOL    HW122571   0.563   9.756   1.828 -0.3693 -1.0060  0.0706
39691SOL    HW222572   0.695   9.768   1.754 -0.1415  0.6189  0.6837
39692SOL     OW22573   4.102   8.682   5.265  0.6366  0.2971 -0.2109
39692SOL    HW122574   4.061   8.628   5.196  2.8686 -0.8034 -0.7905
39692SOL    HW222575   4.110   8.622   5.339  1.3288  0.4270 -0.1777
39693SOL     OW22576   7.237   6.602   1.526 -0.3124 -0.3260  0.3145
39693SOL    HW122577   7.262   6.579   1.616 -1.0055  0.6286  0.7707
39693SOL    HW222578   7.149   6.566   1.515  0.2725 -1.5989 -0.4641
39694SOL     OW22579   0.191   4.952   3.716 -0.4494 -0.1823 -0.0637
39694SOL    HW122580   0.148   4.977   3.635 -0.4343  1.4552  0.4037
39694SOL    HW222581   0.276   4.996   3.713 -0.4833 -0.0327  0.8732
39695SOL     OW22582   6.283   4.708   8.893  0.4613 -0.5398 -0.5621
39695SOL    HW122583   6.374   4.700   8.921  0.3904 -1.4054 -0.5447
39695SOL    HW222584   6.282   4.783   8.833  0.8384  0.6159  0.8178
39696SOL     OW22585  10.674   2.894   0.570  0.2898  0.7385 -1.2205
39696SOL    HW122586  10.671   2.990   0.568 -0.5225  0.7197 -1.3879
39696SOL    HW222587  10.681   2.869   0.478  0.5243  0.6342 -1.1746
39697SOL     OW22588   9.570   3.467  10.140 -0.1752 -0.0772 -0.4848
39697SOL    HW122589   9.548   3.558  10.159  2.0741  0.6211 -0.8428
39697SOL    HW222590   9.552   3.420  10.222  3.4674  1.7151  1.6000
39698SOL     OW22591   3.488   8.068   1.937  0.3446 -0.8592 -0.3564
39698SOL    HW122592   3.487   8.045   1.844 -0.9958 -1.2550 -0.2793
39698SOL    HW222593   3.547   8.004   1.977  3.6381  1.3339 -1.3230
39699SOL     OW22594   3.896   4.783   3.536  0.3492  0.1070 -0.2224
39699SOL    HW122595   3.901   4.850   3.604  1.0514 -1.5564  1.4746
39699SOL    HW222596   3.803   4.768   3.524  0.0580  2.6999 -2.1127
39700SOL     OW22597   5.152   4.619  10.569 -0.0553  0.4181  0.3408
39700SOL    HW122598   5.193   4.655  10.490  0.3241 -0.7105  0.0131
39700SOL    HW222599   5.061   4.647  10.564 -0.8329 -2.1032 -2.0737
39701SOL     OW22600   2.323   5.046  10.824  0.0959  0.4549 -0.1952
39701SOL    HW122601   2.332   5.017  10.915 -2.0932 -3.2819 -0.9759
39701SOL    HW222602   2.241   5.097  10.823 -0.0045  0.2954 -0.1099
39702SOL     OW22603   0.498   6.647  10.494  0.2406  0.8102  0.1406
39702SOL    HW122604   0.590   6.656  10.466  0.4458 -1.7839 -0.3165
39702SOL    HW222605   0.460   6.733  10.478  2.2514  1.5740 -1.0110
39703SOL     OW22606   2.820   4.879   8.470 -0.4648  0.1402 -0.0958
39703SOL    HW122607   2.749   4.912   8.416 -0.1112 -0.8507 -1.2043
39703SOL    HW222608   2.814   4.784   8.464  0.0316  0.0122  1.0401
39704SOL     OW22609  10.754   7.267   6.319 -0.3739 -0.3544  0.2084
39704SOL    HW122610  10.753   7.176   6.348  0.2786 -0.4449 -0.0439
39704SOL    HW222611  10.827   7.272   6.258 -0.1107  0.4505  0.5778
39705SOL     OW22612   2.454   5.193   5.481  0.2335 -0.3384 -0.0780
39705SOL    HW122613   2.456   5.142   5.400  0.0461  1.4891 -1.2898
39705SOL    HW222614   2.542   5.229   5.489  0.6349 -1.4968  1.2581
39706SOL     OW22615   0.347   8.728   9.379 -0.1592 -0.1123 -0.3227
39706SOL    HW122616   0.441   8.713   9.378 -0.2516 -0.8519  0.7246
39706SOL    HW222617   0.308   8.640   9.376 -0.8335  0.1970 -1.2475
39707SOL     OW22618   5.344   8.403  10.721  0.5080  0.3706  0.4184
39707SOL    HW122619   5.320   8.398  10.813 -1.0067  1.5551  0.1185
39707SOL    HW222620   5.364   8.495  10.705 -0.4271  0.4089 -0.7030
39708SOL     OW22621   4.657   0.325   5.649 -0.3846  0.7135 -0.1863
39708SOL    HW122622   4.735   0.278   5.676 -0.6121  0.2037 -0.4108
39708SOL    HW222623   4.671   0.343   5.556 -0.5248  0.6468 -0.2198
39709SOL     OW22624   2.765   0.465   5.066  0.3673  0.1102 -0.6753
39709SOL    HW122625   2.850   0.486   5.105  0.2149  1.6885 -1.1294
39709SOL    HW222626   2.727   0.550   5.043 -1.7524 -0.4704  0.3668
39710SOL     OW22627   9.683   5.561   5.844  0.5688  0.3976  0.1527
39710SOL    HW122628   9.666   5.603   5.759  1.6892 -1.6208 -1.1760
39710SOL    HW222629   9.773   5.585   5.865  0.9134 -0.5727 -0.1738
39711SOL     OW22630  10.686  10.289   1.378  0.3314 -0.0068  0.0065
39711SOL    HW122631  10.753  10.231   1.415  0.0585  0.2060  0.8712
39711SOL    HW222632  10.732  10.371   1.361  0.5461 -0.2302 -0.4823
39712SOL     OW22633   7.887   7.678   3.520  0.4518 -0.1350  0.5839
39712SOL    HW122634   7.855   7.660   3.432  1.1751  0.7311  0.1149
39712SOL    HW222635   7.832   7.750   3.551  1.4978  0.9516  0.0100
39713SOL     OW22636   6.029   8.380   7.519 -0.2644 -0.2308  0.2268
39713SOL    HW122637   6.059   8.329   7.595 -0.4664 -0.8284 -0.0844
39713SOL    HW222638   5.963   8.324   7.477 -2.3611  1.3262  1.2777
39714SOL     OW22639   9.324   1.488   6.086 -0.3996 -0.1368  0.7635
39714SOL    HW122640   9.417   1.498   6.066 -0.8794 -0.5912 -2.2103
39714SOL    HW222641   9.322   1.449   6.173  2.0952  1.7041  1.7468
39715SOL     OW22642   0.447  10.649   9.398 -0.2095 -0.2003 -0.1210
39715SOL    HW122643   0.502  10.726   9.389 -0.2582 -0.1057  0.3525
39715SOL    HW222644   0.369  10.681   9.444 -0.3909 -0.4574 -0.2469
39716SOL     OW22645   7.337   3.583   3.949 -0.3272 -0.3930  0.0763
39716SOL    HW122646   7.393   3.659   3.966  2.5719 -2.3846  0.1837
39716SOL    HW222647   7.394   3.522   3.903 -2.5605 -2.4973 -0.0577
39717SOL     OW22648   8.666   9.501   7.382  0.0080 -0.6524  0.0534
39717SOL    HW122649   8.693   9.430   7.324  0.6426  0.5820 -1.2294
39717SOL    HW222650   8.719   9.576   7.354 -0.9487  0.4405  1.0749
39718SOL     OW22651   1.913   1.950   1.426 -0.4145 -0.5042 -0.7329
39718SOL    HW122652   1.900   1.957   1.520  0.2599 -0.2501 -0.6565
39718SOL    HW222653   1.880   1.863   1.404  1.2613 -1.3815  0.0691
39719SOL     OW22654   4.198   6.932   4.863  0.6581  0.4509  0.2383
39719SOL    HW122655   4.292   6.920   4.879  0.8042  0.0664 -0.8434
39719SOL    HW222656   4.156   6.861   4.912  0.9151  0.6844  0.8081
39720SOL     OW22657  10.944   2.130   2.869 -0.2369  0.0301  0.0309
39720SOL    HW122658  10.861   2.177   2.876 -1.3010 -1.5015 -1.2838
39720SOL    HW222659  10.987   2.167   2.792 -1.5573 -1.6987 -1.6423
39721SOL     OW22660   4.764   8.117  10.890  0.3729 -0.1149  0.1539
39721SOL    HW122661   4.674   8.145  10.908  0.8409  1.4694  0.1611
39721SOL    HW222662   4.789   8.166  10.811  0.6733 -1.8234 -0.8665
39722SOL     OW22663   3.085   7.874   8.073  0.1799 -0.6132 -0.7166
39722SOL    HW122664   3.117   7.965   8.078 -0.1487 -0.4862 -0.9119
39722SOL    HW222665   3.126   7.831   8.147  1.2784 -0.6008 -1.3018
39723SOL     OW22666   4.483   9.762   8.925 -0.1310 -0.4218  0.6723
39723SOL    HW122667   4.493   9.667   8.939  1.8343 -0.4801 -0.5833
39723SOL    HW222668   4.570   9.797   8.944 -0.7049  1.0758  0.6112
39724SOL     OW22669   2.655   0.425   7.117  0.0302 -0.0703  0.2654
39724SOL    HW122670   2.748   0.433   7.135  0.2011  0.3307 -0.7473
39724SOL    HW222671   2.639   0.331   7.113  0.2488 -0.1526  1.0770
39725SOL     OW22672   1.743   3.223   9.705  0.8095  0.4837  0.2194
39725SOL    HW122673   1.822   3.186   9.665  0.3076 -1.4643  0.9613
39725SOL    HW222674   1.672   3.201   9.645  0.0431 -2.4875  2.0153
39726SOL     OW22675   9.066   8.967   1.152  0.0526 -0.0742  0.2243
39726SOL    HW122676   9.157   8.957   1.123  0.1604  2.4344 -0.5557
39726SOL    HW222677   9.060   9.059   1.180 -2.8115  0.5069 -1.8930
39727SOL     OW22678   9.037   7.356  10.590  0.3348  0.3188 -0.1659
39727SOL    HW122679   9.096   7.350  10.515 -0.7843  1.8847 -1.2467
39727SOL    HW222680   9.038   7.269  10.630  0.5895 -0.6900 -2.2829
39728SOL     OW22681   9.097   2.015   0.476  0.2741 -0.2640  0.1074
39728SOL    HW122682   9.092   1.960   0.398  0.5513 -0.0356 -0.0755
39728SOL    HW222683   9.176   2.069   0.462 -1.3879  2.0655 -0.9420
39729SOL     OW22684   4.752   3.493   2.112  0.2546  0.1196  0.4825
39729SOL    HW122685   4.705   3.420   2.153 -1.1643 -0.2147 -1.6189
39729SOL    HW222686   4.714   3.571   2.153 -0.5109 -0.2246  0.4470
39730SOL     OW22687   1.525   7.244   5.006 -0.2862 -0.1700  0.6645
39730SOL    HW122688   1.560   7.155   5.006  0.3094  0.0272 -1.3129
39730SOL    HW222689   1.599   7.299   5.031 -0.1210 -0.0622 -0.0537
39731SOL     OW22690   9.679   5.462  10.402 -0.0500  0.3904  0.0601
39731SOL    HW122691   9.621   5.507  10.340 -1.5353 -0.6505  0.6297
39731SOL    HW222692   9.645   5.485  10.488  0.9134  0.4187  0.4411
39732SOL     OW22693   3.929   4.006   4.722  0.0714 -0.2051 -0.3721
39732SOL    HW122694   3.855   4.049   4.765  0.2380  0.2927 -0.5812
39732SOL    HW222695   3.943   4.056   4.642  1.6669  0.6979  0.4263
39733SOL     OW22696   7.518   1.639   1.956 -0.1930 -0.2526 -1.0920
39733SOL    HW122697   7.477   1.666   2.038 -0.1769  2.1252 -1.7940
39733SOL    HW222698   7.470   1.686   1.888  0.8348 -0.8946 -2.3125
39734SOL     OW22699  10.558   5.284   8.146  0.4426  0.1188  0.9835
39734SOL    HW122700  10.576   5.321   8.060 -0.7303  0.4352  0.8535
39734SOL    HW222701  10.636   5.233   8.167  0.7993  0.1328 -0.2132
39735SOL     OW22702  10.881   5.524   0.751 -0.4909  0.7163  0.1736
39735SOL    HW122703  10.850   5.434   0.739  0.1985  0.5142 -0.1235
39735SOL    HW222704  10.940   5.539   0.677 -0.4352  1.3453  0.3389
39736SOL     OW22705   5.919   1.104   7.629  0.3608  0.0654  0.3490
39736SOL    HW122706   5.962   1.138   7.551 -1.1940  0.5832 -0.3265
39736SOL    HW222707   5.970   1.027   7.653  1.5618  0.5735 -0.4633
39737SOL     OW22708   7.515  10.946   7.388 -0.1169 -0.2816 -0.0207
39737SOL    HW122709   7.594  10.927   7.438 -1.0543  0.3058  1.7959
39737SOL    HW222710   7.471  10.861   7.379 -1.6049 -0.0014  3.2706
39738SOL     OW22711   5.579   0.589   4.299 -0.0853  0.0947  0.4893
39738SOL    HW122712   5.654   0.642   4.273  0.7067  0.0454  2.5631
39738SOL    HW222713   5.585   0.511   4.243  1.6360 -0.0901  0.8802
39739SOL     OW22714   9.534   1.133   0.687  0.2403 -0.0421 -0.2450
39739SOL    HW122715   9.557   1.211   0.736 -0.2827 -0.9982  1.6010
39739SOL    HW222716   9.438   1.130   0.689  0.2088 -2.7006  3.1822
39740SOL     OW22717  10.953   1.741   0.041  0.1796 -0.1610 -0.0310
39740SOL    HW122718  11.035   1.692   0.029 -0.2488 -0.6159 -1.2456
39740SOL    HW222719  10.896   1.681   0.089  0.9958  0.6728  2.0850
39741SOL     OW22720   3.672   8.024   8.596  0.3580 -0.3732 -0.3747
39741SOL    HW122721   3.585   7.985   8.606  0.3095 -0.4362 -1.0037
39741SOL    HW222722   3.659   8.117   8.611 -0.1430 -0.1330 -2.1207
39742SOL     OW22723   4.914   5.010   3.214 -1.0177 -0.2513 -0.4097
39742SOL    HW122724   4.987   4.968   3.259  1.1352  0.8284 -2.6635
39742SOL    HW222725   4.896   5.088   3.266 -1.1775 -0.9661  0.6395
39743SOL     OW22726   2.062   3.215   7.834  0.3477 -0.0690 -0.0947
39743SOL    HW122727   1.985   3.219   7.777 -0.5917  0.7213  1.1717
39743SOL    HW222728   2.098   3.303   7.834  1.7868 -0.6077 -1.3124
39744SOL     OW22729  10.589   7.046   5.299  0.3161  0.7752  0.1189
39744SOL    HW122730  10.617   6.989   5.371  0.6531  0.6063 -0.1416
39744SOL    HW222731  10.627   7.006   5.221  0.5212  1.3345 -0.0702
39745SOL     OW22732   9.685  10.690   5.491 -0.0290  0.1380 -0.2237
39745SOL    HW122733   9.768  10.711   5.448  0.7730  0.8798  1.5724
39745SOL    HW222734   9.704  10.611   5.542 -0.5396  0.0945 -0.0974
39746SOL     OW22735   0.543   7.907   6.238  0.0226  0.2372 -0.4903
39746SOL    HW122736   0.483   7.952   6.297 -1.2896 -0.0573 -1.5384
39746SOL    HW222737   0.620   7.964   6.234 -0.8285  1.4459 -0.3119
39747SOL     OW22738   0.036   4.181   5.084  0.3089 -0.4364  0.4259
39747SOL    HW122739   0.087   4.164   5.162  0.8915  0.9648  0.3753
39747SOL    HW222740  -0.014   4.100   5.070 -0.1358 -0.5831  2.4695
39748SOL     OW22741  10.221   3.903   4.285 -0.2929 -0.8314  0.2281
39748SOL    HW122742  10.147   3.844   4.295 -0.6261 -0.5030 -0.2915
39748SOL    HW222743  10.195   3.963   4.215  1.0276 -1.6212 -1.0161
39749SOL     OW22744   4.212   1.351  10.218 -0.2542  0.0376  0.2032
39749SOL    HW122745   4.134   1.370  10.166 -0.6261 -0.3021  0.6324
39749SOL    HW222746   4.274   1.419  10.193 -0.4963 -0.0074 -0.5426
39750SOL     OW22747   8.670   9.705   5.944  0.4848  0.3336  0.0684
39750SOL    HW122748   8.597   9.762   5.921 -0.8381 -1.4934 -0.4538
39750SOL    HW222749   8.722   9.699   5.864 -0.8851 -1.3072 -0.7648
39751SOL     OW22750   6.791  10.522   5.591 -0.4655 -0.1671 -0.1278
39751SOL    HW122751   6.705  10.548   5.625 -0.7424 -0.7978 -0.3268
39751SOL    HW222752   6.799  10.430   5.614  1.7011  0.6537  3.0657
39752SOL     OW22753   7.592   7.730   7.326  0.3235 -0.4104  0.0723
39752SOL    HW122754   7.622   7.816   7.298 -0.5586 -0.0622  0.1622
39752SOL    HW222755   7.535   7.700   7.255  1.1585 -1.2343 -0.2803
39753SOL     OW22756   3.168   7.295   4.599 -0.0958 -0.0176  0.0296
39753SOL    HW122757   3.097   7.280   4.537 -0.0706  0.4244 -0.1077
39753SOL    HW222758   3.142   7.246   4.677  0.1572 -1.0609 -0.5283
39754SOL     OW22759   5.071   4.523   4.319 -0.7086  0.4727  0.6656
39754SOL    HW122760   5.094   4.529   4.412 -0.3904  0.2268  0.6060
39754SOL    HW222761   4.993   4.578   4.309 -0.0670  1.4338  0.8489
39755SOL     OW22762  10.136  10.236   0.263  0.0115 -0.5794  0.3148
39755SOL    HW122763  10.091  10.258   0.345  0.9024  0.8021  0.4733
39755SOL    HW222764  10.229  10.251   0.282  0.0955  1.7183 -1.4820
39756SOL     OW22765   2.683   3.131   3.423  0.0687  0.3535 -0.5496
39756SOL    HW122766   2.648   3.216   3.396  0.2725  0.3675 -0.7791
39756SOL    HW222767   2.607   3.080   3.450  0.0570  1.0014  0.7167
39757SOL     OW22768   7.522   5.708   5.757  0.1264  0.2757  0.0239
39757SOL    HW122769   7.536   5.723   5.850  1.3076 -0.6784  0.0311
39757SOL    HW222770   7.480   5.622   5.753  0.5482  0.0774 -0.3290
39758SOL     OW22771   2.693   7.731   9.381  0.3733 -0.5500  0.2014
39758SOL    HW122772   2.785   7.748   9.361  1.2478 -1.9418  2.5352
39758SOL    HW222773   2.649   7.728   9.296  2.3753  0.5602 -0.9501
39759SOL     OW22774   6.104   1.878   0.624 -0.2875  0.0642 -0.5164
39759SOL    HW122775   6.056   1.893   0.543  0.4345 -0.2954 -1.0278
39759SOL    HW222776   6.092   1.785   0.643  0.6086 -0.1470 -0.9282
39760SOL     OW22777  10.947   9.024  10.591 -1.0022 -0.5076  0.0126
39760SOL    HW122778  10.883   9.068  10.647 -1.6568 -0.0946 -1.0369
39760SOL    HW222779  11.032   9.051  10.626 -1.3953  0.9883 -0.1283
39761SOL     OW22780   3.494   9.641  10.300  0.3310  0.1338 -0.0513
39761SOL    HW122781   3.439   9.586  10.355  1.3397 -0.6039  0.2506
39761SOL    HW222782   3.558   9.678  10.360  0.6944  0.2995 -0.5326
39762SOL     OW22783   9.618   6.751   8.621 -0.5777 -0.0489 -0.2027
39762SOL    HW122784   9.580   6.755   8.533 -0.5504 -0.7814 -0.2530
39762SOL    HW222785   9.553   6.703   8.672 -1.3595  1.7455  0.5922
39763SOL     OW22786   2.225   1.270   1.514 -0.4892 -0.0620  0.1178
39763SOL    HW122787   2.289   1.223   1.567  2.4096 -0.1510 -3.0849
39763SOL    HW222788   2.147   1.214   1.515  1.2418 -2.6278  0.1619
39764SOL     OW22789   7.358   6.015   7.184 -0.0962 -0.4422 -0.4373
39764SOL    HW122790   7.276   6.034   7.228 -0.2312  0.6949 -1.1276
39764SOL    HW222791   7.384   5.929   7.216 -0.9852 -0.3280  0.6306
39765SOL     OW22792   9.138   8.785   7.051  0.2965 -0.6206  0.1832
39765SOL    HW122793   9.101   8.705   7.013 -0.4918 -0.6724  1.0075
39765SOL    HW222794   9.076   8.809   7.120  0.3876  0.8487 -0.2122
39766SOL     OW22795   7.240  10.967   9.680  0.3406 -0.0272 -0.0725
39766SOL    HW122796   7.305  10.948   9.746  0.7708  2.5708  0.3531
39766SOL    HW222797   7.174  11.021   9.725 -0.6784 -0.3284 -1.1439
39767SOL     OW22798   5.491   1.142   9.391  0.0066  0.0661 -0.2714
39767SOL    HW122799   5.546   1.130   9.314  0.2296 -0.8553  0.0194
39767SOL    HW222800   5.504   1.063   9.443 -0.5096  0.4602  0.4864
39768SOL     OW22801   7.477   1.162   5.767  0.5235 -0.2240  0.1793
39768SOL    HW122802   7.395   1.137   5.724  0.6965 -1.1343  0.3632
39768SOL    HW222803   7.459   1.247   5.806 -1.0881 -1.3886  2.1900
39769SOL     OW22804   5.211   4.469   5.178 -1.0823  0.3886  0.4241
39769SOL    HW122805   5.231   4.498   5.267  0.9154  1.0659 -0.1877
39769SOL    HW222806   5.163   4.387   5.190  0.4191 -0.3285  2.1410
39770SOL     OW22807  10.436   4.584   4.107 -0.1800 -0.2935 -0.1266
39770SOL    HW122808  10.371   4.646   4.076  0.2808  0.0038 -0.5140
39770SOL    HW222809  10.513   4.600   4.052  0.6017  0.1351  1.0418
39771SOL     OW22810   9.674   9.910   7.057  0.2330 -0.1858 -0.0282
39771SOL    HW122811   9.606   9.974   7.035  0.7706  0.6037  0.5702
39771SOL    HW222812   9.626   9.840   7.103 -0.2338  0.1615  0.0216
39772SOL     OW22813  10.984   7.945   6.059  0.0248  0.5423 -1.0316
39772SOL    HW122814  11.011   8.002   6.131  0.8914 -1.7436  0.5383
39772SOL    HW222815  10.892   7.927   6.077  0.4417 -0.6513 -0.0174
39773SOL     OW22816  10.230   3.777   2.785 -0.0783  0.0313 -0.2017
39773SOL    HW122817  10.201   3.767   2.694 -0.4631  3.6101 -0.6027
39773SOL    HW222818  10.325   3.784   2.780  0.4775 -4.3761  0.3335
39774SOL     OW22819   1.085   5.264   0.106 -0.2551  0.2106  0.6326
39774SOL    HW122820   1.103   5.214   0.185  0.3442 -0.0709  0.3291
39774SOL    HW222821   1.086   5.199   0.036 -0.1607  0.5419  0.3222
39775SOL     OW22822  10.920   9.687   0.786  0.1583  0.3170 -0.1629
39775SOL    HW122823  11.000   9.714   0.742  1.5129 -0.2162  1.8366
39775SOL    HW222824  10.889   9.612   0.735  0.5351  0.9245 -1.3394
39776SOL     OW22825   4.634   6.174   5.801 -0.2751 -0.0995 -0.6541
39776SOL    HW122826   4.612   6.091   5.760  0.0226 -1.7207  2.2076
39776SOL    HW222827   4.659   6.151   5.891  1.9100  2.8554 -0.3364
39777SOL     OW22828   7.471   1.538   0.350  0.9884  0.1136 -0.3349
39777SOL    HW122829   7.493   1.559   0.259 -4.0441 -0.6425 -2.0033
39777SOL    HW222830   7.455   1.623   0.391  3.9959  0.5116  0.2418
39778SOL     OW22831   3.422   2.015   5.242 -0.0134  0.2496  0.5783
39778SOL    HW122832   3.461   2.085   5.294 -0.2621 -1.0721  2.6259
39778SOL    HW222833   3.455   1.934   5.281 -0.1167 -0.8178 -1.4210
39779SOL     OW22834   1.291   3.757   5.424 -0.5357 -0.4721 -0.4069
39779SOL    HW122835   1.230   3.823   5.458 -1.6106 -2.0486  0.8375
39779SOL    HW222836   1.238   3.703   5.365  0.6148  0.4004 -2.3760
39780SOL     OW22837   2.861   2.876  10.609  0.2457 -0.4768  0.4868
39780SOL    HW122838   2.801   2.883  10.684 -0.6846  0.4606 -0.3146
39780SOL    HW222839   2.868   2.965  10.575  2.3631 -0.5087  0.7296
39781SOL     OW22840   1.274   9.892   1.759 -0.1410 -0.5332 -0.5994
39781SOL    HW122841   1.312   9.943   1.688  0.6126 -2.3858 -1.5780
39781SOL    HW222842   1.336   9.821   1.775  0.1655  0.2866  2.5492
39782SOL     OW22843   0.216   6.922   3.854 -0.2136 -1.1705 -0.2625
39782SOL    HW122844   0.169   7.000   3.882  1.5297 -0.0734 -0.2407
39782SOL    HW222845   0.164   6.888   3.780 -2.1907 -1.3142  1.1205
39783SOL     OW22846   3.986   9.728   7.201  0.1814  0.0991 -0.6156
39783SOL    HW122847   4.003   9.786   7.127 -0.7061  0.2769 -0.6891
39783SOL    HW222848   3.929   9.780   7.259  0.2328 -0.3198 -0.1867
39784SOL     OW22849   4.075   3.950  10.632 -0.3066 -0.0568  0.5285
39784SOL    HW122850   4.074   3.855  10.645  0.4460 -0.3137 -1.0516
39784SOL    HW222851   4.147   3.981  10.687 -2.0232 -0.0559  2.8820
39785SOL     OW22852   3.408   6.644   0.343 -0.0020  0.2046  0.1757
39785SOL    HW122853   3.412   6.691   0.259  1.3337 -0.0036  0.0944
39785SOL    HW222854   3.488   6.670   0.389  0.1674 -1.0333  0.6337
39786SOL     OW22855   4.015   7.201   0.316  0.5303 -0.0023 -0.1796
39786SOL    HW122856   4.094   7.237   0.275  0.5734 -0.2339 -0.3071
39786SOL    HW222857   3.950   7.199   0.245  1.3223 -2.6992 -0.9533
39787SOL     OW22858   1.403   8.763   8.758  0.0096 -0.0018  0.3243
39787SOL    HW122859   1.363   8.677   8.745  1.1738 -1.0435  2.9363
39787SOL    HW222860   1.423   8.793   8.669 -2.5031 -1.3411 -0.8020
39788SOL     OW22861   0.618   7.138   1.985  0.7811  0.6047 -0.2806
39788SOL    HW122862   0.547   7.076   2.005 -2.0552  3.4622 -0.7561
39788SOL    HW222863   0.611   7.154   1.891  1.4329  1.6260 -0.1729
39789SOL     OW22864  10.402  10.577   4.333  0.0163 -0.1126  0.6392
39789SOL    HW122865  10.487  10.592   4.292 -0.1931 -2.1507 -0.6697
39789SOL    HW222866  10.420  10.517   4.405 -0.3231 -0.8393  0.1379
39790SOL     OW22867   5.602   8.471   3.209 -0.2161  0.0277  0.1435
39790SOL    HW122868   5.545   8.479   3.285  0.2590 -3.5531  1.0892
39790SOL    HW222869   5.578   8.387   3.170  1.2045  0.6377 -2.2746
39791SOL     OW22870   6.640   7.839   9.646 -0.5140  0.1535 -0.4115
39791SOL    HW122871   6.683   7.911   9.691 -0.8115  1.3858 -2.0047
39791SOL    HW222872   6.605   7.784   9.716 -2.2374  2.7203  0.8894
39792SOL     OW22873   5.852   8.256   9.980  0.2314  0.1356 -0.5458
39792SOL    HW122874   5.927   8.212   9.940 -0.3182 -0.8468 -0.5286
39792SOL    HW222875   5.885   8.342  10.006  0.8544  0.4364 -2.2346
39793SOL     OW22876   1.259   7.824   0.608  0.3750  0.1467 -0.4298
39793SOL    HW122877   1.260   7.853   0.517  2.3879  1.0518 -0.1775
39793SOL    HW222878   1.338   7.862   0.646 -1.2734  1.2851  2.1715
39794SOL     OW22879   4.347   4.098   1.375 -0.4757  0.4000 -0.2903
39794SOL    HW122880   4.327   4.006   1.388  0.9969  0.0293 -0.4671
39794SOL    HW222881   4.329   4.114   1.282 -0.9717  0.3602 -0.2017
39795SOL     OW22882   0.873   6.855   0.536  0.3810 -0.4209 -0.6640
39795SOL    HW122883   0.892   6.865   0.443  1.0507  0.6668 -0.4203
39795SOL    HW222884   0.954   6.824   0.575  0.4294  0.1493 -0.2871
39796SOL     OW22885   2.849   8.275   9.010 -0.0177  0.0491 -0.1213
39796SOL    HW122886   2.895   8.288   9.093 -0.5275 -1.8068  0.5020
39796SOL    HW222887   2.919   8.255   8.947  0.2170 -0.7302  0.3673
39797SOL     OW22888   5.217   7.994   4.225  0.3448 -0.2244  0.3262
39797SOL    HW122889   5.208   8.080   4.183 -2.9444 -1.2448 -1.3891
39797SOL    HW222890   5.200   7.931   4.155 -0.7600 -2.1853  2.2386
39798SOL     OW22891  10.254   0.899   1.441 -0.4212 -0.1996 -0.2469
39798SOL    HW122892  10.300   0.940   1.514  0.0921  0.1788 -0.7771
39798SOL    HW222893  10.220   0.973   1.390  0.9261 -0.3989 -1.4740
39799SOL     OW22894   3.599   9.170   6.989  0.0518  0.2452  0.0523
39799SOL    HW122895   3.528   9.114   7.019  1.1926 -0.7585  1.0342
39799SOL    HW222896   3.600   9.244   7.051 -0.1387  0.2605  0.0347
39800SOL     OW22897  10.014   3.269   3.917  0.8129  0.1310 -0.7188
39800SOL    HW122898   9.991   3.359   3.936  2.2271  0.3210  0.2398
39800SOL    HW222899   9.951   3.217   3.965 -0.4395  0.5726 -1.8232
39801SOL     OW22900   6.646   4.765   1.170 -0.0489 -0.0054 -0.5547
39801SOL    HW122901   6.590   4.801   1.101  0.1341 -0.2956 -0.8628
39801SOL    HW222902   6.698   4.839   1.201  0.3451 -0.0086 -1.1981
39802SOL     OW22903   3.283   5.859   4.463 -0.0671 -0.4831  0.3763
39802SOL    HW122904   3.354   5.874   4.524  1.0186 -1.3655 -0.6316
39802SOL    HW222905   3.238   5.782   4.497  0.5140 -0.9537  0.0890
39803SOL     OW22906   8.319   3.605   3.129  0.2223 -0.5087  0.1452
39803SOL    HW122907   8.263   3.591   3.206 -0.5698 -2.7982 -0.7348
39803SOL    HW222908   8.352   3.517   3.108  1.0390  0.1862 -1.6586
39804SOL     OW22909   2.093   9.163   9.302 -0.5764 -0.2814  0.4415
39804SOL    HW122910   2.057   9.237   9.253 -1.7282 -0.9099  0.2951
39804SOL    HW222911   2.087   9.190   9.394 -1.7860 -0.5038  0.4458
39805SOL     OW22912   3.582   9.333   5.968 -0.3394 -0.1179  0.2704
39805SOL    HW122913   3.528   9.392   6.021  0.5164 -0.6058  1.7392
39805SOL    HW222914   3.630   9.392   5.910 -0.7431  0.5032  0.5503
39806SOL     OW22915   7.095  10.540  10.460 -0.1668 -0.1183 -0.4640
39806SOL    HW122916   7.158  10.603  10.425 -0.8977  0.4804 -0.7582
39806SOL    HW222917   7.143  10.458  10.467  0.5313  0.2320 -1.0291
39807SOL     OW22918   6.588   1.674   2.558 -0.2761 -0.5482  0.1246
39807SOL    HW122919   6.665   1.698   2.506  0.9893  0.2580  2.2504
39807SOL    HW222920   6.534   1.752   2.559  0.7341  0.1781  1.7081
39808SOL     OW22921  10.986  10.844   1.320  0.0326 -0.2139  0.1789
39808SOL    HW122922  10.953  10.789   1.250  0.1571 -1.0865  0.7802
39808SOL    HW222923  11.051  10.789   1.364  2.5454  1.5040 -1.1313
39809SOL     OW22924  10.146   7.674   6.062  0.1762  0.3243  0.2911
39809SOL    HW122925  10.069   7.682   6.118 -0.6703  0.8902 -0.8873
39809SOL    HW222926  10.183   7.589   6.083 -0.3445  0.3613  1.4105
39810SOL     OW22927   6.775   2.406   6.602  0.3955  0.0435  0.8417
39810SOL    HW122928   6.861   2.382   6.566 -0.4941 -1.5118 -0.3523
39810SOL    HW222929   6.726   2.440   6.528 -0.5428 -0.6013  1.1415
39811SOL     OW22930   4.481   6.992   3.386  0.3413  0.3225  0.3132
39811SOL    HW122931   4.425   6.957   3.456 -0.3660  1.2482  0.2313
39811SOL    HW222932   4.539   6.920   3.364 -0.8898 -0.7212  0.3434
39812SOL     OW22933   7.692   2.345   9.997 -0.1759  0.7717 -0.3781
39812SOL    HW122934   7.771   2.291   9.989 -0.0485  1.0199 -0.8110
39812SOL    HW222935   7.647   2.334   9.913 -0.6889  0.4979 -0.0743
39813SOL     OW22936   6.336   4.527  10.394 -0.0016  0.1357 -0.3588
39813SOL    HW122937   6.369   4.472  10.323  0.7088  0.1033 -0.0132
39813SOL    HW222938   6.359   4.616  10.368 -2.8539  0.5430 -1.8658
39814SOL     OW22939  10.509   1.277   8.350  0.2879 -0.3807 -0.7348
39814SOL    HW122940  10.518   1.342   8.281  0.7369 -0.3284 -0.6295
39814SOL    HW222941  10.599   1.259   8.379  0.0751 -0.0210  0.1891
39815SOL     OW22942   4.529   0.581   0.851  0.1173  0.5722  0.7693
39815SOL    HW122943   4.455   0.631   0.817 -0.4789  1.4093  3.0991
39815SOL    HW222944   4.491   0.524   0.918  1.3637 -0.1071  0.9329
39816SOL     OW22945   6.867   8.532  10.768  0.5834 -0.7331 -0.3461
39816SOL    HW122946   6.802   8.551  10.699  0.4923  0.5485  0.0767
39816SOL    HW222947   6.849   8.441  10.793 -0.9787 -0.4407 -0.3246
39817SOL     OW22948   1.251   4.014   2.693  0.1301  0.2369 -0.2892
39817SOL    HW122949   1.282   4.103   2.710 -1.3141  0.7299 -0.0807
39817SOL    HW222950   1.255   4.004   2.598 -0.1187  0.6915 -0.3485
39818SOL     OW22951   4.057   3.951   4.964 -0.4665 -0.6646 -0.1890
39818SOL    HW122952   4.147   3.982   4.951 -0.0734 -0.9585  1.5844
39818SOL    HW222953   4.020   3.948   4.876  1.1524 -0.2199 -0.9251
39819SOL     OW22954   4.614   3.424   1.647 -0.0773 -0.0020  0.2781
39819SOL    HW122955   4.653   3.450   1.731 -0.4372  1.2251  0.0823
39819SOL    HW222956   4.543   3.486   1.634 -1.3843 -1.5041  0.0734
39820SOL     OW22957  10.524   3.438   6.261  0.5428  0.6835 -0.4615
39820SOL    HW122958  10.438   3.479   6.255 -0.6481 -1.6858 -0.7219
39820SOL    HW222959  10.564   3.452   6.175 -0.6482 -0.2980 -1.2161
39821SOL     OW22960  10.765   6.726   8.342  0.2973  0.5367  0.0085
39821SOL    HW122961  10.847   6.769   8.315  1.0247 -0.9736 -0.2937
39821SOL    HW222962  10.702   6.798   8.352  1.4690  1.6606 -0.4389
39822SOL     OW22963   9.106  10.762   1.344 -0.5750  0.1864  0.0242
39822SOL    HW122964   9.101  10.716   1.261 -1.2469 -0.3776  0.3620
39822SOL    HW222965   9.199  10.767   1.365 -0.5297 -2.6176  0.8432
39823SOL     OW22966   7.626   8.944   3.022 -0.2287  0.4903 -0.4408
39823SOL    HW122967   7.687   8.903   2.960 -0.4046 -0.5070  0.0179
39823SOL    HW222968   7.539   8.925   2.985 -0.4011 -1.2292  0.7103
39824SOL     OW22969   0.145   5.452  10.508 -0.0927  0.3357  0.1704
39824SOL    HW122970   0.194   5.501  10.574  2.0536 -1.1552 -0.2182
39824SOL    HW222971   0.149   5.506  10.430  2.2003 -0.3043 -0.2348
39825SOL     OW22972  10.166   2.868   8.809 -0.3255  0.6468 -0.0424
39825SOL    HW122973  10.261   2.882   8.819 -0.3036  0.6669 -0.2771
39825SOL    HW222974  10.131   2.954   8.788 -0.2544  0.4511 -1.0136
39826SOL     OW22975   5.461   0.235   8.357 -0.0711 -0.1282 -0.4927
39826SOL    HW122976   5.391   0.301   8.358 -1.5214 -1.5954 -0.7373
39826SOL    HW222977   5.519   0.261   8.429 -2.5069 -0.5198  1.7738
39827SOL     OW22978  10.979   5.208   4.307 -0.0469 -0.0807  0.2079
39827SOL    HW122979  11.017   5.139   4.252  1.7341  0.0956  1.1370
39827SOL    HW222980  10.888   5.212   4.281 -0.3532 -3.1445  0.4564
39828SOL     OW22981   7.209   2.020   2.819  0.3587  0.0086  0.2368
39828SOL    HW122982   7.295   2.035   2.781 -0.5275  1.1001 -1.4612
39828SOL    HW222983   7.199   2.089   2.884 -0.4969  2.0193 -1.9063
39829SOL     OW22984   1.084   3.336   4.386 -0.7245  0.2805  0.2810
39829SOL    HW122985   0.991   3.339   4.362 -0.9813  1.0253  1.3267
39829SOL    HW222986   1.093   3.401   4.455  0.6320  0.3654  0.0398
39830SOL     OW22987   9.421   7.093   2.568  0.4129 -0.6578 -0.2244
39830SOL    HW122988   9.387   7.007   2.544 -0.4268 -0.5224  0.4479
39830SOL    HW222989   9.480   7.076   2.642 -1.7958 -0.4000  1.6943
39831SOL     OW22990   3.395   2.904  10.049  0.6234  0.7331  0.8372
39831SOL    HW122991   3.421   2.994  10.033  1.4922  0.8872  2.8760
39831SOL    HW222992   3.445   2.852   9.986  0.1651  1.6369 -0.2997
39832SOL     OW22993   8.074   5.813   8.753  0.1704  0.9371  0.3509
39832SOL    HW122994   8.077   5.869   8.676 -0.4512  1.5398  0.7539
39832SOL    HW222995   8.051   5.872   8.825 -0.4724  0.1733  0.7868
39833SOL     OW22996   9.371   6.630   9.351 -0.3451 -0.1741 -0.7851
39833SOL    HW122997   9.318   6.552   9.361  0.0027 -0.2582  0.6321
39833SOL    HW222998   9.457   6.598   9.323 -0.0330 -0.3864  0.3479
39834SOL     OW22999  10.421   7.019   3.443 -0.0527 -0.0766  0.2434
39834SOL    HW123000  10.502   7.068   3.430  0.2968 -0.1594  1.8452
39834SOL    HW223001  10.436   6.935   3.400  1.0451 -0.3922  1.1817
39835SOL     OW23002   8.762   5.446   0.447 -0.1565 -0.6966  0.0279
39835SOL    HW123003   8.848   5.456   0.486  0.0587 -1.7625 -0.1320
39835SOL    HW223004   8.760   5.508   0.374  0.7591 -1.1932 -0.4292
39836SOL     OW23005   5.598   8.800   2.480 -0.3227 -0.2351 -0.7863
39836SOL    HW123006   5.525   8.847   2.520  0.7266  0.4996  0.3506
39836SOL    HW223007   5.645   8.761   2.554  0.5151 -0.5720 -1.4772
39837SOL     OW23008   3.431   3.741   0.459  0.1048  0.1078  0.1273
39837SOL    HW123009   3.404   3.755   0.368 -1.1797  0.4036  0.5375
39837SOL    HW223010   3.506   3.681   0.453  1.0718  1.4042 -1.2131
39838SOL     OW23011   7.085   5.353   3.702  0.0845  0.2331 -0.1382
39838SOL    HW123012   7.161   5.319   3.654  1.8110  0.4546  2.2398
39838SOL    HW223013   7.100   5.325   3.792 -2.3434  0.9140  0.5343
39839SOL     OW23014   3.089   5.480   8.516 -0.1205  0.0261 -0.4628
39839SOL    HW123015   3.011   5.525   8.484 -1.6815 -1.2042  1.3890
39839SOL    HW223016   3.081   5.483   8.611  2.8848  1.1137 -0.1516
39840SOL     OW23017  10.320   5.539  10.935 -0.5289 -0.1395  0.8736
39840SOL    HW123018  10.371   5.512  11.011 -2.0232 -0.5653  1.7805
39840SOL    HW223019  10.251   5.595  10.971 -1.7999 -1.0631 -0.0184
39841SOL     OW23020   6.461   6.897   5.618  0.7216 -0.0472 -0.3091
39841SOL    HW123021   6.486   6.972   5.564  1.8096 -0.8758 -0.9727
39841SOL    HW223022   6.527   6.895   5.688  2.0722 -1.7031 -1.5630
39842SOL     OW23023   0.696   2.274   0.013  0.4348 -0.8786  0.2957
39842SOL    HW123024   0.672   2.365   0.030  0.5647 -0.6313 -0.7637
39842SOL    HW223025   0.739   2.245   0.094 -1.6194 -0.7331  1.5127
39843SOL     OW23026   9.906   8.042   0.109 -0.3955 -0.6437  0.2044
39843SOL    HW123027   9.898   8.121   0.055 -0.8036 -0.3943  0.6301
39843SOL    HW223028   9.936   7.975   0.047 -3.1065 -0.9631 -0.9188
39844SOL     OW23029   7.448  10.976   0.229  0.6168 -0.1951  0.0248
39844SOL    HW123030   7.405  11.005   0.148 -0.0986  1.0566  0.8292
39844SOL    HW223031   7.453  10.881   0.220 -1.7872 -0.3377 -0.3719
39845SOL     OW23032   7.293   8.986   4.939  0.5378  0.5986  0.3951
39845SOL    HW123033   7.369   8.954   4.891  0.5937  1.1604  0.1040
39845SOL    HW223034   7.330   9.047   5.004  0.5262 -0.5503  1.5324
39846SOL     OW23035   2.555   4.804   6.770  0.4345 -0.7087 -0.0935
39846SOL    HW123036   2.542   4.765   6.856  1.3298  2.1609  1.4596
39846SOL    HW223037   2.471   4.845   6.749 -0.6163 -3.5037 -1.8760
39847SOL     OW23038   7.161   9.982   6.281  0.2299  0.0381  0.2928
39847SOL    HW123039   7.251   9.980   6.248  1.2838 -0.0486  2.8895
39847SOL    HW223040   7.163  10.047   6.351 -2.0982  0.9512 -0.3844
39848SOL     OW23041   5.814   4.666   9.363  0.3231 -0.1819 -0.0009
39848SOL    HW123042   5.734   4.615   9.360 -0.3450  0.8144 -2.8864
39848SOL    HW223043   5.883   4.604   9.339  0.2523 -0.7539  1.2237
39849SOL     OW23044   8.035   0.891   3.773  0.3987 -0.1203 -0.4748
39849SOL    HW123045   7.945   0.920   3.755  0.2449 -0.9303 -1.0613
39849SOL    HW223046   8.080   0.971   3.801 -0.1772  0.5725 -1.4256
39850SOL     OW23047  10.605   0.646   6.821  0.9477 -0.1602 -0.7459
39850SOL    HW123048  10.537   0.706   6.791  0.8962 -0.5235 -1.3653
39850SOL    HW223049  10.658   0.629   6.743  0.0877 -2.0896 -0.9579
39851SOL     OW23050   5.451  10.714  10.743 -0.1317  0.2078 -0.7522
39851SOL    HW123051   5.490  10.672  10.666 -3.2410 -3.2389 -0.7260
39851SOL    HW223052   5.358  10.719  10.723 -0.8817  0.3723  2.2581
39852SOL     OW23053   2.656   1.991   8.468  0.2140  0.2946 -0.1707
39852SOL    HW123054   2.624   1.938   8.542  1.0301 -0.7072 -0.5071
39852SOL    HW223055   2.731   1.942   8.435 -0.5792  0.3025 -2.1411
39853SOL     OW23056   0.288   9.188   3.019 -0.2146 -0.2281 -0.4366
39853SOL    HW123057   0.370   9.176   3.068 -0.4719  0.9891  0.3070
39853SOL    HW223058   0.236   9.111   3.041  0.5440 -0.7987 -0.5708
39854SOL     OW23059   8.070   3.594   7.047  0.4744 -0.1050 -0.1820
39854SOL    HW123060   8.088   3.674   7.096 -0.2573 -0.7125  1.1441
39854SOL    HW223061   7.986   3.611   7.003 -0.2816 -0.5172  1.0371
39855SOL     OW23062   0.471   4.244   9.090  0.3502  0.3990 -0.1070
39855SOL    HW123063   0.512   4.192   9.159 -1.3957 -0.3558  0.4195
39855SOL    HW223064   0.418   4.182   9.041  1.4618  0.9489 -2.1043
39856SOL     OW23065   4.315   3.847   9.801 -0.2753 -0.0325  0.0094
39856SOL    HW123066   4.238   3.796   9.777 -0.4059 -0.2710  0.8940
39856SOL    HW223067   4.388   3.786   9.790 -0.3836 -0.2783  0.6449
39857SOL     OW23068   4.129   0.584   2.336  0.0078  0.1290 -0.5508
39857SOL    HW123069   4.056   0.644   2.318 -1.0886 -1.2168 -0.7677
39857SOL    HW223070   4.124   0.567   2.430 -1.9655 -2.3647 -1.0119
39858SOL     OW23071   9.483   2.979   1.098  0.1660 -0.5399 -0.2086
39858SOL    HW123072   9.570   2.996   1.134  0.8550 -0.0060 -2.0383
39858SOL    HW223073   9.496   2.910   1.034 -0.9809 -1.2533  0.2914
39859SOL     OW23074   6.012   4.396   9.433 -0.6699 -0.3508 -0.6955
39859SOL    HW123075   6.020   4.439   9.348 -0.4337  0.0623 -0.4690
39859SOL    HW223076   6.090   4.424   9.481 -1.9372  1.3383  0.4993
39860SOL     OW23077   6.713   2.121   4.716 -0.1491  0.1291  0.2442
39860SOL    HW123078   6.770   2.072   4.656 -1.0244 -2.4325  1.3519
39860SOL    HW223079   6.754   2.110   4.802 -1.6294 -0.7625  0.8779
39861SOL     OW23080   5.780   4.850   6.136  0.2222 -0.6466 -0.4182
39861SOL    HW123081   5.694   4.869   6.100 -1.5501 -0.6984  3.3560
39861SOL    HW223082   5.782   4.754   6.145  1.6515 -0.8848 -2.3612
39862SOL     OW23083   5.810  10.344   5.041  0.7830 -0.7009 -0.7326
39862SOL    HW123084   5.848  10.279   5.101  0.1307 -0.3993  0.0392
39862SOL    HW223085   5.846  10.428   5.071 -2.0483 -0.1096  1.4555
39863SOL     OW23086   5.004   0.687   1.817  0.2404  0.4891 -0.0346
39863SOL    HW123087   4.987   0.662   1.726 -0.6064  1.0329 -0.0409
39863SOL    HW223088   4.921   0.669   1.861  1.1735 -1.5068  1.0395
39864SOL     OW23089   6.660   8.424   3.736  0.0260 -0.7571  0.4834
39864SOL    HW123090   6.713   8.396   3.810 -1.7843  2.6698  3.4037
39864SOL    HW223091   6.698   8.509   3.711 -1.6448 -0.0946  0.0588
39865SOL     OW23092   6.878   3.804   0.834  0.2975  0.5894 -0.4763
39865SOL    HW123093   6.785   3.803   0.859  0.7187 -1.3607  1.3279
39865SOL    HW223094   6.925   3.793   0.917  2.0681  0.1148 -1.4968
39866SOL     OW23095  10.306   1.392   8.494  0.2009  0.2830  0.0943
39866SOL    HW123096  10.400   1.378   8.500  0.2830  0.7145 -0.1415
39866SOL    HW223097  10.280   1.347   8.414  0.5763  1.9954 -1.0316
39867SOL     OW23098   4.899   0.978   8.198  0.1667 -0.4151  0.4277
39867SOL    HW123099   4.965   0.913   8.220 -0.0308 -0.9503 -0.5108
39867SOL    HW223100   4.943   1.040   8.141  0.4118  0.4213  1.4832
39868SOL     OW23101   6.810   4.859   5.214 -0.5870 -0.2949  0.0874
39868SOL    HW123102   6.750   4.883   5.285 -0.6831  1.1532 -0.4409
39868SOL    HW223103   6.767   4.786   5.170 -1.2962 -0.1568  0.5366
39869SOL     OW23104   2.865   9.632   7.091  0.9573 -0.7001 -0.5481
39869SOL    HW123105   2.774   9.639   7.119  0.5691  0.8025 -2.0114
39869SOL    HW223106   2.865   9.561   7.026  0.9834 -1.1804 -0.0275
39870SOL     OW23107   6.814   6.326   0.463  0.0478 -0.3894 -0.3607
39870SOL    HW123108   6.733   6.348   0.509 -0.2063 -2.3316  0.2037
39870SOL    HW223109   6.798   6.354   0.373 -0.6441  0.6552  0.0658
39871SOL     OW23110   7.722   9.008   0.758 -0.1004 -0.5027  0.7278
39871SOL    HW123111   7.661   9.012   0.832 -0.4232  0.8957  0.4155
39871SOL    HW223112   7.678   9.055   0.688  0.4502 -1.3247 -0.1873
39872SOL     OW23113   7.737   3.861   0.181 -0.1659  0.0251 -0.2886
39872SOL    HW123114   7.787   3.821   0.109 -1.9499 -0.5509 -1.2740
39872SOL    HW223115   7.662   3.802   0.193 -0.6125  0.8447  1.1505
39873SOL     OW23116   9.457  10.555   0.449 -0.0624  0.3182  0.0871
39873SOL    HW123117   9.483  10.482   0.505 -1.9955 -0.2102  0.3643
39873SOL    HW223118   9.537  10.581   0.404  0.8521 -1.3761  0.6662
39874SOL     OW23119   7.438   0.738   5.821  0.4158  0.1908  0.0626
39874SOL    HW123120   7.508   0.736   5.886  1.1480 -3.3222 -0.6707
39874SOL    HW223121   7.462   0.812   5.764  3.7291 -0.9374 -0.2678
39875SOL     OW23122   6.389   8.789   3.472 -0.5066  0.0061  0.4992
39875SOL    HW123123   6.421   8.776   3.562 -0.0978  0.4134  0.4174
39875SOL    HW223124   6.441   8.727   3.420 -1.2382 -0.7351  0.6360
39876SOL     OW23125   6.608   9.182   0.336 -0.0252  0.7457 -0.2936
39876SOL    HW123126   6.648   9.136   0.409 -1.8295  2.4187  1.8997
39876SOL    HW223127   6.652   9.267   0.333  1.7003 -0.0939 -2.8370
39877SOL     OW23128   2.835   6.860   8.143  0.3861 -0.4118  0.1707
39877SOL    HW123129   2.930   6.852   8.135  0.4100 -0.0216  0.0392
39877SOL    HW223130   2.802   6.772   8.127  0.6243 -0.2611 -1.3513
39878SOL     OW23131   8.311   9.801   0.013 -0.3664  0.0900  0.0750
39878SOL    HW123132   8.349   9.731  -0.040  0.5416  1.5213 -1.2615
39878SOL    HW223133   8.232   9.827  -0.034 -1.5458 -1.0213  1.3800
39879SOL     OW23134   1.363   0.132   2.596  0.1726  0.2358 -0.0631
39879SOL    HW123135   1.336   0.048   2.633  0.7870 -0.2159 -0.6214
39879SOL    HW223136   1.295   0.193   2.623 -1.2293 -0.7905 -1.1254
39880SOL     OW23137   2.214   3.161   9.529 -0.1597  0.4238  0.3258
39880SOL    HW123138   2.155   3.114   9.470  1.1920 -3.7796  1.9488
39880SOL    HW223139   2.295   3.172   9.479  0.0565 -0.5787  0.4313
39881SOL     OW23140   2.290   3.455  10.191 -0.5133 -0.3388 -0.1720
39881SOL    HW123141   2.324   3.366  10.177  0.3719 -0.0598  0.1328
39881SOL    HW223142   2.237   3.448  10.271 -0.7864 -0.6735 -0.3767
39882SOL     OW23143   4.594   9.194   5.071  0.2872 -0.3587 -0.4126
39882SOL    HW123144   4.686   9.215   5.051 -0.3697  1.5255 -1.7074
39882SOL    HW223145   4.595   9.165   5.162  1.9768  1.0479  0.0742
39883SOL     OW23146   5.422   2.167   9.312  0.1378  0.0571  0.0396
39883SOL    HW123147   5.330   2.181   9.291  0.1523 -0.1086 -0.1392
39883SOL    HW223148   5.463   2.145   9.228  0.2421 -0.3881  0.2000
39884SOL     OW23149   0.140   9.123   4.567  0.2565  0.0513 -0.2381
39884SOL    HW123150   0.052   9.132   4.604  0.6956 -1.7912  1.4214
39884SOL    HW223151   0.151   9.029   4.552  2.5701 -0.0187  1.3502
39885SOL     OW23152   5.002   3.955   9.310 -0.3932  0.0303 -0.1113
39885SOL    HW123153   4.911   3.933   9.325 -0.5908  0.5379 -0.5196
39885SOL    HW223154   5.050   3.875   9.330 -0.9128 -0.2013  0.2285
39886SOL     OW23155   7.068  10.547   3.508 -0.0404 -0.2855  0.0986
39886SOL    HW123156   7.129  10.615   3.537 -1.0314  0.5460  0.2766
39886SOL    HW223157   7.077  10.546   3.413 -0.7637  0.8383  0.0010
39887SOL     OW23158   9.111   2.685   0.496  0.0418 -0.2144 -0.4888
39887SOL    HW123159   9.177   2.626   0.462 -0.0835  0.0928 -1.2906
39887SOL    HW223160   9.084   2.646   0.579  0.9207 -0.5608 -0.3563
39888SOL     OW23161   9.446   7.504   9.429 -0.0030 -0.1115 -0.2125
39888SOL    HW123162   9.527   7.458   9.409  0.5300  0.2415  1.0921
39888SOL    HW223163   9.406   7.453   9.500 -0.9668 -0.3162 -0.8772
39889SOL     OW23164  10.568   8.550   6.511  0.2271  1.3808  0.0942
39889SOL    HW123165  10.558   8.581   6.421  0.2438  1.4986  0.1319
39889SOL    HW223166  10.564   8.630   6.564  1.3650  1.4372  0.1121
39890SOL     OW23167   8.674   8.661   5.363  0.3550  0.0967 -0.5840
39890SOL    HW123168   8.722   8.616   5.293  0.8162  0.5970 -0.5977
39890SOL    HW223169   8.742   8.703   5.415 -0.0789  0.8665 -0.6324
39891SOL     OW23170   0.645  10.960   5.614 -0.2406  0.1074  0.0964
39891SOL    HW123171   0.726  10.986   5.570  0.2066 -0.4720  0.5654
39891SOL    HW223172   0.575  10.987   5.554  0.2558  1.3002  0.0234
39892SOL     OW23173   2.260   5.999   7.160 -0.3619 -0.3330  0.7885
39892SOL    HW123174   2.258   5.904   7.171  0.7994 -0.3548  0.8850
39892SOL    HW223175   2.274   6.012   7.066 -2.2415 -0.2189  0.4847
39893SOL     OW23176   7.049  10.904   8.031 -0.0097  0.1307 -0.5185
39893SOL    HW123177   7.100  10.895   8.111  0.0450  0.4675 -0.5132
39893SOL    HW223178   7.105  10.867   7.962 -0.8465 -2.0345 -0.1321
39894SOL     OW23179   8.074   9.283   1.989 -0.5219 -0.2136  0.3356
39894SOL    HW123180   8.143   9.222   2.016 -0.7264  0.3958  2.4882
39894SOL    HW223181   8.034   9.243   1.912 -0.1149 -2.4053  1.1893
39895SOL     OW23182   1.695   7.820   9.581 -0.0848  0.2028  0.0243
39895SOL    HW123183   1.661   7.904   9.611 -1.5227 -0.2174 -0.3777
39895SOL    HW223184   1.622   7.777   9.537  0.5386 -1.3656  0.4162
39896SOL     OW23185  10.867   8.298   1.473  0.1505  0.3866  0.1644
39896SOL    HW123186  10.854   8.314   1.379 -4.0506  0.5216  0.5862
39896SOL    HW223187  10.858   8.385   1.513  1.7710  0.3080  0.7862
39897SOL     OW23188   6.152   0.449   6.170 -0.4388  0.4153  0.1833
39897SOL    HW123189   6.141   0.392   6.093 -0.0638 -2.0675  1.8611
39897SOL    HW223190   6.239   0.428   6.203 -0.7907  1.0632  1.5824
39898SOL     OW23191   5.736   7.501   7.226 -0.4966  0.4551  0.2008
39898SOL    HW123192   5.641   7.495   7.235 -0.5061 -0.9665 -0.7222
39898SOL    HW223193   5.767   7.412   7.237  0.6835  0.8084 -0.1481
39899SOL     OW23194  10.698   4.153   9.228 -0.0462 -0.4135 -0.5444
39899SOL    HW123195  10.682   4.216   9.158  0.5783 -0.8403 -1.0859
39899SOL    HW223196  10.674   4.200   9.308  0.0312  0.3774 -0.9697
39900SOL     OW23197  10.621   9.119   1.372  0.5512  0.7091  0.1280
39900SOL    HW123198  10.585   9.042   1.415 -0.2315  1.1283  0.2419
39900SOL    HW223199  10.712   9.096   1.354  0.4811 -0.0246  0.6660
39901SOL     OW23200   5.789   1.737   8.517  0.1255 -0.0339  0.0394
39901SOL    HW123201   5.857   1.799   8.542 -1.1696  1.2439  0.5235
39901SOL    HW223202   5.795   1.730   8.422  1.1916 -0.2797  0.1148
39902SOL     OW23203   8.417   3.342   5.496 -0.2576  0.2853 -0.2004
39902SOL    HW123204   8.364   3.294   5.559  1.0122  0.8306  1.3404
39902SOL    HW223205   8.382   3.316   5.411  0.5836 -3.6969  0.4745
39903SOL     OW23206   0.586   5.248   6.276  0.2258 -0.6768 -0.0241
39903SOL    HW123207   0.499   5.208   6.273 -1.2663  2.1745  1.4292
39903SOL    HW223208   0.600   5.281   6.187 -1.4034  1.1068  0.3223
39904SOL     OW23209   7.145  10.837   7.772  0.2984  0.4872  0.4861
39904SOL    HW123210   7.148  10.917   7.719  0.2622  0.5618  0.5947
39904SOL    HW223211   7.094  10.775   7.720 -0.3155  0.7801  0.7284
39905SOL     OW23212   8.932   0.711   7.574  0.1852 -0.4686 -0.8278
39905SOL    HW123213   8.955   0.659   7.497  1.5291  0.2816 -0.9727
39905SOL    HW223214   8.839   0.694   7.587 -0.1912 -0.2968 -2.8716
39906SOL     OW23215  10.723   7.331   5.640 -0.2267  0.2204  0.1178
39906SOL    HW123216  10.653   7.384   5.678  0.3523 -1.0378  3.2824
39906SOL    HW223217  10.689   7.305   5.554 -2.4289  1.9087  0.3737
39907SOL     OW23218   2.627   9.213   6.087 -0.1336 -0.2789  0.2238
39907SOL    HW123219   2.561   9.167   6.138 -0.4636  0.3276  0.3572
39907SOL    HW223220   2.669   9.272   6.150  0.0659 -0.1699 -0.0094
39908SOL     OW23221  10.071   9.011   1.386 -0.3183 -0.4729  0.2198
39908SOL    HW123222  10.025   8.940   1.341  0.9803 -1.4854  0.4236
39908SOL    HW223223  10.101   9.068   1.315 -0.7854 -0.4942  0.0037
39909SOL     OW23224  10.296   4.485   4.589 -0.2198  1.0939 -0.2086
39909SOL    HW123225  10.270   4.505   4.679 -1.5183 -1.0006 -0.0578
39909SOL    HW223226  10.385   4.449   4.597 -1.1597 -1.2277  0.5902
39910SOL     OW23227   6.707   6.376   4.006 -0.0305 -0.1754  0.0201
39910SOL    HW123228   6.719   6.424   4.088  1.7271 -0.9313  0.2574
39910SOL    HW223229   6.783   6.401   3.953 -0.8737 -0.1019 -1.1860
39911SOL     OW23230   6.940   1.718   1.303  0.2767 -0.3783  0.0309
39911SOL    HW123231   6.942   1.769   1.222 -0.8543  1.6209  1.1734
39911SOL    HW223232   7.015   1.751   1.354  0.2887 -0.7767  0.2759
39912SOL     OW23233   7.113   3.285   6.865  0.1651  0.2294 -0.3115
39912SOL    HW123234   7.076   3.324   6.786  0.0501  1.5110  0.3576
39912SOL    HW223235   7.101   3.190   6.852  0.1664  0.4139 -1.8177
39913SOL     OW23236   1.204   7.020   8.686  0.3602  0.1679 -0.0722
39913SOL    HW123237   1.295   6.998   8.706  0.1153  0.3750  1.3211
39913SOL    HW223238   1.168   6.940   8.647  0.7527 -0.3807  0.6730
39914SOL     OW23239   8.916   5.844   0.504 -0.4945  0.1610  0.5737
39914SOL    HW123240   8.983   5.873   0.442 -1.2319  1.3318  0.2894
39914SOL    HW223241   8.849   5.913   0.502 -1.9056 -1.1377  0.5637
39915SOL     OW23242   0.379   2.143   1.954  0.0055 -0.2068 -0.9892
39915SOL    HW123243   0.468   2.162   1.925 -0.4459  2.1103 -1.0287
39915SOL    HW223244   0.383   2.052   1.984  2.6355  0.1285 -0.0111
39916SOL     OW23245   3.272   4.578   1.472 -0.1503 -0.1407 -0.8119
39916SOL    HW123246   3.353   4.615   1.506 -0.0723 -0.1670 -0.9714
39916SOL    HW223247   3.273   4.599   1.379 -0.9512  1.0435 -0.5865
39917SOL     OW23248   4.211   6.225   3.529  0.0966  0.0512  0.8616
39917SOL    HW123249   4.198   6.132   3.546  0.8030 -0.5087 -1.3461
39917SOL    HW223250   4.233   6.230   3.436  0.1333  2.4290  0.9287
39918SOL     OW23251   9.578   9.179   3.816  0.0199  0.3461  0.0439
39918SOL    HW123252   9.623   9.242   3.872  1.5451  0.7050 -1.4857
39918SOL    HW223253   9.505   9.147   3.869  1.8954 -0.0474  2.5639
39919SOL     OW23254   3.099   3.432   7.224  0.1613  0.6645 -0.6355
39919SOL    HW123255   3.094   3.336   7.223  0.2839  0.6449 -0.1004
39919SOL    HW223256   3.153   3.454   7.148  0.0456  0.3150 -0.8224
39920SOL     OW23257   4.440   8.721   7.140 -0.4063 -0.6468 -0.2589
39920SOL    HW123258   4.392   8.757   7.065 -0.8483 -2.3760 -0.8734
39920SOL    HW223259   4.389   8.643   7.165  0.3007 -0.6747  1.1927
39921SOL     OW23260   3.934   7.423   2.621  0.2048 -0.0059 -0.4493
39921SOL    HW123261   3.935   7.387   2.710 -0.3495 -0.1229 -0.4842
39921SOL    HW223262   4.024   7.414   2.590  0.0578 -1.5532 -0.5181
39922SOL     OW23263   3.339   9.807   8.262  0.4614 -0.0620 -0.2028
39922SOL    HW123264   3.384   9.818   8.346 -0.2137  0.7727  0.0671
39922SOL    HW223265   3.253   9.848   8.275  1.0234  1.8024 -1.8735
39923SOL     OW23266   5.981   6.718   6.018  0.4245 -0.2171  0.1967
39923SOL    HW123267   5.910   6.663   5.985 -0.3512  0.1233  1.2438
39923SOL    HW223268   5.937   6.796   6.051  1.2329 -0.1914  1.2479
39924SOL     OW23269   9.416   3.568   4.791  0.1872  0.4695  0.2850
39924SOL    HW123270   9.473   3.645   4.797 -0.6456  1.0939  0.2847
39924SOL    HW223271   9.353   3.591   4.723 -0.4280  0.0214  0.7048
39925SOL     OW23272  10.428   0.916   0.854  0.7919 -0.1442 -0.3482
39925SOL    HW123273  10.459   0.859   0.784  2.3682  1.6291 -1.1818
39925SOL    HW223274  10.342   0.946   0.824  0.6784 -0.7907 -0.6790
39926SOL     OW23275   5.022   2.751   5.135  0.1600  0.1793 -0.2755
39926SOL    HW123276   5.039   2.754   5.229  0.8992  0.7366 -0.4193
39926SOL    HW223277   4.979   2.835   5.116 -0.9798 -0.3806 -0.2596
39927SOL     OW23278   3.379   1.707   8.435  0.5609  0.7339 -0.7677
39927SOL    HW123279   3.440   1.780   8.440  1.6443 -0.1761  3.4662
39927SOL    HW223280   3.410   1.645   8.502 -3.2707 -1.1894 -0.4757
39928SOL     OW23281   5.561  10.929   7.719  0.2370  0.1291  0.1757
39928SOL    HW123282   5.548  10.887   7.804  1.5779  1.4475  1.0830
39928SOL    HW223283   5.500  11.003   7.719 -0.8140 -0.7175 -0.6495
39929SOL     OW23284   9.053   0.620   0.119  0.2457  0.5459  0.1390
39929SOL    HW123285   9.118   0.569   0.072  0.5975 -0.4663  1.6672
39929SOL    HW223286   9.065   0.709   0.087  1.5346  0.1665 -0.5040
39930SOL     OW23287   4.452   3.364   4.318  0.3208 -0.0005 -0.0998
39930SOL    HW123288   4.518   3.418   4.362  0.7814 -0.8357  0.2365
39930SOL    HW223289   4.370   3.390   4.360  0.6796 -0.3773  0.8767
39931SOL     OW23290   3.942   1.799   4.116  0.4778  0.2524  0.0132
39931SOL    HW123291   3.943   1.705   4.099 -0.0577  0.0144  1.1459
39931SOL    HW223292   3.985   1.808   4.201  0.1470  0.9791  0.1099
39932SOL     OW23293   1.280   9.615   2.153  0.2065  0.0755  0.3267
39932SOL    HW123294   1.345   9.573   2.098 -1.5806 -0.9160 -1.1226
39932SOL    HW223295   1.237   9.679   2.096  0.1815  1.0504  1.3834
39933SOL     OW23296   9.898   6.898   7.972 -0.5599  0.4639  0.1461
39933SOL    HW123297   9.902   6.894   7.877  1.7435  0.6120  0.1682
39933SOL    HW223298   9.845   6.823   7.998 -0.1671 -0.3124 -1.2205
39934SOL     OW23299   1.991   9.745   1.272  0.4805  0.0828  0.6068
39934SOL    HW123300   2.023   9.799   1.200 -2.4487 -0.5224 -1.3554
39934SOL    HW223301   1.942   9.807   1.327  0.2548  0.0587  0.4343
39935SOL     OW23302   8.511   8.399   6.614  0.0975 -0.0409 -0.3581
39935SOL    HW123303   8.564   8.430   6.541  0.0764  1.3193  0.1910
39935SOL    HW223304   8.421   8.416   6.586  0.1210  1.4129  0.3651
39936SOL     OW23305   8.567   5.507   5.360 -0.0279  0.0232 -0.1906
39936SOL    HW123306   8.661   5.494   5.344 -0.1260 -1.2255  0.1439
39936SOL    HW223307   8.563   5.557   5.441  0.3558 -0.9824  0.4769
39937SOL     OW23308   0.135   7.203   2.924  0.1600 -0.0319 -0.2138
39937SOL    HW123309   0.091   7.160   2.851 -0.6350  1.7974 -0.8847
39937SOL    HW223310   0.083   7.282   2.940  0.6964 -0.0536  1.9247
39938SOL     OW23311   8.933   2.151  10.313 -0.1255  0.0961  0.0410
39938SOL    HW123312   8.922   2.196  10.396 -2.7306 -1.6104  0.7309
39938SOL    HW223313   8.871   2.194  10.254 -0.3609 -0.5153 -0.1689
39939SOL     OW23314   0.751   1.212   5.007  0.2512 -0.3464 -0.1231
39939SOL    HW123315   0.688   1.218   4.935  1.8322  0.9022 -1.4650
39939SOL    HW223316   0.817   1.151   4.976  0.9417  0.1914  0.2753
39940SOL     OW23317   1.656   6.584   8.879  0.1925  0.6354 -0.2589
39940SOL    HW123318   1.679   6.502   8.835  0.1794  0.3114  0.3311
39940SOL    HW223319   1.560   6.584   8.880  0.1403 -0.5334  1.8629
39941SOL     OW23320   9.800  10.614   8.291 -1.0010 -0.0983 -0.0535
39941SOL    HW123321   9.761  10.548   8.233 -0.1857 -1.1842  0.5921
39941SOL    HW223322   9.773  10.698   8.253 -0.6974 -0.7629 -1.8781
39942SOL     OW23323  10.784   4.050   9.818  0.2318  0.3118 -0.5475
39942SOL    HW123324  10.788   4.144   9.802  2.8236  0.1035 -1.7454
39942SOL    HW223325  10.848   4.035   9.888  0.0409 -0.5950 -0.5599
39943SOL     OW23326   9.744   5.093   2.111  0.3381  0.7080 -0.6264
39943SOL    HW123327   9.741   5.129   2.200  3.2280  2.5392 -1.1420
39943SOL    HW223328   9.751   4.998   2.125 -3.1658  0.5022  0.8781
39944SOL     OW23329   0.568   5.317   1.377 -0.7133  0.7734  0.5185
39944SOL    HW123330   0.492   5.373   1.393 -0.2500  1.4985  0.2179
39944SOL    HW223331   0.572   5.308   1.282 -1.3076 -0.5182  0.5945
39945SOL     OW23332   2.503   8.104   4.160  0.2024 -0.1561 -0.8780
39945SOL    HW123333   2.552   8.041   4.212 -0.4814  0.8421  1.0712
39945SOL    HW223334   2.411   8.081   4.175 -0.0093 -0.2228 -2.1624
39946SOL     OW23335   9.985   6.364   4.003 -0.0431  0.3103 -0.2581
39946SOL    HW123336  10.070   6.385   3.963 -0.5201  1.9707 -0.4530
39946SOL    HW223337   9.996   6.274   4.034  1.6638  0.3488 -0.6153
39947SOL     OW23338   8.073   3.297   5.690 -0.2054 -0.0457  0.5048
39947SOL    HW123339   8.036   3.210   5.672  2.2999 -0.7469 -1.9347
39947SOL    HW223340   8.167   3.281   5.701  0.0799  2.1741  1.7774
39948SOL     OW23341   7.257   9.664   8.694  0.1164 -0.4208 -0.2290
39948SOL    HW123342   7.233   9.735   8.634 -1.9146 -0.4046  0.5104
39948SOL    HW223343   7.309   9.604   8.641  0.9475  1.0660 -1.1663
39949SOL     OW23344   4.678  10.588   6.743 -0.0446 -0.8802 -0.0306
39949SOL    HW123345   4.741  10.556   6.807  1.2091 -0.3345 -0.9459
39949SOL    HW223346   4.704  10.547   6.661 -1.8634 -1.8776 -0.1668
39950SOL     OW23347   1.501   9.796   9.481  0.5040 -0.1726 -0.1457
39950SOL    HW123348   1.457   9.835   9.556 -1.0786  0.3100 -1.2698
39950SOL    HW223349   1.435   9.794   9.412  1.8409 -0.7595 -1.4894
39951SOL     OW23350   9.505   5.277   4.071 -0.0813  0.0420 -0.2581
39951SOL    HW123351   9.478   5.191   4.038  1.4297 -0.4750 -0.2281
39951SOL    HW223352   9.592   5.262   4.110 -0.6783  1.1710  1.6255
39952SOL     OW23353   6.036   7.883   7.828 -0.0352  0.7212 -0.1278
39952SOL    HW123354   5.960   7.900   7.772  1.2197  0.8489 -1.8641
39952SOL    HW223355   6.081   7.809   7.787  1.2844  1.2355  0.3165
39953SOL     OW23356   3.332   6.529   1.958 -0.0458 -0.3009  0.2048
39953SOL    HW123357   3.373   6.570   2.034 -0.1078 -3.0479  1.8148
39953SOL    HW223358   3.402   6.524   1.893  0.1293  1.6504  0.1850
39954SOL     OW23359   1.888   4.918   4.298 -0.2985  0.6420  0.3045
39954SOL    HW123360   1.961   4.903   4.238 -0.2361  2.4186 -0.1192
39954SOL    HW223361   1.826   4.847   4.278  0.1155  0.6768 -1.2528
39955SOL     OW23362   6.480   8.607   7.656  0.2688 -0.3760  0.1968
39955SOL    HW123363   6.441   8.607   7.743  0.6498 -0.8204  0.3641
39955SOL    HW223364   6.436   8.535   7.610  2.5707 -2.5211  1.1442
39956SOL     OW23365   1.751   9.929   0.711 -0.2920  0.3861  0.1375
39956SOL    HW123366   1.710   9.864   0.768 -2.4457  2.8179  1.5943
39956SOL    HW223367   1.782   9.997   0.771  2.8571  0.3332 -1.2317
39957SOL     OW23368   0.102   8.169   0.168 -0.3287  0.4491 -0.0605
39957SOL    HW123369   0.173   8.200   0.111  1.0165  0.8342  1.7358
39957SOL    HW223370   0.101   8.074   0.155 -1.2250  0.6831 -1.9876
39958SOL     OW23371   4.923   1.799   0.292 -0.1381 -0.1621 -0.6044
39958SOL    HW123372   4.931   1.813   0.198  0.2944  0.1446 -0.5278
39958SOL    HW223373   5.014   1.791   0.323 -0.2905 -0.6989 -0.2785
39959SOL     OW23374   9.801   2.951  10.764  0.0801 -0.0854 -0.1642
39959SOL    HW123375   9.853   3.009  10.709  1.6579 -0.0358  1.2804
39959SOL    HW223376   9.789   2.872  10.712 -0.3200  0.7375 -1.3590
39960SOL     OW23377   9.035  10.601   0.666 -0.5767  0.0550 -0.0001
39960SOL    HW123378   9.001  10.669   0.607  0.0329  1.0140  0.7149
39960SOL    HW223379   9.034  10.521   0.614  1.3943  1.1472 -1.8711
39961SOL     OW23380   7.504   8.645   6.909  0.0495  0.3235 -0.0602
39961SOL    HW123381   7.547   8.713   6.962 -0.3655  1.5888 -1.2647
39961SOL    HW223382   7.554   8.644   6.827  2.1336 -3.2037  1.0513
39962SOL     OW23383  10.663   3.328   0.383  0.2521  0.1697  0.2678
39962SOL    HW123384  10.695   3.286   0.303  2.3372 -1.7383  1.9594
39962SOL    HW223385  10.675   3.422   0.368  2.9530 -0.2687 -0.7845
39963SOL     OW23386   8.827   6.115   4.033  0.1791 -0.2593  0.9198
39963SOL    HW123387   8.808   6.027   4.000  1.3924 -0.2179  0.0300
39963SOL    HW223388   8.744   6.146   4.069 -0.2936 -1.7103  1.1223
39964SOL     OW23389   0.262   9.269   7.691  0.3124 -0.4847 -0.0152
39964SOL    HW123390   0.203   9.276   7.616  1.6016  0.3360 -1.0062
39964SOL    HW223391   0.345   9.238   7.654  0.9259 -0.2361  1.0927
39965SOL     OW23392   1.393   8.923   2.294 -0.1871 -0.8971  0.0774
39965SOL    HW123393   1.449   9.000   2.286  0.0448 -1.0655  0.0816
39965SOL    HW223394   1.305   8.954   2.270  0.3757 -1.2935 -2.7401
39966SOL     OW23395   4.260   9.158   3.971 -0.4283  0.0650  0.3448
39966SOL    HW123396   4.193   9.121   4.029 -0.4812 -0.3948  0.0017
39966SOL    HW223397   4.304   9.081   3.934 -2.4047  0.2051 -2.6162
39967SOL     OW23398   7.623   8.478   3.589  0.2231  0.4654  0.1450
39967SOL    HW123399   7.683   8.544   3.554 -0.1089  1.3475  1.2006
39967SOL    HW223400   7.678   8.422   3.644  0.4726 -0.0852 -0.6281
39968SOL     OW23401   4.542   3.845   1.766 -0.7269  0.0036 -0.7393
39968SOL    HW123402   4.547   3.893   1.683 -1.5992 -3.0229 -2.7325
39968SOL    HW223403   4.572   3.907   1.832  0.0614  2.5732 -3.3073
39969SOL     OW23404   4.559  10.293   7.049  0.1816  0.9078 -0.3310
39969SOL    HW123405   4.634  10.253   7.092  0.4190  1.8555  0.1694
39969SOL    HW223406   4.530  10.228   6.985 -0.2998 -0.6252  1.3750
39970SOL     OW23407   6.892   9.902  10.818  0.2247 -0.3798 -0.0876
39970SOL    HW123408   6.895   9.898  10.914  1.7895  1.2771 -0.0148
39970SOL    HW223409   6.807   9.942  10.798 -0.5093 -1.5769  0.5385
39971SOL     OW23410   6.363   6.877   5.957  0.6638 -0.7094 -0.3059
39971SOL    HW123411   6.318   6.931   5.892  0.2824  0.8307  1.1668
39971SOL    HW223412   6.333   6.788   5.939 -1.8974  0.0853 -0.2881
39972SOL     OW23413   6.880   1.962   8.341  0.1238  0.1182  0.1658
39972SOL    HW123414   6.831   1.889   8.378 -1.5905  1.0691 -0.1093
39972SOL    HW223415   6.813   2.018   8.301  1.4952  1.2681 -0.6154
39973SOL     OW23416   8.388   6.462   6.487 -0.0079 -0.4924  0.2725
39973SOL    HW123417   8.441   6.533   6.451  0.8770 -1.4282 -0.3513
39973SOL    HW223418   8.426   6.445   6.573  0.7702 -1.2075 -0.2024
39974SOL     OW23419   9.059   7.356   0.791  0.0852  0.2723 -0.1249
39974SOL    HW123420   9.143   7.322   0.822 -0.8433  0.1310  2.4325
39974SOL    HW223421   9.001   7.280   0.789 -0.0130  0.3355 -2.0585
39975SOL     OW23422   7.680   7.408   9.369  0.6117  0.7449  0.6128
39975SOL    HW123423   7.591   7.396   9.403  1.0638  0.1883  1.6503
39975SOL    HW223424   7.701   7.325   9.326  0.0844  1.4054 -1.0285
39976SOL     OW23425  10.465   8.344   1.144 -0.1449 -0.5492  0.0668
39976SOL    HW123426  10.513   8.273   1.185 -0.7517 -1.5197 -0.8584
39976SOL    HW223427  10.394   8.364   1.205  1.5366  1.1415  1.6200
39977SOL     OW23428   7.082   2.224   8.358 -0.6189  0.2948  0.5652
39977SOL    HW123429   7.060   2.162   8.427 -0.1315  0.4929  0.9013
39977SOL    HW223430   7.133   2.292   8.402 -1.1879  0.9621  0.2133
39978SOL     OW23431   6.050   7.852   5.529 -0.4231  0.0959  0.1324
39978SOL    HW123432   6.055   7.947   5.535 -1.6403  0.1090  1.3197
39978SOL    HW223433   6.132   7.826   5.486  0.9446  1.4952  1.7871
39979SOL     OW23434   8.780  10.678   9.211  0.8338  0.0109  0.3826
39979SOL    HW123435   8.870  10.649   9.197  2.1427  3.6440  0.2066
39979SOL    HW223436   8.750  10.627   9.286  1.2567 -4.5353 -2.1640
39980SOL     OW23437   9.047   6.625   7.598  0.4664  0.7468  0.5287
39980SOL    HW123438   9.127   6.674   7.617  0.9135 -0.5354  2.2646
39980SOL    HW223439   9.065   6.583   7.514  1.3090  1.1060  0.5136
39981SOL     OW23440   2.224   8.402  10.719  0.8579  0.3779 -0.4281
39981SOL    HW123441   2.165   8.402  10.794 -0.2548  1.0325 -1.2611
39981SOL    HW223442   2.206   8.486  10.675  2.4727  0.6250 -0.6741
39982SOL     OW23443   1.393   2.585   3.914 -0.1633  0.2952 -0.1344
39982SOL    HW123444   1.298   2.574   3.918 -0.0661 -0.8627 -0.4267
39982SOL    HW223445   1.415   2.563   3.824  0.4464 -0.0560  0.0981
39983SOL     OW23446   5.559   7.782   4.729 -0.0423 -0.8360 -0.3006
39983SOL    HW123447   5.601   7.704   4.694  0.0187 -1.3205  0.7845
39983SOL    HW223448   5.550   7.764   4.823  0.6056  0.7519  0.1032
39984SOL     OW23449   2.846   5.753   4.178  0.0559 -0.2084  0.6117
39984SOL    HW123450   2.845   5.665   4.215 -1.0748  0.0991  1.3636
39984SOL    HW223451   2.925   5.793   4.213  0.1083 -0.6309  0.9881
39985SOL     OW23452  10.368   7.559   6.653 -0.0634 -0.4061 -0.2752
39985SOL    HW123453  10.422   7.623   6.698  1.1640 -0.1913 -1.9845
39985SOL    HW223454  10.286   7.606   6.635  0.3294  0.2651 -0.3597
39986SOL     OW23455   0.904   1.706   1.153 -0.2224  0.2750  0.3564
39986SOL    HW123456   0.952   1.716   1.235  0.1031 -0.1795  0.2229
39986SOL    HW223457   0.893   1.795   1.120  1.0351  0.3480  0.0979
39987SOL     OW23458   3.862   0.922   6.708  0.1076  0.6382  0.6904
39987SOL    HW123459   3.841   0.835   6.741 -0.8791  0.4575 -0.3476
39987SOL    HW223460   3.950   0.913   6.671 -0.8085 -0.5687 -1.4199
39988SOL     OW23461   3.492  10.454   7.102 -0.2062 -0.0413  0.3783
39988SOL    HW123462   3.423  10.492   7.049 -0.8955 -1.5345  0.1690
39988SOL    HW223463   3.568  10.452   7.044 -0.3856  0.2547  0.1310
39989SOL     OW23464   0.739   5.499  10.675 -0.0677  0.5030 -0.7585
39989SOL    HW123465   0.713   5.583  10.711 -0.3302  0.2747 -0.4078
39989SOL    HW223466   0.663   5.468  10.626 -0.7685 -0.4935  0.8540
39990SOL     OW23467   7.011   5.269   2.623  0.1031 -0.0238  0.1692
39990SOL    HW123468   6.970   5.252   2.707  0.2906 -0.9425  0.0857
39990SOL    HW223469   7.063   5.190   2.605 -0.0133  0.1176 -0.8514
39991SOL     OW23470   9.523   2.654   9.335  0.2707 -0.3710 -0.8454
39991SOL    HW123471   9.428   2.662   9.325  0.0661  0.2045  1.0483
39991SOL    HW223472   9.558   2.732   9.292 -0.1967 -0.0431 -0.6409
39992SOL     OW23473   6.889   2.766  10.627 -0.3551  0.0755 -0.3995
39992SOL    HW123474   6.815   2.735  10.680 -0.0121  2.0130  1.3858
39992SOL    HW223475   6.966   2.743  10.679  0.1112  0.5395 -0.8750
39993SOL     OW23476   1.163   0.804   9.382  0.7620 -0.1678 -0.4397
39993SOL    HW123477   1.092   0.748   9.412  2.2347 -1.1438  1.4807
39993SOL    HW223478   1.142   0.823   9.290 -0.2743 -3.1248 -0.9236
39994SOL     OW23479   7.442   7.572   3.221 -0.2198 -0.1044 -0.4522
39994SOL    HW123480   7.377   7.535   3.161 -0.2411 -1.2292  0.2425
39994SOL    HW223481   7.429   7.667   3.215 -0.6730 -0.2318 -1.7070
39995SOL     OW23482   7.318   0.232   0.180 -0.3199 -0.3086 -0.5148
39995SOL    HW123483   7.402   0.239   0.225  0.4025 -0.8078 -1.7348
39995SOL    HW223484   7.252   0.252   0.247  0.7297 -0.6435  0.6358
39996SOL     OW23485   9.390   0.193   7.919 -0.1607 -0.0527 -0.0339
39996SOL    HW123486   9.419   0.252   7.989  0.8128  0.9366 -1.2335
39996SOL    HW223487   9.442   0.113   7.932  3.3861  1.6634 -2.1233
39997SOL     OW23488   2.239   6.252   7.280 -0.1463 -0.6780  0.5433
39997SOL    HW123489   2.232   6.158   7.266 -0.6038 -0.7099  0.9434
39997SOL    HW223490   2.322   6.277   7.239 -0.3794 -1.1243 -0.2168
39998SOL     OW23491   7.299   6.754   6.642 -0.2368  0.1952 -0.1506
39998SOL    HW123492   7.308   6.816   6.714  1.0684 -2.1247  1.8591
39998SOL    HW223493   7.215   6.711   6.657  0.4161 -0.8879  0.5749
39999SOL     OW23494   9.290   8.361  10.162 -0.0874 -0.3714 -0.0352
39999SOL    HW123495   9.364   8.356  10.102 -0.0962 -1.3783  0.0306
39999SOL    HW223496   9.220   8.401  10.111 -0.0620 -1.1080 -0.6618
40000SOL     OW23497   7.148   3.926  10.646  0.1623 -0.3771  0.3784
40000SOL    HW123498   7.180   3.952  10.559 -1.7604  1.6188  0.1482
40000SOL    HW223499   7.178   3.996  10.704 -1.0453 -0.1071  0.7137
40001SOL     OW23500   0.699   5.010   6.291 -0.6982 -0.3769  0.1103
40001SOL    HW123501   0.665   5.100   6.297  0.3591  0.0156  0.5311
40001SOL    HW223502   0.714   4.996   6.198 -0.2837  0.1145  0.0999
40002SOL     OW23503   4.120   5.827   9.592  0.5615 -0.1544  0.0148
40002SOL    HW123504   4.143   5.740   9.624  0.5486 -0.1378  0.0692
40002SOL    HW223505   4.170   5.837   9.511 -1.9424 -1.5710 -1.8636
40003SOL     OW23506   9.022   8.199   0.148  0.3380 -0.1074 -0.0510
40003SOL    HW123507   9.108   8.176   0.113 -0.0538 -0.7353 -0.6132
40003SOL    HW223508   8.964   8.203   0.072 -0.2784 -0.3462  0.3933
40004SOL     OW23509  10.021   4.192  10.952 -0.4314  0.5033  0.6048
40004SOL    HW123510   9.944   4.219  11.002 -1.0245 -2.3292  1.3621
40004SOL    HW223511  10.013   4.097  10.944  2.7508  0.1635  0.3007
40005SOL     OW23512   6.935   0.624  10.613 -0.4677 -0.1845  0.6442
40005SOL    HW123513   7.000   0.564  10.649 -0.1448 -1.2132 -1.5171
40005SOL    HW223514   6.953   0.627  10.519 -3.2595 -0.1753  0.0069
40006SOL     OW23515   5.362   8.217   2.745 -0.1710  0.0658  0.5079
40006SOL    HW123516   5.349   8.307   2.715  0.9740  0.7029  1.8044
40006SOL    HW223517   5.451   8.195   2.717 -0.4309 -0.6647  0.2290
40007SOL     OW23518   0.274   3.779  10.025 -0.7189 -0.3260  0.0129
40007SOL    HW123519   0.275   3.828  10.107 -1.3349 -0.0427 -0.1420
40007SOL    HW223520   0.185   3.744  10.020 -0.0706 -2.1836  0.5464
40008SOL     OW23521   2.288   8.496   0.748 -0.2444  0.2026 -0.1785
40008SOL    HW123522   2.338   8.575   0.771 -0.6378  0.3378  0.2482
40008SOL    HW223523   2.206   8.506   0.796 -0.7901  0.1148 -1.0817
40009SOL     OW23524   2.290   4.585   4.387  0.1832 -0.2424  0.2368
40009SOL    HW123525   2.272   4.491   4.377 -0.6310  0.0140 -0.8383
40009SOL    HW223526   2.224   4.615   4.451 -1.2887  0.0784 -1.3625
40010SOL     OW23527   4.691  10.585  10.074  0.1687 -0.1534 -0.6044
40010SOL    HW123528   4.687  10.660  10.015  0.6243 -0.0472 -0.5077
40010SOL    HW223529   4.776  10.545  10.056  0.7641  0.4730  0.6846
40011SOL     OW23530   0.404   6.979   8.182  1.0499  0.4316 -0.6173
40011SOL    HW123531   0.390   6.907   8.121  2.1878  0.7038 -1.2125
40011SOL    HW223532   0.320   6.986   8.229 -0.0088  0.5019 -2.4271
40012SOL     OW23533   4.397  10.438   8.741  0.1551  0.5836  0.1802
40012SOL    HW123534   4.431  10.527   8.753  0.4856  0.2866  1.7626
40012SOL    HW223535   4.302  10.446   8.755 -0.2519  1.1108 -2.4399
40013SOL     OW23536   5.331   3.340   7.342 -0.3227 -0.6792 -0.1593
40013SOL    HW123537   5.275   3.364   7.268 -3.4397 -1.7063  1.6708
40013SOL    HW223538   5.381   3.265   7.311 -1.3735 -0.9217 -1.3479
40014SOL     OW23539   8.291   9.284   4.587 -0.3518  0.2751 -0.5817
40014SOL    HW123540   8.296   9.263   4.494 -1.7150  1.6648 -1.0080
40014SOL    HW223541   8.283   9.199   4.630 -0.4009 -0.3518 -1.7820
40015SOL     OW23542   0.142   1.276   6.191  0.3042 -0.1351 -0.4063
40015SOL    HW123543   0.111   1.366   6.191  0.2266 -0.1305 -2.2692
40015SOL    HW223544   0.191   1.267   6.273 -0.4540  1.3030  0.2381
40016SOL     OW23545   5.137   2.807   6.415  0.2522  0.4951 -0.0408
40016SOL    HW123546   5.110   2.765   6.334  0.4017  0.0015  0.1625
40016SOL    HW223547   5.152   2.735   6.476 -1.0064  0.8970  0.7897
40017SOL     OW23548   6.496   5.984   1.354 -0.0155 -0.1024 -0.1556
40017SOL    HW123549   6.554   5.915   1.386 -2.0211 -1.7377  0.1826
40017SOL    HW223550   6.463   6.026   1.434 -0.1351  0.0900 -0.3033
40018SOL     OW23551  10.740   2.260   0.060 -0.1723 -0.4797 -0.0688
40018SOL    HW123552  10.806   2.275   0.128 -0.3108  1.7224 -0.3242
40018SOL    HW223553  10.790   2.254  -0.021 -0.1271 -1.4657  0.0198
40019SOL     OW23554   4.888   2.585   2.513  0.5437 -0.1707  0.6075
40019SOL    HW123555   4.859   2.599   2.603  4.5092  3.1956  1.6946
40019SOL    HW223556   4.861   2.664   2.466  0.6046 -0.8099 -0.5446
40020SOL     OW23557   3.626   5.467   5.271  0.0924  0.0438 -0.6547
40020SOL    HW123558   3.686   5.513   5.213  1.6157 -0.5483  0.4050
40020SOL    HW223559   3.625   5.520   5.351 -2.8253  1.4677 -1.4713
40021SOL     OW23560   2.552   1.778   1.396 -0.1272  0.0709  0.2349
40021SOL    HW123561   2.553   1.735   1.482  0.7821  1.3018  0.8685
40021SOL    HW223562   2.642   1.767   1.364  0.5629  2.6800  1.0598
40022SOL     OW23563   0.985   1.875   2.563  0.0309 -0.1441  0.5549
40022SOL    HW123564   0.991   1.780   2.559  0.5460 -0.1151  0.5689
40022SOL    HW223565   0.954   1.894   2.651  0.5129 -0.2756  0.7552
40023SOL     OW23566   0.490   2.178   8.814 -0.8368 -0.2078 -0.0075
40023SOL    HW123567   0.486   2.097   8.764  1.1316 -0.7322  0.5954
40023SOL    HW223568   0.423   2.168   8.882 -0.2031 -1.6258  0.4465
40024SOL     OW23569   3.408  10.738   7.907 -0.4115  0.1731 -0.7338
40024SOL    HW123570   3.452  10.669   7.956 -1.1042  0.7732  0.7729
40024SOL    HW223571   3.456  10.818   7.930 -2.4107  0.8907  1.1876
40025SOL     OW23572   5.577   2.896   4.222  0.1663 -0.1720 -0.6166
40025SOL    HW123573   5.535   2.810   4.224  1.8117 -1.0564 -1.9088
40025SOL    HW223574   5.580   2.924   4.313 -1.3647 -0.9799 -0.2937
40026SOL     OW23575   7.464   0.982   3.503 -0.0741  0.0849  0.1360
40026SOL    HW123576   7.369   0.973   3.494 -0.3743  0.2603  2.5627
40026SOL    HW223577   7.477   1.016   3.591  2.1770  2.0064 -0.8146
40027SOL     OW23578   2.062   3.327   2.974 -0.0916  0.0095  0.1091
40027SOL    HW123579   2.130   3.262   2.960 -0.8765 -0.5569 -1.2854
40027SOL    HW223580   2.069   3.387   2.899 -0.8695  0.1622  0.1416
40028SOL     OW23581   8.938   6.562   2.712 -0.0427  0.0963  0.6054
40028SOL    HW123582   8.946   6.657   2.724 -0.6955  0.4342 -1.2876
40028SOL    HW223583   8.865   6.552   2.651  1.1618 -1.5147 -0.6389
40029SOL     OW23584   2.882   9.735   4.663  0.5955 -0.4760 -0.0981
40029SOL    HW123585   2.923   9.649   4.672  1.0384 -0.5064 -1.8707
40029SOL    HW223586   2.788   9.717   4.661  0.5659 -0.6641  1.6427
40030SOL     OW23587   2.349   2.854   1.438  0.3586 -0.0674 -0.1689
40030SOL    HW123588   2.440   2.825   1.439  0.7037  0.9770 -0.2131
40030SOL    HW223589   2.326   2.864   1.530  1.3098  2.6761 -0.1542
40031SOL     OW23590   8.169   0.678   7.933  0.3378  0.0548 -0.4359
40031SOL    HW123591   8.198   0.635   7.852 -0.7869 -1.1895 -0.2263
40031SOL    HW223592   8.241   0.667   7.994  1.5263  1.6964 -1.4628
40032SOL     OW23593   5.646   2.982   0.995 -0.1627  0.7554  0.8717
40032SOL    HW123594   5.734   2.972   1.032  0.0731 -1.1268 -0.0891
40032SOL    HW223595   5.644   3.073   0.964  1.3503  0.9202  1.1520
40033SOL     OW23596   1.188   1.815   6.181 -0.2363 -0.7576 -0.0823
40033SOL    HW123597   1.101   1.851   6.201 -0.6745 -1.2892 -0.9754
40033SOL    HW223598   1.240   1.892   6.156 -0.5232 -0.4642  0.2153
40034SOL     OW23599  10.893   0.565   4.948  0.4067  0.3836  0.4768
40034SOL    HW123600  10.934   0.497   5.001 -1.6848  0.0318  1.7512
40034SOL    HW223601  10.805   0.532   4.929 -0.3629  2.3189  0.3877
40035SOL     OW23602   5.841   0.539   7.124  0.0931 -0.0362 -0.6906
40035SOL    HW123603   5.861   0.480   7.051  0.1860 -0.7686 -0.0749
40035SOL    HW223604   5.927   0.572   7.151  0.0364  0.4387 -1.0719
40036SOL     OW23605   6.613   8.474  11.004  0.1260 -0.0530  0.6278
40036SOL    HW123606   6.667   8.513  10.935  2.0293 -1.6615  1.0877
40036SOL    HW223607   6.675   8.455  11.074 -1.5544  0.4439  2.3323
40037SOL     OW23608   0.177   6.736   4.792  0.0041 -0.1034 -0.1303
40037SOL    HW123609   0.220   6.820   4.811 -0.2974  0.2879 -1.1054
40037SOL    HW223610   0.248   6.672   4.791  0.2490  0.1483  0.5214
40038SOL     OW23611   6.896   1.084   4.421  0.1624 -0.5615  0.3826
40038SOL    HW123612   6.915   1.153   4.485 -0.6363  0.5027 -0.4851
40038SOL    HW223613   6.982   1.049   4.397  0.5071 -0.6104  1.6185
40039SOL     OW23614   8.815  10.666   3.945 -0.5307 -0.5788 -0.5751
40039SOL    HW123615   8.727  10.655   3.979  0.1533  0.5993  1.7705
40039SOL    HW223616   8.840  10.579   3.914 -1.4279 -1.6691  1.5709
40040SOL     OW23617   9.118   8.157   5.999 -0.4613  0.0992 -0.0500
40040SOL    HW123618   9.143   8.249   6.002  4.3731 -0.8705 -2.3237
40040SOL    HW223619   9.083   8.143   5.911 -2.1679 -0.1423  0.6183
40041SOL     OW23620   3.592   7.804   2.577  0.3145  0.2959 -0.0246
40041SOL    HW123621   3.501   7.787   2.599  0.1741 -0.8130 -1.3090
40041SOL    HW223622   3.642   7.742   2.630  0.0748 -1.3359 -1.5995
40042SOL     OW23623   2.493   8.540   9.971 -0.0990  0.9589 -0.5873
40042SOL    HW123624   2.404   8.508   9.954  0.0888  0.5861 -0.8939
40042SOL    HW223625   2.543   8.462   9.992 -0.5181  1.4687  2.7695
40043SOL     OW23626   4.502   7.442   3.246 -0.0798  0.0483 -0.2710
40043SOL    HW123627   4.492   7.473   3.156 -0.1533 -1.1121 -0.6758
40043SOL    HW223628   4.466   7.353   3.245 -2.2420  0.8063  1.4275
40044SOL     OW23629   8.954   1.725   9.429  0.1876 -0.2912  0.6281
40044SOL    HW123630   8.977   1.741   9.520  0.6117 -0.3705  0.5398
40044SOL    HW223631   8.877   1.780   9.414  0.7464  0.5547  0.7403
40045SOL     OW23632   2.512   3.186   2.338  0.3999  0.5485  0.7826
40045SOL    HW123633   2.542   3.186   2.247 -1.7952 -0.7067 -0.0125
40045SOL    HW223634   2.538   3.100   2.371 -2.7377 -0.9091 -0.1736
40046SOL     OW23635   6.845   8.751   0.197 -0.3178 -1.0580  0.7198
40046SOL    HW123636   6.838   8.659   0.173 -0.2792 -1.1943  1.2326
40046SOL    HW223637   6.755   8.783   0.197 -0.2506 -0.8125 -0.5425
40047SOL     OW23638   7.733  10.576   6.400 -0.1003  0.2334 -0.0169
40047SOL    HW123639   7.791  10.649   6.421  0.5081 -0.3275  0.2610
40047SOL    HW223640   7.782  10.524   6.337  0.2526 -0.9434  1.1901
40048SOL     OW23641  10.342   1.210   0.629 -0.4324  0.5731  0.7265
40048SOL    HW123642  10.295   1.281   0.586 -1.9817 -0.6149  0.3606
40048SOL    HW223643  10.304   1.130   0.592 -0.7568 -0.4922  3.1562
40049SOL     OW23644  10.236   4.195   3.654 -0.3859  0.2343 -0.1698
40049SOL    HW123645  10.271   4.115   3.615 -0.2542  0.0356  0.3517
40049SOL    HW223646  10.189   4.166   3.732  1.9682  0.8763  1.5992
40050SOL     OW23647   6.144   2.710   3.834 -0.5761 -0.6501  0.6622
40050SOL    HW123648   6.157   2.805   3.839 -3.9305 -0.1251  1.3717
40050SOL    HW223649   6.164   2.680   3.923 -2.0578 -0.1711  1.1830
40051SOL     OW23650  10.551   9.657   4.067  0.3448 -0.0855  0.2811
40051SOL    HW123651  10.585   9.746   4.080 -1.0510  0.2199  2.1427
40051SOL    HW223652  10.508   9.660   3.981  0.5687  0.9484  0.1978
40052SOL     OW23653   4.092   5.409   4.826 -0.1497  0.3768  0.0616
40052SOL    HW123654   4.172   5.405   4.773  0.0827  2.0459  0.2256
40052SOL    HW223655   4.078   5.320   4.855  1.4939 -0.0041 -0.2207
40053SOL     OW23656   1.373   3.361   4.633  0.2695 -0.9329  0.3146
40053SOL    HW123657   1.293   3.412   4.620  0.2598 -0.3022  2.5129
40053SOL    HW223658   1.411   3.353   4.545 -1.2304  0.3438 -0.4973
40054SOL     OW23659   5.056   9.111   2.000 -0.5471 -0.1946 -0.2991
40054SOL    HW123660   5.022   9.101   1.911 -1.2713  0.7025 -0.1325
40054SOL    HW223661   4.985   9.081   2.056  0.4639 -2.2625 -0.0206
40055SOL     OW23662   0.808   9.781   3.846 -0.0425 -0.2514  0.1708
40055SOL    HW123663   0.893   9.739   3.833 -0.7776 -1.6145 -0.4316
40055SOL    HW223664   0.771   9.738   3.923 -0.7897 -0.7163 -0.4321
40056SOL     OW23665   1.198   6.767   4.606  0.2075  0.4395 -0.2034
40056SOL    HW123666   1.153   6.791   4.687  0.2498  0.8074 -0.2854
40056SOL    HW223667   1.285   6.737   4.634  0.9839  2.4853 -0.2269
40057SOL     OW23668  10.498   7.358   9.060  0.3723 -0.8725 -0.2884
40057SOL    HW123669  10.583   7.386   9.025 -0.3900  1.0267 -0.7928
40057SOL    HW223670  10.439   7.430   9.037 -0.9463 -1.2161  1.7923
40058SOL     OW23671   8.030  10.935   5.726 -0.5111  0.3000 -0.3633
40058SOL    HW123672   8.067  11.019   5.754 -1.1887  0.2958  0.6261
40058SOL    HW223673   7.990  10.953   5.642 -1.2767  1.1597  0.1678
40059SOL     OW23674   9.008   5.200   7.056 -0.1921 -0.0287  0.3066
40059SOL    HW123675   9.005   5.187   6.961 -4.5960 -0.8624  0.3538
40059SOL    HW223676   8.997   5.294   7.068 -0.1228  0.0186  0.0050
40060SOL     OW23677   4.661   8.010   2.985  0.3302  0.2636  0.4495
40060SOL    HW123678   4.568   8.022   3.002  0.1072  0.6791 -0.9553
40060SOL    HW223679   4.677   7.917   3.002 -0.3246  0.2059  0.7587
40061SOL     OW23680   6.339   1.882   7.261  0.5604  0.2199 -0.2165
40061SOL    HW123681   6.407   1.946   7.239 -0.3305  0.7998 -1.3778
40061SOL    HW223682   6.379   1.797   7.241  1.4498  0.4544  0.5166
40062SOL     OW23683  10.889   0.829   4.840 -0.2407 -0.5236 -0.8966
40062SOL    HW123684  10.876   0.745   4.883  0.8229 -0.2760 -0.0359
40062SOL    HW223685  10.959   0.813   4.777 -1.5224 -0.7876 -2.3160
40063SOL     OW23686   2.797   5.434   5.358  0.9462 -0.1865  0.4778
40063SOL    HW123687   2.812   5.360   5.416  0.5656 -0.7799 -0.1646
40063SOL    HW223688   2.877   5.440   5.305  0.5604 -0.8107 -0.1898
40064SOL     OW23689   0.209   8.971   2.582 -0.6175  0.7997  0.0934
40064SOL    HW123690   0.267   8.925   2.642 -0.0861  1.7947  0.3732
40064SOL    HW223691   0.264   9.039   2.543 -0.4256 -0.9282 -2.9445
40065SOL     OW23692   9.274   0.078   1.187  0.2420  0.3446 -0.3240
40065SOL    HW123693   9.350   0.136   1.182  0.4813 -0.0052 -0.8477
40065SOL    HW223694   9.240   0.091   1.276  0.4452  1.0830 -0.3483
40066SOL     OW23695   3.583   6.028   4.072 -0.1620 -0.1029  0.1531
40066SOL    HW123696   3.562   5.946   4.116  1.9843 -0.1666  1.1885
40066SOL    HW223697   3.595   6.004   3.980  1.1747 -1.1222  0.5722
40067SOL     OW23698   7.336   7.317   8.456 -0.7002 -0.1505 -0.3724
40067SOL    HW123699   7.255   7.358   8.486 -0.5018 -0.4391  0.6154
40067SOL    HW223700   7.309   7.231   8.423 -0.6346 -1.0312  1.6725
40068SOL     OW23701   1.601   4.900  10.580  0.1797 -0.2096 -0.6412
40068SOL    HW123702   1.605   4.882  10.486 -0.1496 -1.9577 -0.3688
40068SOL    HW223703   1.674   4.851  10.617 -0.9076 -1.2721  0.2028
40069SOL     OW23704   0.647   6.693   0.496  0.0298 -0.3480  0.4433
40069SOL    HW123705   0.712   6.753   0.534 -0.5623  0.3302  0.4123
40069SOL    HW223706   0.679   6.605   0.518  0.1402  0.0078  1.8056
40070SOL     OW23707   5.321   5.310   4.331  0.0938 -0.2214 -0.1688
40070SOL    HW123708   5.379   5.265   4.271  1.1738  1.7383 -0.6772
40070SOL    HW223709   5.343   5.403   4.321 -1.8427  0.4243  0.9926
40071SOL     OW23710   2.823   9.245   9.928 -0.3753 -0.0473  0.0662
40071SOL    HW123711   2.902   9.281   9.888 -1.7197 -0.3853 -3.2467
40071SOL    HW223712   2.822   9.153   9.900 -1.8453 -0.0878  0.1649
40072SOL     OW23713   4.622   0.797   4.928  0.4698  0.5531  0.0781
40072SOL    HW123714   4.637   0.778   4.835 -0.2233  0.1971  0.0330
40072SOL    HW223715   4.587   0.715   4.964  2.0844  0.2216  0.9873
40073SOL     OW23716   6.699   6.594   1.435  0.4140 -0.1648  0.1987
40073SOL    HW123717   6.656   6.655   1.375  1.2301  0.5932  0.3690
40073SOL    HW223718   6.627   6.549   1.478 -0.2002 -0.6488 -1.2537
40074SOL     OW23719   8.737   1.728   0.943  0.1574  0.0868 -0.1958
40074SOL    HW123720   8.738   1.761   1.033 -0.1293 -2.1810  0.6952
40074SOL    HW223721   8.663   1.773   0.902 -0.6067  0.0856  1.1251
40075SOL     OW23722   3.130   2.916   1.316  0.5889  0.1243 -0.0009
40075SOL    HW123723   3.098   2.877   1.234 -1.0957  0.5502  0.4080
40075SOL    HW223724   3.050   2.938   1.364  1.4814  2.6007  0.4897
40076SOL     OW23725  10.815   8.454   7.989 -0.3499  0.6330  0.0581
40076SOL    HW123726  10.730   8.434   8.027 -0.0718 -0.6172  0.0469
40076SOL    HW223727  10.873   8.385   8.021  0.7271  1.5953  0.2589
40077SOL     OW23728   0.341   9.433   1.799 -0.5162 -0.1170  0.9205
40077SOL    HW123729   0.372   9.405   1.714  1.2214 -0.9357  1.7745
40077SOL    HW223730   0.283   9.363   1.829  0.3070 -0.6972  1.1690
40078SOL     OW23731   7.734   6.782   4.925  0.0192  0.2025 -0.4466
40078SOL    HW123732   7.782   6.749   4.849 -0.1934 -0.0761 -0.4618
40078SOL    HW223733   7.727   6.707   4.984  2.1785  0.9779  0.8912
40079SOL     OW23734   5.042   8.294   0.520 -0.5047 -0.3987  0.3761
40079SOL    HW123735   5.069   8.345   0.596  0.2807  0.9914 -0.7734
40079SOL    HW223736   4.950   8.316   0.508  0.3703  2.9712 -1.6020
40080SOL     OW23737  10.981   6.566   4.094  0.5954  0.0163 -0.3901
40080SOL    HW123738  11.003   6.533   4.181 -1.0119  2.4268  1.0367
40080SOL    HW223739  10.927   6.497   4.055  0.9783 -0.9208  0.6933
40081SOL     OW23740   7.136   8.100   5.635 -0.2589  0.4798  0.5583
40081SOL    HW123741   7.092   8.080   5.717 -0.1616 -0.2399  0.4426
40081SOL    HW223742   7.141   8.196   5.633 -0.9681  0.5328  1.0093
40082SOL     OW23743   4.400  10.413   4.256 -0.2849  0.9290  0.1754
40082SOL    HW123744   4.470  10.437   4.316  2.5080 -1.4798 -1.7957
40082SOL    HW223745   4.435  10.436   4.169 -1.7900 -0.6231 -0.9035
40083SOL     OW23746  10.646   3.704  10.889 -0.1465 -0.2220 -0.6021
40083SOL    HW123747  10.610   3.623  10.852 -1.1261 -0.7804  1.4546
40083SOL    HW223748  10.698   3.675  10.964 -0.4894  1.0593  0.1527
40084SOL     OW23749   4.513   4.120   3.659  0.0256  0.0714  0.5878
40084SOL    HW123750   4.608   4.118   3.662  0.1048 -0.0735 -1.0216
40084SOL    HW223751   4.492   4.205   3.621 -0.3263 -1.0423 -1.8989
40085SOL     OW23752   0.527   6.774   6.153 -0.2226 -0.1262  0.0147
40085SOL    HW123753   0.605   6.738   6.110  0.1950 -0.9882  1.4285
40085SOL    HW223754   0.553   6.784   6.245 -0.7547  2.5967 -0.0364
40086SOL     OW23755   2.191   1.154   9.563 -0.0954  0.2573 -1.0596
40086SOL    HW123756   2.193   1.248   9.551 -0.9365  0.4890  0.3487
40086SOL    HW223757   2.230   1.140   9.650 -0.3172 -0.6431 -1.0936
40087SOL     OW23758   6.705   3.069   0.247 -0.9191 -0.0966  0.4749
40087SOL    HW123759   6.751   3.013   0.309  0.3810  0.8514  0.4146
40087SOL    HW223760   6.775   3.109   0.195 -1.8857  0.5450 -0.3575
40088SOL     OW23761  10.022   4.161   5.103  0.4030 -0.2385 -0.4830
40088SOL    HW123762  10.066   4.161   5.018  1.2285 -0.0453 -0.0630
40088SOL    HW223763   9.938   4.204   5.086  0.5935 -0.1321 -1.1841
40089SOL     OW23764   7.411   0.091   5.422 -0.3539  0.0747  0.5098
40089SOL    HW123765   7.356   0.163   5.394 -0.4592 -0.0379  0.4266
40089SOL    HW223766   7.396   0.022   5.357 -2.5260 -1.1399  2.1574
40090SOL     OW23767   5.533   6.831   0.102 -0.1878  0.0071 -0.0120
40090SOL    HW123768   5.548   6.909   0.154  0.5111 -0.7956  1.0287
40090SOL    HW223769   5.609   6.825   0.044  0.6074 -0.7924  1.0788
40091SOL     OW23770   4.186   7.156  10.769  0.4632 -0.1174  0.1843
40091SOL    HW123771   4.219   7.117  10.688 -1.7519 -1.5245 -0.1237
40091SOL    HW223772   4.225   7.102  10.839 -0.5337 -1.2760 -0.1308
40092SOL     OW23773  10.499   9.815   1.236 -0.3954  0.1540  0.4653
40092SOL    HW123774  10.451   9.739   1.267 -0.6976  0.4552  0.7414
40092SOL    HW223775  10.526   9.792   1.147  0.0543 -0.5198  0.7658
40093SOL     OW23776   4.795   1.179   8.375  0.2881 -0.0994 -0.1803
40093SOL    HW123777   4.811   1.118   8.303  0.0240  1.6210 -1.7923
40093SOL    HW223778   4.700   1.175   8.389  0.5884 -2.3295  1.9480
40094SOL     OW23779   1.573   1.309   3.050 -0.3989 -0.0365 -0.1262
40094SOL    HW123780   1.651   1.261   3.024 -0.7476 -0.2100 -0.8576
40094SOL    HW223781   1.590   1.399   3.024 -0.1437  0.0710  0.3860
40095SOL     OW23782   7.640   8.726   0.771 -0.0808 -0.0405  0.2611
40095SOL    HW123783   7.639   8.821   0.777 -0.4773 -0.0471  0.3783
40095SOL    HW223784   7.702   8.698   0.838  0.5462  0.1598 -0.2291
40096SOL     OW23785   8.488   8.781   5.200  0.3013 -0.5803 -0.3565
40096SOL    HW123786   8.555   8.771   5.267 -0.2530 -1.8281  0.0477
40096SOL    HW223787   8.420   8.834   5.241  1.1585  1.0262 -0.8972
40097SOL     OW23788   6.318   8.090   9.722 -0.3449 -0.1964  0.3923
40097SOL    HW123789   6.380   8.044   9.778  0.6959 -1.4148 -1.6507
40097SOL    HW223790   6.345   8.182   9.728 -0.8416 -0.1230  2.5163
40098SOL     OW23791   6.923   6.274   4.480  0.2754 -0.7823  0.0534
40098SOL    HW123792   6.988   6.344   4.470  0.4585 -1.0438 -0.6187
40098SOL    HW223793   6.948   6.230   4.561  0.0858 -0.0020  0.5489
40099SOL     OW23794   9.487   7.446   7.234  0.5102 -0.4245  0.4788
40099SOL    HW123795   9.568   7.484   7.269 -0.3726  1.7467  0.3026
40099SOL    HW223796   9.473   7.492   7.151 -2.9074  2.2960  2.2945
40100SOL     OW23797   3.219   1.844   9.401 -0.6895  0.1693 -1.1540
40100SOL    HW123798   3.278   1.833   9.326 -0.6262 -2.7724 -0.7687
40100SOL    HW223799   3.259   1.915   9.452 -0.5054  1.9496 -3.6104
40101SOL     OW23800   4.990   1.255   9.944 -0.0828  0.3172 -0.1783
40101SOL    HW123801   5.010   1.299   9.861  0.3700  1.2076  0.3906
40101SOL    HW223802   5.076   1.228   9.978 -0.3900 -1.7211 -0.8680
40102SOL     OW23803   3.709   2.534   4.460  0.4957  0.1358 -0.1781
40102SOL    HW123804   3.713   2.458   4.518  1.3125  0.6333  0.4278
40102SOL    HW223805   3.643   2.591   4.499  0.6006  0.1888 -0.0770
40103SOL     OW23806   1.650   9.294   3.469  0.0230 -0.1031 -0.5233
40103SOL    HW123807   1.641   9.323   3.559 -0.5631  0.5486 -0.7826
40103SOL    HW223808   1.572   9.240   3.452 -0.4366  0.6762 -0.9617
40104SOL     OW23809   8.309  10.488   5.055 -0.1588 -0.4484 -0.3921
40104SOL    HW123810   8.288  10.395   5.044 -1.1914 -0.2693 -0.0720
40104SOL    HW223811   8.240  10.533   5.006  0.9751  0.1458 -1.5138
40105SOL     OW23812   8.154   9.501   6.659 -0.0322 -0.2465 -0.0589
40105SOL    HW123813   8.139   9.595   6.652 -0.1891 -0.3926 -2.5812
40105SOL    HW223814   8.170   9.486   6.752  1.1007  2.4337  0.2734
40106SOL     OW23815   8.289   2.673   7.772 -0.6282  0.1661 -0.3418
40106SOL    HW123816   8.273   2.716   7.688 -2.7112  1.2188  0.5244
40106SOL    HW223817   8.302   2.581   7.750 -1.4110  0.3734 -1.8045
40107SOL     OW23818   9.895   3.213   2.717 -0.2445  0.3330 -0.1413
40107SOL    HW123819   9.950   3.183   2.789  1.2589  1.5994 -0.7074
40107SOL    HW223820   9.866   3.133   2.673  2.4068 -0.3826 -0.7205
40108SOL     OW23821   4.511  10.018   6.583  0.1663 -0.3560 -0.4999
40108SOL    HW123822   4.593  10.067   6.594 -0.2020  0.4969 -1.3963
40108SOL    HW223823   4.539   9.928   6.566  0.8893 -0.2396  0.0210
40109SOL     OW23824   3.165  10.410   6.618  0.1209  0.2710  0.4297
40109SOL    HW123825   3.182  10.482   6.678  2.2838  0.5226 -0.3911
40109SOL    HW223826   3.241  10.409   6.559 -1.1285 -0.9907 -1.2707
40110SOL     OW23827   1.848   8.525   4.603  0.6186 -0.3142  0.3751
40110SOL    HW123828   1.759   8.497   4.624 -0.8117  2.8379 -0.8467
40110SOL    HW223829   1.870   8.478   4.523 -1.1522  0.9121 -0.8954
40111SOL     OW23830   8.147   1.871   0.052 -0.2061 -0.4169  0.0902
40111SOL    HW123831   8.061   1.911   0.034 -0.3352 -1.0989 -0.9165
40111SOL    HW223832   8.129   1.804   0.118 -0.0912  0.7363  1.3350
40112SOL     OW23833   1.200   8.342   5.112  0.1575  0.0486  0.0317
40112SOL    HW123834   1.150   8.288   5.052  0.1788  2.2306 -2.1088
40112SOL    HW223835   1.170   8.431   5.095  2.1862  1.0569  1.2863
40113SOL     OW23836   4.239   7.240   4.377  0.0744  0.1851 -0.0119
40113SOL    HW123837   4.158   7.192   4.358  1.2750 -1.7904 -0.4570
40113SOL    HW223838   4.244   7.243   4.472 -0.9643  1.1860  0.0373
40114SOL     OW23839   3.595  10.597   7.323 -0.2448  0.2430  0.4875
40114SOL    HW123840   3.672  10.542   7.336  1.0852  1.9994  0.4852
40114SOL    HW223841   3.556  10.566   7.242  1.1139  0.0175 -0.1062
40115SOL     OW23842   3.856   6.350   4.911  0.6222  0.3000  0.4023
40115SOL    HW123843   3.844   6.432   4.863 -1.2603  0.8702  1.7276
40115SOL    HW223844   3.889   6.289   4.846 -1.9917  0.9704 -1.7154
40116SOL     OW23845   1.947   3.117   2.481 -0.3785 -0.7390 -0.1708
40116SOL    HW123846   2.028   3.099   2.529  0.9057  1.9739 -1.0800
40116SOL    HW223847   1.880   3.127   2.549  0.6687 -0.2901  0.8208
40117SOL     OW23848   9.057   5.044   0.798 -0.1168 -0.1528  0.2894
40117SOL    HW123849   9.134   5.001   0.835  2.1562  0.8521 -2.8239
40117SOL    HW223850   9.026   4.985   0.730 -1.9422 -0.3535  1.2230
40118SOL     OW23851   3.723   5.428   6.223 -0.6234 -0.1854  0.3392
40118SOL    HW123852   3.729   5.521   6.202 -0.2058 -0.5257 -1.1899
40118SOL    HW223853   3.765   5.384   6.149 -2.1645 -1.6647  0.2753
40119SOL     OW23854   7.361   2.174   5.882 -0.5928 -0.9319  0.1238
40119SOL    HW123855   7.364   2.235   5.956 -0.4027 -0.5492 -0.1939
40119SOL    HW223856   7.267   2.159   5.868 -0.6917 -3.9697  2.8138
40120SOL     OW23857   1.357   4.975   6.656 -0.1713  0.0324  0.5213
40120SOL    HW123858   1.356   4.886   6.692  1.6784 -0.1982  0.1197
40120SOL    HW223859   1.336   4.964   6.563 -0.8742  0.1435  0.6607
40121SOL     OW23860   5.529  10.092   9.364 -0.1522  0.1946 -0.0729
40121SOL    HW123861   5.617  10.055   9.354 -0.2909  0.0355 -0.7381
40121SOL    HW223862   5.470  10.023   9.332 -0.4023  1.0592 -1.5852
40122SOL     OW23863  10.465  10.651   9.297  0.4467  0.1232 -0.0626
40122SOL    HW123864  10.428  10.660   9.384 -1.3742  0.1696 -0.7941
40122SOL    HW223865  10.491  10.740   9.273 -1.4851  0.6125 -0.5401
40123SOL     OW23866   3.429   5.341   8.474 -0.2324  0.2404 -0.5848
40123SOL    HW123867   3.496   5.392   8.520 -0.1144 -0.8487  0.5201
40123SOL    HW223868   3.347   5.362   8.519 -0.2493 -0.2254 -0.3956
40124SOL     OW23869   8.773   7.710   1.881  0.2125 -0.0649 -0.1962
40124SOL    HW123870   8.845   7.741   1.827 -1.0607  0.9235 -1.4178
40124SOL    HW223871   8.809   7.706   1.969  1.2944  2.1222 -0.4716
40125SOL     OW23872   8.406   5.816   3.384  0.0961 -0.6313 -0.4046
40125SOL    HW123873   8.449   5.901   3.389 -3.3173  1.4102 -1.8824
40125SOL    HW223874   8.461   5.757   3.436  4.1755  1.7248 -1.6680
40126SOL     OW23875   2.060   5.715   2.574 -0.0840 -0.0818 -0.5203
40126SOL    HW123876   2.137   5.666   2.545 -0.5652 -0.6041 -0.9525
40126SOL    HW223877   2.087   5.756   2.656  0.7664  0.0340 -0.8508
40127SOL     OW23878   5.430  10.236   7.376 -0.5343 -0.2397  0.3250
40127SOL    HW123879   5.478  10.166   7.330  1.2346  0.9555  0.2566
40127SOL    HW223880   5.439  10.213   7.469  0.7570  0.2783  0.3552
40128SOL     OW23881   5.262   4.575   6.623  0.4044 -0.0741  0.5941
40128SOL    HW123882   5.209   4.651   6.648 -0.1816 -0.4070  0.3933
40128SOL    HW223883   5.221   4.545   6.541  0.7013 -0.5364  0.6168
40129SOL     OW23884   5.071   0.312   9.789  0.4043 -0.4585 -0.6159
40129SOL    HW123885   5.088   0.264   9.871  2.3303  1.3916  0.1642
40129SOL    HW223886   5.080   0.246   9.721 -0.9116 -1.9876  0.6054
40130SOL     OW23887   8.766   7.151   2.330  0.5257  0.0654  0.2792
40130SOL    HW123888   8.840   7.200   2.365 -1.5241  2.0097  2.2759
40130SOL    HW223889   8.764   7.174   2.237  1.2604  1.5951  0.6036
40131SOL     OW23890   9.130   2.957   9.516 -0.3976  0.9309  0.2203
40131SOL    HW123891   9.124   3.034   9.460 -0.0227 -0.0182 -1.1630
40131SOL    HW223892   9.055   2.904   9.491  0.3486  0.0212 -0.1471
40132SOL     OW23893   0.661   2.518   0.160 -0.5608 -0.1443 -0.0049
40132SOL    HW123894   0.668   2.555   0.248 -0.1637 -0.3299  0.0429
40132SOL    HW223895   0.738   2.553   0.113 -1.5694  1.2030 -0.7428
40133SOL     OW23896   5.494   2.245   1.628 -0.2342  0.4808 -0.4055
40133SOL    HW123897   5.568   2.205   1.673 -1.1179 -1.8287 -0.8734
40133SOL    HW223898   5.426   2.250   1.695 -0.6514 -0.3668 -0.7532
40134SOL     OW23899   0.094   8.140   4.012 -0.0190 -0.9325 -0.4795
40134SOL    HW123900   0.100   8.178   3.924  1.8421 -3.3622 -1.4841
40134SOL    HW223901   0.136   8.055   4.005  1.2044 -0.7771  3.0642
40135SOL     OW23902   6.919   6.883   0.985 -0.7675  0.9273 -0.0545
40135SOL    HW123903   6.966   6.810   0.945  1.6193  0.9615  2.3689
40135SOL    HW223904   6.827   6.867   0.966 -0.0904 -1.1587 -1.9634
40136SOL     OW23905   5.881   6.263   1.835  0.1532 -0.6436 -0.0618
40136SOL    HW123906   5.908   6.193   1.775 -0.4901 -0.2832 -0.7761
40136SOL    HW223907   5.798   6.232   1.871 -0.4795  0.0630 -0.9013
40137SOL     OW23908   9.673   1.764   5.983  0.4301  0.4100  0.2965
40137SOL    HW123909   9.645   1.744   6.072 -1.9186  0.1253 -0.4506
40137SOL    HW223910   9.668   1.680   5.936  0.6228  0.7530 -0.3593
40138SOL     OW23911   1.949   5.432   5.916  0.4702 -0.9714  0.3666
40138SOL    HW123912   1.967   5.491   5.990  1.9799 -0.3132 -0.4926
40138SOL    HW223913   2.015   5.454   5.851  1.3704 -3.8985  0.1588
40139SOL     OW23914   4.578   2.255   4.574  0.4065  0.3740 -0.2737
40139SOL    HW123915   4.576   2.326   4.510  0.2609  0.8128  0.2139
40139SOL    HW223916   4.617   2.294   4.653 -0.8093  0.2579  0.4053
40140SOL     OW23917   8.596   7.975   4.784 -0.5653  0.0829  0.2526
40140SOL    HW123918   8.593   8.065   4.753 -0.4634  0.1646  0.4833
40140SOL    HW223919   8.515   7.962   4.833 -0.5113  0.0960  0.3468
40141SOL     OW23920   4.533   8.588   8.656 -0.1332 -0.6831  0.5068
40141SOL    HW123921   4.573   8.675   8.664  0.0094 -0.7589  0.6329
40141SOL    HW223922   4.569   8.553   8.574 -1.4772  0.0355 -0.4429
40142SOL     OW23923   8.214   1.929   6.951 -0.0800 -0.3413 -0.3138
40142SOL    HW123924   8.202   1.994   6.883  0.1841 -0.3570 -0.3741
40142SOL    HW223925   8.286   1.962   7.005  0.4651 -0.8783 -0.7010
40143SOL     OW23926  10.671   2.319   8.800  0.3182  0.3935  0.3531
40143SOL    HW123927  10.712   2.331   8.715 -2.9488 -0.5118 -1.5178
40143SOL    HW223928  10.655   2.408   8.832 -0.4332  0.8140 -1.1082
40144SOL     OW23929   0.194   8.335  10.702  0.0132 -0.3706  0.3524
40144SOL    HW123930   0.211   8.273  10.630  1.7051 -0.2503  0.6028
40144SOL    HW223931   0.213   8.421  10.664 -1.3195 -0.0754  0.3100
40145SOL     OW23932   7.294   2.874   4.747  0.3109  0.0448  0.0431
40145SOL    HW123933   7.365   2.867   4.812  0.1239  1.1426  0.3885
40145SOL    HW223934   7.275   2.783   4.723  1.4054 -0.3027  0.4101
40146SOL     OW23935   9.182   4.690   0.226  0.1539 -0.2024 -0.3711
40146SOL    HW123936   9.134   4.772   0.211  1.4897  0.4211 -1.4816
40146SOL    HW223937   9.118   4.621   0.210 -0.3259  0.5937 -2.1429
40147SOL     OW23938   7.301   5.744  10.274  0.2293 -0.4118  0.2213
40147SOL    HW123939   7.281   5.675  10.337  0.1906 -1.1763 -0.6197
40147SOL    HW223940   7.222   5.797  10.271 -1.1865 -2.4868 -1.8784
40148SOL     OW23941  10.612   4.819   4.865 -0.4777 -0.2125 -0.2089
40148SOL    HW123942  10.674   4.891   4.877 -1.1894  0.4765 -0.5219
40148SOL    HW223943  10.528   4.863   4.850 -0.6852 -1.0868 -1.8290
40149SOL     OW23944   7.417   8.106   8.877  0.3419 -1.1394 -0.0296
40149SOL    HW123945   7.509   8.088   8.897  0.6215 -1.3032 -1.3403
40149SOL    HW223946   7.371   8.028   8.909  0.3863 -0.3171  2.2295
40150SOL     OW23947   8.837   9.245  10.234  0.8176  0.1192  0.4443
40150SOL    HW123948   8.828   9.319  10.174  0.9483  0.0237  0.3050
40150SOL    HW223949   8.750   9.205  10.235  1.2325 -0.9250 -1.0767
40151SOL     OW23950   6.531   5.510   3.317 -1.1844 -0.8901  0.1961
40151SOL    HW123951   6.532   5.575   3.388 -2.0328  0.6064 -1.0846
40151SOL    HW223952   6.615   5.464   3.326 -0.4080  0.5827  1.0036
40152SOL     OW23953   7.285   2.482   5.212 -0.2384 -0.4016 -0.3187
40152SOL    HW123954   7.254   2.520   5.294  0.4182  0.1919 -0.3373
40152SOL    HW223955   7.211   2.430   5.180 -0.4312 -0.8002  0.7440
40153SOL     OW23956   6.994   3.094   5.415  0.2217 -0.1108  0.7591
40153SOL    HW123957   7.049   3.033   5.366 -0.2430 -0.6826  0.9286
40153SOL    HW223958   6.914   3.044   5.433  0.3715  0.0827  2.0722
40154SOL     OW23959   9.955   6.111   6.752 -0.0547 -0.4043 -0.3987
40154SOL    HW123960   9.875   6.084   6.797  0.3597  0.5012  0.9478
40154SOL    HW223961  10.025   6.069   6.802  0.3842  0.0703 -0.6102
40155SOL     OW23962   0.907   1.770   1.641  0.5402  0.1064  0.0754
40155SOL    HW123963   0.923   1.864   1.630 -1.1763  0.5493  1.1191
40155SOL    HW223964   0.922   1.753   1.734 -0.3430 -0.3995  0.1378
40156SOL     OW23965   3.238   6.433   4.628 -0.4745 -0.2209 -0.1178
40156SOL    HW123966   3.274   6.389   4.551  1.0599 -0.1535  0.5365
40156SOL    HW223967   3.147   6.451   4.604 -0.5279 -1.7466 -1.2518
40157SOL     OW23968   1.267   2.460   8.306 -0.3147 -0.5139  0.1168
40157SOL    HW123969   1.195   2.455   8.369 -0.3316  0.0796  0.1465
40157SOL    HW223970   1.287   2.368   8.286 -0.0251 -0.7277  1.3071
40158SOL     OW23971  10.460   5.394   8.622  0.3887  0.1169  0.0711
40158SOL    HW123972  10.458   5.398   8.526  0.9396  0.9338  0.0876
40158SOL    HW223973  10.369   5.409   8.648  0.3880  0.8219 -0.3037
40159SOL     OW23974   4.962   5.443   0.473  0.0769 -0.3074 -0.5063
40159SOL    HW123975   4.919   5.450   0.388 -1.4729 -0.6935  0.2265
40159SOL    HW223976   4.915   5.373   0.518  1.5294 -0.8051  0.3077
40160SOL     OW23977   4.052   4.482   0.902  0.4579  0.7056  0.3420
40160SOL    HW123978   4.078   4.405   0.953 -1.9467 -0.1580  0.4004
40160SOL    HW223979   4.110   4.479   0.825  1.1012 -0.5800  0.8316
40161SOL     OW23980   0.010   3.164   6.206  0.1116  0.6940 -0.0214
40161SOL    HW123981   0.013   3.240   6.263  1.9758 -0.0134  0.9069
40161SOL    HW223982   0.005   3.089   6.265  1.5605 -0.0310 -0.7571
40162SOL     OW23983   4.752   5.349   9.876  0.1461  0.0757 -0.2207
40162SOL    HW123984   4.839   5.371   9.843 -0.0937  0.5447 -0.5489
40162SOL    HW223985   4.709   5.305   9.803  0.6707 -1.6767  0.4712
40163SOL     OW23986   3.835   2.050   5.043 -0.4180 -0.1826 -0.4073
40163SOL    HW123987   3.867   2.118   5.102 -2.1329 -0.5266  1.0106
40163SOL    HW223988   3.773   2.095   4.986 -0.1333 -0.2060 -0.7384
40164SOL     OW23989   7.190   1.699   5.322  0.4308 -0.3095 -0.6771
40164SOL    HW123990   7.114   1.647   5.346  0.0806  0.1254 -0.8224
40164SOL    HW223991   7.185   1.776   5.379  0.6556 -0.1868 -0.8221
40165SOL     OW23992   8.575   9.481   4.005  0.1357  0.1761  0.0109
40165SOL    HW123993   8.517   9.405   4.003 -0.4870  0.6511 -0.6436
40165SOL    HW223994   8.536   9.542   3.942  1.5988  0.3174 -0.8111
40166SOL     OW23995   8.363   6.330   1.429  0.4697 -0.0580  0.4575
40166SOL    HW123996   8.319   6.272   1.367  0.2288  1.0414 -0.4454
40166SOL    HW223997   8.414   6.272   1.485  1.3228 -1.0581 -1.2682
40167SOL     OW23998   6.232   5.317   3.869  0.1750 -0.3451  0.3897
40167SOL    HW123999   6.246   5.378   3.942 -2.1845  1.2676 -0.3765
40167SOL    HW224000   6.232   5.373   3.792 -0.1354 -1.6281 -0.5681
40168SOL     OW24001   1.016   6.654   1.980  0.1997 -0.2900 -0.7265
40168SOL    HW124002   0.934   6.690   1.947  0.3575  1.3538  0.5704
40168SOL    HW224003   1.026   6.692   2.067  1.4368 -1.9010 -0.1137
40169SOL     OW24004   5.302   8.615   6.633  0.2161 -0.6499  0.0118
40169SOL    HW124005   5.208   8.620   6.647  0.4397 -0.9123  1.8526
40169SOL    HW224006   5.312   8.568   6.550 -1.2691 -0.8215 -0.0876
40170SOL     OW24007   8.220   2.311  10.236 -0.1211 -0.8420  0.1415
40170SOL    HW124008   8.193   2.245  10.172 -1.3499  0.8153 -1.1497
40170SOL    HW224009   8.250   2.385  10.182  0.1328  0.0862  1.5165
40171SOL     OW24010   9.397   2.059  10.053  0.2735  0.3930  0.7686
40171SOL    HW124011   9.373   2.130   9.993 -2.0319 -0.3609  0.6951
40171SOL    HW224012   9.319   2.046  10.107  0.4340 -2.3662  0.4852
40172SOL     OW24013   3.460   6.126   6.830  0.3141  0.2582  0.1708
40172SOL    HW124014   3.461   6.151   6.738 -1.3001  0.3434  0.1516
40172SOL    HW224015   3.546   6.152   6.863  0.3254  1.7330 -0.9282
40173SOL     OW24016   1.511  10.347  10.714 -0.4781  0.4421  0.4264
40173SOL    HW124017   1.518  10.262  10.671 -1.4954  0.2701  0.5769
40173SOL    HW224018   1.429  10.384  10.682 -0.9405  0.5919  1.7016
40174SOL     OW24019   2.390   4.984   8.024  0.4666 -0.1676 -0.6015
40174SOL    HW124020   2.356   4.905   7.982  0.3628 -1.5957  1.9299
40174SOL    HW224021   2.485   4.980   8.010  0.3426 -0.1160 -1.4632
40175SOL     OW24022   0.269   0.028   2.329 -0.0992  0.5259 -0.2264
40175SOL    HW124023   0.225  -0.004   2.407 -0.4844 -2.0091 -1.3813
40175SOL    HW224024   0.202   0.076   2.281 -0.7111 -0.4765 -0.3958
40176SOL     OW24025   8.656  10.508   6.649 -0.0125 -0.8301  0.2636
40176SOL    HW124026   8.646  10.597   6.615  1.1770 -0.6469  0.3219
40176SOL    HW224027   8.683  10.457   6.572 -1.5936 -1.3645  0.0230
40177SOL     OW24028   7.244   2.797   6.232  0.2481  0.1222 -0.0830
40177SOL    HW124029   7.304   2.819   6.304 -2.7119  2.1336  2.0005
40177SOL    HW224030   7.279   2.716   6.196  2.9036 -0.0328  2.4516
40178SOL     OW24031   8.708   3.510   4.595  0.3639 -0.7021  0.8807
40178SOL    HW124032   8.747   3.551   4.673 -3.4827 -2.4040  4.0272
40178SOL    HW224033   8.645   3.574   4.563  1.0741 -0.4971 -0.1463
40179SOL     OW24034   0.535  10.557   0.175 -0.2800  0.5956  0.2354
40179SOL    HW124035   0.590  10.565   0.253 -0.5171 -0.8736  0.5971
40179SOL    HW224036   0.467  10.493   0.200 -1.7742  1.8595 -0.4094
40180SOL     OW24037  10.713  10.082  10.748  0.2543 -0.0575 -0.0184
40180SOL    HW124038  10.801  10.093  10.783 -0.0606 -0.1727  0.8348
40180SOL    HW224039  10.662  10.045  10.820 -0.6586  0.6408 -0.2765
40181SOL     OW24040   6.816   8.104   5.268  0.1644  0.7792 -0.0754
40181SOL    HW124041   6.796   8.116   5.175 -0.7274  0.7289  0.1072
40181SOL    HW224042   6.751   8.157   5.314  0.7560  1.0055  0.5167
40182SOL     OW24043   0.987   1.500   0.039 -0.0803  0.2749 -0.3946
40182SOL    HW124044   0.946   1.447   0.108  0.0708  0.2188 -0.3467
40182SOL    HW224045   0.960   1.458  -0.042 -0.0798  0.2101 -0.3617
40183SOL     OW24046   6.360   8.860   9.471  0.1065 -0.0661 -0.4104
40183SOL    HW124047   6.304   8.818   9.537  0.7559 -0.9081 -0.3789
40183SOL    HW224048   6.330   8.823   9.388  0.5808 -0.4953 -0.3970
40184SOL     OW24049   6.760   2.313   0.207 -0.0345  0.3203 -0.5368
40184SOL    HW124050   6.851   2.291   0.188 -0.2232  0.5930 -1.8347
40184SOL    HW224051   6.709   2.240   0.172 -0.3415  0.3859 -0.2359
40185SOL     OW24052   2.917   3.219   2.826  0.3863 -0.4542  0.0322
40185SOL    HW124053   2.999   3.218   2.876 -0.4277  0.7646  1.4753
40185SOL    HW224054   2.931   3.287   2.761 -0.2837  1.5536  1.8557
40186SOL     OW24055   3.686   0.832   7.988  0.4272  0.3974  0.5907
40186SOL    HW124056   3.669   0.923   8.014 -1.5795 -0.3880  2.2217
40186SOL    HW224057   3.726   0.792   8.065  0.6137 -0.3030  0.1416
40187SOL     OW24058   6.374   3.097   2.399  0.1989  0.4739 -0.2686
40187SOL    HW124059   6.451   3.152   2.415  1.0516 -0.3279 -1.4856
40187SOL    HW224060   6.309   3.156   2.362  0.8976  0.7975 -1.0027
40188SOL     OW24061   3.651   8.140   9.081  0.4266  0.0609 -0.4078
40188SOL    HW124062   3.652   8.231   9.051 -0.3638 -0.2179 -1.3370
40188SOL    HW224063   3.690   8.090   9.008  1.2967 -0.2998  0.2884
40189SOL     OW24064   3.169   6.222   2.860 -0.0457 -0.0557 -0.3309
40189SOL    HW124065   3.198   6.310   2.838 -1.4063  0.7486  0.9070
40189SOL    HW224066   3.075   6.231   2.874 -0.3333 -1.8637 -0.8758
40190SOL     OW24067  10.269   8.025   7.674 -0.8094 -0.1842 -0.5716
40190SOL    HW124068  10.275   8.121   7.678  1.3437 -0.2614 -0.8031
40190SOL    HW224069  10.257   7.998   7.765  1.4830  0.2226 -0.0810
40191SOL     OW24070   3.653   4.234   8.749  0.1722  0.7715  0.1240
40191SOL    HW124071   3.577   4.252   8.803  0.0173  0.8821 -0.1277
40191SOL    HW224072   3.671   4.317   8.704 -0.0912  0.5062 -0.4786
40192SOL     OW24073   7.145   0.614   0.621 -0.2296 -0.1767 -0.1955
40192SOL    HW124074   7.221   0.671   0.632 -0.4212  0.2779 -1.1039
40192SOL    HW224075   7.072   0.675   0.607 -0.0945 -0.5658 -3.4986
40193SOL     OW24076   6.249  10.564   1.659  0.3460 -0.0093 -0.3697
40193SOL    HW124077   6.227  10.565   1.752  2.6822  0.5308  0.2240
40193SOL    HW224078   6.214  10.647   1.626 -0.0003  0.0497  0.1265
40194SOL     OW24079   2.629   4.648   3.804  0.7252 -0.3946 -0.0008
40194SOL    HW124080   2.643   4.627   3.897  1.7299  2.0720  0.4794
40194SOL    HW224081   2.613   4.563   3.763  1.8102 -1.7392  2.1491
40195SOL     OW24082   8.528   1.117   1.713 -0.4424  0.0809  0.2075
40195SOL    HW124083   8.606   1.065   1.729 -0.5852 -0.4372 -0.6688
40195SOL    HW224084   8.488   1.129   1.799  1.2451  1.4397  0.8522
40196SOL     OW24085   3.985   7.905   9.472  0.1099 -0.0505  0.1065
40196SOL    HW124086   4.023   7.986   9.440  0.0641 -0.8712 -2.1736
40196SOL    HW224087   3.986   7.915   9.568 -0.6523  2.9499 -0.0904
40197SOL     OW24088   7.757   1.516   8.725  0.6934 -0.0779 -0.1414
40197SOL    HW124089   7.735   1.431   8.686  1.2152  0.3011 -1.3253
40197SOL    HW224090   7.843   1.503   8.765  0.3281 -0.3649  0.5685
40198SOL     OW24091   3.851   0.082   9.447  0.0618 -0.3646 -0.4493
40198SOL    HW124092   3.901   0.111   9.370 -0.5424  1.4440 -0.2165
40198SOL    HW224093   3.898   0.120   9.522  0.0112 -1.1630 -0.0040
40199SOL     OW24094   2.888   1.733  10.740 -0.1470 -0.4808 -0.4539
40199SOL    HW124095   2.819   1.671  10.715 -0.8400 -0.5774  1.5621
40199SOL    HW224096   2.851   1.819  10.722 -1.3795 -0.4650  1.7486
40200SOL     OW24097   8.171   8.634  10.215  0.4043 -0.3330 -0.4302
40200SOL    HW124098   8.219   8.665  10.292 -1.1379 -1.3414  0.9934
40200SOL    HW224099   8.112   8.567  10.249 -0.9067 -0.2258 -2.3752
40201SOL     OW24100   1.192  10.933   7.480 -0.1511 -0.4407 -0.0158
40201SOL    HW124101   1.174  11.026   7.467 -1.0507 -0.6043 -0.0269
40201SOL    HW224102   1.241  10.907   7.401 -0.3358 -0.0892 -0.2482
40202SOL     OW24103   1.859   6.603  10.409  0.2655 -0.0241 -0.0082
40202SOL    HW124104   1.911   6.530  10.440 -0.4410 -0.0385  1.2514
40202SOL    HW224105   1.842   6.655  10.488  1.6069  2.0828 -1.0092
40203SOL     OW24106   3.370  10.594   5.002  0.0145  0.1142 -0.4982
40203SOL    HW124107   3.418  10.514   4.981 -0.1942  0.1359 -1.0617
40203SOL    HW224108   3.331  10.622   4.919 -2.3024 -0.7693  0.1914
40204SOL     OW24109   9.859   4.820   3.987 -0.0164  0.2482  0.3735
40204SOL    HW124110   9.810   4.738   3.991 -1.1245  0.9314  1.3733
40204SOL    HW224111   9.808   4.875   3.927 -2.4315  2.1160  3.8137
40205SOL     OW24112   7.860   0.375   1.768 -0.3891  0.0476  0.0576
40205SOL    HW124113   7.870   0.442   1.835 -1.4016  1.9484 -1.5926
40205SOL    HW224114   7.881   0.419   1.686 -1.8695 -1.4175 -1.1889
40206SOL     OW24115   5.158   1.451  10.261  0.9240  1.0511 -0.2214
40206SOL    HW124116   5.173   1.505  10.183  1.7474  1.1586  0.0028
40206SOL    HW224117   5.231   1.388  10.261  1.1361  1.2754  0.6422
40207SOL     OW24118   7.409  10.028  10.087 -0.3259 -0.0431 -0.3500
40207SOL    HW124119   7.470   9.959  10.113 -1.1762 -0.1025  1.6532
40207SOL    HW224120   7.466  10.100  10.058  0.6853 -0.4123  0.6332
40208SOL     OW24121   5.168   5.630   6.041 -0.4066  0.5615 -0.0891
40208SOL    HW124122   5.235   5.661   6.103 -0.4259  1.2013 -0.3769
40208SOL    HW224123   5.087   5.627   6.093 -0.0725 -0.6980  0.3913
40209SOL     OW24124   4.943   0.689   5.311  0.0059 -0.0853 -0.1809
40209SOL    HW124125   5.012   0.626   5.292 -0.2290 -1.1309  2.0903
40209SOL    HW224126   4.872   0.666   5.251  1.0379  0.0571 -1.5107
40210SOL     OW24127   7.681   1.051   2.095  0.3347 -0.3020 -0.7379
40210SOL    HW124128   7.653   0.968   2.056 -0.5119  0.3633 -1.5809
40210SOL    HW224129   7.675   1.036   2.189 -2.0294 -0.5270 -0.8511
40211SOL     OW24130   6.561   8.807   5.648 -0.4072 -0.6126  0.2213
40211SOL    HW124131   6.606   8.727   5.619 -0.2098  0.0930 -1.5556
40211SOL    HW224132   6.625   8.876   5.634 -0.6542 -0.0897  1.5526
40212SOL     OW24133   7.646   4.659   0.566  0.0974  0.2794  0.1377
40212SOL    HW124134   7.608   4.625   0.485  1.0194  0.1412 -0.2462
40212SOL    HW224135   7.738   4.635   0.561  0.3440  1.0443  0.8216
40213SOL     OW24136   6.467   9.103   5.631  0.5044 -0.4218 -0.0876
40213SOL    HW124137   6.452   9.188   5.591  1.7422  0.1056  0.4986
40213SOL    HW224138   6.529   9.120   5.702  1.1272 -1.8663 -0.2279
40214SOL     OW24139   9.905   8.857   0.288  0.7426  0.2121  0.0973
40214SOL    HW124140   9.932   8.855   0.380  0.3835 -1.5759  0.2023
40214SOL    HW224141   9.927   8.946   0.258  3.6099 -0.0663  1.0785
40215SOL     OW24142   2.342   7.455   6.867 -0.1182 -0.5320  0.2293
40215SOL    HW124143   2.257   7.426   6.835 -0.1748  1.2343 -1.3845
40215SOL    HW224144   2.372   7.520   6.803  1.6502  0.1865  1.6680
40216SOL     OW24145   5.561   3.672   8.298 -0.1674 -0.4423  0.0819
40216SOL    HW124146   5.519   3.587   8.316  0.6563 -1.2463 -1.5986
40216SOL    HW224147   5.607   3.693   8.379 -1.8975 -0.6515  1.1794
40217SOL     OW24148   0.273   0.039   1.314 -0.1979  0.2726 -0.2135
40217SOL    HW124149   0.194   0.079   1.277  0.0647 -0.8579 -2.1736
40217SOL    HW224150   0.242  -0.042   1.354  0.0344 -0.6749 -1.8626
40218SOL     OW24151  10.011  10.221   4.033 -0.1303 -0.4088 -0.3987
40218SOL    HW124152  10.082  10.267   3.989  0.6928  0.0920  1.3898
40218SOL    HW224153   9.982  10.155   3.969  2.4905 -1.1939 -0.8893
40219SOL     OW24154  10.905  10.359   5.519 -0.1298 -0.3090  0.5609
40219SOL    HW124155  10.825  10.388   5.475 -0.3844  0.0143  1.2334
40219SOL    HW224156  10.905  10.405   5.603 -0.1978 -1.7303  1.3775
40220SOL     OW24157   3.526   4.513   3.485 -0.2235  0.3302  0.1174
40220SOL    HW124158   3.435   4.536   3.467 -0.0371  1.4071  0.4659
40220SOL    HW224159   3.575   4.550   3.412 -0.1335 -0.9916 -0.5178
40221SOL     OW24160   4.635   7.183   2.598  0.0113  0.5137 -0.2607
40221SOL    HW124161   4.575   7.127   2.648  0.6685 -1.6838 -1.7502
40221SOL    HW224162   4.579   7.228   2.535 -0.3198  0.0866 -0.2747
40222SOL     OW24163   3.987   9.424   8.897 -0.2558 -0.0799 -0.2503
40222SOL    HW124164   4.072   9.463   8.878 -0.1669 -0.4890 -0.7039
40222SOL    HW224165   4.007   9.332   8.913 -0.2119  0.3259  2.5276
40223SOL     OW24166   3.066   7.981   9.344  1.0546 -0.3686 -0.3018
40223SOL    HW124167   3.011   7.953   9.271  0.8037 -0.5992 -0.0269
40223SOL    HW224168   3.141   8.022   9.302  0.5117  0.2636 -0.6758
40224SOL     OW24169   8.558  11.001  10.088  0.3096  0.6477 -0.0108
40224SOL    HW124170   8.499  10.937  10.128  0.6527 -1.4951 -2.6705
40224SOL    HW224171   8.609  11.036  10.161 -0.6370 -1.3199  1.6903
40225SOL     OW24172   9.237   0.654   2.276 -0.2612 -0.1100 -0.1408
40225SOL    HW124173   9.273   0.703   2.203  1.6532  0.0219  0.8411
40225SOL    HW224174   9.192   0.579   2.235  0.0526  0.4051 -1.4570
40226SOL     OW24175   4.933   6.465   1.406  0.3367 -0.3797  0.4193
40226SOL    HW124176   4.990   6.440   1.479  0.0393  1.2454  1.2484
40226SOL    HW224177   4.882   6.539   1.439 -0.0378  0.1958 -1.3356
40227SOL     OW24178   7.854  10.459   6.799  0.0729  0.4121 -0.0446
40227SOL    HW124179   7.934  10.508   6.783  0.4542 -0.4136 -0.7869
40227SOL    HW224180   7.863  10.426   6.888  1.0473 -0.5108 -0.4589
40228SOL     OW24181   2.612  10.947   6.349 -0.1992 -0.2544  0.1889
40228SOL    HW124182   2.650  10.921   6.433  0.5306 -0.6674 -0.2599
40228SOL    HW224183   2.662  10.898   6.284 -1.4410 -0.7414 -0.4264
40229SOL     OW24184   2.512   3.884   5.082  0.5830  0.2152  0.6150
40229SOL    HW124185   2.431   3.882   5.132 -0.1543  1.0815 -0.4931
40229SOL    HW224186   2.487   3.861   4.993  1.7693 -0.7069  0.4892
40230SOL     OW24187   9.003   7.925  10.877  0.3423 -0.0544  0.7980
40230SOL    HW124188   9.003   7.932  10.973 -0.0741  1.0974  0.7208
40230SOL    HW224189   8.939   7.989  10.848 -0.2470 -1.0768 -0.2202
40231SOL     OW24190   5.482   7.644   3.470 -0.0693 -0.1973  0.0190
40231SOL    HW124191   5.559   7.594   3.498 -0.9929 -2.4453 -1.2129
40231SOL    HW224192   5.452   7.687   3.550  3.0184  1.6691  0.3473
40232SOL     OW24193   0.819   9.947   7.592 -0.0407 -0.1151  0.7551
40232SOL    HW124194   0.890   9.883   7.580 -0.2814 -0.4794  1.2499
40232SOL    HW224195   0.748   9.897   7.630 -0.1721  0.4884  1.3260
40233SOL     OW24196   5.284  10.858   2.350 -0.3970  0.3760  0.5979
40233SOL    HW124197   5.320  10.800   2.284 -0.5597  1.1837 -0.2222
40233SOL    HW224198   5.274  10.803   2.427  0.7568 -0.3344  0.2694
40234SOL     OW24199   5.718   4.000   7.145 -0.5021 -0.0880  0.5284
40234SOL    HW124200   5.776   3.929   7.175 -1.2341 -0.1028  1.9782
40234SOL    HW224201   5.702   3.980   7.053  1.7045 -0.1387  0.0882
40235SOL     OW24202   7.658   5.092   6.019 -0.4019  0.0836  0.1662
40235SOL    HW124203   7.603   5.021   5.985 -0.8482  1.2074 -1.6355
40235SOL    HW224204   7.599   5.167   6.023  0.4598  0.7522  0.4454
40236SOL     OW24205   0.453   0.843   3.644  0.1210  0.8989  0.0748
40236SOL    HW124206   0.512   0.788   3.593  0.1929  0.8586  0.2017
40236SOL    HW224207   0.468   0.818   3.735 -1.3842 -0.4067  0.0015
40237SOL     OW24208   5.173   4.768   2.259 -0.4984 -0.3118 -0.0431
40237SOL    HW124209   5.178   4.832   2.329 -2.3369  0.1538 -0.2658
40237SOL    HW224210   5.250   4.785   2.205  0.7589 -0.4426  1.6194
40238SOL     OW24211   6.579   3.464   4.663 -0.3998  0.3572  0.1178
40238SOL    HW124212   6.601   3.437   4.752  0.6245 -1.2458 -0.5614
40238SOL    HW224213   6.577   3.559   4.666  0.9744  0.3742  1.5718
40239SOL     OW24214   4.282   1.468   9.799 -0.7214  0.0898  0.0264
40239SOL    HW124215   4.338   1.462   9.721  0.0626  0.5554  0.5422
40239SOL    HW224216   4.248   1.380   9.812  1.2374 -0.5990  0.6784
40240SOL     OW24217  10.772   9.705   4.269 -0.2685 -0.2287 -0.0260
40240SOL    HW124218  10.833   9.691   4.197  0.5105  1.6933  0.1885
40240SOL    HW224219  10.702   9.758   4.231  0.0764  0.6817  0.5647
40241SOL     OW24220   0.510   6.075   1.481 -0.3325 -0.2716  0.1652
40241SOL    HW124221   0.480   5.999   1.531 -0.8109 -1.2357 -1.5205
40241SOL    HW224222   0.441   6.140   1.493  0.1207 -0.0204  1.6878
40242SOL     OW24223   8.039   1.710  10.453  0.4650  0.2291  0.1483
40242SOL    HW124224   8.094   1.784  10.427  1.3592 -0.1279  0.9868
40242SOL    HW224225   8.089   1.665  10.520 -0.6123 -0.4324  0.5365
40243SOL     OW24226   0.847   8.036   2.598 -0.3347  0.3346 -0.1662
40243SOL    HW124227   0.848   7.952   2.644 -0.2843  0.0762 -0.6287
40243SOL    HW224228   0.764   8.077   2.625 -1.2301 -0.6467 -1.2837
40244SOL     OW24229  10.939   9.325   5.468  0.6992  0.0390 -0.4057
40244SOL    HW124230  10.871   9.385   5.499  0.4969 -0.4293  0.0707
40244SOL    HW224231  10.898   9.239   5.471  1.4240 -0.2991  0.2333
40245SOL     OW24232   6.180   7.652   2.022 -0.4573  0.0333  0.2404
40245SOL    HW124233   6.091   7.676   1.998 -0.9951 -1.3659  0.7551
40245SOL    HW224234   6.172   7.568   2.067  1.1893 -0.4914 -0.3441
40246SOL     OW24235   2.367   3.746   1.843 -0.3679  0.3931 -0.4936
40246SOL    HW124236   2.403   3.819   1.792  2.2955  0.9944  2.0037
40246SOL    HW224237   2.307   3.787   1.905 -0.1644  0.2440 -0.1973
40247SOL     OW24238   3.933   0.807   6.079 -0.2960 -0.1217  0.6600
40247SOL    HW124239   3.840   0.827   6.069 -0.2507 -0.7515 -1.6004
40247SOL    HW224240   3.935   0.715   6.106 -0.3705 -0.5414 -0.6525
40248SOL     OW24241   9.766   5.566   8.006  0.2127 -0.0569 -0.3541
40248SOL    HW124242   9.774   5.640   7.946 -0.9375  0.1054 -0.3317
40248SOL    HW224243   9.846   5.515   7.993  0.4922  0.5801 -1.1983
40249SOL     OW24244   1.173   3.845  10.286  0.4300  0.5358  0.7206
40249SOL    HW124245   1.159   3.791  10.364 -0.2111 -2.5488 -1.3626
40249SOL    HW224246   1.268   3.845  10.273  0.3479 -3.0218 -0.9800
40250SOL     OW24247   7.421  10.476   4.316 -0.6349 -0.5802  0.0366
40250SOL    HW124248   7.424  10.536   4.242 -0.3513  0.0516  0.5454
40250SOL    HW224249   7.333  10.486   4.352 -1.8266 -3.0379 -1.9123
40251SOL     OW24250   8.643   5.873   3.986  0.5579  0.1627 -0.0727
40251SOL    HW124251   8.590   5.856   3.908 -1.0399 -1.8306  1.3513
40251SOL    HW224252   8.732   5.847   3.961  0.2709  0.4860 -1.5107
40252SOL     OW24253   3.133  10.565   5.473  0.1017 -0.1378 -0.4435
40252SOL    HW124254   3.146  10.499   5.541 -1.5432 -0.4483 -0.3889
40252SOL    HW224255   3.213  10.560   5.419 -0.0014 -2.2418 -0.4971
40253SOL     OW24256   9.588   0.143   6.993  0.0021 -0.6424 -0.4985
40253SOL    HW124257   9.618   0.125   7.082 -1.0406  0.9268  0.2178
40253SOL    HW224258   9.535   0.067   6.969 -0.4263 -0.6907  0.5654
40254SOL     OW24259   4.930   7.545   4.801  0.2449 -0.6742 -0.2815
40254SOL    HW124260   5.011   7.547   4.852  0.8211 -0.3539 -1.1857
40254SOL    HW224261   4.952   7.588   4.719 -1.4547  1.4446  0.2963
40255SOL     OW24262   5.159   1.812   5.407 -0.1034  0.5984 -0.1317
40255SOL    HW124263   5.164   1.785   5.315 -0.8401  0.9641 -0.2891
40255SOL    HW224264   5.169   1.732   5.457  0.0620  0.3624 -0.5415
40256SOL     OW24265   4.042   9.873   5.376 -0.5766  0.1577 -0.3870
40256SOL    HW124266   4.134   9.895   5.357 -0.4183  0.1707  0.3618
40256SOL    HW224267   3.996   9.891   5.294 -0.3108  2.4422 -0.1071
40257SOL     OW24268   1.589   9.010   1.051  0.2490  0.8596  0.2469
40257SOL    HW124269   1.645   9.021   0.974  1.8139  0.0314  1.2053
40257SOL    HW224270   1.547   8.925   1.039 -1.1929  1.6611 -0.6708
40258SOL     OW24271   7.689   4.300   1.291 -0.4712  0.0877  0.8566
40258SOL    HW124272   7.622   4.368   1.284  0.4483  1.0407  1.0600
40258SOL    HW224273   7.695   4.282   1.384  2.7011  3.3542  1.5123
40259SOL     OW24274   5.268   9.294   0.358 -0.2124  0.2717 -0.0120
40259SOL    HW124275   5.200   9.322   0.420 -1.3682 -0.6176 -0.8271
40259SOL    HW224276   5.306   9.216   0.398  0.4774  0.8601  0.5209
40260SOL     OW24277   5.042   1.563   2.800  0.1258 -0.6911 -0.5746
40260SOL    HW124278   5.008   1.578   2.712  0.5836 -0.2514 -0.6783
40260SOL    HW224279   5.059   1.469   2.803  0.6288 -0.6203 -1.1459
40261SOL     OW24280   5.589   6.697   9.251  0.0139 -0.1032 -0.5468
40261SOL    HW124281   5.576   6.754   9.176  0.7294  0.1240 -0.4987
40261SOL    HW224282   5.610   6.756   9.323 -0.4530 -0.3357 -0.2104
40262SOL     OW24283  10.105   7.703   7.794  0.4001  0.5370  0.1486
40262SOL    HW124284  10.128   7.622   7.839 -2.1420  0.8556  2.2800
40262SOL    HW224285  10.047   7.676   7.723 -0.0719  0.4377  0.5677
40263SOL     OW24286   3.747   9.451   3.079 -0.0630 -0.4501  0.3264
40263SOL    HW124287   3.809   9.380   3.061 -0.4109 -0.7161  0.1615
40263SOL    HW224288   3.774   9.487   3.163  1.4862  0.6845 -0.5993
40264SOL     OW24289   7.169   1.705   7.224 -0.3398  0.3393 -0.3361
40264SOL    HW124290   7.196   1.795   7.207  0.0586 -0.0351 -1.7902
40264SOL    HW224291   7.075   1.703   7.205 -0.2888  0.3909 -0.5996
40265SOL     OW24292  10.779   1.558   5.734 -0.0131  0.2699 -0.7991
40265SOL    HW124293  10.731   1.588   5.811  1.8096  0.7116  0.2064
40265SOL    HW224294  10.733   1.600   5.661  0.2875  2.7457  0.3080
40266SOL     OW24295   5.977   0.057   3.997 -0.9182  0.6591 -0.2847
40266SOL    HW124296   6.061   0.096   3.972  0.1177  0.6877  2.8650
40266SOL    HW224297   5.951   0.006   3.920  1.0132  2.1242 -2.0409
40267SOL     OW24298   9.572   9.778   6.019 -0.4495 -0.1154 -0.1568
40267SOL    HW124299   9.565   9.853   6.078 -0.0996  0.0957 -0.3756
40267SOL    HW224300   9.653   9.793   5.971  0.9027 -1.8035  1.4229
40268SOL     OW24301   4.821   9.423   6.809 -0.4043 -0.3558  0.1876
40268SOL    HW124302   4.905   9.377   6.804 -0.0783  0.1649  0.7369
40268SOL    HW224303   4.814   9.469   6.726  0.5326  0.7341  0.6891
40269SOL     OW24304   2.797   7.090   5.956  0.4012  0.7567 -0.4096
40269SOL    HW124305   2.706   7.063   5.947 -0.2077  2.8442 -1.0002
40269SOL    HW224306   2.814   7.085   6.050 -0.1701 -0.0709 -0.3410
40270SOL     OW24307   9.141   1.374  10.424  0.0089 -0.0147  0.1479
40270SOL    HW124308   9.173   1.317  10.354  0.7982  0.5918 -0.0055
40270SOL    HW224309   9.198   1.451  10.419 -0.8630  0.6685  0.5205
40271SOL     OW24310   7.505   5.024   0.810  0.1690 -0.0249 -0.5217
40271SOL    HW124311   7.498   4.999   0.718 -0.0765  0.8951 -0.7606
40271SOL    HW224312   7.497   5.120   0.810 -0.1886 -0.0410  0.4878
40272SOL     OW24313   0.624   9.323   8.461  0.2377  0.1655 -0.0279
40272SOL    HW124314   0.594   9.255   8.521 -0.0735 -0.8463 -1.2954
40272SOL    HW224315   0.707   9.354   8.499  0.3921 -0.9356  0.5592
40273SOL     OW24316   1.068  10.384   9.212 -0.3746 -0.1243 -0.0665
40273SOL    HW124317   1.054  10.432   9.131  3.7926  1.3157 -0.1566
40273SOL    HW224318   1.041  10.444   9.281  1.2916  0.9610 -0.3046
40274SOL     OW24319   8.916   2.279   1.389  0.2634  0.1348 -0.0080
40274SOL    HW124320   8.951   2.205   1.339 -1.1197  0.5094 -1.6562
40274SOL    HW224321   8.968   2.354   1.360 -0.0478  0.2296 -0.3248
40275SOL     OW24322   1.748   1.883   0.213 -0.2632  0.8793  0.3881
40275SOL    HW124323   1.726   1.903   0.304 -0.2162 -3.5826  1.5863
40275SOL    HW224324   1.666   1.897   0.165 -0.6779  1.9260  1.3579
40276SOL     OW24325   7.273   9.723  10.613  0.2700  0.0072 -0.1006
40276SOL    HW124326   7.239   9.754  10.697 -1.5158 -1.5645 -0.1744
40276SOL    HW224327   7.361   9.690  10.634 -0.4126 -1.0473  1.3615
40277SOL     OW24328   8.958   4.604   5.731  0.2029 -0.3030  0.1364
40277SOL    HW124329   8.999   4.686   5.705  1.9705 -0.6440  1.5897
40277SOL    HW224330   8.886   4.630   5.788  1.0390  0.2738  0.9658
40278SOL     OW24331  10.579   6.268   8.411  0.2280  0.9265  0.0315
40278SOL    HW124332  10.538   6.196   8.460  1.0046 -0.7223 -1.6241
40278SOL    HW224333  10.673   6.252   8.420  0.4090  1.7409 -0.3793
40279SOL     OW24334   2.165   9.948   8.979  0.0548 -0.0546 -0.5444
40279SOL    HW124335   2.116  10.020   8.941  0.1060 -0.5845 -1.6603
40279SOL    HW224336   2.223   9.919   8.909  1.8878  0.4737  0.7012
40280SOL     OW24337   3.338   7.905   2.338  0.0289 -0.0517 -0.3325
40280SOL    HW124338   3.384   7.984   2.364 -0.8484  0.3145  0.1525
40280SOL    HW224339   3.292   7.877   2.417 -1.8507  0.4815 -1.1788
40281SOL     OW24340   9.289   5.405   9.901 -0.2232  0.4419  0.1670
40281SOL    HW124341   9.327   5.384   9.816  1.1073  2.1571  0.2800
40281SOL    HW224342   9.275   5.320   9.943 -0.6253 -0.4227 -1.6177
40282SOL     OW24343   6.577   8.654   1.792  0.6000 -0.1799 -0.0570
40282SOL    HW124344   6.629   8.732   1.812  0.4224 -0.4410  1.5959
40282SOL    HW224345   6.546   8.624   1.877  2.6066 -3.4191 -0.3010
40283SOL     OW24346   7.421   8.040   9.675 -0.5729 -0.1531 -0.0411
40283SOL    HW124347   7.428   8.134   9.694  1.1473 -0.1799 -0.3400
40283SOL    HW224348   7.399   8.036   9.582  0.0780 -0.0311 -0.2067
40284SOL     OW24349   9.711   2.868   8.885  0.3638  0.2178  0.3229
40284SOL    HW124350   9.718   2.911   8.800  1.0163 -1.6036 -0.5906
40284SOL    HW224351   9.723   2.938   8.948  0.5965  1.5009 -1.0859
40285SOL     OW24352   8.840   7.783   7.328  0.1726 -0.2379 -0.2184
40285SOL    HW124353   8.889   7.721   7.382 -1.0724 -0.1888  1.0400
40285SOL    HW224354   8.778   7.729   7.279 -0.2067 -0.1044  0.1016
40286SOL     OW24355   7.193   7.081   8.376  0.6659  0.2142 -0.3325
40286SOL    HW124356   7.126   7.052   8.439  0.8310 -0.7886 -0.5956
40286SOL    HW224357   7.226   6.999   8.338  2.6246  0.6177  0.3854
40287SOL     OW24358   0.372   6.167   4.790 -0.4615 -0.0300  0.5135
40287SOL    HW124359   0.318   6.159   4.712 -1.7169  1.8793  1.1055
40287SOL    HW224360   0.316   6.136   4.862  0.5826 -1.5194  0.7170
40288SOL     OW24361   4.118   4.289   8.947 -0.2375 -0.0832  0.1201
40288SOL    HW124362   4.023   4.289   8.951 -0.1874  0.4266  2.3770
40288SOL    HW224363   4.145   4.225   9.013  0.9917  1.2043  0.9211
40289SOL     OW24364   9.668   1.244   5.330 -0.4317 -0.8148 -0.2814
40289SOL    HW124365   9.753   1.201   5.334  0.8210  1.3015 -1.9300
40289SOL    HW224366   9.636   1.226   5.241 -0.3968  0.6349 -0.6107
40290SOL     OW24367   4.440   1.040   8.673  0.1392  0.2062  0.1261
40290SOL    HW124368   4.420   1.047   8.580  0.5667 -0.7309 -0.0547
40290SOL    HW224369   4.514   1.098   8.687 -0.9068  1.5590  0.2229
40291SOL     OW24370   8.821   8.102   0.303  0.1431  0.5011  0.4887
40291SOL    HW124371   8.899   8.144   0.269  0.8151  0.3877  1.8404
40291SOL    HW224372   8.800   8.034   0.238  1.6323  0.0053  0.4932
40292SOL     OW24373   8.444   3.680   0.599  0.2914  0.4467  0.0624
40292SOL    HW124374   8.415   3.768   0.621 -0.4370  0.2392 -0.0248
40292SOL    HW224375   8.381   3.623   0.643  2.1859 -0.1159  2.2424
40293SOL     OW24376   8.963   0.897   7.801 -0.3399  0.2483 -0.0821
40293SOL    HW124377   8.962   0.859   7.713  1.9582 -1.9332  0.7084
40293SOL    HW224378   8.874   0.886   7.832 -0.5911 -1.3999 -1.2082
40294SOL     OW24379   0.291   1.411   1.929  0.2625 -0.0239  0.2908
40294SOL    HW124380   0.336   1.461   1.997 -0.9597 -2.1285  2.8082
40294SOL    HW224381   0.342   1.331   1.920  0.4205  0.2258 -1.3659
40295SOL     OW24382   0.752   6.791   8.789 -0.1764  0.3367 -0.2626
40295SOL    HW124383   0.721   6.861   8.732  0.0737  0.1949 -0.5779
40295SOL    HW224384   0.803   6.734   8.731  1.0491  0.7895  0.3276
40296SOL     OW24385  10.597   4.841   5.286 -0.6438  0.0868  0.4515
40296SOL    HW124386  10.679   4.872   5.325 -0.8769  0.6845  0.4772
40296SOL    HW224387  10.569   4.913   5.230 -0.6501 -0.5084 -0.3176
40297SOL     OW24388  10.419  10.953   6.861  1.2396  0.1978  0.1888
40297SOL    HW124389  10.437  10.982   6.771  0.6752  3.3486  0.9795
40297SOL    HW224390  10.360  11.020   6.896  2.6599 -0.0818  3.4016
40298SOL     OW24391   4.468   4.962   1.956  0.2362  0.0443  0.2637
40298SOL    HW124392   4.466   4.868   1.977  1.4943 -0.1749 -0.4975
40298SOL    HW224393   4.381   4.981   1.922 -0.1962 -0.7269  0.9009
40299SOL     OW24394   8.879   1.060  10.445  0.1091  0.0130 -0.3085
40299SOL    HW124395   8.851   0.997  10.511 -0.9555 -0.9090 -1.5886
40299SOL    HW224396   8.947   1.111  10.488 -1.9666  0.8456  2.1978
40300SOL     OW24397   7.480   1.953   3.559  0.4001  1.0000  0.4140
40300SOL    HW124398   7.475   1.989   3.647 -1.2912  1.3587  0.2147
40300SOL    HW224399   7.502   1.861   3.572  0.4185  1.1083  1.1973
40301SOL     OW24400   1.154   2.770   4.644  0.3739  0.2077  0.1454
40301SOL    HW124401   1.097   2.816   4.582  1.3460  0.5933 -0.4805
40301SOL    HW224402   1.242   2.791   4.616  0.8422  0.1848  1.5315
40302SOL     OW24403  10.934   9.159   1.109 -0.5420 -0.3355  0.0114
40302SOL    HW124404  10.951   9.240   1.156  1.7329 -0.7784  0.0566
40302SOL    HW224405  10.869   9.113   1.163 -0.5026  0.6466  0.9215
40303SOL     OW24406   4.680   2.311   2.831 -0.0719 -0.5802 -0.4157
40303SOL    HW124407   4.713   2.286   2.918 -0.3115 -1.0852 -0.4661
40303SOL    HW224408   4.724   2.394   2.812  0.9899 -1.1053 -0.3644
40304SOL     OW24409   2.498   4.334   3.212 -0.1155 -0.0935  0.4703
40304SOL    HW124410   2.561   4.289   3.268  2.0489 -0.1071 -1.7605
40304SOL    HW224411   2.549   4.404   3.171 -0.7598 -1.5547 -3.2540
40305SOL     OW24412   3.651   3.903   0.187  0.6940  0.4061 -0.3803
40305SOL    HW124413   3.684   3.842   0.121 -0.7420 -2.6748  1.5084
40305SOL    HW224414   3.557   3.883   0.192  0.9233 -0.5110  3.3959
40306SOL     OW24415   3.293   0.780  10.645  0.1732  0.5733  0.5401
40306SOL    HW124416   3.385   0.789  10.621  0.1488 -0.2576  0.1265
40306SOL    HW224417   3.294   0.736  10.730  0.2264  2.7490  1.7451
40307SOL     OW24418   0.113  10.682   6.574 -0.4816  0.0678 -0.1092
40307SOL    HW124419   0.107  10.775   6.550 -2.0292 -0.3365 -1.4615
40307SOL    HW224420   0.189  10.650   6.525 -0.9141  0.2773 -0.9347
40308SOL     OW24421  10.231   4.085   4.733  0.6807  0.4097 -0.1778
40308SOL    HW124422  10.157   4.058   4.789  0.7429  0.8319  0.1129
40308SOL    HW224423  10.242   4.013   4.672 -0.7165  0.8332 -0.9719
40309SOL     OW24424   1.563   1.052   9.500 -0.9937  1.1168 -0.4057
40309SOL    HW124425   1.505   1.032   9.573 -1.1688 -0.2065 -0.8865
40309SOL    HW224426   1.594   0.967   9.470  0.6342  1.7583 -0.6259
40310SOL     OW24427   5.927   3.507   0.802 -0.0140  0.1719 -0.3939
40310SOL    HW124428   5.932   3.586   0.857 -1.3016  0.0532 -0.0781
40310SOL    HW224429   5.850   3.521   0.748 -0.5139 -1.0652 -0.0232
40311SOL     OW24430   0.830  10.503   0.842 -0.3136 -0.1241 -0.5047
40311SOL    HW124431   0.814  10.465   0.928  0.1022  1.7487  0.4525
40311SOL    HW224432   0.881  10.583   0.860 -0.8637  0.7107 -2.4051
40312SOL     OW24433   9.634  10.622   1.856 -0.3217  0.3345  0.3010
40312SOL    HW124434   9.559  10.603   1.799  0.7408  0.6291 -1.2699
40312SOL    HW224435   9.710  10.605   1.800  0.7573  2.6677  0.9646
40313SOL     OW24436   3.755  10.871   7.305  0.4990 -0.2420 -0.0424
40313SOL    HW124437   3.758  10.928   7.228 -0.8322 -1.1972 -0.8496
40313SOL    HW224438   3.733  10.785   7.270 -3.1322 -0.1796  1.5606
40314SOL     OW24439  10.342   0.937   9.826  0.2690  0.3155 -0.2614
40314SOL    HW124440  10.257   0.893   9.824  0.5775 -0.2770 -0.8976
40314SOL    HW224441  10.320   1.030   9.828 -0.3912  0.1521  0.6024
40315SOL     OW24442  10.851   9.576   3.285  0.1120 -0.2117  0.2353
40315SOL    HW124443  10.854   9.672   3.286 -0.0186 -0.1932 -0.6755
40315SOL    HW224444  10.793   9.554   3.358 -0.2401  0.4224  0.1650
40316SOL     OW24445   5.836   6.868   9.235  0.1716  0.0975  0.2265
40316SOL    HW124446   5.924   6.831   9.235 -0.3577 -1.3708  2.6754
40316SOL    HW224447   5.806   6.859   9.144  2.8015  1.4877 -0.8766
40317SOL     OW24448   5.767   6.083   4.370  0.3073  0.4042  0.2932
40317SOL    HW124449   5.759   6.066   4.276  2.7725 -0.3678  0.1572
40317SOL    HW224450   5.779   6.178   4.377  0.8816  0.3672 -0.2289
40318SOL     OW24451   0.434   1.598  10.013 -0.6467 -0.7026  0.0496
40318SOL    HW124452   0.408   1.671   9.957 -1.7360  1.8325  3.5343
40318SOL    HW224453   0.362   1.536  10.006  0.6298 -2.0817 -3.5562
40319SOL     OW24454   8.225   7.122   1.001 -0.2654 -0.3418 -0.3459
40319SOL    HW124455   8.237   7.056   1.070 -0.1916  0.6439  0.6043
40319SOL    HW224456   8.308   7.121   0.953 -0.6264 -1.6475 -1.0003
40320SOL     OW24457   6.374   4.516   5.689 -0.3087  0.0810 -0.2865
40320SOL    HW124458   6.340   4.590   5.739  0.3066 -0.9279  1.7389
40320SOL    HW224459   6.466   4.509   5.717 -0.3042 -1.3236 -0.5750
40321SOL     OW24460   2.243   7.207   8.648  0.0540 -0.3888 -0.4252
40321SOL    HW124461   2.211   7.145   8.581 -1.8670  0.2007 -0.1150
40321SOL    HW224462   2.190   7.285   8.635 -0.0601 -0.1096  1.5274
40322SOL     OW24463   6.532   7.626   6.694  0.3726  0.3910 -0.2608
40322SOL    HW124464   6.557   7.683   6.621 -0.1463  0.0582 -0.7033
40322SOL    HW224465   6.531   7.538   6.656  0.2516  0.1974  0.1874
40323SOL     OW24466  10.884   0.153   5.217 -0.0732 -0.3045 -0.6354
40323SOL    HW124467  10.815   0.101   5.258  0.3228 -2.0013 -1.9744
40323SOL    HW224468  10.938   0.088   5.171  2.4113  0.9514  0.3421
40324SOL     OW24469   2.680   8.987   8.000 -0.1021 -0.3538  0.0510
40324SOL    HW124470   2.641   8.911   8.044 -1.8610 -1.2751 -2.7991
40324SOL    HW224471   2.757   8.952   7.955 -1.1007 -0.6092 -1.5382
40325SOL     OW24472  10.911   9.362   3.108 -0.3181  0.0676 -0.3039
40325SOL    HW124473  10.873   9.444   3.140 -1.4961 -0.9859  1.1444
40325SOL    HW224474  10.869   9.294   3.161  1.7329 -1.3686 -0.4102
40326SOL     OW24475   6.980  10.443   7.283 -0.5292 -0.0845 -1.0737
40326SOL    HW124476   6.908  10.445   7.346  0.2253 -0.2920 -0.1894
40326SOL    HW224477   7.057  10.469   7.334 -0.1183  1.0146 -2.2085
40327SOL     OW24478   8.804  10.422   2.980 -0.5810  0.0766  0.0390
40327SOL    HW124479   8.764  10.335   2.986 -0.5774  0.1438  1.0493
40327SOL    HW224480   8.743  10.480   3.025  0.0001  0.4041  0.4090
40328SOL     OW24481   7.037   2.403   3.017 -0.6409 -0.0153 -0.3270
40328SOL    HW124482   7.033   2.329   2.956  2.8514 -1.4957  0.9623
40328SOL    HW224483   7.084   2.471   2.970  0.1860 -0.3659 -0.0223
40329SOL     OW24484   3.931  10.600   2.567  0.2941 -0.2456 -0.3892
40329SOL    HW124485   3.932  10.507   2.543  2.0348 -1.0217  2.1885
40329SOL    HW224486   4.021  10.618   2.594 -0.4087  1.6991  0.8407
40330SOL     OW24487   2.908   0.456   0.339  0.1378  0.8582  0.5198
40330SOL    HW124488   3.000   0.464   0.363 -0.2191 -0.2545  2.5110
40330SOL    HW224489   2.861   0.468   0.421 -1.6046  2.4511 -0.6265
40331SOL     OW24490  10.234   5.815   2.629 -0.9636  0.3440  0.1463
40331SOL    HW124491  10.210   5.769   2.709 -0.5595  0.0265  0.0876
40331SOL    HW224492  10.244   5.746   2.563 -1.4802  0.6192 -0.2271
40332SOL     OW24493   4.296   1.332   9.492  0.0202  0.2022 -0.1600
40332SOL    HW124494   4.342   1.249   9.507 -0.7102  0.0071  1.1123
40332SOL    HW224495   4.349   1.398   9.536 -0.5435  0.0725  0.7386
40333SOL     OW24496   5.062   5.243   1.502 -0.3410 -0.4238  0.1992
40333SOL    HW124497   5.135   5.187   1.529  1.5060  0.8918 -1.7238
40333SOL    HW224498   5.045   5.218   1.412 -0.9238  0.6484 -0.0029
40334SOL     OW24499  10.685   9.587   6.250 -0.3985  0.6127 -0.4016
40334SOL    HW124500  10.755   9.559   6.190  0.3581  1.8913 -0.1514
40334SOL    HW224501  10.605   9.576   6.199 -0.0330 -0.8114 -0.7230
40335SOL     OW24502  10.210   5.476   6.426  0.2351  0.3867  0.0924
40335SOL    HW124503  10.253   5.408   6.374 -0.5313  0.7386 -1.0392
40335SOL    HW224504  10.187   5.433   6.508 -0.8559 -0.9314 -0.8654
40336SOL     OW24505   4.217   3.798  10.182  0.2142 -0.3258  0.0991
40336SOL    HW124506   4.197   3.889  10.159  1.4536  0.7928  2.9582
40336SOL    HW224507   4.147   3.773  10.242  0.2835 -1.0072 -0.0998
40337SOL     OW24508   6.152   3.611  10.106  0.6333 -0.2103  0.3701
40337SOL    HW124509   6.141   3.701  10.076  0.9761  0.4349  2.0660
40337SOL    HW224510   6.244   3.590  10.089  0.9152  0.2742  1.2700
40338SOL     OW24511   6.103   4.031  11.002  0.4246  0.1446 -0.2758
40338SOL    HW124512   6.144   3.949  11.029  2.0385  0.6750 -0.9975
40338SOL    HW224513   6.152   4.100  11.048 -1.2743  0.7253  0.7796
40339SOL     OW24514   1.443   2.853   3.188  0.5214 -0.3403  0.3842
40339SOL    HW124515   1.478   2.888   3.270 -2.0974  0.8898  1.0747
40339SOL    HW224516   1.386   2.781   3.214 -0.2523 -0.0101 -0.3341
40340SOL     OW24517   0.542   6.440   8.580  0.0770 -0.0941 -0.0022
40340SOL    HW124518   0.577   6.490   8.507 -1.8825  0.1148 -0.8773
40340SOL    HW224519   0.488   6.502   8.629 -0.7492 -0.8477  0.0769
40341SOL     OW24520   0.633   9.115   2.575 -0.1681  0.1309 -0.0947
40341SOL    HW124521   0.627   9.023   2.549  1.2516  0.2365 -0.8885
40341SOL    HW224522   0.630   9.113   2.671 -2.1860 -0.5437 -0.1274
40342SOL     OW24523   2.233   5.206   6.976  0.2428 -0.5964 -0.1702
40342SOL    HW124524   2.293   5.218   7.050 -0.0008  0.1365 -0.0852
40342SOL    HW224525   2.155   5.255   7.001  0.4627  0.3553 -1.2709
40343SOL     OW24526   0.239   3.866   4.891 -0.0047 -0.1054 -0.1623
40343SOL    HW124527   0.202   3.954   4.894  0.3487  0.0497 -0.3895
40343SOL    HW224528   0.166   3.811   4.863  0.0165  0.2482 -0.9300
40344SOL     OW24529   1.555   9.165   1.861 -0.1194 -0.6545  0.7187
40344SOL    HW124530   1.485   9.117   1.906 -0.0333 -1.0398  0.4438
40344SOL    HW224531   1.556   9.251   1.904  1.3944 -1.6921  2.9697
40345SOL     OW24532   8.243   1.142   9.157 -0.8086 -0.2340  0.1904
40345SOL    HW124533   8.182   1.132   9.084  0.8132 -0.6078 -1.1710
40345SOL    HW224534   8.262   1.236   9.160 -0.0969 -0.3541 -0.5327
40346SOL     OW24535   8.290   3.452  10.542  0.5389  0.3364 -0.6997
40346SOL    HW124536   8.225   3.403  10.492  0.2396  0.6972 -0.6683
40346SOL    HW224537   8.361   3.468  10.479 -0.5380  2.2085 -1.5350
40347SOL     OW24538   3.355   6.203   0.961 -0.0592 -0.5845 -0.4218
40347SOL    HW124539   3.349   6.109   0.977  0.8120 -0.3576  1.4971
40347SOL    HW224540   3.357   6.243   1.048  1.6976  1.0578 -1.1246
40348SOL     OW24541   9.740   5.618   5.334 -0.1629  0.0286 -0.1524
40348SOL    HW124542   9.799   5.686   5.366 -0.6057  0.4512 -0.2357
40348SOL    HW224543   9.757   5.544   5.393 -1.4359  1.0048  1.5532
40349SOL     OW24544   1.016   7.080   1.857 -0.5088  0.5269 -0.2593
40349SOL    HW124545   1.040   7.170   1.878 -0.0101  0.1169  0.9782
40349SOL    HW224546   1.096   7.040   1.824  0.0517 -0.2354  1.8631
40350SOL     OW24547   9.342   1.787   9.042 -0.0320  0.9025  0.0963
40350SOL    HW124548   9.281   1.768   8.971 -0.0339  1.1386  0.0336
40350SOL    HW224549   9.371   1.877   9.026  0.8398  0.5754 -0.2518
40351SOL     OW24550   0.581   8.610   3.536  0.5128 -0.0391 -0.6108
40351SOL    HW124551   0.502   8.658   3.511  1.3463  1.4406 -0.4781
40351SOL    HW224552   0.613   8.654   3.615  1.7064 -0.3592 -0.8961
40352SOL     OW24553   0.433   8.624   2.240  0.3548 -0.1700  0.7019
40352SOL    HW124554   0.375   8.630   2.316  0.1074  1.9617  0.4103
40352SOL    HW224555   0.374   8.607   2.167  0.3052  0.2196  0.6511
40353SOL     OW24556   0.407   8.127   7.490 -0.1824  0.0621 -0.3356
40353SOL    HW124557   0.418   8.033   7.473 -0.1329 -0.0105  0.0877
40353SOL    HW224558   0.446   8.170   7.414  1.0956 -0.2355  0.1316
40354SOL     OW24559   9.316   4.310   2.706  0.1402 -0.7075 -0.2389
40354SOL    HW124560   9.222   4.311   2.689  0.1469 -0.1317 -0.2593
40354SOL    HW224561   9.327   4.361   2.786  0.6039  0.7987 -1.2162
40355SOL     OW24562   8.845   8.788   3.143  0.2915  0.4641  0.5975
40355SOL    HW124563   8.879   8.763   3.057  1.3049 -1.4962  1.4854
40355SOL    HW224564   8.753   8.762   3.142 -0.1682  2.0333 -0.4404
40356SOL     OW24565   1.810   1.098   3.331  0.3442 -0.2815 -0.5132
40356SOL    HW124566   1.836   1.009   3.306  0.1220 -1.3781  2.7593
40356SOL    HW224567   1.715   1.096   3.331  0.2964 -0.9759  2.2374
40357SOL     OW24568   7.543   6.451   2.179  0.8057  0.0633  0.4105
40357SOL    HW124569   7.513   6.367   2.214  0.0618 -0.4159 -1.2831
40357SOL    HW224570   7.613   6.428   2.118  0.7353  0.6913  0.0798
40358SOL     OW24571   7.120   0.251   8.758  0.0662  0.1571 -0.1023
40358SOL    HW124572   7.118   0.310   8.832 -0.5486 -2.3397  2.0182
40358SOL    HW224573   7.028   0.240   8.733 -0.0510 -1.5233  0.9605
40359SOL     OW24574   7.496   0.574   8.815  0.2115  0.4099  0.5028
40359SOL    HW124575   7.437   0.649   8.825 -0.2521  0.2254 -0.6738
40359SOL    HW224576   7.584   0.610   8.826 -0.0101  1.1182  0.0136
40360SOL     OW24577   5.560   9.033   7.856 -0.0764  0.1527 -0.0868
40360SOL    HW124578   5.537   9.122   7.829  0.9242  0.0536 -1.3712
40360SOL    HW224579   5.579   9.040   7.949 -2.1861  0.8156  0.3646
40361SOL     OW24580  10.259   0.118   6.608 -0.2438  0.2256  0.3403
40361SOL    HW124581  10.212   0.045   6.567 -0.2893  0.1744  0.4834
40361SOL    HW224582  10.351   0.099   6.594 -0.2411 -0.1076  0.8059
40362SOL     OW24583   7.572   6.319   7.343  0.1387  0.1251  0.3791
40362SOL    HW124584   7.549   6.229   7.320  0.0806  0.4587 -0.9321
40362SOL    HW224585   7.491   6.369   7.331 -0.0726  0.2222  1.9713
40363SOL     OW24586   7.398   3.535   8.374 -0.2517  0.4932 -0.1567
40363SOL    HW124587   7.339   3.543   8.299 -1.4362  2.4440  0.9059
40363SOL    HW224588   7.461   3.467   8.348 -1.9503 -0.4813 -1.9928
40364SOL     OW24589   9.940   1.683   2.166 -0.3689  0.1909  0.3684
40364SOL    HW124590   9.986   1.654   2.245  0.5833  0.3037 -0.1225
40364SOL    HW224591   9.999   1.660   2.095 -1.7598 -1.0476 -0.4394
40365SOL     OW24592   7.966   1.083  10.991  0.8811  0.2342  0.1717
40365SOL    HW124593   7.951   1.083  11.086  1.9656  0.4084  0.3548
40365SOL    HW224594   8.060   1.069  10.982  0.6341 -0.8840 -0.9080
40366SOL     OW24595  10.220   6.231   8.149  0.3597  0.2840  0.1244
40366SOL    HW124596  10.210   6.306   8.208 -1.0504 -0.7877  1.3109
40366SOL    HW224597  10.143   6.235   8.092  0.2513 -0.2927  0.2292
40367SOL     OW24598  10.646   6.323  10.851 -0.1300  0.3551 -0.1608
40367SOL    HW124599  10.603   6.264  10.913 -0.2062 -0.6627 -1.1418
40367SOL    HW224600  10.625   6.411  10.882 -0.1606 -0.1319  1.2356
40368SOL     OW24601   0.842   7.968   5.998 -0.5544 -0.3789 -0.3553
40368SOL    HW124602   0.790   7.890   6.013  0.3961 -1.2012 -1.1984
40368SOL    HW224603   0.782   8.028   5.952 -1.0099 -0.9604 -0.5318
40369SOL     OW24604   0.204   5.959   0.121 -0.3493 -0.4005  0.5811
40369SOL    HW124605   0.229   5.955   0.028 -0.8608  0.9655  0.3659
40369SOL    HW224606   0.237   6.044   0.151 -0.8474 -0.5030  1.4456
40370SOL     OW24607   4.767  10.194   5.532 -0.0800 -0.2404 -0.4515
40370SOL    HW124608   4.837  10.129   5.532  1.3059  1.1050  1.9420
40370SOL    HW224609   4.813  10.278   5.521 -1.0884  0.7699  2.1370
40371SOL     OW24610  10.470   6.271   8.760  0.1206  0.1224 -0.5775
40371SOL    HW124611  10.398   6.270   8.823 -0.5645 -0.5742 -1.3550
40371SOL    HW224612  10.460   6.355   8.714 -1.0585 -0.5719 -1.6358
40372SOL     OW24613   3.842   4.140   8.941  0.5178  0.8349 -1.0251
40372SOL    HW124614   3.786   4.191   8.883 -0.4652 -1.3718 -2.1176
40372SOL    HW224615   3.875   4.068   8.887  1.4066 -0.0187  0.5604
40373SOL     OW24616   9.878   1.468   9.155  0.1284  0.0178  0.2695
40373SOL    HW124617   9.838   1.555   9.150  0.3611  0.0755 -0.9605
40373SOL    HW224618   9.969   1.482   9.129 -0.2573 -0.8344 -1.6668
40374SOL     OW24619   0.109  10.429   6.233 -0.3115 -0.1515 -0.0293
40374SOL    HW124620   0.049  10.502   6.219  0.4790  0.5157 -0.0309
40374SOL    HW224621   0.099  10.374   6.156 -0.4024  0.3269 -0.3632
40375SOL     OW24622   8.509   4.804   8.774 -0.6087  0.9158 -0.4383
40375SOL    HW124623   8.497   4.797   8.869  0.9917 -0.8032 -0.3163
40375SOL    HW224624   8.431   4.764   8.737 -0.9522  1.0236  0.1523
40376SOL     OW24625   6.752   3.940   7.826  0.2175  0.0880 -0.2692
40376SOL    HW124626   6.754   3.845   7.816 -0.0938  0.2827 -2.9802
40376SOL    HW224627   6.716   3.954   7.914  1.6845 -2.2633  0.8115
40377SOL     OW24628   5.408   7.039   8.872  0.1665 -0.1620 -0.0874
40377SOL    HW124629   5.373   7.127   8.885 -0.1656 -0.4029  0.7188
40377SOL    HW224630   5.380   7.015   8.784  0.5356  0.6644 -0.4313
40378SOL     OW24631   7.475   7.279  10.567 -0.3005 -0.2823 -0.0783
40378SOL    HW124632   7.501   7.365  10.599  1.5846 -0.4007 -1.1540
40378SOL    HW224633   7.534   7.218  10.612 -0.1066 -0.7760 -0.9706
40379SOL     OW24634   3.549  10.184   7.087  0.1128  0.1912 -0.4008
40379SOL    HW124635   3.476  10.126   7.065  0.5436  0.2219 -2.1185
40379SOL    HW224636   3.508  10.266   7.113 -0.4827 -0.5263  0.9839
40380SOL     OW24637  10.867   3.847  10.448 -0.1322  0.2527  0.4668
40380SOL    HW124638  10.800   3.869  10.513  0.9825  0.3382  1.6216
40380SOL    HW224639  10.919   3.927  10.440 -0.7065  0.4977 -1.1317
40381SOL     OW24640  10.207   7.784   5.393 -0.2780  0.4664  0.1909
40381SOL    HW124641  10.272   7.715   5.386 -0.6869 -0.3048  2.9190
40381SOL    HW224642  10.259   7.864   5.406  0.1519  0.2645 -0.2498
40382SOL     OW24643   4.460   5.661   0.030 -0.0751 -0.1436  0.5875
40382SOL    HW124644   4.385   5.698  -0.016  0.0793 -0.5192  0.0339
40382SOL    HW224645   4.529   5.655  -0.036 -0.2417 -1.8754  0.5343
40383SOL     OW24646   6.589   4.090  10.286 -0.2533 -0.3388 -0.3898
40383SOL    HW124647   6.589   4.077  10.191 -0.8718 -2.3843 -0.1475
40383SOL    HW224648   6.672   4.054  10.315 -0.7652 -1.2472 -0.0021
40384SOL     OW24649   0.973   5.188  10.865 -0.1171  0.4014  0.7281
40384SOL    HW124650   0.889   5.169  10.824 -0.1810  2.2992 -0.1396
40384SOL    HW224651   0.976   5.283  10.872  1.7241  0.3556  1.2565
40385SOL     OW24652   1.643   7.939   7.362  0.0755 -0.2027 -0.2638
40385SOL    HW124653   1.676   7.950   7.273  0.3359 -0.3817 -0.1886
40385SOL    HW224654   1.703   7.989   7.417  1.3643 -2.0647  0.0996
40386SOL     OW24655   0.645   2.305   0.512 -0.2583  0.1182  0.3142
40386SOL    HW124656   0.706   2.278   0.581 -1.0575 -0.3840  0.8428
40386SOL    HW224657   0.696   2.366   0.458  0.3465  0.6486  1.4312
40387SOL     OW24658   9.571   3.029   1.814  0.4546 -0.4271 -0.5618
40387SOL    HW124659   9.490   3.042   1.765 -0.3658 -1.0841  0.5757
40387SOL    HW224660   9.610   3.116   1.819 -1.9752  0.6737  1.8551
40388SOL     OW24661  10.032   7.124   9.899  0.7582  0.7110 -0.3550
40388SOL    HW124662  10.019   7.061   9.828  0.5015  0.3448  0.0139
40388SOL    HW224663  10.100   7.183   9.866  0.0866  1.0195 -1.2200
40389SOL     OW24664   8.757   9.880   2.835 -0.2224 -0.0581 -0.1556
40389SOL    HW124665   8.791   9.914   2.917  0.8928  0.2411 -0.7243
40389SOL    HW224666   8.831   9.884   2.774 -0.7334 -1.2293 -0.9030
40390SOL     OW24667   9.565   4.565   8.240  0.3949 -0.4064 -0.2546
40390SOL    HW124668   9.479   4.606   8.229 -0.4423 -2.5204 -2.6105
40390SOL    HW224669   9.546   4.473   8.259  2.1408 -0.7405  0.0491
40391SOL     OW24670   3.603   3.898  10.140  0.0480 -0.6058  0.0794
40391SOL    HW124671   3.634   3.834  10.204  0.2951 -0.2398  0.3271
40391SOL    HW224672   3.515   3.920  10.169  0.7662  0.8366  1.2974
40392SOL     OW24673   8.913   5.200   8.842  0.1161 -0.5087  0.1069
40392SOL    HW124674   8.958   5.124   8.805  0.7460 -0.0301 -0.1354
40392SOL    HW224675   8.895   5.256   8.766 -1.3981 -0.9296  0.1131
40393SOL     OW24676   3.397   5.088   9.775 -0.4182  0.1001 -0.0297
40393SOL    HW124677   3.455   5.149   9.730  0.6515 -0.7766  0.1001
40393SOL    HW224678   3.378   5.021   9.709 -0.8166  0.0790  0.1062
40394SOL     OW24679   6.928   4.909   3.133  0.6435 -0.3394  0.0471
40394SOL    HW124680   6.925   4.859   3.215 -2.4021 -0.7847 -0.2176
40394SOL    HW224681   6.986   4.982   3.152  0.0353 -0.4261  2.6357
40395SOL     OW24682   5.180   3.091  10.174  0.2333 -0.3189  0.0547
40395SOL    HW124683   5.197   3.165  10.115  1.6747  0.3839  1.2750
40395SOL    HW224684   5.086   3.078  10.170 -0.1884  2.1398  0.4218
40396SOL     OW24685   6.642   9.150   0.629  0.3297 -0.5542  0.2641
40396SOL    HW124686   6.695   9.076   0.658 -0.2182 -1.0869 -0.0586
40396SOL    HW224687   6.636   9.207   0.705 -1.3807 -2.0964  1.3714
40397SOL     OW24688   7.429   5.738   8.595  0.1312 -0.4915  0.1521
40397SOL    HW124689   7.484   5.772   8.665 -0.2991  1.5679 -0.4405
40397SOL    HW224690   7.395   5.816   8.551 -0.1593 -1.6965 -1.9247
40398SOL     OW24691   5.286   7.148   7.632 -0.4801  0.5789  0.2147
40398SOL    HW124692   5.204   7.143   7.681  0.4012  0.9260  1.7685
40398SOL    HW224693   5.283   7.234   7.590 -1.3671  0.1655 -0.6292
40399SOL     OW24694   7.978   4.670  10.184  0.3973 -0.2865  0.0946
40399SOL    HW124695   7.970   4.707  10.096  1.6931 -1.3983 -0.5273
40399SOL    HW224696   8.071   4.680  10.206 -0.1600  1.3042  1.9769
40400SOL     OW24697   3.454   4.613   9.657 -0.1642 -0.0147  0.0040
40400SOL    HW124698   3.359   4.623   9.659 -0.4403 -1.5578 -2.2202
40400SOL    HW224699   3.476   4.577   9.743 -1.5469  0.5214  0.6185
40401SOL     OW24700  10.190   6.122   6.238 -0.0508 -0.0793  0.3207
40401SOL    HW124701  10.155   6.194   6.291 -0.7671  0.1191 -0.3896
40401SOL    HW224702  10.124   6.109   6.170 -0.0121 -1.5445  0.5423
40402SOL     OW24703   2.011  10.870   1.423 -0.0758  0.1748  0.4125
40402SOL    HW124704   2.008  10.892   1.516 -0.2493 -0.5195  0.5749
40402SOL    HW224705   1.925  10.898   1.390  0.5835  1.9745  0.0851
40403SOL     OW24706  10.464   3.856   6.297  0.1233  0.2699  0.0197
40403SOL    HW124707  10.537   3.873   6.237  0.6092  2.5990  1.1854
40403SOL    HW224708  10.424   3.941   6.311 -1.6997 -0.6758  0.8835
40404SOL     OW24709   7.868   5.789   9.120 -0.1808  0.5842  0.3358
40404SOL    HW124710   7.821   5.728   9.064  1.8294 -0.6434 -0.1142
40404SOL    HW224711   7.809   5.805   9.193 -0.9026 -1.7168  0.3358
40405SOL     OW24712   5.528   8.946   0.180 -0.2632  0.1288  0.0245
40405SOL    HW124713   5.584   9.017   0.212  1.7276 -0.5279 -1.7251
40405SOL    HW224714   5.482   8.983   0.104 -0.9590  0.1838  0.4667
40406SOL     OW24715  10.235   1.212   3.280 -0.3465  0.1747 -0.0725
40406SOL    HW124716  10.222   1.306   3.264  2.6878  0.7259  0.0730
40406SOL    HW224717  10.264   1.178   3.196 -1.1568 -0.6172 -0.0471
40407SOL     OW24718   9.903   8.786   5.171 -0.1060  0.1142 -0.0608
40407SOL    HW124719   9.993   8.766   5.196 -0.5560 -0.6392  1.0261
40407SOL    HW224720   9.894   8.751   5.082  0.2237 -1.2127  0.4132
40408SOL     OW24721   4.100   2.890   1.710 -0.6621  0.0191 -0.0079
40408SOL    HW124722   4.101   2.973   1.664  0.8725 -0.1142 -0.2679
40408SOL    HW224723   4.015   2.887   1.754 -1.5286  0.8251 -1.5756
40409SOL     OW24724   4.872   9.136   0.195 -0.2586 -0.4964 -0.2685
40409SOL    HW124725   4.779   9.116   0.206 -0.3395 -0.6790 -1.2532
40409SOL    HW224726   4.902   9.077   0.127 -0.1247  1.5509 -2.1023
40410SOL     OW24727   3.693   2.810   2.381 -0.1438  0.1316 -0.3125
40410SOL    HW124728   3.635   2.762   2.440 -0.0933  0.1261 -0.2663
40410SOL    HW224729   3.714   2.891   2.428 -0.9078  0.5889 -0.7560
40411SOL     OW24730   1.005   8.777   8.733 -0.8288  0.4317  0.8571
40411SOL    HW124731   0.924   8.742   8.697  0.3788 -1.2221 -0.4514
40411SOL    HW224732   1.021   8.724   8.812 -0.1978 -0.4282  0.1753
40412SOL     OW24733   6.208   3.911   5.609  0.0609  0.1347  0.9312
40412SOL    HW124734   6.134   3.868   5.650 -1.4288  1.1459 -0.5716
40412SOL    HW224735   6.204   4.001   5.641  1.3473 -0.0545  1.7088
40413SOL     OW24736   1.813   6.897   7.982  0.6021  0.1811 -0.2828
40413SOL    HW124737   1.828   6.807   8.010  0.1618  0.3660  0.5646
40413SOL    HW224738   1.790   6.890   7.889 -1.8799 -0.8283  0.3342
40414SOL     OW24739   6.732   8.392   2.373  0.0879 -0.3410  0.4061
40414SOL    HW124740   6.730   8.380   2.468 -1.9241  1.5123  0.6752
40414SOL    HW224741   6.700   8.482   2.359  1.8899  0.0411 -1.9532
40415SOL     OW24742   4.726  10.445   7.956  0.0439 -0.1583  0.3743
40415SOL    HW124743   4.645  10.397   7.944 -1.4843  2.2057  0.5195
40415SOL    HW224744   4.749  10.477   7.869  1.1682 -1.2628  0.2359
40416SOL     OW24745   8.928   9.939  10.620  0.5254  0.4910  0.2932
40416SOL    HW124746   8.914  10.029  10.649  0.5715  0.7193 -0.3652
40416SOL    HW224747   8.992   9.946  10.548  0.3103 -0.0350  0.0402
40417SOL     OW24748   5.975   9.114   8.931 -0.3002  0.0209 -0.1837
40417SOL    HW124749   5.976   9.119   9.026  0.2240 -0.6611 -0.1446
40417SOL    HW224750   6.046   9.053   8.909  2.5560  3.3584 -1.2368
40418SOL     OW24751   1.677   7.443   3.741 -0.3098 -0.2361  0.4818
40418SOL    HW124752   1.703   7.472   3.828 -1.2171  0.4915  0.5249
40418SOL    HW224753   1.757   7.448   3.689  0.2946 -0.8918  1.3195
40419SOL     OW24754   1.980   5.190   6.064 -0.0282  0.0587  0.0737
40419SOL    HW124755   2.039   5.235   6.124 -0.2058 -1.8342  1.7843
40419SOL    HW224756   1.952   5.258   6.003  1.2960  1.7612  1.2498
40420SOL     OW24757   6.202   8.767   3.194  0.1804 -0.2659  0.2972
40420SOL    HW124758   6.181   8.820   3.271 -0.6864 -0.6446  0.3356
40420SOL    HW224759   6.277   8.811   3.154  0.0739  0.4385  0.8567
40421SOL     OW24760   6.561   9.631   6.231  0.5666 -0.6627 -0.0580
40421SOL    HW124761   6.633   9.569   6.239 -1.4924 -3.2277 -0.1909
40421SOL    HW224762   6.536   9.627   6.138  0.5252  0.5782 -0.1253
40422SOL     OW24763  10.847   2.337   2.097  0.5436  0.8315 -0.3760
40422SOL    HW124764  10.845   2.366   2.005 -0.5564  1.4027 -0.1882
40422SOL    HW224765  10.852   2.242   2.092  1.1054  0.8914 -1.0311
40423SOL     OW24766   1.223   5.700  10.011 -0.0111  0.6050  0.8552
40423SOL    HW124767   1.136   5.661  10.005  0.7411 -1.3321  1.8781
40423SOL    HW224768   1.264   5.679   9.927 -0.3697  1.2301  0.5071
40424SOL     OW24769   4.797  10.145   9.469 -0.0614  0.1647  0.0417
40424SOL    HW124770   4.842  10.061   9.470  0.9421  0.7048  1.3581
40424SOL    HW224771   4.727  10.135   9.534  0.9719  0.8165  1.2805
40425SOL     OW24772   8.977   2.753  10.147  0.7771  0.1547  0.4303
40425SOL    HW124773   8.923   2.679  10.120 -0.1032  0.7106  0.6136
40425SOL    HW224774   8.996   2.800  10.066  0.0970  0.5300  0.4790
40426SOL     OW24775  10.929   8.436   0.986 -0.1610 -0.4888  0.3128
40426SOL    HW124776  11.009   8.399   0.949 -0.0598  0.3446 -0.3429
40426SOL    HW224777  10.861   8.412   0.923 -0.2129 -0.1527  0.2397
40427SOL     OW24778   2.864   8.437   4.912  0.6457 -0.1325 -0.3061
40427SOL    HW124779   2.850   8.451   5.006  1.0089  1.7437 -0.4906
40427SOL    HW224780   2.838   8.519   4.872  4.0228  0.5065 -1.4855
40428SOL     OW24781   5.981   1.420   4.914  0.4287  0.2009 -0.0341
40428SOL    HW124782   6.041   1.357   4.953 -0.5077 -0.4727  0.3401
40428SOL    HW224783   5.981   1.493   4.976  2.3316  1.0906 -0.9860
40429SOL     OW24784   1.590   6.294   9.795  0.6787  0.1774  0.3216
40429SOL    HW124785   1.561   6.271   9.707  0.7403 -2.3459  0.8890
40429SOL    HW224786   1.684   6.311   9.785  0.4855  0.9972 -0.2495
40430SOL     OW24787   9.686   4.598   3.917  0.2003  0.5568  0.4254
40430SOL    HW124788   9.703   4.574   3.826 -0.0164  1.4780  0.1404
40430SOL    HW224789   9.592   4.617   3.919  0.1501  0.2766  0.9108
40431SOL     OW24790   4.547   8.181  10.153 -1.0935 -0.0058 -0.5096
40431SOL    HW124791   4.530   8.213  10.064 -0.8133 -2.5682 -1.5701
40431SOL    HW224792   4.471   8.209  10.204 -0.8710  2.2164 -1.3113
40432SOL     OW24793   8.535   4.635   5.238  0.1060 -0.4498  0.4589
40432SOL    HW124794   8.481   4.590   5.173 -0.7914  2.2079 -0.7631
40432SOL    HW224795   8.618   4.651   5.192 -0.1722  0.5539  0.2892
40433SOL     OW24796   4.354   4.671   6.835 -0.2175 -0.0896 -0.2711
40433SOL    HW124797   4.327   4.700   6.922  0.0372  1.1158 -0.5827
40433SOL    HW224798   4.300   4.721   6.774  0.4668 -0.0050 -0.8340
40434SOL     OW24799   3.616   9.539   7.509 -0.2634 -0.1088  0.6151
40434SOL    HW124800   3.574   9.462   7.548  1.4471 -2.2782 -1.4617
40434SOL    HW224801   3.686   9.562   7.571 -0.7345 -0.2747  1.2143
40435SOL     OW24802   4.216   2.525   4.988 -0.1216 -0.1418 -0.4243
40435SOL    HW124803   4.183   2.436   5.001 -1.2002  0.3725  0.5419
40435SOL    HW224804   4.309   2.519   5.012 -0.1058 -1.0725 -0.6752
40436SOL     OW24805   1.196   5.151   8.260 -0.1938 -0.1433  0.5149
40436SOL    HW124806   1.224   5.082   8.321  1.3067  0.2450  0.3156
40436SOL    HW224807   1.201   5.110   8.174 -0.6963 -0.1970  0.5081
40437SOL     OW24808   2.302   1.571   8.993  0.3000  0.1485 -0.2105
40437SOL    HW124809   2.329   1.653   9.034 -1.3857  0.9157 -0.5548
40437SOL    HW224810   2.232   1.596   8.934  0.5794 -1.3932 -1.2404
40438SOL     OW24811   0.259   4.749   3.936  0.5736  0.4187  0.2432
40438SOL    HW124812   0.257   4.835   3.895  0.2629  1.9115  3.1165
40438SOL    HW224813   0.335   4.705   3.898  1.1480  2.2279 -0.7970
40439SOL     OW24814   3.774   1.018   2.588 -0.0738 -0.5131 -0.3693
40439SOL    HW124815   3.752   1.111   2.579 -1.2277 -0.5158  1.7600
40439SOL    HW224816   3.707   0.973   2.536  0.9296 -0.1961 -2.0365
40440SOL     OW24817   5.437   4.305   0.672 -0.2810  0.0106  0.0795
40440SOL    HW124818   5.424   4.292   0.766 -0.7790 -0.2526 -0.0189
40440SOL    HW224819   5.353   4.339   0.641 -0.2997 -0.4129 -0.3529
40441SOL     OW24820   7.431   4.070   9.604 -0.2043 -0.2638  0.0923
40441SOL    HW124821   7.368   4.030   9.665 -0.2184  0.8683  0.8358
40441SOL    HW224822   7.409   4.031   9.519  0.6304 -2.8632  0.9439
40442SOL     OW24823   2.987   2.112   4.570  0.1839 -0.1565 -0.3317
40442SOL    HW124824   2.922   2.119   4.500  1.3781 -1.6709 -1.6674
40442SOL    HW224825   3.065   2.154   4.535  0.4846  0.0186  0.5226
40443SOL     OW24826   6.304   1.722   6.838  0.4381  0.4645  0.0623
40443SOL    HW124827   6.396   1.698   6.845  0.6866  1.3431 -0.2065
40443SOL    HW224828   6.268   1.658   6.777  1.4717  1.7349 -1.9829
40444SOL     OW24829   6.745   1.787   8.493  0.3570  0.2611 -0.0996
40444SOL    HW124830   6.773   1.717   8.435  1.9872  0.4149  0.4714
40444SOL    HW224831   6.766   1.755   8.581 -0.1353  0.9070  0.2627
40445SOL     OW24832   3.234   0.415  10.905 -0.1501 -0.2098 -0.4417
40445SOL    HW124833   3.273   0.351  10.845  0.8997 -1.2364  1.2223
40445SOL    HW224834   3.293   0.490  10.903 -1.1889  0.6027 -2.1314
40446SOL     OW24835   1.749   6.357   5.830  0.1939 -0.2535  0.0211
40446SOL    HW124836   1.797   6.305   5.894 -0.7844 -1.5092 -0.2154
40446SOL    HW224837   1.716   6.432   5.880  1.2955 -0.0467  0.4637
40447SOL     OW24838   0.910   4.599  10.288 -0.2813  0.2615  0.2499
40447SOL    HW124839   0.915   4.513  10.247 -0.5705  0.2129  0.3101
40447SOL    HW224840   0.817   4.619  10.289 -0.2817  0.2567  0.8831
40448SOL     OW24841   6.738   0.975   6.591 -0.2318  0.5634 -0.6855
40448SOL    HW124842   6.655   0.946   6.627  0.6401 -2.0512 -0.5249
40448SOL    HW224843   6.793   0.991   6.667  0.0658  0.0743 -0.7906
40449SOL     OW24844   6.475  10.990  10.129 -0.4410  0.1168 -0.5919
40449SOL    HW124845   6.442  10.936  10.057 -3.0013  0.3813  0.2801
40449SOL    HW224846   6.449  10.943  10.208  1.4333  0.3312  0.1960
40450SOL     OW24847   0.198   4.793  10.789 -0.0372  0.1277 -0.1328
40450SOL    HW124848   0.294   4.786  10.796  0.2233  1.8028 -1.5001
40450SOL    HW224849   0.178   4.880  10.824 -0.8353  0.5360 -1.5570
40451SOL     OW24850   7.303   2.408   9.244 -0.3201 -0.0232  0.1065
40451SOL    HW124851   7.226   2.439   9.293  0.3949 -1.0495  2.0187
40451SOL    HW224852   7.332   2.331   9.293  1.9175  0.3256 -0.5668
40452SOL     OW24853  10.287   3.593   0.259  0.3102  0.0940 -0.2091
40452SOL    HW124854  10.320   3.638   0.337 -0.0551  0.5992 -0.3427
40452SOL    HW224855  10.364   3.551   0.221  0.5443  0.0983  0.2585
40453SOL     OW24856  10.970   4.212  10.911  0.7241  0.1723 -0.0430
40453SOL    HW124857  11.008   4.172  10.989  0.8258  0.5448  0.1011
40453SOL    HW224858  10.897   4.265  10.943  0.5076  0.0048 -0.2467
40454SOL     OW24859   6.552   4.872   4.004 -0.2151  0.3491  0.4912
40454SOL    HW124860   6.473   4.923   3.987 -0.7954 -0.6124  0.2202
40454SOL    HW224861   6.520   4.790   4.041  0.7084  0.2424  1.0795
40455SOL     OW24862   3.423   9.281   5.313  0.4840  0.0301 -0.0365
40455SOL    HW124863   3.441   9.206   5.370  2.6571  0.8604  0.4749
40455SOL    HW224864   3.328   9.292   5.317  0.3416 -1.3215  1.6293
40456SOL     OW24865  10.599   0.000   3.843 -0.1251 -0.1721 -0.3002
40456SOL    HW124866  10.645   0.046   3.914  2.1805 -1.5794 -0.7937
40456SOL    HW224867  10.510   0.037   3.844  1.3195  3.7121 -0.1935
40457SOL     OW24868   9.573   6.249   7.542  1.0237 -0.3426 -0.1042
40457SOL    HW124869   9.545   6.340   7.554 -1.3487 -0.9734 -0.4439
40457SOL    HW224870   9.579   6.238   7.447  2.0294 -0.3671 -0.0509
40458SOL     OW24871   8.559   0.634   3.669 -0.5424 -0.3270 -0.1042
40458SOL    HW124872   8.598   0.720   3.650 -0.1261 -0.3871  0.4424
40458SOL    HW224873   8.520   0.644   3.756 -0.1744 -0.7951  0.1203
40459SOL     OW24874   4.006  10.340   6.237 -0.2533 -0.3151  0.7904
40459SOL    HW124875   4.029  10.341   6.144  1.1417 -0.1268  1.1143
40459SOL    HW224876   4.050  10.263   6.272 -0.7701 -0.3839  1.2915
40460SOL     OW24877   3.775   4.699   4.557  0.8591  0.4140 -0.7864
40460SOL    HW124878   3.743   4.622   4.603  0.2826 -0.3327 -2.3759
40460SOL    HW224879   3.729   4.772   4.598  1.9580  0.0484  1.2340
40461SOL     OW24880  10.516   1.877   2.087 -0.5935  0.5182  0.4070
40461SOL    HW124881  10.595   1.829   2.065 -0.8201  0.8813 -1.3155
40461SOL    HW224882  10.545   1.943   2.150  0.1526 -0.3764  1.0184
40462SOL     OW24883   2.008   4.960   5.915  0.0303 -0.1094  0.0517
40462SOL    HW124884   1.989   5.035   5.971 -0.6430  0.5255 -1.0180
40462SOL    HW224885   1.924   4.914   5.906 -0.3039  0.7879 -1.8660
40463SOL     OW24886   9.176   2.560   8.844  0.2308 -0.3216  0.3957
40463SOL    HW124887   9.229   2.567   8.764  3.5953 -1.6717  2.3088
40463SOL    HW224888   9.131   2.476   8.834 -0.8612  0.3767 -0.8414
40464SOL     OW24889   6.379   6.619   5.533  0.2502  0.1223 -0.0218
40464SOL    HW124890   6.425   6.702   5.544  1.0914 -0.3852  0.3610
40464SOL    HW224891   6.434   6.554   5.577 -0.7843 -0.5177  0.3765
40465SOL     OW24892   0.352   9.037   5.577 -0.0181 -0.6650 -0.0828
40465SOL    HW124893   0.294   8.960   5.580  0.3613 -0.9976 -0.9349
40465SOL    HW224894   0.439   9.000   5.561  0.1391 -0.0534 -0.6630
40466SOL     OW24895   7.154   8.753   2.013 -0.4098 -0.0318  0.0987
40466SOL    HW124896   7.129   8.700   1.938 -0.9059 -2.1320  1.6525
40466SOL    HW224897   7.197   8.691   2.073 -0.3874  1.4702  1.7232
40467SOL     OW24898   8.410   8.698   4.792 -0.1358  0.1434  0.3014
40467SOL    HW124899   8.401   8.603   4.806  1.8049  0.0112  0.8970
40467SOL    HW224900   8.328   8.734   4.825 -1.5473 -1.4138 -1.2547
40468SOL     OW24901   5.341   5.606   3.700  0.2802 -0.1772  0.0411
40468SOL    HW124902   5.384   5.670   3.643 -0.5379  1.7840  1.5397
40468SOL    HW224903   5.264   5.578   3.651  0.2990  0.4808 -0.3742
40469SOL     OW24904   5.310   8.388   1.193 -0.1266  0.0743  0.4698
40469SOL    HW124905   5.265   8.461   1.150 -0.9313 -1.1336 -0.7975
40469SOL    HW224906   5.240   8.333   1.228  0.4464 -0.4662  0.7848
40470SOL     OW24907  10.889   5.185   1.670  0.4570 -0.4510  0.1087
40470SOL    HW124908  10.926   5.271   1.691 -0.0719 -0.3089  0.4758
40470SOL    HW224909  10.895   5.135   1.751  0.3170 -0.5990  0.0286
40471SOL     OW24910   6.761   5.983   6.984 -0.3727 -0.1215  0.1895
40471SOL    HW124911   6.702   6.017   6.917 -0.0607  0.3597  0.1532
40471SOL    HW224912   6.744   5.889   6.986 -1.1051  0.0066  0.1475
40472SOL     OW24913   4.371   2.355   2.453  0.4983 -0.3146 -0.3915
40472SOL    HW124914   4.425   2.279   2.432 -1.1835 -1.7555  0.2612
40472SOL    HW224915   4.296   2.319   2.500 -0.6916  1.6872 -0.6510
40473SOL     OW24916   8.491   8.229   5.261 -0.6065 -0.1632  0.4941
40473SOL    HW124917   8.552   8.244   5.188 -1.3519 -1.3863 -0.4033
40473SOL    HW224918   8.465   8.317   5.287 -0.6579  0.3133 -1.0235
40474SOL     OW24919   6.503   0.723   0.055  0.8658 -0.2739 -0.2669
40474SOL    HW124920   6.471   0.721  -0.035  1.0154 -1.1870 -0.3011
40474SOL    HW224921   6.426   0.703   0.108  1.1143 -1.2774 -0.2816
40475SOL     OW24922   6.780   3.664   7.797 -0.2991  0.3876  0.1946
40475SOL    HW124923   6.706   3.608   7.775 -0.7264  0.6766  0.8687
40475SOL    HW224924   6.853   3.604   7.808 -0.7014 -0.0262  0.7040
40476SOL     OW24925   7.832   5.018   4.063 -0.1774 -0.2313 -0.1081
40476SOL    HW124926   7.902   5.070   4.024  1.0410 -0.8792  1.1335
40476SOL    HW224927   7.845   4.930   4.027 -0.4053 -0.3329  0.0600
40477SOL     OW24928   2.796   4.524   8.174 -0.5130  0.1309  0.2451
40477SOL    HW124929   2.753   4.538   8.259 -0.4205  1.1616  0.1271
40477SOL    HW224930   2.848   4.603   8.160  1.7883 -1.2226  0.5804
40478SOL     OW24931   1.616   8.096  10.705  0.1875 -0.1783  0.0500
40478SOL    HW124932   1.574   8.092  10.619  1.8846  0.2799 -0.8356
40478SOL    HW224933   1.653   8.009  10.718 -0.6445 -0.4568  0.6485
40479SOL     OW24934   3.112   3.288   9.490  0.3273  0.1418  0.5186
40479SOL    HW124935   3.159   3.279   9.407  0.0689  2.2973  0.0816
40479SOL    HW224936   3.029   3.330   9.466  0.2058  0.7077  1.8453
40480SOL     OW24937   6.235   3.569   0.821  0.1321 -0.1231 -0.4955
40480SOL    HW124938   6.275   3.557   0.735 -0.5693 -0.4685 -0.7855
40480SOL    HW224939   6.201   3.482   0.844  0.1365  0.0117  0.0383
40481SOL     OW24940  10.508   8.058  10.528 -0.0391  0.0079  0.2439
40481SOL    HW124941  10.457   7.986  10.489  1.0201 -0.8297  0.3366
40481SOL    HW224942  10.508   8.126  10.461  0.7976 -0.9671 -0.7920
40482SOL     OW24943  10.891   3.436   0.933  0.2646  0.1304 -0.3352
40482SOL    HW124944  10.916   3.507   0.874  0.2024 -0.8251 -1.5544
40482SOL    HW224945  10.956   3.367   0.917 -0.1230 -0.3931  0.2689
40483SOL     OW24946   9.043   8.061   9.430  0.5069  0.0260 -0.5072
40483SOL    HW124947   8.987   8.104   9.494 -0.9770 -0.4998 -1.4053
40483SOL    HW224948   9.041   8.120   9.354 -1.4251 -1.4645 -1.6974
40484SOL     OW24949   4.167   4.734   2.820 -0.1126 -0.0930  0.1409
40484SOL    HW124950   4.256   4.764   2.839  0.3528 -0.9825 -0.5573
40484SOL    HW224951   4.111   4.786   2.878  0.8373  0.6350  0.4327
40485SOL     OW24952   6.737   9.826   4.166 -0.4105  0.6546 -0.3770
40485SOL    HW124953   6.802   9.780   4.113 -1.7054  0.7253 -2.1336
40485SOL    HW224954   6.746   9.918   4.141 -0.6262  0.7741 -0.0194
40486SOL     OW24955   2.150   5.601   5.244  0.6295 -0.0156  0.3494
40486SOL    HW124956   2.225   5.546   5.223 -0.0238 -1.0039  0.5151
40486SOL    HW224957   2.127   5.642   5.160  0.0581 -1.3781 -0.1938
40487SOL     OW24958   4.825   1.645   0.528 -0.1347  0.2835 -0.4761
40487SOL    HW124959   4.734   1.634   0.554  0.1520 -2.5177 -0.3879
40487SOL    HW224960   4.823   1.715   0.463 -2.4069  0.0162 -0.7766
40488SOL     OW24961   1.706  10.713   8.391 -0.2285 -0.3453 -0.5074
40488SOL    HW124962   1.640  10.778   8.366 -0.2087 -0.4051 -0.7106
40488SOL    HW224963   1.789  10.750   8.360 -0.2432 -0.5690 -0.8163
40489SOL     OW24964   0.840   3.891   6.362  0.5415 -0.2559  0.3291
40489SOL    HW124965   0.806   3.969   6.318  1.7889  0.9284  1.3519
40489SOL    HW224966   0.772   3.825   6.350 -0.4649  0.9181 -0.7622
40490SOL     OW24967   4.220   2.082   1.327  0.0241 -0.0335  0.0117
40490SOL    HW124968   4.155   2.152   1.324  1.2237  1.2074  1.5159
40490SOL    HW224969   4.304   2.127   1.337  0.8538 -1.6722  0.9087
40491SOL     OW24970   0.540   7.957   5.515  0.4084  0.3824 -0.2082
40491SOL    HW124971   0.519   7.898   5.443  1.7794  0.3567 -0.6108
40491SOL    HW224972   0.596   7.905   5.573  0.1608  0.7280  0.3508
40492SOL     OW24973   4.724  10.344  10.568  0.9752  0.0198 -0.0931
40492SOL    HW124974   4.680  10.428  10.577  1.9868  0.7038 -1.2952
40492SOL    HW224975   4.746  10.318  10.657 -1.3974 -0.1260  0.5025
40493SOL     OW24976   2.936  10.679   0.862 -0.5841 -0.0856  0.2288
40493SOL    HW124977   2.905  10.645   0.778  1.4248 -0.9888 -0.1995
40493SOL    HW224978   2.894  10.624   0.927  0.4888 -1.6454 -0.3512
40494SOL     OW24979   4.461   0.470  10.318  0.1041 -0.4863  0.0113
40494SOL    HW124980   4.440   0.419  10.239  0.3665 -1.4720  0.5635
40494SOL    HW224981   4.375   0.491  10.355 -0.0218 -0.0003 -0.5431
40495SOL     OW24982   9.940   2.656   8.217  0.0657  0.3742  0.1103
40495SOL    HW124983   9.985   2.729   8.260  0.3652  0.1444  0.1883
40495SOL    HW224984   9.849   2.684   8.213 -0.1223  0.0410  1.6711
40496SOL     OW24985   3.080   0.403   5.642  0.2691 -0.4480 -0.2310
40496SOL    HW124986   3.038   0.456   5.575 -1.3058 -1.3486 -0.0155
40496SOL    HW224987   3.091   0.462   5.716 -2.3689 -0.5763  0.3603
40497SOL     OW24988   8.177   9.582   8.971 -0.3629 -0.0299 -0.0448
40497SOL    HW124989   8.099   9.610   9.019  0.6972  0.9938  1.1483
40497SOL    HW224990   8.231   9.537   9.036  0.3324 -0.1694 -0.6948
40498SOL     OW24991   4.683   5.786   2.651 -0.2351 -0.1198 -0.0759
40498SOL    HW124992   4.669   5.722   2.721 -0.9255 -0.4612 -0.5074
40498SOL    HW224993   4.738   5.854   2.690 -0.8040 -0.1913  0.8640
40499SOL     OW24994   2.120   7.408   6.724 -0.5396 -0.2168 -0.0084
40499SOL    HW124995   2.053   7.347   6.756 -0.4318  0.2919  1.2723
40499SOL    HW224996   2.070   7.481   6.687 -0.6879 -0.2733  0.0773
40500SOL     OW24997   3.844   0.666   2.014  1.0042  0.7221 -0.4155
40500SOL    HW124998   3.853   0.609   1.937  1.3254 -1.9916  1.5144
40500SOL    HW224999   3.783   0.734   1.985 -0.3343 -1.2068 -2.5459
40501SOL     OW25000  10.310   5.537   4.262  0.2160 -0.6586 -0.4840
40501SOL    HW125001  10.307   5.454   4.310 -1.0141 -0.0269  0.5614
40501SOL    HW225002  10.267   5.600   4.319  1.7647  0.8910 -0.9588
40502SOL     OW25003  10.835   5.839   9.800  0.2087  0.2068  0.3064
40502SOL    HW125004  10.900   5.898   9.762  1.1620 -0.7024  0.4832
40502SOL    HW225005  10.883   5.789   9.866 -0.8984  0.1812  1.1289
40503SOL     OW25006   4.465   4.010   2.791  0.3581  0.0223 -0.9652
40503SOL    HW125007   4.556   3.990   2.766  0.7042  0.2190  0.0644
40503SOL    HW225008   4.431   4.062   2.719  1.6529  1.4917 -0.5621
40504SOL     OW25009   0.017   7.349   0.680  0.3494 -0.2169 -0.0465
40504SOL    HW125010  -0.047   7.403   0.726 -1.9884 -1.6503 -1.4148
40504SOL    HW225011  -0.009   7.259   0.700  2.4274 -0.8705 -0.0698
40505SOL     OW25012   5.604  10.044   2.873 -0.5403  0.3747  0.1403
40505SOL    HW125013   5.515  10.074   2.889 -0.9316 -0.6156 -0.1021
40505SOL    HW225014   5.613   9.966   2.927  0.6806  1.2574  1.2800
40506SOL     OW25015   5.784   0.723   0.883 -0.2905  0.2061 -0.1199
40506SOL    HW125016   5.808   0.769   0.964 -0.3741 -0.0519  0.0525
40506SOL    HW225017   5.738   0.645   0.913 -0.0068 -0.0731 -0.4064
40507SOL     OW25018   6.048   4.321  10.680  0.1606 -0.3136 -0.5376
40507SOL    HW125019   6.139   4.341  10.702 -0.3667  0.5328  1.0427
40507SOL    HW225020   6.054   4.268  10.601  1.9220  1.5054 -1.7104
40508SOL     OW25021   9.201   3.143   8.166 -0.2039  0.3114 -0.5331
40508SOL    HW125022   9.213   3.229   8.125 -1.1266  0.5626 -0.2983
40508SOL    HW225023   9.242   3.082   8.105  0.3324  0.8959 -0.7763
40509SOL     OW25024   6.917   4.881   7.354  0.4112 -0.1053  0.0711
40509SOL    HW125025   6.902   4.888   7.260 -0.3549  0.6159  0.2356
40509SOL    HW225026   6.829   4.886   7.393  0.4378 -3.0529  0.7067
40510SOL     OW25027   3.853   3.458   6.238  0.0975 -0.2215 -0.5000
40510SOL    HW125028   3.846   3.547   6.273 -1.4889 -0.8517  0.9246
40510SOL    HW225029   3.791   3.456   6.166  0.6895  0.0186 -1.0290
40511SOL     OW25030   8.450   6.861   6.185  0.0833 -0.2333 -0.1016
40511SOL    HW125031   8.358   6.886   6.184  0.3524  0.8210  0.0471
40511SOL    HW225032   8.477   6.866   6.093  0.2832  0.6558 -0.0076
40512SOL     OW25033   0.355   5.581   4.408 -0.1676 -0.4499  0.1538
40512SOL    HW125034   0.314   5.512   4.461 -0.0844  0.4033  1.3688
40512SOL    HW225035   0.449   5.565   4.414 -0.1848 -0.7855 -0.3684
40513SOL     OW25036   6.575   4.011   5.841 -0.2701 -0.5170  0.5049
40513SOL    HW125037   6.536   3.934   5.881 -1.6809 -1.2548 -2.0908
40513SOL    HW225038   6.503   4.073   5.832  0.4558  0.4117  0.8752
40514SOL     OW25039   6.017   8.516   2.563  0.1249  0.2203 -0.3542
40514SOL    HW125040   5.963   8.588   2.596  1.2385  0.0945  1.9260
40514SOL    HW225041   5.981   8.437   2.604  0.8359 -0.0979 -0.3134
40515SOL     OW25042   9.506  10.430   5.546  0.0674 -0.3376  0.0777
40515SOL    HW125043   9.590  10.389   5.567  1.1434  2.4206  1.8079
40515SOL    HW225044   9.510  10.447   5.452  1.3759 -0.5005  0.0821
40516SOL     OW25045   6.615   6.956   3.364  0.2991  0.3013 -0.1820
40516SOL    HW125046   6.692   6.993   3.406  0.7660  0.2833 -0.9895
40516SOL    HW225047   6.549   6.952   3.433  1.0840  0.1180  0.5786
40517SOL     OW25048   7.588   6.490   0.841 -0.9203  0.6483 -0.2250
40517SOL    HW125049   7.653   6.445   0.787 -0.6174  1.0625 -0.2153
40517SOL    HW225050   7.541   6.547   0.780 -3.2281 -1.6785 -0.8060
40518SOL     OW25051   5.093   1.103   4.275 -0.2674  0.4230 -0.3752
40518SOL    HW125052   5.075   1.171   4.211 -0.4328  0.1533 -0.6177
40518SOL    HW225053   5.007   1.073   4.304 -0.2463 -0.9630 -1.6326
40519SOL     OW25054   1.380   5.274   5.787  0.2054 -0.4429  0.5607
40519SOL    HW125055   1.329   5.236   5.715  1.0954  1.7505 -1.3492
40519SOL    HW225056   1.454   5.215   5.798  0.5043 -0.3818 -0.9399
40520SOL     OW25057   4.202   7.762   7.376 -0.0724 -0.0673 -0.1410
40520SOL    HW125058   4.134   7.817   7.415  0.2965 -0.2187  0.7205
40520SOL    HW225059   4.282   7.786   7.421 -0.1447 -2.3611  1.3761
40521SOL     OW25060   2.458   6.988   8.291  0.0483 -0.5429  0.3910
40521SOL    HW125061   2.403   6.928   8.341 -1.4666  1.5110  1.3432
40521SOL    HW225062   2.400   7.024   8.224  0.7766  0.2230  0.1497
40522SOL     OW25063  10.386   1.129   2.869 -0.3714  0.2917  0.2137
40522SOL    HW125064  10.356   1.219   2.862  0.0088  0.5750  1.8379
40522SOL    HW225065  10.475   1.130   2.834 -0.8503  0.2226 -1.0801
40523SOL     OW25066   9.700   1.321   9.040 -0.7121  0.4962  0.3537
40523SOL    HW125067   9.627   1.375   9.009 -1.1969 -0.5835 -0.4417
40523SOL    HW225068   9.765   1.385   9.071 -2.9789  1.5135  3.5668
40524SOL     OW25069   2.634   5.633   3.230 -0.1752  0.0708  0.3081
40524SOL    HW125070   2.678   5.561   3.184 -2.4687 -1.3237  0.1623
40524SOL    HW225071   2.602   5.593   3.311 -0.7385  1.1554  0.6380
40525SOL     OW25072   7.902   0.561   1.572 -0.4033 -0.5250  0.0841
40525SOL    HW125073   7.973   0.563   1.507  0.3783  1.9931  0.9137
40525SOL    HW225074   7.822   0.571   1.521  0.0793 -0.2122 -0.6208
40526SOL     OW25075   8.692   7.273   0.765  0.1049 -0.1443  0.1915
40526SOL    HW125076   8.628   7.210   0.798  2.1995 -1.5052  1.9323
40526SOL    HW225077   8.753   7.221   0.713  1.3126  0.5902  0.8152
40527SOL     OW25078   9.720  10.830   5.130 -0.3408  0.5637 -0.3470
40527SOL    HW125079   9.634  10.862   5.158  0.6950  0.3310  3.6523
40527SOL    HW225080   9.764  10.908   5.095 -1.1349  1.3573  0.3704
40528SOL     OW25081   3.620  10.974   7.665  0.9107 -0.5465 -0.1479
40528SOL    HW125082   3.580  10.902   7.617 -1.1640 -0.3093  1.0897
40528SOL    HW225083   3.641  11.039   7.599 -2.4923  0.0733 -0.7914
40529SOL     OW25084   4.980   7.911   9.257  0.2737 -0.3614  0.0181
40529SOL    HW125085   4.982   7.817   9.244  2.9899 -0.2932 -0.7380
40529SOL    HW225086   5.018   7.947   9.177 -0.9414  1.4202  0.1751
40530SOL     OW25087   7.138   5.576   3.528 -0.4939 -0.1124  0.5166
40530SOL    HW125088   7.209   5.622   3.572 -1.6609  1.8764  0.4239
40530SOL    HW225089   7.119   5.501   3.584 -0.5443  1.1919  2.3306
40531SOL     OW25090   8.867   8.798   7.510 -0.1705 -0.9121  0.1629
40531SOL    HW125091   8.929   8.795   7.583 -0.3966 -0.5998  0.3716
40531SOL    HW225092   8.853   8.891   7.495  1.0058 -0.9247 -1.2530
40532SOL     OW25093   9.132   3.686   1.302  0.0096  0.6953 -0.0535
40532SOL    HW125094   9.129   3.706   1.208  1.6857  0.9852 -0.0796
40532SOL    HW225095   9.211   3.729   1.333 -0.5059  0.5753  1.5067
40533SOL     OW25096   4.257  10.640   2.243  0.0019  0.3248  0.1559
40533SOL    HW125097   4.318  10.709   2.220  1.0693  0.2612  2.5314
40533SOL    HW225098   4.172  10.684   2.252 -0.1351  0.6147 -1.9771
40534SOL     OW25099   0.561   3.287   8.414 -0.0451 -0.0223  0.5190
40534SOL    HW125100   0.599   3.342   8.482  0.3087 -1.9946  1.9776
40534SOL    HW225101   0.595   3.324   8.332  2.4237  0.2804  1.5918
40535SOL     OW25102  10.442   1.811  10.749 -0.7872  0.1097  0.2132
40535SOL    HW125103  10.354   1.794  10.781 -0.9257  0.9805  0.3384
40535SOL    HW225104  10.430   1.835  10.657 -0.4327 -1.9879 -0.4276
40536SOL     OW25105   8.842   1.037   5.444 -0.6412  0.5971  0.4773
40536SOL    HW125106   8.925   1.053   5.399 -1.4684  2.8683 -0.3290
40536SOL    HW225107   8.848   1.091   5.523 -1.6052  1.3235  0.0675
40537SOL     OW25108  10.681   5.781  10.955 -0.0014 -0.3248  0.6793
40537SOL    HW125109  10.677   5.730  11.036 -1.5656 -0.7161  0.4041
40537SOL    HW225110  10.745   5.850  10.973  0.6614 -1.1833  1.7703
40538SOL     OW25111   0.641   4.827   8.436  0.0290 -0.4147 -0.3603
40538SOL    HW125112   0.662   4.768   8.365 -0.0672 -0.7947 -0.0774
40538SOL    HW225113   0.556   4.796   8.469  0.9979 -1.5329  1.2434
40539SOL     OW25114   1.368   2.114   4.554  0.1688  0.0222  0.6624
40539SOL    HW125115   1.446   2.065   4.525  0.5653  0.9603  0.0743
40539SOL    HW225116   1.321   2.133   4.473 -1.6237 -1.9898  1.1329
40540SOL     OW25117   3.224   8.726  10.062 -0.0247  0.0048 -0.0707
40540SOL    HW125118   3.186   8.722   9.975  0.3516 -0.0211 -0.2368
40540SOL    HW225119   3.209   8.816  10.091 -0.7834 -0.1813  0.1294
40541SOL     OW25120   6.949   0.721   8.488  1.0282 -0.3984 -0.2727
40541SOL    HW125121   7.032   0.679   8.511  0.2725 -0.7116  2.1173
40541SOL    HW225122   6.884   0.652   8.499  0.2939  0.1638 -0.9581
40542SOL     OW25123   6.283   6.559   4.884  0.5908  0.1813  0.1214
40542SOL    HW125124   6.199   6.569   4.838 -0.1630 -2.0087  0.8764
40542SOL    HW225125   6.262   6.579   4.976  0.6276 -1.2550  0.4697
40543SOL     OW25126   5.296   6.370   9.311  0.2107 -0.1746 -0.5829
40543SOL    HW125127   5.389   6.370   9.289  0.5163  0.8634  0.5911
40543SOL    HW225128   5.271   6.278   9.309  1.2932 -0.4811 -0.8102
40544SOL     OW25129   1.150  10.703   5.426 -0.3984 -0.3930 -0.2448
40544SOL    HW125130   1.222  10.741   5.477  0.1469  0.1756 -1.4099
40544SOL    HW225131   1.071  10.746   5.461 -0.5278 -2.5136  2.4954
40545SOL     OW25132   5.251   5.126   5.663 -0.6462 -0.1819 -0.2133
40545SOL    HW125133   5.258   5.072   5.584 -0.5001  1.2356 -1.2158
40545SOL    HW225134   5.297   5.207   5.640 -2.4526  1.1219  0.5485
40546SOL     OW25135   2.258   2.667   4.085  0.2604  0.0466  0.2911
40546SOL    HW125136   2.344   2.707   4.087  0.8455 -1.1871  1.3113
40546SOL    HW225137   2.206   2.719   4.146  0.4776  0.3660  0.2058
40547SOL     OW25138   5.467   8.046   9.842 -0.3512  0.2866  0.1400
40547SOL    HW125139   5.487   7.976   9.904 -1.2043  0.3427  0.4873
40547SOL    HW225140   5.427   8.115   9.895 -0.6539  0.5330 -0.3958
40548SOL     OW25141   4.501   1.102   1.865 -0.2711 -0.0299  0.5457
40548SOL    HW125142   4.438   1.064   1.926 -0.8860  0.2260  0.0776
40548SOL    HW225143   4.578   1.122   1.919 -1.2631  1.3648  1.5014
40549SOL     OW25144   4.708   7.863   4.589  0.3313 -0.0241 -0.1028
40549SOL    HW125145   4.786   7.833   4.543 -0.2080  0.1508 -1.1491
40549SOL    HW225146   4.642   7.796   4.570 -0.3313  0.8177 -0.8687
40550SOL     OW25147   6.748   7.061   0.482 -0.2099 -0.3353 -0.1443
40550SOL    HW125148   6.809   7.091   0.414  0.5998  0.2963  0.8289
40550SOL    HW225149   6.761   7.122   0.555 -1.8541 -0.3293  0.1812
40551SOL     OW25150   7.223   4.506   2.165  0.4646 -0.3440  0.0485
40551SOL    HW125151   7.174   4.425   2.181  0.0974 -0.0071  0.6638
40551SOL    HW225152   7.285   4.483   2.096  0.3837 -1.1577  0.2366
40552SOL     OW25153  10.773   3.007   5.878 -0.2052  0.5669  0.1965
40552SOL    HW125154  10.764   2.915   5.853 -0.4424  0.1137  1.8639
40552SOL    HW225155  10.734   3.055   5.805 -2.6580 -0.7726  0.5110
40553SOL     OW25156   5.361   5.366   0.927  0.2611  0.8828  0.2193
40553SOL    HW125157   5.344   5.443   0.872 -3.3127 -1.7872 -2.9161
40553SOL    HW225158   5.403   5.303   0.869  0.2353 -0.6228  1.7573
40554SOL     OW25159   2.004   8.627   3.409 -0.3332 -0.2916 -0.0482
40554SOL    HW125160   2.038   8.538   3.401  0.1808 -0.3241  1.9764
40554SOL    HW225161   1.917   8.616   3.447 -0.5755  0.0418 -0.4959
40555SOL     OW25162   5.650   2.793   8.639 -0.0423 -0.3560  0.2264
40555SOL    HW125163   5.706   2.861   8.677 -2.5821  1.5131  0.8923
40555SOL    HW225164   5.694   2.769   8.557  1.6576  1.0470  0.6612
40556SOL     OW25165   2.260   5.446   4.453  0.1348  0.3953 -0.1505
40556SOL    HW125166   2.254   5.358   4.416 -0.3451  0.0817  0.6557
40556SOL    HW225167   2.207   5.500   4.393 -0.3216 -0.0323 -0.1445
40557SOL     OW25168   7.571   5.405  10.642  0.4579  0.2369 -0.1995
40557SOL    HW125169   7.479   5.407  10.669  0.4093  0.5962 -0.3960
40557SOL    HW225170   7.580   5.321  10.597 -0.2330  0.9632 -1.7755
40558SOL     OW25171   4.131   1.157   5.558 -0.0882 -0.0017  0.0904
40558SOL    HW125172   4.202   1.104   5.522  0.7854  1.2726 -0.0872
40558SOL    HW225173   4.102   1.211   5.485  0.0998  0.9102  0.6784
40559SOL     OW25174   3.630   5.741   4.459  0.0272 -0.0746 -0.1937
40559SOL    HW125175   3.662   5.705   4.541  1.4950  0.2815 -0.5825
40559SOL    HW225176   3.615   5.833   4.477  0.4884  0.0354 -0.3446
40560SOL     OW25177   1.204   0.023   3.629 -0.4217  0.3168 -0.3293
40560SOL    HW125178   1.143  -0.020   3.569 -1.3122  0.7135  0.2718
40560SOL    HW225179   1.159   0.102   3.657 -0.3360 -0.2120  1.4149
40561SOL     OW25180   7.837   9.939   1.786 -0.1711 -0.1188 -0.2936
40561SOL    HW125181   7.783   9.949   1.707  0.9484 -2.8916 -1.5418
40561SOL    HW225182   7.801   9.863   1.830 -0.4962  1.1437  1.7335
40562SOL     OW25183   2.276   4.951   6.861 -0.5511  0.5906  0.5392
40562SOL    HW125184   2.231   5.032   6.885 -0.1832  0.6394  1.0884
40562SOL    HW225185   2.337   4.935   6.933 -0.2249  0.1218  0.1688
40563SOL     OW25186   4.297   4.742   8.262 -0.6065  0.0551 -0.0242
40563SOL    HW125187   4.383   4.733   8.303 -0.9529  0.6719  0.8802
40563SOL    HW225188   4.257   4.656   8.271 -1.1500  0.4669  2.1020
40564SOL     OW25189   9.837   5.456   0.815  0.4796 -0.3497  0.3581
40564SOL    HW125190   9.858   5.428   0.904  1.4680 -0.5789  0.0728
40564SOL    HW225191   9.742   5.452   0.810  0.0519  3.0288  2.5170
40565SOL     OW25192   6.608   6.102   0.438 -0.1610  0.2360 -0.0067
40565SOL    HW125193   6.624   6.193   0.463  0.6887  0.2977 -0.7081
40565SOL    HW225194   6.620   6.101   0.343  0.1993 -0.6791  0.0375
40566SOL     OW25195   0.849  10.360   3.658 -0.1302  0.0536 -0.2174
40566SOL    HW125196   0.872  10.371   3.750 -0.1828  0.2858 -0.2313
40566SOL    HW225197   0.889  10.435   3.614  0.2008 -0.2493 -0.4403
40567SOL     OW25198   6.924   5.571   3.723 -0.2324  0.4552 -0.5326
40567SOL    HW125199   6.853   5.580   3.787  0.2829  0.3246  0.0782
40567SOL    HW225200   6.963   5.486   3.744  1.3291  1.3691  0.4469
40568SOL     OW25201   4.329   2.282   8.366  0.3308  0.3597 -0.1500
40568SOL    HW125202   4.298   2.358   8.317 -1.2502 -0.3709 -0.3527
40568SOL    HW225203   4.313   2.305   8.458 -1.4093 -0.2004 -0.2707
40569SOL     OW25204   2.186  10.392   8.992  0.5143  0.7512  0.4544
40569SOL    HW125205   2.173  10.482   9.021 -2.2874  0.3415  0.6921
40569SOL    HW225206   2.175  10.395   8.897 -2.2904  0.3486  0.6870
40570SOL     OW25207   0.871   7.391   1.625 -0.5489  0.2119 -0.2686
40570SOL    HW125208   0.808   7.319   1.631  0.9259 -1.0722  1.0493
40570SOL    HW225209   0.877   7.410   1.531 -0.8002 -1.5926 -0.6920
40571SOL     OW25210   6.417   6.275   8.034  0.2342  0.5358  0.2935
40571SOL    HW125211   6.434   6.220   7.958  1.8105  0.1303  0.9059
40571SOL    HW225212   6.487   6.254   8.095 -0.6526  1.3044  1.6198
40572SOL     OW25213   6.182  10.042   3.433  0.0839 -0.5029 -0.7839
40572SOL    HW125214   6.205   9.967   3.488  1.2938  0.2769 -0.1931
40572SOL    HW225215   6.162  10.112   3.494  2.5426  0.7159 -1.2385
40573SOL     OW25216   6.149   2.256   5.557 -0.4019 -0.4120 -0.4444
40573SOL    HW125217   6.176   2.338   5.599  0.2515 -1.1981  0.7350
40573SOL    HW225218   6.201   2.252   5.477 -0.1623  0.1452 -0.3271
40574SOL     OW25219   4.170  10.301   9.363 -0.6056 -0.3072  0.3917
40574SOL    HW125220   4.097  10.239   9.357 -1.3027  0.5471 -0.0928
40574SOL    HW225221   4.242  10.248   9.397 -0.9267 -1.6167 -0.8196
40575SOL     OW25222   8.615   6.835   6.671 -0.1011 -0.0061  0.6377
40575SOL    HW125223   8.665   6.782   6.609 -0.8243 -0.1056  0.1298
40575SOL    HW225224   8.624   6.924   6.639  0.0289  0.0174  0.7397
40576SOL     OW25225   6.910   3.455   7.297  0.0409 -0.1277  0.2945
40576SOL    HW125226   6.921   3.401   7.219  0.1813  0.8602 -0.3872
40576SOL    HW225227   6.998   3.486   7.317 -0.1308  0.3832  0.2784
40577SOL     OW25228   6.692   4.986   6.657 -0.0217 -0.0994 -0.3278
40577SOL    HW125229   6.612   5.008   6.704  0.7462  1.4018  0.3291
40577SOL    HW225230   6.679   5.022   6.569 -0.2687 -0.3217 -0.3839
40578SOL     OW25231   7.103   2.615   8.629  0.0154  0.4519  0.1709
40578SOL    HW125232   7.008   2.623   8.628  0.0166  0.6304  0.7972
40578SOL    HW225233   7.126   2.620   8.722  0.4728 -1.5516  0.2135
40579SOL     OW25234  10.583   0.737   9.206 -0.4986  0.6184 -0.3751
40579SOL    HW125235  10.563   0.677   9.277  0.4992  0.8245  0.0947
40579SOL    HW225236  10.524   0.811   9.220 -1.4665 -0.0649 -0.7420
40580SOL     OW25237   0.865   6.705   2.649 -0.0797 -0.3336  0.0696
40580SOL    HW125238   0.960   6.719   2.654 -0.0563 -0.1054 -0.9196
40580SOL    HW225239   0.846   6.698   2.556 -0.8881 -1.4949  0.2923
40581SOL     OW25240   5.046   0.500   2.569  0.1080 -0.3403 -0.3447
40581SOL    HW125241   5.092   0.530   2.490  0.0640 -0.9634 -0.6162
40581SOL    HW225242   5.113   0.450   2.617 -0.0791 -0.6240 -0.3770
40582SOL     OW25243   0.858   5.408   3.552 -0.3093 -0.4831  0.0783
40582SOL    HW125244   0.822   5.356   3.481  2.6551  1.1441 -2.8682
40582SOL    HW225245   0.829   5.497   3.533  2.9463  0.4678 -0.9977
40583SOL     OW25246   2.522   7.368  10.681  0.2140  0.2307 -0.1700
40583SOL    HW125247   2.568   7.381  10.763 -0.9474  1.5497  0.3202
40583SOL    HW225248   2.566   7.293  10.640  0.3051 -1.0072  2.0055
40584SOL     OW25249   3.791   2.780   5.648  0.3664  0.6348 -0.0352
40584SOL    HW125250   3.802   2.699   5.598  3.3143  1.1645 -0.4028
40584SOL    HW225251   3.759   2.752   5.734  1.7702 -0.9768 -0.0037
40585SOL     OW25252   9.974   8.416   5.962  0.6411 -0.4985 -0.2466
40585SOL    HW125253   9.883   8.420   5.993  0.5565 -0.2450 -0.5215
40585SOL    HW225254   9.976   8.339   5.905  0.3423  0.0586 -1.0309
40586SOL     OW25255   3.681   8.051   2.648  0.1390  0.2039  0.3004
40586SOL    HW125256   3.757   8.037   2.704 -1.7650  0.5173  3.1488
40586SOL    HW225257   3.662   7.964   2.610  1.7111  0.0848 -0.2666
40587SOL     OW25258  10.878  10.647   7.110 -0.2687 -0.7032 -0.2640
40587SOL    HW125259  10.970  10.627   7.127 -0.1991 -0.9161 -0.8590
40587SOL    HW225260  10.843  10.567   7.071  0.4145  0.7493 -4.2588
40588SOL     OW25261   4.788   2.667   0.354  0.2993 -0.0913 -0.4234
40588SOL    HW125262   4.844   2.742   0.374  0.4229  0.1118 -1.4725
40588SOL    HW225263   4.715   2.704   0.306  0.3683 -0.6364 -0.9612
40589SOL     OW25264   3.617   6.142   1.400 -0.4230 -0.3398  0.1607
40589SOL    HW125265   3.698   6.191   1.384 -0.6127  0.5024  1.5465
40589SOL    HW225266   3.642   6.050   1.393  0.3541 -0.0751 -0.7170
40590SOL     OW25267   8.247   1.261   7.702 -0.4122 -0.1011 -0.7167
40590SOL    HW125268   8.284   1.326   7.761 -0.0139  1.2126 -2.3313
40590SOL    HW225269   8.184   1.213   7.755 -0.8263  1.7008  0.5123
40591SOL     OW25270   7.395   4.817  10.356  0.1011 -0.8299 -0.4237
40591SOL    HW125271   7.312   4.855  10.383  0.3309  0.6711 -1.6717
40591SOL    HW225272   7.375   4.725  10.338 -1.3542 -0.4376 -0.9410
40592SOL     OW25273   1.042   6.277   7.474 -0.0875 -0.1615  0.0310
40592SOL    HW125274   1.075   6.189   7.459  0.0071 -0.1464  0.1497
40592SOL    HW225275   0.992   6.298   7.395  2.5777  0.9512 -1.4820
40593SOL     OW25276   2.585   7.076   7.052 -0.2426  0.0186 -0.0436
40593SOL    HW125277   2.675   7.049   7.068 -0.2434  0.1059  0.1081
40593SOL    HW225278   2.532   7.000   7.076 -0.1045 -0.7290 -1.9146
40594SOL     OW25279   2.402   1.495   2.713  0.1612  0.5105  0.0688
40594SOL    HW125280   2.431   1.565   2.655  2.1405 -0.6739 -0.4356
40594SOL    HW225281   2.379   1.423   2.654  0.0629  0.0421  0.6748
40595SOL     OW25282   3.249   7.830   9.482 -0.1931  0.6667  0.4237
40595SOL    HW125283   3.290   7.862   9.563  0.2475  1.7309 -0.1990
40595SOL    HW225284   3.176   7.890   9.467 -0.8297 -0.0754  0.5056
40596SOL     OW25285   4.599   8.417   4.929  0.8333  0.2219  0.4522
40596SOL    HW125286   4.559   8.370   5.002 -0.8523  1.3563  0.3235
40596SOL    HW225287   4.559   8.377   4.851 -1.5597  2.5023  0.3664
40597SOL     OW25288   9.135   0.102   3.030  0.2571  0.2158  0.5344
40597SOL    HW125289   9.107   0.038   3.096  0.0679 -0.4258 -0.1625
40597SOL    HW225290   9.079   0.085   2.955  2.1584 -0.8136 -0.7518
40598SOL     OW25291   9.702   5.248   8.923 -0.4585 -0.9258  0.1548
40598SOL    HW125292   9.776   5.211   8.876 -0.8508 -0.5370 -0.7903
40598SOL    HW225293   9.673   5.177   8.981  0.7920 -0.9937  0.7214
40599SOL     OW25294   8.317   6.242   0.745 -0.0977  0.7059 -0.1819
40599SOL    HW125295   8.382   6.290   0.796 -0.6804  2.0935 -0.6729
40599SOL    HW225296   8.233   6.272   0.780 -0.4820 -0.1215 -0.3791
40600SOL     OW25297   8.838  10.974   9.126  0.1958  0.2456  0.3859
40600SOL    HW125298   8.828  10.882   9.152  0.5716  0.0754 -0.0659
40600SOL    HW225299   8.748  11.007   9.119 -0.1045 -0.9009 -2.3224
40601SOL     OW25300   6.689   3.109   0.634  0.3736 -0.4683  0.7106
40601SOL    HW125301   6.732   3.191   0.608  0.8126 -0.9325 -0.0676
40601SOL    HW225302   6.599   3.118   0.601 -0.2685  0.6422  2.6285
40602SOL     OW25303   7.092   4.923   8.011  0.1590 -0.3827  0.5183
40602SOL    HW125304   7.090   4.952   7.920 -0.6217 -0.4641  0.5070
40602SOL    HW225305   7.172   4.963   8.047  0.4042 -0.2514 -0.1619
40603SOL     OW25306   5.452  10.546   4.402  0.5131 -0.1110  0.7626
40603SOL    HW125307   5.462  10.589   4.317  0.0468 -0.2855  0.6144
40603SOL    HW225308   5.540  10.547   4.440  0.5385  0.8530  0.7045
40604SOL     OW25309   0.719   9.057   6.985 -0.1055  0.3356 -0.3162
40604SOL    HW125310   0.653   9.017   7.043  1.3547 -1.1101  0.4436
40604SOL    HW225311   0.802   9.025   7.019  0.9134  0.8681 -2.1949
40605SOL     OW25312   8.801   9.494   6.080 -0.1179  0.3839  0.1430
40605SOL    HW125313   8.761   9.544   6.008 -1.4442 -2.4056 -1.2023
40605SOL    HW225314   8.726   9.463   6.131  0.6117 -0.8511  0.4816
40606SOL     OW25315   0.658   7.515   0.073 -0.2627  0.6552 -0.3557
40606SOL    HW125316   0.584   7.454   0.067  0.8910 -0.8158 -0.3327
40606SOL    HW225317   0.620   7.596   0.106 -2.0658  0.3336 -1.4784
40607SOL     OW25318   9.213  10.125   4.872  0.0572 -0.2370  0.1066
40607SOL    HW125319   9.210  10.221   4.862  0.9948 -0.1735  0.3373
40607SOL    HW225320   9.240  10.112   4.963  0.4848 -0.7064 -0.0824
40608SOL     OW25321  10.106   4.519   5.274 -0.0319  0.1121 -0.2599
40608SOL    HW125322  10.154   4.561   5.203 -1.7396 -0.8874 -2.1103
40608SOL    HW225323  10.133   4.427   5.269  2.2203  0.4737  2.5117
40609SOL     OW25324   6.897   1.767   5.712  0.4649  0.0306  0.5132
40609SOL    HW125325   6.943   1.702   5.658 -0.7530 -0.3656 -0.0718
40609SOL    HW225326   6.967   1.809   5.763  1.5380 -0.1886 -0.7254
40610SOL     OW25327   8.157   8.283   1.465  0.1711  0.4583  0.0182
40610SOL    HW125328   8.108   8.363   1.485 -2.2035 -1.1708  1.2137
40610SOL    HW225329   8.090   8.220   1.438  1.3820 -2.1651  2.5546
40611SOL     OW25330   7.937   9.977  10.057  0.3588  0.3806  0.0777
40611SOL    HW125331   7.918  10.051  10.114  0.3831  1.2621 -1.0151
40611SOL    HW225332   7.985  10.016   9.983 -0.6987 -0.4982 -1.1253
40612SOL     OW25333   9.163   0.730   5.303 -0.1041  0.2303 -0.0217
40612SOL    HW125334   9.226   0.775   5.247 -1.3222 -0.3541 -1.9559
40612SOL    HW225335   9.170   0.638   5.278 -2.0187  0.2118 -0.6353
40613SOL     OW25336   5.515   4.138   5.862  0.2615 -0.4333 -0.2049
40613SOL    HW125337   5.422   4.158   5.874  0.4257 -0.2653  0.8853
40613SOL    HW225338   5.517   4.076   5.789 -0.5597  0.8695 -1.3987
40614SOL     OW25339   2.319   9.881   9.529  0.2411  0.1693  0.2932
40614SOL    HW125340   2.250   9.911   9.588 -0.1346  0.3939 -0.2527
40614SOL    HW225341   2.327   9.787   9.547 -0.9506 -0.0805 -0.3778
40615SOL     OW25342   9.378   0.154   2.914  0.3379  0.1051 -0.6995
40615SOL    HW125343   9.349   0.113   2.833  0.8541  1.9877 -1.8937
40615SOL    HW225344   9.310   0.132   2.977 -1.2654  0.4600 -2.2285
40616SOL     OW25345   1.115   5.565   0.163  0.2278  0.2667 -0.2902
40616SOL    HW125346   1.199   5.605   0.185 -0.0135 -0.2781  1.8438
40616SOL    HW225347   1.129   5.471   0.173 -0.4512  0.1129 -0.6654
40617SOL     OW25348   5.051   2.821   8.532  0.0101 -0.1532  0.6972
40617SOL    HW125349   5.126   2.818   8.473 -0.5198 -3.6533 -0.0152
40617SOL    HW225350   5.057   2.906   8.575  2.7310  0.8444 -1.4002
40618SOL     OW25351   6.105  10.197   9.327 -0.0698 -0.1313  0.0464
40618SOL    HW125352   6.157  10.277   9.322 -0.3750  0.0223 -0.8993
40618SOL    HW225353   6.115  10.167   9.417  1.9684 -0.3274 -0.2016
40619SOL     OW25354  10.282   6.722   4.188  0.3396 -0.0226  0.1473
40619SOL    HW125355  10.343   6.704   4.260  0.6328  0.1964 -0.0464
40619SOL    HW225356  10.269   6.817   4.191 -0.0693 -0.0790  0.2474
40620SOL     OW25357   7.374   1.288   1.466  0.0268  0.6051  0.1050
40620SOL    HW125358   7.312   1.320   1.533  0.8801 -0.9552  1.7184
40620SOL    HW225359   7.320   1.273   1.389 -1.0351  2.2755  0.4533
40621SOL     OW25360   3.162   6.500   4.898  0.1153  0.4382 -0.1148
40621SOL    HW125361   3.174   6.424   4.955 -2.7257 -0.8589 -1.0802
40621SOL    HW225362   3.220   6.484   4.824  0.7605  0.0780  0.4519
40622SOL     OW25363   8.458   1.837   6.056 -0.3956  0.1813  0.0208
40622SOL    HW125364   8.427   1.923   6.028 -1.3106 -0.5311 -1.2807
40622SOL    HW225365   8.397   1.811   6.124 -0.1300  0.5426  0.4018
40623SOL     OW25366   7.313   6.312   1.114 -0.0747 -0.2330 -0.6944
40623SOL    HW125367   7.331   6.378   1.181  1.6021 -0.1456 -1.2008
40623SOL    HW225368   7.217   6.313   1.105 -0.3795 -0.3260  1.7503
40624SOL     OW25369   5.972   4.978   6.738  0.1390 -0.0621 -0.5447
40624SOL    HW125370   5.978   4.995   6.644  1.2557 -0.1217 -0.5048
40624SOL    HW225371   5.917   5.049   6.772  0.4418  0.4599 -1.1230
40625SOL     OW25372   8.964   2.393   2.695 -0.0678  0.0496 -0.1309
40625SOL    HW125373   8.993   2.303   2.712 -2.1932 -0.5695  0.5991
40625SOL    HW225374   8.992   2.411   2.606  1.4772 -0.8711  0.1399
40626SOL     OW25375   0.885   7.841   1.804 -0.1192 -0.9492 -0.0842
40626SOL    HW125376   0.809   7.823   1.858 -0.8241  0.5930 -0.4956
40626SOL    HW225377   0.854   7.828   1.714  0.2907 -0.9290 -0.2299
40627SOL     OW25378   4.988   3.745   0.579  0.2755 -0.1763  0.3925
40627SOL    HW125379   5.071   3.726   0.534  0.4821 -0.1933  0.7706
40627SOL    HW225380   4.931   3.782   0.512 -0.1290 -2.0976 -0.3738
40628SOL     OW25381   5.506   2.586   8.777 -0.2774  0.1216  0.0284
40628SOL    HW125382   5.569   2.650   8.744 -0.5065 -0.3945 -1.4998
40628SOL    HW225383   5.447   2.636   8.833  1.2628  0.6850  1.2115
40629SOL     OW25384  10.906   0.433   2.990  0.1253  0.2283 -0.4995
40629SOL    HW125385  10.969   0.497   3.023  1.7279 -1.9724  1.0027
40629SOL    HW225386  10.824   0.456   3.034  1.4308 -0.5677  2.6287
40630SOL     OW25387   6.502   4.694   9.080  0.3676  0.0916 -0.1901
40630SOL    HW125388   6.533   4.784   9.094  0.3551  0.1000 -0.2163
40630SOL    HW225389   6.442   4.679   9.153 -1.3828  0.9134 -1.3814
40631SOL     OW25390   1.816   3.884   8.955  0.7505 -0.1940 -0.1700
40631SOL    HW125391   1.880   3.839   8.899  0.1198 -1.5015  0.1370
40631SOL    HW225392   1.733   3.843   8.934 -0.2856  2.3091 -1.4712
40632SOL     OW25393   0.670   3.202   0.932 -0.5250 -0.8677 -0.2676
40632SOL    HW125394   0.696   3.112   0.950 -1.8060 -1.5872 -1.6758
40632SOL    HW225395   0.732   3.233   0.866 -0.3468 -0.8760 -0.1028
40633SOL     OW25396   9.302   9.769  10.742  0.1586  0.4005  0.6123
40633SOL    HW125397   9.246   9.838  10.708  1.1515  1.5252  1.1660
40633SOL    HW225398   9.391   9.805  10.735  0.7928 -1.1592  0.1293
40634SOL     OW25399   4.735   2.034   2.108 -0.2892  0.3204 -0.2136
40634SOL    HW125400   4.732   2.046   2.203 -3.2267 -2.9778  0.3003
40634SOL    HW225401   4.645   2.050   2.079 -0.0623 -1.3030 -1.9929
40635SOL     OW25402   3.055   0.760   2.333  0.4557  0.5560  0.3883
40635SOL    HW125403   2.978   0.817   2.343  0.1592  0.1751  0.3134
40635SOL    HW225404   3.126   0.808   2.374  0.0934  0.7504  0.7975
40636SOL     OW25405   8.655   3.495   3.172  0.1638 -0.0359  0.2807
40636SOL    HW125406   8.589   3.563   3.160 -1.2761 -0.8447  2.8845
40636SOL    HW225407   8.605   3.414   3.183  1.7140 -1.0721  0.0876
40637SOL     OW25408   8.518   4.279   1.197 -0.5959 -0.0142 -0.4744
40637SOL    HW125409   8.583   4.214   1.224 -0.5724  0.2717  0.1918
40637SOL    HW225410   8.529   4.351   1.260  0.5114  1.3848 -2.1511
40638SOL     OW25411   8.347   5.176   2.437  0.1350  0.1137 -0.2941
40638SOL    HW125412   8.330   5.270   2.435  0.1990  0.1325 -2.4909
40638SOL    HW225413   8.262   5.135   2.449  0.1434  0.4425  0.9576
40639SOL     OW25414   4.744   6.895   0.420 -0.2546 -0.4149  0.4329
40639SOL    HW125415   4.796   6.958   0.371 -0.0640 -0.9892 -0.1116
40639SOL    HW225416   4.783   6.894   0.508 -0.3934  0.3730  0.5049
40640SOL     OW25417   8.438   9.631   5.457  0.0423  0.6733  0.0674
40640SOL    HW125418   8.481   9.560   5.409  0.4982  1.0481 -0.0836
40640SOL    HW225419   8.352   9.638   5.417 -0.6300 -0.8831  1.1510
40641SOL     OW25420   2.213   9.329   8.569 -0.4788  0.0492 -0.1269
40641SOL    HW125421   2.267   9.270   8.516 -0.7689  0.3784 -0.8117
40641SOL    HW225422   2.216   9.412   8.521 -0.6188  0.4047  0.4697
40642SOL     OW25423   8.362   0.156   9.305 -0.1608  0.0822 -0.3995
40642SOL    HW125424   8.279   0.158   9.353 -0.2923 -0.3394 -0.6061
40642SOL    HW225425   8.345   0.208   9.226 -0.1728  0.1439 -0.3559
40643SOL     OW25426   4.905   0.590   8.369  0.0453  0.0131  0.9646
40643SOL    HW125427   4.855   0.625   8.295  0.0438  0.6754  1.2705
40643SOL    HW225428   4.928   0.668   8.421 -0.9994 -0.5356  2.3177
40644SOL     OW25429   1.133   0.782   8.623 -0.2510  0.9350  0.2245
40644SOL    HW125430   1.205   0.746   8.570 -2.1787 -2.0722 -0.6009
40644SOL    HW225431   1.091   0.846   8.565 -0.1542  0.3559 -0.5028
40645SOL     OW25432   6.889   4.485   0.483 -0.1322  0.0114  0.3054
40645SOL    HW125433   6.818   4.458   0.540 -0.5704 -1.9281 -1.0359
40645SOL    HW225434   6.966   4.488   0.540 -0.3614 -2.7577  0.9194
40646SOL     OW25435   7.911   7.037  10.973  0.5327 -0.1751  0.4152
40646SOL    HW125436   7.898   7.071  10.885 -0.5738  0.0829  0.6576
40646SOL    HW225437   7.853   7.091  11.028 -1.1666 -2.2767  0.8317
40647SOL     OW25438   8.245   8.105   4.717  0.1751 -0.5243 -0.6376
40647SOL    HW125439   8.262   8.052   4.795 -0.5461 -1.6951 -1.2513
40647SOL    HW225440   8.213   8.189   4.752 -0.5784 -1.1905  0.3303
40648SOL     OW25441   3.708   9.370  10.409  0.2373  0.4996  0.0705
40648SOL    HW125442   3.792   9.341  10.443  0.2070 -1.1668 -1.1499
40648SOL    HW225443   3.721   9.372  10.314 -1.5458 -1.4421 -0.2765
40649SOL     OW25444   5.567   6.421   9.300  0.4022 -0.0418  0.7984
40649SOL    HW125445   5.630   6.373   9.246  1.8347  0.7570  1.6998
40649SOL    HW225446   5.584   6.513   9.281  0.2671  0.2169  1.8951
40650SOL     OW25447   0.740   7.359   9.992 -0.1065  0.3498  0.0882
40650SOL    HW125448   0.779   7.345  10.079  0.6516  0.0498 -0.2940
40650SOL    HW225449   0.658   7.309   9.995  0.4163 -0.5298  0.2835
40651SOL     OW25450   4.429   9.832   1.093  0.0030 -0.6848 -0.4780
40651SOL    HW125451   4.490   9.873   1.154  0.0293  1.2204 -1.6980
40651SOL    HW225452   4.367   9.785   1.149  0.1034  0.8653  1.0201
40652SOL     OW25453   5.756   4.796   5.535  0.5672 -0.6024 -0.5773
40652SOL    HW125454   5.812   4.781   5.611 -0.5977 -0.9499  0.2405
40652SOL    HW225455   5.795   4.871   5.491  1.6557 -0.8238 -0.0242
40653SOL     OW25456   9.696   5.365   6.550  0.4304  0.0617 -0.1030
40653SOL    HW125457   9.766   5.349   6.487  0.1993 -0.1261 -0.3170
40653SOL    HW225458   9.650   5.442   6.516  0.5395  0.1901  0.0414
40654SOL     OW25459   2.290  10.077   6.669 -0.1077  0.4384 -0.0258
40654SOL    HW125460   2.210  10.025   6.676 -0.5913  0.6737 -2.5824
40654SOL    HW225461   2.348  10.042   6.736 -1.4706 -1.3932  0.2780
40655SOL     OW25462   9.814   8.586   8.132  0.1462 -0.2146 -0.1576
40655SOL    HW125463   9.846   8.648   8.067  1.7395  0.8006  1.4959
40655SOL    HW225464   9.851   8.502   8.105  0.0679  0.0082 -1.0037
40656SOL     OW25465  10.881   6.475   9.085  0.0749 -0.8064  0.0172
40656SOL    HW125466  10.933   6.545   9.046 -0.5846 -0.0031  0.5335
40656SOL    HW225467  10.842   6.429   9.011  0.7997 -0.8464 -0.3415
40657SOL     OW25468  10.403   9.687   6.480 -0.3632 -0.7691  0.5983
40657SOL    HW125469  10.489   9.721   6.457 -1.4794  2.0585  0.2201
40657SOL    HW225470  10.408   9.666   6.573  0.3164  0.9576  0.9898
40658SOL     OW25471   2.801   2.568  10.924  0.3059  0.1134 -0.2371
40658SOL    HW125472   2.741   2.633  10.961 -0.9595 -1.4039  0.5263
40658SOL    HW225473   2.744   2.497  10.895  1.7217 -1.8370  1.3971
40659SOL     OW25474   7.266   4.906   3.273 -0.2175  0.2600  0.2084
40659SOL    HW125475   7.238   4.816   3.262 -0.5922  0.4742 -0.6467
40659SOL    HW225476   7.200   4.946   3.330 -0.0956  0.0229  0.5181
40660SOL     OW25477   0.223   4.485   3.234 -1.0058 -0.0646  0.1004
40660SOL    HW125478   0.239   4.470   3.327 -1.2203 -0.1834  0.1182
40660SOL    HW225479   0.175   4.569   3.232 -0.5546  0.1926  0.0609
40661SOL     OW25480   7.535   7.560   5.201  0.4145  0.3494 -0.7384
40661SOL    HW125481   7.474   7.628   5.173 -1.3756 -0.8367  0.1284
40661SOL    HW225482   7.516   7.486   5.143  0.3368 -0.3640  0.1935
40662SOL     OW25483  10.637   6.876   9.123  0.4160  0.4431  0.2355
40662SOL    HW125484  10.613   6.827   9.045  0.0214 -1.2246  1.3309
40662SOL    HW225485  10.586   6.957   9.118 -0.5349 -0.1879 -0.6366
40663SOL     OW25486   5.015   4.659   9.903 -0.1605  0.0287  0.2544
40663SOL    HW125487   5.097   4.615   9.878  0.6983  1.3844  0.5560
40663SOL    HW225488   4.959   4.651   9.826  0.0362 -1.3826  0.2311
40664SOL     OW25489   3.661  10.061   6.066  0.2254  0.2221  0.5797
40664SOL    HW125490   3.565  10.064   6.072  0.0792 -0.9217 -0.6628
40664SOL    HW225491   3.688  10.005   6.138  0.0949  1.5945  1.7353
40665SOL     OW25492   4.591   9.680   3.248 -0.5922 -0.3610 -0.0848
40665SOL    HW125493   4.604   9.728   3.329 -0.9283 -0.9330  0.3130
40665SOL    HW225494   4.521   9.727   3.203 -0.4773 -0.1059  0.0030
40666SOL     OW25495   7.873  10.362   7.067 -0.0716  0.2366 -0.2982
40666SOL    HW125496   7.891  10.418   7.142  1.5098 -0.5524 -0.0283
40666SOL    HW225497   7.813  10.295   7.101 -0.9462  1.0233 -0.2830
40667SOL     OW25498   2.240   5.827   5.547 -0.6962 -0.6438  0.2902
40667SOL    HW125499   2.256   5.872   5.630  0.6523 -2.1489  0.8774
40667SOL    HW225500   2.308   5.861   5.488 -1.0726 -0.2699  0.0660
40668SOL     OW25501   3.450  10.982   9.950 -0.4078 -0.0901  0.1689
40668SOL    HW125502   3.539  11.009   9.977  0.0669 -0.7656 -0.6799
40668SOL    HW225503   3.422  11.051   9.890 -0.5998  0.2943  0.6891
40669SOL     OW25504   5.961   6.433  10.129  0.3002  0.1320  0.4743
40669SOL    HW125505   5.894   6.500  10.110  1.2392  0.9509 -0.0485
40669SOL    HW225506   5.941   6.404  10.218 -0.7786  0.3219  0.3110
40670SOL     OW25507   1.414   9.564   4.190  0.3282 -0.0735  0.3217
40670SOL    HW125508   1.427   9.470   4.200 -1.1339 -0.2692  0.6801
40670SOL    HW225509   1.438   9.600   4.276 -0.7083 -0.3391  0.7426
40671SOL     OW25510   8.869  10.564   1.420 -0.2145 -0.3855  0.1315
40671SOL    HW125511   8.875  10.468   1.418  3.0468 -0.3035 -1.8619
40671SOL    HW225512   8.960  10.593   1.426 -1.1931  2.6597  2.4489
40672SOL     OW25513   0.902   3.525   8.097  0.2210  0.2742 -1.0032
40672SOL    HW125514   0.824   3.514   8.044  0.3293  3.2504 -1.9511
40672SOL    HW225515   0.912   3.441   8.143 -1.2484 -1.5852 -3.7804
40673SOL     OW25516   0.100   5.080  10.032 -0.0417  0.0107  0.1815
40673SOL    HW125517   0.046   5.035   9.967  0.9897 -1.9633  0.5815
40673SOL    HW225518   0.069   5.170  10.032 -2.4692 -0.7428 -0.4863
40674SOL     OW25519   1.770   9.952   1.380 -0.8663  0.7140  0.0415
40674SOL    HW125520   1.801  10.017   1.318 -0.4783  0.7456  0.2655
40674SOL    HW225521   1.784   9.992   1.466  0.5488 -0.1499  0.2430
40675SOL     OW25522   1.860  10.317  10.045  0.0953 -0.2717 -0.3808
40675SOL    HW125523   1.856  10.409  10.070  1.9431 -0.4366  0.6343
40675SOL    HW225524   1.801  10.273  10.106 -1.9423  0.3533 -1.7817
40676SOL     OW25525   0.420   6.794   0.420 -0.3464  0.1799 -0.0619
40676SOL    HW125526   0.416   6.864   0.485  1.1614  0.9345 -0.7239
40676SOL    HW225527   0.480   6.729   0.458 -3.5431 -2.0397  1.6419
40677SOL     OW25528  10.536   3.915   5.448  0.2390 -0.1651  0.4289
40677SOL    HW125529  10.517   4.008   5.436  1.3451  0.7331  4.3298
40677SOL    HW225530  10.591   3.892   5.373  2.0475  3.0308  0.6136
40678SOL     OW25531   5.996   0.077   2.119 -0.0106 -0.0742  0.3826
40678SOL    HW125532   5.919   0.042   2.074  2.0280 -2.2185 -1.7901
40678SOL    HW225533   6.018   0.156   2.071 -0.0570 -0.2353  0.0924
40679SOL     OW25534   4.592   2.295   2.250 -0.0838 -0.6808 -0.5561
40679SOL    HW125535   4.594   2.384   2.215  0.6172 -0.7318 -0.6614
40679SOL    HW225536   4.681   2.279   2.280 -0.3753 -1.0869  0.1255
40680SOL     OW25537   6.699   2.670   4.130  0.0038 -0.8848  0.2722
40680SOL    HW125538   6.790   2.688   4.156 -0.2249 -1.5812  1.6413
40680SOL    HW225539   6.650   2.745   4.163  0.4196  1.1740 -3.2575
40681SOL     OW25540   0.984   2.130   0.870 -0.2976 -0.2800 -0.5955
40681SOL    HW125541   0.916   2.176   0.920  0.6637 -0.5276  1.0117
40681SOL    HW225542   1.065   2.147   0.918  0.5712 -1.1274 -1.7016
40682SOL     OW25543   2.196   4.900   3.516 -0.2251  0.3935  0.0354
40682SOL    HW125544   2.152   4.849   3.584  2.7483 -2.3447  0.1459
40682SOL    HW225545   2.184   4.849   3.436 -0.2433  1.4787 -0.6822
40683SOL     OW25546   6.329   2.071   6.843  0.0571 -0.2961  0.5164
40683SOL    HW125547   6.390   2.111   6.905 -0.4356  2.4277 -0.6532
40683SOL    HW225548   6.300   1.991   6.888  1.0573  0.6297  3.0115
40684SOL     OW25549   7.724   1.066   5.883 -0.5400 -0.5654 -0.5490
40684SOL    HW125550   7.634   1.081   5.856 -0.8795  0.4370  0.9815
40684SOL    HW225551   7.777   1.117   5.821 -1.2450  1.2333  0.2425
40685SOL     OW25552   3.020   8.517   2.154 -0.5672 -0.1340  0.1706
40685SOL    HW125553   3.091   8.560   2.201  0.2221 -1.3445  0.1267
40685SOL    HW225554   3.061   8.485   2.073 -1.2536 -0.5150 -0.0350
40686SOL     OW25555   9.118   4.204   6.771  0.1305  0.2568 -0.2432
40686SOL    HW125556   9.127   4.242   6.683  0.2108 -0.9421 -0.7697
40686SOL    HW225557   9.026   4.180   6.777 -0.3151  1.9749  0.7280
40687SOL     OW25558   8.440   2.298   4.321  0.6032  0.0252 -0.3634
40687SOL    HW125559   8.443   2.342   4.236  0.4714 -0.9265 -0.8681
40687SOL    HW225560   8.442   2.205   4.301 -0.0364 -0.2319  0.6539
40688SOL     OW25561   6.231   1.422   5.347  0.3222 -0.2666 -0.0717
40688SOL    HW125562   6.299   1.356   5.329  0.1865 -0.8331  1.3482
40688SOL    HW225563   6.172   1.379   5.409 -1.3873  0.2020 -1.3240
40689SOL     OW25564   6.662   1.580  10.485 -0.5097  0.1745  0.0156
40689SOL    HW125565   6.736   1.566  10.427 -0.3715 -2.3116  0.6559
40689SOL    HW225566   6.701   1.607  10.568 -0.4608  0.4122 -0.0820
40690SOL     OW25567   4.299   7.727   1.036  0.3091 -0.7069  0.3416
40690SOL    HW125568   4.382   7.746   1.079  0.3000  0.8811 -0.2560
40690SOL    HW225569   4.322   7.675   0.959  1.2189  2.2749 -1.5735
40691SOL     OW25570   4.982  10.338   1.586 -0.3214  0.6872 -0.0205
40691SOL    HW125571   5.015  10.307   1.502  0.3491  2.2216 -0.3660
40691SOL    HW225572   4.910  10.398   1.563 -2.4402 -1.4557  0.6683
40692SOL     OW25573   1.087   1.080   9.968 -0.2253 -0.4707  0.0576
40692SOL    HW125574   1.095   1.065  10.063 -2.3843 -0.0838  0.3536
40692SOL    HW225575   1.130   1.165   9.954 -1.0648  0.1206  0.9357
40693SOL     OW25576   0.704   4.106   9.755 -0.6548  0.0897 -0.3581
40693SOL    HW125577   0.727   4.143   9.840 -2.2828  0.1926  0.0740
40693SOL    HW225578   0.697   4.181   9.697  1.2587 -0.0482 -0.8179
40694SOL     OW25579   3.666   8.944   1.218 -0.0876 -0.2460  0.6274
40694SOL    HW125580   3.749   8.897   1.211  1.2653  2.1591 -1.7686
40694SOL    HW225581   3.618   8.919   1.139 -0.4639  0.4382  0.6344
40695SOL     OW25582   8.443   2.735   2.565  0.0512  0.4475 -0.0496
40695SOL    HW125583   8.508   2.733   2.635 -1.0934 -2.1217  1.0614
40695SOL    HW225584   8.493   2.716   2.485  0.9943  0.7881  0.4437
40696SOL     OW25585   8.666   7.201  10.249 -0.4357  0.2956  0.1791
40696SOL    HW125586   8.618   7.119  10.259 -1.6139  0.9239 -0.1596
40696SOL    HW225587   8.676   7.212  10.155  2.9428 -1.2356  0.2439
40697SOL     OW25588   9.437   0.536   0.333 -0.3946  0.0891  0.5251
40697SOL    HW125589   9.421   0.584   0.252 -2.4911 -0.7186  0.3911
40697SOL    HW225590   9.509   0.476   0.312 -0.7074  0.1059 -0.6480
40698SOL     OW25591   7.872   2.749   3.073  0.1711 -0.1304 -0.3931
40698SOL    HW125592   7.789   2.712   3.103  0.1792  0.0641 -0.1232
40698SOL    HW225593   7.863   2.844   3.087  0.9776 -0.2292  1.0261
40699SOL     OW25594   1.196   6.888   9.153 -0.4317  0.1879 -0.5445
40699SOL    HW125595   1.135   6.961   9.164 -0.6252 -0.0530  0.0450
40699SOL    HW225596   1.178   6.854   9.066 -1.9618 -0.5950  0.0376
40700SOL     OW25597   9.592   6.773   5.088 -0.1817  0.1741  0.1320
40700SOL    HW125598   9.606   6.752   4.996 -0.7119  1.7361 -0.3413
40700SOL    HW225599   9.657   6.721   5.135  1.1255  0.4960 -1.2439
40701SOL     OW25600   3.128   1.574  10.685  0.6578  0.0236  0.5075
40701SOL    HW125601   3.049   1.627  10.684  2.0101  2.2125 -1.8423
40701SOL    HW225602   3.200   1.638  10.681  2.5900 -1.8651  2.4170
40702SOL     OW25603  10.341  10.714   5.819  0.1886  0.3146  0.4624
40702SOL    HW125604  10.295  10.779   5.872 -0.3678 -1.2005  1.9124
40702SOL    HW225605  10.337  10.633   5.870  0.5026 -0.9933 -1.4676
40703SOL     OW25606   6.614   0.967   1.043  0.5925 -0.1579 -0.4480
40703SOL    HW125607   6.597   0.995   1.133 -1.3257  0.3216 -0.9052
40703SOL    HW225608   6.661   1.041   1.004 -1.6717  1.2235 -0.7601
40704SOL     OW25609   0.365   2.181   3.275  0.2363 -0.4144  0.1951
40704SOL    HW125610   0.300   2.166   3.207  0.3623  2.3018 -0.6203
40704SOL    HW225611   0.433   2.115   3.259 -0.3312 -0.6174 -1.5207
40705SOL     OW25612   2.037   4.486   5.109  0.0071  0.3414  0.2975
40705SOL    HW125613   1.985   4.543   5.166 -0.4450  0.1418  0.0844
40705SOL    HW225614   2.005   4.505   5.021  0.2973  0.2178  0.1638
40706SOL     OW25615   1.055   4.794   0.560 -0.5154 -0.1824 -0.7547
40706SOL    HW125616   1.095   4.709   0.544 -0.0448  0.0031 -0.5931
40706SOL    HW225617   1.052   4.801   0.656 -1.2616 -0.3446 -0.7652
40707SOL     OW25618   1.932   1.415   0.118 -0.4449  0.1614 -0.3588
40707SOL    HW125619   1.977   1.427   0.201 -1.5926 -0.0418  0.3052
40707SOL    HW225620   1.882   1.496   0.106  0.2672  0.4983 -1.2224
40708SOL     OW25621   0.285   8.864   8.912 -0.0823 -0.0260 -0.5176
40708SOL    HW125622   0.284   8.924   8.987  1.5254 -0.3471 -0.2176
40708SOL    HW225623   0.211   8.893   8.858 -2.1204 -0.5829  1.7876
40709SOL     OW25624   8.550   2.215   5.534  0.3641  0.2652 -0.3318
40709SOL    HW125625   8.531   2.213   5.440 -2.9614 -0.1022  0.2140
40709SOL    HW225626   8.543   2.124   5.562 -1.5614  0.6443  0.6399
40710SOL     OW25627   5.446   3.016   0.058  0.4492 -0.3360  0.5642
40710SOL    HW125628   5.405   2.930   0.066  0.3394 -0.2180  1.3473
40710SOL    HW225629   5.511   3.005  -0.012  0.0388 -0.8940  0.2660
40711SOL     OW25630  10.711   3.794   1.264 -0.4659 -0.1832  0.3580
40711SOL    HW125631  10.643   3.827   1.324 -0.2786  0.2683  0.3259
40711SOL    HW225632  10.724   3.703   1.292  0.6615  0.4241  1.9899
40712SOL     OW25633   5.503   5.309  10.187 -0.4082 -0.2484 -0.5874
40712SOL    HW125634   5.444   5.280  10.117  0.4254 -1.0039 -1.0033
40712SOL    HW225635   5.446   5.330  10.260 -1.2290 -0.3717 -1.1777
40713SOL     OW25636   8.564   1.910   2.993 -0.1850  0.1190 -0.3135
40713SOL    HW125637   8.572   1.979   3.058  2.0317 -1.7806  1.6125
40713SOL    HW225638   8.633   1.928   2.930 -0.5171  0.4214 -0.5926
40714SOL     OW25639   7.227   0.540   6.047  0.6573  0.0795 -0.5508
40714SOL    HW125640   7.226   0.445   6.032  1.0943  0.2789 -1.9125
40714SOL    HW225641   7.303   0.555   6.103  1.9697 -0.1198 -2.2337
40715SOL     OW25642   7.247   1.066   4.737 -0.3898  0.2331  0.0619
40715SOL    HW125643   7.306   1.098   4.806  1.3977 -0.3660 -1.1155
40715SOL    HW225644   7.271   1.119   4.660 -1.7394  0.2893 -0.3365
40716SOL     OW25645   0.449   1.816   6.838 -0.0234 -0.0779  0.2239
40716SOL    HW125646   0.429   1.906   6.810  0.8335  0.2623  0.6749
40716SOL    HW225647   0.544   1.809   6.831  0.0331 -0.5658  1.3354
40717SOL     OW25648   6.529   9.159   2.938 -0.1216  0.3164  0.0291
40717SOL    HW125649   6.560   9.153   3.028  0.2691 -0.8350 -0.1672
40717SOL    HW225650   6.471   9.235   2.937 -0.1125  0.3503  1.2422
40718SOL     OW25651   2.293   3.384   4.433 -0.8940 -0.4520  0.0761
40718SOL    HW125652   2.234   3.447   4.392 -2.0020 -0.8387  1.0149
40718SOL    HW225653   2.245   3.301   4.431  0.8057 -1.4791 -1.7547
40719SOL     OW25654   5.420   6.576   5.424  0.2452 -0.0259 -0.4158
40719SOL    HW125655   5.406   6.494   5.377  0.2970 -1.3155  1.6839
40719SOL    HW225656   5.491   6.557   5.486 -1.2989  0.8067  1.7614
40720SOL     OW25657   7.460   1.256  10.546  0.0788  0.0831  0.1289
40720SOL    HW125658   7.392   1.211  10.595  0.3850  0.2200  0.6910
40720SOL    HW225659   7.417   1.334  10.512 -0.7292 -1.1153 -1.7220
40721SOL     OW25660   4.844   7.123   6.302  0.3523  0.0510 -0.1248
40721SOL    HW125661   4.867   7.115   6.394 -1.4398 -0.1551  0.3439
40721SOL    HW225662   4.860   7.036   6.265  0.4062 -0.0564  0.1535
40722SOL     OW25663   4.705   1.012   2.401  0.1283  0.4890  0.1492
40722SOL    HW125664   4.739   1.094   2.365 -3.2222  2.3584  0.7878
40722SOL    HW225665   4.666   0.968   2.325 -1.1483  1.2615  0.3186
40723SOL     OW25666  10.485   2.010   0.292 -1.1286 -0.0890 -0.0142
40723SOL    HW125667  10.465   2.073   0.222 -2.2264  0.4789  0.7887
40723SOL    HW225668  10.457   2.053   0.372  1.2031 -0.2428  0.9589
40724SOL     OW25669   1.031   9.962   2.153  0.3478  0.2482 -0.1475
40724SOL    HW125670   0.981   9.896   2.105 -1.7933  0.3154  1.8258
40724SOL    HW225671   1.003  10.045   2.116 -0.6249  0.2545  0.5620
40725SOL     OW25672   8.449   2.777   4.959 -0.0520  0.1384 -0.2018
40725SOL    HW125673   8.463   2.725   4.880  1.1015 -0.2307  0.2205
40725SOL    HW225674   8.537   2.794   4.992 -0.5386 -1.0282  1.8700
40726SOL     OW25675   4.623   6.355   2.070 -0.1577 -0.1431 -0.1681
40726SOL    HW125676   4.557   6.286   2.078 -1.2255  1.0150  1.8125
40726SOL    HW225677   4.581   6.422   2.016 -0.4904  0.4373  0.7925
40727SOL     OW25678   8.840   7.715   8.545 -0.2637 -0.2302 -1.0415
40727SOL    HW125679   8.872   7.630   8.517 -1.3249 -0.8991 -0.3042
40727SOL    HW225680   8.745   7.706   8.547 -0.4418  1.1929 -1.6168
40728SOL     OW25681   3.884   7.465   9.182  0.1400 -0.0036 -0.5100
40728SOL    HW125682   3.913   7.490   9.095  0.5639 -1.7557 -0.9040
40728SOL    HW225683   3.949   7.505   9.241  1.1484 -0.6760 -1.1439
40729SOL     OW25684   9.595   4.559  10.389  0.1542 -0.3494  0.0223
40729SOL    HW125685   9.533   4.527  10.324  0.9666 -0.6678 -0.6129
40729SOL    HW225686   9.549   4.549  10.473 -0.4498 -1.0744 -0.3810
40730SOL     OW25687  10.879   3.321   6.040 -0.6983  0.4008  0.1183
40730SOL    HW125688  10.905   3.244   6.091 -0.8231  0.5088  0.3449
40730SOL    HW225689  10.932   3.393   6.076 -2.5849  1.0118  1.8213
40731SOL     OW25690   7.984   1.732   0.750  0.2028 -0.1273  0.7296
40731SOL    HW125691   7.964   1.772   0.834 -0.8487 -0.5154  0.6750
40731SOL    HW225692   7.992   1.639   0.768  1.7513 -0.0214  0.6964
40732SOL     OW25693   6.055  10.352   7.136 -0.3737 -0.3236  0.0178
40732SOL    HW125694   5.967  10.331   7.168 -0.2862 -0.1262  0.3914
40732SOL    HW225695   6.103  10.379   7.214 -0.1607  0.1881 -0.2867
40733SOL     OW25696   2.179   2.587  10.730  0.0513 -0.3435  0.5603
40733SOL    HW125697   2.257   2.633  10.762 -0.2020  2.0733 -1.9074
40733SOL    HW225698   2.106   2.632  10.772 -0.2389  2.2905 -2.4393
40734SOL     OW25699   9.336   4.983   6.347 -0.2537 -0.1016  0.3642
40734SOL    HW125700   9.255   4.935   6.332 -0.5972  0.2059  1.1911
40734SOL    HW225701   9.308   5.070   6.376  0.3656  0.3772 -0.4295
40735SOL     OW25702   0.359   4.859   5.874  0.5176  0.3618  0.4402
40735SOL    HW125703   0.389   4.811   5.951  0.9446 -0.8982 -0.4836
40735SOL    HW225704   0.341   4.791   5.809  1.5515  1.4806 -1.0604
40736SOL     OW25705  10.679   5.545   0.451  0.8476 -0.1935  0.0605
40736SOL    HW125706  10.677   5.599   0.530 -0.0007  1.3313 -0.9546
40736SOL    HW225707  10.589   5.514   0.442  1.0669 -0.8230 -0.0176
40737SOL     OW25708   7.971   8.486   3.767  0.5120 -0.2429 -0.0941
40737SOL    HW125709   8.005   8.526   3.847 -2.6527  2.4741  0.1219
40737SOL    HW225710   7.957   8.560   3.707 -1.2751 -1.6208 -1.5071
40738SOL     OW25711   7.364   0.760   6.966  0.3696  0.0018  0.3718
40738SOL    HW125712   7.276   0.737   6.935  0.1162 -0.8254  1.6032
40738SOL    HW225713   7.401   0.814   6.897 -0.9248 -0.0578 -0.3977
40739SOL     OW25714   7.003   2.611   5.945  0.7950  0.6211 -0.0999
40739SOL    HW125715   7.050   2.652   6.017  0.3036  0.8046  0.1221
40739SOL    HW225716   7.056   2.629   5.867  0.9725  1.0136  0.1110
40740SOL     OW25717   4.311   0.449   9.777  0.4511 -0.1341  0.2853
40740SOL    HW125718   4.224   0.459   9.737  0.2784 -1.0021  0.4306
40740SOL    HW225719   4.341   0.539   9.791 -0.9638  0.2148  1.3850
40741SOL     OW25720   7.217   9.667   3.945  0.5384 -0.1890  0.0872
40741SOL    HW125721   7.158   9.606   3.901 -0.0764  1.0749 -0.8551
40741SOL    HW225722   7.255   9.614   4.016 -0.4336 -1.4979 -0.3152
40742SOL     OW25723   3.153   7.807  10.376 -0.2276  0.0231  0.7605
40742SOL    HW125724   3.226   7.751  10.350 -0.6774 -0.4187  0.4366
40742SOL    HW225725   3.169   7.826  10.469  0.8350  0.7670  0.4473
40743SOL     OW25726   6.929  10.642   2.576 -0.2085 -0.1743 -0.1186
40743SOL    HW125727   6.959  10.609   2.661 -1.1435  0.5485  0.5230
40743SOL    HW225728   6.926  10.737   2.587  1.9771  0.1556 -1.7731
40744SOL     OW25729  10.221   5.907   5.010  0.5779  0.4447  0.4975
40744SOL    HW125730  10.169   5.877   4.936 -0.4118 -0.0379  1.3607
40744SOL    HW225731  10.237   5.999   4.993  0.5159  0.2953 -0.4016
40745SOL     OW25732   4.988   1.875   3.225 -0.2506 -0.5047 -0.0256
40745SOL    HW125733   5.077   1.901   3.248 -1.0235  1.6078  0.7156
40745SOL    HW225734   4.992   1.859   3.130  0.7275  0.3807 -0.1473
40746SOL     OW25735   8.844   8.066  10.633  0.6231 -0.6482 -0.0124
40746SOL    HW125736   8.896   7.994  10.599 -0.6020 -3.4178  3.3529
40746SOL    HW225737   8.755   8.031  10.640 -0.2850  1.5986  0.7260
40747SOL     OW25738  10.019   2.152   5.598  0.0092  0.2734 -0.0041
40747SOL    HW125739  10.067   2.107   5.529  0.7718  0.8345  0.1438
40747SOL    HW225740   9.967   2.218   5.552 -0.2838 -0.0415 -0.1266
40748SOL     OW25741   8.020   9.078   7.461  0.4624  0.4933 -0.1142
40748SOL    HW125742   8.091   9.041   7.409  1.5172  0.6892  1.1551
40748SOL    HW225743   7.945   9.022   7.441  1.2810 -0.5218 -0.4818
40749SOL     OW25744   9.695   3.918   5.677  0.6759  0.1947 -0.3318
40749SOL    HW125745   9.629   3.929   5.745  0.3798  0.1559 -0.6094
40749SOL    HW225746   9.778   3.911   5.724  0.3666 -0.8382  0.0827
40750SOL     OW25747   7.781   3.934   9.877  1.0034 -0.0039 -0.1140
40750SOL    HW125748   7.706   3.938   9.818  1.1004 -1.3749 -0.3523
40750SOL    HW225749   7.851   3.980   9.831  1.0674 -1.0380 -1.0650
40751SOL     OW25750   2.507   3.306   5.527 -0.5553  0.2282 -0.4042
40751SOL    HW125751   2.598   3.279   5.542  0.2524  3.3879  1.3476
40751SOL    HW225752   2.456   3.245   5.580  0.7659 -0.2362  0.4139
40752SOL     OW25753  10.232  10.209   3.043  0.7930 -0.0656  0.2064
40752SOL    HW125754  10.192  10.146   3.103 -1.5995 -1.9227 -3.0247
40752SOL    HW225755  10.313  10.167   3.015 -0.5075 -1.5998 -1.4872
40753SOL     OW25756   4.921  10.866   1.475  0.1666 -0.0667  0.6538
40753SOL    HW125757   4.902  10.918   1.397  1.0710 -1.5876 -0.6314
40753SOL    HW225758   4.893  10.922   1.548  0.2747  1.8379 -0.6832
40754SOL     OW25759   5.530   9.080   9.024 -0.2508  0.8194 -0.6126
40754SOL    HW125760   5.588   9.112   9.093 -0.0935 -0.7142 -0.0026
40754SOL    HW225761   5.589   9.053   8.954 -0.3185  0.8300 -0.6732
40755SOL     OW25762   1.247   9.348   0.188  0.4549  0.1367  0.5165
40755SOL    HW125763   1.284   9.402   0.258 -0.2691  2.5068 -0.8302
40755SOL    HW225764   1.283   9.385   0.108 -0.8930 -0.7438 -0.5272
40756SOL     OW25765   2.541   2.777   2.933 -0.5826  0.3117  0.0436
40756SOL    HW125766   2.524   2.786   3.027  0.0805  0.4575  0.1538
40756SOL    HW225767   2.545   2.867   2.901 -0.6184  0.2651 -0.0936
40757SOL     OW25768   6.788   4.544   5.560  0.1525 -0.1057 -0.8286
40757SOL    HW125769   6.774   4.454   5.590  0.6624 -0.2234 -0.9396
40757SOL    HW225770   6.880   4.547   5.534  0.6208  0.9155  0.8074
40758SOL     OW25771   2.516  10.328   7.080 -0.7190  0.1903  0.1176
40758SOL    HW125772   2.518  10.311   6.986 -1.4147  0.2400  0.0859
40758SOL    HW225773   2.602  10.301   7.112 -0.7292 -0.4978 -0.4221
40759SOL     OW25774   3.875   9.124   5.544 -0.0682 -0.9032 -0.3853
40759SOL    HW125775   3.799   9.065   5.543  1.1234 -2.5328 -0.5263
40759SOL    HW225776   3.938   9.081   5.485  0.8582  0.5483 -0.4961
40760SOL     OW25777   8.304   1.656   2.187 -0.1953 -0.9228  0.1884
40760SOL    HW125778   8.311   1.635   2.280 -1.2956 -0.9065  0.2921
40760SOL    HW225779   8.309   1.572   2.143  1.5509 -0.8316  0.1587
40761SOL     OW25780   4.762   8.558  10.575  0.3329  0.1841 -0.1412
40761SOL    HW125781   4.694   8.505  10.532  1.5037 -1.2564 -0.2866
40761SOL    HW225782   4.789   8.620  10.508  0.3558 -0.3623 -0.6458
40762SOL     OW25783   7.463   7.947   0.856 -0.0936 -0.0400 -0.0719
40762SOL    HW125784   7.434   8.013   0.793  0.1710  0.5548  0.4177
40762SOL    HW225785   7.426   7.975   0.940 -2.3869 -2.0595 -0.2960
40763SOL     OW25786   0.143   8.518   9.400 -0.4531 -0.1801 -0.0556
40763SOL    HW125787   0.075   8.555   9.456  0.6607  0.2423  1.0647
40763SOL    HW225788   0.145   8.425   9.424 -0.4483 -0.1387  0.1069
40764SOL     OW25789   9.386   9.155   6.310  0.5999 -0.2640  0.1805
40764SOL    HW125790   9.309   9.121   6.355  0.5727  0.3688  0.6298
40764SOL    HW225791   9.409   9.087   6.247  0.0910 -0.7640  0.5210
40765SOL     OW25792   4.893   9.814  10.909 -0.3803  0.4561 -0.3613
40765SOL    HW125793   4.842   9.737  10.886 -1.6287 -0.4168  4.3043
40765SOL    HW225794   4.974   9.780  10.947  0.3755  1.5804 -0.8908
40766SOL     OW25795   4.451   9.221   7.751  0.2002 -0.2217 -0.5543
40766SOL    HW125796   4.428   9.285   7.819 -2.4180 -2.7662  1.1836
40766SOL    HW225797   4.506   9.158   7.796 -0.8846 -1.4982 -0.9639
40767SOL     OW25798  10.325   5.997   6.583 -0.7241  0.2908 -0.3132
40767SOL    HW125799  10.237   5.960   6.579 -0.4000 -0.4028 -1.6326
40767SOL    HW225800  10.347   6.017   6.492  1.0688 -1.0410 -0.2415
40768SOL     OW25801   2.678   9.104   7.386  0.1339 -1.1276 -0.1982
40768SOL    HW125802   2.708   9.100   7.295 -1.2968 -1.8118 -0.6655
40768SOL    HW225803   2.694   9.017   7.421  0.7132 -0.8555  0.2352
40769SOL     OW25804   8.507   5.197   1.617  0.3253 -0.4470 -0.1222
40769SOL    HW125805   8.511   5.287   1.586  0.9247 -0.0057  1.1589
40769SOL    HW225806   8.511   5.144   1.538 -1.3881  0.6512 -0.9951
40770SOL     OW25807   5.660   8.907   2.896  0.0868 -0.5440 -0.1532
40770SOL    HW125808   5.747   8.944   2.911  0.1646 -0.7306 -0.1441
40770SOL    HW225809   5.620   8.901   2.983  0.8259 -2.3390  0.1184
40771SOL     OW25810   7.679   1.219   6.220  0.1000 -0.3206  0.3795
40771SOL    HW125811   7.594   1.234   6.262  0.6114  0.5715  1.1392
40771SOL    HW225812   7.674   1.266   6.137 -0.5851 -1.3283 -0.1826
40772SOL     OW25813  10.143   4.715   1.461  0.1260 -0.5464  0.5692
40772SOL    HW125814  10.126   4.672   1.545  1.7938 -3.8670 -0.5819
40772SOL    HW225815  10.201   4.788   1.482 -0.4665 -0.5650  2.4042
40773SOL     OW25816   3.008   1.791   9.048  0.4864 -0.5987 -0.1568
40773SOL    HW125817   2.959   1.796   9.130 -0.0460 -2.6540 -0.2902
40773SOL    HW225818   3.098   1.769   9.075  0.5798 -0.1593 -0.0926
40774SOL     OW25819   4.499   3.720   3.176 -0.1303 -0.2967 -0.1034
40774SOL    HW125820   4.513   3.703   3.269  1.0258 -0.7268 -0.3421
40774SOL    HW225821   4.562   3.788   3.155 -1.1042  0.5639 -0.3625
40775SOL     OW25822   7.983   2.508  10.220 -0.4956 -0.2915 -0.2415
40775SOL    HW125823   7.982   2.596  10.256 -0.3670 -1.1248  1.9524
40775SOL    HW225824   7.976   2.450  10.296  0.1269 -2.1957 -1.5345
40776SOL     OW25825   9.130   8.607   5.837 -0.3577  0.5057  0.6043
40776SOL    HW125826   9.040   8.634   5.818  0.0714  1.3367 -0.3501
40776SOL    HW225827   9.185   8.676   5.798  0.7527 -0.9834 -0.5534
40777SOL     OW25828   4.052   2.684   6.989  0.0986 -0.1022  0.3359
40777SOL    HW125829   4.063   2.777   7.010 -0.3241 -0.2458  1.2161
40777SOL    HW225830   4.014   2.684   6.901 -1.7137  0.6160  1.0762
40778SOL     OW25831   0.981   0.571   5.446  0.0950 -0.0446  0.5688
40778SOL    HW125832   0.900   0.543   5.405 -0.6820  1.4755  0.9857
40778SOL    HW225833   1.045   0.572   5.375 -0.4254 -0.5626  0.0825
40779SOL     OW25834   3.822   3.674   8.701  0.5340  0.0934  0.1273
40779SOL    HW125835   3.783   3.682   8.614 -0.9264 -0.4279  0.6881
40779SOL    HW225836   3.763   3.725   8.757 -0.7240 -2.5499  1.3793
40780SOL     OW25837   7.537   9.787  10.109 -0.1424 -0.6432 -0.1026
40780SOL    HW125838   7.504   9.700  10.088 -1.3439 -0.3947  0.6910
40780SOL    HW225839   7.606   9.803  10.044 -0.5736 -1.7785 -0.8614
40781SOL     OW25840   3.742   7.617   4.801 -0.0663 -0.4469 -0.5155
40781SOL    HW125841   3.647   7.606   4.814  0.1374 -1.6715  0.1061
40781SOL    HW225842   3.757   7.710   4.812 -0.9679 -0.4568  1.0550
40782SOL     OW25843   1.812   1.641   6.009  0.1192  0.0540 -0.4813
40782SOL    HW125844   1.826   1.596   5.926 -0.0637 -0.9368  0.0061
40782SOL    HW225845   1.719   1.661   6.010  0.0219 -0.4036 -0.2888
40783SOL     OW25846   2.275   3.847  10.019  0.5351 -0.0321  0.1244
40783SOL    HW125847   2.330   3.904   9.966  0.8381 -1.4951 -1.2273
40783SOL    HW225848   2.187   3.884  10.010  0.9832  1.2028  0.7077
40784SOL     OW25849   9.809   2.768   2.190  0.2903  0.5604 -0.2171
40784SOL    HW125850   9.829   2.757   2.097 -1.1668 -1.5905 -0.3413
40784SOL    HW225851   9.893   2.758   2.234  0.6130 -1.1978 -1.1492
40785SOL     OW25852   7.362   4.316   1.622  0.0402  0.0966  0.5540
40785SOL    HW125853   7.333   4.250   1.684  1.7912 -2.1357 -0.8660
40785SOL    HW225854   7.431   4.364   1.668  1.9738 -2.1427  0.1510
40786SOL     OW25855   6.226  10.439   8.804 -0.0791  0.3634  0.1757
40786SOL    HW125856   6.302  10.475   8.759 -0.2541  1.1116  0.4575
40786SOL    HW225857   6.212  10.354   8.764  0.2648  0.6674 -0.6136
40787SOL     OW25858   1.017   5.727  10.646  0.1247 -0.4254 -0.1375
40787SOL    HW125859   0.977   5.809  10.618  0.2592 -0.5140 -0.5918
40787SOL    HW225860   1.107   5.750  10.668  0.0864 -0.3996 -0.0090
40788SOL     OW25861   8.525   9.130   1.949  1.0622  0.5697  0.4035
40788SOL    HW125862   8.578   9.135   1.870  0.1623 -2.0738 -0.4739
40788SOL    HW225863   8.553   9.049   1.992  0.0105  0.8175  1.6445
40789SOL     OW25864   5.837   8.559   9.926  0.1157 -0.6543  0.7856
40789SOL    HW125865   5.829   8.617   9.850  2.4106  0.7688  1.5034
40789SOL    HW225866   5.765   8.585   9.984 -1.0211 -1.0346 -0.4127
40790SOL     OW25867   8.178   4.071   3.565 -0.3437  0.1521 -0.2501
40790SOL    HW125868   8.133   4.133   3.509  0.4664 -0.1574 -1.2935
40790SOL    HW225869   8.240   4.027   3.506 -0.2264 -0.9488  0.6674
40791SOL     OW25870   9.687   1.788   6.664 -0.2330  0.2600  0.2304
40791SOL    HW125871   9.678   1.880   6.643  1.5293  0.6734  1.0327
40791SOL    HW225872   9.616   1.769   6.725 -0.7135  1.0414 -0.0877
40792SOL     OW25873   9.817   7.175  10.070  0.2398  0.0721  0.3926
40792SOL    HW125874   9.816   7.271  10.073 -1.1199  0.0951 -0.0663
40792SOL    HW225875   9.896   7.154  10.022 -0.0567  1.0305 -0.5718
40793SOL     OW25876   6.361   8.119  11.001 -0.1158 -0.3163 -0.2016
40793SOL    HW125877   6.267   8.111  10.990 -0.4294  1.3283  0.8309
40793SOL    HW225878   6.388   8.187  10.938  0.5378 -1.3649 -1.0839
40794SOL     OW25879   8.492   9.017   8.660 -0.3696  0.7810  0.1141
40794SOL    HW125880   8.462   9.065   8.583  1.0545  2.0859  0.3193
40794SOL    HW225881   8.448   9.060   8.734 -1.8971 -0.6016  0.0711
40795SOL     OW25882   4.058   2.316  10.799 -0.1068  0.2435  0.1002
40795SOL    HW125883   4.138   2.354  10.835  0.7799 -0.2380 -1.2507
40795SOL    HW225884   4.068   2.222  10.810 -1.6448  0.2548  2.1418
40796SOL     OW25885   7.715   2.359   7.832  0.1582 -0.7784  0.2960
40796SOL    HW125886   7.743   2.272   7.805 -0.7643 -1.2281  0.7491
40796SOL    HW225887   7.794   2.412   7.828  0.6470 -1.5377 -0.3762
40797SOL     OW25888   8.512   8.547  10.331 -0.2716 -0.5577 -0.2774
40797SOL    HW125889   8.494   8.590  10.248 -1.2029 -1.2039 -0.4094
40797SOL    HW225890   8.607   8.556  10.342 -0.5200  2.5642  0.2626
40798SOL     OW25891   0.458   3.137  10.278  0.0914 -0.3817  0.0315
40798SOL    HW125892   0.478   3.138  10.184  1.6116 -0.4957  0.3284
40798SOL    HW225893   0.498   3.056  10.310 -0.9753 -0.6713  0.6803
40799SOL     OW25894   4.767   9.821   5.112 -0.3398 -0.2140 -0.1160
40799SOL    HW125895   4.697   9.851   5.170 -0.1350 -0.4104  0.2409
40799SOL    HW225896   4.845   9.820   5.168  0.0149  0.2963 -0.5835
40800SOL     OW25897   7.954   6.991   2.229  0.3243  0.5690  0.1068
40800SOL    HW125898   7.938   6.908   2.273 -1.3408  0.9322  0.2253
40800SOL    HW225899   8.040   6.979   2.187 -0.8659 -2.0845 -1.8845
40801SOL     OW25900   5.318   5.247   5.937 -0.1065 -0.2773  0.3838
40801SOL    HW125901   5.314   5.159   5.900  0.9233 -0.3437  0.3972
40801SOL    HW225902   5.314   5.305   5.861 -3.6298 -0.1888  0.5072
40802SOL     OW25903  10.327  10.002   6.292 -0.4532 -0.3012 -0.2170
40802SOL    HW125904  10.275   9.926   6.317 -2.1371  0.6090 -0.8097
40802SOL    HW225905  10.386   9.969   6.224  0.2975 -1.5031  0.9501
40803SOL     OW25906   5.522   4.640   9.660 -0.0766  0.0267  0.3559
40803SOL    HW125907   5.535   4.601   9.573  0.3895 -0.7719  0.7656
40803SOL    HW225908   5.585   4.712   9.664 -0.1520  0.1124  0.0043
40804SOL     OW25909   8.203   0.777   6.566 -0.0247  0.1103 -0.1231
40804SOL    HW125910   8.190   0.839   6.638 -1.5602  1.2940 -1.3426
40804SOL    HW225911   8.196   0.691   6.607 -1.0413  0.7587  1.1376
40805SOL     OW25912   6.020   7.493   8.187 -0.3288 -0.1533 -0.1545
40805SOL    HW125913   6.091   7.517   8.126 -0.7281 -2.2635 -1.5691
40805SOL    HW225914   5.942   7.532   8.149 -0.2852  0.2529  0.1616
40806SOL     OW25915  10.157   4.013   3.867 -0.2968 -0.0579 -0.0648
40806SOL    HW125916  10.167   3.918   3.870 -1.2404 -0.1442  0.9299
40806SOL    HW225917  10.181   4.043   3.955 -1.3716  0.4554  0.0756
40807SOL     OW25918   1.244   6.268   5.623 -0.1575 -0.2795  1.2785
40807SOL    HW125919   1.279   6.241   5.708  0.1209 -0.5282  1.0890
40807SOL    HW225920   1.204   6.353   5.639  2.6754  1.2105  1.0139
40808SOL     OW25921   8.028   3.426   9.986 -0.6817  0.1934  0.1820
40808SOL    HW125922   8.065   3.348   9.945 -0.9929 -0.7603  1.6584
40808SOL    HW225923   7.937   3.404  10.004 -0.9242  1.1035  0.1404
40809SOL     OW25924   1.432   8.884   7.125  0.8065 -0.0401 -0.0997
40809SOL    HW125925   1.465   8.827   7.055 -2.3207 -1.1523 -0.8820
40809SOL    HW225926   1.397   8.823   7.190 -1.8100  0.8864 -0.5234
40810SOL     OW25927   7.260   4.828   0.617  1.0408 -0.0033 -0.3272
40810SOL    HW125928   7.265   4.760   0.684  0.7333  1.7239  1.5537
40810SOL    HW225929   7.167   4.846   0.608  1.1757  0.8885 -0.0181
40811SOL     OW25930   6.257   3.531   7.648  0.6118  0.0567 -0.0116
40811SOL    HW125931   6.243   3.597   7.579 -0.1957 -0.5300 -0.4212
40811SOL    HW225932   6.190   3.550   7.713 -0.0311 -0.7535 -0.4335
40812SOL     OW25933   5.802   0.668   4.149 -0.6173  0.1032  0.3678
40812SOL    HW125934   5.760   0.643   4.066 -0.8441 -0.0398  0.5241
40812SOL    HW225935   5.895   0.676   4.127 -0.8781  1.7055 -0.2879
40813SOL     OW25936   6.111   8.352   1.224  0.0208  0.1716  0.3523
40813SOL    HW125937   6.194   8.397   1.235 -0.3335  0.4672  2.2991
40813SOL    HW225938   6.055   8.416   1.180  0.9420 -0.2318 -1.4783
40814SOL     OW25939   3.615   8.101   2.992  0.7746 -0.0804 -0.7095
40814SOL    HW125940   3.590   8.130   2.905  0.2683 -0.0537 -0.5550
40814SOL    HW225941   3.677   8.029   2.977 -0.4935 -1.1144 -1.0932
40815SOL     OW25942   0.601   5.063   0.558 -0.1054  0.4092  0.5046
40815SOL    HW125943   0.674   5.069   0.618 -0.0962 -1.1947  0.6893
40815SOL    HW225944   0.523   5.057   0.614 -0.1660 -0.2848  0.3516
40816SOL     OW25945   1.141   3.652   2.060 -0.8592 -0.0081 -0.2113
40816SOL    HW125946   1.157   3.612   1.974 -1.2692 -1.0535  0.1844
40816SOL    HW225947   1.067   3.711   2.045 -1.2967 -0.6061 -0.4606
40817SOL     OW25948   4.861   9.848   3.683  0.1870  1.1824 -0.6974
40817SOL    HW125949   4.835   9.929   3.728  1.2810  1.1613  0.0030
40817SOL    HW225950   4.915   9.878   3.610  0.8356  1.0795 -0.2657
40818SOL     OW25951   5.476  10.356   1.398  0.1685 -0.1144  0.0489
40818SOL    HW125952   5.431  10.441   1.396  0.5518  0.0776 -0.4157
40818SOL    HW225953   5.431  10.304   1.332  0.1159 -0.1803  0.1372
40819SOL     OW25954   8.354   0.432   2.775 -0.2747 -0.0039  0.2355
40819SOL    HW125955   8.422   0.409   2.837 -0.1674 -1.5467 -0.4172
40819SOL    HW225956   8.273   0.431   2.826  0.0657  0.9649  0.8175
40820SOL     OW25957   9.655   5.598   9.761 -0.1849 -0.4696  0.7775
40820SOL    HW125958   9.734   5.548   9.739 -0.7844 -0.9364 -0.4629
40820SOL    HW225959   9.590   5.567   9.697 -0.8065  1.3349  0.4958
40821SOL     OW25960   8.173   5.447   6.722 -0.8691  0.0654 -0.0932
40821SOL    HW125961   8.183   5.539   6.745 -1.2643 -0.1189  0.8835
40821SOL    HW225962   8.161   5.403   6.806  0.5071 -1.0472 -0.4417
40822SOL     OW25963   5.426   4.111   1.931 -0.0907  0.3647 -0.2157
40822SOL    HW125964   5.376   4.192   1.937  0.6088  0.8910 -1.1388
40822SOL    HW225965   5.364   4.042   1.956 -0.3280  1.2809  1.8777
40823SOL     OW25966   3.119   0.485   3.968  0.2967 -0.4668 -0.0617
40823SOL    HW125967   3.117   0.559   4.028  2.5608  0.2163 -0.7722
40823SOL    HW225968   3.169   0.418   4.014  1.6558 -0.1039 -0.9761
40824SOL     OW25969   8.137  10.505  10.340  0.0820 -0.5050  0.1350
40824SOL    HW125970   8.190  10.462  10.407 -0.4271 -0.7493  0.3865
40824SOL    HW225971   8.158  10.598  10.350 -0.7240 -0.4227  1.3159
40825SOL     OW25972   9.471   2.299   2.146 -0.4760  0.2659  0.5752
40825SOL    HW125973   9.535   2.334   2.084  1.3719 -0.2863  2.0821
40825SOL    HW225974   9.467   2.206   2.128 -1.9656  0.4949 -0.4325
40826SOL     OW25975  10.342   1.588   5.868  0.3691 -0.0931  0.3340
40826SOL    HW125976  10.361   1.681   5.883  1.1017 -0.1185 -0.3563
40826SOL    HW225977  10.248   1.585   5.853  0.3493  0.5515  0.2909
40827SOL     OW25978   8.493   1.594   0.104  0.1444  0.3035  0.1813
40827SOL    HW125979   8.484   1.670   0.046  1.3231 -0.8187 -1.5674
40827SOL    HW225980   8.422   1.604   0.168 -2.0804  0.9961 -2.1948
40828SOL     OW25981   6.526  10.737   0.595 -0.7077  0.3111  0.2382
40828SOL    HW125982   6.601  10.725   0.537 -0.7040  1.3512 -0.0058
40828SOL    HW225983   6.545  10.819   0.641 -1.3924  0.2465  0.6425
40829SOL     OW25984  10.190   9.412   6.545  0.4871  0.3077 -0.4012
40829SOL    HW125985  10.261   9.427   6.482 -0.1856 -0.8428 -1.4890
40829SOL    HW225986  10.141   9.494   6.546  0.8397  0.5324 -0.9533
40830SOL     OW25987   3.398   1.153   1.587  0.5959 -0.4876 -0.2392
40830SOL    HW125988   3.385   1.073   1.536 -0.6532  0.2164 -1.0789
40830SOL    HW225989   3.445   1.212   1.529 -0.9774  0.3765 -0.6887
40831SOL     OW25990   8.395   7.345   2.042  0.3879  0.6864  0.0451
40831SOL    HW125991   8.447   7.388   2.109 -0.0452  0.0320  0.8252
40831SOL    HW225992   8.444   7.266   2.019 -0.3755 -0.0964  1.0100
40832SOL     OW25993   8.170   5.826   2.394  0.0841 -0.3859  0.1439
40832SOL    HW125994   8.202   5.735   2.395  0.2350 -0.3287  1.2371
40832SOL    HW225995   8.078   5.819   2.416 -0.4927 -0.4569 -2.0317
40833SOL     OW25996   5.429   8.855   8.785  0.6529 -0.0559 -0.1557
40833SOL    HW125997   5.415   8.779   8.842 -1.8267  1.6018  1.6540
40833SOL    HW225998   5.520   8.879   8.799  0.8905 -1.4253  0.8859
40834SOL     OW25999   5.501   4.441  10.302 -0.4107  0.1164  0.1862
40834SOL    HW126000   5.581   4.460  10.252 -1.2586  0.2852 -1.1615
40834SOL    HW226001   5.532   4.428  10.391  1.1245  0.2073 -0.2908
40835SOL     OW26002  10.894   7.924   4.560 -0.2080  0.1185 -0.6875
40835SOL    HW126003  10.847   8.008   4.564 -0.0439  0.1803  1.1651
40835SOL    HW226004  10.979   7.946   4.522  0.6358  1.2783  1.6265
40836SOL     OW26005   2.977   5.484   2.759 -0.3017  0.2762 -0.1349
40836SOL    HW126006   2.990   5.390   2.753 -1.4132 -0.1522  2.6115
40836SOL    HW226007   3.025   5.511   2.837  0.9985  2.2531 -1.5201
40837SOL     OW26008   1.346   1.782   8.432  0.0926  0.5255 -0.7853
40837SOL    HW126009   1.406   1.856   8.424  1.7515 -0.5791  0.8061
40837SOL    HW226010   1.317   1.784   8.523  0.4977 -1.0218 -0.6007
40838SOL     OW26011   5.946   0.398   4.124 -0.3041  0.1209  0.2837
40838SOL    HW126012   5.971   0.413   4.033  1.7501 -1.0615  0.5933
40838SOL    HW226013   5.853   0.418   4.126  0.0139  2.2501 -1.5828
40839SOL     OW26014  11.008   5.375   8.291  0.0479  0.3912  0.2567
40839SOL    HW126015  10.931   5.342   8.337  0.1957  0.4348  0.5422
40839SOL    HW226016  10.994   5.352   8.200 -0.4925  0.7597  0.2476
40840SOL     OW26017   0.538   0.876   4.997  0.3271 -0.3486 -0.3116
40840SOL    HW126018   0.502   0.937   4.933  1.4227  0.6302 -0.0080
40840SOL    HW226019   0.536   0.924   5.080 -0.4185 -1.3531  0.2765
40841SOL     OW26020   8.807  10.532  10.782 -0.4163  0.5855  0.2166
40841SOL    HW126021   8.766  10.541  10.868 -1.7982  0.2610 -0.3736
40841SOL    HW226022   8.734  10.538  10.720  0.3030 -0.8792 -0.8427
40842SOL     OW26023   2.114   1.180   5.814  0.8983 -0.1885  0.9841
40842SOL    HW126024   2.151   1.094   5.834 -1.1567 -0.9763  1.6862
40842SOL    HW226025   2.054   1.164   5.741  2.2268  1.1306 -0.4544
40843SOL     OW26026   1.405   5.192   0.019 -0.2738 -0.0966 -0.2681
40843SOL    HW126027   1.408   5.151  -0.067 -0.6283  0.2863 -0.4692
40843SOL    HW226028   1.496   5.211   0.041  0.0074 -1.9164  0.2955
40844SOL     OW26029   4.332  10.561   5.672 -0.6764 -0.4829 -0.1070
40844SOL    HW126030   4.354  10.581   5.763 -0.5532 -0.8278 -0.0563
40844SOL    HW226031   4.416  10.561   5.626 -0.8906  1.2441 -0.5537
40845SOL     OW26032   4.911   2.399   9.443 -0.3097 -0.2507 -0.0627
40845SOL    HW126033   4.930   2.370   9.354 -0.2108  0.2384 -0.1992
40845SOL    HW226034   4.855   2.330   9.479  0.8297 -1.1834 -0.0094
40846SOL     OW26035   1.426   2.692   4.465  0.4039 -0.4321  0.4546
40846SOL    HW126036   1.382   2.624   4.415 -1.9478  0.6291  0.9461
40846SOL    HW226037   1.508   2.708   4.417  0.1350 -2.2631 -0.6954
40847SOL     OW26038   7.132   3.405   5.616  0.1280 -0.1947  0.1188
40847SOL    HW126039   7.217   3.446   5.599 -1.1280  2.9736  0.6509
40847SOL    HW226040   7.086   3.410   5.532 -0.0882 -0.3773  0.2259
40848SOL     OW26041   3.927   6.611   2.492  0.1021 -0.2455  0.3958
40848SOL    HW126042   4.009   6.596   2.539  0.9218 -0.1226 -0.9400
40848SOL    HW226043   3.901   6.524   2.461  0.7134 -0.0646 -0.7047
40849SOL     OW26044   6.480   9.019   7.915  0.3987 -0.4962 -0.2578
40849SOL    HW126045   6.430   8.973   7.983 -0.2348  1.9201  1.0555
40849SOL    HW226046   6.492   8.955   7.846 -0.3283 -2.6148  1.4667
40850SOL     OW26047   7.004   5.859   5.487 -0.3285 -0.6747 -0.2299
40850SOL    HW126048   6.913   5.886   5.501 -0.5632 -2.0633  1.3518
40850SOL    HW226049   7.046   5.875   5.572  0.6610 -0.8982 -0.6696
40851SOL     OW26050   9.168   8.944   4.763  0.2938  0.4210 -0.9024
40851SOL    HW126051   9.154   8.849   4.764 -0.1009  0.4209 -2.8136
40851SOL    HW226052   9.245   8.957   4.819  0.5687 -1.0605 -0.8978
40852SOL     OW26053   3.490   6.567   3.446 -0.0254  0.3528  0.1635
40852SOL    HW126054   3.399   6.539   3.440 -0.4494  1.5170  0.7753
40852SOL    HW226055   3.522   6.564   3.356 -1.0533  1.0850 -0.2515
40853SOL     OW26056   2.806   5.483   9.262 -0.0861 -0.2488  0.2998
40853SOL    HW126057   2.895   5.500   9.293 -0.0854 -0.3606  0.3577
40853SOL    HW226058   2.800   5.388   9.254 -0.5993 -0.3434  1.5128
40854SOL     OW26059  10.776   5.798   2.167 -0.3606 -0.0392 -0.1467
40854SOL    HW126060  10.809   5.869   2.222 -1.8967  1.8776 -1.5704
40854SOL    HW226061  10.854   5.748   2.142  0.6704  0.7173  1.4475
40855SOL     OW26062   6.547   5.213   2.005  1.1400  0.4497 -0.4331
40855SOL    HW126063   6.463   5.221   1.961  0.3299  0.2461  1.0078
40855SOL    HW226064   6.581   5.129   1.977  0.0231 -0.2792  0.3111
40856SOL     OW26065   6.835   2.330   8.747 -0.4397 -0.6281 -0.2322
40856SOL    HW126066   6.785   2.249   8.759 -1.2319 -0.3109 -1.2419
40856SOL    HW226067   6.783   2.381   8.685 -0.5613  1.1887  1.2878
40857SOL     OW26068   4.429   9.951   9.866  0.9203  0.6039  0.2516
40857SOL    HW126069   4.447   9.885   9.799  0.3117  0.3325  0.3538
40857SOL    HW226070   4.342   9.985   9.844  0.3328 -0.1198  1.4226
40858SOL     OW26071   8.475   4.433  10.151 -0.0703 -0.1351  0.0213
40858SOL    HW126072   8.537   4.410  10.220 -0.5472 -0.2960  0.4051
40858SOL    HW226073   8.395   4.384  10.173 -0.3866  0.1962 -0.3675
40859SOL     OW26074   6.549   9.406   7.304  0.5214 -0.3652 -0.8511
40859SOL    HW126075   6.637   9.440   7.293  0.1750  0.8615 -0.0335
40859SOL    HW226076   6.560   9.329   7.360  0.9350  0.7465  0.6635
40860SOL     OW26077  10.543   4.796   8.637  0.0967  0.5478  0.0386
40860SOL    HW126078  10.526   4.801   8.543  1.1939 -1.2766 -0.3113
40860SOL    HW226079  10.629   4.837   8.648  0.2577  0.1937  0.1293
40861SOL     OW26080   5.568   4.736   7.768  0.0573 -0.0971 -0.3056
40861SOL    HW126081   5.535   4.656   7.729 -1.5700  1.0220 -1.3424
40861SOL    HW226082   5.495   4.769   7.821  1.2431 -0.0881  1.3935
40862SOL     OW26083   9.800  10.515   8.802 -0.7103 -0.8236 -0.2722
40862SOL    HW126084   9.810  10.466   8.884  2.2792 -0.5819 -0.3652
40862SOL    HW226085   9.857  10.470   8.740 -0.1534  1.0202 -1.1940
40863SOL     OW26086   8.355   4.910   1.173 -0.0158 -0.3950 -0.0436
40863SOL    HW126087   8.366   4.848   1.101  1.4284  0.2459 -0.4178
40863SOL    HW226088   8.394   4.991   1.141  1.1845 -0.2509  1.6322
40864SOL     OW26089   4.070   9.054   8.433  0.0837  0.3171 -0.1071
40864SOL    HW126090   4.028   8.978   8.392 -1.3387  1.1478 -0.2186
40864SOL    HW226091   3.999   9.115   8.451  1.2022  1.6463 -0.0261
40865SOL     OW26092   2.239   4.915   3.129  0.0422 -0.2213 -0.2237
40865SOL    HW126093   2.255   4.928   3.036 -0.2630 -1.4801 -0.4575
40865SOL    HW226094   2.304   4.851   3.157  1.5198  1.6398  0.9261
40866SOL     OW26095   0.526   1.568  10.274  0.0704 -1.0194  0.2593
40866SOL    HW126096   0.489   1.584  10.187 -0.5377 -1.7578  0.3672
40866SOL    HW226097   0.617   1.597  10.268  0.0495 -1.1342 -0.6396
40867SOL     OW26098   3.166   2.753   9.244  0.1062  0.1628  0.0726
40867SOL    HW126099   3.198   2.724   9.158  0.9044  1.7738 -0.2136
40867SOL    HW226100   3.130   2.674   9.284  0.0940 -0.7141 -1.5705
40868SOL     OW26101   1.183   2.315  10.174 -0.3034 -0.0146  0.2506
40868SOL    HW126102   1.096   2.292  10.207 -0.6546 -0.8115 -1.1607
40868SOL    HW226103   1.167   2.367  10.096  0.5083  0.5371  0.4283
40869SOL     OW26104   5.746   0.821   3.460  0.0849 -0.3783  0.2186
40869SOL    HW126105   5.697   0.899   3.486  0.5620 -0.1615  0.4752
40869SOL    HW226106   5.779   0.784   3.542  2.0526  0.6090 -0.0764
40870SOL     OW26107   4.331   5.609   7.422  0.0987 -0.0249 -0.8689
40870SOL    HW126108   4.252   5.556   7.409 -0.4344  1.0403 -2.1167
40870SOL    HW226109   4.372   5.613   7.336  2.7238 -2.3068  0.1260
40871SOL     OW26110   7.937   9.005   0.017 -0.5796  0.1252 -0.2959
40871SOL    HW126111   7.865   8.991   0.078 -1.8158 -0.2282 -1.7834
40871SOL    HW226112   7.934   9.098  -0.005 -0.1263  0.2557  0.1750
40872SOL     OW26113   8.409  11.000   5.110  0.0025 -0.1986  0.4988
40872SOL    HW126114   8.398  11.088   5.146  0.6049 -0.1215  0.5158
40872SOL    HW226115   8.501  10.996   5.085  0.1121 -1.0030  0.9816
40873SOL     OW26116   2.792   7.990   9.141 -0.0610 -0.1076  0.0939
40873SOL    HW126117   2.844   7.916   9.174 -0.3229 -0.9980 -1.3735
40873SOL    HW226118   2.850   8.034   9.078 -0.3709  0.1255 -0.0292
40874SOL     OW26119   5.763  10.625  10.802 -0.2320 -0.0693 -0.5267
40874SOL    HW126120   5.824  10.565  10.845 -0.2063 -0.3898 -0.9956
40874SOL    HW226121   5.717  10.570  10.739 -0.0447  0.4570 -1.1305
40875SOL     OW26122   9.267  10.240   9.780  0.1213  0.3959  0.4636
40875SOL    HW126123   9.177  10.209   9.795 -0.1451  1.8793  2.4430
40875SOL    HW226124   9.322  10.164   9.800 -0.6490 -0.2523  0.1747
40876SOL     OW26125   9.535   8.982   7.211 -0.3686 -0.0900  0.3092
40876SOL    HW126126   9.448   9.014   7.235  0.7528  2.2115  1.7112
40876SOL    HW226127   9.565   9.042   7.142  0.8439  0.5048  1.2890
40877SOL     OW26128   7.470   7.633   6.871  0.1409 -0.4262 -0.3225
40877SOL    HW126129   7.445   7.648   6.779  1.6905 -0.7839 -0.8208
40877SOL    HW226130   7.565   7.633   6.871  0.1807  0.6419  1.4890
40878SOL     OW26131   7.632   0.792   2.003 -0.3069 -0.4456 -0.2676
40878SOL    HW126132   7.682   0.780   1.922  0.9573  2.8009 -0.1185
40878SOL    HW226133   7.652   0.715   2.056  0.8088 -1.4393 -2.0514
40879SOL     OW26134   3.750   9.526   8.984  0.1497 -0.8071 -0.0014
40879SOL    HW126135   3.821   9.474   8.946 -0.8627 -1.1009 -1.6031
40879SOL    HW226136   3.749   9.606   8.933 -1.4303 -1.3261 -0.8876
40880SOL     OW26137   4.822   3.552   3.857 -0.4508  0.3371 -0.2150
40880SOL    HW126138   4.825   3.468   3.812  2.6184  1.8547 -3.3103
40880SOL    HW226139   4.885   3.543   3.929 -1.3556 -0.4547  0.4991
40881SOL     OW26140   9.784  10.171   9.700 -0.0354 -0.1985  0.2684
40881SOL    HW126141   9.753  10.193   9.788  0.0752  0.9424  0.0483
40881SOL    HW226142   9.735  10.230   9.642  0.4722 -0.3761 -0.3572
40882SOL     OW26143   4.707   8.128   5.902  0.3679 -0.9106  0.4299
40882SOL    HW126144   4.649   8.056   5.930  0.9968 -1.4288  0.4324
40882SOL    HW226145   4.791   8.107   5.942  0.3233  0.3482  1.2070
40883SOL     OW26146   5.703   9.565   8.278  0.2369 -0.1983 -0.0140
40883SOL    HW126147   5.644   9.505   8.323  0.0162 -0.1863 -0.2807
40883SOL    HW226148   5.758   9.508   8.224  1.2845 -0.3080  1.1411
40884SOL     OW26149   5.275   7.351   3.945 -0.5341 -0.2704 -0.3520
40884SOL    HW126150   5.277   7.418   3.877  0.1955 -1.4487 -1.5372
40884SOL    HW226151   5.203   7.376   4.002 -0.9193  0.9524 -1.3521
40885SOL     OW26152   1.397   9.821   2.517 -0.3042 -0.1409 -0.0874
40885SOL    HW126153   1.343   9.765   2.461 -1.1009  0.5638 -0.0423
40885SOL    HW226154   1.486   9.792   2.499 -0.5930 -0.4705 -1.1261
40886SOL     OW26155   4.558   9.395   0.302  0.1980 -0.4642  0.1334
40886SOL    HW126156   4.569   9.489   0.283 -0.4054 -0.5109 -0.5142
40886SOL    HW226157   4.471   9.374   0.267  0.4958 -1.3602 -0.0996
40887SOL     OW26158   2.092   3.769   6.564 -0.1264  0.0903  0.6794
40887SOL    HW126159   2.080   3.844   6.505  1.5173  0.1416  0.3396
40887SOL    HW226160   2.015   3.769   6.620 -3.0299 -1.3104 -2.8548
40888SOL     OW26161   4.078   2.355   2.331 -0.1101 -0.3039 -0.9133
40888SOL    HW126162   4.098   2.309   2.412 -0.0037  1.2231 -0.0337
40888SOL    HW226163   4.144   2.425   2.326  0.5755 -1.0060 -2.8923
40889SOL     OW26164   0.112   8.003   5.517 -0.0455 -0.1509  0.1989
40889SOL    HW126165   0.168   7.934   5.553  0.5708 -0.4369 -1.2465
40889SOL    HW226166   0.096   7.976   5.427 -1.4043  0.6328  0.1858
40890SOL     OW26167   6.947   4.905   6.350 -0.6247 -0.0366 -0.1552
40890SOL    HW126168   6.981   4.935   6.265 -0.1994  1.5238  0.5282
40890SOL    HW226169   6.998   4.826   6.369  1.5604  1.3174  0.0623
40891SOL     OW26170   5.951   7.611   4.715 -0.0165 -0.4810 -0.0598
40891SOL    HW126171   5.921   7.604   4.806 -0.4243  0.5596 -0.1021
40891SOL    HW226172   6.038   7.652   4.722 -0.4754  0.5451 -0.1809
40892SOL     OW26173   6.361   1.290   0.033 -0.3565 -0.4077  0.1199
40892SOL    HW126174   6.439   1.268  -0.018 -0.5022 -1.9224  0.5015
40892SOL    HW226175   6.311   1.209   0.037 -0.4780 -0.2822  2.4340
40893SOL     OW26176   7.595   0.160  10.595 -0.4234 -0.2769 -0.1222
40893SOL    HW126177   7.550   0.196  10.671 -0.6886  0.5085 -0.6355
40893SOL    HW226178   7.569   0.068  10.593  0.1032 -0.4736  1.0982
40894SOL     OW26179   4.312   8.777   8.655 -0.8028  0.0185  0.2679
40894SOL    HW126180   4.343   8.708   8.714  2.2372  2.4247  1.7570
40894SOL    HW226181   4.317   8.738   8.568  2.8559 -1.1320  0.8184
40895SOL     OW26182   5.428   6.213   6.355  0.2342 -0.3148 -0.4980
40895SOL    HW126183   5.342   6.172   6.345 -0.1873  0.6302 -0.8507
40895SOL    HW226184   5.459   6.183   6.441 -0.3150 -0.9063 -0.5018
40896SOL     OW26185  10.164   8.311   8.534  0.0048  0.4730  0.3192
40896SOL    HW126186  10.197   8.224   8.556 -0.4898  0.2259  0.1186
40896SOL    HW226187  10.076   8.294   8.499  0.1516  0.9974 -0.3128
40897SOL     OW26188   7.540   2.538   8.159 -0.9455  0.5122 -0.1468
40897SOL    HW126189   7.603   2.562   8.227  0.7500 -0.0251 -1.4481
40897SOL    HW226190   7.532   2.443   8.166 -1.2586  0.5246 -0.3053
40898SOL     OW26191   6.125   9.609   3.634  0.3889 -0.1275  0.0395
40898SOL    HW126192   6.175   9.678   3.589 -0.6396  0.4155 -0.2936
40898SOL    HW226193   6.148   9.620   3.726  1.4126 -0.3358 -0.1704
40899SOL     OW26194   3.432   4.937   1.504  0.4033  0.5377 -0.0930
40899SOL    HW126195   3.400   4.876   1.570 -0.1120  0.8854 -0.0159
40899SOL    HW226196   3.476   4.881   1.440  2.2270  0.3228  1.2668
40900SOL     OW26197   5.805   8.699   2.312  0.3483 -0.8014 -0.3607
40900SOL    HW126198   5.788   8.608   2.334 -0.3082 -0.3234  1.2848
40900SOL    HW226199   5.793   8.746   2.395  1.0641  0.7241 -1.0863
40901SOL     OW26200   8.086   4.754  10.596  0.2499 -0.0991 -0.0328
40901SOL    HW126201   8.031   4.679  10.620 -0.7311  0.8730  0.8311
40901SOL    HW226202   8.172   4.735  10.635 -0.1073 -0.5801  0.5284
40902SOL     OW26203  10.759   1.396   0.886  0.0687 -0.1076 -0.1969
40902SOL    HW126204  10.743   1.313   0.842 -0.4466 -0.3511  0.4499
40902SOL    HW226205  10.735   1.381   0.977  0.7723  0.5049  0.1051
40903SOL     OW26206   4.613   6.376  10.352  0.7476 -0.0674 -0.2076
40903SOL    HW126207   4.594   6.453  10.299  1.7883  0.1724 -0.2528
40903SOL    HW226208   4.545   6.313  10.328  0.4426  0.4961 -0.8639
40904SOL     OW26209  10.730   8.957   6.200  0.1089 -0.0545  0.4966
40904SOL    HW126210  10.746   9.037   6.150 -1.5762  0.6092  0.9605
40904SOL    HW226211  10.688   8.897   6.138  2.0140 -0.9250 -0.0596
40905SOL     OW26212   9.083   4.266  10.032 -0.1431 -0.2163 -0.1401
40905SOL    HW126213   9.051   4.194  10.086  1.0013 -0.3382  0.4042
40905SOL    HW226214   9.178   4.254  10.029  0.0557  1.1795 -0.1576
40906SOL     OW26215   6.410   5.061   7.678 -0.6020 -0.3823 -0.3803
40906SOL    HW126216   6.377   4.997   7.742 -1.0201 -0.5829 -0.7949
40906SOL    HW226217   6.342   5.066   7.612 -0.1208 -0.2533 -0.8739
40907SOL     OW26218   9.122   7.126   9.755  0.2526  0.2003 -0.2414
40907SOL    HW126219   9.086   7.084   9.833 -0.1552 -0.6063 -0.8541
40907SOL    HW226220   9.209   7.155   9.782  0.5094 -0.9457  0.2253
40908SOL     OW26221   3.278   7.663   3.405  0.0748 -0.2037  0.1216
40908SOL    HW126222   3.278   7.569   3.421 -0.6629 -0.4583 -1.2676
40908SOL    HW226223   3.368   7.685   3.384 -0.0248 -0.9050 -1.1254
40909SOL     OW26224   0.533   9.043   3.138 -0.1560 -0.3897 -0.2805
40909SOL    HW126225   0.608   8.999   3.098  0.1161  0.3011 -0.5571
40909SOL    HW226226   0.490   8.976   3.191  1.5389 -0.4272  1.1305
40910SOL     OW26227   8.424   1.547  10.237 -0.2144  0.0120 -0.1196
40910SOL    HW126228   8.368   1.471  10.222  0.0655 -0.1079 -0.5571
40910SOL    HW226229   8.504   1.529  10.188  0.1776  0.2271  0.4262
40911SOL     OW26230   4.421   0.013  10.563 -0.3277 -0.0728 -0.1263
40911SOL    HW126231   4.500   0.027  10.615 -0.3017 -0.5942 -0.0205
40911SOL    HW226232   4.380  -0.063  10.603 -1.3667  0.7424  0.3910
40912SOL     OW26233   7.463  10.868   4.875  0.0854  0.2478  0.4612
40912SOL    HW126234   7.433  10.827   4.794  1.1487 -0.6159  0.4905
40912SOL    HW226235   7.391  10.925   4.900  0.2516  1.5788 -1.8036
40913SOL     OW26236   8.162   0.356   8.063 -0.5338 -0.0873  1.0260
40913SOL    HW126237   8.067   0.354   8.078 -0.5847  0.5258  0.8082
40913SOL    HW226238   8.198   0.389   8.146 -0.4383 -1.0570  1.3856
40914SOL     OW26239   2.161   3.712   5.772 -0.0676  0.5531 -0.6161
40914SOL    HW126240   2.211   3.631   5.774  0.6634  1.0010  0.0577
40914SOL    HW226241   2.183   3.756   5.855 -2.4521  0.2605  0.2275
40915SOL     OW26242   9.608   7.551   8.404 -0.4764 -0.3547  0.3122
40915SOL    HW126243   9.639   7.580   8.318 -0.8667 -1.0751 -0.0897
40915SOL    HW226244   9.687   7.539   8.456 -0.2168 -0.2044 -0.0453
40916SOL     OW26245   9.199   8.105   7.336  0.5596 -0.0796  0.3778
40916SOL    HW126246   9.184   8.168   7.266 -0.2650 -0.6351  0.0405
40916SOL    HW226247   9.112   8.072   7.358  1.0626 -2.5415 -0.8299
40917SOL     OW26248   1.709   9.544   0.768  0.1955  0.2726 -0.1445
40917SOL    HW126249   1.707   9.625   0.820 -0.5048  0.0465  0.1982
40917SOL    HW226250   1.800   9.515   0.772  0.1219  0.1451  1.1523
40918SOL     OW26251   5.525   3.703   4.362 -0.2769  0.5029 -0.3122
40918SOL    HW126252   5.477   3.776   4.324 -0.9792 -0.4264 -1.2989
40918SOL    HW226253   5.585   3.674   4.293  0.5300  0.6060  0.3279
40919SOL     OW26254   4.164  10.502   6.841 -0.0298 -0.3221  0.9579
40919SOL    HW126255   4.211  10.479   6.760 -0.4757  1.8325  0.0265
40919SOL    HW226256   4.233  10.515   6.906  0.4061 -0.8637  0.6138
40920SOL     OW26257  10.704   6.876   3.530 -0.4515  0.4328 -0.2117
40920SOL    HW126258  10.700   6.784   3.504 -0.3071  0.5184 -0.5434
40920SOL    HW226259  10.747   6.920   3.456  0.4612  0.5987  0.3984
40921SOL     OW26260   7.969   1.451   9.396 -0.4883  0.1626  0.1620
40921SOL    HW126261   7.911   1.375   9.395  1.5305 -1.5416  1.5661
40921SOL    HW226262   7.990   1.463   9.489 -0.2908  2.0895 -0.0961
40922SOL     OW26263   5.561   5.002  10.104 -0.0625  0.6295 -0.3262
40922SOL    HW126264   5.512   4.930  10.144 -1.5689  1.9671  0.4035
40922SOL    HW226265   5.596   5.050  10.179 -0.3290  1.4601 -0.7235
40923SOL     OW26266   6.699   2.798   7.053  0.0368  0.0247 -0.2668
40923SOL    HW126267   6.661   2.876   7.014  0.7996  0.4591 -0.1595
40923SOL    HW226268   6.629   2.761   7.107 -1.5231 -1.3259 -2.9780
40924SOL     OW26269   7.309   1.940   8.684 -0.4851  0.1430 -0.4186
40924SOL    HW126270   7.247   1.868   8.681  0.0558 -0.5538  2.4364
40924SOL    HW226271   7.395   1.899   8.669 -0.2780  0.3500  0.1719
40925SOL     OW26272   0.418   8.525   7.152  1.0031  0.0530 -0.6557
40925SOL    HW126273   0.408   8.431   7.169 -0.5962  0.4271  0.8160
40925SOL    HW226274   0.512   8.541   7.156  1.1646 -0.7815  3.6483
40926SOL     OW26275   1.758   3.908  10.585 -0.3870  0.1579  0.3024
40926SOL    HW126276   1.690   3.852  10.621 -1.4142  1.3658  0.3043
40926SOL    HW226277   1.720   3.945  10.505  0.3437  0.6685  0.1766
40927SOL     OW26278   3.950   3.394   6.554 -0.5446 -0.1490  0.4309
40927SOL    HW126279   3.972   3.477   6.596  0.1400 -0.5684  0.9248
40927SOL    HW226280   3.866   3.410   6.511  0.0700  1.1155 -0.3669
40928SOL     OW26281   4.042   9.753   1.624 -0.3993 -0.1011  0.0798
40928SOL    HW126282   4.122   9.710   1.653 -1.1702 -0.8933  1.1465
40928SOL    HW226283   4.010   9.799   1.702 -1.5955 -0.8021  0.0388
40929SOL     OW26284   9.367   6.905  10.176 -0.1593 -0.3772  0.9783
40929SOL    HW126285   9.407   6.864  10.253  0.0755  1.0297  1.6337
40929SOL    HW226286   9.441   6.921  10.117 -0.1867 -0.4650  0.9200
40930SOL     OW26287   3.253   7.837   0.109 -0.1409 -0.4437 -0.1326
40930SOL    HW126288   3.316   7.803   0.045  0.8269  0.9470  0.0430
40930SOL    HW226289   3.171   7.841   0.060  0.3234 -0.4901 -0.9448
40931SOL     OW26290   5.615   9.544   1.412 -0.1586  0.1541 -0.6212
40931SOL    HW126291   5.700   9.500   1.410  0.1553  0.6411  0.7574
40931SOL    HW226292   5.556   9.480   1.451 -0.0517  0.3851 -0.0710
40932SOL     OW26293   7.731   1.384  10.355 -0.5694 -0.1526  0.3286
40932SOL    HW126294   7.819   1.410  10.330 -0.6046 -0.2277  0.1235
40932SOL    HW226295   7.735   1.376  10.451 -0.6698  1.0034  0.4449
40933SOL     OW26296  10.775   6.251   5.425  0.8632 -0.1312  0.4546
40933SOL    HW126297  10.828   6.219   5.352  3.0472 -0.3439  2.0099
40933SOL    HW226298  10.744   6.172   5.468 -1.2468 -0.0071 -0.7324
40934SOL     OW26299   5.196   1.760   3.596 -0.2903  0.5299  0.1674
40934SOL    HW126300   5.235   1.846   3.579 -2.4483  1.4077 -0.7587
40934SOL    HW226301   5.248   1.699   3.545 -1.1788  1.9087 -2.5875
40935SOL     OW26302  10.897   3.662   3.220  0.7445 -0.0492  0.0148
40935SOL    HW126303  10.824   3.724   3.221  0.6934 -0.0989  1.5658
40935SOL    HW226304  10.944   3.681   3.139  0.7879  2.1063  0.4892
40936SOL     OW26305   3.684   9.986   3.117  0.6488  0.1254  0.7024
40936SOL    HW126306   3.700   9.970   3.024  2.5604 -0.1220  1.0353
40936SOL    HW226307   3.638   9.908   3.148 -0.4325  0.4113 -0.0960
40937SOL     OW26308   5.408   8.040   3.328 -0.0078 -0.3094  1.0197
40937SOL    HW126309   5.461   7.961   3.313  0.5563 -0.0226  1.4757
40937SOL    HW226310   5.360   8.021   3.408 -2.3407 -1.4770 -0.5057
40938SOL     OW26311   4.710   1.460   7.610  0.6931  0.0915  0.6102
40938SOL    HW126312   4.766   1.502   7.545 -0.4616  1.3835  0.3896
40938SOL    HW226313   4.625   1.504   7.601  0.0799 -0.7159  1.9905
40939SOL     OW26314   7.751   0.914   2.719 -0.1908  0.0040  0.1256
40939SOL    HW126315   7.763   0.974   2.792 -0.7151  0.0023  0.2162
40939SOL    HW226316   7.659   0.925   2.693 -0.6250 -1.5291  0.8372
40940SOL     OW26317   1.217  10.755   9.931  0.0083  0.0112 -0.3125
40940SOL    HW126318   1.138  10.734   9.881 -0.3197  0.7159 -0.0963
40940SOL    HW226319   1.286  10.759   9.865  0.0033 -1.2391 -0.4308
40941SOL     OW26320   7.780   9.500   7.979  0.7401 -0.0021 -0.4526
40941SOL    HW126321   7.866   9.508   8.019  0.3658 -0.3123  0.4549
40941SOL    HW226322   7.795   9.512   7.885  1.5653  1.2673 -0.1745
40942SOL     OW26323  10.980   8.473   2.513 -0.0178 -0.1949 -0.3008
40942SOL    HW126324  11.024   8.416   2.576 -1.1847 -0.9442 -0.1309
40942SOL    HW226325  10.984   8.560   2.553 -0.9082 -0.6879  0.9241
40943SOL     OW26326   0.659   6.551   4.409 -0.0906 -0.0908 -0.1379
40943SOL    HW126327   0.712   6.592   4.341 -2.5290  1.4788 -1.2606
40943SOL    HW226328   0.640   6.463   4.377 -0.7304  0.4354 -1.2502
40944SOL     OW26329   9.490   7.467   6.333  0.3247  0.3430 -0.1335
40944SOL    HW126330   9.445   7.469   6.248  1.2942  0.4024 -0.6507
40944SOL    HW226331   9.548   7.542   6.331  0.0800  0.5655  0.7496
40945SOL     OW26332   5.404   9.478   4.928  0.6202  0.8000 -0.7994
40945SOL    HW126333   5.442   9.556   4.967  2.8623 -1.1284  1.2058
40945SOL    HW226334   5.460   9.459   4.853  2.7391 -0.9824  1.0627
40946SOL     OW26335   3.192   1.338   1.619 -0.3018  0.3565 -0.7124
40946SOL    HW126336   3.226   1.402   1.682  0.9825 -1.2669  0.3214
40946SOL    HW226337   3.268   1.286   1.593 -1.5218 -1.7363 -0.3357
40947SOL     OW26338   8.241   6.294   2.030  0.3969  0.1903 -0.0048
40947SOL    HW126339   8.231   6.278   1.936 -1.4018 -0.5917  0.2831
40947SOL    HW226340   8.211   6.213   2.072  1.0683  0.5639  1.2525
40948SOL     OW26341   6.148   2.903   8.998 -0.8983 -0.3521 -0.2245
40948SOL    HW126342   6.225   2.856   8.967 -0.0641  0.5509  0.3998
40948SOL    HW226343   6.180   2.952   9.074 -2.4675 -1.1687  0.9975
40949SOL     OW26344   9.539   6.007   5.617  0.1825 -0.5498 -0.1691
40949SOL    HW126345   9.463   5.981   5.565 -0.3298  0.6812 -0.0688
40949SOL    HW226346   9.503   6.028   5.703  0.5477  0.6134 -0.2935
40950SOL     OW26347   0.653   4.877   7.319 -0.0865  0.2018 -0.2808
40950SOL    HW126348   0.609   4.800   7.282  1.6818 -0.1428 -1.8141
40950SOL    HW226349   0.675   4.851   7.408  1.7006 -1.7097 -1.1634
40951SOL     OW26350  10.245   9.793   6.836 -0.4392  0.0213  0.1351
40951SOL    HW126351  10.161   9.750   6.819 -1.3854  1.5886  0.5776
40951SOL    HW226352  10.289   9.736   6.898 -2.6872  0.7593  2.6162
40952SOL     OW26353   9.993   3.721   4.266  0.0255  0.0849 -0.5311
40952SOL    HW126354   9.947   3.749   4.188 -1.3871 -1.1459 -0.1982
40952SOL    HW226355   9.924   3.688   4.324  0.9594  1.3958  1.4485
40953SOL     OW26356  10.010   7.067   8.170  0.4901 -1.0739  0.1591
40953SOL    HW126357  10.054   6.994   8.212  0.2683 -1.0900  0.3718
40953SOL    HW226358   9.963   7.028   8.096 -0.3593 -1.3065  0.7923
40954SOL     OW26359  10.489   1.150  10.946 -0.0352  0.6989  0.0989
40954SOL    HW126360  10.560   1.214  10.936 -0.3051  1.2491  1.4907
40954SOL    HW226361  10.435   1.185  11.016 -2.3465  0.8630 -1.6690
40955SOL     OW26362  10.225   6.261   8.906  0.0084 -0.2466 -0.0051
40955SOL    HW126363  10.249   6.182   8.955  0.9721 -0.7530 -1.2525
40955SOL    HW226364  10.137   6.243   8.873 -0.7384  0.1768  1.6365
40956SOL     OW26365   7.814   9.092   3.728  0.4253 -0.0959 -0.2294
40956SOL    HW126366   7.849   9.168   3.682  1.0451  0.8270  1.6710
40956SOL    HW226367   7.802   9.122   3.819 -1.3787 -1.6204  0.1090
40957SOL     OW26368   1.090   4.233   7.094  0.4447 -0.4666  0.3253
40957SOL    HW126369   1.028   4.305   7.085 -0.7478 -0.9751  3.4613
40957SOL    HW226370   1.044   4.158   7.056  1.4876  0.1848 -2.4713
40958SOL     OW26371  10.030   3.325   6.007  0.2265  0.6152  0.2737
40958SOL    HW126372  10.020   3.414   6.041  2.0620  1.4492 -1.2189
40958SOL    HW226373  10.032   3.336   5.912 -1.3572 -1.2657 -0.0295
40959SOL     OW26374   7.492   2.205   4.594  0.2684  0.1378 -0.5181
40959SOL    HW126375   7.472   2.159   4.676  0.3655  0.5752 -0.2400
40959SOL    HW226376   7.534   2.139   4.539  1.1176  0.0816  0.1664
40960SOL     OW26377   3.831   9.231   0.255  0.2053 -0.0802  0.2879
40960SOL    HW126378   3.828   9.216   0.349  3.2545  0.3521  0.5488
40960SOL    HW226379   3.769   9.167   0.219 -0.4244 -0.8140  2.5033
40961SOL     OW26380   5.475   0.847   1.108 -0.1809 -0.1741 -0.1595
40961SOL    HW126381   5.462   0.778   1.043 -0.0830  1.7688 -2.3702
40961SOL    HW226382   5.570   0.850   1.121 -0.2925 -1.5431  1.2870
40962SOL     OW26383   8.906   3.660   1.597  0.1744  0.0421 -0.5445
40962SOL    HW126384   8.957   3.692   1.523 -0.9020  2.3115 -0.4087
40962SOL    HW226385   8.939   3.709   1.672 -1.3798  0.7439 -0.2626
40963SOL     OW26386   7.248   5.618  10.637 -0.2458 -0.2162  0.1830
40963SOL    HW126387   7.218   5.611  10.547 -1.1135 -0.9032  0.5132
40963SOL    HW226388   7.197   5.690  10.674 -2.0126 -1.7527  0.9093
40964SOL     OW26389   6.832   2.286   3.140  0.1176 -0.0784 -0.1601
40964SOL    HW126390   6.773   2.357   3.166 -0.5432 -1.3158  1.9351
40964SOL    HW226391   6.902   2.329   3.091 -1.5361  1.6750 -1.1005
40965SOL     OW26392   7.618   4.187   1.004  0.0125 -0.3063 -0.0247
40965SOL    HW126393   7.709   4.199   1.031 -0.3708  2.3937  0.3568
40965SOL    HW226394   7.624   4.162   0.912  1.1500 -0.1205 -0.0181
40966SOL     OW26395   9.318   0.958   7.504  0.6672 -0.4817  0.2462
40966SOL    HW126396   9.310   1.001   7.419  1.2841  0.8948  0.8612
40966SOL    HW226397   9.245   0.896   7.506  2.2973 -2.7682 -2.4946
40967SOL     OW26398   1.295   1.248   3.161 -0.2685 -0.7478 -0.3600
40967SOL    HW126399   1.367   1.202   3.116  0.7460  1.1781 -0.8226
40967SOL    HW226400   1.264   1.311   3.097 -0.4230  0.4097  0.8226
40968SOL     OW26401   3.059   7.433   3.750  0.1635 -0.4195 -0.1979
40968SOL    HW126402   3.008   7.470   3.822 -0.9971  0.4921 -1.4455
40968SOL    HW226403   3.119   7.504   3.725 -0.0184 -0.4354 -0.6742
40969SOL     OW26404   7.072   7.381  10.607 -0.5081  0.6599 -0.0198
40969SOL    HW126405   7.077   7.388  10.512 -0.2425  2.0161  0.0808
40969SOL    HW226406   6.979   7.390  10.627 -0.4851  1.0728 -0.1014
40970SOL     OW26407   4.553   9.293   0.563  0.1351 -0.0627  0.3773
40970SOL    HW126408   4.571   9.325   0.475  1.1568 -1.3202  0.1065
40970SOL    HW226409   4.621   9.332   0.618  1.5969 -1.9355 -0.0130
40971SOL     OW26410  10.949   7.146   9.772 -0.1251 -0.0783 -0.1900
40971SOL    HW126411  11.005   7.127   9.696 -1.1860 -1.7014 -0.6166
40971SOL    HW226412  11.007   7.192   9.832  0.7794  1.1893 -1.9292
40972SOL     OW26413  10.470  10.725   2.893  0.2127 -0.4502  0.5286
40972SOL    HW126414  10.480  10.740   2.799  1.8016 -1.6999  0.4417
40972SOL    HW226415  10.399  10.661   2.899 -1.8193  1.6835  0.4336
40973SOL     OW26416   9.292   5.852   4.950  0.9102  0.5790  0.2375
40973SOL    HW126417   9.315   5.902   5.028  0.2890 -1.8785  2.1485
40973SOL    HW226418   9.218   5.899   4.912  0.2533  1.0497  2.0236
40974SOL     OW26419   2.100   3.288   8.710 -0.0462  0.0650  0.0921
40974SOL    HW126420   2.091   3.325   8.622  0.2247 -0.8235 -0.3144
40974SOL    HW226421   2.160   3.348   8.755  0.0817  0.3331 -0.4291
40975SOL     OW26422   3.057   7.289   6.768  0.3490  0.0100 -0.7560
40975SOL    HW126423   3.105   7.354   6.819 -0.5503  1.1237 -1.2871
40975SOL    HW226424   3.115   7.213   6.767 -0.3876 -0.8785  3.6463
40976SOL     OW26425   4.080  10.836   2.234  0.4994  0.5993  0.4155
40976SOL    HW126426   4.000  10.867   2.277  0.5997  0.0858  0.9944
40976SOL    HW226427   4.148  10.894   2.267  1.0438 -1.3206  3.0711
40977SOL     OW26428   1.224   0.276   2.357 -0.5845  0.2892 -0.1750
40977SOL    HW126429   1.173   0.201   2.387 -1.0527  0.8601  0.4904
40977SOL    HW226430   1.315   0.246   2.363 -0.6062  0.4709  2.2174
40978SOL     OW26431   7.306   9.548   2.217 -0.2499  0.0200 -0.0366
40978SOL    HW126432   7.374   9.489   2.249  0.4586  0.8395  0.0200
40978SOL    HW226433   7.342   9.585   2.136 -0.0518  1.4257  0.6508
40979SOL     OW26434  10.809   6.088   0.236  0.2892  0.4495 -0.0777
40979SOL    HW126435  10.734   6.039   0.270  0.5476  0.5944  0.7364
40979SOL    HW226436  10.823   6.157   0.301 -0.0622  1.6070 -1.1925
40980SOL     OW26437   5.410   5.637   9.426  0.2140  1.1492  0.1995
40980SOL    HW126438   5.474   5.647   9.497 -0.3705  0.9927  0.7641
40980SOL    HW226439   5.403   5.543   9.413  1.0610  1.2112 -0.7665
40981SOL     OW26440   0.125   1.063   2.044  0.4145 -0.2223 -0.0547
40981SOL    HW126441   0.139   0.979   2.087 -0.0043 -0.0261  0.4759
40981SOL    HW226442   0.208   1.082   2.000  2.1512  1.1977  3.4540
40982SOL     OW26443   2.960   9.826   3.653 -0.4405 -0.0035  0.1775
40982SOL    HW126444   2.924   9.737   3.657 -1.1361  0.1897 -1.1405
40982SOL    HW226445   3.055   9.813   3.646 -0.5695 -0.6738 -0.4558
40983SOL     OW26446   1.692   4.301   5.589 -0.0507 -0.6563  0.2278
40983SOL    HW126447   1.627   4.370   5.603 -0.1740 -0.8873  0.7966
40983SOL    HW226448   1.691   4.287   5.494 -0.6517 -0.4883  0.2052
40984SOL     OW26449   7.186   2.271  10.728  0.3133 -0.6046 -0.9861
40984SOL    HW126450   7.174   2.338  10.795  0.2356 -1.5428 -0.0312
40984SOL    HW226451   7.224   2.196  10.775 -1.8213 -2.1089 -1.4817
40985SOL     OW26452   5.153   7.153   2.276  0.1329 -1.0213  0.3094
40985SOL    HW126453   5.189   7.086   2.334  0.4652 -1.5720 -0.5023
40985SOL    HW226454   5.226   7.214   2.261  0.9098 -2.2985 -1.5736
40986SOL     OW26455   8.411   4.683   3.316 -0.1239 -0.2616 -0.0494
40986SOL    HW126456   8.484   4.696   3.255  0.9124  1.6884  1.5147
40986SOL    HW226457   8.334   4.679   3.260  0.6794  2.3404 -1.4905
40987SOL     OW26458   1.278   9.488   5.220 -0.3672 -0.0030 -0.3264
40987SOL    HW126459   1.352   9.549   5.222 -0.9206  0.6741  1.1961
40987SOL    HW226460   1.314   9.406   5.254  0.6267 -0.9308 -3.2765
40988SOL     OW26461  10.906   4.326   5.266 -0.0272 -0.4645  0.2765
40988SOL    HW126462  10.898   4.255   5.329 -0.1536 -0.9833 -0.3084
40988SOL    HW226463  10.935   4.283   5.185  0.6202  0.2586  0.1197
40989SOL     OW26464   6.816   8.389   8.699 -0.1699  0.5233 -0.3564
40989SOL    HW126465   6.898   8.392   8.650 -0.5810  1.2893 -1.0040
40989SOL    HW226466   6.843   8.398   8.791  0.5058  0.2482 -0.5215
40990SOL     OW26467   2.742   9.679   6.457  0.0056  0.1101 -0.8127
40990SOL    HW126468   2.670   9.678   6.394 -0.0797 -2.0546 -0.7723
40990SOL    HW226469   2.715   9.616   6.525  1.5104 -0.0483 -0.3190
40991SOL     OW26470   9.011   3.120   3.615 -0.1078 -0.6076  0.2365
40991SOL    HW126471   8.975   3.055   3.676  1.2035 -0.8897  0.7544
40991SOL    HW226472   9.068   3.069   3.557  0.9076  0.0546  0.6249
40992SOL     OW26473   9.751  10.229   6.234  0.0509 -0.2425 -0.3879
40992SOL    HW126474   9.717  10.166   6.170 -0.6993 -0.1618 -0.0773
40992SOL    HW226475   9.703  10.310   6.216 -2.5925 -1.0157  2.2725
40993SOL     OW26476   4.792   8.708   5.684  0.3057  0.3654 -0.4412
40993SOL    HW126477   4.712   8.752   5.656 -0.4061 -1.0554 -0.7697
40993SOL    HW226478   4.807   8.640   5.617  0.7313 -0.5892  0.5849
40994SOL     OW26479   9.669   5.352   7.019 -0.0092 -0.2813 -0.3101
40994SOL    HW126480   9.622   5.417   7.071 -0.0540 -0.9083  0.4549
40994SOL    HW226481   9.710   5.402   6.949  0.4355  0.6564  0.5924
40995SOL     OW26482   3.200   2.395   9.241  0.3990 -0.6720 -0.7744
40995SOL    HW126483   3.251   2.453   9.184  1.2855 -0.0973  0.5348
40995SOL    HW226484   3.112   2.394   9.203  0.7338  0.4289 -1.6142
40996SOL     OW26485   6.385   3.508   0.602  0.0642  0.1539 -0.7619
40996SOL    HW126486   6.321   3.460   0.551  2.2165  0.4850 -4.0568
40996SOL    HW226487   6.435   3.559   0.538  4.0508 -0.6184  1.3747
40997SOL     OW26488   6.140   9.305   0.912 -0.1200  0.5937 -0.3292
40997SOL    HW126489   6.091   9.251   0.974 -0.7991  0.1722 -1.2107
40997SOL    HW226490   6.078   9.372   0.885  0.3564  1.1245 -0.1202
40998SOL     OW26491   9.073   4.557   4.349  0.6593  0.4175 -0.5232
40998SOL    HW126492   9.013   4.523   4.416  1.5656 -0.0044  0.1001
40998SOL    HW226493   9.061   4.498   4.274  1.5074 -0.7376  0.2044
40999SOL     OW26494   2.044   6.136   5.678 -0.5126  0.5235 -0.0051
40999SOL    HW126495   2.034   6.053   5.631 -0.8799  0.0377  0.9112
40999SOL    HW226496   2.096   6.190   5.619  0.4032 -0.6303 -0.3024
41000SOL     OW26497   7.746  10.487   8.457 -0.0287  0.3448  0.2836
41000SOL    HW126498   7.825  10.482   8.510 -1.1925 -2.0285  2.0054
41000SOL    HW226499   7.747  10.406   8.405 -2.1288 -0.6819  1.6956
41001SOL     OW26500   5.332   3.374   0.386  0.6575  0.4356 -0.3207
41001SOL    HW126501   5.398   3.342   0.447  0.7308 -0.5269 -0.8799
41001SOL    HW226502   5.320   3.302   0.324  0.9227  1.5500 -1.7207
41002SOL     OW26503   8.474  10.927   2.857  0.3519 -0.0143  0.6601
41002SOL    HW126504   8.450  10.835   2.841 -0.6767  0.3133  0.2391
41002SOL    HW226505   8.401  10.962   2.907 -0.0443  1.0056 -0.6045
41003SOL     OW26506   0.711   6.922   7.115  0.8739 -0.0811  0.0476
41003SOL    HW126507   0.736   6.924   7.207 -0.0860 -1.9033  0.4036
41003SOL    HW226508   0.775   6.863   7.074  0.0942 -0.9257 -0.0004
41004SOL     OW26509   0.909  10.086   7.180 -0.0207  0.1340  0.2229
41004SOL    HW126510   0.981  10.032   7.211 -0.1139  0.0197  0.2413
41004SOL    HW226511   0.938  10.118   7.095 -0.2840 -0.5785 -0.1429
41005SOL     OW26512   0.732   3.859   8.826 -0.5083  0.4469 -0.2778
41005SOL    HW126513   0.801   3.801   8.793 -0.8235  0.3226 -0.7351
41005SOL    HW226514   0.778   3.938   8.854 -0.1474  0.2441 -0.2985
41006SOL     OW26515   1.448   4.311   6.314 -0.2829 -0.2667  0.4400
41006SOL    HW126516   1.476   4.388   6.266  1.3808 -0.3545  1.1866
41006SOL    HW226517   1.473   4.328   6.405 -0.4200 -1.4176  0.7201
41007SOL     OW26518   0.782   1.346   6.749 -0.2265  0.3106  0.1821
41007SOL    HW126519   0.805   1.258   6.781  0.0630 -0.0118 -0.8821
41007SOL    HW226520   0.712   1.331   6.686  0.3828  0.7665 -0.6122
41008SOL     OW26521   9.308   4.992   1.896  0.4921 -0.4264  0.5171
41008SOL    HW126522   9.276   5.040   1.819 -0.8686  0.9109  1.8546
41008SOL    HW226523   9.400   5.017   1.903  0.4433 -0.0003 -0.2391
41009SOL     OW26524   4.016   6.738   8.540 -0.1433 -0.4400  0.8716
41009SOL    HW126525   4.012   6.715   8.448 -0.1977 -0.1255  0.7939
41009SOL    HW226526   3.941   6.694   8.580 -0.4217 -0.1496  0.6703
41010SOL     OW26527   8.906   2.173   3.050  0.2550  0.2375  0.0879
41010SOL    HW126528   8.851   2.234   3.100 -0.1071  1.0762 -1.2805
41010SOL    HW226529   8.971   2.143   3.113 -0.8226  0.4328  1.3412
41011SOL     OW26530   1.655   5.316   0.647  0.3152 -0.5437  0.3550
41011SOL    HW126531   1.561   5.313   0.665  0.4296  1.2539  1.4662
41011SOL    HW226532   1.661   5.354   0.560  0.0277 -0.5874  0.3125
41012SOL     OW26533   1.684   1.106   4.717  0.1110 -0.3301  0.0739
41012SOL    HW126534   1.759   1.071   4.669  0.0253 -1.0615  0.4607
41012SOL    HW226535   1.658   1.184   4.667  0.7284 -0.4319 -0.4186
41013SOL     OW26536   8.781   1.674   2.622 -0.2160  0.5980  0.3654
41013SOL    HW126537   8.828   1.753   2.594 -1.4702  1.5669  0.8790
41013SOL    HW226538   8.821   1.651   2.706  1.5793 -0.6001 -0.7413
41014SOL     OW26539   8.376   3.049   8.294 -0.0006  0.9480  0.0562
41014SOL    HW126540   8.359   3.070   8.202  0.4381 -1.1496 -0.5622
41014SOL    HW226541   8.310   3.098   8.342 -1.3820  0.7214 -1.5177
41015SOL     OW26542   4.254   7.118  10.497 -0.3536  0.0002 -0.0530
41015SOL    HW126543   4.297   7.191  10.452 -0.9146  0.2054 -0.2673
41015SOL    HW226544   4.184   7.091  10.437 -0.0535 -0.8142 -0.0384
41016SOL     OW26545   4.271   2.923   4.734  0.0627 -0.3031  0.2313
41016SOL    HW126546   4.181   2.890   4.733  0.0313 -0.2172  0.0599
41016SOL    HW226547   4.275   2.982   4.658  0.8194 -1.8077 -0.9521
41017SOL     OW26548   9.195   9.955   3.109 -1.0057  0.6305 -0.1555
41017SOL    HW126549   9.220   9.882   3.053 -0.0091  1.2368 -0.5305
41017SOL    HW226550   9.181   9.915   3.195  0.6917  0.1329 -0.0632
41018SOL     OW26551   0.236   5.736   1.061  0.1495 -0.6253  0.0057
41018SOL    HW126552   0.157   5.751   1.009  0.5791  0.7837 -0.2822
41018SOL    HW226553   0.305   5.724   0.995  0.0983 -2.5375  0.2410
41019SOL     OW26554   2.315   2.716   9.195 -0.5374  0.1332 -0.0416
41019SOL    HW126555   2.377   2.666   9.141 -1.2628 -0.1941 -0.5991
41019SOL    HW226556   2.345   2.702   9.285 -0.4721 -0.9775 -0.2186
41020SOL     OW26557   0.215   0.419   4.633  0.5155 -0.5633  0.2377
41020SOL    HW126558   0.287   0.413   4.570 -0.9672 -1.1257 -1.4672
41020SOL    HW226559   0.186   0.329   4.646  0.1197 -0.3471  0.9213
41021SOL     OW26560   9.736   8.814   8.320 -0.5546  0.0727 -0.0795
41021SOL    HW126561   9.783   8.854   8.393 -1.2593 -0.5365  0.7197
41021SOL    HW226562   9.799   8.753   8.281  0.0369  0.8680 -0.4039
41022SOL     OW26563   9.986   1.974   6.554  0.3097  0.5270  0.3184
41022SOL    HW126564  10.006   1.880   6.550  1.1823  0.7225 -0.5561
41022SOL    HW226565   9.930   1.989   6.477  0.7477  0.8446  0.0610
41023SOL     OW26566   9.480   6.808   7.102 -0.1365 -0.7973  0.0341
41023SOL    HW126567   9.419   6.854   7.160 -2.9963  0.3416 -3.4882
41023SOL    HW226568   9.542   6.875   7.074 -1.2018 -0.2518 -1.1562
41024SOL     OW26569   9.327   3.372   4.121 -0.0414 -0.2732 -0.2856
41024SOL    HW126570   9.278   3.407   4.195 -1.0631 -0.1275 -1.0096
41024SOL    HW226571   9.410   3.344   4.158 -1.1171 -1.6421  1.2215
41025SOL     OW26572   9.726   1.483  10.515 -0.3305 -0.4593 -0.2951
41025SOL    HW126573   9.789   1.511  10.582 -0.1657 -0.3964 -0.4775
41025SOL    HW226574   9.674   1.415  10.559 -0.5318 -0.0901  0.0468
41026SOL     OW26575   9.118   6.254   3.864  0.2986 -0.3143 -0.0767
41026SOL    HW126576   9.139   6.195   3.792  0.1805  1.5982 -1.7355
41026SOL    HW226577   9.024   6.271   3.855  0.4280  0.5037  0.0884
41027SOL     OW26578  11.005   3.287   4.936  0.2296  0.4146  0.1086
41027SOL    HW126579  10.982   3.330   5.017  0.0178 -0.9807  0.8153
41027SOL    HW226580  11.098   3.309   4.923  0.4656  0.0616  1.1150
41028SOL     OW26581   2.506   6.493   4.694  0.6750 -0.6419  0.5375
41028SOL    HW126582   2.453   6.466   4.769 -1.1176  1.2971  0.0589
41028SOL    HW226583   2.586   6.441   4.701  0.0407 -1.3979  3.0839
41029SOL     OW26584   7.335   3.129   3.000 -0.2903 -0.0684  0.5953
41029SOL    HW126585   7.340   3.151   2.907 -0.0148 -1.1228  0.3450
41029SOL    HW226586   7.426   3.116   3.026 -0.4266 -0.8199  0.7328
41030SOL     OW26587   4.951   7.333   2.181  0.1205  0.1865 -0.1816
41030SOL    HW126588   5.029   7.366   2.136  0.2671  0.3202  0.1662
41030SOL    HW226589   4.893   7.409   2.188 -0.3727 -0.0841 -1.1196
41031SOL     OW26590   3.246   7.132   5.625 -0.2092  0.2826 -0.1305
41031SOL    HW126591   3.335   7.160   5.604 -0.1517 -0.8197 -1.4915
41031SOL    HW226592   3.253   7.097   5.714  1.1603 -1.3769 -0.8104
41032SOL     OW26593   3.203   4.402   8.625 -0.4052 -0.2559  0.9794
41032SOL    HW126594   3.219   4.464   8.696 -0.6083  3.3229 -1.8167
41032SOL    HW226595   3.140   4.446   8.568 -0.2816 -2.9184 -1.4624
41033SOL     OW26596   8.799   7.999   5.136 -0.4166  0.8062 -0.0973
41033SOL    HW126597   8.716   8.048   5.134 -0.3166  0.9667 -0.6888
41033SOL    HW226598   8.848   8.037   5.209 -0.8264  0.7783  0.1926
41034SOL     OW26599   7.259   6.700   9.639 -0.1818 -0.3499 -0.0020
41034SOL    HW126600   7.223   6.618   9.673  0.8335 -1.5345 -1.6447
41034SOL    HW226601   7.228   6.704   9.548  1.3880  0.0658 -0.5515
41035SOL     OW26602   8.709   2.473   9.220 -0.3089 -0.6341 -0.0473
41035SOL    HW126603   8.676   2.411   9.285 -0.9423 -0.1795  0.0741
41035SOL    HW226604   8.641   2.540   9.214 -0.1704 -0.5658 -1.0351
41036SOL     OW26605   9.786   1.923   8.108 -0.2766 -0.1327 -0.2947
41036SOL    HW126606   9.767   1.855   8.173 -1.6747 -0.1901 -0.7170
41036SOL    HW226607   9.820   1.875   8.033 -1.2096 -0.3867 -0.5730
41037SOL     OW26608   0.593   6.615  10.141 -0.0492  0.0601 -0.2896
41037SOL    HW126609   0.651   6.657  10.078 -2.2756  0.1021 -2.4222
41037SOL    HW226610   0.640   6.623  10.224  2.7192  0.5634 -1.7733
41038SOL     OW26611   4.759   2.132   1.422 -0.3327 -0.5377  0.7113
41038SOL    HW126612   4.852   2.119   1.404 -0.6248  0.0726 -1.4354
41038SOL    HW226613   4.729   2.047   1.453  0.3647 -1.6128 -1.3657
41039SOL     OW26614   1.887   5.032   1.348 -0.3098  0.2986 -0.9915
41039SOL    HW126615   1.918   5.004   1.435 -3.8508  0.4103  0.4799
41039SOL    HW226616   1.939   4.979   1.287  1.8467 -0.3110  1.1694
41040SOL     OW26617   3.112   1.993   0.441  0.3151 -0.0940  0.6244
41040SOL    HW126618   3.108   2.071   0.495  0.4497  0.4024 -0.0753
41040SOL    HW226619   3.022   1.981   0.410  0.2406 -0.3710  0.9359
41041SOL     OW26620   0.576   8.060   7.933  0.2049  0.2137 -0.5399
41041SOL    HW126621   0.491   8.069   7.891 -0.8655 -1.3824  1.0835
41041SOL    HW226622   0.566   7.983   7.990  2.2771  0.8385  0.7857
41042SOL     OW26623  10.130   2.542  10.282 -0.1047  0.5279  0.3461
41042SOL    HW126624  10.201   2.519  10.343 -0.1077 -0.6156 -0.0500
41042SOL    HW226625  10.138   2.479  10.211 -0.8729  1.0596 -0.2348
41043SOL     OW26626   9.845   2.192   3.658 -0.4491 -0.3255  0.2128
41043SOL    HW126627   9.814   2.257   3.595 -0.1197  1.9467  2.2645
41043SOL    HW226628   9.842   2.236   3.743 -0.5780 -3.1455  1.8215
41044SOL     OW26629   0.536  10.435   5.487  0.8895 -0.7265  0.4627
41044SOL    HW126630   0.603  10.367   5.476 -0.1297 -1.7427  0.3181
41044SOL    HW226631   0.469  10.394   5.543  0.0105 -0.0354 -0.0563
41045SOL     OW26632   7.368   4.464   7.412  0.0941  0.0924 -0.4149
41045SOL    HW126633   7.376   4.555   7.384  1.5899  0.0752 -0.0958
41045SOL    HW226634   7.323   4.420   7.340 -0.9254  1.1279 -0.4370
41046SOL     OW26635   7.188   6.428   6.985  0.0062  1.2877  0.2397
41046SOL    HW126636   7.198   6.387   6.899  0.6783  0.6768  0.6085
41046SOL    HW226637   7.168   6.520   6.965 -0.5605  0.9983 -0.5738
41047SOL     OW26638   3.696   3.029   7.711  0.5011  0.0671 -0.2074
41047SOL    HW126639   3.709   3.052   7.803 -0.3149 -1.1711  0.2460
41047SOL    HW226640   3.674   2.936   7.713 -0.6930  0.2931 -1.5523
41048SOL     OW26641   5.580   2.923   1.957  0.0410 -0.0201 -0.1346
41048SOL    HW126642   5.633   2.899   2.033  1.0279  0.9323 -0.4892
41048SOL    HW226643   5.490   2.912   1.986  0.3880 -2.5104  0.2207
41049SOL     OW26644   3.802  10.987   7.876 -0.5482 -0.3338  0.0060
41049SOL    HW126645   3.718  10.975   7.831 -1.3745  0.2565  1.3131
41049SOL    HW226646   3.868  10.971   7.809 -1.7087 -0.5159 -1.1350
41050SOL     OW26647   4.445   8.581   7.997 -0.1260 -0.0243  0.2407
41050SOL    HW126648   4.535   8.595   8.027 -0.5092  2.9049  0.3337
41050SOL    HW226649   4.426   8.657   7.943 -1.5773 -2.1055 -2.4142
41051SOL     OW26650   9.717   9.481   5.070  0.4732  0.6767 -0.3460
41051SOL    HW126651   9.755   9.488   4.983  1.6114  0.6001  0.1219
41051SOL    HW226652   9.781   9.430   5.120 -0.6160 -0.1244  0.2871
41052SOL     OW26653   0.669   2.671   0.367  0.5601  0.2300 -0.2805
41052SOL    HW126654   0.594   2.675   0.427 -0.4829 -0.9057 -1.4403
41052SOL    HW226655   0.745   2.674   0.424 -0.3392  1.5639  0.9365
41053SOL     OW26656   5.974   5.077   4.306  0.5238 -0.0220  0.5462
41053SOL    HW126657   5.968   5.008   4.239 -1.7903 -0.9094  1.5492
41053SOL    HW226658   5.971   5.159   4.257 -0.5218 -0.6568 -0.5090
41054SOL     OW26659   7.536  10.587   4.036  0.9713 -0.7265 -0.3146
41054SOL    HW126660   7.554  10.501   3.998  0.5553 -0.8905 -0.1501
41054SOL    HW226661   7.441  10.593   4.038  0.9694 -0.7845  0.8116
41055SOL     OW26662   2.142   6.281   8.121 -0.2850 -0.0463  0.1335
41055SOL    HW126663   2.186   6.222   8.182 -0.6786 -0.8095 -0.3081
41055SOL    HW226664   2.212   6.338   8.088  0.3214 -1.0410 -0.3259
41056SOL     OW26665  10.003   8.528   4.852  0.0216 -0.7220  0.2970
41056SOL    HW126666  10.007   8.463   4.782  0.1850 -2.8126  2.1287
41056SOL    HW226667  10.017   8.478   4.932  0.2290  1.6135  1.8320
41057SOL     OW26668   6.723   5.047  10.726 -0.7594 -0.1682 -1.1689
41057SOL    HW126669   6.764   5.042  10.813 -0.7868  1.8205 -0.9959
41057SOL    HW226670   6.630   5.040  10.744 -0.7655  0.2420 -1.0245
41058SOL     OW26671  10.619   3.123   4.466  0.1613  0.3548 -0.0212
41058SOL    HW126672  10.541   3.067   4.469  0.8751 -0.6291  0.4319
41058SOL    HW226673  10.590   3.202   4.420 -1.6172  0.7789  1.6669
41059SOL     OW26674   8.734   1.730   9.877  0.6906  0.5299  0.0087
41059SOL    HW126675   8.804   1.717   9.941  0.4770  0.5019  0.2373
41059SOL    HW226676   8.654   1.736   9.930  0.4216 -0.2321 -0.2986
41060SOL     OW26677  10.158   3.171   5.359 -0.1960  0.5740  0.2106
41060SOL    HW126678  10.187   3.140   5.273  1.7819  0.0938  1.0016
41060SOL    HW226679  10.190   3.261   5.365  0.6532  0.2452  0.8513
41061SOL     OW26680   7.787   7.877  10.886  0.2696  0.5457 -0.1221
41061SOL    HW126681   7.695   7.865  10.863 -0.4548 -0.1649  2.8116
41061SOL    HW226682   7.786   7.941  10.957  2.1518  1.1986 -0.6219
41062SOL     OW26683   0.914   7.103   9.365 -0.5944  0.4649  0.4723
41062SOL    HW126684   0.970   7.070   9.436  1.0939  1.9629 -0.0811
41062SOL    HW226685   0.825   7.088   9.396  0.0957 -0.3595  2.2105
41063SOL     OW26686   3.064   2.712  10.836 -0.3904 -0.4521 -0.1303
41063SOL    HW126687   3.007   2.747  10.904  0.9858  1.6804  0.0498
41063SOL    HW226688   3.081   2.787  10.779  0.0374 -1.7148 -1.7437
41064SOL     OW26689   5.356   5.707   6.936  0.1314  0.0863  0.5500
41064SOL    HW126690   5.274   5.658   6.948  0.7731 -1.1724 -0.0581
41064SOL    HW226691   5.342   5.788   6.985 -1.1844 -0.4432  1.1112
41065SOL     OW26692   7.255   9.289   1.266  0.0203 -0.0695 -0.1634
41065SOL    HW126693   7.266   9.223   1.334 -2.5696 -0.2072  0.1949
41065SOL    HW226694   7.195   9.353   1.304  0.4819  1.1593 -1.4368
41066SOL     OW26695   3.152   8.833   6.033 -0.2769  0.0943 -0.1494
41066SOL    HW126696   3.214   8.864   6.099  0.3873 -1.6543  0.1054
41066SOL    HW226697   3.187   8.863   5.950 -0.7278  1.6826  0.1944
41067SOL     OW26698   9.751   3.523   0.403 -0.5156 -0.4490  0.1161
41067SOL    HW126699   9.679   3.575   0.439  0.2462  2.3837 -2.0804
41067SOL    HW226700   9.812   3.513   0.476 -1.7287 -0.2244  1.1959
41068SOL     OW26701   0.693   5.976   0.652 -0.1081  0.5365 -0.9320
41068SOL    HW126702   0.739   5.913   0.597 -0.9426  1.4817 -2.8086
41068SOL    HW226703   0.601   5.951   0.645 -0.2098  0.5243  0.2768
41069SOL     OW26704   7.767  10.820   9.798 -0.0304 -0.7526  0.3543
41069SOL    HW126705   7.775  10.905   9.756 -0.0331  0.3117  2.3918
41069SOL    HW226706   7.857  10.790   9.811 -0.0220 -0.9231 -0.0934
41070SOL     OW26707   3.408   0.984   9.604 -0.1033 -0.0338  0.0589
41070SOL    HW126708   3.479   0.934   9.645 -0.2506 -0.6211 -0.3897
41070SOL    HW226709   3.450   1.030   9.532 -0.2998 -0.9434 -0.6515
41071SOL     OW26710   1.456   1.577   0.992  0.0979 -0.0761 -0.0595
41071SOL    HW126711   1.475   1.620   0.909 -2.0743  0.2906 -0.4454
41071SOL    HW226712   1.485   1.639   1.059  2.5284 -0.6790 -0.4703
41072SOL     OW26713   5.921  10.147   2.512 -0.5204  0.2182  0.4798
41072SOL    HW126714   5.876  10.133   2.429 -0.9095 -0.4956  0.8024
41072SOL    HW226715   5.854  10.182   2.571 -0.6287 -0.6750  0.9078
41073SOL     OW26716   7.177   9.089   8.561  0.2817  0.1122 -0.0743
41073SOL    HW126717   7.212   9.019   8.616  0.8435  0.9741  0.6951
41073SOL    HW226718   7.086   9.065   8.547  0.5182 -0.8762  0.0026
41074SOL     OW26719   3.884   5.593   1.811 -0.1364  0.4826 -0.1627
41074SOL    HW126720   3.812   5.610   1.750  1.3510  2.1706 -1.5494
41074SOL    HW226721   3.873   5.501   1.835 -2.5393  0.5930 -0.5819
41075SOL     OW26722   5.920   3.459   4.794 -0.1104  0.0670  0.7847
41075SOL    HW126723   5.853   3.443   4.728 -0.7736  0.9888  1.2150
41075SOL    HW226724   5.887   3.534   4.844  2.1734  1.9640 -0.3302
41076SOL     OW26725   1.279   6.582   0.317 -0.8123  0.6776 -0.3754
41076SOL    HW126726   1.277   6.676   0.334  0.4394  0.7072 -0.3068
41076SOL    HW226727   1.188   6.560   0.297 -1.2398  1.7769  0.2311
41077SOL     OW26728  10.858   4.770   3.796 -0.0320 -0.0294  0.7152
41077SOL    HW126729  10.930   4.727   3.843 -0.8564 -1.3077  0.8548
41077SOL    HW226730  10.875   4.863   3.806  1.3326 -0.3010  1.1715
41078SOL     OW26731   4.083   7.335   9.827  0.6600 -0.6111  0.3466
41078SOL    HW126732   4.044   7.298   9.749 -0.0313  0.8360 -0.0313
41078SOL    HW226733   4.009   7.353   9.885  1.0540 -0.6241  0.8615
41079SOL     OW26734  10.539   5.838   0.896  0.2553 -0.1318 -0.1636
41079SOL    HW126735  10.609   5.904   0.897  0.9970 -0.8854 -0.6792
41079SOL    HW226736  10.479   5.867   0.827  0.3401  0.2450 -0.0806
41080SOL     OW26737   8.087   4.660   6.078  0.1883  0.7469  0.5266
41080SOL    HW126738   8.167   4.662   6.025  1.4465 -0.9091  2.2278
41080SOL    HW226739   8.016   4.671   6.014  1.6594 -0.1043 -1.3808
41081SOL     OW26740   7.419   5.304   8.422 -0.0068  0.3003 -0.6392
41081SOL    HW126741   7.323   5.304   8.420 -0.0424  2.2029 -0.8860
41081SOL    HW226742   7.444   5.309   8.330  0.3350 -0.2292 -0.5762
41082SOL     OW26743   2.259   7.860   1.894  0.6370  0.4230 -0.2226
41082SOL    HW126744   2.311   7.798   1.945 -0.1963  1.5243  2.1058
41082SOL    HW226745   2.304   7.866   1.810  1.5968 -2.1227  0.0192
41083SOL     OW26746   2.351   9.595   1.375 -0.0801  0.3387 -0.2449
41083SOL    HW126747   2.281   9.557   1.428 -1.3703  2.1842 -0.5509
41083SOL    HW226748   2.416   9.623   1.440  0.0349 -0.6600  0.0933
41084SOL     OW26749   7.236   6.976   9.223  0.0514 -0.4169  0.1472
41084SOL    HW126750   7.209   7.029   9.148  1.0854 -0.5258 -0.3237
41084SOL    HW226751   7.332   6.981   9.222  0.0823 -0.2877  1.5614
41085SOL     OW26752   4.037   7.806   5.369 -0.2635  0.5726 -0.4039
41085SOL    HW126753   4.015   7.897   5.388 -0.6049  0.5337 -0.6004
41085SOL    HW226754   4.061   7.769   5.453  2.7755  1.6107 -0.6965
41086SOL     OW26755  10.202   5.570   9.129  0.6332  0.5311  0.0720
41086SOL    HW126756  10.195   5.634   9.200  2.0458  1.4336 -0.5533
41086SOL    HW226757  10.277   5.516   9.153 -1.2986 -1.8224  1.2494
41087SOL     OW26758   6.368  10.993   0.357 -0.6804  0.8297 -0.0405
41087SOL    HW126759   6.434  11.059   0.335 -0.7094  1.2585  1.1250
41087SOL    HW226760   6.379  10.978   0.451 -1.3467 -0.0953 -0.0984
41088SOL     OW26761   2.151   9.768   3.533  0.0896 -0.0650  0.5597
41088SOL    HW126762   2.218   9.713   3.574  0.9854  0.8041  0.2953
41088SOL    HW226763   2.199   9.843   3.498 -1.1322  0.9991  1.0698
41089SOL     OW26764   3.612   6.610   6.258  0.1251  0.4607 -0.2303
41089SOL    HW126765   3.517   6.622   6.255  0.3017  1.7573 -1.8117
41089SOL    HW226766   3.636   6.586   6.169  1.2949  0.2435  0.1333
41090SOL     OW26767   1.131   7.752   3.520 -0.4559 -0.4328  0.0572
41090SOL    HW126768   1.089   7.828   3.561 -1.3941  0.1138 -1.8180
41090SOL    HW226769   1.073   7.679   3.540 -0.6385 -0.2725  0.1184
41091SOL     OW26770   1.531   4.842   0.645 -0.1285  0.6330 -0.7321
41091SOL    HW126771   1.565   4.930   0.660  0.7617 -0.0039  1.3666
41091SOL    HW226772   1.609   4.787   0.637 -0.6696  0.0226 -2.1057
41092SOL     OW26773   8.016  10.022   5.733 -0.2995  0.0832  0.7403
41092SOL    HW126774   7.949  10.044   5.797 -1.4411 -0.3135 -0.2926
41092SOL    HW226775   8.084   9.977   5.784 -0.5686  0.9333  1.8792
41093SOL     OW26776  10.079  10.336   0.009 -0.4301 -0.3502  1.5774
41093SOL    HW126777  10.097  10.272   0.078  1.2380 -0.5179  1.0186
41093SOL    HW226778  10.146  10.404   0.021 -0.5648 -0.0280  0.5570
41094SOL     OW26779   0.040   3.419   1.192 -0.1772 -0.0607 -0.0951
41094SOL    HW126780   0.001   3.460   1.115 -0.2955 -1.8613 -1.0574
41094SOL    HW226781   0.132   3.408   1.168  0.2819  1.3461  0.9246
41095SOL     OW26782   2.174   5.739   2.828 -0.2600  0.0157  0.2671
41095SOL    HW126783   2.232   5.663   2.831 -0.9993 -0.6880 -1.6781
41095SOL    HW226784   2.103   5.717   2.889 -0.0076 -0.4503  0.3943
41096SOL     OW26785   6.758   3.503   3.772 -0.4220  0.1116  0.4663
41096SOL    HW126786   6.714   3.588   3.769  0.3954  0.5469  0.4716
41096SOL    HW226787   6.808   3.505   3.854 -0.8176 -0.5927  0.7322
41097SOL     OW26788   8.186  10.401   6.989  0.4464 -0.1088  0.5482
41097SOL    HW126789   8.120  10.352   7.038  0.4135 -1.0873 -0.4602
41097SOL    HW226790   8.257  10.338   6.974  1.6303  0.9178  1.5967
41098SOL     OW26791   0.099   9.409   4.671  0.1721  0.2708 -0.4361
41098SOL    HW126792   0.004   9.394   4.673  0.6578 -4.2397  0.1590
41098SOL    HW226793   0.122   9.426   4.762  0.1649 -1.3270 -0.1115
41099SOL     OW26794   5.425   3.585   1.058 -0.0728 -0.4449  0.0598
41099SOL    HW126795   5.483   3.637   1.003  0.3690 -1.6458 -0.6655
41099SOL    HW226796   5.366   3.542   0.995 -1.9195  0.9201  0.7920
41100SOL     OW26797   9.396  10.570   2.292  0.3689 -0.7780 -0.3734
41100SOL    HW126798   9.308  10.542   2.266  0.3639 -0.8289 -0.3026
41100SOL    HW226799   9.454  10.532   2.226  0.3096 -0.5054 -0.5850
41101SOL     OW26800   3.099   5.246   8.334 -0.3531  0.0733  0.3381
41101SOL    HW126801   3.065   5.167   8.376  0.4750 -0.5427 -0.1215
41101SOL    HW226802   3.095   5.313   8.402 -2.9855  0.2047  0.1627
41102SOL     OW26803   8.879   2.490  10.498 -0.0143  0.2827  0.2866
41102SOL    HW126804   8.817   2.495  10.426 -2.2440  0.7550  2.1241
41102SOL    HW226805   8.941   2.561  10.482 -1.3708  1.3477 -0.3618
41103SOL     OW26806   9.347   6.326   1.833  0.3347 -0.3131 -0.2350
41103SOL    HW126807   9.406   6.350   1.904 -0.3951  0.0295  0.2640
41103SOL    HW226808   9.388   6.249   1.793 -0.3325 -1.9242  1.9678
41104SOL     OW26809   8.884   8.054   7.300 -0.0130  0.4755 -0.1713
41104SOL    HW126810   8.840   7.969   7.309  0.8455 -0.3028 -2.4724
41104SOL    HW226811   8.813   8.115   7.280 -0.4859  0.0543  0.1689
41105SOL     OW26812   5.376   0.899   1.364  0.2801  0.2356 -0.6570
41105SOL    HW126813   5.382   0.858   1.277 -1.2590 -4.9343  1.2951
41105SOL    HW226814   5.462   0.883   1.404 -0.0732 -0.4739 -0.1565
41106SOL     OW26815   2.093   7.813   3.040  0.5143 -0.2335  0.1873
41106SOL    HW126816   2.056   7.744   3.094  1.2720 -1.4026 -0.7313
41106SOL    HW226817   2.051   7.801   2.954  0.8258  0.3064 -0.0457
41107SOL     OW26818  10.926   7.827   8.374 -0.0748  0.2063 -0.0867
41107SOL    HW126819  10.973   7.798   8.452 -0.6171 -0.2013  0.0986
41107SOL    HW226820  10.907   7.746   8.327 -0.3250  0.3926 -0.3066
41108SOL     OW26821   6.005   1.536   0.901  0.6873  0.3532  0.1993
41108SOL    HW126822   6.041   1.602   0.960  0.1183  1.1945 -0.3618
41108SOL    HW226823   6.002   1.581   0.816  0.7615 -0.5726 -0.3000
41109SOL     OW26824   7.566   5.917   7.044 -0.3276  0.2459  0.4595
41109SOL    HW126825   7.624   5.979   6.999  1.4118 -0.1346  2.0345
41109SOL    HW226826   7.494   5.970   7.076  0.8259  1.3688  1.2620
41110SOL     OW26827   2.584   7.372   2.592 -0.2117 -0.6123  0.5256
41110SOL    HW126828   2.549   7.413   2.513 -1.3479  0.4518  1.5525
41110SOL    HW226829   2.676   7.356   2.571  0.1746  2.0245 -0.1061
41111SOL     OW26830   3.367   4.129   7.208  0.2966 -0.3830  0.5044
41111SOL    HW126831   3.356   4.034   7.199  1.3938 -0.4693 -0.0664
41111SOL    HW226832   3.328   4.150   7.293 -0.0516 -1.3250  0.5871
41112SOL     OW26833   5.052  10.050   7.384  0.1750  0.2710  0.0072
41112SOL    HW126834   5.088  10.012   7.304  0.4479  0.8449 -0.1500
41112SOL    HW226835   4.987  10.114   7.353 -0.3362 -0.1156  0.2666
41113SOL     OW26836   8.746   8.321   8.659 -0.3432  0.5297 -0.3007
41113SOL    HW126837   8.777   8.392   8.602 -0.1627  1.3069  0.7367
41113SOL    HW226838   8.814   8.254   8.651  0.4305  1.2386  0.1139
41114SOL     OW26839   7.320   0.671   5.001  0.1280  0.0204  0.0202
41114SOL    HW126840   7.306   0.740   5.066 -1.9698  0.4378 -0.8039
41114SOL    HW226841   7.412   0.679   4.977  0.9224 -0.0286  2.7678
41115SOL     OW26842   3.608   3.633   7.596  0.1411  0.8112 -0.4300
41115SOL    HW126843   3.520   3.630   7.633  0.0538 -0.6908 -0.6766
41115SOL    HW226844   3.621   3.546   7.558  2.3285  0.4578  0.9687
41116SOL     OW26845   4.948   0.742   2.672  0.4422 -0.7257  0.2469
41116SOL    HW126846   4.966   0.652   2.646  1.4684 -0.0740 -1.4525
41116SOL    HW226847   4.993   0.753   2.755  0.6228 -1.6528  0.2823
41117SOL     OW26848   4.116  10.387  10.776 -0.1944  0.2037  0.1325
41117SOL    HW126849   4.106  10.418  10.866  0.2733  1.2147 -0.1500
41117SOL    HW226850   4.131  10.293  10.784  0.5827  0.4023  1.1491
41118SOL     OW26851   9.930   4.852   4.815 -0.6371 -0.5440 -0.4082
41118SOL    HW126852  10.022   4.877   4.816 -0.8134  0.1276  0.4002
41118SOL    HW226853   9.911   4.825   4.905 -1.4902  0.3875 -0.2897
41119SOL     OW26854   4.400   8.559   0.673  0.3579 -0.3310  0.4303
41119SOL    HW126855   4.465   8.570   0.604  0.4527  0.3435  0.6274
41119SOL    HW226856   4.347   8.638   0.670 -0.7004 -1.0258  0.0275
41120SOL     OW26857   5.449   0.607   2.564  0.0297  0.9291  0.0964
41120SOL    HW126858   5.374   0.625   2.508 -1.5841  0.0200  1.8496
41120SOL    HW226859   5.499   0.539   2.518  0.8666  2.8226 -1.9525
41121SOL     OW26860   4.261   6.370   4.442  0.2097 -0.7370 -0.2862
41121SOL    HW126861   4.176   6.403   4.413  0.5787 -0.5617 -1.1897
41121SOL    HW226862   4.309   6.448   4.469  0.5294 -0.6827 -0.9779
41122SOL     OW26863   7.458   9.783   7.327  0.0248 -0.4488  0.9784
41122SOL    HW126864   7.491   9.861   7.283  0.0166 -0.5422  0.8059
41122SOL    HW226865   7.367   9.776   7.297  0.4170 -1.2935 -0.0810
41123SOL     OW26866   1.545   9.657   9.197  0.4240  0.1758  0.1929
41123SOL    HW126867   1.543   9.731   9.136 -0.1795 -0.5166 -0.6568
41123SOL    HW226868   1.464   9.666   9.248 -0.1210 -0.4188 -0.5576
41124SOL     OW26869   1.059   8.694   9.959  0.2878 -0.4610  0.0753
41124SOL    HW126870   1.087   8.629   9.895 -0.1290 -1.0860  0.5117
41124SOL    HW226871   1.128   8.694  10.025  0.2933 -0.4490  0.0696
41125SOL     OW26872   4.776   4.615   8.589 -0.4643 -0.5883 -0.2244
41125SOL    HW126873   4.729   4.665   8.522 -0.2346  0.0106  0.0476
41125SOL    HW226874   4.819   4.682   8.642 -1.4576 -0.9723  1.1450
41126SOL     OW26875   1.614   7.675   1.375  0.6042  0.2260  0.2946
41126SOL    HW126876   1.654   7.731   1.442  0.5539  0.7238 -0.0845
41126SOL    HW226877   1.688   7.641   1.326  0.6165  0.2517  0.2955
41127SOL     OW26878   3.225   8.944   5.467 -0.3013  0.5051  0.0974
41127SOL    HW126879   3.149   8.975   5.418 -0.8114 -0.7325  0.0582
41127SOL    HW226880   3.205   8.852   5.485  0.5271  0.5584  1.3798
41128SOL     OW26881   6.319   9.293   0.691  0.0022  0.6832  0.2295
41128SOL    HW126882   6.255   9.269   0.758 -0.2340  1.1861  0.1847
41128SOL    HW226883   6.382   9.348   0.737  0.2197  0.4593  0.1976
41129SOL     OW26884   0.315   2.146   7.748  0.0155 -0.3086 -0.0480
41129SOL    HW126885   0.407   2.122   7.746 -0.4661 -2.5410  1.1539
41129SOL    HW226886   0.279   2.098   7.823 -1.9567  1.1810  0.0609
41130SOL     OW26887   7.577   4.103   2.545 -0.1670 -0.2572  0.2985
41130SOL    HW126888   7.510   4.124   2.609 -0.1125 -0.2438  0.3507
41130SOL    HW226889   7.625   4.185   2.532  0.3321 -0.4580  0.8367
41131SOL     OW26890   2.007   0.949   5.269  0.4380  0.4356  0.4314
41131SOL    HW126891   2.035   0.969   5.179 -3.0117  1.2910 -0.5985
41131SOL    HW226892   1.930   1.004   5.283 -0.5494 -1.4053  3.0442
41132SOL     OW26893   4.033   6.997   8.553 -0.6724  0.6502  0.2454
41132SOL    HW126894   4.026   6.902   8.556  1.8751  0.3704 -0.5096
41132SOL    HW226895   3.949   7.028   8.587 -1.4481 -1.8430  0.8156
41133SOL     OW26896   7.717   3.532   7.645  0.2020 -0.2909  0.5454
41133SOL    HW126897   7.743   3.588   7.718 -1.7961 -0.2132  1.2662
41133SOL    HW226898   7.621   3.531   7.649  0.0342 -0.4736 -1.9533
41134SOL     OW26899   1.341   3.018   1.923  0.3786  0.6687  0.6177
41134SOL    HW126900   1.379   3.014   1.835 -0.1894 -0.9777  0.4173
41134SOL    HW226901   1.406   2.974   1.979 -0.1457 -0.0449  0.6728
41135SOL     OW26902   0.870   7.200   3.624 -0.3142 -0.3029 -0.3305
41135SOL    HW126903   0.813   7.125   3.640 -1.2003  0.6505  1.1335
41135SOL    HW226904   0.842   7.266   3.686  1.8489  0.5204 -0.1273
41136SOL     OW26905   7.039   0.814   5.137 -0.4144 -0.5848  0.0793
41136SOL    HW126906   6.972   0.816   5.206 -1.5123  0.5004 -0.9549
41136SOL    HW226907   7.036   0.724   5.104 -1.9253 -0.3911 -0.4209
41137SOL     OW26908   1.296   5.623   9.746 -0.6670 -0.2758  0.1849
41137SOL    HW126909   1.261   5.542   9.783 -1.2519 -0.4588 -0.7447
41137SOL    HW226910   1.299   5.607   9.652 -1.1693  0.9397 -0.0484
41138SOL     OW26911   9.093   7.677   4.784 -0.3622 -0.3353 -0.0449
41138SOL    HW126912   9.056   7.764   4.770 -1.2693 -0.8031 -0.6606
41138SOL    HW226913   9.027   7.617   4.749  1.4197 -1.1634 -2.1992
41139SOL     OW26914   5.305  10.061   8.153  0.2858  0.4060 -0.2410
41139SOL    HW126915   5.260  10.124   8.096 -3.4692 -1.2264  0.6324
41139SOL    HW226916   5.309  10.105   8.238  1.2251  0.8800 -0.5139
41140SOL     OW26917   0.860   3.604   3.197 -0.2949  0.6809 -0.1637
41140SOL    HW126918   0.864   3.536   3.263  0.1637  1.3579  0.5233
41140SOL    HW226919   0.829   3.682   3.244  0.7814  1.3723 -0.5536
41141SOL     OW26920   4.970   0.212   7.807  0.3915  0.3389  0.3640
41141SOL    HW126921   4.967   0.292   7.755 -0.0944 -0.0369 -0.2022
41141SOL    HW226922   5.013   0.238   7.888  1.1194  0.9500 -0.1988
41142SOL     OW26923   4.523   6.719   5.861 -0.2709 -0.0348 -0.1199
41142SOL    HW126924   4.466   6.735   5.936 -0.2936  0.8066 -0.3136
41142SOL    HW226925   4.607   6.758   5.885 -0.0437 -0.4472 -0.2220
41143SOL     OW26926   4.535   8.197   9.289 -0.4891  0.6168 -0.4718
41143SOL    HW126927   4.539   8.172   9.197  2.8771  1.4958 -0.6933
41143SOL    HW226928   4.602   8.264   9.299 -0.3520  0.1583  2.7378
41144SOL     OW26929   1.092   0.967   1.144  0.0266 -0.3341  0.6000
41144SOL    HW126930   1.130   0.889   1.183 -0.0529  0.4519  2.3456
41144SOL    HW226931   1.004   0.941   1.117  1.0722 -1.6880 -1.8725
41145SOL     OW26932   1.628   0.881  11.001  0.7354  0.5271 -0.7824
41145SOL    HW126933   1.678   0.801  10.988 -2.2253 -1.6107 -0.0979
41145SOL    HW226934   1.666   0.921  11.079  1.3522 -1.0469 -0.2339
41146SOL     OW26935   5.173   1.391   0.722  0.0133 -0.4044  0.0644
41146SOL    HW126936   5.200   1.425   0.637 -0.1409 -0.6506 -0.0856
41146SOL    HW226937   5.158   1.469   0.775 -0.0129 -0.2438 -0.1747
41147SOL     OW26938   1.812   5.541   3.611  0.1815 -0.6565 -0.0223
41147SOL    HW126939   1.826   5.582   3.526  0.9777  1.7567  1.1542
41147SOL    HW226940   1.745   5.474   3.595 -0.2179  0.2054 -2.3905
41148SOL     OW26941   4.115   2.867   4.310 -0.1638  0.3849  0.6736
41148SOL    HW126942   4.046   2.807   4.336 -0.3438  0.4770  0.4191
41148SOL    HW226943   4.121   2.857   4.215 -2.1003  2.7376  0.2008
41149SOL     OW26944   5.253   4.995   5.425  0.2101 -0.1367  0.0536
41149SOL    HW126945   5.301   5.071   5.393 -1.5216  0.2605 -1.7406
41149SOL    HW226946   5.187   4.977   5.358 -0.0749 -2.6406  0.8888
41150SOL     OW26947   1.271  10.259   7.871 -0.4232 -0.4456  0.3023
41150SOL    HW126948   1.249  10.239   7.780 -1.6569 -0.7050  0.6329
41150SOL    HW226949   1.360  10.227   7.882 -0.7205 -1.6118 -0.4589
41151SOL     OW26950   1.944   7.473   9.925  0.3051 -0.4135 -0.5350
41151SOL    HW126951   1.858   7.457   9.886 -0.1230  0.3387  0.0719
41151SOL    HW226952   1.964   7.393   9.973 -0.4978 -0.2347  0.1104
41152SOL     OW26953   4.346   6.894   1.290  0.0272  0.0065  0.3004
41152SOL    HW126954   4.334   6.989   1.284 -0.2876 -0.0341  0.3114
41152SOL    HW226955   4.258   6.858   1.284  0.3150 -0.4544 -2.8911
41153SOL     OW26956   1.424   6.855  10.766 -0.0217  0.2513 -0.7405
41153SOL    HW126957   1.381   6.789  10.711  0.7313 -0.5198 -0.4185
41153SOL    HW226958   1.499   6.810  10.804  0.9181  1.4926 -1.0572
41154SOL     OW26959   0.403   2.253   0.593  0.0243  0.2426 -0.7960
41154SOL    HW126960   0.325   2.293   0.554 -0.7445 -0.7661 -0.3676
41154SOL    HW226961   0.476   2.301   0.556 -0.7593  0.5643 -1.9974
41155SOL     OW26962   2.143   3.997   3.726 -0.2292 -0.3572  0.0858
41155SOL    HW126963   2.192   3.975   3.647  0.0112 -1.2491  0.4592
41155SOL    HW226964   2.209   3.998   3.795 -0.8651 -3.3208  0.9155
41156SOL     OW26965   9.015   5.784   6.884  0.1150  0.1474  0.0012
41156SOL    HW126966   9.021   5.832   6.802 -0.7838 -1.4786 -1.0769
41156SOL    HW226967   9.015   5.851   6.952 -2.2259  1.7764 -1.4701
41157SOL     OW26968   8.973   9.977   5.114  0.1432  0.1098  0.1894
41157SOL    HW126969   9.064   9.960   5.089  0.0476 -1.8847  0.9987
41157SOL    HW226970   8.967   9.947   5.205 -1.2561  0.5014  0.2461
41158SOL     OW26971   1.811   4.022   6.588  0.0669  0.5819  0.0761
41158SOL    HW126972   1.801   3.944   6.641 -0.3263 -0.3033 -1.2395
41158SOL    HW226973   1.814   4.094   6.651 -1.4757 -0.3081  1.2439
41159SOL     OW26974   6.395   1.717   1.651  0.1983  0.0821  0.2871
41159SOL    HW126975   6.349   1.800   1.659 -0.6845 -0.3767  0.1661
41159SOL    HW226976   6.389   1.695   1.558 -0.4715 -0.5938  0.4760
41160SOL     OW26977   0.207   6.074   3.247  0.5185 -0.2313  0.2599
41160SOL    HW126978   0.167   6.040   3.166  0.8021 -1.5141  0.6339
41160SOL    HW226979   0.150   6.146   3.273  0.2830  0.0550 -0.9503
41161SOL     OW26980   9.139   7.023   9.479 -0.6051  0.6313  0.6240
41161SOL    HW126981   9.112   7.039   9.569  1.5315 -1.6904  1.7675
41161SOL    HW226982   9.061   6.984   9.437 -0.9881 -0.1822  2.0448
41162SOL     OW26983   3.868   2.380   1.792 -0.3358  0.0872 -0.8829
41162SOL    HW126984   3.856   2.332   1.874  0.3448  0.3020 -0.6471
41162SOL    HW226985   3.857   2.314   1.724 -1.5343  0.0337 -0.6505
41163SOL     OW26986   3.410   3.545   1.472 -0.2570 -0.3432 -0.0084
41163SOL    HW126987   3.412   3.563   1.378  0.1922  0.0744  0.0713
41163SOL    HW226988   3.325   3.577   1.502  0.2689  1.1083  0.0110
41164SOL     OW26989   2.998   9.131   2.646 -0.0830  0.5386 -0.3788
41164SOL    HW126990   3.075   9.095   2.689 -0.8733  0.4759  1.0352
41164SOL    HW226991   2.969   9.202   2.704 -2.1688 -0.6418  0.1161
41165SOL     OW26992   7.761  10.853   2.019 -0.9054  0.2207  0.3481
41165SOL    HW126993   7.787  10.876   1.930 -1.4566 -0.3117  0.0486
41165SOL    HW226994   7.816  10.778   2.041  0.4982  1.4178  1.1238
41166SOL     OW26995   4.473   0.825   3.684  0.4806 -0.0564  0.1570
41166SOL    HW126996   4.500   0.777   3.606  0.5366 -1.3820  0.9604
41166SOL    HW226997   4.555   0.851   3.726  0.5643  4.1604 -2.1868
41167SOL     OW26998   8.591   5.373  10.302 -0.1942  0.4092  0.0054
41167SOL    HW126999   8.541   5.324  10.367 -1.0512 -1.3414 -1.8648
41167SOL    HW227000   8.525   5.410  10.244  0.5465 -1.4084 -2.1473
41168SOL     OW27001   7.523   4.903   0.562  0.4723 -0.0488  0.5078
41168SOL    HW127002   7.569   4.819   0.553 -0.6571 -0.9496  2.5354
41168SOL    HW227003   7.437   4.880   0.595 -0.2134  1.8791  0.1929
41169SOL     OW27004   3.881   0.957   0.824 -0.2497  0.6012 -0.2048
41169SOL    HW127005   3.818   0.902   0.871  0.4744  0.8028  1.0391
41169SOL    HW227006   3.966   0.919   0.845  0.1035  0.7805 -1.2693
41170SOL     OW27007  10.108   8.766   9.052 -0.1978 -0.3260  0.3914
41170SOL    HW127008  10.157   8.719   8.984  0.4920  0.9606 -0.0381
41170SOL    HW227009  10.032   8.801   9.006  0.4194  0.7905  0.1884
41171SOL     OW27010   1.153   0.714   2.214 -0.3154  0.0043 -0.1797
41171SOL    HW127011   1.172   0.710   2.307  1.8416  0.1707 -0.5648
41171SOL    HW227012   1.234   0.743   2.173 -1.1228 -0.2757 -2.1453
41172SOL     OW27013   4.626   8.780   5.318  0.1165 -0.1168  0.3074
41172SOL    HW127014   4.696   8.830   5.276  0.5066 -0.3781  0.6388
41172SOL    HW227015   4.546   8.823   5.290  0.4652  1.1397  1.1440
41173SOL     OW27016   2.661   7.916  10.453 -0.3782 -0.7155 -0.5513
41173SOL    HW127017   2.716   7.904  10.530 -1.2516 -2.4001 -0.1582
41173SOL    HW227018   2.721   7.951  10.386  0.5110  0.1911  0.6758
41174SOL     OW27019   1.113   2.665   8.882 -0.1066 -0.2869  0.3020
41174SOL    HW127020   1.029   2.623   8.901 -0.7082  0.4003 -0.7381
41174SOL    HW227021   1.105   2.753   8.919  1.0139 -0.9244  2.1616
41175SOL     OW27022   5.551   7.237  10.119  0.2579  0.0162 -0.1809
41175SOL    HW127023   5.509   7.225  10.034  1.3172 -2.3381 -0.4647
41175SOL    HW227024   5.629   7.182  10.115 -1.5522 -3.3854  3.5834
41176SOL     OW27025   1.035   3.967   0.505 -0.3047  0.3327 -0.2117
41176SOL    HW127026   0.977   3.993   0.576  0.8579  0.2391  0.8187
41176SOL    HW227027   1.097   4.040   0.497  2.0285 -1.2571  1.6438
41177SOL     OW27028   4.761   0.554   5.120 -0.1042  0.2220 -0.1298
41177SOL    HW127029   4.670   0.579   5.106 -0.1547  0.0498 -0.1086
41177SOL    HW227030   4.791   0.526   5.034 -0.6664 -1.6616  0.2417
41178SOL     OW27031   8.975   1.847  10.067 -0.2054 -0.5296  0.5889
41178SOL    HW127032   9.048   1.872  10.123  1.2368 -2.1936 -0.4662
41178SOL    HW227033   8.913   1.805  10.127 -1.7736  3.3727  2.0333
41179SOL     OW27034   8.501   7.678   4.061 -0.3326  0.5051 -0.2207
41179SOL    HW127035   8.410   7.661   4.036 -0.7534 -1.5419  2.1788
41179SOL    HW227036   8.495   7.753   4.121 -0.5419  0.0912  0.2897
41180SOL     OW27037  10.250   1.094   1.850  0.2626 -0.0603 -0.1365
41180SOL    HW127038  10.256   1.188   1.863  1.0814 -0.2782  1.2725
41180SOL    HW227039  10.296   1.078   1.768 -0.6964  0.8506 -0.8778
41181SOL     OW27040   1.083   0.067   1.870 -0.0348  0.3160  0.2287
41181SOL    HW127041   1.059   0.156   1.896 -1.2097 -0.0171  0.3559
41181SOL    HW227042   1.129   0.032   1.945 -0.5224  0.4553  0.5938
41182SOL     OW27043  10.801   0.641   9.839 -0.0568  0.2187 -0.4157
41182SOL    HW127044  10.785   0.563   9.892  3.1731  0.2402  0.8322
41182SOL    HW227045  10.731   0.701   9.862  0.1992 -0.4750  2.5307
41183SOL     OW27046   8.560   1.082   8.643 -0.3958 -0.3902 -0.0823
41183SOL    HW127047   8.644   1.100   8.687 -1.4749  1.1111  1.4834
41183SOL    HW227048   8.578   1.101   8.551  0.8144  0.6847  0.3254
41184SOL     OW27049   0.162   0.790   3.669  0.2952 -0.1653  0.0170
41184SOL    HW127050   0.255   0.794   3.689  0.1300  1.4011  0.6063
41184SOL    HW227051   0.147   0.860   3.606 -0.3484 -0.9464 -0.7240
41185SOL     OW27052   8.881   6.596   6.669 -0.0223  0.6214 -0.4709
41185SOL    HW127053   8.897   6.502   6.677  0.7538  0.5121 -2.5562
41185SOL    HW227054   8.932   6.636   6.739  1.7949 -0.3767 -1.1528
41186SOL     OW27055   0.445   8.337   3.785  0.4109 -0.8420 -0.0743
41186SOL    HW127056   0.508   8.267   3.772  1.9838  0.2875  1.0445
41186SOL    HW227057   0.472   8.405   3.722  2.1403  0.7553  2.1792
41187SOL     OW27058   5.952   8.122   8.161  0.3839  0.2753  0.1419
41187SOL    HW127059   6.001   8.070   8.097  0.1351  0.5576 -0.2824
41187SOL    HW227060   5.890   8.059   8.199 -0.7732  0.5110 -1.2574
41188SOL     OW27061   7.826   7.496   7.289  0.7724 -0.6556 -0.8301
41188SOL    HW127062   7.747   7.528   7.333  1.9272 -0.5419  1.3311
41188SOL    HW227063   7.801   7.410   7.254 -0.3341 -0.5682 -0.3042
41189SOL     OW27064   8.305   8.688  10.493  0.3367  0.0356  0.3793
41189SOL    HW127065   8.346   8.665  10.577  0.7188  0.5688  0.3418
41189SOL    HW227066   8.374   8.670  10.428  0.0919 -0.2334  0.1893
41190SOL     OW27067   5.332  10.441   7.248  0.1983 -0.0654 -0.1059
41190SOL    HW127068   5.362  10.358   7.287 -1.0731 -0.8784 -0.7859
41190SOL    HW227069   5.404  10.502   7.264  1.0313 -1.2066  0.7144
41191SOL     OW27070   8.680   4.057   2.486 -0.0643 -0.3833  0.5228
41191SOL    HW127071   8.753   4.065   2.548  0.3392 -1.8052  0.2633
41191SOL    HW227072   8.673   4.143   2.447 -0.5931  0.7059  2.8144
41192SOL     OW27073   9.928   6.424   7.781 -1.0911 -0.0569 -0.1531
41192SOL    HW127074   9.972   6.438   7.865 -1.6346 -1.7669  0.4768
41192SOL    HW227075   9.854   6.367   7.803 -1.8199  0.2718 -1.6525
41193SOL     OW27076   9.318   5.789   6.028  0.4156  0.4027 -0.0028
41193SOL    HW127077   9.340   5.707   5.983  1.1305 -0.0316  1.0997
41193SOL    HW227078   9.330   5.770   6.121 -1.8786  1.0163  0.4840
41194SOL     OW27079   3.590   1.378  10.378 -0.6633 -0.2822  0.1155
41194SOL    HW127080   3.596   1.474  10.374 -0.6280 -0.3098 -1.4576
41194SOL    HW227081   3.675   1.350  10.411 -0.9697  0.2515  1.4016
41195SOL     OW27082   6.347   7.510   6.069  0.5868 -0.3408  0.0838
41195SOL    HW127083   6.337   7.448   5.997 -1.0817 -1.4510  1.2054
41195SOL    HW227084   6.397   7.462   6.136  2.3687  0.7704 -0.3623
41196SOL     OW27085   0.726   5.981   7.869  0.0082  0.0805 -0.2677
41196SOL    HW127086   0.640   5.940   7.869  0.4237 -0.8901 -1.8377
41196SOL    HW227087   0.730   6.028   7.785  0.8116  0.5387  0.0121
41197SOL     OW27088   4.333   4.363  10.305 -0.2459 -0.5373  0.2560
41197SOL    HW127089   4.360   4.450  10.336  1.7742 -0.5179 -1.3386
41197SOL    HW227090   4.270   4.333  10.371 -0.6188  1.8911  1.1393
41198SOL     OW27091   9.932   3.165   6.886 -0.1813  0.1910 -0.5195
41198SOL    HW127092  10.018   3.209   6.887  0.2195 -0.5631 -1.0799
41198SOL    HW227093   9.951   3.074   6.908 -1.0209  0.2939  0.7047
41199SOL     OW27094   6.608   2.157   2.640  0.2048 -0.0821  0.2509
41199SOL    HW127095   6.669   2.228   2.621 -2.1069  2.5161  1.8053
41199SOL    HW227096   6.597   2.159   2.735  1.1831 -3.6240  0.5705
41200SOL     OW27097   2.362   3.927   7.994  0.4016  0.1264 -0.2132
41200SOL    HW127098   2.415   3.948   8.071 -0.4674 -1.9947  1.0832
41200SOL    HW227099   2.276   3.903   8.030 -0.3020 -0.0740 -1.9214
41201SOL     OW27100   0.272   5.070   8.165 -0.3207  0.0039 -0.7211
41201SOL    HW127101   0.196   5.043   8.113 -1.3095  3.0305 -1.0304
41201SOL    HW227102   0.347   5.060   8.106 -0.7636 -0.9721 -1.1397
41202SOL     OW27103   8.185  10.536   6.336  0.2575 -0.3930 -0.3275
41202SOL    HW127104   8.128  10.592   6.283  1.3092  0.3017 -0.7441
41202SOL    HW227105   8.179  10.571   6.424 -0.6789 -0.9055 -0.1747
41203SOL     OW27106   2.579   9.336   7.530 -0.5374  0.6744 -0.6619
41203SOL    HW127107   2.605   9.252   7.492 -0.9860  0.4375 -0.4579
41203SOL    HW227108   2.501   9.361   7.481 -1.8389 -0.2183  0.8532
41204SOL     OW27109   3.452   5.800   7.230 -0.5324  0.0596 -0.0736
41204SOL    HW127110   3.403   5.812   7.312 -1.4037  2.4009 -0.8260
41204SOL    HW227111   3.404   5.854   7.167  1.6614  0.5020 -1.4553
41205SOL     OW27112   4.409   1.478   0.682  0.2089  0.7077 -0.5098
41205SOL    HW127113   4.453   1.432   0.611 -2.1263 -0.0798 -1.5334
41205SOL    HW227114   4.428   1.426   0.760 -0.5436 -0.7785 -1.2803
41206SOL     OW27115   1.943   7.953   5.918  0.4245  0.4851  0.1484
41206SOL    HW127116   2.029   7.924   5.948 -0.0449 -1.4144 -0.1864
41206SOL    HW227117   1.903   7.874   5.881 -0.6908  1.7830 -1.5333
41207SOL     OW27118   8.755   1.524   0.214  0.1899 -0.0593  0.0200
41207SOL    HW127119   8.669   1.533   0.174 -0.5223 -1.0172  1.2470
41207SOL    HW227120   8.739   1.471   0.292  1.9994 -0.8402 -0.0940
41208SOL     OW27121   9.615   9.156   6.990 -0.1441  0.6382 -0.1195
41208SOL    HW127122   9.612   9.251   7.002 -1.4150  0.6685 -0.5540
41208SOL    HW227123   9.564   9.140   6.911 -0.3210 -0.4474  0.2008
41209SOL     OW27124   0.377   9.381   3.746 -0.3010 -0.3507  0.0294
41209SOL    HW127125   0.382   9.472   3.776  0.1929 -0.4756  0.3490
41209SOL    HW227126   0.381   9.387   3.651 -1.3777  0.0224  0.0030
41210SOL     OW27127   5.551   0.639   5.506 -0.5518 -0.1504 -0.8111
41210SOL    HW127128   5.535   0.661   5.598  2.2641 -0.1693 -0.2267
41210SOL    HW227129   5.557   0.723   5.461  1.4841  0.0574 -0.2524
41211SOL     OW27130   9.099   4.800  10.019 -0.0418  0.0111 -1.0298
41211SOL    HW127131   9.194   4.803  10.028  0.0371 -1.3035 -1.2440
41211SOL    HW227132   9.083   4.822   9.927 -0.0397  1.3740 -0.7238
41212SOL     OW27133   2.767   1.439   4.534 -0.1200  0.7716 -0.3251
41212SOL    HW127134   2.793   1.518   4.582  0.4712 -0.8695  2.2691
41212SOL    HW227135   2.685   1.412   4.576 -0.9177  0.5834 -1.9321
41213SOL     OW27136   7.482   2.257   8.149  0.0807  0.1428  0.0164
41213SOL    HW127137   7.395   2.269   8.112  0.3110  0.4585 -0.4401
41213SOL    HW227138   7.470   2.196   8.222 -0.6477  0.8330  0.4818
41214SOL     OW27139   6.020   4.554   9.204 -0.3361 -0.4381  0.6954
41214SOL    HW127140   6.011   4.607   9.124 -0.1211  0.6695  1.3785
41214SOL    HW227141   6.055   4.471   9.174  1.6058  0.6284 -0.1646
41215SOL     OW27142   1.038   6.116   3.298  0.2948 -0.7641 -0.3342
41215SOL    HW127143   1.046   6.102   3.392  0.7147  0.5541 -0.1506
41215SOL    HW227144   1.072   6.036   3.259  0.0394 -1.3553  0.6320
41216SOL     OW27145   7.552   1.913   0.804 -0.1716  0.1516  0.2794
41216SOL    HW127146   7.547   2.005   0.778 -0.3611 -0.0935 -0.5754
41216SOL    HW227147   7.611   1.913   0.879 -0.3287  0.9961  0.4131
41217SOL     OW27148   8.473   2.916   4.104  0.0607  0.5477 -0.2502
41217SOL    HW127149   8.413   2.988   4.122  0.4442  1.2503 -1.6510
41217SOL    HW227150   8.469   2.861   4.183 -2.5452  0.4463 -0.3800
41218SOL     OW27151   0.775   8.249   0.292 -0.6003 -0.5444 -0.1077
41218SOL    HW127152   0.808   8.271   0.206 -0.5700 -0.4493 -0.0716
41218SOL    HW227153   0.852   8.224   0.343 -0.7465 -1.7613 -0.4532
41219SOL     OW27154   4.952   0.364   1.479 -0.4074  0.0854  0.0389
41219SOL    HW127155   4.864   0.378   1.514 -0.6272 -1.0556  0.0076
41219SOL    HW227156   4.986   0.290   1.531  0.4041  0.3034 -0.1716
41220SOL     OW27157   2.965  10.931   0.993 -0.2441  0.2217 -0.2544
41220SOL    HW127158   2.907  10.967   0.927  0.0704  1.5119  0.1392
41220SOL    HW227159   2.974  10.838   0.970 -2.1354  0.0778 -0.5342
41221SOL     OW27160   6.068   1.598   5.719 -0.0229 -0.1747  0.0075
41221SOL    HW127161   6.090   1.673   5.774 -0.6883  1.7889 -2.2424
41221SOL    HW227162   6.144   1.587   5.663 -1.1518  0.9542 -1.8304
41222SOL     OW27163  10.042   7.897   5.170  0.0530 -0.0148  0.3981
41222SOL    HW127164  10.090   7.830   5.122  1.7055  1.7521 -0.5619
41222SOL    HW227165  10.062   7.879   5.262 -0.7296 -1.6807  0.2652
41223SOL     OW27166   5.590   3.000   0.508 -0.4200 -0.2274 -0.0476
41223SOL    HW127167   5.538   2.958   0.439 -0.3650  0.1956 -0.3492
41223SOL    HW227168   5.599   2.933   0.575  2.5945 -1.9431 -1.9518
41224SOL     OW27169   3.485   2.344   0.570  0.0170 -0.7988 -0.0568
41224SOL    HW127170   3.425   2.418   0.561 -0.8128 -1.3515  0.8356
41224SOL    HW227171   3.433   2.268   0.546  0.2975 -1.3044  0.8994
41225SOL     OW27172   0.975  10.775   5.942  0.3094 -0.3821  0.0008
41225SOL    HW127173   0.967  10.868   5.922  1.4710 -0.5242 -1.3011
41225SOL    HW227174   1.053  10.768   5.997  0.6920 -0.6664 -0.5731
41226SOL     OW27175   6.352   1.637   9.550 -0.8409  0.1856  0.4344
41226SOL    HW127176   6.365   1.575   9.479  0.9443  1.0642 -0.0749
41226SOL    HW227177   6.284   1.598   9.605  1.3090 -3.0581  1.0944
41227SOL     OW27178   1.823   9.936   2.079 -0.1362 -0.0407  0.1460
41227SOL    HW127179   1.847  10.027   2.064  0.0110  0.1323  1.3441
41227SOL    HW227180   1.898   9.886   2.046 -0.3572  0.2521 -0.8122
41228SOL     OW27181   2.539   4.194   7.406 -0.9259  0.6153  0.3492
41228SOL    HW127182   2.520   4.225   7.494 -0.3017  0.9503  0.3736
41228SOL    HW227183   2.463   4.219   7.354 -0.8782  1.2693  0.5935
41229SOL     OW27184   6.381  10.157   8.280  0.0215  0.1105  0.1562
41229SOL    HW127185   6.328  10.079   8.294 -0.1822 -0.3793 -2.6535
41229SOL    HW227186   6.471  10.128   8.293 -0.1727 -0.0004  1.2978
41230SOL     OW27187   8.698   1.140   5.783 -0.3665  0.2963 -0.1560
41230SOL    HW127188   8.694   1.081   5.858  0.4921  0.2130 -0.1617
41230SOL    HW227189   8.758   1.209   5.811 -1.6972  1.4274  0.0201
41231SOL     OW27190   2.011   0.105   8.355 -0.7049  0.0412  0.4662
41231SOL    HW127191   2.010   0.076   8.264 -1.4559  3.2484 -0.6660
41231SOL    HW227192   2.103   0.097   8.382 -0.5909 -1.5875 -0.2837
41232SOL     OW27193   4.188   1.869  10.427  0.8420 -0.3755 -0.4746
41232SOL    HW127194   4.165   1.776  10.419  1.1571 -0.4559 -0.4628
41232SOL    HW227195   4.255   1.871  10.495  1.2999 -0.2155 -0.9240
41233SOL     OW27196   6.617   2.783   6.201 -0.4935  0.3081  0.3239
41233SOL    HW127197   6.633   2.859   6.144  1.5921  0.1230  0.5896
41233SOL    HW227198   6.562   2.726   6.148  0.8045  0.4530 -1.2977
41234SOL     OW27199   9.200   6.177   9.471 -0.1349  0.0827  0.5868
41234SOL    HW127200   9.255   6.100   9.456 -3.1410 -2.0938 -0.0245
41234SOL    HW227201   9.164   6.164   9.559 -1.6846  0.0723 -0.0249
41235SOL     OW27202   8.399   7.960   7.464 -0.6515  0.6748 -0.1768
41235SOL    HW127203   8.492   7.940   7.477 -0.7057 -0.7981 -1.7812
41235SOL    HW227204   8.359   7.942   7.549 -0.4047 -4.8579 -0.8677
41236SOL     OW27205  10.388   6.128   3.550 -0.5382  0.3592 -0.0553
41236SOL    HW127206  10.314   6.067   3.543 -1.3615  1.2874  0.4069
41236SOL    HW227207  10.455   6.079   3.597 -1.6618  0.2216  1.4586
41237SOL     OW27208   9.808  10.249   2.884  0.1461  0.2302 -0.0824
41237SOL    HW127209   9.716  10.224   2.883  0.0952  0.3708  0.7304
41237SOL    HW227210   9.842  10.213   2.965  0.6221  0.8363 -0.0039
41238SOL     OW27211   2.707   9.890   0.458 -0.8024  0.2808  0.2804
41238SOL    HW127212   2.788   9.846   0.483 -1.0564 -0.2277  0.2193
41238SOL    HW227213   2.680   9.938   0.536  0.0426  1.2088  0.0230
41239SOL     OW27214   8.487   8.469   8.767 -0.0485 -0.3916 -0.3189
41239SOL    HW127215   8.581   8.468   8.752 -0.1611 -0.0657 -1.0854
41239SOL    HW227216   8.465   8.561   8.779 -0.4527 -0.3315 -1.4156
41240SOL     OW27217   5.873   9.189   8.584  0.0176  0.4169 -0.6683
41240SOL    HW127218   5.843   9.226   8.667  1.6509  1.1155 -0.3511
41240SOL    HW227219   5.814   9.115   8.567 -1.0753  1.0006  0.5003
41241SOL     OW27220   6.132   6.916   8.116  0.2403  0.1757 -0.2886
41241SOL    HW127221   6.128   6.989   8.055  1.2834 -0.5061 -1.2223
41241SOL    HW227222   6.205   6.938   8.174  0.7837 -0.2806 -0.7933
41242SOL     OW27223   8.560   2.069   8.974 -0.4731 -0.0053 -0.6606
41242SOL    HW127224   8.655   2.080   8.977 -0.2581 -1.5634 -1.1456
41242SOL    HW227225   8.535   2.097   8.885 -0.8537  2.7878  0.2200
41243SOL     OW27226   7.971   9.249   6.334 -0.1593 -0.3703  0.6711
41243SOL    HW127227   8.047   9.299   6.365 -1.3959  1.2343  1.2576
41243SOL    HW227228   7.953   9.187   6.405 -0.4783  0.4833  1.3547
41244SOL     OW27229   1.847   5.097   8.762  0.4148  0.2453  0.3098
41244SOL    HW127230   1.872   5.121   8.851  0.3626  1.4443  0.0200
41244SOL    HW227231   1.786   5.166   8.736  0.2719 -0.2128 -0.5834
41245SOL     OW27232   8.429   8.101   0.788  0.5050 -0.2558 -0.2771
41245SOL    HW127233   8.362   8.167   0.808  2.2853  1.2915  0.8316
41245SOL    HW227234   8.379   8.022   0.769 -1.6427  0.7710  0.7495
41246SOL     OW27235   6.976   1.961  10.642 -0.1469 -0.0917 -0.0436
41246SOL    HW127236   6.967   1.976  10.548 -0.5031  0.5447  0.0900
41246SOL    HW227237   6.887   1.938  10.671 -0.0411 -0.2680  0.1430
41247SOL     OW27238   0.908   2.290   7.695 -0.2188 -0.3608 -0.1819
41247SOL    HW127239   0.825   2.295   7.742  0.5023  0.6822  1.0511
41247SOL    HW227240   0.967   2.347   7.745  0.7152  0.4371 -2.1213
41248SOL     OW27241   0.567   6.487   9.137  0.2189  0.2339 -0.3950
41248SOL    HW127242   0.655   6.458   9.162  0.0587 -0.5979 -0.7907
41248SOL    HW227243   0.580   6.577   9.105  0.8319  0.3232  0.0772
41249SOL     OW27244   6.842   1.688   8.762  0.4534 -0.4845  0.7259
41249SOL    HW127245   6.924   1.727   8.791 -0.2005  0.1741  1.7552
41249SOL    HW227246   6.858   1.594   8.766  0.9947 -0.3725  1.4466
41250SOL     OW27247  10.901   3.318   7.912  0.0184 -0.0490  0.1307
41250SOL    HW127248  10.848   3.248   7.951  0.5080  0.6527  2.1092
41250SOL    HW227249  10.856   3.399   7.935  0.6718  0.4266 -0.2148
41251SOL     OW27250   9.919  10.503  10.591  0.6102  0.5242 -0.1710
41251SOL    HW127251   9.848  10.521  10.528 -0.8394 -0.5546  1.0909
41251SOL    HW227252   9.877  10.453  10.660  2.4885  0.4795  0.9858
41252SOL     OW27253   6.608   7.564   3.776 -0.5240 -0.4275  0.3494
41252SOL    HW127254   6.652   7.577   3.860 -0.6937 -0.9494  0.5264
41252SOL    HW227255   6.604   7.651   3.737 -0.2208 -0.2197  0.7722
41253SOL     OW27256  10.033   3.223   6.276 -0.4070 -0.2083  0.9886
41253SOL    HW127257   9.993   3.140   6.299  1.6207 -2.3512 -2.3897
41253SOL    HW227258  10.022   3.230   6.181  3.7534  0.8308  0.3869
41254SOL     OW27259  10.118   0.253   6.808 -0.4715 -1.2512 -0.2392
41254SOL    HW127260  10.026   0.234   6.791 -0.7818  0.0173 -0.1270
41254SOL    HW227261  10.165   0.217   6.733 -1.3768  0.5682 -1.7567
41255SOL     OW27262   1.532   2.344   8.355  0.0775  0.9259 -0.0673
41255SOL    HW127263   1.454   2.295   8.383  0.4907  0.9961  1.3085
41255SOL    HW227264   1.532   2.422   8.411  0.3331  1.6817 -1.0876
41256SOL     OW27265   1.426   6.166   2.121 -0.1302 -0.2915  0.3125
41256SOL    HW127266   1.462   6.254   2.133  0.5039 -0.3981 -0.7141
41256SOL    HW227267   1.460   6.116   2.195  2.1070 -0.4584 -0.7551
41257SOL     OW27268   7.969   4.502   6.837  0.3383  1.1269  0.5550
41257SOL    HW127269   8.012   4.566   6.894  3.2993 -0.5113  0.3827
41257SOL    HW227270   8.007   4.418   6.864 -1.7924 -0.3249 -0.6630
41258SOL     OW27271   4.328   7.024   7.131 -0.2300 -0.1517  0.3196
41258SOL    HW127272   4.379   7.094   7.090 -0.6956  0.1332  0.2187
41258SOL    HW227273   4.265   6.998   7.064 -0.2580 -0.4601  0.4650
41259SOL     OW27274   8.852   8.940   5.936  0.5464  0.2406 -0.2262
41259SOL    HW127275   8.906   9.019   5.931  1.4521 -0.4199 -1.1935
41259SOL    HW227276   8.780   8.965   5.994  0.1845  2.1617 -1.3917
41260SOL     OW27277   8.002   4.053  10.378 -0.3797 -0.0897 -0.3940
41260SOL    HW127278   7.914   4.035  10.344 -1.7848  1.5925  2.0781
41260SOL    HW227279   8.035   3.968  10.405 -1.6907 -0.6061 -0.3585
41261SOL     OW27280   8.777   5.694   9.841 -0.1736 -0.6863  0.2796
41261SOL    HW127281   8.709   5.627   9.847 -0.1524 -0.7902 -0.5441
41261SOL    HW227282   8.841   5.670   9.908 -0.0394 -1.6307 -0.1780
41262SOL     OW27283   6.569   5.358  10.378  0.5634  0.7168 -0.4533
41262SOL    HW127284   6.476   5.378  10.378 -0.0197 -1.6762 -0.0910
41262SOL    HW227285   6.587   5.328  10.467  1.4129  0.0775 -0.8337
41263SOL     OW27286   3.239   9.544   7.599  0.4426  0.8037 -0.3334
41263SOL    HW127287   3.264   9.470   7.654  0.7149  0.4411 -0.9253
41263SOL    HW227288   3.245   9.510   7.509 -0.9635  1.0839 -0.5571
41264SOL     OW27289   8.778   6.104   2.803 -0.1338  0.0888 -0.3982
41264SOL    HW127290   8.805   6.069   2.888  2.3053  0.1290 -1.0770
41264SOL    HW227291   8.830   6.055   2.740 -3.1404 -1.1610 -2.0912
41265SOL     OW27292   5.517   3.562   3.704 -0.4274 -0.3074  0.2356
41265SOL    HW127293   5.581   3.492   3.692 -1.3001 -1.1315  0.2676
41265SOL    HW227294   5.566   3.642   3.687  0.2904 -0.9852 -1.0723
41266SOL     OW27295   2.730   2.198   2.723 -0.1195  0.6415 -0.3943
41266SOL    HW127296   2.803   2.259   2.718  0.2932  0.1328 -0.6611
41266SOL    HW227297   2.663   2.244   2.774 -0.0172  1.5119 -1.0248
41267SOL     OW27298   4.294   6.281   3.812 -0.1791  0.1995  0.1011
41267SOL    HW127299   4.325   6.336   3.740  0.0508  0.0350  0.0714
41267SOL    HW227300   4.243   6.213   3.769 -0.4408  0.3732  0.1353
41268SOL     OW27301   5.812   6.396   4.677  0.0274  0.2789 -0.1935
41268SOL    HW127302   5.851   6.363   4.596  0.0148 -1.0026  0.2913
41268SOL    HW227303   5.862   6.475   4.698  2.0431 -1.0033  0.1164
41269SOL     OW27304   9.664   0.887   2.125  0.0527  0.0934  0.1265
41269SOL    HW127305   9.643   0.829   2.051  1.4774  0.1740 -0.3575
41269SOL    HW227306   9.754   0.866   2.148 -0.5818 -0.5093  2.4098
41270SOL     OW27307   0.573   7.147   2.948  0.1993  0.1510  0.4184
41270SOL    HW127308   0.587   7.055   2.970  0.7007  0.4719  1.5053
41270SOL    HW227309   0.594   7.194   3.028 -1.5176  1.1230  0.3341
41271SOL     OW27310   6.517   8.473   4.415 -0.1424 -0.5318  0.3108
41271SOL    HW127311   6.466   8.392   4.414 -0.1650 -0.5193  0.6346
41271SOL    HW227312   6.605   8.446   4.441  0.0229 -0.5531 -0.2547
41272SOL     OW27313   6.798   3.972   4.632  0.0557  0.0229 -0.4952
41272SOL    HW127314   6.803   3.972   4.728 -0.9014 -1.7685 -0.4137
41272SOL    HW227315   6.878   3.928   4.604 -0.4093 -0.8983 -0.4259
41273SOL     OW27316   6.923   0.569   7.280  0.0979 -0.4989 -0.1585
41273SOL    HW127317   6.973   0.613   7.348 -1.9067  2.4128 -0.3675
41273SOL    HW227318   6.970   0.487   7.264  1.2921 -0.7801  3.8247
41274SOL     OW27319   3.990   0.205   9.255  0.1853 -0.3093 -0.3501
41274SOL    HW127320   3.965   0.270   9.190 -0.9013  0.1100  0.4495
41274SOL    HW227321   4.078   0.179   9.230  1.3013  2.5823  0.1427
41275SOL     OW27322   8.410   1.784   9.301 -0.1667  0.0957  0.0933
41275SOL    HW127323   8.467   1.860   9.297  0.0912 -0.0570  0.7287
41275SOL    HW227324   8.359   1.796   9.381 -0.4314 -0.1859 -0.0308
41276SOL     OW27325   3.268  10.275   6.912 -0.0912 -0.3871 -0.5020
41276SOL    HW127326   3.330  10.285   6.839 -1.0233  0.2379 -1.2416
41276SOL    HW227327   3.241  10.184   6.908  1.9623 -1.1220  0.8464
41277SOL     OW27328   9.109   9.236   1.274 -0.6251 -0.5558  0.0281
41277SOL    HW127329   9.200   9.249   1.301 -0.6817 -0.9030  0.3880
41277SOL    HW227330   9.082   9.321   1.238  0.1787 -0.7600 -1.0946
41278SOL     OW27331   5.723   9.667   5.243 -0.0715 -0.0092 -0.0765
41278SOL    HW127332   5.784   9.740   5.254  1.7224 -1.3164 -0.7798
41278SOL    HW227333   5.739   9.636   5.154 -0.1333 -1.7955  0.4951
41279SOL     OW27334   5.092   8.267   1.787  0.7072 -0.5620 -0.2761
41279SOL    HW127335   5.187   8.256   1.784  0.8567  0.4169  0.2775
41279SOL    HW227336   5.078   8.359   1.766  0.2192  0.4312  3.6353
41280SOL     OW27337   6.295   9.231   5.976  0.3623  0.9328 -0.0846
41280SOL    HW127338   6.211   9.225   6.022 -0.3037 -0.2073 -1.3595
41280SOL    HW227339   6.350   9.165   6.019  0.0816  0.5939 -0.2342
41281SOL     OW27340   7.747   2.195   3.495  0.3535  0.1608 -0.2123
41281SOL    HW127341   7.653   2.214   3.496  0.1165 -0.3144 -3.1713
41281SOL    HW227342   7.752   2.101   3.513  0.2824  0.2059  0.0496
41282SOL     OW27343   2.228   0.916   2.841 -0.0725 -0.0488 -0.0071
41282SOL    HW127344   2.234   0.821   2.837 -0.3588 -0.0234 -1.2712
41282SOL    HW227345   2.134   0.934   2.833  0.1129  0.3875 -1.5672
41283SOL     OW27346   8.119   6.791   0.329 -0.0965 -1.0799 -0.0910
41283SOL    HW127347   8.027   6.794   0.355 -0.2347  0.1542 -0.6768
41283SOL    HW227348   8.126   6.853   0.257  1.2706 -0.9309  0.1446
41284SOL     OW27349   4.099   2.878   8.698  0.4981 -0.1904  0.3232
41284SOL    HW127350   4.187   2.915   8.705  1.4945 -2.2438 -0.5494
41284SOL    HW227351   4.050   2.941   8.645  1.8244  0.3596 -0.2874
41285SOL     OW27352   7.560   3.515  10.914 -0.5383 -0.5705  0.2765
41285SOL    HW127353   7.548   3.572  10.990 -0.1711 -0.8006  0.5112
41285SOL    HW227354   7.478   3.466  10.906 -1.2490  0.6864 -0.5237
41286SOL     OW27355   2.828   3.370   2.195  0.1070  0.2493 -0.7033
41286SOL    HW127356   2.789   3.283   2.186  1.3176 -0.2734 -1.1352
41286SOL    HW227357   2.809   3.413   2.111  1.0085 -0.2462 -1.1733
41287SOL     OW27358   4.702   4.474   1.733  0.3280  0.3189  0.3345
41287SOL    HW127359   4.784   4.426   1.735 -0.9006 -1.9768 -0.9890
41287SOL    HW227360   4.708   4.529   1.655 -0.0596 -1.1464 -0.7482
41288SOL     OW27361   0.676   3.890   9.490 -0.2204 -0.2944 -0.2150
41288SOL    HW127362   0.713   3.977   9.487 -0.2090 -0.2970 -0.1491
41288SOL    HW227363   0.695   3.858   9.578 -1.6576  0.2740  0.3371
41289SOL     OW27364  10.176  10.768   7.531  0.5328 -0.3044  0.6105
41289SOL    HW127365  10.120  10.713   7.476  0.4979  1.1343 -0.8721
41289SOL    HW227366  10.186  10.849   7.481  2.1878  0.2883  1.8274
41290SOL     OW27367   9.218   6.692   9.609 -0.1072 -0.3102  0.4949
41290SOL    HW127368   9.142   6.642   9.638 -1.2207  0.6980 -0.5537
41290SOL    HW227369   9.249   6.646   9.531  0.0600 -0.4322  0.6313
41291SOL     OW27370   9.600   5.063   7.841 -0.3218 -0.3444  0.1567
41291SOL    HW127371   9.619   4.993   7.780 -1.7002 -0.5379 -0.0608
41291SOL    HW227372   9.505   5.068   7.846 -0.3243 -1.1572  3.2081
41292SOL     OW27373   6.305   7.978   0.258 -0.1254 -0.2782 -0.6834
41292SOL    HW127374   6.370   7.908   0.262  0.6991  0.5240  0.5279
41292SOL    HW227375   6.321   8.020   0.173  1.6701  0.5469  0.0086
41293SOL     OW27376   8.683   1.192   4.191 -0.2006 -0.0663 -0.3808
41293SOL    HW127377   8.661   1.242   4.113 -1.0454 -2.0653 -1.4785
41293SOL    HW227378   8.599   1.172   4.232  0.0787 -1.0519 -0.2620
41294SOL     OW27379   3.249   1.532   9.358  0.2796 -0.4116 -0.0677
41294SOL    HW127380   3.312   1.592   9.318  0.9089 -0.6623  0.5354
41294SOL    HW227381   3.283   1.516   9.445 -0.0687 -1.3865 -0.1003
41295SOL     OW27382   8.772   8.644  10.276  0.0184  0.3269 -0.1752
41295SOL    HW127383   8.809   8.661  10.189  0.7722 -2.0502 -0.3787
41295SOL    HW227384   8.843   8.664  10.337 -0.1984  1.0612 -0.1517
41296SOL     OW27385   3.020   9.277   8.678  0.2010 -0.3429  0.1792
41296SOL    HW127386   2.943   9.242   8.634  0.7542  0.2993 -1.3415
41296SOL    HW227387   3.044   9.209   8.741 -1.7432 -0.4365  0.8843
41297SOL     OW27388   1.444   5.340   9.014 -0.2707  0.6624  0.2975
41297SOL    HW127389   1.371   5.401   9.028 -1.2895 -0.0525 -1.5552
41297SOL    HW227390   1.418   5.262   9.063  0.4325  1.2101  1.6102
41298SOL     OW27391   0.919   2.041   8.320  0.2487  0.5632  0.5429
41298SOL    HW127392   0.927   1.960   8.270  1.7056  0.6588  0.5854
41298SOL    HW227393   0.936   2.110   8.257 -1.9402  0.9381  0.2828
41299SOL     OW27394   0.262   9.353   9.572 -0.5859  0.0641  0.2439
41299SOL    HW127395   0.326   9.290   9.605  1.3945  2.1265  0.6034
41299SOL    HW227396   0.215   9.383   9.650 -0.6647 -0.0661  0.2462
41300SOL     OW27397   5.576   8.176   2.127 -0.6330 -0.3884  0.1711
41300SOL    HW127398   5.642   8.113   2.154  0.2642  0.4644  0.0231
41300SOL    HW227399   5.608   8.260   2.160 -0.7502  0.2961 -1.3745
41301SOL     OW27400   6.554   8.059   1.632 -0.2846 -0.3036 -0.1773
41301SOL    HW127401   6.535   8.123   1.564 -1.4250  1.6105  1.8145
41301SOL    HW227402   6.608   8.106   1.695  2.0935 -2.4911 -0.4303
41302SOL     OW27403   2.415   9.402   2.480 -0.1162  0.0345  0.1217
41302SOL    HW127404   2.439   9.442   2.396 -0.5467 -1.6733 -0.8536
41302SOL    HW227405   2.473   9.327   2.489  1.0470  1.1009  2.1919
41303SOL     OW27406   3.829   3.824   0.993  0.0062 -0.5037  0.1976
41303SOL    HW127407   3.892   3.752   0.999  1.1765  0.5420  0.7960
41303SOL    HW227408   3.881   3.901   0.972 -1.2452  0.1707 -0.5949
41304SOL     OW27409   0.507   3.627   2.824 -0.4977 -0.8654 -0.2493
41304SOL    HW127410   0.425   3.658   2.786 -0.2172  0.8955  0.4602
41304SOL    HW227411   0.480   3.568   2.895 -1.2160  0.3706  0.5432
41305SOL     OW27412   8.226   1.728   1.759  0.0403 -0.4907  0.0963
41305SOL    HW127413   8.177   1.649   1.735  0.4385 -0.2335 -1.7339
41305SOL    HW227414   8.316   1.698   1.769  0.1453 -0.3121 -0.3197
41306SOL     OW27415   4.489   4.892   6.531  0.4935  0.0666  0.1734
41306SOL    HW127416   4.539   4.811   6.540 -0.0984 -0.4880 -1.2801
41306SOL    HW227417   4.408   4.876   6.579  0.1736 -0.3907 -0.5102
41307SOL     OW27418   9.680  10.159   1.954 -0.1044 -0.2828 -0.6204
41307SOL    HW127419   9.613  10.104   1.912 -1.8992  0.4762  1.1257
41307SOL    HW227420   9.663  10.151   2.047  1.8646  0.4640 -0.1543
41308SOL     OW27421   4.550   8.547   3.803  0.2573  0.3857 -0.2869
41308SOL    HW127422   4.558   8.451   3.807  1.2373  0.4927  1.4519
41308SOL    HW227423   4.491   8.568   3.875 -0.6881  1.0471 -1.2386
41309SOL     OW27424   9.497   8.602   6.570 -0.1064  0.1373  0.4485
41309SOL    HW127425   9.472   8.693   6.553  1.0577  0.7146  1.6630
41309SOL    HW227426   9.458   8.582   6.656  0.5631 -0.1409  0.6917
41310SOL     OW27427   1.318   4.340   2.378  0.9423 -0.0400 -0.5572
41310SOL    HW127428   1.251   4.409   2.377  1.1507  0.2908  1.8489
41310SOL    HW227429   1.280   4.269   2.325 -0.1694  1.1159 -1.3758
41311SOL     OW27430   9.209   8.313   8.837  0.0346  0.8243 -0.1597
41311SOL    HW127431   9.210   8.229   8.882 -0.4392  0.1557 -1.3373
41311SOL    HW227432   9.117   8.339   8.835  0.1264  1.1577 -0.1901
41312SOL     OW27433   0.178   8.803   1.813 -0.1879 -0.3290 -0.1130
41312SOL    HW127434   0.160   8.891   1.780  1.0070  0.0122  0.0961
41312SOL    HW227435   0.245   8.769   1.754  0.3475 -0.5720  0.6270
41313SOL     OW27436   2.882  10.654   5.466 -0.2559 -0.0912  0.0243
41313SOL    HW127437   2.972  10.625   5.482 -0.0680  1.5970  2.5846
41313SOL    HW227438   2.878  10.669   5.371  3.0404  2.3690  0.0951
41314SOL     OW27439   3.606   4.336   2.832  0.2321  0.0292  0.7375
41314SOL    HW127440   3.589   4.310   2.741 -0.8520  0.9919  0.6350
41314SOL    HW227441   3.519   4.344   2.871  0.5646  1.7689  1.2276
41315SOL     OW27442   0.671   5.052   8.964  0.3375  0.3183  0.3670
41315SOL    HW127443   0.667   5.008   9.049  0.9376 -1.1686 -0.3305
41315SOL    HW227444   0.764   5.051   8.941  0.4722  2.5991  0.6007
41316SOL     OW27445   2.543   7.839   5.710  0.4689  0.2528 -0.1847
41316SOL    HW127446   2.623   7.825   5.658  1.0173  1.5115  0.2914
41316SOL    HW227447   2.574   7.873   5.793 -0.6289  2.1034 -0.4885
41317SOL     OW27448   4.480   3.352   9.072 -0.1490 -0.1921  0.4473
41317SOL    HW127449   4.418   3.410   9.116 -2.0975 -0.8837 -1.2536
41317SOL    HW227450   4.476   3.271   9.122 -0.7562 -0.2924  0.2418
41318SOL     OW27451   6.372   7.971   2.327  0.0618  0.1418  1.0775
41318SOL    HW127452   6.279   7.952   2.335  0.3077 -1.4102  0.6398
41318SOL    HW227453   6.404   7.906   2.264  1.4534  0.5955  1.2826
41319SOL     OW27454   4.090   0.018   0.871 -0.1883  0.1465 -0.2408
41319SOL    HW127455   4.138   0.058   0.945  1.6308  0.5929 -1.5847
41319SOL    HW227456   4.103  -0.076   0.882  1.2807  0.2636 -0.6975
41320SOL     OW27457   7.706   4.033   4.822  0.0417 -0.2071 -0.5371
41320SOL    HW127458   7.660   3.976   4.760 -0.1673 -0.7062  0.0642
41320SOL    HW227459   7.661   4.117   4.816 -2.3675 -1.2053  1.4951
41321SOL     OW27460   4.202   7.428  10.449 -0.3754  0.5174 -0.5036
41321SOL    HW127461   4.235   7.427  10.539  0.4421  0.8027 -0.7927
41321SOL    HW227462   4.270   7.383  10.399 -0.5467  0.8916 -1.0745
41322SOL     OW27463   4.465   2.793   8.511  0.5229 -0.1733  0.1038
41322SOL    HW127464   4.428   2.746   8.586  0.9930  0.3703  0.6838
41322SOL    HW227465   4.472   2.884   8.540  0.2859  0.1363 -0.7639
41323SOL     OW27466   1.832  10.765   1.931 -0.1671  0.3280 -0.2165
41323SOL    HW127467   1.863  10.713   2.006 -0.9611  0.4623  0.2126
41323SOL    HW227468   1.739  10.777   1.947 -0.2950  0.5729 -1.1099
41324SOL     OW27469   5.436   0.946   5.831  0.4231  0.4219  0.1465
41324SOL    HW127470   5.447   1.036   5.799 -1.8636  0.5035 -0.5991
41324SOL    HW227471   5.447   0.952   5.926  2.0038  1.1430 -0.0479
41325SOL     OW27472   6.770   1.908   2.928  0.1640  0.0077 -0.2171
41325SOL    HW127473   6.674   1.901   2.932  0.2277 -0.3497  1.1733
41325SOL    HW227474   6.797   1.833   2.875 -0.3112 -0.0045 -0.4494
41326SOL     OW27475   2.812   6.531   4.343  0.8011  0.0263  0.4536
41326SOL    HW127476   2.732   6.574   4.373  0.9812  0.9483 -0.3117
41326SOL    HW227477   2.792   6.503   4.254  2.0540  2.5177 -0.7362
41327SOL     OW27478   6.416   9.028  10.982 -0.5854 -0.5046  0.0995
41327SOL    HW127479   6.457   9.114  10.979 -1.3304 -0.1750 -0.6807
41327SOL    HW227480   6.482   8.972  11.024 -1.7084  1.3356  5.0518
41328SOL     OW27481   2.732   8.009   6.732 -0.3432  0.6945  0.0112
41328SOL    HW127482   2.662   7.952   6.764 -0.3037  0.6175 -0.0391
41328SOL    HW227483   2.812   7.969   6.765 -0.2955  0.5692 -0.2499
41329SOL     OW27484   8.071   9.218   2.846  0.1873  0.3445  0.1657
41329SOL    HW127485   8.148   9.244   2.795 -1.5021  1.1696 -2.1024
41329SOL    HW227486   8.054   9.292   2.904  1.0697  0.1364  0.7225
41330SOL     OW27487   2.629   3.366   4.313 -0.3535 -0.1346  0.0991
41330SOL    HW127488   2.711   3.398   4.349 -0.0188 -0.2697 -0.5358
41330SOL    HW227489   2.579   3.445   4.292  0.1139 -0.0327 -0.6531
41331SOL     OW27490   8.719   9.709  10.589 -0.6028 -0.4704  0.7045
41331SOL    HW127491   8.629   9.728  10.617 -0.5749 -2.5485  2.4965
41331SOL    HW227492   8.760   9.795  10.580 -3.2537  0.6718 -2.1905
41332SOL     OW27493   2.007   8.149   5.205 -0.2630  0.8389 -0.1103
41332SOL    HW127494   1.968   8.224   5.251 -0.9644  1.2690 -1.3670
41332SOL    HW227495   1.936   8.086   5.197  0.1481  0.3067  0.3267
41333SOL     OW27496   0.529   3.495  10.010  0.6174 -0.8280  0.4267
41333SOL    HW127497   0.437   3.502  10.036  0.1893 -2.1954 -0.6313
41333SOL    HW227498   0.575   3.554  10.070 -1.1527  1.3305 -0.2383
41334SOL     OW27499   7.365   6.837   7.336  0.5260 -0.8114  0.4274
41334SOL    HW127500   7.420   6.856   7.412  1.1609 -0.5901 -0.0770
41334SOL    HW227501   7.317   6.919   7.321  0.1727 -0.9516  0.7663
41335SOL     OW27502   2.800   8.277   8.722 -0.4018  0.2787  0.5119
41335SOL    HW127503   2.811   8.254   8.814  2.2228  1.3961  0.5554
41335SOL    HW227504   2.833   8.201   8.674 -1.1814 -0.0483  0.4778
41336SOL     OW27505  10.162   7.368   3.632  1.1569 -0.4837  0.5137
41336SOL    HW127506  10.149   7.313   3.709 -1.9344 -0.7455 -0.0617
41336SOL    HW227507  10.180   7.455   3.667  1.1725 -0.8755  1.4980
41337SOL     OW27508  11.008   5.120   0.268  0.4016 -0.2711  0.6124
41337SOL    HW127509  10.978   5.035   0.236  0.4799 -0.1324  0.1631
41337SOL    HW227510  11.103   5.116   0.261  0.3502  0.4278 -0.9359
41338SOL     OW27511   8.185   5.647   0.669  0.3352 -0.0454  0.1377
41338SOL    HW127512   8.275   5.614   0.659  0.5988  0.0111  1.9343
41338SOL    HW227513   8.131   5.581   0.625  1.2255 -0.2110 -0.7569
41339SOL     OW27514   7.983   2.073   1.103 -0.4541  0.7421  0.7118
41339SOL    HW127515   8.024   2.053   1.187  0.7550  2.3375  0.5380
41339SOL    HW227516   8.025   2.013   1.042 -0.7277  0.1595  1.0824
41340SOL     OW27517   8.450   3.873  10.408 -0.4129  0.1661 -0.3003
41340SOL    HW127518   8.443   3.889  10.502 -0.1524 -0.1762 -0.2236
41340SOL    HW227519   8.520   3.809  10.399 -0.0829  0.5901 -0.7727
41341SOL     OW27520  10.409   3.516   7.212  0.2238  0.8489  0.3045
41341SOL    HW127521  10.497   3.553   7.218  0.3107  0.5181  1.2816
41341SOL    HW227522  10.391   3.482   7.300  0.9611 -3.3214 -0.9205
41342SOL     OW27523   9.604   5.400   6.140  0.5593  0.1783  0.3957
41342SOL    HW127524   9.519   5.438   6.123  0.6450 -1.0212 -3.9159
41342SOL    HW227525   9.585   5.312   6.172  0.1720  0.1689  0.1467
41343SOL     OW27526   5.891   7.695   2.494 -0.2956 -0.0875  0.4349
41343SOL    HW127527   5.834   7.723   2.566 -1.4933 -1.5565  0.1132
41343SOL    HW227528   5.853   7.612   2.465 -0.6865  1.0810 -2.7824
41344SOL     OW27529   9.560   6.868   2.293  0.6406 -0.0531  0.4019
41344SOL    HW127530   9.509   6.844   2.370  0.0587  1.7070  0.6045
41344SOL    HW227531   9.651   6.870   2.325  0.4945 -0.1274  0.8325
41345SOL     OW27532   5.891   7.651   6.948 -0.0737 -0.0162  0.1689
41345SOL    HW127533   5.836   7.680   6.876 -1.0854 -1.8010  0.1590
41345SOL    HW227534   5.858   7.697   7.025 -1.6240 -1.0189  0.1556
41346SOL     OW27535   5.606   2.702   9.684  0.1313 -0.2784  0.2493
41346SOL    HW127536   5.680   2.763   9.690 -0.5901  0.4671  1.9437
41346SOL    HW227537   5.620   2.640   9.756  0.2713 -1.4970 -0.7906
41347SOL     OW27538   9.355   7.258   3.550 -0.4222 -0.0942  0.4871
41347SOL    HW127539   9.355   7.162   3.552 -0.7585 -0.1154  2.7861
41347SOL    HW227540   9.398   7.283   3.632  1.2233  1.7662 -0.8627
41348SOL     OW27541   4.660   9.401   4.166  0.1496  0.7062 -0.3267
41348SOL    HW127542   4.650   9.399   4.071  1.8786 -0.0691 -0.5222
41348SOL    HW227543   4.682   9.491   4.186 -1.3736  1.1475 -0.4938
41349SOL     OW27544   1.878   3.718   8.688  0.0910  0.0697 -0.1943
41349SOL    HW127545   1.903   3.753   8.602 -1.6318 -2.3390 -1.8284
41349SOL    HW227546   1.949   3.660   8.712  0.0021 -0.2248 -0.6343
41350SOL     OW27547   7.939   8.622   0.587  0.5643 -0.1954  0.4624
41350SOL    HW127548   7.846   8.612   0.565  0.8801 -1.0435 -0.5454
41350SOL    HW227549   7.940   8.689   0.656 -0.7099  0.4793 -0.1376
41351SOL     OW27550   2.423   8.877   2.307  0.4662 -0.7458 -0.1358
41351SOL    HW127551   2.367   8.855   2.232  2.1262 -1.5881 -1.1761
41351SOL    HW227552   2.434   8.795   2.353 -2.0852  0.0876  2.2350
41352SOL     OW27553  10.175   7.951   7.127  0.2792  0.0558  0.4116
41352SOL    HW127554  10.150   7.996   7.046 -2.4388 -1.5980  0.2070
41352SOL    HW227555  10.179   7.859   7.103 -0.3180 -0.4444  2.0907
41353SOL     OW27556   5.300  10.194   5.693 -0.4356  0.3564  0.3768
41353SOL    HW127557   5.221  10.207   5.747 -1.8173  0.8684 -1.6290
41353SOL    HW227558   5.274  10.226   5.606  1.3134 -1.4162 -0.8758
41354SOL     OW27559   4.600   1.702   7.779 -0.1806  0.0124  0.4154
41354SOL    HW127560   4.614   1.763   7.707  1.1832 -0.7285  0.0096
41354SOL    HW227561   4.508   1.714   7.804 -0.4119  0.9599 -0.8096
41355SOL     OW27562   2.938   4.409  10.402 -0.2722 -0.5159  0.5783
41355SOL    HW127563   2.931   4.432  10.495  0.8046 -1.5706  0.9564
41355SOL    HW227564   2.964   4.491  10.359 -0.5659 -0.0700  1.2322
41356SOL     OW27565   4.842   4.488   5.173 -0.4696  0.1687 -0.1377
41356SOL    HW127566   4.831   4.526   5.086  1.5410  1.8841  0.2846
41356SOL    HW227567   4.934   4.502   5.195 -0.4023 -2.1073  1.4473
41357SOL     OW27568   3.635   3.728  10.761 -0.3047 -0.1925 -0.2815
41357SOL    HW127569   3.707   3.675  10.727 -0.6681 -0.3533 -0.8160
41357SOL    HW227570   3.645   3.724  10.856 -0.3280 -1.2316 -0.3104
41358SOL     OW27571   5.218   8.676  10.522 -0.0145 -0.1590 -0.0167
41358SOL    HW127572   5.189   8.691  10.612 -0.0344 -0.7345  0.0731
41358SOL    HW227573   5.144   8.630  10.481  1.1819 -2.7262  0.5370
41359SOL     OW27574   1.316   6.267  10.473  0.0533 -0.0010 -0.5865
41359SOL    HW127575   1.398   6.300  10.437  0.9918  0.9162  2.1926
41359SOL    HW227576   1.336   6.245  10.564 -3.0716  1.5733  0.6312
41360SOL     OW27577   6.241   3.544   4.681 -0.0927 -0.3279  0.0327
41360SOL    HW127578   6.308   3.603   4.714  0.7259 -0.2298 -1.7254
41360SOL    HW227579   6.254   3.463   4.732  0.0823  0.3171  1.0449
41361SOL     OW27580   0.842   8.513  10.424 -0.1813  0.2329  0.1607
41361SOL    HW127581   0.839   8.480  10.335 -1.0216 -1.1433  0.6768
41361SOL    HW227582   0.932   8.545  10.435  0.4336 -1.1565 -0.6270
41362SOL     OW27583   6.391   1.281   9.548 -0.0009 -0.2050  0.1147
41362SOL    HW127584   6.321   1.300   9.485 -1.5305 -0.9518  1.5186
41362SOL    HW227585   6.432   1.201   9.516 -1.8127 -1.4981  0.8149
41363SOL     OW27586   3.799   6.729   5.113 -0.5710 -0.3606 -0.3994
41363SOL    HW127587   3.790   6.634   5.118  0.5923 -0.4805 -0.3725
41363SOL    HW227588   3.737   6.762   5.178  0.6742 -1.2043  1.3206
41364SOL     OW27589   6.381   6.604   9.455 -0.0721 -0.1319  0.0262
41364SOL    HW127590   6.299   6.575   9.416  0.1823 -1.1761  0.2351
41364SOL    HW227591   6.377   6.700   9.453 -0.6181 -0.1643 -1.3788
41365SOL     OW27592   9.802   4.697   8.157  0.1898  0.0231  0.4258
41365SOL    HW127593   9.777   4.783   8.190  1.1049 -0.3100  2.0984
41365SOL    HW227594   9.731   4.640   8.183  0.2702  0.0119  0.6216
41366SOL     OW27595   7.991   9.994   1.335 -0.1380  0.1416 -0.0783
41366SOL    HW127596   8.017  10.059   1.270  0.0404  0.6596  0.4946
41366SOL    HW227597   7.912   9.954   1.299 -0.2208  0.6442 -0.4690
41367SOL     OW27598   9.695   5.792   6.664 -0.2105 -0.1197  0.0310
41367SOL    HW127599   9.715   5.876   6.623  0.4849 -0.3453 -0.1009
41367SOL    HW227600   9.600   5.786   6.660 -0.2859  0.7775  0.2754
41368SOL     OW27601   3.762   7.849   6.404 -0.1471  0.1185 -0.4155
41368SOL    HW127602   3.814   7.828   6.326 -0.6009  0.6176 -0.8623
41368SOL    HW227603   3.732   7.939   6.389  0.1045  0.3722  0.5316
41369SOL     OW27604   3.705   5.407   0.001 -0.1884  0.3990  0.0831
41369SOL    HW127605   3.634   5.369   0.053 -1.8759  0.5235 -2.0169
41369SOL    HW227606   3.770   5.337  -0.006 -1.3790 -0.7075 -0.2823
41370SOL     OW27607  10.182   2.951   7.615 -0.3383 -0.5655 -0.4167
41370SOL    HW127608  10.216   2.913   7.534  0.9281  1.2003 -0.7688
41370SOL    HW227609  10.116   3.014   7.585  1.1975  1.2053 -0.2407
41371SOL     OW27610   0.806   3.745   6.119  0.3537 -0.3608 -0.0751
41371SOL    HW127611   0.853   3.697   6.050 -1.2642 -1.8835 -0.2060
41371SOL    HW227612   0.862   3.820   6.139  1.3990 -0.4741 -2.2664
41372SOL     OW27613   2.980   1.203   9.188  0.9562  0.4004 -0.3953
41372SOL    HW127614   3.001   1.296   9.195  0.3083  0.4470  1.5885
41372SOL    HW227615   3.028   1.173   9.110  0.7256  2.4802 -1.3998
41373SOL     OW27616   2.822   7.508   7.927 -0.2583 -0.5666  0.6243
41373SOL    HW127617   2.830   7.421   7.968 -1.5160 -0.9397  0.1338
41373SOL    HW227618   2.728   7.522   7.919 -0.0570  0.2070 -0.6570
41374SOL     OW27619   5.573   8.095   1.433  0.2557 -0.5593 -0.3520
41374SOL    HW127620   5.565   8.117   1.340  0.2756 -1.3513 -0.5537
41374SOL    HW227621   5.654   8.043   1.438  1.4562  1.2933  0.4773
41375SOL     OW27622   1.777   8.785   0.345  0.3279 -0.4194 -0.1196
41375SOL    HW127623   1.761   8.807   0.253  0.9762 -0.2249 -0.1890
41375SOL    HW227624   1.794   8.869   0.387 -0.7400 -0.4213  0.3472
41376SOL     OW27625   5.754   7.196   3.516  0.4871 -0.3958  0.0962
41376SOL    HW127626   5.739   7.135   3.588 -0.6872 -0.2386 -0.0013
41376SOL    HW227627   5.736   7.282   3.553  1.5472 -0.1464  0.0637
41377SOL     OW27628   1.362   2.022   7.581  0.5370  0.2411  0.5581
41377SOL    HW127629   1.402   1.938   7.558  0.0736 -0.6990  2.8663
41377SOL    HW227630   1.366   2.025   7.676 -0.3781  2.4030  0.5869
41378SOL     OW27631   2.049   7.325  10.247  0.4696  0.5490  0.1682
41378SOL    HW127632   2.016   7.412  10.271 -0.9205 -0.3002  1.5260
41378SOL    HW227633   2.103   7.298  10.322 -1.5870 -0.9550  1.2205
41379SOL     OW27634   7.635   5.175   5.143  0.4377 -0.3293 -0.4616
41379SOL    HW127635   7.562   5.122   5.111  0.0904  0.5106 -1.0987
41379SOL    HW227636   7.700   5.172   5.073  0.3286  0.2459 -0.5961
41380SOL     OW27637   6.260   4.889   6.796 -0.3399  0.2184  0.1532
41380SOL    HW127638   6.251   4.827   6.869 -2.2427  0.6254  0.2961
41380SOL    HW227639   6.176   4.933   6.791  0.7314  2.3035 -0.4343
41381SOL     OW27640   1.746   2.945   8.118  0.1608 -0.7034  0.2629
41381SOL    HW127641   1.798   3.019   8.089  0.0093 -0.1553  1.3441
41381SOL    HW227642   1.657   2.979   8.124  0.1772 -0.8281  1.2690
41382SOL     OW27643   2.596   7.001   9.231 -0.0424  0.3145  0.3303
41382SOL    HW127644   2.612   7.050   9.312 -0.7431 -0.8226  1.1917
41382SOL    HW227645   2.502   6.986   9.230 -0.6178  3.0976 -2.3927
41383SOL     OW27646   4.029   7.378   7.193  0.4683  0.3816 -0.8339
41383SOL    HW127647   4.046   7.290   7.228 -2.1092  0.2329  0.2653
41383SOL    HW227648   3.980   7.363   7.112 -2.7302  0.7002  0.9074
41384SOL     OW27649   6.683   4.759   8.434 -0.2134  0.4083  0.1831
41384SOL    HW127650   6.640   4.830   8.386 -0.4701  1.2019  1.5333
41384SOL    HW227651   6.690   4.791   8.524  0.5101 -0.9159  0.6327
41385SOL     OW27652   1.471   8.191   7.449  0.3112 -0.4666  0.0046
41385SOL    HW127653   1.525   8.269   7.432 -1.1602  1.1319  2.1943
41385SOL    HW227654   1.508   8.153   7.528  0.3608 -1.4352 -0.4677
41386SOL     OW27655   0.721   0.754   4.102 -0.3352 -0.0164  0.0691
41386SOL    HW127656   0.816   0.765   4.107 -0.1244 -1.5426 -0.1123
41386SOL    HW227657   0.689   0.778   4.189  0.2553  0.1395  0.2466
41387SOL     OW27658   6.187   3.246   2.773  0.4199  0.2844 -0.6604
41387SOL    HW127659   6.239   3.294   2.710  1.0835  1.5622  0.7908
41387SOL    HW227660   6.106   3.296   2.782  1.4750  1.7708  1.5162
41388SOL     OW27661   2.964   3.769   5.204 -0.4173 -0.2060 -0.1271
41388SOL    HW127662   2.946   3.857   5.237 -2.2883 -0.2166 -1.0075
41388SOL    HW227663   2.891   3.750   5.145  0.5347 -1.9206 -0.8149
41389SOL     OW27664   6.115   7.633   0.510  0.3573  0.1484  0.0402
41389SOL    HW127665   6.164   7.567   0.560  0.1379 -1.2984 -1.5430
41389SOL    HW227666   6.035   7.646   0.561  0.9021  0.0398  0.9545
41390SOL     OW27667   4.614   1.550   6.350  0.2262  0.0928  0.1204
41390SOL    HW127668   4.659   1.469   6.374 -1.2617 -0.7407  0.2384
41390SOL    HW227669   4.624   1.606   6.427  2.3566  0.5606 -0.4328
41391SOL     OW27670   1.084   1.980   3.303 -0.2947 -0.3628  0.2401
41391SOL    HW127671   1.038   1.905   3.340 -0.4579 -0.0753  0.6371
41391SOL    HW227672   1.170   1.979   3.346 -0.3750 -0.2048  0.4114
41392SOL     OW27673   7.186   3.914   2.449  0.0763  0.6364 -0.2307
41392SOL    HW127674   7.141   3.972   2.510 -0.3314  1.0282 -0.8895
41392SOL    HW227675   7.134   3.919   2.368  0.4246 -0.1127 -0.5116
41393SOL     OW27676   0.659   5.368   7.743  0.0854 -0.3611 -0.3641
41393SOL    HW127677   0.716   5.319   7.684 -1.9801 -3.1071 -0.3029
41393SOL    HW227678   0.714   5.390   7.818  1.6821 -0.6372 -1.4210
41394SOL     OW27679   9.547   2.285   7.535  1.1363 -0.3287  0.4215
41394SOL    HW127680   9.470   2.339   7.556  1.1360  0.2705 -0.9880
41394SOL    HW227681   9.563   2.235   7.615  1.1360  1.7690  1.8338
41395SOL     OW27682   0.207   8.232   5.677  0.1447  0.2262  0.0162
41395SOL    HW127683   0.296   8.235   5.643  0.2190 -1.2458  0.0169
41395SOL    HW227684   0.167   8.156   5.633 -0.7899  0.2638  0.7538
41396SOL     OW27685   1.323   1.838   4.005  0.2310 -0.3742  0.2190
41396SOL    HW127686   1.297   1.836   4.097  0.2064 -0.6550  0.2050
41396SOL    HW227687   1.315   1.931   3.980 -1.0462 -0.4899  0.1307
41397SOL     OW27688   6.196   9.733  10.290 -0.4118  0.5446 -0.4279
41397SOL    HW127689   6.191   9.691  10.205 -0.9476 -0.3833  0.0420
41397SOL    HW227690   6.122   9.697  10.339 -0.8277  1.9736  0.0361
41398SOL     OW27691  10.789   0.750   4.211  0.4108 -0.2863  0.4741
41398SOL    HW127692  10.812   0.834   4.169 -0.8072 -0.3147 -0.2928
41398SOL    HW227693  10.868   0.696   4.200  0.0296 -0.4258 -2.1803
41399SOL     OW27694   1.442  10.298   4.878 -0.0226 -0.3713  0.3702
41399SOL    HW127695   1.490  10.375   4.909 -2.1872  1.8010 -1.2948
41399SOL    HW227696   1.378  10.281   4.947 -0.4076  0.1900  0.1603
41400SOL     OW27697   9.757   4.325   4.010 -0.5990  0.7233 -0.0601
41400SOL    HW127698   9.751   4.417   3.983 -0.1610  0.5709 -0.6954
41400SOL    HW227699   9.707   4.277   3.944 -1.3178  0.5527  0.5890
41401SOL     OW27700   5.440   5.806   7.335  0.1628 -0.1853 -0.4484
41401SOL    HW127701   5.469   5.832   7.422 -0.3490 -0.1656 -0.2759
41401SOL    HW227702   5.514   5.758   7.297  1.2504  1.7243 -0.8904
41402SOL     OW27703   5.586   5.332   2.346 -0.2613 -0.1933 -0.3104
41402SOL    HW127704   5.596   5.383   2.266  1.5037  1.6890  1.0182
41402SOL    HW227705   5.670   5.286   2.356 -1.1221 -1.8790 -0.4515
41403SOL     OW27706   6.003  10.789  10.862 -0.1787  0.2597  0.2672
41403SOL    HW127707   6.065  10.757  10.797 -0.1254 -0.6397  0.7504
41403SOL    HW227708   5.920  10.747  10.840 -0.5464  1.1562 -0.1426
41404SOL     OW27709   1.508   6.495   4.904 -0.4678 -0.2650 -0.6378
41404SOL    HW127710   1.417   6.524   4.892  0.1542  1.7397 -0.9573
41404SOL    HW227711   1.556   6.576   4.923  1.0872 -1.4244  0.6061
41405SOL     OW27712   6.139   8.597   7.994  0.0012 -0.2215  0.6337
41405SOL    HW127713   6.071   8.533   7.976  0.6726 -0.5053 -1.0715
41405SOL    HW227714   6.114   8.674   7.944  0.7868 -0.2519  0.1682
41406SOL     OW27715   9.869   6.787   4.233 -0.7776 -0.2969 -0.0585
41406SOL    HW127716   9.901   6.859   4.179 -2.4258 -0.4904 -1.3653
41406SOL    HW227717   9.876   6.820   4.323 -4.6404  3.0105 -0.6965
41407SOL     OW27718   0.197   1.644   9.568  0.3389  0.4387 -0.0206
41407SOL    HW127719   0.160   1.654   9.481 -0.5480  2.1018  0.5057
41407SOL    HW227720   0.120   1.630   9.625  0.8918 -0.5297  0.5119
41408SOL     OW27721   4.509   7.426   7.411  0.4892 -0.1401  0.0050
41408SOL    HW127722   4.415   7.445   7.408  0.3575 -0.8572 -1.2371
41408SOL    HW227723   4.533   7.439   7.502 -0.8256  0.0302  0.3530
41409SOL     OW27724   4.682   7.355   9.403 -0.4455  0.1618 -0.0244
41409SOL    HW127725   4.776   7.365   9.393 -0.3140 -1.0492 -0.0915
41409SOL    HW227726   4.663   7.266   9.373 -1.3424 -0.2721  1.6879
41410SOL     OW27727   3.799   9.923   3.540  0.1665  0.4082 -0.7030
41410SOL    HW127728   3.803   9.956   3.629  1.6319 -0.0739 -0.5665
41410SOL    HW227729   3.853   9.983   3.489  0.6602 -0.2297 -0.9541
41411SOL     OW27730   4.570   7.927   5.993 -1.1655 -0.2987  0.7259
41411SOL    HW127731   4.563   7.837   5.958  1.0552 -0.3605  0.3345
41411SOL    HW227732   4.609   7.916   6.080 -0.0102  0.3172  0.3060
41412SOL     OW27733   0.181   6.914  10.065  0.2447 -0.1896 -0.0874
41412SOL    HW127734   0.091   6.892  10.092  1.2348 -1.6501  2.3413
41412SOL    HW227735   0.190   6.873   9.979 -1.6456  0.6641 -0.7484
41413SOL     OW27736  10.988   7.425   2.948  0.0772 -0.3926 -0.0158
41413SOL    HW127737  10.896   7.400   2.943 -0.0311 -0.6594  2.2397
41413SOL    HW227738  10.988   7.520   2.936 -0.4010 -0.4675 -0.6819
41414SOL     OW27739   6.585   0.025   3.974  0.1369 -0.3595 -0.1522
41414SOL    HW127740   6.518  -0.031   3.935 -0.1593  0.9316 -1.5959
41414SOL    HW227741   6.642   0.049   3.901  1.1633 -0.0354  0.7245
41415SOL     OW27742   7.076   2.979   4.594 -0.2768  0.6399 -0.0084
41415SOL    HW127743   7.154   2.972   4.649 -0.5088  1.3438  0.4244
41415SOL    HW227744   7.105   2.949   4.508 -0.2330 -1.7201  0.7668
41416SOL     OW27745   0.656   5.501   0.635 -0.3237  0.8895  0.3770
41416SOL    HW127746   0.672   5.573   0.696 -0.2203  1.0057  0.2145
41416SOL    HW227747   0.739   5.453   0.633 -0.9478 -0.3380  1.9123
41417SOL     OW27748   6.102   0.605   3.689  0.3350  0.1933 -0.4602
41417SOL    HW127749   6.165   0.658   3.640 -1.6538  1.6149 -1.6127
41417SOL    HW227750   6.079   0.660   3.765 -0.2614  0.1196 -0.5893
41418SOL     OW27751   3.807   9.777  10.847  0.2826 -0.4282 -0.0809
41418SOL    HW127752   3.898   9.758  10.871 -0.2106  0.3160  2.7371
41418SOL    HW227753   3.812   9.859  10.797  1.0300  1.1678  2.4187
41419SOL     OW27754  10.139   1.214   4.941  0.1440 -0.4442  0.4561
41419SOL    HW127755  10.115   1.289   4.997 -1.0470 -0.5416  0.0884
41419SOL    HW227756  10.096   1.231   4.858  2.9392  0.3549 -0.9438
41420SOL     OW27757   5.804   0.431   8.857 -0.2805  0.0080 -0.2688
41420SOL    HW127758   5.782   0.454   8.767 -0.2332  1.7340  0.1351
41420SOL    HW227759   5.871   0.363   8.849 -0.3908  0.0263 -1.5206
41421SOL     OW27760   2.836   2.051   3.982 -0.0329  0.1251  0.2440
41421SOL    HW127761   2.849   2.077   3.891 -1.7520  0.7978  0.1615
41421SOL    HW227762   2.836   1.955   3.979 -2.0342  0.1048 -0.8220
41422SOL     OW27763   8.021   3.392   4.040 -0.0367 -0.4248 -0.5056
41422SOL    HW127764   8.112   3.389   4.010 -0.0164 -0.5919 -0.4309
41422SOL    HW227765   8.015   3.470   4.094  0.4537 -1.2245  0.7430
41423SOL     OW27766   9.435   4.833   1.194 -0.0474 -0.5163  0.0384
41423SOL    HW127767   9.367   4.894   1.168  0.8182  0.0466 -0.9737
41423SOL    HW227768   9.398   4.786   1.269 -2.3661 -1.6818 -1.7111
41424SOL     OW27769   6.818   0.188  10.798  0.4752 -0.3678 -0.2419
41424SOL    HW127770   6.770   0.244  10.858  1.1033 -0.1073  0.0298
41424SOL    HW227771   6.798   0.223  10.711  0.5288  0.0181 -0.1007
41425SOL     OW27772   3.499   0.566   2.886  0.3382  0.5832 -0.1135
41425SOL    HW127773   3.474   0.657   2.867 -2.2613 -0.0400 -0.0878
41425SOL    HW227774   3.471   0.517   2.809 -1.7366 -0.6494  1.3213
41426SOL     OW27775   1.178   0.006   1.639 -0.5854  0.4485 -0.3131
41426SOL    HW127776   1.187  -0.089   1.644 -4.8025 -0.2434 -1.9094
41426SOL    HW227777   1.153   0.032   1.728 -2.0574 -0.4083 -0.4459
41427SOL     OW27778   2.023   5.778   3.599  0.0903 -0.3549 -0.3052
41427SOL    HW127779   2.093   5.825   3.642  0.0817  0.3254 -1.0185
41427SOL    HW227780   1.960   5.845   3.573 -2.4478 -1.1235  3.0446
41428SOL     OW27781   4.097   7.103   0.571 -0.3356 -0.6297  0.5831
41428SOL    HW127782   4.078   7.131   0.481 -1.0217  1.3863  1.3023
41428SOL    HW227783   4.096   7.007   0.567  1.2287 -0.6291 -1.8577
41429SOL     OW27784   8.467   2.363   1.693  0.1363 -0.1251  0.4475
41429SOL    HW127785   8.425   2.315   1.621 -0.5751 -0.8122  1.2965
41429SOL    HW227786   8.399   2.369   1.760 -0.1021  2.8794  0.0436
41430SOL     OW27787   7.072   3.267   4.653 -0.1227 -0.5838  0.2168
41430SOL    HW127788   7.034   3.179   4.646 -3.3322  0.5690  1.4270
41430SOL    HW227789   7.083   3.295   4.563 -1.1743 -1.4227 -0.2045
41431SOL     OW27790   6.572   5.305   3.881  0.4769  0.0286 -0.0044
41431SOL    HW127791   6.520   5.313   3.961  0.8447  0.3525  0.2040
41431SOL    HW227792   6.605   5.393   3.864  1.7040 -0.3241  0.3814
41432SOL     OW27793   5.912   7.553   9.357 -0.1136  0.3405  0.2141
41432SOL    HW127794   5.964   7.472   9.356  0.5534  0.7188  1.5527
41432SOL    HW227795   5.975   7.622   9.334 -1.3074  0.2449 -4.0402
41433SOL     OW27796   3.966   5.013   9.738 -0.1460 -0.1621  0.0987
41433SOL    HW127797   3.968   4.977   9.649  0.4499 -2.3974  0.9511
41433SOL    HW227798   4.058   5.018   9.764 -0.3648 -1.5976  1.3111
41434SOL     OW27799   8.217   2.265   1.025 -0.2365 -0.0585 -0.3270
41434SOL    HW127800   8.175   2.200   0.969  0.8610 -0.5267 -0.6373
41434SOL    HW227801   8.269   2.213   1.087 -0.2883  0.4942  0.1846
41435SOL     OW27802  10.332   6.172   1.071 -0.0336 -0.0631 -0.1659
41435SOL    HW127803  10.409   6.221   1.100  0.2740 -0.1659 -0.7869
41435SOL    HW227804  10.345   6.161   0.977 -0.1759 -1.1743 -0.0766
41436SOL     OW27805  10.687   4.232   2.129  0.4869  0.2952  0.2332
41436SOL    HW127806  10.715   4.195   2.213 -0.8162  2.1116  1.5529
41436SOL    HW227807  10.689   4.327   2.143 -0.2019  0.6344 -1.6645
41437SOL     OW27808   2.494   5.305   8.243 -0.3977  0.0140 -0.3230
41437SOL    HW127809   2.433   5.232   8.253 -2.3705  1.6714  0.6291
41437SOL    HW227810   2.568   5.283   8.300 -0.9453 -1.2193 -0.0509
41438SOL     OW27811   8.522   9.711   2.656  0.5296  0.2776  0.3914
41438SOL    HW127812   8.504   9.759   2.575 -0.4055  0.5624  0.7524
41438SOL    HW227813   8.438   9.677   2.683  0.9912 -0.5807  0.7774
41439SOL     OW27814   8.743   5.407   7.577 -0.1153  0.0313 -0.0945
41439SOL    HW127815   8.742   5.475   7.510  0.2844 -0.2836 -0.4203
41439SOL    HW227816   8.671   5.431   7.636  1.2368  1.8508  0.9160
41440SOL     OW27817   8.447   5.932   7.295 -0.2116 -0.2446 -0.4315
41440SOL    HW127818   8.400   5.985   7.231 -1.9944  0.2625  1.2344
41440SOL    HW227819   8.454   5.988   7.372  0.1022 -1.5458  0.5067
41441SOL     OW27820   9.019   8.413   1.934  0.3962 -0.3390 -0.4470
41441SOL    HW127821   8.924   8.401   1.932  0.3395  0.1419 -0.6763
41441SOL    HW227822   9.036   8.454   2.019  0.4161 -0.5441 -0.3506
41442SOL     OW27823   0.681   3.694   1.511  0.0142  0.5581  0.8817
41442SOL    HW127824   0.643   3.612   1.543  1.3377 -0.3880  0.1703
41442SOL    HW227825   0.698   3.677   1.418  3.2230  0.4112  1.3793
41443SOL     OW27826   1.936   3.404   5.226  0.2296 -0.1777  0.7059
41443SOL    HW127827   1.980   3.488   5.242  0.8398 -0.2477 -0.5136
41443SOL    HW227828   1.855   3.427   5.181  0.9676 -0.2960 -0.7281
41444SOL     OW27829   5.273  10.803  10.402 -0.5911  0.1921  0.4563
41444SOL    HW127830   5.262  10.898  10.394  0.7886  0.3254 -0.0814
41444SOL    HW227831   5.222  10.779  10.480 -0.7435  1.4016  0.7429
41445SOL     OW27832   8.328  10.840   0.831  0.2686 -0.0992 -0.4560
41445SOL    HW127833   8.351  10.888   0.751 -0.3397 -0.2105 -0.7051
41445SOL    HW227834   8.409  10.797   0.857  0.4439 -0.1812 -1.1000
41446SOL     OW27835   6.917   4.112   3.344  0.3941  0.3074 -0.5225
41446SOL    HW127836   6.844   4.051   3.341  0.8046 -0.1652 -1.0365
41446SOL    HW227837   6.877   4.198   3.331 -0.2426  0.2176  0.6579
41447SOL     OW27838   5.211   1.577   1.528 -0.0812  0.3408 -0.1620
41447SOL    HW127839   5.159   1.658   1.527  1.0513  1.1013 -1.3863
41447SOL    HW227840   5.153   1.511   1.491 -0.3422  1.0778 -1.1263
41448SOL     OW27841   8.885   5.507   4.079  0.0874 -0.5520  0.1114
41448SOL    HW127842   8.827   5.569   4.121  1.0819 -0.2044  1.0145
41448SOL    HW227843   8.871   5.425   4.126 -0.5431 -0.7812 -0.4661
41449SOL     OW27844   4.734   9.681   8.588 -0.1448 -0.2493  0.0195
41449SOL    HW127845   4.753   9.639   8.672 -1.5407 -2.4064 -0.6627
41449SOL    HW227846   4.667   9.746   8.608 -1.1988 -1.4403  0.4472
41450SOL     OW27847   0.729   9.978   0.746 -0.3552  0.4453  0.4050
41450SOL    HW127848   0.779   9.936   0.676 -0.3779  0.4503  0.3864
41450SOL    HW227849   0.767   9.943   0.826 -0.4248  0.3326  0.3884
41451SOL     OW27850   7.561   0.892   6.817  0.2510  0.0581 -0.1921
41451SOL    HW127851   7.590   0.963   6.760 -0.1561 -0.7201 -1.4025
41451SOL    HW227852   7.634   0.830   6.817 -0.2905 -0.6005 -1.0166
41452SOL     OW27853   2.020   7.807   2.027 -0.4430  0.1722  0.3648
41452SOL    HW127854   2.006   7.878   2.089  0.9696  0.2576  0.6231
41452SOL    HW227855   2.111   7.780   2.041 -1.2967 -2.6221  1.2304
41453SOL     OW27856   3.176   9.008   2.833 -0.3394 -0.1856  0.1513
41453SOL    HW127857   3.130   9.017   2.916 -1.0863 -0.4523 -0.2225
41453SOL    HW227858   3.267   9.028   2.853 -0.6806  0.7502  0.8275
41454SOL     OW27859   7.965   6.521   2.523 -0.4795  0.0207 -0.0726
41454SOL    HW127860   7.938   6.458   2.455 -1.1318  1.8204 -1.5630
41454SOL    HW227861   8.060   6.529   2.511 -0.4709 -0.2794 -0.2298
41455SOL     OW27862   7.548   0.198   0.576  0.5178 -0.5548  0.7427
41455SOL    HW127863   7.484   0.149   0.628  0.2395  0.7105  1.6368
41455SOL    HW227864   7.629   0.194   0.627  0.5556 -0.2740  0.7048
41456SOL     OW27865   5.639   7.094   6.262  0.1993  0.2052 -0.2809
41456SOL    HW127866   5.574   7.163   6.249 -0.2953 -0.6201 -2.7375
41456SOL    HW227867   5.661   7.099   6.355 -0.3834  3.1297 -0.2033
41457SOL     OW27868   5.141   0.046   7.510  0.0787  0.3292  0.4219
41457SOL    HW127869   5.108   0.006   7.430 -0.7778  1.5808  0.1184
41457SOL    HW227870   5.071   0.031   7.574  1.2657 -1.7162  1.3052
41458SOL     OW27871   8.226   7.965   0.432 -0.6460 -0.0402  0.6081
41458SOL    HW127872   8.150   8.000   0.385 -1.4493  0.0913  1.9453
41458SOL    HW227873   8.298   7.972   0.370 -1.8173 -0.6127 -0.8799
41459SOL     OW27874   3.043   2.392   0.849  1.2273  0.1128 -0.2487
41459SOL    HW127875   2.962   2.356   0.885  1.4439  0.0776  0.2168
41459SOL    HW227876   3.018   2.477   0.814  0.9361 -0.0123 -0.3520
41460SOL     OW27877   1.464   6.744   5.349 -0.2263  0.3110 -0.0696
41460SOL    HW127878   1.472   6.810   5.280  1.8420  1.2640  0.9810
41460SOL    HW227879   1.374   6.754   5.381 -0.5392  1.3319 -1.1773
41461SOL     OW27880   2.196   6.151   9.493  0.3446 -0.0808  0.4410
41461SOL    HW127881   2.110   6.165   9.453  1.0138  1.0936 -0.6852
41461SOL    HW227882   2.177   6.116   9.580 -1.1971 -2.8162 -0.8619
41462SOL     OW27883   8.909  10.191  10.932  0.8080 -0.1893  0.7592
41462SOL    HW127884   8.968  10.116  10.929 -0.3053 -1.0590 -0.6379
41462SOL    HW227885   8.892  10.212  10.841  1.3708  2.0433  1.1039
41463SOL     OW27886   5.259   4.078   9.244  1.1292 -0.8159 -0.2842
41463SOL    HW127887   5.166   4.071   9.262  0.9987  0.1613 -0.5451
41463SOL    HW227888   5.273   4.169   9.219  2.2615 -0.7928  0.3453
41464SOL     OW27889   3.287   3.630   0.020  0.0872 -0.0459  0.4493
41464SOL    HW127890   3.294   3.637  -0.075 -2.1513 -0.1040  0.2274
41464SOL    HW227891   3.320   3.543   0.041 -0.6830 -0.5661 -0.4541
41465SOL     OW27892   3.247   9.983   9.406  1.1012 -1.2728  0.3197
41465SOL    HW127893   3.207  10.064   9.375  3.2881  0.8027  2.4786
41465SOL    HW227894   3.188   9.950   9.474  1.5461  0.1543  1.4397
41466SOL     OW27895   5.019   5.669  10.131 -0.0938  0.1571 -0.0228
41466SOL    HW127896   5.002   5.640  10.041 -2.3344 -0.0912  0.4131
41466SOL    HW227897   4.971   5.751  10.139 -0.3866 -0.1004  1.0822
41467SOL     OW27898   2.748   6.601   7.015 -0.0827  0.3699  0.3800
41467SOL    HW127899   2.754   6.667   7.085 -0.2208 -0.2132  0.9529
41467SOL    HW227900   2.822   6.619   6.959  2.9442 -2.0539  3.2102
41468SOL     OW27901   2.115   5.560   4.104 -0.5958  0.2290 -0.1067
41468SOL    HW127902   2.043   5.498   4.092 -1.2014  1.2359 -2.1633
41468SOL    HW227903   2.191   5.516   4.066 -0.7124  0.1840 -0.2890
41469SOL     OW27904   4.513   2.006   5.465 -0.6783  0.1902 -0.4937
41469SOL    HW127905   4.462   1.927   5.481  0.8457 -1.2758 -2.3693
41469SOL    HW227906   4.485   2.036   5.378 -1.7649  2.2032  0.4820
41470SOL     OW27907   9.581   2.418   4.757 -0.1097 -0.2451  0.4460
41470SOL    HW127908   9.661   2.436   4.707  0.0413 -0.2073  0.6968
41470SOL    HW227909   9.533   2.355   4.704 -0.7462  1.0224 -0.5644
41471SOL     OW27910   8.408   9.474   8.302  0.3147  0.1564 -0.0164
41471SOL    HW127911   8.466   9.530   8.354  0.0231  1.6756 -1.2356
41471SOL    HW227912   8.466   9.436   8.235  0.5696 -1.2874  0.9921
41472SOL     OW27913   1.206   6.870   7.210  0.1420 -0.1713 -0.1087
41472SOL    HW127914   1.221   6.870   7.304  0.9032 -0.2257 -0.2191
41472SOL    HW227915   1.179   6.780   7.190 -2.8930  0.4953  0.4411
41473SOL     OW27916   9.284   8.424   7.471 -0.1225 -0.0767  0.0589
41473SOL    HW127917   9.235   8.506   7.461  2.1842  1.4293  0.3898
41473SOL    HW227918   9.264   8.395   7.560 -4.4893 -2.4550 -1.3979
41474SOL     OW27919   5.060   1.186   2.601 -0.1042 -0.0107 -0.2323
41474SOL    HW127920   5.007   1.204   2.678 -0.5093 -1.8652 -0.0452
41474SOL    HW227921   5.047   1.263   2.545 -0.0446  1.2205  1.3771
41475SOL     OW27922   1.105   1.746   2.841 -0.0721  0.5219 -0.4882
41475SOL    HW127923   1.014   1.773   2.828 -0.0336  0.3400 -1.1853
41475SOL    HW227924   1.111   1.725   2.934 -0.9513 -0.2040 -0.5811
41476SOL     OW27925   0.869   4.690   5.555 -0.2568 -0.4263 -0.5294
41476SOL    HW127926   0.830   4.673   5.469  2.9532  1.2914 -2.5154
41476SOL    HW227927   0.885   4.602   5.591 -2.2853 -1.1808 -1.3165
41477SOL     OW27928   1.682   6.291   1.455 -0.2513  0.2905  0.1509
41477SOL    HW127929   1.597   6.246   1.451  0.4796 -1.3708  1.6501
41477SOL    HW227930   1.726   6.263   1.375 -0.4783 -0.2670  0.2088
41478SOL     OW27931   3.605   4.843   5.059 -0.0269  0.2187  0.2175
41478SOL    HW127932   3.525   4.876   5.019 -0.3962 -1.7889 -0.8208
41478SOL    HW227933   3.588   4.750   5.074  2.4187 -0.4864 -0.9382
41479SOL     OW27934   1.828   2.259   2.035  0.4372 -0.0465 -0.4650
41479SOL    HW127935   1.795   2.293   2.117  1.6972  2.7486 -1.0103
41479SOL    HW227936   1.751   2.249   1.980 -0.1223  0.7519  0.1621
41480SOL     OW27937   7.016   3.324   9.399  0.1063  0.0578  0.3117
41480SOL    HW127938   6.947   3.263   9.374 -0.8822  0.2234  2.4555
41480SOL    HW227939   6.969   3.401   9.431  1.3230  0.9451  0.0541
41481SOL     OW27940   9.956   7.774   4.301 -0.2835 -0.0302  0.3972
41481SOL    HW127941   9.983   7.864   4.321 -0.0310 -0.4275  1.9769
41481SOL    HW227942  10.033   7.721   4.322  0.5075 -0.4604 -2.9559
41482SOL     OW27943   4.126   8.176   9.472  0.1636  0.3651  0.2312
41482SOL    HW127944   4.105   8.269   9.482  1.9418  0.6984  1.1806
41482SOL    HW227945   4.193   8.159   9.538 -0.5307 -1.7435  0.4418
41483SOL     OW27946   6.463   9.590  10.203 -0.3453 -0.1995 -0.3431
41483SOL    HW127947   6.394   9.649  10.234  0.2092  1.1906 -1.5942
41483SOL    HW227948   6.434   9.503  10.228 -2.2806  0.3982 -0.3455
41484SOL     OW27949   7.896   8.206   2.762 -0.1874  0.0594  0.2312
41484SOL    HW127950   7.946   8.234   2.839  4.1570  1.3744 -2.6728
41484SOL    HW227951   7.897   8.110   2.767  2.0250  0.0475  0.7582
41485SOL     OW27952   4.310   7.781   6.128 -0.1506  0.3338 -0.1718
41485SOL    HW127953   4.259   7.849   6.174  0.5645  0.4646  0.4482
41485SOL    HW227954   4.343   7.824   6.050 -1.5741  0.0464 -0.9598
41486SOL     OW27955   4.613   8.418   4.087 -0.0202  0.0173  0.2520
41486SOL    HW127956   4.558   8.404   4.165 -0.5996  0.0458 -0.1433
41486SOL    HW227957   4.551   8.420   4.015  0.4672  0.4839 -0.1594
41487SOL     OW27958   4.725   9.580   6.217 -0.1888  0.0593  0.8264
41487SOL    HW127959   4.812   9.609   6.246  0.3619 -0.5944 -0.1102
41487SOL    HW227960   4.669   9.590   6.294  0.4389  1.6157  1.1055
41488SOL     OW27961   6.549   1.413   8.707  0.2809  0.5068  0.7378
41488SOL    HW127962   6.491   1.478   8.746  0.6297  2.0288 -1.1537
41488SOL    HW227963   6.495   1.334   8.699 -0.9606  1.3393  0.6956
41489SOL     OW27964   0.834   3.164   6.810  0.1740 -0.4463 -0.1349
41489SOL    HW127965   0.870   3.217   6.881 -0.3802  1.0250 -0.9098
41489SOL    HW227966   0.739   3.177   6.817  0.1039 -0.4514 -1.0156
41490SOL     OW27967   4.316   7.428   4.954 -0.0997  0.0542  0.1071
41490SOL    HW127968   4.337   7.499   5.014  0.1287 -0.5181  0.7087
41490SOL    HW227969   4.257   7.468   4.890 -1.0494  0.4497  1.2114
41491SOL     OW27970   9.229   3.014   8.885  0.2530  0.3213  0.1872
41491SOL    HW127971   9.271   2.937   8.925  1.7631  0.4062 -1.1203
41491SOL    HW227972   9.249   3.006   8.792  0.2641  2.1758 -0.0026
41492SOL     OW27973   9.501   4.683   5.947 -0.7648  0.3216  0.0736
41492SOL    HW127974   9.512   4.635   6.029 -1.3616 -1.7880 -1.0253
41492SOL    HW227975   9.565   4.645   5.888 -1.6084  0.4931 -0.9892
41493SOL     OW27976   9.655   6.154   4.946  0.0984 -0.2079 -0.2954
41493SOL    HW127977   9.679   6.174   4.855  1.7538  0.6409  0.2952
41493SOL    HW227978   9.583   6.214   4.964  1.0335  1.0158 -0.4731
41494SOL     OW27979   6.935   1.980  10.047  0.3392 -0.4682 -0.4741
41494SOL    HW127980   6.858   1.993   9.992  0.1021 -0.4223 -0.1352
41494SOL    HW227981   6.935   1.886  10.067  0.5206 -0.5137 -0.6961
41495SOL     OW27982   2.606   7.338   6.958 -0.4031  0.2986  0.2857
41495SOL    HW127983   2.517   7.371   6.946 -0.8409  0.3203  3.0588
41495SOL    HW227984   2.595   7.247   6.985  0.3624  0.4580  1.2169
41496SOL     OW27985   1.882   2.257   8.105  0.1273  0.3342 -0.2834
41496SOL    HW127986   1.816   2.326   8.091 -1.2724 -0.6959  0.9262
41496SOL    HW227987   1.946   2.298   8.162 -0.2260  0.9024 -0.2767
41497SOL     OW27988  10.081   2.005   0.850 -0.4981  0.1097 -0.0798
41497SOL    HW127989  10.157   1.947   0.852 -1.2122 -0.8912 -0.6499
41497SOL    HW227990  10.057   2.016   0.942 -0.9133 -1.3025  0.0078
41498SOL     OW27991   3.802   2.884  10.456  0.3355 -0.2921 -0.0530
41498SOL    HW127992   3.805   2.822  10.384  0.1464 -1.4430  0.8948
41498SOL    HW227993   3.808   2.970  10.415  1.0914 -0.9495 -1.3606
41499SOL     OW27994   5.162   1.588   3.146  0.2878 -0.2513  0.1429
41499SOL    HW127995   5.173   1.666   3.091  0.3388  0.1015  0.6498
41499SOL    HW227996   5.160   1.515   3.084  0.2351  0.1545 -0.3353
41500SOL     OW27997   2.843   6.715   6.253  0.0158  0.3233  0.2388
41500SOL    HW127998   2.911   6.737   6.190  1.0441  0.0677  1.2352
41500SOL    HW227999   2.847   6.785   6.319  1.2900 -1.1522  1.8208
41501SOL     OW28000   2.905   3.153   7.935 -0.1005 -0.0885  0.0583
41501SOL    HW128001   2.985   3.139   7.986  0.0631 -0.2989 -0.2547
41501SOL    HW228002   2.891   3.248   7.940 -1.4229 -0.3432  2.4837
41502SOL     OW28003   7.698   5.785   7.989 -0.2365 -0.0552  0.0194
41502SOL    HW128004   7.666   5.786   7.899  0.9102  0.7163 -0.3988
41502SOL    HW228005   7.639   5.845   8.036 -1.2351 -0.9583 -0.0603
41503SOL     OW28006   0.487   4.236   5.890  0.0608 -0.1398 -0.2344
41503SOL    HW128007   0.418   4.280   5.939 -0.0250 -0.1998 -0.3020
41503SOL    HW228008   0.515   4.164   5.947  0.8710  0.5833  0.3019
41504SOL     OW28009   1.030   0.813   5.585  0.2547 -0.2444 -0.0153
41504SOL    HW128010   0.978   0.748   5.537 -0.2802  0.9055 -1.0870
41504SOL    HW228011   1.025   0.786   5.676  0.7281 -2.1357 -0.5047
41505SOL     OW28012   0.423   2.265   5.565 -1.1797  0.1255  0.5358
41505SOL    HW128013   0.439   2.356   5.592 -0.0933  0.2701 -0.5177
41505SOL    HW228014   0.460   2.212   5.636 -0.3997  0.5040  0.4215
41506SOL     OW28015   0.456   7.057   7.630 -0.2903  0.3969  0.3412
41506SOL    HW128016   0.521   7.120   7.599 -0.1941  0.8259  1.3771
41506SOL    HW228017   0.462   6.984   7.568  1.2686  0.3793  0.4677
41507SOL     OW28018   6.321   3.534   0.282 -0.1336  0.2442  0.1805
41507SOL    HW128019   6.266   3.463   0.247  0.4695  0.5894 -1.5400
41507SOL    HW228020   6.411   3.504   0.266  0.1328  1.7639 -1.4477
41508SOL     OW28021   7.685   9.626   0.100  0.7479 -0.0732 -0.1643
41508SOL    HW128022   7.767   9.595   0.060  0.3021  0.2970 -1.4086
41508SOL    HW228023   7.616   9.577   0.054  0.1780  0.9592 -0.4401
41509SOL     OW28024   6.678   6.821   0.933 -0.1738  0.8603 -0.2482
41509SOL    HW128025   6.656   6.739   0.978  2.4052  1.3028  2.0911
41509SOL    HW228026   6.673   6.800   0.840  0.4593 -1.9815  0.2726
41510SOL     OW28027   3.648   2.483   2.359  0.0523  0.3170  0.2300
41510SOL    HW128028   3.611   2.407   2.313 -1.2761  1.7258 -1.1352
41510SOL    HW228029   3.666   2.546   2.290 -0.0495  1.7253  1.4582
41511SOL     OW28030   3.172   3.818   7.320 -0.5393 -0.3710  0.2465
41511SOL    HW128031   3.197   3.742   7.372  0.5822  1.2521  2.2350
41511SOL    HW228032   3.250   3.837   7.267 -0.4841 -0.0957  0.4229
41512SOL     OW28033   9.707   2.055   6.697  0.3203  0.2763  0.1324
41512SOL    HW128034   9.782   2.113   6.688  1.1786 -1.0735 -1.9695
41512SOL    HW228035   9.631   2.113   6.697  1.2626  1.5935  1.4542
41513SOL     OW28036   2.571   2.066   2.942  0.1226  0.5169 -0.1220
41513SOL    HW128037   2.537   2.155   2.945 -2.5234 -0.4241  1.6060
41513SOL    HW228038   2.611   2.051   3.028  0.1342 -0.1057 -0.2271
41514SOL     OW28039   7.035   8.059   3.961 -0.3846  0.3188 -0.5498
41514SOL    HW128040   7.127   8.044   3.937 -0.7021 -1.7908 -0.6918
41514SOL    HW228041   6.992   7.976   3.942 -2.4031  1.3512 -0.7426
41515SOL     OW28042   4.305   4.763   1.016  0.0664 -0.1282 -0.5546
41515SOL    HW128043   4.391   4.745   1.055 -0.0688  0.3586 -0.0012
41515SOL    HW228044   4.296   4.699   0.946 -0.1539 -1.7789  0.9356
41516SOL     OW28045   1.163   3.329   4.138  0.6427 -0.2123 -0.4368
41516SOL    HW128046   1.144   3.326   4.232 -0.0250  0.6019 -0.5278
41516SOL    HW228047   1.101   3.394   4.103  1.2097 -0.1401 -1.3565
41517SOL     OW28048   4.232   1.733   9.683 -0.7014 -0.0084  0.3316
41517SOL    HW128049   4.262   1.667   9.746 -2.7688 -0.3860  1.0170
41517SOL    HW228050   4.161   1.778   9.729 -1.1420  0.8438 -1.1452
41518SOL     OW28051   6.588  10.394   7.694 -0.4589 -0.0372 -0.1978
41518SOL    HW128052   6.566  10.476   7.649  1.6260  0.5357 -0.2985
41518SOL    HW228053   6.546  10.402   7.779  2.0501  2.6226  1.0098
41519SOL     OW28054   4.426   3.525   4.713 -0.1571  0.5265  0.3665
41519SOL    HW128055   4.422   3.430   4.725  2.4034  0.3070 -0.0057
41519SOL    HW228056   4.431   3.537   4.618 -0.4384  1.0383  0.4152
41520SOL     OW28057   7.739   3.319   4.189 -0.4176 -0.3039  0.2850
41520SOL    HW128058   7.705   3.329   4.278  0.8877  0.1972  0.7621
41520SOL    HW228059   7.833   3.333   4.198  0.0359 -2.2076 -0.8680
41521SOL     OW28060   3.706   6.579   6.497  0.7973  0.4353 -0.1216
41521SOL    HW128061   3.679   6.592   6.406  2.8103  2.1211 -0.5692
41521SOL    HW228062   3.692   6.665   6.538  2.7273  0.5978  0.3022
41522SOL     OW28063  10.355   3.808   9.544 -0.5294 -0.3222  0.0859
41522SOL    HW128064  10.449   3.824   9.549 -0.3604 -0.4987 -1.7130
41522SOL    HW228065  10.317   3.865   9.611  0.6488  1.8953 -1.0290
41523SOL     OW28066   3.729   3.314   1.894 -0.0909  0.1948 -0.5500
41523SOL    HW128067   3.816   3.351   1.912 -1.0977  2.5120 -0.0577
41523SOL    HW228068   3.715   3.329   1.801 -0.4298  0.9460 -0.3852
41524SOL     OW28069   6.402   2.611  10.982 -0.2664  0.1809  0.0405
41524SOL    HW128070   6.327   2.638  11.035 -0.9928  1.4912 -1.5190
41524SOL    HW228071   6.363   2.587  10.897  1.0592  0.9185 -0.8140
41525SOL     OW28072   4.388   7.788   0.080 -0.3052 -0.2482 -0.2821
41525SOL    HW128073   4.443   7.863   0.055 -0.0918 -0.4049 -0.2816
41525SOL    HW228074   4.344   7.817   0.160 -0.4783  0.0021 -0.4675
41526SOL     OW28075   1.499   5.181   7.527  0.2042  0.2718  0.1403
41526SOL    HW128076   1.418   5.143   7.561  0.2845  0.4297  0.5152
41526SOL    HW228077   1.559   5.106   7.521  0.2155  0.2556  0.4314
41527SOL     OW28078  10.064   8.354   4.586  0.4408  0.5635  0.7099
41527SOL    HW128079  10.126   8.286   4.610  1.1627 -0.4192 -3.1957
41527SOL    HW228080  10.118   8.426   4.555 -0.2990  0.5611 -0.6595
41528SOL     OW28081   6.507   4.909   3.717  0.1126 -0.2731  0.6537
41528SOL    HW128082   6.489   4.951   3.801 -2.7878 -2.4394  1.2745
41528SOL    HW228083   6.554   4.829   3.739 -2.2152 -1.7739  0.5503
41529SOL     OW28084   9.995  10.048   9.571 -0.3342  0.4931 -0.2323
41529SOL    HW128085  10.051  10.020   9.644 -0.1061  1.1104 -0.1649
41529SOL    HW228086   9.910  10.064   9.612 -1.2144 -2.4806 -0.6636
41530SOL     OW28087   3.100   4.943   3.070 -0.4478 -0.0187  0.3779
41530SOL    HW128088   3.111   4.865   3.016 -0.0049  0.6406 -0.5180
41530SOL    HW228089   3.006   4.961   3.068 -0.4729 -0.1818  0.0819
41531SOL     OW28090   5.134   0.687   6.159 -0.0262 -0.1786 -0.1890
41531SOL    HW128091   5.141   0.747   6.084  1.1850 -2.2666 -1.8815
41531SOL    HW228092   5.224   0.656   6.173 -0.2542  0.0633  2.1026
41532SOL     OW28093   0.965   7.427   4.130 -0.2870  0.0049  0.0182
41532SOL    HW128094   1.016   7.475   4.195  1.2379 -0.1545 -1.0015
41532SOL    HW228095   0.893   7.388   4.179 -0.3873  1.6076  1.2334
41533SOL     OW28096   6.534   0.824   5.522  0.7055  0.6825  0.2295
41533SOL    HW128097   6.548   0.888   5.591  0.0025  0.7251  0.3310
41533SOL    HW228098   6.493   0.873   5.451 -2.3448 -0.1578  1.2962
41534SOL     OW28099   1.530   4.294   4.609 -0.8150 -0.9674  0.2465
41534SOL    HW128100   1.563   4.260   4.525 -1.4391 -0.0340 -0.4014
41534SOL    HW228101   1.469   4.364   4.584 -0.2397  0.0249  1.4929
41535SOL     OW28102   3.821   5.781   8.701  1.0186 -0.5069  0.1963
41535SOL    HW128103   3.811   5.735   8.617 -0.7821  0.9375 -0.4436
41535SOL    HW228104   3.892   5.843   8.686  2.1780 -1.7124  0.4736
41536SOL     OW28105  10.261   9.432   0.752 -0.1510 -0.2842 -0.2515
41536SOL    HW128106  10.277   9.417   0.659 -0.3812 -1.2649 -0.1452
41536SOL    HW228107  10.294   9.353   0.795 -0.4824 -0.0453  0.4514
41537SOL     OW28108   6.004   2.970   7.648 -0.0723  0.6387  0.9396
41537SOL    HW128109   6.018   3.061   7.621 -0.5258  0.1204 -1.2443
41537SOL    HW228110   6.085   2.925   7.625 -0.6033  0.1107  0.0133
41538SOL     OW28111   0.408   6.917   4.050  0.2859 -0.3001  0.5542
41538SOL    HW128112   0.327   6.904   4.000 -0.1645 -1.0419  1.4400
41538SOL    HW228113   0.422   7.012   4.049  1.6321 -0.3690 -3.0013
41539SOL     OW28114   4.097   0.805   0.391 -0.3026  0.0939  0.0663
41539SOL    HW128115   4.059   0.772   0.473  1.0985 -0.2962  0.5952
41539SOL    HW228116   4.141   0.887   0.416  0.3235 -0.1414 -0.2368
41540SOL     OW28117   5.773   6.948  10.927  0.2319 -0.1052 -0.1772
41540SOL    HW128118   5.810   7.036  10.915 -1.7116  0.9651  1.1687
41540SOL    HW228119   5.835   6.904  10.986 -0.0467  1.3039  1.2452
41541SOL     OW28120   4.380   0.105   0.685 -0.3061  0.0818  0.0668
41541SOL    HW128121   4.450   0.165   0.661  0.0649 -0.9907 -1.6517
41541SOL    HW228122   4.315   0.161   0.729  1.2239  1.2281  0.9790
41542SOL     OW28123  10.788   7.933   3.063 -0.1573 -0.0501 -0.6036
41542SOL    HW128124  10.746   7.850   3.085  0.8501 -0.4364 -0.0942
41542SOL    HW228125  10.737   7.999   3.111  1.4659 -0.7742  2.4036
41543SOL     OW28126   6.483   2.820   0.986 -0.8688  0.4842  0.0625
41543SOL    HW128127   6.539   2.846   0.913 -2.3940  0.8020 -1.0516
41543SOL    HW228128   6.503   2.728   0.999 -0.7329  0.3514 -0.9405
41544SOL     OW28129   1.258   4.605   0.244 -0.5304  0.2212  0.0014
41544SOL    HW128130   1.328   4.607   0.179  0.3303  0.1044  0.9105
41544SOL    HW228131   1.223   4.694   0.244 -0.5052  0.2363 -0.5787
41545SOL     OW28132   6.781   4.867   2.408  0.1039  0.2179 -0.0694
41545SOL    HW128133   6.855   4.842   2.464 -0.0768 -1.8564 -0.6706
41545SOL    HW228134   6.757   4.786   2.362 -2.8840  0.6443  0.4961
41546SOL     OW28135   4.827   5.107   2.726  0.1998  0.0366 -0.3623
41546SOL    HW128136   4.757   5.143   2.672 -0.0769 -0.0311 -0.0530
41546SOL    HW228137   4.900   5.168   2.715 -0.4475  1.0248  0.5977
41547SOL     OW28138   8.840   5.098   6.605 -0.1806  0.0267 -0.6307
41547SOL    HW128139   8.829   5.046   6.684 -0.8083 -0.7969 -1.2378
41547SOL    HW228140   8.850   5.188   6.636  1.8195 -0.5247  0.4963
41548SOL     OW28141   8.802   2.787   2.171  0.2084  0.3944  0.2693
41548SOL    HW128142   8.777   2.702   2.135 -0.7906  1.0354 -0.5923
41548SOL    HW228143   8.888   2.771   2.211  1.1503 -0.5178 -1.9051
41549SOL     OW28144   7.442   4.963   4.397 -0.1705  0.5185 -0.3098
41549SOL    HW128145   7.379   4.914   4.449  0.3044  1.5166  1.2722
41549SOL    HW228146   7.394   4.986   4.317 -1.1434 -0.4551 -0.0338
41550SOL     OW28147   5.153   1.705   6.024 -0.1437  0.9855  0.6583
41550SOL    HW128148   5.163   1.612   6.005 -1.6866  1.0552 -0.6715
41550SOL    HW228149   5.207   1.748   5.958  3.1926  1.0604  3.1981
41551SOL     OW28150   1.152   3.478   8.297 -0.4317 -0.0662 -0.0346
41551SOL    HW128151   1.099   3.399   8.288  1.7345 -1.6906  0.5454
41551SOL    HW228152   1.151   3.518   8.211  0.0077 -1.8490 -0.9215
41552SOL     OW28153   3.067   9.947   7.457 -0.7388  0.1911  0.2347
41552SOL    HW128154   3.104   9.901   7.532  1.3295 -0.5041 -1.1078
41552SOL    HW228155   3.126  10.020   7.441 -1.5275  0.7327 -0.3069
41553SOL     OW28156   0.345   3.814   0.091  0.3175  0.2475  0.4030
41553SOL    HW128157   0.338   3.788  -0.001  0.7662 -1.6275  0.8453
41553SOL    HW228158   0.417   3.878   0.092 -0.5649  1.3016 -0.7068
41554SOL     OW28159   4.287   9.624   7.971 -0.1195 -0.2589 -0.2653
41554SOL    HW128160   4.286   9.610   7.876 -0.2856  1.2178 -0.5044
41554SOL    HW228161   4.370   9.586   8.000  0.0491 -0.4934 -1.0371
41555SOL     OW28162   2.336   7.902   0.394  0.5433 -0.3906  0.3036
41555SOL    HW128163   2.337   7.997   0.383  2.3030 -0.5272 -1.4170
41555SOL    HW228164   2.424   7.881   0.426  1.5233 -1.6435 -2.7560
41556SOL     OW28165   1.331   4.974   8.408 -0.7389  0.6407 -0.2672
41556SOL    HW128166   1.420   4.939   8.407 -0.0910  1.7822  3.0576
41556SOL    HW228167   1.275   4.897   8.409  0.4796 -0.3530  2.6261
41557SOL     OW28168  10.693   3.804   7.235  0.0862 -0.4093  0.0395
41557SOL    HW128169  10.702   3.890   7.276  0.1958 -0.4489  0.0996
41557SOL    HW228170  10.671   3.745   7.307 -0.4729 -0.3471 -0.0808
41558SOL     OW28171   3.189   2.087   8.897  0.5584 -0.4452  0.0300
41558SOL    HW128172   3.105   2.070   8.855 -0.7411  0.9476  1.9007
41558SOL    HW228173   3.228   2.157   8.845  0.5519 -1.0665 -0.8212
41559SOL     OW28174  10.261   5.159   9.231 -0.4054  0.2059  0.5082
41559SOL    HW128175  10.278   5.065   9.238  0.1952  0.3284  0.7694
41559SOL    HW228176  10.224   5.170   9.143  1.7819  0.0404 -0.4869
41560SOL     OW28177   4.581   2.857   5.869 -0.1362 -0.1923 -0.0626
41560SOL    HW128178   4.644   2.887   5.934 -2.6695  0.8816  2.0790
41560SOL    HW228179   4.551   2.936   5.825 -2.1919 -0.2522  1.1332
41561SOL     OW28180   8.292   9.448   8.754 -0.0742 -0.7946  0.1151
41561SOL    HW128181   8.215   9.403   8.718 -1.3924  0.2274  1.5483
41561SOL    HW228182   8.258   9.502   8.825  1.7996  0.6884 -0.0337
41562SOL     OW28183   3.423   4.022   4.930  0.3730  0.0643  0.1074
41562SOL    HW128184   3.421   4.025   5.025 -0.9337  0.7698  0.0843
41562SOL    HW228185   3.335   4.051   4.903  0.4418 -0.9137 -1.2911
41563SOL     OW28186   7.841  10.957   8.948 -0.4796  0.1554 -0.3280
41563SOL    HW128187   7.831  10.895   8.877 -1.0326  0.0285 -0.1446
41563SOL    HW228188   7.821  10.907   9.027  0.9359  0.0815  0.0011
41564SOL     OW28189   8.832   0.720   1.456 -0.3785 -0.0278 -0.4745
41564SOL    HW128190   8.755   0.714   1.513  0.0848  2.3845  0.5585
41564SOL    HW228191   8.796   0.718   1.367 -1.3857 -1.1186 -0.0707
41565SOL     OW28192   0.014   5.315   6.945  0.1879  0.5509  0.3252
41565SOL    HW128193  -0.046   5.365   6.889  1.1876  1.9590  0.4474
41565SOL    HW228194   0.082   5.283   6.886  0.4668  0.8137  0.4963
41566SOL     OW28195  10.386   4.180   3.158 -0.3104 -0.6847  0.2194
41566SOL    HW128196  10.449   4.144   3.220 -0.7963 -1.9843 -0.0205
41566SOL    HW228197  10.301   4.148   3.188 -1.2605  2.8672  1.9002
41567SOL     OW28198   8.593  10.815   5.764 -0.7861  0.2728 -0.3177
41567SOL    HW128199   8.528  10.812   5.834 -0.4731 -1.2288 -0.0557
41567SOL    HW228200   8.576  10.737   5.712  1.3924 -0.7323  0.3413
41568SOL     OW28201   4.656   7.150   1.391  0.0179 -0.2435 -0.2452
41568SOL    HW128202   4.572   7.195   1.379 -0.1122 -0.2859  0.4701
41568SOL    HW228203   4.679   7.166   1.482  1.8046  1.4634 -0.9523
41569SOL     OW28204   0.499   0.080   3.634  0.1932  0.1147 -0.4265
41569SOL    HW128205   0.424   0.021   3.637  0.4474 -0.2206 -0.6055
41569SOL    HW228206   0.528   0.086   3.725 -1.0818  1.6018 -0.0683
41570SOL     OW28207   5.279   4.491   3.927  0.0928 -0.3706  0.0652
41570SOL    HW128208   5.240   4.559   3.871  1.2602 -0.2863 -0.6843
41570SOL    HW228209   5.357   4.463   3.880 -0.7490 -2.7967  0.0057
41571SOL     OW28210   6.153   1.665   9.220  0.2162  0.1069  0.0902
41571SOL    HW128211   6.130   1.755   9.199 -0.9339  0.2031  1.6069
41571SOL    HW228212   6.122   1.653   9.310 -1.1832 -2.2950 -0.6240
41572SOL     OW28213   0.335   7.968   5.300  0.0641 -0.6056 -0.2717
41572SOL    HW128214   0.246   7.975   5.263 -0.3498  0.8792  0.8756
41572SOL    HW228215   0.321   7.957   5.394  1.1086 -3.2345 -0.3524
41573SOL     OW28216   6.295   7.829   0.588  0.2848  0.5737 -0.4213
41573SOL    HW128217   6.379   7.797   0.554 -0.2056  0.1718 -1.2867
41573SOL    HW228218   6.236   7.754   0.580 -0.4637  1.2033 -0.9374
41574SOL     OW28219   8.019   8.443  10.335 -0.2770 -0.4268  0.1078
41574SOL    HW128220   7.989   8.359  10.299 -2.6320  0.2926  0.1882
41574SOL    HW228221   7.944   8.475  10.385  0.5115  1.7889 -0.0285
41575SOL     OW28222   2.718  10.571   7.913  0.4849  0.3034  0.1877
41575SOL    HW128223   2.643  10.541   7.861  1.2067  1.7176 -1.8145
41575SOL    HW228224   2.681  10.638   7.971 -0.2904 -1.1084  1.3846
41576SOL     OW28225   6.839   6.915   3.010  0.1928 -1.0527 -0.5621
41576SOL    HW128226   6.933   6.927   3.026 -0.1762 -0.5725  1.4800
41576SOL    HW228227   6.835   6.865   2.928  2.3607 -4.1141  0.9775
41577SOL     OW28228   2.745   6.701   0.230 -0.7211  0.1285  0.3287
41577SOL    HW128229   2.792   6.696   0.314 -0.3137 -3.0980  0.0328
41577SOL    HW228230   2.809   6.736   0.169  0.7588 -2.2252  0.3885
41578SOL     OW28231   0.894   1.992  10.792 -0.6566  0.0090  0.3567
41578SOL    HW128232   0.862   2.077  10.823 -2.9723 -0.1206 -1.3715
41578SOL    HW228233   0.986   1.990  10.818 -0.0697  3.7209 -0.8036
41579SOL     OW28234   2.700   1.549  10.713  0.4914  0.4378  0.0787
41579SOL    HW128235   2.701   1.473  10.773  0.7397  1.0241  0.8308
41579SOL    HW228236   2.609   1.555  10.684 -0.0664  1.2412  1.8506
41580SOL     OW28237   6.023   7.959   1.658 -0.3393  0.2997  0.1946
41580SOL    HW128238   5.995   8.025   1.721  1.0305  1.2154 -0.1075
41580SOL    HW228239   6.117   7.951   1.673 -0.1659 -0.2227 -1.0445
41581SOL     OW28240   5.589   3.451   1.725 -0.2724  0.0521 -0.1718
41581SOL    HW128241   5.537   3.516   1.773 -1.3465 -0.9402  0.0667
41581SOL    HW228242   5.610   3.494   1.642 -0.0973  1.0594  0.3731
41582SOL     OW28243   2.381   9.678   9.155  0.8883  0.2712 -0.3250
41582SOL    HW128244   2.432   9.627   9.219  1.3760  0.8854 -0.2094
41582SOL    HW228245   2.361   9.616   9.086 -0.0965 -0.5436  0.6635
41583SOL     OW28246   0.628   1.663   2.781  0.2052  0.3470  0.3678
41583SOL    HW128247   0.536   1.641   2.762  0.1576  2.2409 -2.0641
41583SOL    HW228248   0.678   1.620   2.713  0.9423  0.7248  0.6563
41584SOL     OW28249  10.665   8.305   7.707 -0.3263  0.0715  0.3765
41584SOL    HW128250  10.643   8.244   7.777 -3.8029  1.2531  0.5463
41584SOL    HW228251  10.618   8.271   7.630  1.2379  0.2445 -0.7047
41585SOL     OW28252   0.762   7.942   1.392  0.2714  0.2603  0.6644
41585SOL    HW128253   0.771   8.030   1.429 -0.6286  0.1992  1.0438
41585SOL    HW228254   0.711   7.955   1.313 -2.4652 -0.2348  2.2272
41586SOL     OW28255   6.852  10.580   0.066  0.4073 -0.1112 -1.0000
41586SOL    HW128256   6.758  10.572   0.079  0.7914 -0.9644  1.9711
41586SOL    HW228257   6.865  10.670   0.038 -1.2936 -0.1145 -1.9495
41587SOL     OW28258  10.601   5.699   1.479 -0.6548 -0.1932 -0.2612
41587SOL    HW128259  10.667   5.769   1.483 -0.8257 -0.0381 -0.1597
41587SOL    HW228260  10.651   5.621   1.456 -0.5119  0.0273 -0.7039
41588SOL     OW28261  10.341   0.792   6.320  0.1075  0.1953 -0.7164
41588SOL    HW128262  10.256   0.751   6.333  0.5447 -0.5976 -0.3276
41588SOL    HW228263  10.341   0.866   6.381  1.0245 -1.8241  1.9099
41589SOL     OW28264   8.105  10.018   7.111  0.1321 -0.3619  1.4142
41589SOL    HW128265   8.066   9.965   7.181 -0.5145  0.6019  1.8080
41589SOL    HW228266   8.118  10.104   7.151  1.6702 -0.3532  0.9479
41590SOL     OW28267   4.613   9.417   3.880  0.0056  0.3834 -0.4944
41590SOL    HW128268   4.631   9.510   3.869  0.6575  0.1875 -1.1333
41590SOL    HW228269   4.520   9.408   3.860 -0.2856  1.0397  0.5114
41591SOL     OW28270  10.007   3.356   8.052 -0.0225 -0.4151  0.0805
41591SOL    HW128271   9.941   3.426   8.050 -1.1056 -1.4131 -0.3265
41591SOL    HW228272  10.053   3.369   8.134  1.4550  2.2277 -1.0486
41592SOL     OW28273   8.498   9.877   5.685 -0.5525 -0.1843  0.2563
41592SOL    HW128274   8.417   9.830   5.663 -0.0468 -1.5962  1.2697
41592SOL    HW228275   8.568   9.816   5.662  0.3122  1.3420 -1.4020
41593SOL     OW28276   6.921  10.566   4.270  0.0584  0.0206  0.6824
41593SOL    HW128277   6.985  10.498   4.293 -0.5141 -0.3148  1.3357
41593SOL    HW228278   6.850  10.519   4.227  1.0864  0.6408 -1.8768
41594SOL     OW28279   9.328   1.538   3.421 -0.0241 -0.1558  0.0045
41594SOL    HW128280   9.312   1.500   3.507  0.8550 -0.2417  0.1369
41594SOL    HW228281   9.363   1.625   3.439 -0.2087 -0.0240 -0.2720
41595SOL     OW28282   4.802   3.303   3.712 -0.6888  0.0371  0.2851
41595SOL    HW128283   4.729   3.343   3.665 -0.9254 -0.8068 -0.0851
41595SOL    HW228284   4.799   3.210   3.686  0.6456  0.0327  0.0854
41596SOL     OW28285   9.532   9.616   1.982  0.1877  0.3078 -0.3081
41596SOL    HW128286   9.465   9.632   2.048  0.7827 -0.1300  0.4258
41596SOL    HW228287   9.484   9.591   1.903 -0.5229  0.6205  0.0203
41597SOL     OW28288   9.252   0.564   6.391  0.0918  0.2176 -0.0524
41597SOL    HW128289   9.339   0.555   6.353 -0.4076  0.8379 -1.4014
41597SOL    HW228290   9.236   0.658   6.394 -0.3031  0.1372  0.7676
41598SOL     OW28291   5.903  10.568   5.197  0.2803 -0.1534  0.3901
41598SOL    HW128292   5.923  10.555   5.290 -0.2112 -2.5888  0.2122
41598SOL    HW228293   5.986  10.551   5.152  1.2305  3.5355  0.4192
41599SOL     OW28294   9.339  10.616   8.806  0.2912  0.1954 -0.2707
41599SOL    HW128295   9.339  10.570   8.890  1.0682 -0.0970 -0.4277
41599SOL    HW228296   9.282  10.563   8.750 -0.4756  0.5544  0.1432
41600SOL     OW28297  10.561   1.100   6.470 -0.3885  0.1727 -0.2432
41600SOL    HW128298  10.548   1.150   6.550 -0.5870 -0.9600  0.4578
41600SOL    HW228299  10.567   1.166   6.401 -0.3098  1.1648  0.6828
41601SOL     OW28300   1.107   6.889   5.088  0.0200  0.9660 -0.5129
41601SOL    HW128301   1.160   6.830   5.141 -0.0004  0.9680 -0.4898
41601SOL    HW228302   1.024   6.896   5.136  0.4609  1.9907  0.1538
41602SOL     OW28303   0.922   8.518   9.639  0.1535 -0.3955 -0.3241
41602SOL    HW128304   0.969   8.487   9.717 -0.9196  2.0448  1.4065
41602SOL    HW228305   0.832   8.528   9.669 -0.2942  0.5230 -1.9054
41603SOL     OW28306   9.650  10.283  10.101 -0.6934 -0.3393  0.1321
41603SOL    HW128307   9.586  10.303  10.032 -3.3439  1.0492  2.8090
41603SOL    HW228308   9.647  10.188  10.109 -0.3422 -0.5405 -1.5464
41604SOL     OW28309   7.633  10.355   7.705  0.2916  0.1373 -0.2384
41604SOL    HW128310   7.699  10.417   7.733  0.9012 -0.7195  0.2698
41604SOL    HW228311   7.556  10.373   7.759  1.0765 -0.7486  1.2222
41605SOL     OW28312   3.603   2.775   6.527 -0.0807 -0.2264  0.1761
41605SOL    HW128313   3.696   2.766   6.509  0.0036  1.1342 -0.2441
41605SOL    HW228314   3.584   2.867   6.507 -1.1528 -0.0310  1.8888
41606SOL     OW28315   5.367   2.909   8.627 -0.3510 -0.2286 -0.1236
41606SOL    HW128316   5.436   2.961   8.587 -0.6158 -0.6998 -1.2339
41606SOL    HW228317   5.360   2.943   8.717  1.3828 -0.2694  0.0461
41607SOL     OW28318   0.048   6.795   7.249 -0.3448 -0.0207  0.4476
41607SOL    HW128319   0.042   6.823   7.340  2.1170  1.5828  0.2101
41607SOL    HW228320  -0.010   6.856   7.202 -2.5684 -1.6032  0.9823
41608SOL     OW28321   2.791   2.446   5.072 -0.3249  0.2018  0.6933
41608SOL    HW128322   2.828   2.507   5.007  3.5489 -2.4076  0.0814
41608SOL    HW228323   2.725   2.397   5.025 -1.6549  2.0852  0.4791
41609SOL     OW28324   3.506   2.832   5.429 -0.2259 -0.3021  0.0956
41609SOL    HW128325   3.446   2.889   5.381 -1.7090 -0.3552  1.7806
41609SOL    HW228326   3.590   2.843   5.385 -1.1468  0.8494 -1.4829
41610SOL     OW28327   9.267   0.096   5.304 -0.8074 -0.1431  0.5593
41610SOL    HW128328   9.257   0.010   5.346 -1.8722 -1.1111 -1.5113
41610SOL    HW228329   9.188   0.144   5.329 -0.4153  0.0832  1.3744
41611SOL     OW28330   8.592   4.276   8.656  0.0575  0.0141  0.0061
41611SOL    HW128331   8.623   4.358   8.695  0.6932 -0.1052 -0.2443
41611SOL    HW228332   8.509   4.259   8.700 -0.1085  0.8218  0.0250
41612SOL     OW28333   9.785   9.861   6.510 -0.1846 -0.2822  0.4086
41612SOL    HW128334   9.732   9.940   6.516 -0.5064 -0.3149 -1.3828
41612SOL    HW228335   9.723   9.793   6.483  0.2193 -1.0223  1.2594
41613SOL     OW28336   9.547   5.478   9.134  0.5144  0.3734  0.4303
41613SOL    HW128337   9.601   5.412   9.179 -1.6410 -0.9674  1.2136
41613SOL    HW228338   9.610   5.544   9.104  2.3797  0.1805  3.4131
41614SOL     OW28339   3.688   3.812   5.131 -0.2293 -0.0349 -0.1292
41614SOL    HW128340   3.647   3.734   5.169  1.6769 -0.8945  0.2915
41614SOL    HW228341   3.682   3.800   5.037  0.3823 -0.9143 -0.0704
41615SOL     OW28342   8.395   7.772   7.272 -0.3105  0.1402 -0.1619
41615SOL    HW128343   8.327   7.717   7.312 -0.0890  0.5493  0.8233
41615SOL    HW228344   8.405   7.845   7.333  1.3056 -0.1231 -0.0563
41616SOL     OW28345   6.502   3.500   8.073 -0.0589 -0.2442  0.2517
41616SOL    HW128346   6.501   3.493   8.168  0.8342 -1.2955  0.2006
41616SOL    HW228347   6.553   3.425   8.043 -0.9729 -0.3699 -1.1077
41617SOL     OW28348   9.460  10.942   6.848  0.6827 -0.1557  0.1236
41617SOL    HW128349   9.530  10.883   6.878  0.7357  0.4544  1.2441
41617SOL    HW228350   9.434  10.906   6.764  1.4584 -1.1586  0.2855
41618SOL     OW28351   4.931   4.256   8.129 -0.1057  0.3377 -0.2974
41618SOL    HW128352   4.952   4.331   8.185  0.4132 -0.5756  0.7550
41618SOL    HW228353   4.929   4.293   8.040 -0.6937  1.7599  0.2679
41619SOL     OW28354   0.974   6.177   1.393 -0.0751 -0.4426  0.0300
41619SOL    HW128355   1.017   6.197   1.476  0.1538  2.2714 -0.6573
41619SOL    HW228356   0.888   6.145   1.417  1.3490 -3.6997  1.3598
41620SOL     OW28357   8.116   3.146   0.502  0.7137  0.0322 -0.1226
41620SOL    HW128358   8.187   3.150   0.438  0.7224 -0.0097 -0.1156
41620SOL    HW228359   8.132   3.065   0.551  1.4049  0.6780  0.7510
41621SOL     OW28360   0.348   0.269   5.772  0.0483  0.6162  0.0052
41621SOL    HW128361   0.367   0.179   5.797  0.5659  1.1280  1.6044
41621SOL    HW228362   0.266   0.289   5.817 -0.2411  0.8438 -0.6151
41622SOL     OW28363   6.339   0.385   3.847  0.3841  0.3239  0.0265
41622SOL    HW128364   6.262   0.330   3.862 -0.1882  0.7643 -1.2320
41622SOL    HW228365   6.381   0.347   3.770  0.4155  1.1888 -0.3846
41623SOL     OW28366   3.936   9.763   6.042  0.1945 -0.0653 -0.1976
41623SOL    HW128367   3.939   9.799   6.130 -0.9175  1.1848 -0.6311
41623SOL    HW228368   4.028   9.756   6.016  0.6025 -1.6964  1.5098
41624SOL     OW28369   1.998   8.939   2.188  0.2306 -0.7263 -0.1551
41624SOL    HW128370   1.997   8.844   2.176  1.0421 -0.6124 -1.2990
41624SOL    HW228371   2.091   8.961   2.196  0.4117  0.3572 -3.7057
41625SOL     OW28372   1.280   2.360   6.608  0.7130  0.2965  0.3598
41625SOL    HW128373   1.230   2.339   6.529  1.0951  0.1749  0.1519
41625SOL    HW228374   1.233   2.314   6.678  0.0863  0.8081  0.2862
41626SOL     OW28375   9.137   8.941   9.862 -0.1577 -0.1779  0.4145
41626SOL    HW128376   9.177   9.024   9.889 -0.7185 -0.1053  1.0498
41626SOL    HW228377   9.164   8.879   9.929 -0.8532 -0.1969  0.6838
41627SOL     OW28378   5.005   2.909   8.180  0.3299  0.0973  0.2032
41627SOL    HW128379   5.062   2.833   8.190 -0.3668 -0.2433  1.9612
41627SOL    HW228380   5.065   2.983   8.172  1.0298 -0.6603 -2.3026
41628SOL     OW28381   0.746   6.509   7.978  0.3495  0.0529 -0.0320
41628SOL    HW128382   0.778   6.428   7.938  0.1569 -0.7169  1.3112
41628SOL    HW228383   0.805   6.523   8.053 -3.8690 -3.0782  4.4710
41629SOL     OW28384   3.237   9.318   1.264  0.2652 -0.0881 -0.0868
41629SOL    HW128385   3.169   9.257   1.293  1.0251 -1.1901 -0.5868
41629SOL    HW228386   3.296   9.266   1.211  0.4848  1.2761 -1.2431
41630SOL     OW28387   6.488   1.795   4.713 -0.5352  0.3052 -0.4562
41630SOL    HW128388   6.410   1.792   4.659  0.6445  0.2288 -2.2311
41630SOL    HW228389   6.533   1.875   4.686  0.2019  0.1436  0.2517
41631SOL     OW28390   7.010   2.564   6.731  0.6117  0.1874  0.8803
41631SOL    HW128391   6.972   2.622   6.797 -0.1579  0.6342  0.0594
41631SOL    HW228392   6.935   2.523   6.688  1.0366  0.8383 -0.5406
41632SOL     OW28393   4.331   4.194   6.678  0.5156 -0.2554  0.0698
41632SOL    HW128394   4.237   4.206   6.662  0.7243 -0.1635 -1.1605
41632SOL    HW228395   4.368   4.281   6.664  1.0456 -0.7005 -1.5419
41633SOL     OW28396   6.696   8.972   9.023 -0.2132 -0.1249  0.4496
41633SOL    HW128397   6.708   9.064   9.048 -0.2995  0.7043 -2.2768
41633SOL    HW228398   6.616   8.946   9.068 -0.0018  0.9829  1.5481
41634SOL     OW28399   9.598   7.897   5.030  0.1753  0.6671  0.3926
41634SOL    HW128400   9.562   7.816   4.993 -1.1232  1.1031  0.6623
41634SOL    HW228401   9.526   7.934   5.081  1.0093  1.5939  0.9238
41635SOL     OW28402   7.774   8.239   0.303  0.2001 -0.0996  0.2620
41635SOL    HW128403   7.770   8.335   0.294 -0.5566 -0.2367 -1.2665
41635SOL    HW228404   7.864   8.221   0.330  0.5739  1.0007 -0.1875
41636SOL     OW28405  10.985  10.699   9.546 -0.2953  0.6131  0.4525
41636SOL    HW128406  10.966  10.749   9.626  0.5274 -0.5432  1.4119
41636SOL    HW228407  10.910  10.642   9.535 -0.2593  0.5322  0.6098
41637SOL     OW28408   1.249   9.979  10.956 -0.8593 -0.2586  0.3212
41637SOL    HW128409   1.160  10.008  10.937 -1.1246 -0.0544  1.7871
41637SOL    HW228410   1.295   9.989  10.873 -1.7005  1.5004  0.0199
41638SOL     OW28411   6.450   2.097   3.296  0.3019  0.0825  0.0429
41638SOL    HW128412   6.539   2.063   3.293 -0.7429 -2.8661 -0.5048
41638SOL    HW228413   6.419   2.093   3.205 -1.0077 -0.8012  0.4962
41639SOL     OW28414  10.004   3.474  10.958 -0.1364 -0.3623 -0.1204
41639SOL    HW128415   9.946   3.465  10.882 -0.6799  1.7172 -0.0129
41639SOL    HW228416   9.998   3.566  10.981 -0.2098 -0.9962  2.6548
41640SOL     OW28417   0.556   2.452   7.704 -0.3454  0.3341 -0.6583
41640SOL    HW128418   0.527   2.502   7.627  1.8139 -0.1901 -1.8994
41640SOL    HW228419   0.631   2.502   7.738 -1.8565  1.0991  1.7891
41641SOL     OW28420   7.408   8.396   4.290 -0.4081 -0.0322  0.0564
41641SOL    HW128421   7.339   8.455   4.259 -1.1641 -0.5510  0.6973
41641SOL    HW228422   7.364   8.312   4.301  0.1781 -0.2250  1.0532
41642SOL     OW28423   6.715   7.848   5.976  0.0043 -0.0866  0.2508
41642SOL    HW128424   6.739   7.822   5.887 -2.4570  1.1919 -0.8713
41642SOL    HW228425   6.734   7.941   5.981  0.3816 -0.1977  1.1913
41643SOL     OW28426   6.800   4.205   7.702 -0.3053  0.5061  0.0753
41643SOL    HW128427   6.762   4.130   7.747 -1.9722  1.1724 -0.1270
41643SOL    HW228428   6.850   4.167   7.630  0.2600 -0.4531  0.9389
41644SOL     OW28429   6.574   1.707   3.767 -0.1916 -0.1159 -0.3797
41644SOL    HW128430   6.513   1.744   3.830 -1.0752 -0.6863 -0.8777
41644SOL    HW228431   6.532   1.626   3.738 -0.4894  0.7834 -2.7203
41645SOL     OW28432   6.006   9.690   9.767  0.2971 -0.1381  0.4270
41645SOL    HW128433   6.068   9.733   9.827  1.2384  0.5178 -0.9676
41645SOL    HW228434   6.059   9.623   9.723  1.1295  2.6677 -3.3402
41646SOL     OW28435   0.608  10.194   0.872 -0.5002 -0.5900 -0.0813
41646SOL    HW128436   0.513  10.199   0.861 -0.3906 -1.3485 -1.6037
41646SOL    HW228437   0.633  10.115   0.824  0.8830 -0.5222  0.4900
41647SOL     OW28438   0.212   8.209   7.670 -0.0402  0.2753 -0.2763
41647SOL    HW128439   0.281   8.192   7.605 -0.8908  0.8129 -1.3654
41647SOL    HW228440   0.132   8.212   7.618 -0.8802 -0.2506  0.9600
41648SOL     OW28441   4.327   1.319   8.904 -0.3223 -0.4878  0.1864
41648SOL    HW128442   4.394   1.345   8.840 -0.3397 -1.5816 -0.2945
41648SOL    HW228443   4.321   1.394   8.964  2.0724 -0.7648  0.8686
41649SOL     OW28444   1.028   2.364   9.924  0.4878 -0.3603 -0.5050
41649SOL    HW128445   0.975   2.395   9.851  0.3279 -0.2177 -0.3307
41649SOL    HW228446   1.014   2.269   9.924 -0.3350 -0.2564 -0.0354
41650SOL     OW28447   0.712   6.716   1.923 -1.1718 -0.0660 -0.6639
41650SOL    HW128448   0.618   6.725   1.936 -1.1253 -0.0322 -0.3279
41650SOL    HW228449   0.735   6.790   1.866 -1.0718  1.0048  0.6939
41651SOL     OW28450   2.325   3.600   0.130  0.2348  0.0459  0.2306
41651SOL    HW128451   2.399   3.597   0.069 -0.0331 -1.8405 -0.0820
41651SOL    HW228452   2.347   3.671   0.190  1.4685  0.6517 -0.8661
41652SOL     OW28453   6.420   5.032   1.149 -0.4009  0.6323  0.2891
41652SOL    HW128454   6.457   4.973   1.083  0.0416 -0.1099  1.1687
41652SOL    HW228455   6.462   5.116   1.133  0.1872  0.2945  0.0241
41653SOL     OW28456   9.034   0.915   0.036 -0.4739  0.0444  0.2857
41653SOL    HW128457   8.990   0.953  -0.040 -0.1510 -0.0760  0.0371
41653SOL    HW228458   9.118   0.960   0.039 -0.5633  0.1862  0.6884
41654SOL     OW28459   5.386   2.752   9.908 -0.6288 -0.3502  0.1380
41654SOL    HW128460   5.372   2.826   9.967 -1.6193 -0.4992  0.1072
41654SOL    HW228461   5.398   2.677   9.966  0.9646 -0.0923  0.1824
41655SOL     OW28462   4.231   5.718   3.466  0.2684  0.0607 -0.4318
41655SOL    HW128463   4.215   5.634   3.422  0.8265  1.4097 -3.5144
41655SOL    HW228464   4.326   5.724   3.472  0.2212  0.3642  0.0441
41656SOL     OW28465   4.094   4.255   2.530  0.4193 -0.2328 -0.2495
41656SOL    HW128466   4.023   4.247   2.593  0.7529 -1.8918 -0.0608
41656SOL    HW228467   4.125   4.345   2.540 -0.8179  0.1196  0.5507
41657SOL     OW28468   8.503   0.785   7.364 -0.0613  0.2531 -0.4976
41657SOL    HW128469   8.422   0.815   7.323 -0.4263  0.5335  0.3928
41657SOL    HW228470   8.513   0.841   7.441 -0.9118 -2.0445  1.4075
41658SOL     OW28471   3.571   4.017   6.535  0.4377 -0.9015  0.0490
41658SOL    HW128472   3.570   4.106   6.501 -1.4877 -1.2095 -0.8675
41658SOL    HW228473   3.524   4.022   6.618  0.9845 -0.9460  0.3647
41659SOL     OW28474   8.048   8.891   5.669  0.2557  0.4473  0.5472
41659SOL    HW128475   8.022   8.950   5.597 -1.6550 -2.1523 -1.0537
41659SOL    HW228476   7.989   8.913   5.741 -0.1453  0.7776  0.1228
41660SOL     OW28477   1.930  10.845   7.556 -0.4276 -0.5977  0.8491
41660SOL    HW128478   1.979  10.771   7.591  0.6572 -0.1357  0.3499
41660SOL    HW228479   1.997  10.904   7.521 -1.2166  1.0202  1.9683
41661SOL     OW28480   5.157   0.730   1.206 -0.3965  0.2609  0.2081
41661SOL    HW128481   5.239   0.680   1.208 -0.4274  0.2360  1.5510
41661SOL    HW228482   5.120   0.711   1.120  1.1220  0.4645 -0.5245
41662SOL     OW28483   9.459   5.765   3.975  0.3614 -0.0995 -0.4309
41662SOL    HW128484   9.487   5.843   4.022 -0.4047 -0.2274  0.2455
41662SOL    HW228485   9.446   5.698   4.042 -0.1637 -0.4588 -0.8723
41663SOL     OW28486   3.823   4.549   2.818  0.1364  0.0929 -0.2286
41663SOL    HW128487   3.865   4.492   2.754  0.8657 -1.0509  1.2086
41663SOL    HW228488   3.730   4.527   2.813  0.3736 -1.0114  0.0883
41664SOL     OW28489   3.464   3.316   9.688  0.4724  0.2366 -0.5463
41664SOL    HW128490   3.522   3.301   9.614 -1.3107 -0.0037 -1.9522
41664SOL    HW228491   3.386   3.356   9.650  0.2367  1.8645  1.4744
41665SOL     OW28492   0.112  10.453   0.754 -0.2761  0.1104  0.4632
41665SOL    HW128493   0.184  10.463   0.692  0.2577 -2.2553  0.5855
41665SOL    HW228494   0.035  10.437   0.698  0.1424 -1.6715  0.3136
41666SOL     OW28495   6.204   5.816  10.774 -0.3516 -0.3512  0.1661
41666SOL    HW128496   6.149   5.776  10.707 -1.1165  0.0642  0.5317
41666SOL    HW228497   6.245   5.891  10.731 -3.2345  1.8265  0.8930
41667SOL     OW28498   0.575   1.844   9.093 -0.2234 -0.1519  0.1386
41667SOL    HW128499   0.617   1.861   9.178 -1.4057  1.2211  0.4982
41667SOL    HW228500   0.622   1.900   9.032 -1.0518  0.8750  0.4144
41668SOL     OW28501   6.783   0.461   4.320 -0.5594  0.1178 -0.3913
41668SOL    HW128502   6.867   0.436   4.359 -1.2109 -0.8635  0.4061
41668SOL    HW228503   6.741   0.516   4.386 -0.7890  0.1421 -0.5574
41669SOL     OW28504   3.049   6.179   9.904 -0.9810 -0.3356  0.0043
41669SOL    HW128505   3.039   6.166   9.810  1.3974  0.0092 -0.3621
41669SOL    HW228506   3.052   6.091   9.941  0.4151 -0.5577 -0.5759
41670SOL     OW28507  10.037   9.225   8.659  0.1939 -0.2045  0.5975
41670SOL    HW128508   9.957   9.244   8.708  0.5877  0.1492  1.1066
41670SOL    HW228509  10.039   9.130   8.652 -0.6273 -0.1871 -0.0223
41671SOL     OW28510   0.580   9.293   7.687 -0.4163 -0.0559 -0.5684
41671SOL    HW128511   0.674   9.276   7.693 -0.4049 -0.4134 -1.5878
41671SOL    HW228512   0.549   9.233   7.619 -1.0481  1.3518 -1.5695
41672SOL     OW28513   5.913   3.882   4.656  0.0102  0.2237 -0.5667
41672SOL    HW128514   5.877   3.905   4.741  2.0811 -2.1231  1.0747
41672SOL    HW228515   6.006   3.864   4.672  0.5248 -0.1173 -3.3474
41673SOL     OW28516   1.512   3.261   9.568  0.3568 -0.1513  0.2219
41673SOL    HW128517   1.439   3.319   9.591  0.1429 -0.9123  1.5667
41673SOL    HW228518   1.564   3.312   9.506 -0.5497  0.9576  0.3323
41674SOL     OW28519   4.755   2.669   2.755 -0.1757  0.1727  0.4545
41674SOL    HW128520   4.731   2.753   2.717  1.1224  0.4897  0.2838
41674SOL    HW228521   4.782   2.690   2.845  0.8039  0.0530  0.1969
41675SOL     OW28522   8.828  10.318   1.044 -0.2432  0.5358  0.7762
41675SOL    HW128523   8.750  10.271   1.073 -1.1506  1.7174  0.3209
41675SOL    HW228524   8.862  10.265   0.972 -2.2340  1.3817 -0.8907
41676SOL     OW28525   2.001   8.909   2.921  0.0509  0.4642 -0.5588
41676SOL    HW128526   2.039   8.879   3.004  0.4639 -0.5414 -1.1006
41676SOL    HW228527   1.907   8.893   2.931  0.2613 -1.0966 -0.8497
41677SOL     OW28528   8.567   9.300   2.494  0.4459 -0.3244 -0.4246
41677SOL    HW128529   8.554   9.393   2.477 -0.6447 -0.5386 -0.8419
41677SOL    HW228530   8.487   9.258   2.462  0.2909 -1.2525  1.0756
41678SOL     OW28531   2.772   4.989   7.623 -0.2181  0.0924  0.1815
41678SOL    HW128532   2.683   4.994   7.657  0.2912  1.5717  1.4219
41678SOL    HW228533   2.817   4.927   7.681 -0.5241 -1.0005 -0.7168
41679SOL     OW28534   3.102   1.500   3.207 -0.3178 -0.1948 -0.1891
41679SOL    HW128535   3.130   1.564   3.142  1.2926 -0.3196  0.3457
41679SOL    HW228536   3.118   1.415   3.166  0.9092 -0.2777  0.4100
41680SOL     OW28537   9.277   1.949   6.433 -0.1174  0.4198 -0.4749
41680SOL    HW128538   9.319   1.944   6.347  0.8789  0.2515  0.0162
41680SOL    HW228539   9.228   2.031   6.430 -1.5108 -0.4026 -1.8155
41681SOL     OW28540   8.172   2.410   3.805 -0.3743 -0.5000  0.2861
41681SOL    HW128541   8.206   2.331   3.765  0.0293 -0.1024 -0.1720
41681SOL    HW228542   8.178   2.477   3.736  1.6136  0.5461  1.3685
41682SOL     OW28543   2.772   4.265   1.881  0.2300 -0.1987  0.0237
41682SOL    HW128544   2.859   4.257   1.843  0.0811 -1.2098 -0.1178
41682SOL    HW228545   2.734   4.342   1.839  1.1481  0.4233  0.2965
41683SOL     OW28546   1.424  10.109   5.695  0.1687 -0.1731 -0.7524
41683SOL    HW128547   1.371  10.034   5.723  1.7681 -1.9673 -2.2063
41683SOL    HW228548   1.467  10.139   5.774  0.6103 -1.7683 -0.3512
41684SOL     OW28549   2.565   9.811   4.844 -0.0895  0.2661 -0.3492
41684SOL    HW128550   2.576   9.889   4.899 -1.6510  0.5615 -0.4152
41684SOL    HW228551   2.471   9.796   4.841  0.1730 -1.8411 -0.0685
41685SOL     OW28552   9.191   8.103   0.995  0.2150 -0.2346 -0.1672
41685SOL    HW128553   9.247   8.073   1.067 -1.2935 -3.0034 -0.0340
41685SOL    HW228554   9.249   8.106   0.919  1.1435 -0.2914  0.5224
41686SOL     OW28555   8.681   5.758   6.841  0.0417  0.2950 -0.3932
41686SOL    HW128556   8.694   5.663   6.839  0.0109  0.2998 -0.8813
41686SOL    HW228557   8.762   5.793   6.878  0.6050  0.1767 -1.4981
41687SOL     OW28558   8.845   6.348   5.838 -0.6926  0.2519  0.4775
41687SOL    HW128559   8.788   6.425   5.840 -0.5558  0.3499  1.7943
41687SOL    HW228560   8.881   6.347   5.749  0.9292  2.9589  0.9755
41688SOL     OW28561   8.549   2.311   7.569  0.4117  0.0487 -0.2676
41688SOL    HW128562   8.557   2.359   7.486  1.1216  0.5256  0.0628
41688SOL    HW228563   8.528   2.221   7.543  0.2240  0.2817 -0.9477
41689SOL     OW28564   2.015   6.056   2.497 -0.5915  0.0317  0.7034
41689SOL    HW128565   1.997   5.987   2.434  0.4867 -1.0782  1.5691
41689SOL    HW228566   2.044   6.010   2.576 -0.5309  1.4425  1.5413
41690SOL     OW28567   0.069   1.655   4.039 -0.1418 -0.0055 -0.3128
41690SOL    HW128568   0.005   1.590   4.012  1.4081 -1.7096 -0.0954
41690SOL    HW228569   0.149   1.605   4.054  0.7156  1.7304  1.3786
41691SOL     OW28570   7.152   1.770   6.112  0.1580 -0.4981 -0.2837
41691SOL    HW128571   7.219   1.711   6.145 -0.5224 -1.6327 -0.8575
41691SOL    HW228572   7.070   1.738   6.151 -0.0915  0.8395  0.3901
41692SOL     OW28573   5.391   4.470   2.799  0.4238 -0.6688 -0.5009
41692SOL    HW128574   5.453   4.406   2.834  0.7716 -0.3446 -0.5117
41692SOL    HW228575   5.370   4.526   2.874  0.0474 -0.8509 -0.4681
41693SOL     OW28576   9.586   3.954   2.941  0.4764  0.0770 -0.6157
41693SOL    HW128577   9.626   3.937   3.026  0.2450  0.6852 -0.3782
41693SOL    HW228578   9.573   3.867   2.903 -1.7707 -0.4191  1.0571
41694SOL     OW28579   5.448   9.649   5.292 -0.9661  0.0674 -0.5316
41694SOL    HW128580   5.536   9.671   5.260  0.1482  1.6966  3.0964
41694SOL    HW228581   5.390   9.706   5.242  0.2740  0.4047 -1.6476
41695SOL     OW28582   7.739   3.763   2.440  0.5745 -0.2198 -0.2493
41695SOL    HW128583   7.660   3.719   2.408 -0.0510  1.3534 -0.9548
41695SOL    HW228584   7.707   3.830   2.500  1.6106 -1.6792  2.1146
41696SOL     OW28585   3.950   9.591   6.933  0.4212  0.0469  0.6331
41696SOL    HW128586   4.000   9.649   6.990  0.1094  0.1071  0.8482
41696SOL    HW228587   3.928   9.516   6.988  0.6946 -0.2070  0.3985
41697SOL     OW28588   3.689   3.163   9.208  0.4010 -0.2459 -0.1369
41697SOL    HW128589   3.764   3.164   9.148  1.9436  0.0892  1.7224
41697SOL    HW228590   3.616   3.131   9.154  1.9443 -0.9543 -1.9065
41698SOL     OW28591   9.319   0.982  10.676 -0.1209 -0.0455  0.2898
41698SOL    HW128592   9.412   0.983  10.698  0.0135  1.3949 -0.2247
41698SOL    HW228593   9.290   1.073  10.688 -1.7230 -0.6628  1.4549
41699SOL     OW28594   7.641  10.050   9.422  0.2136 -0.0015  0.0335
41699SOL    HW128595   7.674  10.022   9.507 -1.5162 -1.2685  0.3524
41699SOL    HW228596   7.578  10.119   9.442  1.2096  1.0526 -0.3990
41700SOL     OW28597   7.232   3.222   5.231  0.0558 -0.1500 -0.8668
41700SOL    HW128598   7.146   3.248   5.197  0.3215 -0.7313 -2.0416
41700SOL    HW228599   7.224   3.230   5.326  0.1591  4.3699 -1.0390
41701SOL     OW28600   3.597   7.987  10.992 -0.7354  0.5061 -0.0540
41701SOL    HW128601   3.618   7.985  10.899 -1.2290 -0.5440 -0.1601
41701SOL    HW228602   3.589   8.080  11.013 -0.5797  0.7542 -1.0500
41702SOL     OW28603   3.721   2.103   0.726  0.7136  0.5839  0.5416
41702SOL    HW128604   3.689   2.017   0.752  0.9863  0.3742  0.1770
41702SOL    HW228605   3.781   2.128   0.797 -1.0049  1.4321  1.7754
41703SOL     OW28606   5.979   6.790   0.898 -0.0326  0.5421 -0.3736
41703SOL    HW128607   5.984   6.732   0.973 -0.6325  1.4834  0.4193
41703SOL    HW228608   6.063   6.779   0.853 -1.2511 -3.2452 -2.0609
41704SOL     OW28609   3.378   6.964   4.687 -0.0892  0.2200 -0.3773
41704SOL    HW128610   3.381   7.029   4.617  0.3753 -0.1764 -0.7418
41704SOL    HW228611   3.371   6.880   4.641  1.2698 -0.1261 -0.0135
41705SOL     OW28612   4.088   5.752   3.798 -0.0447 -0.2272  0.0142
41705SOL    HW128613   4.149   5.723   3.866 -0.5305 -1.1655  0.0716
41705SOL    HW228614   4.023   5.805   3.845  0.3977  0.2909  0.0474
41706SOL     OW28615   9.793   8.528   2.560 -0.1446  0.1413 -0.2118
41706SOL    HW128616   9.791   8.436   2.534  1.0046  0.2091 -0.5866
41706SOL    HW228617   9.747   8.530   2.644 -1.8541 -0.4459 -1.0884
41707SOL     OW28618   9.440   2.606  10.589  0.3773  0.0893 -0.3541
41707SOL    HW128619   9.443   2.542  10.518  0.6278 -0.5116  0.1956
41707SOL    HW228620   9.373   2.573  10.649  0.0847  0.6541 -0.3599
41708SOL     OW28621   9.499   0.533   6.304  0.0060 -0.4510 -0.0056
41708SOL    HW128622   9.527   0.459   6.250  0.0717 -0.9959  0.7576
41708SOL    HW228623   9.577   0.589   6.310  0.0037 -0.3975 -0.4551
41709SOL     OW28624   5.213   2.629  10.122  0.0341 -0.5686  0.4703
41709SOL    HW128625   5.279   2.565  10.094  0.9472  1.0596 -1.3161
41709SOL    HW228626   5.216   2.626  10.217  0.9086 -2.3061  0.4254
41710SOL     OW28627   1.284   8.772  10.797 -0.0939 -0.0765  0.1180
41710SOL    HW128628   1.351   8.788  10.732  1.3136 -1.1524  1.2343
41710SOL    HW228629   1.212   8.831  10.774  1.8691  2.3517 -0.1465
41711SOL     OW28630   2.340   6.571   5.233 -0.0270 -0.1450 -0.4260
41711SOL    HW128631   2.277   6.504   5.206  0.6111 -0.8642 -0.1940
41711SOL    HW228632   2.415   6.558   5.174 -0.0094  0.5481 -0.5541
41712SOL     OW28633   7.869   5.661   0.525 -0.5993  0.0371  0.4243
41712SOL    HW128634   7.883   5.566   0.527  1.1153  0.2433  0.2565
41712SOL    HW228635   7.839   5.679   0.436  1.9496 -0.0822 -0.5700
41713SOL     OW28636   8.644   0.904   9.882 -0.5736 -0.2577  0.5688
41713SOL    HW128637   8.738   0.922   9.891  0.6404 -3.1248 -3.5660
41713SOL    HW228638   8.633   0.815   9.916 -2.0746  0.3839  1.8848
41714SOL     OW28639   7.223  10.528  10.082  0.4335 -0.1210 -0.1918
41714SOL    HW128640   7.233  10.436  10.108 -0.8434 -0.3739 -0.5333
41714SOL    HW228641   7.311  10.564  10.090  0.9691 -1.3802 -0.0878
41715SOL     OW28642   8.450  10.683   7.637  0.1413  0.2079  0.6309
41715SOL    HW128643   8.356  10.698   7.635  0.0060 -0.0979  2.7688
41715SOL    HW228644   8.484  10.738   7.566 -1.4223  2.1217  1.2688
41716SOL     OW28645   7.377   7.656   9.508 -0.4765 -0.6248 -0.5811
41716SOL    HW128646   7.409   7.633   9.421  0.5845 -0.2736 -0.2965
41716SOL    HW228647   7.365   7.572   9.552 -2.0817 -0.8759 -1.3952
41717SOL     OW28648   9.082   4.932   3.456 -0.4655 -0.1059  0.0657
41717SOL    HW128649   9.128   4.862   3.501  0.1839 -0.3945 -1.0223
41717SOL    HW228650   8.997   4.894   3.433 -0.8641  0.0893  1.1291
41718SOL     OW28651   0.901   6.803   6.524  0.1036 -0.0984  0.4467
41718SOL    HW128652   0.967   6.749   6.568 -2.3645 -1.7710  2.3424
41718SOL    HW228653   0.890   6.879   6.581  0.7789  0.5016 -0.1979
41719SOL     OW28654   5.861   2.368  10.561  0.4789  0.1542 -0.2460
41719SOL    HW128655   5.798   2.437  10.584  1.4559  0.3705  2.0616
41719SOL    HW228656   5.887   2.389  10.472  1.9047  3.7896  0.8381
41720SOL     OW28657   6.537   2.432   3.502  0.0626 -0.3093  0.4155
41720SOL    HW128658   6.468   2.381   3.459 -0.1754 -0.0259  0.4560
41720SOL    HW228659   6.548   2.509   3.447 -0.8335  0.4743  1.2805
41721SOL     OW28660   8.572   7.826   2.618  0.6351  0.4181  0.0122
41721SOL    HW128661   8.538   7.771   2.547  1.9521  0.0878 -0.3889
41721SOL    HW228662   8.582   7.913   2.578 -2.0466  1.1741  0.8179
41722SOL     OW28663   3.009  10.399   5.878  0.1057 -0.2595  0.1047
41722SOL    HW128664   3.044  10.351   5.803  1.7271  0.1357  0.5726
41722SOL    HW228665   3.071  10.470   5.892 -0.7071  0.2563  1.2301
41723SOL     OW28666   5.317   4.302   7.218 -0.3883 -0.7679 -0.1921
41723SOL    HW128667   5.396   4.260   7.253  1.3016  0.5678 -2.1421
41723SOL    HW228668   5.250   4.234   7.220  0.5232 -1.6816  2.3817
41724SOL     OW28669   5.236   0.225   2.521  0.5179  0.3098 -0.1948
41724SOL    HW128670   5.308   0.213   2.459  0.7544 -0.2037  0.1753
41724SOL    HW228671   5.277   0.267   2.597  0.8020 -1.4995  0.7127
41725SOL     OW28672   3.698   0.952   0.013  0.0452  0.2140  0.2885
41725SOL    HW128673   3.642   1.000   0.074 -0.0245 -2.9396  2.9911
41725SOL    HW228674   3.784   0.951   0.055  0.9152  0.7552 -1.3671
41726SOL     OW28675   8.020   1.414   0.100 -0.0402 -0.1965  0.0143
41726SOL    HW128676   8.115   1.404   0.095  0.2092  2.0695 -1.2816
41726SOL    HW228677   8.006   1.469   0.177 -0.0223  1.5016 -1.1339
41727SOL     OW28678   0.888   1.958   1.089  0.1666  0.2896  0.6292
41727SOL    HW128679   0.979   1.966   1.060  0.6251 -3.7000  0.3774
41727SOL    HW228680   0.836   1.997   1.019  1.6265  0.3801 -0.4379
41728SOL     OW28681   5.411   2.570   1.885  0.0264 -0.1356  0.5310
41728SOL    HW128682   5.372   2.593   1.801  0.3359 -1.4046  0.0152
41728SOL    HW228683   5.484   2.511   1.863  0.3817 -0.1519  1.6549
41729SOL     OW28684   8.993   8.635   5.358 -0.1833 -0.6555  0.5863
41729SOL    HW128685   9.087   8.618   5.361  0.5684  2.1604 -1.5156
41729SOL    HW228686   8.969   8.619   5.266 -0.9576  1.6450  0.3120
41730SOL     OW28687   7.890   2.369   6.653  0.2161 -0.6147  0.1419
41730SOL    HW128688   7.945   2.404   6.723 -1.3524  2.2240  0.1254
41730SOL    HW228689   7.811   2.339   6.697  0.5759 -1.9815 -0.1132
41731SOL     OW28690   8.285   1.385   8.999  0.2469  0.0362 -0.4537
41731SOL    HW128691   8.305   1.378   8.906 -0.8664  0.0425 -0.7089
41731SOL    HW228692   8.216   1.452   9.004  0.7666  0.5205  0.4459
41732SOL     OW28693   8.501   8.103  10.384 -0.1247 -0.9164  0.0798
41732SOL    HW128694   8.437   8.032  10.375 -0.0950 -1.0818  1.0068
41732SOL    HW228695   8.582   8.067  10.347 -0.8036 -0.3123 -2.1102
41733SOL     OW28696   9.626   4.344   0.704  0.1002  0.5610  0.0347
41733SOL    HW128697   9.638   4.284   0.630  0.0770  1.8771 -1.0827
41733SOL    HW228698   9.697   4.407   0.696 -1.9519  2.9095 -1.1069
41734SOL     OW28699   0.320   5.475   2.854 -0.0111 -0.0188  0.9326
41734SOL    HW128700   0.361   5.416   2.918  1.5529  0.0153  0.0317
41734SOL    HW228701   0.227   5.455   2.859  0.3587 -1.8352  1.4014
41735SOL     OW28702   3.306   0.372   0.162 -0.2296  0.1281 -0.6181
41735SOL    HW128703   3.397   0.402   0.165  0.9644 -3.1215  0.1627
41735SOL    HW228704   3.277   0.393   0.073  1.8575 -0.1524 -1.4374
41736SOL     OW28705   8.582   7.037   4.432  0.1303 -0.0520  0.2030
41736SOL    HW128706   8.673   7.061   4.452  0.8372 -2.3534  0.0572
41736SOL    HW228707   8.534   7.053   4.513  0.5417  1.4954  0.1878
41737SOL     OW28708   7.794   8.091   7.818  0.0229  0.2651 -0.1349
41737SOL    HW128709   7.879   8.047   7.818 -0.2087 -0.1893  0.2075
41737SOL    HW228710   7.796   8.146   7.740  0.3232 -0.3458 -0.5657
41738SOL     OW28711   3.439   7.786   4.372 -0.1427 -0.4419  0.2038
41738SOL    HW128712   3.363   7.831   4.410 -0.7167 -0.6801 -0.6400
41738SOL    HW228713   3.441   7.814   4.281 -0.1720 -1.6607 -0.1906
41739SOL     OW28714  10.080   3.421  10.529  0.3722  0.6224  0.2957
41739SOL    HW128715  10.151   3.471  10.489  0.3019  0.5976  0.1380
41739SOL    HW228716  10.115   3.332  10.534  0.3969  0.6336  0.3248
41740SOL     OW28717   7.946   8.592   5.052  0.1747  0.5081  0.2740
41740SOL    HW128718   8.034   8.618   5.079 -0.5201  1.2091  2.0004
41740SOL    HW228719   7.889   8.629   5.119 -1.6856  2.1347 -2.0418
41741SOL     OW28720   4.537  10.678   7.420  0.1317  0.6389  0.1829
41741SOL    HW128721   4.551  10.705   7.329  0.3924  2.0403  0.6069
41741SOL    HW228722   4.563  10.755   7.471  1.4983 -0.6531  1.5294
41742SOL     OW28723   4.462   1.253   3.146  0.2736 -0.1575  0.8554
41742SOL    HW128724   4.371   1.273   3.167  0.1358  0.6072 -0.4087
41742SOL    HW228725   4.458   1.210   3.061  1.2197  1.4783 -0.0540
41743SOL     OW28726   5.710   8.674   8.880 -0.6978 -0.0342 -0.6152
41743SOL    HW128727   5.728   8.588   8.918 -0.6570  0.0526 -0.4367
41743SOL    HW228728   5.662   8.721   8.948 -0.6696  0.1041 -0.6897
41744SOL     OW28729   3.559   8.364   6.572 -0.5710 -0.6333 -0.0966
41744SOL    HW128730   3.592   8.406   6.492  2.4225  0.3526  1.4749
41744SOL    HW228731   3.527   8.279   6.543  1.2448 -0.6869 -2.2753
41745SOL     OW28732   2.164   7.404   1.924  0.3682  0.7922 -0.0185
41745SOL    HW128733   2.170   7.325   1.870 -1.9512 -1.8562  3.2042
41745SOL    HW228734   2.098   7.458   1.881  1.5694  0.7916 -1.9702
41746SOL     OW28735   9.445   4.127   9.693  0.8383 -0.0590  0.0236
41746SOL    HW128736   9.509   4.057   9.708 -0.3797 -1.0023  1.0937
41746SOL    HW228737   9.364   4.093   9.730 -0.7585  0.3976 -2.8074
41747SOL     OW28738   2.295   2.386   0.135  0.0717  0.2318  0.1308
41747SOL    HW128739   2.313   2.336   0.055 -0.3786 -0.7974  0.6559
41747SOL    HW228740   2.382   2.409   0.168  0.3841 -1.5613  0.6920
41748SOL     OW28741   2.165   9.196   5.578 -0.1907 -0.1384  0.1989
41748SOL    HW128742   2.126   9.209   5.664 -0.8559  0.0198 -0.1210
41748SOL    HW228743   2.206   9.281   5.557 -0.9099  0.1475 -0.0764
41749SOL     OW28744   6.724   4.851   7.828  0.2843 -0.2465 -0.0953
41749SOL    HW128745   6.753   4.856   7.919  1.7169 -0.6522 -0.4988
41749SOL    HW228746   6.745   4.762   7.801 -1.7002 -0.6746 -0.3476
41750SOL     OW28747   6.363  10.294   3.387  0.8527  0.0902  0.2260
41750SOL    HW128748   6.297  10.314   3.320  1.4791  0.1954 -0.3690
41750SOL    HW228749   6.350  10.201   3.406  0.2833  0.1998  0.3959
41751SOL     OW28750   6.661   1.599   7.464  0.1976  0.4150 -0.3930
41751SOL    HW128751   6.634   1.689   7.450  0.7254  0.5909 -0.3080
41751SOL    HW228752   6.633   1.579   7.554  0.6966  0.7246 -0.1662
41752SOL     OW28753   6.837   2.164   2.839 -0.2497 -0.6943  0.8359
41752SOL    HW128754   6.833   2.077   2.878  2.5868 -0.8771  0.9268
41752SOL    HW228755   6.752   2.203   2.858 -1.5240 -3.3459  0.9504
41753SOL     OW28756   7.263   4.917   5.587  0.3828  0.4533 -0.1771
41753SOL    HW128757   7.305   4.845   5.538 -1.1182  0.6262 -1.8242
41753SOL    HW228758   7.285   4.900   5.678  0.8420 -1.5758 -0.6164
41754SOL     OW28759   6.708   5.846   6.186  0.1412  0.1149 -0.1171
41754SOL    HW128760   6.747   5.899   6.116 -1.0730  0.2271 -0.7249
41754SOL    HW228761   6.626   5.890   6.207  0.9398  0.6911  2.1388
41755SOL     OW28762   3.093   2.459   8.859  0.3106 -0.0316  0.4182
41755SOL    HW128763   3.047   2.488   8.937  1.8221  1.3653  0.8433
41755SOL    HW228764   3.185   2.463   8.883  0.7606 -0.5266 -1.1277
41756SOL     OW28765   3.655   6.387   6.682 -0.2067  0.2153 -0.4156
41756SOL    HW128766   3.682   6.468   6.638 -1.2323  0.3050 -0.9195
41756SOL    HW228767   3.685   6.317   6.624  0.4437  0.2381 -0.1135
41757SOL     OW28768   5.963   7.179   6.744 -0.2383 -0.2744  0.1925
41757SOL    HW128769   5.915   7.254   6.778 -0.5184 -0.1050 -0.5500
41757SOL    HW228770   5.967   7.194   6.649 -2.1487 -2.2101 -0.2792
41758SOL     OW28771   2.548   8.864   3.175  0.8938 -0.4990  0.5793
41758SOL    HW128772   2.454   8.846   3.172  0.0739  3.0423 -0.2575
41758SOL    HW228773   2.583   8.821   3.098 -0.5301  0.0581 -0.4277
41759SOL     OW28774  10.532   5.936   7.265  0.1177 -0.4432  0.1662
41759SOL    HW128775  10.528   5.891   7.349 -0.2091  1.6129  1.3158
41759SOL    HW228776  10.539   6.028   7.288  1.3632  0.0784 -2.0790
41760SOL     OW28777   1.828   7.500   4.779  0.4168 -0.1212 -0.3754
41760SOL    HW128778   1.893   7.548   4.728  1.5397  0.5976  1.6416
41760SOL    HW228779   1.877   7.431   4.822 -0.2493  0.0312  0.6698
41761SOL     OW28780   2.153   8.367   4.605  0.2939  0.2139  0.1500
41761SOL    HW128781   2.167   8.435   4.670  2.0067 -1.4037  1.5993
41761SOL    HW228782   2.130   8.289   4.655 -0.6021 -0.5578 -1.3696
41762SOL     OW28783  10.521  10.439   0.986 -0.3830  0.7531 -0.4066
41762SOL    HW128784  10.464  10.365   1.004  0.0890  0.6011  0.5320
41762SOL    HW228785  10.588  10.404   0.926  0.4415  0.1165  0.8436
41763SOL     OW28786   9.140   6.756   1.483 -0.1883 -0.1382 -0.0770
41763SOL    HW128787   9.112   6.677   1.437 -0.8729 -0.5790  1.0381
41763SOL    HW228788   9.233   6.766   1.462  0.2087 -1.9175  0.6774
41764SOL     OW28789   3.887   9.176   1.363 -0.7967 -0.3805  0.0252
41764SOL    HW128790   3.794   9.173   1.385 -1.0800 -1.6731 -1.2043
41764SOL    HW228791   3.912   9.268   1.376 -2.0837 -0.1397  0.9527
41765SOL     OW28792   3.677   5.830   1.396  0.0948 -0.0575 -0.2309
41765SOL    HW128793   3.771   5.815   1.400  0.1161 -0.4851 -1.6978
41765SOL    HW228794   3.647   5.775   1.323 -1.2635  0.2155  0.0863
41766SOL     OW28795   8.221   5.411  10.422 -0.2220 -0.4919 -0.6191
41766SOL    HW128796   8.160   5.339  10.436  0.2547 -0.8428 -0.3093
41766SOL    HW228797   8.187   5.458  10.346 -0.3792 -1.2076 -0.9873
41767SOL     OW28798   3.978   8.979   7.606 -0.0563 -0.0198 -0.0951
41767SOL    HW128799   3.961   8.946   7.694  0.3289 -0.6449 -0.2448
41767SOL    HW228800   3.924   8.925   7.549 -3.4698  2.9157  0.0052
41768SOL     OW28801   2.644   8.481   6.794  0.3501 -0.2652  0.0818
41768SOL    HW128802   2.680   8.404   6.838 -0.7240  0.0439  1.5917
41768SOL    HW228803   2.720   8.537   6.778  0.9308 -0.9320  0.4490
41769SOL     OW28804   9.642  10.348   9.517  0.1385 -0.4855  0.5404
41769SOL    HW128805   9.720  10.403   9.514  0.5806 -1.0303  1.6083
41769SOL    HW228806   9.571  10.408   9.538  0.6192 -0.3028  1.6971
41770SOL     OW28807   0.713   3.229   9.082 -0.1611 -0.4314 -0.2934
41770SOL    HW128808   0.799   3.194   9.104 -0.3672 -0.5532  0.3403
41770SOL    HW228809   0.718   3.248   8.988  0.1000 -1.7387 -0.5655
41771SOL     OW28810   0.606   4.353   3.717  0.5934  0.2385  0.1302
41771SOL    HW128811   0.616   4.258   3.712 -2.4896 -0.2167  0.4017
41771SOL    HW228812   0.646   4.386   3.637 -0.0965 -1.5192 -1.0144
41772SOL     OW28813   9.438   1.803   9.998  0.2488 -0.0020 -0.6801
41772SOL    HW128814   9.419   1.896  10.007  0.9636  0.1095 -0.2082
41772SOL    HW228815   9.380   1.773   9.928 -1.6132  0.3110  0.6589
41773SOL     OW28816   5.526   6.887   7.186 -0.4162  0.1390 -0.0753
41773SOL    HW128817   5.481   6.818   7.137  0.9558 -1.6067  0.9968
41773SOL    HW228818   5.455   6.938   7.227 -1.4740 -0.2881 -1.3050
41774SOL     OW28819   3.731   4.023   1.813 -0.5098  0.3211 -0.0998
41774SOL    HW128820   3.769   4.037   1.900 -0.7224  0.4130 -0.0194
41774SOL    HW228821   3.646   3.982   1.830 -0.4742  0.1725 -0.2737
41775SOL     OW28822   6.725   6.050   8.628 -0.4562 -0.1675 -0.2371
41775SOL    HW128823   6.774   5.978   8.587 -1.5642 -0.6226 -0.8041
41775SOL    HW228824   6.792   6.103   8.672  0.4675 -1.1125 -0.4672
41776SOL     OW28825   6.639   0.871   1.579  0.2111 -0.4100 -0.0426
41776SOL    HW128826   6.664   0.779   1.583 -0.8310 -0.8247 -1.8151
41776SOL    HW228827   6.550   0.873   1.614  0.6809  0.1525  1.1655
41777SOL     OW28828   9.735   6.066   3.284 -0.3079 -0.3494  0.5271
41777SOL    HW128829   9.667   6.016   3.240  0.6119  0.0666 -1.5233
41777SOL    HW228830   9.804   6.002   3.302 -1.5185 -0.9695  3.4662
41778SOL     OW28831   8.320   3.368   8.208 -0.1235  0.0813  0.3000
41778SOL    HW128832   8.234   3.397   8.180 -0.2538  0.6575  1.2273
41778SOL    HW228833   8.346   3.302   8.145  0.0867  2.0733 -1.8474
41779SOL     OW28834   5.180   7.918   7.005 -0.0250  0.2670  0.2059
41779SOL    HW128835   5.127   7.972   6.946 -0.8920 -0.1568  0.5729
41779SOL    HW228836   5.269   7.926   6.972 -0.3390  0.8852 -0.5162
41780SOL     OW28837   9.284   9.721  10.164  0.6594 -0.1123  0.2429
41780SOL    HW128838   9.233   9.687  10.091  1.2086  0.9207 -0.6403
41780SOL    HW228839   9.229   9.706  10.241 -1.5181  1.9816 -0.7838
41781SOL     OW28840   7.944   0.466   3.219  0.4112  0.0783  0.0475
41781SOL    HW128841   8.021   0.483   3.165 -0.7232 -1.1568 -2.1119
41781SOL    HW228842   7.874   0.519   3.179 -0.2308 -0.0833  0.9314
41782SOL     OW28843  10.208   9.016   2.752  0.1146  0.3737 -0.2557
41782SOL    HW128844  10.150   9.064   2.811  1.0459 -0.1997  1.1913
41782SOL    HW228845  10.273   9.080   2.724 -0.4548  0.7008 -0.8271
41783SOL     OW28846   9.691   5.012   5.123 -0.3317 -0.1181 -0.5059
41783SOL    HW128847   9.771   4.965   5.100  0.7061  0.6266  1.3336
41783SOL    HW228848   9.674   5.069   5.048  1.4154  0.3591 -0.5902
41784SOL     OW28849   1.304   3.417   6.427  0.1742 -0.0369  0.0733
41784SOL    HW128850   1.350   3.414   6.343 -1.3233 -0.8440 -0.7713
41784SOL    HW228851   1.302   3.510   6.450 -0.3387  0.3270 -1.3486
41785SOL     OW28852   4.053   8.809   1.389 -0.1513 -0.1728 -0.0774
41785SOL    HW128853   4.085   8.812   1.298  0.5134  0.4803  0.1652
41785SOL    HW228854   3.969   8.764   1.383 -0.2654  0.1376 -1.0696
41786SOL     OW28855   3.950   3.635   0.331 -0.1804  0.0135  0.0310
41786SOL    HW128856   3.890   3.687   0.383  0.6775 -0.7324  1.8456
41786SOL    HW228857   4.020   3.611   0.391  0.6446 -1.2578 -1.3538
41787SOL     OW28858   7.628   3.285  10.571  0.1650 -0.0074  0.6008
41787SOL    HW128859   7.581   3.244  10.644  0.6676 -0.5749  0.6070
41787SOL    HW228860   7.645   3.374  10.600  0.6411 -0.3246  1.3045
41788SOL     OW28861   3.752   2.693   5.051  0.1089 -0.3344 -0.1604
41788SOL    HW128862   3.802   2.637   4.990 -0.6547 -0.6755 -0.4823
41788SOL    HW228863   3.765   2.782   5.018 -1.2101 -0.6032 -1.5181
41789SOL     OW28864   1.251   2.211   2.490 -0.1774  0.1304 -0.1154
41789SOL    HW128865   1.270   2.220   2.583 -0.2350  0.4642 -0.1355
41789SOL    HW228866   1.300   2.281   2.448 -0.0051 -0.1337 -0.3569
41790SOL     OW28867   5.226   1.604  10.740  0.5525  0.4934 -0.0019
41790SOL    HW128868   5.197   1.535  10.679 -1.2607  1.2346 -0.0349
41790SOL    HW228869   5.178   1.587  10.820  0.4055  1.4700  0.1263
41791SOL     OW28870   1.915   6.673   7.017 -0.2752  0.0082  0.3499
41791SOL    HW128871   1.980   6.687   6.948  1.0973  0.2410  1.6411
41791SOL    HW228872   1.940   6.590   7.058 -0.7370  0.1396  0.9166
41792SOL     OW28873   9.306   5.618   7.583 -0.4195 -0.4459  0.0386
41792SOL    HW128874   9.295   5.650   7.493  0.9613  2.9460  0.9062
41792SOL    HW228875   9.220   5.627   7.622 -0.6632 -0.3614 -0.5082
41793SOL     OW28876  10.166   0.517  10.376 -0.5577 -0.4257 -0.4954
41793SOL    HW128877  10.129   0.582  10.316 -0.4252 -0.0858 -0.2123
41793SOL    HW228878  10.233   0.472  10.325 -1.8935 -1.6136 -1.2920
41794SOL     OW28879   7.082   5.858   4.651  0.0900  0.2223  0.5834
41794SOL    HW128880   7.172   5.883   4.630  0.4674 -1.8339 -0.5032
41794SOL    HW228881   7.057   5.917   4.722  1.9563  1.4561  0.2981
41795SOL     OW28882  10.783   7.132   9.283  0.3783 -0.1388  0.3135
41795SOL    HW128883  10.710   7.088   9.240  0.6677  1.2329 -1.7325
41795SOL    HW228884  10.752   7.150   9.372 -0.3296 -2.8962  0.7112
41796SOL     OW28885   1.410   4.366   5.114  0.1117  0.1227 -0.2740
41796SOL    HW128886   1.389   4.323   5.031  0.1251  0.2984 -0.3674
41796SOL    HW228887   1.506   4.363   5.119  0.0579 -2.2589  0.9735
41797SOL     OW28888   0.789   4.143   9.427  0.2422  0.2161  0.0343
41797SOL    HW128889   0.775   4.162   9.334 -1.0956 -0.4835  0.0663
41797SOL    HW228890   0.761   4.223   9.472 -0.6047  0.0164 -0.1035
41798SOL     OW28891   8.690   9.481   9.057 -0.0513 -0.5350 -0.2124
41798SOL    HW128892   8.617   9.491   9.118  0.5028  0.5286  0.3075
41798SOL    HW228893   8.689   9.388   9.033 -1.2143 -0.6517  0.2249
41799SOL     OW28894   8.638   5.675   2.743 -0.1763 -0.0768 -0.0629
41799SOL    HW128895   8.547   5.665   2.769  0.0505 -0.6079  0.5581
41799SOL    HW228896   8.648   5.616   2.668 -0.0266 -1.0107  0.6741
41800SOL     OW28897   1.504   4.984  10.284  0.1631 -0.1105  0.2441
41800SOL    HW128898   1.417   4.984  10.324  0.7744 -0.5314  1.6321
41800SOL    HW228899   1.503   4.911  10.222 -0.7724  0.4986 -0.4795
41801SOL     OW28900   0.755   5.991   2.579  0.1545  0.6439 -0.3014
41801SOL    HW128901   0.757   5.926   2.650 -1.4440  0.1242 -0.6960
41801SOL    HW228902   0.713   6.068   2.618 -2.6895 -0.3605 -1.1790
41802SOL     OW28903   9.883   2.597   3.413  0.4791 -0.2833  0.1508
41802SOL    HW128904   9.948   2.577   3.346  1.3659  1.1654  0.5280
41802SOL    HW228905   9.932   2.643   3.482 -1.0314  1.5605  0.0940
41803SOL     OW28906   9.121   8.961   7.602 -0.2680 -0.6270 -0.3201
41803SOL    HW128907   9.209   8.992   7.581 -0.4665  0.1667 -0.0395
41803SOL    HW228908   9.104   8.996   7.689 -1.3520  0.3392 -0.8929
41804SOL     OW28909   5.543   9.995   7.537  0.3599  0.8282  0.1394
41804SOL    HW128910   5.514  10.023   7.625 -3.6191 -0.6166 -0.4722
41804SOL    HW228911   5.542   9.900   7.541  0.1944  0.7385 -1.4207
41805SOL     OW28912   3.760   8.246   1.688  0.2462  0.5677  0.0018
41805SOL    HW128913   3.676   8.290   1.679  0.2721  0.2033 -2.5378
41805SOL    HW228914   3.743   8.155   1.666  1.4204  0.6425 -1.3596
41806SOL     OW28915   5.402   7.961   8.958 -0.1285 -0.2072  0.1921
41806SOL    HW128916   5.471   8.000   8.905 -0.4710  1.4901  0.9115
41806SOL    HW228917   5.444   7.940   9.041 -0.5982  1.6066  0.9368
41807SOL     OW28918   6.464   8.134  10.326 -0.0133  0.0327  0.0818
41807SOL    HW128919   6.413   8.090  10.258  0.2210  0.7433 -0.5735
41807SOL    HW228920   6.428   8.223  10.329  0.5253  0.2478  0.3040
41808SOL     OW28921   5.415   2.278   6.383 -0.5112 -0.3293  0.4399
41808SOL    HW128922   5.455   2.353   6.426 -1.5407 -0.8593  2.4299
41808SOL    HW228923   5.473   2.205   6.403  0.8820 -0.0521 -2.0947
41809SOL     OW28924  10.282   3.131   7.356  0.7186 -0.6410  0.4638
41809SOL    HW128925  10.188   3.149   7.354  0.9691  1.6271 -4.4232
41809SOL    HW228926  10.289   3.036   7.345 -1.0919 -0.6125 -1.5396
41810SOL     OW28927  10.861  10.221   6.089 -0.5709  0.1220  0.4365
41810SOL    HW128928  10.785  10.200   6.034 -0.4718 -1.2275  0.7664
41810SOL    HW228929  10.926  10.255   6.028 -1.4494  1.3377  0.1559
41811SOL     OW28930   6.867   3.550   1.249  0.2134 -0.5102 -0.0018
41811SOL    HW128931   6.921   3.566   1.172 -0.2629  0.5257 -0.1375
41811SOL    HW228932   6.780   3.581   1.224  0.0028 -0.3841  0.8591
41812SOL     OW28933   0.942  10.119  10.168  0.1576 -0.0386  0.4083
41812SOL    HW128934   0.888  10.076  10.102  0.8624 -1.5432  0.7726
41812SOL    HW228935   0.881  10.145  10.236 -0.5318  1.2219 -0.6442
41813SOL     OW28936   2.280   6.562   7.146  0.2875 -0.5485  0.4448
41813SOL    HW128937   2.284   6.545   7.241 -2.9347 -0.5346  0.7068
41813SOL    HW228938   2.200   6.614   7.135 -1.1635 -3.0539 -2.5524
41814SOL     OW28939   9.121   5.065   9.515 -0.1909  0.4372  0.4039
41814SOL    HW128940   9.213   5.086   9.498  0.1847 -1.1768  0.3011
41814SOL    HW228941   9.073   5.120   9.452  0.7827  0.2456 -0.5465
41815SOL     OW28942  10.294   5.866   0.508  0.5125 -0.6757  0.1619
41815SOL    HW128943  10.312   5.939   0.567  1.7995  0.8002 -1.9456
41815SOL    HW228944  10.355   5.798   0.535  2.5031  0.7063 -0.6520
41816SOL     OW28945  10.232  10.956   1.605 -0.6769 -0.2185 -0.7183
41816SOL    HW128946  10.182  11.029   1.641 -1.7448 -1.4101  0.3418
41816SOL    HW228947  10.323  10.978   1.622 -0.9737  0.8748 -0.4672
41817SOL     OW28948   3.465   7.739   0.339 -0.3832  0.0234 -0.1163
41817SOL    HW128949   3.414   7.761   0.262 -1.7474  0.3117  0.8323
41817SOL    HW228950   3.515   7.819   0.358  1.2333 -0.5623 -1.5939
41818SOL     OW28951   3.055   2.339   9.861  0.2933 -0.2375 -0.2215
41818SOL    HW128952   3.134   2.309   9.816  0.0344 -2.1310  0.4831
41818SOL    HW228953   2.985   2.325   9.797  0.4938  1.4266 -0.8405
41819SOL     OW28954   9.429   2.494   0.805 -0.1590 -0.4448  0.5445
41819SOL    HW128955   9.394   2.458   0.886  2.2757 -1.9796  1.0098
41819SOL    HW228956   9.460   2.418   0.756  0.4172  0.6222 -0.8078
41820SOL     OW28957   3.018   1.475   1.441  0.1759 -0.5440  0.8038
41820SOL    HW128958   3.081   1.437   1.502  0.6691 -0.5064  0.3294
41820SOL    HW228959   3.012   1.411   1.369  0.7636  0.0998  0.1625
41821SOL     OW28960   3.358   4.274   2.951 -0.2006  0.2564  0.3928
41821SOL    HW128961   3.294   4.327   2.998  1.1683  2.8273 -0.4558
41821SOL    HW228962   3.425   4.252   3.016 -0.1848  0.5761  0.4831
41822SOL     OW28963  10.068   0.579   4.151 -0.2127 -0.2165 -0.0796
41822SOL    HW128964  10.005   0.528   4.202 -0.6991 -0.5393 -0.9889
41822SOL    HW228965  10.080   0.659   4.202  0.1415 -0.9833  1.0903
41823SOL     OW28966   4.830   8.398   5.860  0.2098  0.4284 -0.4678
41823SOL    HW128967   4.911   8.348   5.846  0.6742  0.8420  0.6775
41823SOL    HW228968   4.761   8.332   5.857  0.5161  0.1254 -1.9061
41824SOL     OW28969   3.454   9.508   3.973 -0.4325 -0.1000 -0.3029
41824SOL    HW128970   3.459   9.465   4.058 -0.2841  0.9322  0.2329
41824SOL    HW228971   3.361   9.521   3.958 -0.4805 -0.6529 -0.4957
41825SOL     OW28972   2.356   5.524   2.790 -0.3005 -0.3746 -0.6835
41825SOL    HW128973   2.381   5.435   2.817  0.6201 -0.2781 -1.1799
41825SOL    HW228974   2.282   5.510   2.731 -1.2667 -0.6895  0.5670
41826SOL     OW28975   0.035   8.718  10.873  0.0076 -0.1111 -0.2990
41826SOL    HW128976  -0.048   8.707  10.827 -0.7498 -1.3150  1.2612
41826SOL    HW228977   0.095   8.656  10.829 -0.7033 -1.2545  0.2935
41827SOL     OW28978   6.802   8.234   9.645  0.1354 -0.6469 -0.0229
41827SOL    HW128979   6.725   8.289   9.632  0.6721  0.0234 -0.4179
41827SOL    HW228980   6.852   8.243   9.564  0.7289 -0.9263  0.3057
41828SOL     OW28981   8.425  10.160   6.484  0.1753 -0.5573  0.2140
41828SOL    HW128982   8.458  10.230   6.540  0.4979  0.5384 -1.2863
41828SOL    HW228983   8.499  10.138   6.426 -1.0940  0.7401 -2.0480
41829SOL     OW28984   4.691   6.807   6.519 -0.2527  0.5410 -0.6499
41829SOL    HW128985   4.787   6.812   6.527 -0.1251  0.2549 -1.7935
41829SOL    HW228986   4.666   6.732   6.572 -0.0052  1.3809  0.7197
41830SOL     OW28987   9.822  10.720   4.500 -0.0504  0.0075 -0.3512
41830SOL    HW128988   9.767  10.669   4.560  2.6766 -2.0680  0.5963
41830SOL    HW228989   9.863  10.786   4.556  1.3575 -0.9801 -0.1737
41831SOL     OW28990   4.534   7.122   7.969 -0.2032  0.2686  0.0491
41831SOL    HW128991   4.615   7.072   7.972 -0.6785 -0.4753  0.9086
41831SOL    HW228992   4.481   7.088   8.041 -0.6083  1.9149  0.5925
41832SOL     OW28993   4.726   0.288   6.489  0.2453 -0.0652  0.5430
41832SOL    HW128994   4.644   0.314   6.531  0.3154  0.3642  0.4187
41832SOL    HW228995   4.788   0.356   6.514  0.6231 -0.4971  0.8106
41833SOL     OW28996   5.331   9.701  10.682  0.0595 -0.6716  0.3142
41833SOL    HW128997   5.241   9.695  10.652 -0.3001 -1.2866  1.4578
41833SOL    HW228998   5.348   9.795  10.689 -0.8056 -0.5545  0.9604
41834SOL     OW28999   1.976   6.065   5.167 -0.1545 -0.0914  0.7837
41834SOL    HW129000   2.054   6.014   5.144  1.1366  1.6746  1.0401
41834SOL    HW229001   1.967   6.053   5.262 -0.7837 -1.0465  0.6175
41835SOL     OW29002   0.215   8.400   1.495  0.3259  0.1527  0.3569
41835SOL    HW129003   0.283   8.423   1.431  0.7690 -1.0024  0.3842
41835SOL    HW229004   0.224   8.464   1.565  1.3215  0.0871  0.3021
41836SOL     OW29005   0.856   3.720   8.485 -0.0354  0.1331 -0.0445
41836SOL    HW129006   0.926   3.784   8.474  0.1533  0.0058  0.3656
41836SOL    HW229007   0.801   3.730   8.408 -0.6951  1.6457  0.5771
41837SOL     OW29008  10.848  10.916   5.801 -0.1398  0.3186  0.5941
41837SOL    HW129009  10.927  10.898   5.853 -0.0015 -1.2673 -0.1010
41837SOL    HW229010  10.794  10.837   5.811 -0.8647  0.6842 -0.3030
41838SOL     OW29011   4.569   8.624  10.788 -0.1452 -1.0713  0.1863
41838SOL    HW129012   4.511   8.678  10.735 -1.2257 -1.6790  0.7239
41838SOL    HW229013   4.627   8.581  10.725 -0.0677 -0.2259 -0.3276
41839SOL     OW29014   1.589   8.905   9.461 -0.3170  0.1867 -0.2477
41839SOL    HW129015   1.637   8.824   9.450  0.0041 -0.0456  2.3527
41839SOL    HW229016   1.500   8.877   9.482 -0.4503  0.5421 -0.3309
41840SOL     OW29017  10.787   0.767   0.301  0.1456  0.2988 -0.9058
41840SOL    HW129018  10.812   0.680   0.271 -0.6531 -0.2758  0.0357
41840SOL    HW229019  10.869   0.809   0.326  0.4372 -0.5593 -0.4011
41841SOL     OW29020   0.123   2.131  10.380  0.1039  1.0241 -0.6044
41841SOL    HW129021   0.053   2.091  10.432 -1.0528  2.3218 -1.1186
41841SOL    HW229022   0.078   2.192  10.322  1.8049  3.5861  0.5922
41842SOL     OW29023   8.402   4.075   8.317 -0.2954  0.4635 -0.4923
41842SOL    HW129024   8.389   3.982   8.336 -0.3770  0.3725 -0.9879
41842SOL    HW229025   8.328   4.118   8.359  1.0070  0.5938  1.8968
41843SOL     OW29026  10.327   2.420   0.098 -0.2582  0.1518 -0.0794
41843SOL    HW129027  10.341   2.416   0.192 -0.8936  0.1869  0.0227
41843SOL    HW229028  10.238   2.454   0.088  0.2712  1.4380 -0.7124
41844SOL     OW29029   7.763   4.122   0.075  0.9792 -0.6870 -0.9883
41844SOL    HW129030   7.825   4.143   0.145 -0.7437  2.3278 -0.2053
41844SOL    HW229031   7.718   4.043   0.106  1.7204 -0.6316  0.3074
41845SOL     OW29032   2.610  10.178   6.613 -0.0569 -0.0025  0.1419
41845SOL    HW129033   2.704  10.163   6.596 -0.4657  0.8687 -3.9370
41845SOL    HW229034   2.574  10.090   6.624  0.9018 -0.5568 -0.8703
41846SOL     OW29035   8.615  10.189   8.823 -0.1330 -0.0988  0.9060
41846SOL    HW129036   8.605  10.249   8.897 -0.9391 -0.2945  0.9605
41846SOL    HW229037   8.558  10.225   8.755 -0.4869 -0.6963  0.8784
41847SOL     OW29038  10.917   4.774   8.424  0.4340 -0.2387 -0.0815
41847SOL    HW129039  10.881   4.829   8.493  1.8205  0.7771 -0.1288
41847SOL    HW229040  10.843   4.757   8.365 -0.0203  1.6622 -0.1080
41848SOL     OW29041   5.330   5.488   6.692  0.5114 -0.5160 -0.0494
41848SOL    HW129042   5.421   5.469   6.669  0.0140 -2.2850 -0.8051
41848SOL    HW229043   5.308   5.422   6.758 -0.1321  0.0995  0.3584
41849SOL     OW29044  10.953   7.636   0.507 -0.0210 -0.1392 -0.1035
41849SOL    HW129045  10.905   7.604   0.583 -2.1530  3.2991  0.2219
41849SOL    HW229046  11.007   7.708   0.541 -0.2117  0.7722 -1.6536
41850SOL     OW29047   8.403   8.345   7.974  0.0720 -0.4086  0.2608
41850SOL    HW129048   8.481   8.297   7.944  0.0597  0.3428 -1.0247
41850SOL    HW229049   8.434   8.398   8.047  0.3327 -1.5103  0.9785
41851SOL     OW29050  10.815   0.322   9.574 -0.2920  0.1465 -0.2047
41851SOL    HW129051  10.784   0.232   9.567 -1.1894  0.2492  1.7723
41851SOL    HW229052  10.772   0.368   9.502 -1.7646 -0.5353  0.2059
41852SOL     OW29053  10.231   0.416   1.866 -0.5358 -0.5065 -0.2383
41852SOL    HW129054  10.204   0.369   1.788  2.5478 -1.1775 -0.9948
41852SOL    HW229055  10.231   0.350   1.936  1.4982 -1.1636 -0.7988
41853SOL     OW29056   4.281   8.320   5.263  0.5704  0.2708  0.2977
41853SOL    HW129057   4.216   8.352   5.201  0.3340 -0.4539  0.1581
41853SOL    HW229058   4.362   8.317   5.213  0.9478  2.1233  0.7467
41854SOL     OW29059   0.023   7.636  10.372  0.1701 -0.1930 -0.3729
41854SOL    HW129060   0.014   7.548  10.334  1.0409 -0.3850 -0.1506
41854SOL    HW229061   0.053   7.621  10.461  0.6282  0.3434 -0.4323
41855SOL     OW29062   9.397   1.340   9.201 -0.3442  0.1630 -0.7725
41855SOL    HW129063   9.394   1.358   9.107  2.3465  1.2344 -0.7582
41855SOL    HW229064   9.424   1.249   9.208 -1.8901 -0.3398 -0.9740
41856SOL     OW29065   9.686   1.509   5.862  0.3125 -0.0556  0.0007
41856SOL    HW129066   9.646   1.431   5.900  0.8962 -0.8106 -0.8977
41856SOL    HW229067   9.780   1.489   5.859  0.4056  0.4610 -0.7430
41857SOL     OW29068  10.305   5.476   5.249  0.1692 -0.0540  0.2372
41857SOL    HW129069  10.241   5.501   5.316  1.3826  1.4405  0.8841
41857SOL    HW229070  10.341   5.559   5.217  2.6414 -0.8443  0.7473
41858SOL     OW29071   8.552   6.647   4.745 -0.0232 -0.2803  0.0886
41858SOL    HW129072   8.605   6.709   4.695  1.2412 -0.7965  0.7424
41858SOL    HW229073   8.573   6.562   4.708  1.6821 -0.7936  2.0495
41859SOL     OW29074   8.429   4.142   0.838 -0.6007  0.0882 -0.0278
41859SOL    HW129075   8.522   4.164   0.831 -0.5542 -0.3971 -1.0399
41859SOL    HW229076   8.418   4.064   0.784 -1.4053 -0.4567  0.8804
41860SOL     OW29077  10.750   7.698   3.306 -0.3745  0.2323  0.3021
41860SOL    HW129078  10.707   7.765   3.359 -0.6898  0.1848  0.1093
41860SOL    HW229079  10.687   7.626   3.302  0.1154 -0.2447  0.8369
41861SOL     OW29080   5.458   2.818   6.354 -0.6447 -0.5079  0.4425
41861SOL    HW129081   5.487   2.904   6.386  0.3506 -1.0617  1.0731
41861SOL    HW229082   5.363   2.829   6.341 -1.1190 -0.1676  3.4334
41862SOL     OW29083   1.170   4.566   0.498 -0.5034  0.2130  0.0759
41862SOL    HW129084   1.209   4.541   0.415 -0.3872  1.6113 -0.3149
41862SOL    HW229085   1.238   4.551   0.563  0.0108  0.7400 -0.3302
41863SOL     OW29086   3.949   5.141   4.769 -0.2541 -0.0496  0.0941
41863SOL    HW129087   3.927   5.133   4.676  0.0295  0.7048 -0.0427
41863SOL    HW229088   3.865   5.151   4.813 -0.3031  1.6023 -0.3012
41864SOL     OW29089  10.749   4.777   0.473  0.1355 -0.6977 -0.0997
41864SOL    HW129090  10.829   4.798   0.521  0.7181 -1.6898 -0.6244
41864SOL    HW229091  10.681   4.773   0.541  0.8193 -1.3884  0.5685
41865SOL     OW29092   7.307   8.255   3.403  0.7282 -0.2673 -0.1796
41865SOL    HW129093   7.384   8.219   3.447  0.6246 -0.8403 -0.4632
41865SOL    HW229094   7.326   8.349   3.395  1.1939 -0.3297  0.1604
41866SOL     OW29095   9.813   1.652   7.257  0.0728  0.1529 -0.2243
41866SOL    HW129096   9.758   1.668   7.334  1.9445  0.9397  1.0455
41866SOL    HW229097   9.809   1.734   7.207 -1.8809 -0.6705 -1.5418
41867SOL     OW29098   1.480   7.205   6.779 -0.8383 -0.5386  0.0580
41867SOL    HW129099   1.546   7.274   6.789 -2.3017  0.9149  0.1108
41867SOL    HW229100   1.451   7.186   6.868 -2.0317  0.4196 -0.1074
41868SOL     OW29101   6.131   1.387   8.175 -0.5950  0.1462  0.5351
41868SOL    HW129102   6.182   1.318   8.133 -0.2267 -0.6942  2.2593
41868SOL    HW229103   6.196   1.455   8.196 -1.0998  1.5018 -1.9751
41869SOL     OW29104   5.550   9.035  10.386 -0.5112 -0.1091  0.0455
41869SOL    HW129105   5.468   8.997  10.356  0.4044 -0.8129 -1.6908
41869SOL    HW229106   5.611   8.961  10.388  0.6954  0.8226 -1.0783
41870SOL     OW29107   7.205   0.104   3.455 -0.6558 -0.1250 -0.7127
41870SOL    HW129108   7.122   0.142   3.426 -1.5293 -0.5075  1.1514
41870SOL    HW229109   7.200   0.106   3.550  1.4435 -0.2726 -0.5530
41871SOL     OW29110   2.154   7.854   4.734  0.3288 -0.1286  0.2075
41871SOL    HW129111   2.239   7.876   4.773  0.2156 -1.2944  1.1403
41871SOL    HW229112   2.091   7.865   4.805 -0.4304  1.3879 -0.6545
41872SOL     OW29113   1.238   2.141   0.065  0.2427  0.0567  0.1482
41872SOL    HW129114   1.242   2.081   0.139 -1.3910  0.7878  0.8750
41872SOL    HW229115   1.190   2.217   0.099  0.8784  1.0990 -1.2022
41873SOL     OW29116   9.524   3.848   4.359 -0.0304  0.2388 -0.4332
41873SOL    HW129117   9.487   3.850   4.447 -0.0598 -0.4803 -0.4272
41873SOL    HW229118   9.567   3.933   4.350  0.8027 -0.0417  0.6368
41874SOL     OW29119   9.847   8.802  10.365  0.3021  0.0953  0.1478
41874SOL    HW129120   9.824   8.730  10.424  0.3571  0.2381  0.3465
41874SOL    HW229121   9.889   8.866  10.422  0.1521  0.3330 -0.0086
41875SOL     OW29122   2.034   1.451   4.896 -0.7869 -0.4235  0.6638
41875SOL    HW129123   2.013   1.407   4.814 -2.2229 -0.4338  1.0027
41875SOL    HW229124   1.950   1.488   4.925  0.1191  1.4735  1.0060
41876SOL     OW29125   7.508   3.275   1.280 -0.0267  0.5665 -0.2817
41876SOL    HW129126   7.537   3.194   1.323 -0.7152  0.8004  0.6439
41876SOL    HW229127   7.575   3.339   1.302  0.0470  0.4786 -0.2497
41877SOL     OW29128   3.475   6.677   1.424 -0.6881  0.9563 -0.0989
41877SOL    HW129129   3.422   6.628   1.361 -0.8413  0.9076  0.0667
41877SOL    HW229130   3.565   6.652   1.404 -0.8216 -0.2398  0.6799
41878SOL     OW29131   8.890   7.043   4.086 -0.1716 -0.4211  0.5945
41878SOL    HW129132   8.893   7.015   4.178 -1.4363  0.7046  1.0075
41878SOL    HW229133   8.898   7.138   4.089 -1.2278 -0.2780 -0.3776
41879SOL     OW29134   0.013   5.637   7.936 -0.3117  0.1793 -0.8282
41879SOL    HW129135  -0.061   5.612   7.991 -1.5164  2.6361 -1.2241
41879SOL    HW229136  -0.024   5.652   7.849 -0.0102  4.0868 -0.4582
41880SOL     OW29137   1.152   4.947   7.308 -0.3183  0.3817 -0.1195
41880SOL    HW129138   1.232   4.894   7.297 -0.5674 -0.0087 -0.0788
41880SOL    HW229139   1.081   4.883   7.299 -0.6127  0.6470  0.3488
41881SOL     OW29140   0.240   6.337   0.856  0.1925  0.0142 -0.7088
41881SOL    HW129141   0.311   6.308   0.914 -0.2981  3.4866  1.9795
41881SOL    HW229142   0.281   6.400   0.797 -0.2585  0.5210 -0.4923
41882SOL     OW29143   5.639   2.198   5.474  0.5013 -0.4137  0.4620
41882SOL    HW129144   5.576   2.185   5.402 -0.5565  1.4867  0.9684
41882SOL    HW229145   5.717   2.235   5.432  0.0778  0.1993  0.1957
41883SOL     OW29146   2.879   9.971   7.705  0.2523 -0.1519 -0.4579
41883SOL    HW129147   2.878   9.991   7.612  1.6234  0.2528 -0.4192
41883SOL    HW229148   2.964   9.928   7.719 -0.5675 -1.5651  0.3489
41884SOL     OW29149   4.782   3.394   7.255 -0.2787 -0.1548  0.1783
41884SOL    HW129150   4.734   3.377   7.173  0.6114 -1.5865 -0.0959
41884SOL    HW229151   4.805   3.486   7.251 -0.6779 -0.0868 -0.9606
41885SOL     OW29152   7.134   8.757   4.791 -0.3354  0.0765 -0.5995
41885SOL    HW129153   7.229   8.772   4.786 -0.4418  0.7353 -0.7639
41885SOL    HW229154   7.126   8.668   4.825  0.3340  0.7523  1.4703
41886SOL     OW29155   4.340   8.246   2.675  0.1843  0.4796  0.0632
41886SOL    HW129156   4.427   8.248   2.715 -0.2036 -1.6108  1.1359
41886SOL    HW229157   4.350   8.193   2.596  0.1750  1.5810 -0.7097
41887SOL     OW29158   8.740   9.748   3.976 -0.0614  0.1060 -0.5918
41887SOL    HW129159   8.668   9.694   3.941 -0.3481  0.5136 -0.6415
41887SOL    HW229160   8.811   9.735   3.913 -0.9401  1.7230 -2.0158
41888SOL     OW29161   4.923   8.576  10.797  0.0990 -0.2384  0.4182
41888SOL    HW129162   4.935   8.482  10.809 -2.6456 -0.5045  1.9312
41888SOL    HW229163   4.856   8.584  10.729  2.0482  0.7785 -1.5014
41889SOL     OW29164   2.517   7.363   2.866  0.0099  0.0837 -0.4063
41889SOL    HW129165   2.582   7.345   2.799  0.5841 -0.2536  0.2319
41889SOL    HW229166   2.470   7.440   2.834  1.0276  0.6104 -0.6498
41890SOL     OW29167   8.864   9.251   8.675  0.1533  0.3332 -0.1065
41890SOL    HW129168   8.828   9.191   8.740 -1.8427  2.0412  0.4571
41890SOL    HW229169   8.958   9.230   8.672 -0.2038 -1.6824  1.2185
41891SOL     OW29170   3.180   2.976   8.507 -0.0677 -0.0722 -0.5430
41891SOL    HW129171   3.229   2.893   8.509 -1.1583 -0.7678  2.1463
41891SOL    HW229172   3.232   3.033   8.452  3.4657 -0.9700  1.5181
41892SOL     OW29173   9.692  10.314  10.579  0.4968  0.5527 -0.1273
41892SOL    HW129174   9.607  10.354  10.595  0.7402  0.5263  1.3137
41892SOL    HW229175   9.706  10.326  10.485 -0.0870  2.5395 -0.0002
41893SOL     OW29176   2.873   2.090   5.457 -0.0785  0.1035 -0.6873
41893SOL    HW129177   2.852   2.151   5.528 -1.2257 -0.8947 -0.1193
41893SOL    HW229178   2.844   2.135   5.378 -0.4367  0.5096 -0.3337
41894SOL     OW29179   2.585   0.238   0.426 -0.0714  0.4000  0.0220
41894SOL    HW129180   2.652   0.177   0.456  0.6385  0.2153 -1.7911
41894SOL    HW229181   2.504   0.208   0.466  0.7575  0.0241  1.4568
41895SOL     OW29182  10.292   9.837   9.657 -0.3877 -0.3565  0.6324
41895SOL    HW129183  10.269   9.762   9.712 -1.8380 -0.9435 -0.7151
41895SOL    HW229184  10.332   9.899   9.718 -2.3531 -0.7745  2.4716
41896SOL     OW29185   0.405   7.966   5.781 -0.4550  0.7088  0.2378
41896SOL    HW129186   0.413   7.890   5.838  0.9622  0.9959  0.4489
41896SOL    HW229187   0.437   7.937   5.696 -1.2685  0.6745 -0.0664
41897SOL     OW29188   7.204   5.015   9.887 -0.5500 -0.1083  0.0441
41897SOL    HW129189   7.220   4.981   9.799  1.2044  0.2918  0.1793
41897SOL    HW229190   7.276   5.075   9.904 -0.8201 -0.2092  1.7832
41898SOL     OW29191   4.399   9.855   7.178  0.1093  0.1000 -0.0140
41898SOL    HW129192   4.403   9.943   7.140  0.8787  0.2568  0.4102
41898SOL    HW229193   4.307   9.831   7.173  0.1603  0.1757 -1.8368
41899SOL     OW29194  10.262   4.719   2.723 -0.3183 -0.2746  0.8480
41899SOL    HW129195  10.358   4.716   2.719 -0.3430  0.1962 -0.9659
41899SOL    HW229196  10.241   4.812   2.719 -0.8728 -0.4398 -0.8082
41900SOL     OW29197   7.293   4.760   2.616  0.4339  0.2474  0.0809
41900SOL    HW129198   7.321   4.807   2.538 -1.9298 -0.4708 -1.2905
41900SOL    HW229199   7.270   4.673   2.585 -0.1576 -0.1988  1.6526
41901SOL     OW29200   5.131   0.549   0.949  0.3310  0.2153  0.1528
41901SOL    HW129201   5.214   0.594   0.936  0.9690 -1.0932 -0.4204
41901SOL    HW229202   5.145   0.461   0.914 -1.7411  0.3953 -1.3572
41902SOL     OW29203   7.476   3.196   2.428  0.2659  0.5753  0.0043
41902SOL    HW129204   7.473   3.126   2.362  0.2571  1.0038 -0.4487
41902SOL    HW229205   7.558   3.179   2.476 -0.3623 -0.5125  0.7557
41903SOL     OW29206  10.664   8.161   1.804 -0.1010 -0.1844  0.1732
41903SOL    HW129207  10.598   8.139   1.869  0.7212  1.0022  1.4496
41903SOL    HW229208  10.680   8.079   1.757 -1.5560 -0.7744  0.6589
41904SOL     OW29209   0.427   0.551  10.305 -0.0227 -0.7656 -0.0459
41904SOL    HW129210   0.458   0.576  10.217  1.1934  1.0574  0.8290
41904SOL    HW229211   0.343   0.595  10.314  1.7518  2.8076  1.1857
41905SOL     OW29212   3.101  10.207   1.588  0.0059  0.0092 -0.2711
41905SOL    HW129213   3.156  10.198   1.510  1.7075  1.0651  0.7259
41905SOL    HW229214   3.016  10.236   1.555  1.3349  2.7634 -1.6563
41906SOL     OW29215   3.831   7.619   3.677 -0.1145  0.1894  0.1406
41906SOL    HW129216   3.770   7.688   3.649  0.5509  0.2797 -1.1457
41906SOL    HW229217   3.775   7.555   3.721 -0.7531  1.5155  1.3620
41907SOL     OW29218   0.916   4.133   8.316 -0.1955 -0.7396  0.1297
41907SOL    HW129219   0.908   4.054   8.263 -0.6482 -1.9948  1.9565
41907SOL    HW229220   0.911   4.205   8.254  0.7226 -2.1394 -1.6525
41908SOL     OW29221   6.301   3.310   4.837  0.6459  0.3968 -0.4250
41908SOL    HW129222   6.262   3.223   4.834  1.3535  0.0031  1.0686
41908SOL    HW229223   6.394   3.295   4.848  0.6628  1.3324  0.9166
41909SOL     OW29224   3.925   0.540   1.769 -0.0295  0.1505 -0.2829
41909SOL    HW129225   3.918   0.505   1.680 -0.0409  1.5374 -0.8381
41909SOL    HW229226   3.983   0.615   1.762 -0.8793  0.9353  0.6733
41910SOL     OW29227   8.831   9.222   1.625 -0.6841  0.2215  0.1546
41910SOL    HW129228   8.874   9.189   1.546  0.2626  0.9672  0.3374
41910SOL    HW229229   8.808   9.142   1.674  0.8408 -0.2178  0.2118
41911SOL     OW29230   3.413   7.462   7.559 -0.4407  0.3077  0.3528
41911SOL    HW129231   3.369   7.379   7.575  0.5259 -0.7531 -1.9821
41911SOL    HW229232   3.452   7.452   7.472  1.4043  2.4706  0.8332
41912SOL     OW29233   7.207   4.681   1.416 -0.2922  0.2973 -0.1646
41912SOL    HW129234   7.251   4.691   1.331  1.0156 -1.5645  0.2395
41912SOL    HW229235   7.160   4.597   1.409  2.2842 -1.4835  1.8858
41913SOL     OW29236   3.474   5.283   6.158 -0.2645  0.0478 -0.3170
41913SOL    HW129237   3.545   5.342   6.181  0.5108 -1.5043  1.5978
41913SOL    HW229238   3.395   5.337   6.159  0.7548  1.6739 -1.9077
41914SOL     OW29239   8.881   1.603   2.886  0.4441  0.6814 -0.5967
41914SOL    HW129240   8.824   1.579   2.958 -0.3715  0.8066 -1.1915
41914SOL    HW229241   8.934   1.525   2.870 -1.2430 -0.3075 -1.6208
41915SOL     OW29242   9.618   6.327  10.279 -0.6788 -0.0166  0.1904
41915SOL    HW129243   9.559   6.253  10.262 -0.4371  0.0289 -0.8810
41915SOL    HW229244   9.587   6.396  10.221  0.5743 -0.0697 -0.5711
41916SOL     OW29245   6.300   0.971   9.762  0.0041 -0.6187  0.3696
41916SOL    HW129246   6.335   0.984   9.850 -2.0323  0.3118  1.1102
41916SOL    HW229247   6.274   0.879   9.760  0.3583 -0.7272  0.6082
41917SOL     OW29248   4.629   0.631   3.940 -0.4456  0.0505 -0.6913
41917SOL    HW129249   4.654   0.683   3.864  0.9872 -0.0016 -0.2712
41917SOL    HW229250   4.651   0.541   3.916  2.0632  0.2596  0.5438
41918SOL     OW29251  10.335   2.215   5.193 -0.5154 -0.1175 -0.1174
41918SOL    HW129252  10.246   2.232   5.222 -0.7617  0.5374 -1.1712
41918SOL    HW229253  10.332   2.228   5.098  0.6692 -0.2176 -0.1892
41919SOL     OW29254   7.162   0.269   5.383  0.4071 -0.2384  0.2690
41919SOL    HW129255   7.098   0.212   5.426 -2.2920  1.7340 -0.8422
41919SOL    HW229256   7.187   0.332   5.451 -0.7308  0.4276  0.0901
41920SOL     OW29257   9.613   3.793   1.570 -0.0478  0.3183 -0.3973
41920SOL    HW129258   9.579   3.803   1.659  1.2640  1.6813 -0.0157
41920SOL    HW229259   9.662   3.873   1.554  1.3907 -0.7636 -1.6224
41921SOL     OW29260   2.074   2.736   0.271 -0.6075  0.4471 -0.0068
41921SOL    HW129261   2.165   2.721   0.244 -0.0352 -2.5882  2.9891
41921SOL    HW229262   2.036   2.648   0.275 -3.4575  1.5679 -0.2139
41922SOL     OW29263  10.044   3.998   9.953 -0.1436  0.5791  0.1701
41922SOL    HW129264   9.953   4.027   9.945 -0.3520  1.0154  3.0441
41922SOL    HW229265  10.057   3.987  10.047  2.4686 -0.5707 -0.2478
41923SOL     OW29266   0.277   0.733   6.868  0.3850  0.2105  0.2234
41923SOL    HW129267   0.317   0.727   6.781  0.5479 -1.0662  0.3647
41923SOL    HW229268   0.279   0.643   6.901 -0.7353  0.4868  1.0806
41924SOL     OW29269   3.684   2.289   4.970  0.0340  0.3696  0.6266
41924SOL    HW129270   3.626   2.300   5.046 -0.1166  2.5915  0.2702
41924SOL    HW229271   3.705   2.379   4.943 -0.0033 -0.3353 -2.0217
41925SOL     OW29272   7.112   9.438   3.804 -0.3562  0.0566  0.2355
41925SOL    HW129273   7.083   9.497   3.735 -0.3711  0.9712  0.9986
41925SOL    HW229274   7.051   9.365   3.801 -0.0684 -0.1469 -1.0159
41926SOL     OW29275   5.891   4.889   1.693  0.0899  0.5625 -0.0426
41926SOL    HW129276   5.966   4.833   1.674  0.0326  0.4305  0.1164
41926SOL    HW229277   5.844   4.896   1.609 -0.5394 -0.5765  0.1912
41927SOL     OW29278  10.430   6.255   9.979  0.2366  0.2783  0.0600
41927SOL    HW129279  10.413   6.194  10.051 -1.1233  0.8075  0.2120
41927SOL    HW229280  10.520   6.236   9.953 -0.0562 -1.6233  0.2708
41928SOL     OW29281   7.432   4.106   1.172  0.0343 -0.3787 -0.5196
41928SOL    HW129282   7.494   4.155   1.117  1.5477 -0.8752  0.6702
41928SOL    HW229283   7.385   4.174   1.221 -0.7456  0.0263 -1.7650
41929SOL     OW29284   2.797   8.340   9.826 -0.0470 -0.3078  0.1833
41929SOL    HW129285   2.802   8.317   9.733 -0.0710  1.4808 -0.2911
41929SOL    HW229286   2.819   8.433   9.829  1.7904 -0.7309  2.1992
41930SOL     OW29287   6.380   8.908   5.004 -0.2463  0.3362  0.0349
41930SOL    HW129288   6.328   8.839   4.963  0.6413 -0.3598  0.0513
41930SOL    HW229289   6.356   8.903   5.097  0.6700 -0.7588  0.2366
41931SOL     OW29290   5.075   7.496   6.504  0.5908  0.3702 -0.7921
41931SOL    HW129291   5.077   7.572   6.563  1.2685  0.4545 -0.9157
41931SOL    HW229292   5.071   7.534   6.416 -0.2412  0.2456 -0.8134
41932SOL     OW29293   8.289   1.028   3.418  0.6933  0.3404  0.4138
41932SOL    HW129294   8.345   1.097   3.382 -1.3644  0.7900 -2.2150
41932SOL    HW229295   8.200   1.057   3.399 -0.3075 -2.1975  0.8683
41933SOL     OW29296   4.703   6.056   8.279  0.6302  0.1702 -0.4684
41933SOL    HW129297   4.698   5.961   8.283 -0.8360  0.2729  1.4273
41933SOL    HW229298   4.707   6.076   8.186  0.9044 -1.7329 -0.8971
41934SOL     OW29299   6.789   4.428   4.274  0.3075 -0.3396  0.2307
41934SOL    HW129300   6.813   4.415   4.182 -0.9798  1.0066 -0.3486
41934SOL    HW229301   6.768   4.521   4.280 -2.5875 -0.9496  1.1296
41935SOL     OW29302   2.861   5.143   4.793  0.4384  0.0370 -0.0072
41935SOL    HW129303   2.822   5.055   4.800 -2.3237  1.2424  1.6700
41935SOL    HW229304   2.945   5.135   4.837  2.4744 -2.7335 -3.7847
41936SOL     OW29305   6.525   2.631   8.377  0.5656 -0.1358  0.1375
41936SOL    HW129306   6.480   2.560   8.422  2.0902 -1.1771  0.1046
41936SOL    HW229307   6.537   2.698   8.444 -1.3683  0.3749  0.0390
41937SOL     OW29308   4.594   8.728   3.299  0.1488  0.3384  0.0229
41937SOL    HW129309   4.565   8.771   3.218  1.5425 -1.0948 -1.3102
41937SOL    HW229310   4.653   8.791   3.339 -1.1961  1.4059  0.4029
41938SOL     OW29311   0.652   3.113   4.797 -0.1171  0.1419  0.5052
41938SOL    HW129312   0.638   3.199   4.756 -0.1289 -0.9131 -1.9098
41938SOL    HW229313   0.739   3.087   4.768  0.4807 -0.1009  2.3929
41939SOL     OW29314   2.109   9.571   9.728 -0.1735  0.3293 -0.0761
41939SOL    HW129315   2.051   9.496   9.738 -0.7755  0.6765 -0.8604
41939SOL    HW229316   2.050   9.645   9.710  0.3024  1.2489  1.8782
41940SOL     OW29317   9.400   8.844   9.485 -0.2036  0.9003  0.3260
41940SOL    HW129318   9.443   8.800   9.559 -0.2275 -0.1610 -0.2707
41940SOL    HW229319   9.355   8.918   9.524  0.5584  0.8942  1.2487
41941SOL     OW29320   6.619   8.870   6.252  0.3181 -0.0538 -0.1797
41941SOL    HW129321   6.711   8.879   6.276 -0.6317  2.3564  3.2720
41941SOL    HW229322   6.587   8.797   6.305  0.3491 -1.5096 -2.0690
41942SOL     OW29323   6.541   9.622   2.931 -0.2789 -0.7453  0.2972
41942SOL    HW129324   6.602   9.550   2.917  0.1863 -0.0533 -1.5106
41942SOL    HW229325   6.596   9.700   2.933 -0.9816 -0.2337  0.0281
41943SOL     OW29326   6.782   6.504   4.230  0.0757  0.5657  0.2367
41943SOL    HW129327   6.719   6.547   4.288 -1.9708  0.6006 -1.8462
41943SOL    HW229328   6.854   6.567   4.221 -1.7327  2.6012 -0.8361
41944SOL     OW29329   3.284   5.281   2.027  0.5848 -0.0417  0.1650
41944SOL    HW129330   3.342   5.334   2.082 -0.8966  1.3773  0.4478
41944SOL    HW229331   3.196   5.302   2.058 -0.0796 -3.3671  0.8387
41945SOL     OW29332   8.843   9.488   8.500  0.3541 -0.5943  0.5185
41945SOL    HW129333   8.857   9.415   8.560 -0.6366  0.7194  2.4087
41945SOL    HW229334   8.877   9.565   8.546  1.6487  0.1746 -1.5409
41946SOL     OW29335   5.572   8.401  10.047  0.2546  0.4154 -0.2264
41946SOL    HW129336   5.489   8.353  10.045 -0.5102  1.6892 -0.2402
41946SOL    HW229337   5.636   8.340  10.009 -1.3063  0.5313 -3.3553
41947SOL     OW29338   6.827   2.057   8.849  0.5967  0.0974 -0.2033
41947SOL    HW129339   6.834   2.095   8.936 -0.1344 -0.8297  0.2772
41947SOL    HW229340   6.912   2.017   8.832  0.6587  0.0644  0.1951
41948SOL     OW29341   1.752   7.079   8.934 -0.3128  0.5913 -0.3569
41948SOL    HW129342   1.843   7.111   8.935 -0.2903  0.5362  0.9146
41948SOL    HW229343   1.756   6.995   8.980 -1.0358  0.6431 -0.1922
41949SOL     OW29344   3.571   9.209   3.527  0.0270 -0.2798  0.4277
41949SOL    HW129345   3.660   9.198   3.559 -0.1970 -3.3450  0.3061
41949SOL    HW229346   3.515   9.197   3.604 -0.3179 -1.8619 -0.0174
41950SOL     OW29347   5.301   9.208   6.320 -0.2916 -0.2465  0.2211
41950SOL    HW129348   5.374   9.163   6.276  0.7915  1.3837  0.2816
41950SOL    HW229349   5.289   9.289   6.270 -0.6744  0.4853  1.4652
41951SOL     OW29350   0.252  10.131  10.106  0.1007  0.2632  0.3328
41951SOL    HW129351   0.250  10.051  10.053 -0.9921  0.7019 -0.3267
41951SOL    HW229352   0.159  10.151  10.122  0.3769  0.1746  2.3825
41952SOL     OW29353  10.559   9.989   1.474 -0.4023  0.1805  0.3653
41952SOL    HW129354  10.555   9.930   1.549 -0.8676 -0.3148 -0.0399
41952SOL    HW229355  10.511   9.943   1.405  1.4748 -0.1432 -0.7917
41953SOL     OW29356  10.463   2.756  10.603  0.5196 -0.4986  0.4583
41953SOL    HW129357  10.369   2.736  10.609  0.2264  1.0966  1.6892
41953SOL    HW229358  10.469   2.849  10.622  2.2177 -0.2021 -1.2533
41954SOL     OW29359   3.158   4.046   3.740  0.6861  0.0506 -0.5044
41954SOL    HW129360   3.232   4.061   3.799  0.2311  1.3257 -0.2274
41954SOL    HW229361   3.108   4.127   3.743 -0.5014 -0.6360 -1.0254
41955SOL     OW29362   9.648   8.844  10.182 -0.0153  0.6554  0.0778
41955SOL    HW129363   9.644   8.755  10.147  0.1364  1.0897 -1.0943
41955SOL    HW229364   9.718   8.840  10.247 -0.3075 -0.1844  0.3563
41956SOL     OW29365   4.113   2.738   7.286 -0.1113 -0.2278 -0.2494
41956SOL    HW129366   4.208   2.727   7.289  0.0909  1.5014  0.8935
41956SOL    HW229367   4.089   2.715   7.196  1.6259  0.9042 -1.0482
41957SOL     OW29368   2.499   9.142   8.792 -0.0085 -0.1787 -0.2290
41957SOL    HW129369   2.442   9.068   8.770 -1.9560  1.0809  0.3924
41957SOL    HW229370   2.462   9.179   8.872  2.6182 -0.2025  1.1271
41958SOL     OW29371   0.989   4.212   1.720 -0.5477  0.0727 -0.4211
41958SOL    HW129372   0.915   4.263   1.688 -1.6640 -2.0058 -1.3304
41958SOL    HW229373   1.058   4.226   1.655 -1.0370 -0.0196 -0.9673
41959SOL     OW29374   2.821   5.960   8.553  0.1889 -0.4845 -0.0681
41959SOL    HW129375   2.877   5.986   8.480 -0.4152 -2.9773 -1.5387
41959SOL    HW229376   2.879   5.912   8.613  0.2441 -0.3748 -0.0337
41960SOL     OW29377   0.302   2.474   3.879  0.3427 -0.0379  0.4215
41960SOL    HW129378   0.293   2.422   3.799  0.8366  0.6208 -0.0704
41960SOL    HW229379   0.230   2.538   3.874 -0.0136 -0.3973  0.8243
41961SOL     OW29380   8.713   4.458   7.797  0.8461 -0.3521  0.3648
41961SOL    HW129381   8.669   4.465   7.882 -1.6921 -1.7557 -0.7325
41961SOL    HW229382   8.713   4.548   7.764  0.4044 -0.0365  1.1680
41962SOL     OW29383   8.219   7.841   1.764 -0.3438  0.0431 -0.5760
41962SOL    HW129384   8.304   7.799   1.779  0.5508  1.5614 -1.2222
41962SOL    HW229385   8.167   7.817   1.842  0.2529 -1.8171 -0.6856
41963SOL     OW29386   7.140   2.562   2.536 -0.0352 -0.0069 -0.1358
41963SOL    HW129387   7.174   2.477   2.510  0.1094 -1.0363  2.9986
41963SOL    HW229388   7.050   2.544   2.565 -1.4240  1.6730 -2.9045
41964SOL     OW29389   1.191  10.027   7.025  0.1098  0.0379 -0.2932
41964SOL    HW129390   1.282  10.047   7.002  1.0816 -3.2048  0.2899
41964SOL    HW229391   1.196   9.993   7.114 -1.9051  1.0421  0.2384
41965SOL     OW29392   3.415   6.331   9.299 -0.5264  0.3435 -0.3965
41965SOL    HW129393   3.507   6.307   9.288 -0.6055 -0.2884  0.2850
41965SOL    HW229394   3.412   6.379   9.381 -0.9951 -0.7928  0.2861
41966SOL     OW29395   4.880   4.119   1.966  0.1761  0.8699 -0.1474
41966SOL    HW129396   4.909   4.196   2.015 -0.3300  0.8944  0.1187
41966SOL    HW229397   4.921   4.129   1.880  0.6499  1.0930  0.1029
41967SOL     OW29398   2.686  10.680   4.190 -0.1247 -0.0102  0.3993
41967SOL    HW129399   2.643  10.752   4.236  3.2470  1.4132  1.6586
41967SOL    HW229400   2.675  10.700   4.097 -1.4357  0.6653  0.6826
41968SOL     OW29401  10.565   7.912   9.490  0.9168 -0.3716 -0.4257
41968SOL    HW129402  10.616   7.952   9.419  1.9364 -0.1415  0.4064
41968SOL    HW229403  10.599   7.822   9.496  1.8916  0.0474  0.7137
41969SOL     OW29404   5.354   7.692   4.561 -0.6912 -0.1958  0.0523
41969SOL    HW129405   5.338   7.737   4.643  1.3583 -0.8053  0.8650
41969SOL    HW229406   5.380   7.603   4.587  3.2007  0.4524 -0.9042
41970SOL     OW29407   7.031   9.557   8.850 -0.2615 -0.0892  0.0114
41970SOL    HW129408   7.093   9.602   8.792 -0.0021 -0.9029 -0.3491
41970SOL    HW229409   7.030   9.467   8.819 -0.9543 -0.2855  0.5860
41971SOL     OW29410   0.745   0.037   0.732 -0.6545 -0.1827  0.1326
41971SOL    HW129411   0.764   0.088   0.811 -1.0032 -0.5238  0.4386
41971SOL    HW229412   0.830   0.026   0.690 -0.4345 -0.1875  0.5749
41972SOL     OW29413  10.908   7.980   5.685  0.2968  0.7189  0.0973
41972SOL    HW129414  10.955   7.922   5.746 -0.5670  0.3641  0.4426
41972SOL    HW229415  10.969   7.992   5.612  0.6975 -0.2136  0.2587
41973SOL     OW29416   2.951   7.087   0.242  0.0651  0.5069  0.4828
41973SOL    HW129417   2.885   7.055   0.303 -0.3674 -1.9872 -1.1869
41973SOL    HW229418   2.991   7.161   0.288 -1.7051  0.1168  2.8486
41974SOL     OW29419   7.364   3.004   5.122 -0.4526 -0.4390 -0.2024
41974SOL    HW129420   7.344   3.093   5.150  0.1715 -0.6943  1.0913
41974SOL    HW229421   7.440   3.013   5.065  0.3733 -0.2587  0.9064
41975SOL     OW29422   9.601   5.018   5.397 -0.3090  0.1522 -0.5381
41975SOL    HW129423   9.638   5.011   5.309  1.1228 -0.8421  0.0947
41975SOL    HW229424   9.548   5.098   5.395  0.0281  0.3617 -2.1749
41976SOL     OW29425   7.339   0.520   1.460  0.1412  0.0139 -0.5901
41976SOL    HW129426   7.375   0.467   1.530  0.9102  0.2242 -0.8068
41976SOL    HW229427   7.394   0.599   1.460  1.3537 -0.7526 -2.5730
41977SOL     OW29428   0.352   2.193   8.433 -0.5215  0.2826  0.0861
41977SOL    HW129429   0.406   2.228   8.504  0.0031  1.3171 -0.7912
41977SOL    HW229430   0.336   2.102   8.458  0.8923  0.1946  0.7909
41978SOL     OW29431   7.183   3.071   3.445 -0.3053  0.1848 -0.3122
41978SOL    HW129432   7.101   3.036   3.411 -0.5135  1.1143 -0.7845
41978SOL    HW229433   7.205   3.143   3.386 -0.0920  1.1032  0.8498
41979SOL     OW29434   0.343   5.313   9.507 -0.7156 -0.3503 -0.0194
41979SOL    HW129435   0.356   5.230   9.553  1.1097  0.9909  2.0746
41979SOL    HW229436   0.422   5.363   9.525 -1.8656  1.9568 -1.0074
41980SOL     OW29437   0.551   6.347   4.925 -0.3468 -0.2370  0.2994
41980SOL    HW129438   0.511   6.293   4.857  2.1788 -0.9263 -0.7938
41980SOL    HW229439   0.631   6.381   4.884  0.5265  0.5120  2.4692
41981SOL     OW29440   3.663   7.929   6.939  0.1571  0.3441 -0.0507
41981SOL    HW129441   3.735   7.912   7.000  0.8363 -1.9643 -1.3717
41981SOL    HW229442   3.597   7.863   6.962  0.6547 -0.9318 -2.0703
41982SOL     OW29443   7.536  10.042   2.895  0.2198 -0.4385  0.1747
41982SOL    HW129444   7.625  10.008   2.907 -0.3307 -0.9950  4.3880
41982SOL    HW229445   7.525  10.105   2.966 -1.7910  2.0422 -2.1434
41983SOL     OW29446   0.224   8.293   6.714 -0.2167 -0.3924 -0.5678
41983SOL    HW129447   0.306   8.255   6.744 -0.1407  0.4189  0.3134
41983SOL    HW229448   0.222   8.380   6.754 -1.2830 -0.2201 -0.9577
41984SOL     OW29449   1.203   3.564   6.009 -0.1097  0.1094 -0.3036
41984SOL    HW129450   1.268   3.626   6.043  0.6150 -1.1306  0.6692
41984SOL    HW229451   1.254   3.503   5.956 -0.2999 -1.3028  1.0425
41985SOL     OW29452   1.170   4.271   6.341  0.1148 -0.0528  0.7746
41985SOL    HW129453   1.264   4.286   6.325  0.1153  2.5856  2.5234
41985SOL    HW229454   1.168   4.218   6.421  0.1853  1.4627  1.8231
41986SOL     OW29455   1.802   4.374   0.668 -0.5691  0.0715 -0.1228
41986SOL    HW129456   1.746   4.431   0.615 -1.3026 -0.8367 -0.3646
41986SOL    HW229457   1.891   4.402   0.650 -0.8605  0.3325 -1.1816
41987SOL     OW29458   1.234   5.012  10.364  0.5067 -0.8565 -0.0541
41987SOL    HW129459   1.215   5.019  10.458  5.1296 -0.9401  1.1150
41987SOL    HW229460   1.197   5.092  10.326 -1.3173 -0.7299  1.8086
41988SOL     OW29461   5.703   4.680   3.233  0.3051 -0.1912 -0.1611
41988SOL    HW129462   5.707   4.745   3.303  1.6119 -0.1878 -0.2128
41988SOL    HW229463   5.687   4.730   3.153 -3.5035 -0.3634  0.3095
41989SOL     OW29464   7.213   0.308   4.861  0.3466 -0.4303 -0.4381
41989SOL    HW129465   7.200   0.384   4.804 -0.7301 -0.0825  0.2392
41989SOL    HW229466   7.196   0.342   4.949  2.5812 -0.8097  0.1843
41990SOL     OW29467   9.771   1.385   1.926 -0.6864 -0.4342  0.0179
41990SOL    HW129468   9.848   1.372   1.871 -2.5464  1.0625 -3.2358
41990SOL    HW229469   9.739   1.297   1.944  0.0870 -0.9939 -1.2042
41991SOL     OW29470   7.962   9.734   6.269  0.2423 -0.0017  0.0876
41991SOL    HW129471   7.946   9.678   6.345  1.6686 -0.2110  0.2570
41991SOL    HW229472   8.003   9.813   6.306 -0.0374  0.3475 -0.3478
41992SOL     OW29473   9.484  10.666   1.094 -0.3874  0.0164 -0.9097
41992SOL    HW129474   9.479  10.685   1.001 -1.2298 -2.1349 -1.3535
41992SOL    HW229475   9.557  10.605   1.103 -1.3781 -1.1246 -0.4329
41993SOL     OW29476   7.951   3.477   3.040  0.2781  0.0334 -0.1034
41993SOL    HW129477   7.866   3.444   3.067  0.0836  1.4623  1.1624
41993SOL    HW229478   7.987   3.518   3.118  1.0497  1.6435 -1.2380
41994SOL     OW29479   3.705   8.502   2.871  0.7014 -0.0226  0.1923
41994SOL    HW129480   3.800   8.508   2.878  0.6430  0.4350  0.6906
41994SOL    HW229481   3.690   8.441   2.799  1.3676  0.7017 -0.5827
41995SOL     OW29482   4.767   3.973   8.426  0.0641 -0.0601  0.3259
41995SOL    HW129483   4.688   4.027   8.423 -0.1761 -0.3457  1.1225
41995SOL    HW229484   4.832   4.028   8.469  0.5533  0.4746 -1.0750
41996SOL     OW29485   3.417   0.381   4.944 -1.0920  0.2312  0.4305
41996SOL    HW129486   3.429   0.332   4.863  0.8302 -0.0773  0.8489
41996SOL    HW229487   3.407   0.472   4.916 -4.0442 -0.2355 -0.3124
41997SOL     OW29488   5.104   6.941   3.814  0.5540  0.5322 -0.7324
41997SOL    HW129489   5.073   7.029   3.791 -0.8889 -0.0728 -1.2689
41997SOL    HW229490   5.114   6.943   3.909 -0.0531  1.1273 -0.6717
41998SOL     OW29491   2.033  10.189   2.687  0.3365 -0.4572  0.0015
41998SOL    HW129492   1.948  10.184   2.732  0.5670  1.1228  0.6522
41998SOL    HW229493   2.011  10.176   2.595 -0.6680  0.2300  0.1228
41999SOL     OW29494   4.393   5.947   2.751 -0.5471 -1.1236 -0.2482
41999SOL    HW129495   4.347   5.890   2.813 -0.1306  0.0196  1.1520
41999SOL    HW229496   4.358   5.921   2.665 -0.8976 -2.9599  0.4040
42000SOL     OW29497   0.367   4.140   6.235 -0.2370 -0.2413  0.3374
42000SOL    HW129498   0.386   4.222   6.188  1.6551 -0.9400 -0.2068
42000SOL    HW229499   0.333   4.082   6.168  0.4758 -0.5677  0.2458
42001SOL     OW29500   9.055   8.635   1.780 -0.4223  0.2305  0.0083
42001SOL    HW129501   9.076   8.675   1.696 -2.5219 -2.0828 -1.8015
42001SOL    HW229502   9.091   8.546   1.774 -1.2657 -0.2287  1.2350
42002SOL     OW29503   5.564   5.076   0.125 -0.4357 -0.4913 -0.2596
42002SOL    HW129504   5.470   5.064   0.115 -0.2831 -0.7783 -1.5270
42002SOL    HW229505   5.574   5.169   0.148 -0.9591 -0.1004 -1.5262
42003SOL     OW29506   7.313   4.987   8.130  0.9438  0.1258 -0.1192
42003SOL    HW129507   7.316   4.977   8.225  2.1212  0.8589 -0.0649
42003SOL    HW229508   7.396   4.949   8.100  0.2150 -0.8673 -0.9416
42004SOL     OW29509   3.765   9.295   2.597 -0.3218 -0.2414 -0.0354
42004SOL    HW129510   3.700   9.267   2.533 -0.5727 -0.4341  0.3016
42004SOL    HW229511   3.809   9.370   2.556  1.4185 -1.9979 -1.6540
42005SOL     OW29512  10.675   2.266   5.559 -0.7509 -0.1215  0.3040
42005SOL    HW129513  10.651   2.283   5.650  1.9120  1.6651  0.8168
42005SOL    HW229514  10.606   2.307   5.507 -2.0314 -0.7097  1.5108
42006SOL     OW29515   4.946   9.571   1.090  0.5017  0.0022  0.1871
42006SOL    HW129516   4.870   9.520   1.060  1.5127 -1.0481 -0.6617
42006SOL    HW229517   5.011   9.505   1.114  1.3253  0.8884  0.4450
42007SOL     OW29518   1.939   8.358   1.264  0.4897  0.3643 -0.1645
42007SOL    HW129519   1.890   8.357   1.181 -0.2127  0.2460  0.2487
42007SOL    HW229520   1.959   8.451   1.278 -1.1593  0.6412  0.5506
42008SOL     OW29521   8.942   3.567   6.714 -0.1952 -0.1181 -0.4428
42008SOL    HW129522   8.946   3.574   6.618 -0.7326  0.9856 -0.3976
42008SOL    HW229523   8.998   3.637   6.746 -0.7980  0.1584  0.0426
42009SOL     OW29524   8.665   6.270   3.174  0.0999  0.2150 -0.2334
42009SOL    HW129525   8.709   6.336   3.120  0.8797  0.0583  0.1856
42009SOL    HW229526   8.613   6.219   3.112  1.8289 -0.6590 -1.0366
42010SOL     OW29527   9.208   3.959   9.751 -0.4465 -0.5953  0.8121
42010SOL    HW129528   9.169   3.880   9.714 -1.2242 -0.1541  0.6615
42010SOL    HW229529   9.252   3.930   9.830  1.9206 -1.7118 -0.7886
42011SOL     OW29530   7.518   6.512   4.656 -0.0497 -0.3321  0.4387
42011SOL    HW129531   7.542   6.433   4.704  0.7349 -1.1374 -1.1830
42011SOL    HW229532   7.574   6.510   4.578 -2.4929 -0.1158 -1.4567
42012SOL     OW29533   3.412   0.495   6.294  0.0614 -0.1059 -0.1456
42012SOL    HW129534   3.483   0.557   6.305 -0.4864  0.9106 -1.9720
42012SOL    HW229535   3.437   0.420   6.349  0.9152  1.5172  1.8237
42013SOL     OW29536   5.036   7.461   0.978 -0.6972  0.2674 -0.4842
42013SOL    HW129537   5.070   7.372   0.988 -0.8583 -0.0656 -2.5804
42013SOL    HW229538   5.110   7.518   1.000 -0.8618 -0.3020  1.8388
42014SOL     OW29539   3.100   2.790   4.754  0.2119 -0.2423  0.1448
42014SOL    HW129540   3.192   2.801   4.776  0.7040 -0.4697 -1.6231
42014SOL    HW229541   3.056   2.866   4.792  1.6126  1.4602 -1.4560
42015SOL     OW29542   0.618   0.724   0.419  0.2881  0.0904  0.0853
42015SOL    HW129543   0.644   0.687   0.503  3.2663  0.6175 -0.4807
42015SOL    HW229544   0.645   0.660   0.354  0.7914  0.9708 -0.6081
42016SOL     OW29545   0.232   1.633   8.628 -0.2864 -0.4327  0.2307
42016SOL    HW129546   0.306   1.664   8.681  0.7701 -0.6710 -1.0639
42016SOL    HW229547   0.156   1.647   8.685  0.4239  2.0817  0.7374
42017SOL     OW29548   7.522   7.837   6.268  0.0481  0.0347 -0.4605
42017SOL    HW129549   7.610   7.800   6.273  0.5140  1.1703  0.7191
42017SOL    HW229550   7.536   7.927   6.237 -0.4560  0.8032  1.3841
42018SOL     OW29551   1.524   0.225   1.928  0.0790  0.1765 -0.7489
42018SOL    HW129552   1.537   0.254   2.018  0.3364 -0.8946 -0.4292
42018SOL    HW229553   1.613   0.216   1.893  0.0776 -1.4195 -0.4295
42019SOL     OW29554   8.058   3.887   0.924  0.3497  0.5411 -0.1031
42019SOL    HW129555   8.062   3.982   0.935 -0.1132  0.7107 -1.2719
42019SOL    HW229556   8.004   3.856   0.996  1.5198  1.0097  1.0109
42020SOL     OW29557   5.226   1.143   1.345 -0.1744  0.1258 -0.4823
42020SOL    HW129558   5.276   1.062   1.340 -0.2952  0.0978 -1.4428
42020SOL    HW229559   5.281   1.203   1.396 -0.1007 -0.5589  0.2563
42021SOL     OW29560   1.929   7.591  10.417 -0.2072 -0.2132  0.2658
42021SOL    HW129561   2.001   7.641  10.455 -2.0037  2.1824  0.6984
42021SOL    HW229562   1.938   7.603  10.323  0.1784 -0.2594  0.2962
42022SOL     OW29563   3.137  10.922   7.786 -0.3122  0.4787 -0.5441
42022SOL    HW129564   3.191  10.999   7.801 -0.2247  0.2510  0.3249
42022SOL    HW229565   3.165  10.859   7.852  0.1973 -0.6162 -1.7513
42023SOL     OW29566   7.411   5.339   1.911  0.5963 -0.0493  0.3398
42023SOL    HW129567   7.460   5.271   1.958  0.8057 -0.2844 -0.2020
42023SOL    HW229568   7.475   5.375   1.849 -0.7918 -3.0456 -3.2452
42024SOL     OW29569   9.913   0.076   3.790  0.4278  0.5475  0.3559
42024SOL    HW129570   9.921   0.025   3.870 -0.8653 -0.3192 -0.0346
42024SOL    HW229571   9.859   0.151   3.814  1.0136  0.9210  0.5494
42025SOL     OW29572   6.195   6.409   0.299  0.0736  0.1441 -0.0874
42025SOL    HW129573   6.111   6.366   0.317  0.5621 -1.0391 -0.5182
42025SOL    HW229574   6.202   6.477   0.366  0.9377 -2.7780  3.0554
42026SOL     OW29575   7.682   8.926  10.698  0.0614  0.3684  0.4123
42026SOL    HW129576   7.632   8.964  10.626  0.4920  0.6919  0.2826
42026SOL    HW229577   7.685   8.832  10.678 -1.9269  0.0442  1.2857
42027SOL     OW29578   3.665   1.571   2.861 -0.9791  0.3528 -0.1611
42027SOL    HW129579   3.601   1.523   2.914 -1.4559  1.5483  0.3830
42027SOL    HW229580   3.612   1.621   2.799 -0.4519 -0.5383 -1.3764
42028SOL     OW29581   4.270   0.998   6.724 -0.1379  0.2181  0.1439
42028SOL    HW129582   4.362   0.976   6.714 -0.1977 -0.1787  0.4324
42028SOL    HW229583   4.238   1.010   6.634  0.6835  2.5172  0.0821
42029SOL     OW29584   3.883   4.214   5.604  0.2654 -0.1665  0.0162
42029SOL    HW129585   3.898   4.307   5.587  0.2562  0.0338  1.0410
42029SOL    HW229586   3.890   4.172   5.518 -0.1119  0.8287 -0.5118
42030SOL     OW29587   4.568   2.119  10.594 -0.1530 -0.7523 -0.0391
42030SOL    HW129588   4.532   2.054  10.654 -2.1200  0.2172 -0.0873
42030SOL    HW229589   4.637   2.072  10.546  1.9730 -1.3920  3.3307
42031SOL     OW29590   8.649   0.706  10.175 -0.5206 -0.0512  0.0837
42031SOL    HW129591   8.734   0.669  10.198  0.0894  1.3506  0.1884
42031SOL    HW229592   8.619   0.749  10.256 -0.8048  0.4256 -0.2729
42032SOL     OW29593   2.750   8.044   3.307 -0.6078 -0.2288 -0.1331
42032SOL    HW129594   2.723   8.014   3.221  0.2607 -2.2703  0.2405
42032SOL    HW229595   2.844   8.023   3.311 -0.4359  0.6377  0.9896
42033SOL     OW29596   3.543   8.511   3.367  0.2143 -0.1948 -0.7021
42033SOL    HW129597   3.576   8.423   3.386 -0.8967 -0.6736 -0.9069
42033SOL    HW229598   3.598   8.569   3.419 -0.3205 -1.1744  1.0232
42034SOL     OW29599   7.886   1.904  10.832 -0.3615 -0.2170  0.3327
42034SOL    HW129600   7.875   1.812  10.806  2.9789  0.0411 -2.7352
42034SOL    HW229601   7.803   1.946  10.809 -0.6906 -1.8275 -1.7019
42035SOL     OW29602   3.938   3.199   4.626  0.3220 -0.1058  0.6052
42035SOL    HW129603   3.973   3.182   4.713 -0.6615  0.3403  1.1049
42035SOL    HW229604   3.971   3.286   4.603  1.7931 -0.8068 -0.1225
42036SOL     OW29605   0.881   4.182   3.481 -0.0446  0.5302  0.1466
42036SOL    HW129606   0.958   4.132   3.454 -1.0061 -0.2245 -1.3033
42036SOL    HW229607   0.894   4.269   3.442  1.1023  1.1381  1.7658
42037SOL     OW29608   6.821   4.418   6.842 -0.5237 -0.3284  0.2681
42037SOL    HW129609   6.879   4.454   6.909  0.7204  0.0951 -1.0056
42037SOL    HW229610   6.740   4.469   6.851  0.2211  0.8888  0.3569
42038SOL     OW29611   0.136   2.076   6.927  0.2653  0.4414  0.3373
42038SOL    HW129612   0.178   2.134   6.864 -0.7593  0.8895  0.0348
42038SOL    HW229613   0.053   2.051   6.885  0.3597 -0.6772  0.7640
42039SOL     OW29614   7.767   5.412   5.857  0.3279  0.2044 -0.0378
42039SOL    HW129615   7.711   5.414   5.780 -1.0236  0.0886  0.8908
42039SOL    HW229616   7.726   5.473   5.918  1.1039 -0.0381  0.7573
42040SOL     OW29617   0.139   4.144   5.332  0.1123 -0.3839 -0.4123
42040SOL    HW129618   0.190   4.218   5.366 -1.1291  0.5671 -0.5613
42040SOL    HW229619   0.063   4.139   5.390 -0.6357 -0.5056 -1.3818
42041SOL     OW29620   1.065   6.574   4.900 -0.3302 -0.4703 -0.0983
42041SOL    HW129621   1.074   6.547   4.809  2.3575 -0.3664  0.0347
42041SOL    HW229622   0.989   6.527   4.933 -1.6862 -0.1153 -2.4991
42042SOL     OW29623   5.520   5.214   6.833  0.3059  0.1897 -0.3122
42042SOL    HW129624   5.453   5.220   6.766  2.1049  0.5459 -2.1805
42042SOL    HW229625   5.504   5.130   6.876 -0.5417 -0.3261 -1.5842
42043SOL     OW29626   1.466   3.694   7.926 -0.4499 -0.4289 -0.2794
42043SOL    HW129627   1.498   3.619   7.876 -0.8548 -0.8247  0.0489
42043SOL    HW229628   1.546   3.734   7.962 -0.2422 -0.8103 -0.3029
42044SOL     OW29629  10.424   4.904   9.282 -0.6737 -0.0195 -0.1907
42044SOL    HW129630  10.469   4.864   9.208  0.1003  0.0458  0.2365
42044SOL    HW229631  10.422   4.835   9.348  0.4416  0.5470  0.4570
42045SOL     OW29632   8.043   5.025   9.196  0.2563 -0.7031  0.0285
42045SOL    HW129633   7.978   4.968   9.237 -1.4543  0.5836 -0.7664
42045SOL    HW229634   8.060   4.984   9.111 -1.5506  0.3106 -0.8651
42046SOL     OW29635  10.099   1.309   5.214  0.0829  0.2071  0.3909
42046SOL    HW129636  10.047   1.376   5.170 -0.2005 -0.2864 -0.0427
42046SOL    HW229637  10.040   1.234   5.221  0.7914 -0.4368 -0.3002
42047SOL     OW29638   6.047   9.234   5.122  0.2012 -0.4391  0.1856
42047SOL    HW129639   6.105   9.264   5.052  1.9843 -0.5407  1.5421
42047SOL    HW229640   6.055   9.300   5.190 -1.0132 -0.6567  0.5630
42048SOL     OW29641  10.592   8.586   6.235 -0.1708 -0.1699 -0.1068
42048SOL    HW129642  10.520   8.631   6.190 -0.1766  0.1362  0.2083
42048SOL    HW229643  10.657   8.572   6.167 -1.1815 -1.8923 -0.7919
42049SOL     OW29644   9.142   2.842   8.466  0.1068  0.1405  0.7777
42049SOL    HW129645   9.112   2.930   8.444  1.0823  0.3952  0.4220
42049SOL    HW229646   9.062   2.789   8.465 -0.3332  0.7832 -0.2123
42050SOL     OW29647   5.533   3.368   7.000  0.3071  0.0410 -0.1404
42050SOL    HW129648   5.552   3.310   6.927 -0.4986  1.8659 -1.9039
42050SOL    HW229649   5.439   3.357   7.016  0.3965 -0.0368  0.3628
42051SOL     OW29650   5.219   3.810   3.121 -0.2019 -0.3483  0.0783
42051SOL    HW129651   5.152   3.798   3.188 -0.2846 -1.5630 -0.2144
42051SOL    HW229652   5.270   3.729   3.123  1.9926  0.9671  1.0978
42052SOL     OW29653   6.284  10.750   7.526  0.2536  0.4614 -0.2096
42052SOL    HW129654   6.364  10.800   7.509 -0.4586  1.7740  0.1952
42052SOL    HW229655   6.236  10.803   7.590 -1.5506  0.3404 -1.4078
42053SOL     OW29656   9.036  10.980  10.764  0.0482 -0.2493 -0.2310
42053SOL    HW129657   8.996  10.912  10.817  0.8676  0.5499  1.4973
42053SOL    HW229658   8.966  11.012  10.707 -0.7444 -1.4202  0.0745
42054SOL     OW29659   9.878   0.982   1.785  0.5399 -0.0028 -0.2257
42054SOL    HW129660   9.817   1.042   1.829  0.8057  0.0247  0.1056
42054SOL    HW229661   9.893   1.023   1.700  1.3830  0.8668  0.3128
42055SOL     OW29662  10.794   7.619   7.911 -0.1187  0.0827  0.0512
42055SOL    HW129663  10.770   7.557   7.981 -0.4237 -0.3097 -0.3980
42055SOL    HW229664  10.757   7.581   7.832 -0.8949  1.1813 -0.1362
42056SOL     OW29665   5.851   2.052   7.288 -0.0336 -0.8044 -0.2481
42056SOL    HW129666   5.890   2.100   7.361 -0.7418  0.9072 -0.9316
42056SOL    HW229667   5.868   2.108   7.212 -1.1662 -1.5075 -1.0406
42057SOL     OW29668   5.784   5.146   1.408  0.1411  0.0186  0.2993
42057SOL    HW129669   5.696   5.113   1.429 -0.0665  0.3568 -0.0203
42057SOL    HW229670   5.825   5.161   1.493  0.1859 -0.9210  0.4462
42058SOL     OW29671  10.342   7.640   0.953 -0.6344 -0.2734  0.6373
42058SOL    HW129672  10.330   7.548   0.977 -0.6841 -1.4282 -3.1850
42058SOL    HW229673  10.436   7.647   0.933 -1.2661 -0.8853 -3.3735
42059SOL     OW29674   9.854   7.361   6.195 -0.1464 -0.0855  0.6056
42059SOL    HW129675   9.859   7.310   6.276 -2.2460 -0.2262  0.6996
42059SOL    HW229676   9.778   7.326   6.148  1.7504 -0.8949 -2.1025
42060SOL     OW29677   7.744   4.602   6.126  0.6381  0.3919  0.4398
42060SOL    HW129678   7.722   4.682   6.174  0.4915  0.8886 -0.4253
42060SOL    HW229679   7.815   4.562   6.177  0.6224  1.0043  0.9563
42061SOL     OW29680   0.538   9.379   5.525 -0.2241 -0.7488  0.0272
42061SOL    HW129681   0.623   9.353   5.489 -0.3874 -1.0134 -0.1717
42061SOL    HW229682   0.477   9.316   5.488 -0.7908  0.4759 -1.2151
42062SOL     OW29683   9.679   3.263   5.086 -0.9336  0.5024 -0.1138
42062SOL    HW129684   9.758   3.248   5.138 -1.2976 -0.1464  0.2741
42062SOL    HW229685   9.709   3.260   4.996 -0.3432  1.3231  0.0427
42063SOL     OW29686   2.208   3.564   9.665 -0.5956 -0.3992  0.2814
42063SOL    HW129687   2.238   3.529   9.749  0.1550  0.1950  0.2738
42063SOL    HW229688   2.112   3.554   9.668 -0.5646 -0.5393  1.1369
42064SOL     OW29689  10.811   6.293   1.307 -0.5215 -0.5102  0.4727
42064SOL    HW129690  10.880   6.344   1.351 -0.9825  0.4505  0.1242
42064SOL    HW229691  10.742   6.286   1.372 -0.3380 -0.9606  0.6216
42065SOL     OW29692   9.223   6.466   5.369  0.4411  0.2823 -0.4022
42065SOL    HW129693   9.299   6.524   5.373 -0.1726  1.0552  0.5869
42065SOL    HW229694   9.234   6.407   5.443  0.6625 -0.3538 -0.9414
42066SOL     OW29695   2.547   4.179   6.681  0.6487 -0.6200 -0.0281
42066SOL    HW129696   2.492   4.244   6.637  1.6582  0.2364 -0.0425
42066SOL    HW229697   2.485   4.112   6.710 -0.0425 -1.4961 -3.1331
42067SOL     OW29698  10.742  10.095   1.682  0.0762 -0.5349  0.0914
42067SOL    HW129699  10.707  10.060   1.600  0.8677 -0.1061 -0.4524
42067SOL    HW229700  10.669  10.144   1.720 -1.1324 -2.8768  0.9895
42068SOL     OW29701   5.087   9.469   5.482 -0.1039  0.2695 -0.3914
42068SOL    HW129702   5.171   9.452   5.440 -0.3981  0.5514 -1.1033
42068SOL    HW229703   5.090   9.419   5.564  0.3592 -0.5253 -0.8809
42069SOL     OW29704   8.347   7.449   1.326  0.0988 -0.3626 -0.2774
42069SOL    HW129705   8.257   7.426   1.350 -0.1827 -0.6308 -1.5234
42069SOL    HW229706   8.337   7.522   1.265  0.7779  0.2220  0.3130
42070SOL     OW29707   3.328   6.781   4.942 -0.1858  0.5581  0.4368
42070SOL    HW129708   3.244   6.756   4.903 -0.5310  0.5055  1.1946
42070SOL    HW229709   3.317   6.872   4.967 -0.2256  0.3946  1.0461
42071SOL     OW29710   0.432   5.088   3.693  0.5653  0.3736 -0.4888
42071SOL    HW129711   0.488   5.165   3.695  0.5364  0.4707  3.3382
42071SOL    HW229712   0.469   5.030   3.760 -2.6033 -0.4637  0.6959
42072SOL     OW29713   9.058   0.861   7.353 -0.4120  0.3135  0.5795
42072SOL    HW129714   9.019   0.827   7.433  0.4940 -0.9712  0.5194
42072SOL    HW229715   9.028   0.952   7.347 -1.0618  0.2092  1.9865
42073SOL     OW29716   2.554   9.351   1.977 -0.3409  0.0574 -0.1527
42073SOL    HW129717   2.633   9.392   2.012 -0.1938 -0.3365 -0.0245
42073SOL    HW229718   2.577   9.328   1.887 -0.6082  0.7593 -0.4108
42074SOL     OW29719   4.375   0.602   1.853 -0.4510  0.6145 -0.0820
42074SOL    HW129720   4.325   0.683   1.865 -0.3774  0.5716  0.5626
42074SOL    HW229721   4.443   0.625   1.791 -1.3460  0.6454 -1.0766
42075SOL     OW29722   1.355   6.392   1.262 -0.5846  0.0196  0.0437
42075SOL    HW129723   1.283   6.354   1.212 -0.7287  0.8232 -0.3798
42075SOL    HW229724   1.334   6.485   1.268 -1.3357 -0.2241  2.8675
42076SOL     OW29725   9.045   2.487  10.991  0.4817 -0.2229 -0.3984
42076SOL    HW129726   9.120   2.544  10.973 -1.2043  1.6518 -2.1738
42076SOL    HW229727   8.986   2.502  10.916 -3.0401  0.8791  2.3367
42077SOL     OW29728   2.013   0.078   5.182  0.7483  0.2799 -0.2003
42077SOL    HW129729   2.081   0.074   5.115  0.9835 -1.0812  0.0723
42077SOL    HW229730   1.962   0.156   5.160  1.9010  0.8718 -0.8842
42078SOL     OW29731   3.147   2.290   2.574 -0.5846  0.4618  0.5650
42078SOL    HW129732   3.150   2.200   2.540 -0.4079  0.8036 -0.3469
42078SOL    HW229733   3.206   2.289   2.649  1.9786  0.5627 -1.3044
42079SOL     OW29734   0.451  10.438   4.099  0.1187 -0.0709  0.1909
42079SOL    HW129735   0.436  10.461   4.007  2.7265  1.1182 -0.0162
42079SOL    HW229736   0.436  10.344   4.103 -0.8726 -0.0092 -1.2373
42080SOL     OW29737  10.906   4.849   7.471  0.9961  0.1332  0.5215
42080SOL    HW129738  10.876   4.907   7.401  0.9671  0.2036  0.5920
42080SOL    HW229739  10.988   4.889   7.500  2.0403 -0.9497 -0.7910
42081SOL     OW29740   1.355   8.411   6.673 -0.1446  0.3639  0.5512
42081SOL    HW129741   1.407   8.332   6.658  0.0308  0.6735 -0.5577
42081SOL    HW229742   1.289   8.384   6.737  0.6210 -0.3614  1.0608
42082SOL     OW29743   6.329   8.083   5.827 -0.2169  0.2915 -0.3311
42082SOL    HW129744   6.296   8.090   5.737  0.7623  0.1476 -0.7116
42082SOL    HW229745   6.344   7.989   5.840 -0.6142  0.2810  0.0861
42083SOL     OW29746  10.417   3.053   9.924 -0.8803  0.6577  0.5108
42083SOL    HW129747  10.503   3.095   9.931  0.0590 -1.3190  1.4019
42083SOL    HW229748  10.392   3.035  10.014 -0.9091 -1.2928  0.1517
42084SOL     OW29749   7.510   0.309   8.879  0.8423  0.3441  0.2068
42084SOL    HW129750   7.514   0.396   8.840 -1.5656  1.1425  1.5090
42084SOL    HW229751   7.598   0.293   8.912  1.4365  2.1352 -0.3961
42085SOL     OW29752   2.029   5.924   0.499 -0.7599 -0.1824  0.3434
42085SOL    HW129753   2.033   6.013   0.462 -0.3243 -0.0595  0.6849
42085SOL    HW229754   2.096   5.875   0.452 -1.5547 -0.5552 -0.4246
42086SOL     OW29755   0.209   1.969   9.846  0.5751 -0.2126 -0.0952
42086SOL    HW129756   0.193   2.040   9.908  1.5542 -1.1720  1.3421
42086SOL    HW229757   0.196   2.008   9.760  2.3963  2.1171  0.5711
42087SOL     OW29758   1.710   3.767   3.683 -0.2385  0.0605 -0.0118
42087SOL    HW129759   1.746   3.856   3.690  0.4908 -0.1791 -0.5834
42087SOL    HW229760   1.777   3.711   3.722 -1.3671 -0.1231  1.8053
42088SOL     OW29761   6.951   0.407   9.385  0.3223 -0.2323  0.6176
42088SOL    HW129762   6.870   0.376   9.425 -0.3672  0.2800 -0.3269
42088SOL    HW229763   7.012   0.335   9.394 -0.4638 -0.8969  0.7079
42089SOL     OW29764   3.601   5.679  10.381  0.1021  0.3563  0.3039
42089SOL    HW129765   3.677   5.642  10.335  0.7252  1.1292  0.6687
42089SOL    HW229766   3.537   5.608  10.383 -1.0122  0.9448 -3.9345
42090SOL     OW29767   4.891  10.963   5.362  0.0407  0.7333  0.0149
42090SOL    HW129768   4.936  10.880   5.375 -0.3060  0.2928 -1.3694
42090SOL    HW229769   4.848  10.953   5.277  0.5315  2.5597 -0.4925
42091SOL     OW29770   4.786   2.756   2.327 -0.2267  0.3035  0.2818
42091SOL    HW129771   4.800   2.833   2.273 -1.3453  1.6247  1.7912
42091SOL    HW229772   4.718   2.706   2.281  1.2022 -0.3765 -1.2183
42092SOL     OW29773   1.618   3.573   9.764 -0.4338 -0.4025  0.3375
42092SOL    HW129774   1.550   3.637   9.741 -0.1650  0.1770  1.0892
42092SOL    HW229775   1.596   3.495   9.714  0.3911  0.9040 -2.2595
42093SOL     OW29776   5.972  10.198   4.871 -0.1454 -0.1062  0.6110
42093SOL    HW129777   5.926  10.136   4.814  1.6474 -1.0530  0.1049
42093SOL    HW229778   5.902  10.246   4.915 -1.6108 -0.2905 -1.3489
42094SOL     OW29779   2.372  10.675   3.570  0.1039  0.0550 -0.1741
42094SOL    HW129780   2.444  10.618   3.598 -0.2367  0.0771  0.8114
42094SOL    HW229781   2.408  10.727   3.499  0.7355 -0.6643 -0.3950
42095SOL     OW29782   1.288  10.471   5.139 -0.6154 -0.0170 -0.0138
42095SOL    HW129783   1.321  10.508   5.221  0.3708 -1.9678  0.5448
42095SOL    HW229784   1.281  10.377   5.157 -3.8079 -0.0878 -1.0520
42096SOL     OW29785   3.149   7.038   8.338  0.1126 -0.0894  0.2705
42096SOL    HW129786   3.072   7.059   8.391  0.7605 -0.8288  1.5607
42096SOL    HW229787   3.206   7.114   8.345 -1.2412  1.2542 -2.2153
42097SOL     OW29788   6.779  10.238   9.307  0.0190  0.0719  0.3537
42097SOL    HW129789   6.858  10.196   9.341 -0.1940  0.7945  1.8109
42097SOL    HW229790   6.709  10.173   9.320  0.3014 -0.4722 -0.7124
42098SOL     OW29791   3.208   4.949   7.544 -0.1958  0.0861 -0.0526
42098SOL    HW129792   3.176   4.983   7.460 -0.0606  0.0879 -0.1047
42098SOL    HW229793   3.289   4.998   7.560  0.5362 -0.8975 -0.6165
42099SOL     OW29794   6.005   0.762   1.974  0.7112  1.0140  0.1154
42099SOL    HW129795   5.995   0.857   1.974  1.2169  1.0676 -0.2277
42099SOL    HW229796   5.995   0.736   1.882 -1.3681  0.5206  0.4261
42100SOL     OW29797   3.468   7.888  10.208  0.2284 -0.0195  0.4983
42100SOL    HW129798   3.510   7.974  10.204  2.0329 -0.8525 -3.4713
42100SOL    HW229799   3.377   7.905  10.187  0.7864  0.9265 -1.4139
42101SOL     OW29800   2.363   9.056   0.327  0.0102 -0.3673  0.3425
42101SOL    HW129801   2.342   8.990   0.261  1.1591 -0.3225 -0.0921
42101SOL    HW229802   2.367   9.007   0.409  0.9860 -0.8872  0.0041
42102SOL     OW29803  10.208   5.645   8.387  0.2081 -0.4547 -0.2718
42102SOL    HW129804  10.248   5.559   8.373 -2.2263 -1.4465 -1.6049
42102SOL    HW229805  10.280   5.707   8.373  1.6491 -2.1795 -0.9231
42103SOL     OW29806   0.581   7.727   7.770 -0.5643 -0.2707 -0.0813
42103SOL    HW129807   0.500   7.750   7.726 -0.6060  0.3550  0.3088
42103SOL    HW229808   0.642   7.798   7.747 -0.6504  0.1793  1.0163
42104SOL     OW29809   9.515   3.061   6.434  0.2842  0.2565 -0.6559
42104SOL    HW129810   9.425   3.068   6.465  0.6030  0.5505  0.2408
42104SOL    HW229811   9.530   3.141   6.385  0.0524  0.1854 -0.8488
42105SOL     OW29812   2.684   9.007  10.218  0.0043  0.1127 -0.0755
42105SOL    HW129813   2.762   9.036  10.171 -0.3782 -0.1790 -0.9042
42105SOL    HW229814   2.675   9.069  10.290  2.1865 -1.0606  1.3020
42106SOL     OW29815   7.955   7.295   5.649 -0.4376  0.0042  0.3610
42106SOL    HW129816   7.948   7.204   5.619  0.0889  0.0258  0.1658
42106SOL    HW229817   7.866   7.317   5.677 -0.3267 -0.9559  1.5450
42107SOL     OW29818   6.696   8.783   5.320 -0.0199 -0.0607  0.1205
42107SOL    HW129819   6.626   8.719   5.335  0.7177 -0.9242 -0.0768
42107SOL    HW229820   6.661   8.839   5.250 -0.5109 -0.4919  0.0104
42108SOL     OW29821   7.643   4.354   2.414  0.0035 -0.2807 -0.2164
42108SOL    HW129822   7.657   4.446   2.395  1.4639 -0.4743 -0.1316
42108SOL    HW229823   7.652   4.310   2.329  0.7040 -0.4975 -0.0319
42109SOL     OW29824   0.941   6.366   9.897 -0.7028  0.0739  0.4311
42109SOL    HW129825   0.876   6.394   9.832  1.3767 -2.1344 -2.9240
42109SOL    HW229826   1.021   6.412   9.871  0.3420 -1.3387  1.0365
42110SOL     OW29827   5.284   3.065   1.816 -0.0152  0.2366  0.0981
42110SOL    HW129828   5.306   2.983   1.771 -0.0666 -0.9022  2.0421
42110SOL    HW229829   5.193   3.053   1.844  0.1072  0.7766  0.7523
42111SOL     OW29830  10.920   8.661   5.457 -0.1404  0.0897  0.4260
42111SOL    HW129831  11.005   8.622   5.436  0.2765  1.2617 -0.1624
42111SOL    HW229832  10.929   8.753   5.432 -0.7716  0.8196  2.6523
42112SOL     OW29833   1.758   7.627   9.116  0.2887  0.0272  0.3955
42112SOL    HW129834   1.687   7.683   9.148  1.1855  1.1034  0.5655
42112SOL    HW229835   1.790   7.671   9.038 -1.3374 -2.1570 -1.6517
42113SOL     OW29836   6.989   0.008   8.633 -0.5071  0.5770  0.0471
42113SOL    HW129837   6.997  -0.048   8.711 -0.8916  1.1422  0.5064
42113SOL    HW229838   6.999  -0.052   8.559  0.8754  0.1776  0.5226
42114SOL     OW29839   4.872   1.341   4.887  0.1452  0.4372  0.0920
42114SOL    HW129840   4.884   1.294   4.970 -0.5594  0.4771  0.2274
42114SOL    HW229841   4.778   1.359   4.884  0.0517 -0.1747 -1.0448
42115SOL     OW29842   0.945   0.655   4.518 -0.2086 -0.1773  0.5544
42115SOL    HW129843   0.954   0.560   4.530  2.2689 -0.2870 -1.3173
42115SOL    HW229844   0.989   0.693   4.594 -0.9813 -0.5052  1.1811
42116SOL     OW29845  10.239   6.859   6.829  0.1157 -0.0383  0.0240
42116SOL    HW129846  10.182   6.810   6.888 -0.6465  1.3263  0.4645
42116SOL    HW229847  10.289   6.917   6.886  1.3113 -0.5783 -0.4449
42117SOL     OW29848   4.045   8.386   8.957 -0.5101  0.3211 -0.2657
42117SOL    HW129849   3.990   8.312   8.932  0.0186 -0.6671  1.3856
42117SOL    HW229850   4.089   8.358   9.037  1.6546  1.4489 -0.9789
42118SOL     OW29851   5.199   0.273   0.894  0.8820 -0.2784 -0.0026
42118SOL    HW129852   5.160   0.227   0.820 -0.2483 -2.0053  1.5801
42118SOL    HW229853   5.292   0.278   0.873  0.5775 -0.6959 -1.5347
42119SOL     OW29854   3.262   5.311   9.190  0.3401 -0.1288 -0.2757
42119SOL    HW129855   3.195   5.341   9.251  0.0248  2.3165 -1.7050
42119SOL    HW229856   3.229   5.227   9.158  0.4397 -1.4256  2.6664
42120SOL     OW29857   4.693   4.237   9.829  0.2183 -0.0007  0.3865
42120SOL    HW129858   4.603   4.253   9.799 -0.8060 -0.7879  2.8377
42120SOL    HW229859   4.685   4.165   9.891  2.5402  0.0140  0.7741
42121SOL     OW29860   4.130   0.042   4.500  0.3035  0.2025  0.1054
42121SOL    HW129861   4.074   0.087   4.436 -0.4864 -1.2258 -0.2544
42121SOL    HW229862   4.175  -0.025   4.448  0.3572 -0.3629  0.8752
42122SOL     OW29863   8.177   3.749   0.088  0.4498 -0.3932  0.1832
42122SOL    HW129864   8.147   3.661   0.066 -0.2290 -0.1560  0.1338
42122SOL    HW229865   8.127   3.773   0.166 -1.0719  0.8059 -1.0844
42123SOL     OW29866   6.005   1.554   9.869 -0.3987  0.1007  0.5414
42123SOL    HW129867   5.988   1.630   9.925  3.1243  0.8941  0.8103
42123SOL    HW229868   6.004   1.480   9.928  2.0331  0.7823  1.5670
42124SOL     OW29869   6.393   3.153   6.019  0.4556  0.1355 -0.1311
42124SOL    HW129870   6.378   3.166   6.113  1.8445 -0.9443  0.2563
42124SOL    HW229871   6.314   3.109   5.988 -0.0365  0.5474  0.5050
42125SOL     OW29872   0.480   0.681   2.448  0.1901  0.7509 -0.2720
42125SOL    HW129873   0.464   0.588   2.466  2.1406  0.6175  1.0972
42125SOL    HW229874   0.417   0.704   2.380  0.9817 -2.0886 -2.1045
42126SOL     OW29875  10.604   2.569  10.748 -0.1771  0.4257 -0.2759
42126SOL    HW129876  10.588   2.635  10.680 -0.5432  0.3475 -0.2681
42126SOL    HW229877  10.695   2.543  10.735  0.1490  1.3340  0.0738
42127SOL     OW29878   0.780   7.720  10.111 -0.1352 -0.2245  0.1202
42127SOL    HW129879   0.815   7.655  10.050 -1.6042 -3.1353  2.1724
42127SOL    HW229880   0.811   7.692  10.197 -1.7599  1.1527  1.2241
42128SOL     OW29881  10.888   5.406   7.342  0.2242 -0.0825 -0.2193
42128SOL    HW129882  10.840   5.380   7.263 -0.7288 -1.4268  0.7574
42128SOL    HW229883  10.979   5.413   7.313  0.1117 -1.8555 -1.1959
42129SOL     OW29884   5.972   1.273   0.943 -0.1613 -0.1686 -0.1622
42129SOL    HW129885   5.976   1.366   0.920  0.7624 -0.0835  0.2962
42129SOL    HW229886   5.917   1.270   1.021 -1.2284 -0.1679 -0.8896
42130SOL     OW29887   3.219   0.772   8.406  0.1016  0.8240  0.6517
42130SOL    HW129888   3.130   0.753   8.375  0.1686  0.3921  0.7263
42130SOL    HW229889   3.245   0.694   8.453  0.6483  0.8229  0.3512
42131SOL     OW29890   2.145   1.637   3.706  0.0278  0.1548 -0.5304
42131SOL    HW129891   2.087   1.600   3.640  0.5917 -2.0849  0.1550
42131SOL    HW229892   2.087   1.689   3.763 -0.5037  1.9037 -2.5248
42132SOL     OW29893   2.748   8.016   3.606 -0.0304 -0.0204  0.1146
42132SOL    HW129894   2.689   8.074   3.653  0.7715 -0.9663  2.4959
42132SOL    HW229895   2.728   8.029   3.514 -2.0760  1.6114  0.7221
42133SOL     OW29896   8.060  10.808   0.489  0.0875  0.2244  0.2968
42133SOL    HW129897   8.118  10.756   0.544  0.0810  0.1668  0.2494
42133SOL    HW229898   7.986  10.831   0.546  0.1182  0.2306  0.3340
42134SOL     OW29899   5.097   8.722   2.563  0.3503 -0.1542  0.3311
42134SOL    HW129900   5.008   8.694   2.543 -0.7277  2.2246  1.4021
42134SOL    HW229901   5.109   8.802   2.511  0.9962  0.7750  1.8563
42135SOL     OW29902   1.833   5.417   1.264 -0.0510  0.0530  0.1365
42135SOL    HW129903   1.784   5.335   1.257  0.6613 -0.2588 -1.6163
42135SOL    HW229904   1.767   5.485   1.262 -0.4740 -0.3761 -1.8759
42136SOL     OW29905   4.941   5.981   0.746 -0.4176 -0.0338 -0.0489
42136SOL    HW129906   5.023   6.030   0.750  1.3488 -2.6111 -1.3996
42136SOL    HW229907   4.913   5.974   0.837  1.4408  0.0788  0.5764
42137SOL     OW29908   5.833   0.753   3.718  0.0615  0.4159 -0.0201
42137SOL    HW129909   5.737   0.745   3.724 -0.1765 -0.4997 -3.4481
42137SOL    HW229910   5.863   0.665   3.695  1.7726  0.7445  0.7916
42138SOL     OW29911   3.581   1.097   7.927 -0.2341 -0.2222 -0.1466
42138SOL    HW129912   3.548   1.164   7.987 -1.9589 -0.7771 -0.4027
42138SOL    HW229913   3.503   1.045   7.904  1.3456 -4.0157  2.1161
42139SOL     OW29914   4.454  10.239  10.414  0.1541 -0.1067  0.2464
42139SOL    HW129915   4.369  10.198  10.397 -0.4590  0.5944  1.5655
42139SOL    HW229916   4.511  10.165  10.437 -0.0295 -0.5997 -0.8013
42140SOL     OW29917   2.566   7.690   0.231  0.7532  0.4470 -0.4951
42140SOL    HW129918   2.621   7.742   0.171  1.0605 -0.8721 -1.3995
42140SOL    HW229919   2.603   7.602   0.227 -0.8813 -0.2737 -0.4313
42141SOL     OW29920   9.832   2.284   4.868  0.6195 -0.3008  0.1241
42141SOL    HW129921   9.813   2.371   4.904 -0.3316 -0.2375 -0.4940
42141SOL    HW229922   9.814   2.292   4.775 -1.1690 -1.5845  0.3069
42142SOL     OW29923   8.946   0.169  10.479 -0.0980  0.5161 -0.3325
42142SOL    HW129924   9.000   0.097  10.448  0.2236  0.0619  1.2126
42142SOL    HW229925   9.007   0.229  10.521 -0.3137  1.8890 -1.8685
42143SOL     OW29926  10.152   9.088   7.244 -0.5194  0.0974 -0.3249
42143SOL    HW129927  10.104   9.080   7.161  0.9802 -1.3215 -1.1077
42143SOL    HW229928  10.182   9.000   7.264 -0.9944  0.3680  1.8824
42144SOL     OW29929   0.292   3.393   9.134 -0.1761 -0.4134 -0.1695
42144SOL    HW129930   0.376   3.437   9.122  0.0232 -1.1495 -1.6001
42144SOL    HW229931   0.252   3.393   9.047 -0.6649 -2.0503  0.0360
42145SOL     OW29932   3.969   9.600   1.953  0.1337  0.4252 -0.0192
42145SOL    HW129933   3.909   9.527   1.963  0.1352  0.7108  3.1154
42145SOL    HW229934   4.043   9.564   1.904 -1.5639 -0.4909 -2.0629
42146SOL     OW29935   7.738   9.785   4.839  0.4471 -0.3248  0.5156
42146SOL    HW129936   7.775   9.767   4.752 -0.0673 -0.4624  0.3217
42146SOL    HW229937   7.810   9.825   4.888  1.0104 -1.0515  0.3047
42147SOL     OW29938   2.168   9.370   8.831 -0.0031  0.1023 -0.0390
42147SOL    HW129939   2.185   9.368   8.736  0.6966 -0.0148  0.0829
42147SOL    HW229940   2.110   9.445   8.843  0.2238  0.3612 -0.5139
42148SOL     OW29941   2.936   1.021   5.755 -0.2704 -0.2767 -0.5234
42148SOL    HW129942   2.942   1.104   5.802  3.2546 -0.6929  0.0402
42148SOL    HW229943   3.001   1.029   5.685  0.9332 -2.8632  0.1862
42149SOL     OW29944   9.407   8.753   5.426 -0.9094 -0.4856  0.2888
42149SOL    HW129945   9.495   8.781   5.402 -0.3213 -1.6452  0.9799
42149SOL    HW229946   9.373   8.709   5.349 -0.3287 -1.2452  0.4480
42150SOL     OW29947   6.321   0.744   6.141  0.3549 -0.8721 -0.0279
42150SOL    HW129948   6.350   0.830   6.110 -0.6361 -0.9985 -1.4118
42150SOL    HW229949   6.364   0.733   6.226 -2.3280  2.5629  1.9999
42151SOL     OW29950   9.606   3.699   7.249  0.0997  0.0916 -0.3125
42151SOL    HW129951   9.651   3.617   7.229  0.5220  0.3781 -0.5431
42151SOL    HW229952   9.519   3.689   7.209  0.9900  0.7490 -2.5636
42152SOL     OW29953   7.017   3.513   8.294 -0.8982  0.1090 -0.0997
42152SOL    HW129954   7.039   3.605   8.309  0.1671  0.2998 -2.4998
42152SOL    HW229955   6.995   3.507   8.201 -2.0007 -1.8861  0.2196
42153SOL     OW29956   7.690   3.469   9.475 -0.4579  0.4272  0.5577
42153SOL    HW129957   7.747   3.464   9.398 -0.4718 -0.1363  0.5802
42153SOL    HW229958   7.694   3.561   9.501  0.7780  0.3218  0.8127
42154SOL     OW29959   4.207   4.051  10.081  0.4133  0.3965 -0.4927
42154SOL    HW129960   4.143   4.110  10.121 -1.1774 -0.8498 -1.0758
42154SOL    HW229961   4.180   4.044   9.989  0.0540 -1.8005 -0.2869
42155SOL     OW29962   7.596   5.068   1.765  0.0833  0.2356  0.4273
42155SOL    HW129963   7.584   5.135   1.697 -0.8230  0.9633  1.2716
42155SOL    HW229964   7.667   5.101   1.819  2.0098 -1.1785 -1.1091
42156SOL     OW29965   7.395   4.159   4.629  0.6593  0.2720 -0.6239
42156SOL    HW129966   7.397   4.155   4.724  0.8074  0.3611 -0.6232
42156SOL    HW229967   7.314   4.114   4.605  1.9176 -2.1810 -0.5863
42157SOL     OW29968   8.783   1.699   6.051  0.1573  0.5397 -0.1893
42157SOL    HW129969   8.848   1.768   6.065 -0.4248  1.1774 -0.5840
42157SOL    HW229970   8.747   1.717   5.965 -0.5327  0.1819  0.0196
42158SOL     OW29971  10.264   5.049   7.808 -0.4726 -0.2277  0.8892
42158SOL    HW129972  10.287   5.128   7.758 -2.5538  0.5401  1.0419
42158SOL    HW229973  10.284   4.977   7.749  1.0593  0.4115  0.5711
42159SOL     OW29974   2.930   5.498   1.083 -0.5053  0.6073  0.2546
42159SOL    HW129975   2.908   5.537   1.168 -1.8464  0.8484 -0.1782
42159SOL    HW229976   2.984   5.565   1.039 -1.5358  1.3762  0.1166
42160SOL     OW29977   9.315   2.177   9.354  0.1303 -0.2027 -0.2244
42160SOL    HW129978   9.277   2.090   9.345  0.9347 -0.4092 -1.9954
42160SOL    HW229979   9.250   2.236   9.315  1.0259 -0.4342 -2.2041
42161SOL     OW29980   0.068   2.257   0.496  0.3997  0.1331 -0.2071
42161SOL    HW129981   0.058   2.243   0.402  0.1034  0.5796 -0.2471
42161SOL    HW229982   0.020   2.185   0.537 -1.2984  1.0830 -0.4005
42162SOL     OW29983   7.856   1.737   0.101  0.4767 -0.2900  0.6024
42162SOL    HW129984   7.760   1.733   0.110  0.5244 -1.8814  0.8427
42162SOL    HW229985   7.873   1.820   0.058 -0.9709  0.3253  1.1420
42163SOL     OW29986  10.563   4.176   1.778  0.4999 -0.1995 -0.2046
42163SOL    HW129987  10.568   4.247   1.715  0.9738  0.8888  1.0236
42163SOL    HW229988  10.495   4.118   1.743  0.0648  0.8738 -1.1965
42164SOL     OW29989   5.430   3.593   0.002  0.0693 -0.2440 -0.0448
42164SOL    HW129990   5.485   3.671  -0.001 -0.1367 -0.1154 -0.7512
42164SOL    HW229991   5.484   3.523  -0.035 -0.0890 -0.2125 -0.3398
42165SOL     OW29992   0.091   0.337   3.292 -0.1181  0.1180 -0.2756
42165SOL    HW129993   0.039   0.407   3.252  0.5537  0.8260  0.0537
42165SOL    HW229994   0.173   0.337   3.243 -1.7858 -3.7327 -3.5840
42166SOL     OW29995   4.091   0.769   9.869 -0.5126 -0.6033 -0.2678
42166SOL    HW129996   4.115   0.697   9.928  0.5446 -1.2753 -1.4598
42166SOL    HW229997   4.175   0.804   9.839 -1.0232 -0.0253 -1.0635
42167SOL     OW29998   3.545   4.840   3.008  0.4814  0.0733  0.0913
42167SOL    HW129999   3.615   4.775   2.998 -0.0074 -0.3952 -0.3275
42167SOL    HW230000   3.470   4.790   3.039  0.1939  0.4981  0.0901
42168SOL     OW30001   2.581   3.649   4.080 -0.2250  0.5745  0.4524
42168SOL    HW130002   2.551   3.566   4.042 -1.1191  0.6829  0.8947
42168SOL    HW230003   2.671   3.631   4.106  0.2296  0.3266 -1.1712
42169SOL     OW30004   4.547   7.779   1.899  0.1322 -0.0745  0.0159
42169SOL    HW130005   4.489   7.855   1.897  0.1919 -0.0301 -0.0559
42169SOL    HW230006   4.534   7.737   1.814 -0.6941 -0.7436  0.4556
42170SOL     OW30007   7.869  10.125   4.684 -0.0844  0.5428  0.5825
42170SOL    HW130008   7.860  10.030   4.675 -0.9648  0.3614  2.8469
42170SOL    HW230009   7.962  10.141   4.668 -0.2752 -0.3704 -1.9062
42171SOL     OW30010  10.327   8.939   8.793 -0.5228  0.1114 -0.0496
42171SOL    HW130011  10.351   8.865   8.849  0.5000 -0.5241 -1.2785
42171SOL    HW230012  10.231   8.935   8.788 -0.5632 -0.3875  0.8750
42172SOL     OW30013  10.523   9.999  10.931 -0.3224 -0.7410 -0.0602
42172SOL    HW130014  10.540   9.909  10.961 -0.0674 -0.6544  0.0562
42172SOL    HW230015  10.443   9.992  10.880 -0.4016 -1.0066  0.0974
42173SOL     OW30016   8.760   2.433   2.876 -0.2350 -0.1634  0.4620
42173SOL    HW130017   8.841   2.402   2.836  0.5353  0.0606  1.7685
42173SOL    HW230018   8.700   2.446   2.803 -0.5984 -4.4273 -0.2512
42174SOL     OW30019   2.435   3.975  10.329 -0.4740  0.5547 -0.3744
42174SOL    HW130020   2.378   3.899  10.317 -2.5551  1.7544  1.1789
42174SOL    HW230021   2.445   3.982  10.424  0.5102  1.6340 -0.5397
42175SOL     OW30022   4.498  10.388   5.030 -0.0476  0.4834  0.0492
42175SOL    HW130023   4.445  10.467   5.039 -0.9633 -0.2375  1.2398
42175SOL    HW230024   4.566  10.397   5.097 -1.0295 -0.3775  1.2116
42176SOL     OW30025  10.438   2.175   8.767 -0.2642 -0.0411  0.0523
42176SOL    HW130026  10.384   2.210   8.696  0.5605 -2.4248 -1.8758
42176SOL    HW230027  10.522   2.219   8.756 -0.7517  1.1908  0.9752
42177SOL     OW30028  10.821   9.440   4.583 -0.1297 -0.1928 -0.5727
42177SOL    HW130029  10.787   9.414   4.498  0.2132 -3.7938  0.1894
42177SOL    HW230030  10.744   9.447   4.639 -0.1691 -1.0192 -0.5065
42178SOL     OW30031  10.088   6.140   4.154 -0.3204 -0.2174  0.3225
42178SOL    HW130032  10.182   6.136   4.172 -0.3672  2.3525  1.6340
42178SOL    HW230033  10.053   6.058   4.187  1.4964 -1.4630 -0.6785
42179SOL     OW30034   4.176   4.231  10.462  0.6748  0.1776  0.3799
42179SOL    HW130035   4.128   4.215  10.380 -0.0572  1.8214  0.4604
42179SOL    HW230036   4.116   4.205  10.531  0.5099  0.7126  0.4409
42180SOL     OW30037   7.024   6.764  10.486  0.2250  0.0019 -0.0597
42180SOL    HW130038   6.950   6.702  10.486 -0.0217  0.2934 -0.7184
42180SOL    HW230039   7.029   6.794  10.577  0.8741 -1.6000  0.4841
42181SOL     OW30040   8.336   7.447   3.011  1.0297  0.0237 -0.1483
42181SOL    HW130041   8.343   7.485   3.098  2.0282  1.3383 -0.7713
42181SOL    HW230042   8.367   7.357   3.022 -0.1702 -0.2778  1.0992
42182SOL     OW30043   9.163   3.610   4.209 -0.4062 -0.1715  0.1545
42182SOL    HW130044   9.093   3.626   4.272  0.1540 -1.3298  1.1077
42182SOL    HW230045   9.124   3.631   4.124 -2.2643 -1.8342  0.5439
42183SOL     OW30046   2.283   1.713   3.983 -0.3311 -0.0304 -0.2981
42183SOL    HW130047   2.216   1.766   3.940 -0.8266 -0.8014 -0.4863
42183SOL    HW230048   2.356   1.714   3.920 -0.2446  0.6013 -0.2015
42184SOL     OW30049  10.516   4.784   7.155 -0.6770 -0.5681  0.4021
42184SOL    HW130050  10.429   4.772   7.192 -1.7338  0.8698 -1.4470
42184SOL    HW230051  10.524   4.878   7.140  1.6407 -0.5252  1.4798
42185SOL     OW30052   5.558   0.647  10.173  0.1090  0.1069 -0.3702
42185SOL    HW130053   5.465   0.653  10.195 -0.0110  0.3385 -0.9211
42185SOL    HW230054   5.569   0.705  10.097  0.6957  0.0550 -0.3338
42186SOL     OW30055   8.425   8.613   6.141 -0.3089  0.3342 -0.1266
42186SOL    HW130056   8.361   8.682   6.121  1.3096  2.1249  0.5983
42186SOL    HW230057   8.510   8.653   6.124  0.6993 -1.7564 -0.3898
42187SOL     OW30058   2.092   5.800   6.515 -0.3368 -0.1333  0.0744
42187SOL    HW130059   2.024   5.732   6.518 -0.7918  0.2971 -0.2374
42187SOL    HW230060   2.059   5.869   6.573  0.1530 -0.1971  0.4406
42188SOL     OW30061   0.451   9.433   0.327  0.4128  0.0312 -0.1843
42188SOL    HW130062   0.487   9.411   0.413  2.3033  0.3202 -0.8403
42188SOL    HW230063   0.404   9.515   0.341  0.7190  0.0884  0.5755
42189SOL     OW30064   8.215   9.602   3.793 -0.0512  0.0908 -0.1437
42189SOL    HW130065   8.174   9.572   3.875 -2.7441 -0.0418 -1.4331
42189SOL    HW230066   8.257   9.525   3.757 -0.7439 -0.3979  0.0700
42190SOL     OW30067  10.321   5.831   0.212  0.0057 -0.4710  0.0499
42190SOL    HW130068  10.281   5.775   0.146 -0.6572  0.8254 -0.7116
42190SOL    HW230069  10.256   5.836   0.282 -1.1604  1.4278 -1.0739
42191SOL     OW30070   2.761   9.332   4.027 -0.2735  0.0297 -0.3159
42191SOL    HW130071   2.701   9.322   4.101 -0.3373 -0.7289 -0.4684
42191SOL    HW230072   2.848   9.333   4.066 -0.3747  3.3011  0.1633
42192SOL     OW30073   1.466   4.967   2.777  0.0942  0.4855 -0.3457
42192SOL    HW130074   1.456   4.973   2.872  1.0058  0.7869 -0.2540
42192SOL    HW230075   1.464   4.873   2.758 -1.2478  0.4669 -0.1800
42193SOL     OW30076  10.020  10.882   9.090 -0.0533  0.4237  0.3372
42193SOL    HW130077   9.986  10.796   9.117 -0.3757  0.3605 -0.2685
42193SOL    HW230078   9.986  10.942   9.157 -1.0355  0.2968 -0.0243
42194SOL     OW30079   6.601   3.756   4.685  0.7549  0.2509  0.4461
42194SOL    HW130080   6.671   3.819   4.702  1.9365 -1.1894  1.1280
42194SOL    HW230081   6.539   3.804   4.629  0.0142  3.0212  3.3537
42195SOL     OW30082   4.451   0.376   1.020 -0.2888 -0.7053  0.7990
42195SOL    HW130083   4.455   0.407   1.111  0.0622  0.8995  0.2677
42195SOL    HW230084   4.524   0.315   1.013  0.6752  0.3851  1.1656
42196SOL     OW30085   4.505   7.010   8.923 -0.2678 -0.3051  0.2820
42196SOL    HW130086   4.494   6.915   8.925 -2.7157 -0.0943 -0.1719
42196SOL    HW230087   4.583   7.026   8.977 -0.1458 -2.5057  0.8675
42197SOL     OW30088   8.768   2.913   3.216 -0.0703 -0.3677 -0.3673
42197SOL    HW130089   8.825   2.844   3.249 -1.2026 -1.3598 -0.4038
42197SOL    HW230090   8.682   2.895   3.256  0.0547  2.3377  1.4372
42198SOL     OW30091   2.020   9.817   6.498  0.0384 -0.0581  0.3591
42198SOL    HW130092   2.041   9.860   6.581 -1.5631 -0.7850  1.1975
42198SOL    HW230093   1.936   9.854   6.472  1.5999  1.9410 -2.2738
42199SOL     OW30094  10.948   9.996   3.729 -0.5469 -0.5287 -0.1713
42199SOL    HW130095  11.030  10.033   3.761 -0.7737  0.4778 -0.7173
42199SOL    HW230096  10.950   9.904   3.757  2.0179 -1.2990 -2.4011
42200SOL     OW30097   4.616   6.421   5.120  0.3055 -0.7455  0.2928
42200SOL    HW130098   4.576   6.433   5.034  0.4903  2.5107  0.5153
42200SOL    HW230099   4.710   6.432   5.105  0.3135  0.1899  0.9117
42201SOL     OW30100   4.602   2.414   6.841  0.6422 -0.0366 -0.0263
42201SOL    HW130101   4.632   2.449   6.925  1.0191  1.8643 -0.8940
42201SOL    HW230102   4.590   2.491   6.786 -1.7317 -1.0599 -1.0664
42202SOL     OW30103   0.954   2.477   0.617 -0.3409 -0.6962 -0.1027
42202SOL    HW130104   0.952   2.382   0.628  1.3474 -0.7244  0.2305
42202SOL    HW230105   1.005   2.508   0.691  0.6133  0.3099 -1.1508
42203SOL     OW30106   4.037   0.521   3.472 -0.2746  0.5330 -0.0854
42203SOL    HW130107   4.080   0.443   3.436  2.4687  1.3743  1.1230
42203SOL    HW230108   4.099   0.592   3.455 -1.3785  1.9165  1.4049
42204SOL     OW30109   7.481   8.164   8.367 -0.4333  0.6920 -0.2381
42204SOL    HW130110   7.414   8.117   8.316 -0.5276  0.2868  0.2458
42204SOL    HW230111   7.563   8.122   8.342 -0.5071  0.3256  0.1223
42205SOL     OW30112   3.814   1.068   5.888  0.2174 -0.3605 -0.0029
42205SOL    HW130113   3.759   0.991   5.902 -0.5760  0.1228 -0.3442
42205SOL    HW230114   3.839   1.063   5.796 -0.0866 -0.0644 -0.1057
42206SOL     OW30115   5.627   2.026   2.176  0.0453  0.3421 -0.1527
42206SOL    HW130116   5.605   1.937   2.203  0.2837 -0.1835 -1.5929
42206SOL    HW230117   5.723   2.026   2.170 -0.0195  0.1583 -1.7650
42207SOL     OW30118   4.840   6.133   7.432 -0.1184  0.2225 -0.3982
42207SOL    HW130119   4.753   6.103   7.406 -0.1778  0.5448 -0.5660
42207SOL    HW230120   4.872   6.064   7.491 -1.0415  0.7454  0.7684
42208SOL     OW30121   4.953   2.350   5.236 -0.4420 -0.3055  0.1268
42208SOL    HW130122   5.019   2.419   5.229  0.8007 -1.2738  1.7154
42208SOL    HW230123   4.910   2.365   5.320 -1.7754 -0.1266 -0.5582
42209SOL     OW30124  10.265   3.682   6.236 -0.5694  0.1169  0.1954
42209SOL    HW130125  10.191   3.735   6.205 -0.5067 -0.0997 -0.3421
42209SOL    HW230126  10.338   3.744   6.244 -0.7716  0.3046  0.5888
42210SOL     OW30127   7.194   0.761   3.360  0.5868 -0.0673  0.4983
42210SOL    HW130128   7.167   0.834   3.304  0.4515 -0.7518 -0.3657
42210SOL    HW230129   7.289   0.756   3.348  0.2481 -2.4907 -2.7057
42211SOL     OW30130   0.392   5.298  10.750  0.2746  0.0242  0.6179
42211SOL    HW130131   0.406   5.375  10.804  1.0199  0.5762 -0.3226
42211SOL    HW230132   0.298   5.280  10.757  0.2942  0.3343  1.7318
42212SOL     OW30133  10.081   9.938   4.141 -0.2763  0.6204 -0.1515
42212SOL    HW130134  10.024   9.914   4.215  0.2280  0.6262  0.2403
42212SOL    HW230135  10.092  10.033   4.149 -0.6975  0.7099 -0.5811
42213SOL     OW30136   0.439   8.242   3.474 -0.0208  0.2352  0.1874
42213SOL    HW130137   0.425   8.159   3.519  1.1803  0.5814  1.2386
42213SOL    HW230138   0.533   8.258   3.481 -0.3202  1.9997  0.5797
42214SOL     OW30139   3.761   5.057   3.945 -0.3671 -0.0215 -0.3296
42214SOL    HW130140   3.666   5.057   3.957 -0.1617  0.0350  1.6764
42214SOL    HW230141   3.792   4.982   3.995  0.5672 -0.9311 -2.1639
42215SOL     OW30142   1.088   6.051   5.497  0.0145 -0.6111 -0.6901
42215SOL    HW130143   1.150   6.080   5.564 -0.9177 -0.0592 -0.0452
42215SOL    HW230144   1.061   6.132   5.453 -1.3298 -0.6640 -0.0018
42216SOL     OW30145   4.380   2.128   4.903 -0.0481 -0.0029 -0.0670
42216SOL    HW130146   4.456   2.142   4.959  0.8989 -0.2409 -1.2616
42216SOL    HW230147   4.416   2.096   4.821 -1.4970 -0.8128 -0.4209
42217SOL     OW30148   0.054   8.622   3.258 -0.0564 -0.5261 -0.4229
42217SOL    HW130149   0.094   8.543   3.293  0.8565 -0.5563 -1.4674
42217SOL    HW230150  -0.040   8.605   3.260  0.0030 -0.8065  1.2731
42218SOL     OW30151   7.833   6.238  10.198 -0.5281 -0.9165 -0.1919
42218SOL    HW130152   7.841   6.162  10.140 -1.4104 -1.7177  0.7030
42218SOL    HW230153   7.867   6.208  10.282 -1.9510 -0.7085  0.4800
42219SOL     OW30154   0.211   9.856   7.852 -0.4386 -0.2797 -0.0637
42219SOL    HW130155   0.116   9.864   7.843 -0.8699 -1.2635  2.5830
42219SOL    HW230156   0.244   9.943   7.831 -1.8288 -0.0703 -1.6142
42220SOL     OW30157  10.917   5.336   3.163 -0.2656  0.1610 -0.1690
42220SOL    HW130158  10.847   5.363   3.223  0.1321  0.4303  0.1894
42220SOL    HW230159  10.880   5.265   3.112 -0.1326 -1.1460  1.4584
42221SOL     OW30160   8.586   0.045   1.829 -0.4139  0.3400 -0.2291
42221SOL    HW130161   8.675   0.029   1.860 -0.5545  2.2245  1.2662
42221SOL    HW230162   8.533   0.046   1.908 -1.2183  2.5904 -0.7448
42222SOL     OW30163   1.630   5.709   6.490  0.4280  0.1569 -0.0431
42222SOL    HW130164   1.554   5.696   6.433  0.4786  1.0095 -0.3305
42222SOL    HW230165   1.602   5.777   6.551  0.8510  0.2580  0.0408
42223SOL     OW30166   1.835   3.021   1.370 -0.1378 -0.5262 -0.1619
42223SOL    HW130167   1.837   2.926   1.362 -0.6396 -0.5241 -0.3655
42223SOL    HW230168   1.924   3.045   1.397 -0.1525 -1.0950  0.3972
42224SOL     OW30169   7.218  10.281  10.219  0.5298 -0.3145  0.2652
42224SOL    HW130170   7.248  10.306  10.307  1.5475  0.4377 -0.2681
42224SOL    HW230171   7.289  10.227  10.184  0.2284 -0.4273 -0.1777
42225SOL     OW30172   4.636   3.009   7.659 -0.1457 -0.4067  0.2201
42225SOL    HW130173   4.626   3.067   7.584  1.0059 -0.1332  0.2470
42225SOL    HW230174   4.619   2.921   7.624 -0.5285 -0.1937 -0.1408
42226SOL     OW30175   7.869  10.433  10.369  0.0972 -0.6455  0.4811
42226SOL    HW130176   7.830  10.487  10.438  0.3004 -0.3085  0.3372
42226SOL    HW230177   7.961  10.458  10.369  0.2069 -1.0479  0.4597
42227SOL     OW30178   9.544   8.139   5.834  0.2169  0.2160  0.5982
42227SOL    HW130179   9.579   8.099   5.914  0.0975 -0.5887  0.2564
42227SOL    HW230180   9.561   8.233   5.845  3.0510 -0.1606  0.1985
42228SOL     OW30181  10.474   2.636   8.529  0.5834  0.4198 -0.1786
42228SOL    HW130182  10.461   2.559   8.473  0.6242  0.0903  0.2615
42228SOL    HW230183  10.569   2.648   8.530  0.5266  1.0521 -1.0089
42229SOL     OW30184   1.821   7.653   8.210  0.2031 -0.1423  0.2393
42229SOL    HW130185   1.745   7.711   8.207  0.8090  0.6391 -0.2915
42229SOL    HW230186   1.891   7.701   8.165  0.9622 -0.9262  0.5380
42230SOL     OW30187  10.070  10.895   8.521  0.0398 -0.1012 -0.2946
42230SOL    HW130188  10.059  10.800   8.512 -1.0485  0.0431 -0.5383
42230SOL    HW230189  10.157  10.905   8.561  0.8072 -1.1490 -1.5840
42231SOL     OW30190   2.099   5.437   6.485 -0.0340 -0.2065 -0.0226
42231SOL    HW130191   2.028   5.481   6.531 -0.1510  0.0819 -0.4704
42231SOL    HW230192   2.137   5.377   6.550 -0.3178  0.0520  0.3852
42232SOL     OW30193  10.287   0.174   4.460 -0.2309  0.5037 -0.3036
42232SOL    HW130194  10.344   0.131   4.523  0.0728  0.8185 -0.3563
42232SOL    HW230195  10.331   0.257   4.440 -0.5151  0.5813 -0.6357
42233SOL     OW30196   2.392   4.030   9.860  0.4683 -0.5664 -0.6526
42233SOL    HW130197   2.396   4.119   9.894  0.2829 -0.8379  0.0969
42233SOL    HW230198   2.439   4.034   9.777  0.9952  0.1000 -0.3314
42234SOL     OW30199   7.890   9.554  10.927  0.6526  0.7862  0.4725
42234SOL    HW130200   7.982   9.536  10.943  0.8929  0.8263 -0.7408
42234SOL    HW230201   7.881   9.550  10.832 -0.6811  0.3978  0.5898
42235SOL     OW30202   9.472   9.588   4.773  0.0678  0.4293  0.0445
42235SOL    HW130203   9.512   9.513   4.729  0.7579  0.9054 -0.1573
42235SOL    HW230204   9.380   9.564   4.783  0.4077 -0.7345  0.6048
42236SOL     OW30205   4.072   2.704   9.470  0.1506  0.5109 -0.2264
42236SOL    HW130206   3.990   2.747   9.450 -0.0468  0.5357  0.6036
42236SOL    HW230207   4.048   2.614   9.492  0.4249  0.3177 -0.6944
42237SOL     OW30208   3.934   7.815   7.176  0.2505  0.0874 -0.4018
42237SOL    HW130209   3.937   7.739   7.234  0.2818 -0.1103 -0.6587
42237SOL    HW230210   3.934   7.777   7.088  1.7809  0.4259 -0.5680
42238SOL     OW30211   3.190   6.607   3.798  0.2723  0.1024  0.6655
42238SOL    HW130212   3.105   6.614   3.754  0.1079 -1.7643  0.6235
42238SOL    HW230213   3.192   6.519   3.834  2.9354 -0.6188 -0.9330
42239SOL     OW30214   4.505   3.458   3.078 -0.2400 -0.0867 -0.0096
42239SOL    HW130215   4.437   3.425   3.020  0.4156 -2.0823  0.2830
42239SOL    HW230216   4.483   3.550   3.092 -2.9033 -0.6791  0.1460
42240SOL     OW30217   1.789   3.768   6.761  0.2671  0.6812  0.0013
42240SOL    HW130218   1.708   3.812   6.785 -0.0115  0.4744 -0.5631
42240SOL    HW230219   1.766   3.675   6.756  1.0292  0.3167  2.0029
42241SOL     OW30220   2.003  10.934   5.706  0.1120 -0.1219  0.6238
42241SOL    HW130221   2.036  10.952   5.619  0.2233 -1.2249  0.4297
42241SOL    HW230222   2.033  11.008   5.759 -0.2839  0.7516 -0.3416
42242SOL     OW30223   4.240   0.343   8.413 -0.1683  0.4403 -0.1388
42242SOL    HW130224   4.206   0.433   8.418  0.7686  0.7235  1.7439
42242SOL    HW230225   4.167   0.289   8.443 -0.2990  0.6781 -0.0202
42243SOL     OW30226   8.754   8.918   9.960  0.3532 -0.5413  0.2117
42243SOL    HW130227   8.817   8.869  10.012  0.3249 -0.2175  0.5513
42243SOL    HW230228   8.672   8.913  10.010  0.7363  1.2188  1.0822
42244SOL     OW30229   7.409   2.610   9.101  0.5648  0.3255  0.0831
42244SOL    HW130230   7.445   2.678   9.158  0.3783  0.9859 -0.5598
42244SOL    HW230231   7.345   2.564   9.155 -0.1316  1.4056  0.2039
42245SOL     OW30232  10.288   9.242   9.455 -0.0556 -0.2327  0.0013
42245SOL    HW130233  10.209   9.294   9.468 -0.1847 -1.0407  3.7375
42245SOL    HW230234  10.258   9.151   9.452  0.5978 -0.4442 -0.5930
42246SOL     OW30235   1.198   9.547   1.286 -0.0776  0.2797  0.4201
42246SOL    HW130236   1.152   9.465   1.309 -0.5434  0.3794 -0.1318
42246SOL    HW230237   1.284   9.538   1.326  0.0654 -0.7140 -0.0767
42247SOL     OW30238   4.268   3.706   5.129  0.0208 -0.1411  0.1167
42247SOL    HW130239   4.229   3.623   5.158  2.2968 -1.3045  0.0285
42247SOL    HW230240   4.273   3.698   5.034  1.2367 -0.4173  0.1840
42248SOL     OW30241   7.594   3.498   7.252 -0.2531  0.2469 -0.4547
42248SOL    HW130242   7.619   3.566   7.189 -0.7858 -0.1936 -1.1621
42248SOL    HW230243   7.506   3.522   7.279  0.7400  1.6711  1.8622
42249SOL     OW30244   2.780  10.040  10.928  0.6983  0.2092  0.1343
42249SOL    HW130245   2.777   9.979  10.854  0.3033 -1.9872  1.8565
42249SOL    HW230246   2.758   9.987  11.004 -3.0338  3.1468  1.4141
42250SOL     OW30247   7.739   3.661   0.674  0.0598  0.8750 -0.5135
42250SOL    HW130248   7.686   3.739   0.690 -0.0492  1.1237 -1.9991
42250SOL    HW230249   7.694   3.615   0.604  0.3085 -0.3720  0.1149
42251SOL     OW30250   7.034  10.087   1.737 -0.5633 -0.0283 -0.9972
42251SOL    HW130251   7.107  10.101   1.798 -0.8036  0.1244 -0.7363
42251SOL    HW230252   7.071  10.103   1.651  0.2153 -1.8755 -1.0571
42252SOL     OW30253   2.804  10.923   2.055  0.1910  0.1016 -0.4745
42252SOL    HW130254   2.836  10.832   2.050 -1.1474 -0.4456  0.5815
42252SOL    HW230255   2.760  10.929   2.139 -2.0150  0.9683 -1.6016
42253SOL     OW30256   7.262   4.309   0.100 -0.2486 -0.0996  0.1575
42253SOL    HW130257   7.335   4.255   0.130 -0.2536 -0.5693 -0.6544
42253SOL    HW230258   7.191   4.290   0.162  0.1979  0.0768  0.7269
42254SOL     OW30259   0.980   3.507   5.338  0.4396  0.0412  0.2512
42254SOL    HW130260   0.925   3.527   5.414  0.1397  1.7689 -0.3808
42254SOL    HW230261   0.990   3.591   5.293  0.1861 -1.0317 -1.9069
42255SOL     OW30262   7.367   4.862   1.920  0.2331 -0.2109 -0.0972
42255SOL    HW130263   7.312   4.817   1.984  0.8364 -1.0099 -0.1223
42255SOL    HW230264   7.311   4.929   1.882  0.1816  1.0505  2.0730
42256SOL     OW30265   9.854   0.368   8.784 -0.7370 -0.2143 -0.9575
42256SOL    HW130266   9.862   0.309   8.859  0.9334 -0.3917 -1.2432
42256SOL    HW230267   9.761   0.391   8.782 -0.6500  0.9106  2.0348
42257SOL     OW30268   5.426   8.172   5.992  0.5046 -0.1042 -0.7610
42257SOL    HW130269   5.480   8.094   5.998 -0.3733 -0.6421  0.5169
42257SOL    HW230270   5.354   8.147   5.934  0.2190 -0.2536 -0.3450
42258SOL     OW30271   9.345   1.588   1.698  0.2804  0.2255 -0.2060
42258SOL    HW130272   9.440   1.596   1.705  0.1752  0.7154  0.7750
42258SOL    HW230273   9.315   1.675   1.671 -0.0137  0.5055  0.9764
42259SOL     OW30274   5.047  10.687   7.241 -0.1831 -0.5187  0.3147
42259SOL    HW130275   5.071  10.638   7.320  0.3245  0.9622  1.1318
42259SOL    HW230276   5.008  10.622   7.183  1.8739 -2.2107  0.6915
42260SOL     OW30277   7.868   5.439   0.364 -0.3188 -0.3192  0.1156
42260SOL    HW130278   7.927   5.483   0.304  0.8140 -0.4073  1.1316
42260SOL    HW230279   7.923   5.377   0.412 -0.7582  1.0016  2.5101
42261SOL     OW30280   5.814   7.562   3.222 -0.1079  0.1710  0.0495
42261SOL    HW130281   5.735   7.509   3.219 -1.4802  2.1516 -1.0882
42261SOL    HW230282   5.786   7.648   3.192  2.4510  0.9970 -0.1929
42262SOL     OW30283   6.140   0.973   8.398  0.2442 -0.4359  0.5703
42262SOL    HW130284   6.166   1.061   8.424  0.6378  0.3412 -2.1296
42262SOL    HW230285   6.046   0.970   8.414  0.2264  0.4772  0.6815
42263SOL     OW30286   9.714   3.860   3.192  0.1005  0.1424 -0.3992
42263SOL    HW130287   9.706   3.934   3.252  0.0485 -0.8950  0.9225
42263SOL    HW230288   9.689   3.784   3.244  1.1679 -0.9424 -1.3992
42264SOL     OW30289   2.102   9.813   5.686 -0.6617 -1.0147  0.1747
42264SOL    HW130290   2.140   9.795   5.600 -0.4913 -0.7037  0.1849
42264SOL    HW230291   2.118   9.733   5.736  1.4662 -0.3183  0.7108
42265SOL     OW30292   7.535   7.563  10.657 -0.1816  0.0748  0.7484
42265SOL    HW130293   7.482   7.638  10.685 -1.8259 -0.6181 -0.3260
42265SOL    HW230294   7.587   7.595  10.584  1.7417  1.0357  2.4409
42266SOL     OW30295   1.889   9.376   0.299 -0.4360  0.1291  0.2978
42266SOL    HW130296   1.902   9.306   0.235  0.8966  0.0193  0.6463
42266SOL    HW230297   1.937   9.345   0.377 -0.2886  1.1793  0.6328
42267SOL     OW30298   8.286   4.527  10.438 -0.2540  0.1241  0.0975
42267SOL    HW130299   8.225   4.469  10.392  0.1343  0.5772 -1.0224
42267SOL    HW230300   8.262   4.615  10.408  1.9457  0.2134 -1.6645
42268SOL     OW30301   8.065   2.301   7.117  0.0483 -0.1453  0.4316
42268SOL    HW130302   8.154   2.335   7.130  0.2511 -0.6150  0.2969
42268SOL    HW230303   8.021   2.317   7.201  0.5786 -0.8417  0.8573
42269SOL     OW30304   5.955   4.666   2.329 -0.0646 -0.7346 -0.6058
42269SOL    HW130305   5.925   4.747   2.370 -0.1360 -1.1106  0.0941
42269SOL    HW230306   5.874   4.621   2.304 -0.0217 -0.5103 -1.1683
42270SOL     OW30307   7.902   9.658   8.894  0.1047 -0.7591 -0.1395
42270SOL    HW130308   7.904   9.752   8.910  3.3203 -1.0241  1.8137
42270SOL    HW230309   7.926   9.649   8.801  1.7772  0.3522  0.1413
42271SOL     OW30310  10.822   6.631   9.809  0.0477 -0.1281 -0.9808
42271SOL    HW130311  10.853   6.543   9.831  1.0556  0.5097  0.2491
42271SOL    HW230312  10.866   6.652   9.727  1.4524  0.0259 -0.2145
42272SOL     OW30313   2.820   7.309   2.043  0.1034  0.6166  0.1286
42272SOL    HW130314   2.898   7.334   2.093  0.1772 -0.2531  0.4635
42272SOL    HW230315   2.848   7.313   1.952  0.0580  1.9163  0.1561
42273SOL     OW30316   3.976   6.316   3.693  0.2897  0.0528 -0.3851
42273SOL    HW130317   3.916   6.347   3.626  0.5230 -0.4021 -0.8157
42273SOL    HW230318   4.060   6.305   3.646 -0.1140 -2.6080 -0.6400
42274SOL     OW30319   0.700   5.285   5.217  0.6822 -0.1811  0.3748
42274SOL    HW130320   0.731   5.232   5.290  0.6384 -0.1239  0.4352
42274SOL    HW230321   0.624   5.238   5.182  0.8748 -0.3543  0.1848
42275SOL     OW30322   3.882   7.620   6.279 -0.3034 -0.1237  0.2231
42275SOL    HW130323   3.881   7.692   6.216 -0.8322 -1.4293 -1.3319
42275SOL    HW230324   3.942   7.555   6.241  0.8345 -0.1859  2.0072
42276SOL     OW30325   8.526   2.307  10.645  0.2635 -0.2088  0.8576
42276SOL    HW130326   8.604   2.359  10.663  0.0494 -0.4766  2.7517
42276SOL    HW230327   8.455   2.372  10.640  0.6611  0.1201 -1.6710
42277SOL     OW30328   9.618   7.377   1.359  0.5278  0.0636 -0.6268
42277SOL    HW130329   9.671   7.419   1.291 -0.3193  0.4580 -1.0576
42277SOL    HW230330   9.579   7.301   1.316  1.8096 -1.0153  0.0674
42278SOL     OW30331   3.790   2.413   0.721  0.1758 -0.1600  0.7883
42278SOL    HW130332   3.827   2.502   0.725  1.5473 -0.5883 -0.7639
42278SOL    HW230333   3.867   2.356   0.715 -0.7027 -1.3129  0.0028
42279SOL     OW30334   4.579   5.545   2.870  0.2755  0.5222  0.1011
42279SOL    HW130335   4.573   5.565   2.963  0.6026  2.0985 -0.1923
42279SOL    HW230336   4.543   5.456   2.862  1.0717 -0.0041  1.8444
42280SOL     OW30337   8.043   0.433   1.303 -0.4826 -0.1178  0.1012
42280SOL    HW130338   8.102   0.508   1.298  2.2249 -2.1223 -0.8567
42280SOL    HW230339   8.099   0.361   1.332 -1.8865 -2.6661 -2.9527
42281SOL     OW30340   9.188   1.520   7.180  0.0141 -0.2198  0.0738
42281SOL    HW130341   9.152   1.472   7.105  0.2317  2.2537 -1.7419
42281SOL    HW230342   9.254   1.578   7.142  0.1795  1.0868  2.2040
42282SOL     OW30343   6.798   9.725   5.493 -0.5826 -0.3568 -0.2354
42282SOL    HW130344   6.848   9.678   5.426  0.6865  0.4300  0.1290
42282SOL    HW230345   6.828   9.688   5.576 -0.1664  0.5131  0.0124
42283SOL     OW30346   7.316   6.989  10.362  0.3800  0.3918 -0.1006
42283SOL    HW130347   7.244   7.037  10.403 -0.5361  1.4270 -2.6913
42283SOL    HW230348   7.292   6.897  10.371 -1.1441  0.7087 -0.6494
42284SOL     OW30349  10.552   4.640   1.333  0.0870  0.4054  0.2894
42284SOL    HW130350  10.540   4.642   1.428  1.8146  0.1775  0.5400
42284SOL    HW230351  10.465   4.620   1.298 -0.7756  1.4127  1.7644
42285SOL     OW30352   6.976  10.706   5.493  0.0075  0.0057  0.0473
42285SOL    HW130353   7.041  10.644   5.459  0.8802  0.0185  1.6243
42285SOL    HW230354   6.919  10.653   5.548  0.5358  0.5160  1.1060
42286SOL     OW30355   8.440   2.199   4.751  0.3354  0.2763  0.3098
42286SOL    HW130356   8.501   2.160   4.814  0.9021  1.4478  0.5261
42286SOL    HW230357   8.494   2.218   4.674 -0.3035 -0.9217 -0.4634
42287SOL     OW30358   3.395   0.179   1.112 -0.1394  0.2175  0.4228
42287SOL    HW130359   3.403   0.211   1.202  1.4332  1.5049 -0.1223
42287SOL    HW230360   3.306   0.143   1.107 -1.4756  2.9878  1.6366
42288SOL     OW30361   0.854  10.094   4.773 -0.0081 -0.0694  0.0071
42288SOL    HW130362   0.909  10.155   4.822 -1.6853  0.7188  1.0344
42288SOL    HW230363   0.859  10.124   4.682 -0.8072  1.6922  0.4920
42289SOL     OW30364   2.981   6.737   5.208 -0.3760 -0.0571  0.5363
42289SOL    HW130365   2.911   6.774   5.154  0.0291  2.4454  1.5856
42289SOL    HW230366   2.957   6.645   5.218 -1.6752 -0.0765 -1.9255
42290SOL     OW30367   5.104   6.414   5.968 -0.3580 -0.5496 -0.3578
42290SOL    HW130368   5.098   6.495   5.919 -0.3116  0.3008  0.9993
42290SOL    HW230369   5.198   6.394   5.972 -0.2666 -0.0126  0.3264
42291SOL     OW30370   2.891   4.076   7.872 -0.4089 -0.7596  0.2763
42291SOL    HW130371   2.885   4.079   7.776  1.5944  2.1458  0.0988
42291SOL    HW230372   2.830   4.144   7.901  0.9145  0.2210  0.8499
42292SOL     OW30373   3.552   5.879   3.053  0.2397  0.2944  1.1162
42292SOL    HW130374   3.623   5.868   3.117  2.3803  0.8024 -1.0141
42292SOL    HW230375   3.592   5.930   2.982 -1.2951 -2.0236 -1.6409
42293SOL     OW30376   3.907   7.206   1.051  0.9562  0.7147  0.3404
42293SOL    HW130377   3.998   7.235   1.056  1.6739 -0.3791 -3.4475
42293SOL    HW230378   3.858   7.283   1.021  1.7576 -0.0300 -3.3121
42294SOL     OW30379   2.198   7.660  10.482 -0.2825  0.8375 -0.5257
42294SOL    HW130380   2.217   7.724  10.551  1.2419 -0.3721  0.2258
42294SOL    HW230381   2.282   7.644  10.440 -0.8135  0.0169 -1.3234
42295SOL     OW30382   3.094   9.147   1.830  0.3274  0.0157 -0.5252
42295SOL    HW130383   3.075   9.074   1.771 -2.2734 -0.6708  0.9964
42295SOL    HW230384   3.151   9.110   1.897 -1.0787 -0.7186  0.3051
42296SOL     OW30385   6.546   7.322   7.026 -0.7843  0.4018 -0.2048
42296SOL    HW130386   6.497   7.405   7.020 -2.4070 -0.5227 -0.3552
42296SOL    HW230387   6.570   7.302   6.936 -1.5610  0.0666 -0.3500
42297SOL     OW30388   8.157   0.163  10.327  0.5402 -0.5412  0.4641
42297SOL    HW130389   8.223   0.231  10.338 -0.5031  0.4664  0.6692
42297SOL    HW230390   8.179   0.122  10.243  0.1279  1.2777 -0.5941
42298SOL     OW30391   2.165   1.120   8.832  0.0485 -0.4802 -0.3398
42298SOL    HW130392   2.105   1.099   8.904  0.0031  0.7894  0.0135
42298SOL    HW230393   2.117   1.097   8.753 -0.8010  0.2705 -0.0476
42299SOL     OW30394   0.909   4.948   8.878 -0.1485  0.3843 -0.0042
42299SOL    HW130395   0.900   4.922   8.786  1.7608  0.4715 -0.2467
42299SOL    HW230396   0.918   4.865   8.925  0.2868  0.3891 -0.0765
42300SOL     OW30397   4.782   9.119   5.540  0.3317  0.5661 -0.1262
42300SOL    HW130398   4.830   9.044   5.575 -0.5883 -0.1698 -0.4175
42300SOL    HW230399   4.747   9.164   5.617 -2.5990 -1.6461 -0.0147
42301SOL     OW30400  10.087   2.979   0.245 -0.0901 -0.2207 -0.6907
42301SOL    HW130401  10.163   2.964   0.189  0.7712  1.1091  0.0438
42301SOL    HW230402  10.026   3.027   0.189  0.7870  1.1488 -0.5541
42302SOL     OW30403   5.436   5.871   7.618  0.1472  0.3454  0.2325
42302SOL    HW130404   5.477   5.786   7.634  0.1580  0.3982  0.4883
42302SOL    HW230405   5.382   5.887   7.695  1.6945  1.4859  1.1463
42303SOL     OW30406   8.828   1.692  10.246 -0.2594 -0.2358 -0.7040
42303SOL    HW130407   8.739   1.727  10.249 -0.5935 -1.1312  1.7426
42303SOL    HW230408   8.862   1.705  10.335  1.3017 -1.7882 -1.0209
42304SOL     OW30409   4.245   9.462  10.978  0.3185  0.1560 -0.0525
42304SOL    HW130410   4.161   9.454  10.932 -0.3168  0.2551  1.0554
42304SOL    HW230411   4.285   9.541  10.942 -0.6561  0.8315  0.3132
42305SOL     OW30412   2.135   1.626  10.571 -0.0041 -0.4564 -0.1493
42305SOL    HW130413   2.177   1.609  10.655 -0.4929 -2.0642 -0.2128
42305SOL    HW230414   2.089   1.709  10.584  1.4952  0.3180  0.5399
42306SOL     OW30415   6.651   2.307   1.337  0.3002  0.8083 -0.0434
42306SOL    HW130416   6.611   2.277   1.256 -0.5109  0.8720  0.3196
42306SOL    HW230417   6.578   2.344   1.388  0.6343  0.0229  1.0501
42307SOL     OW30418   9.081   1.078   9.918  0.5137  0.2721  0.5590
42307SOL    HW130419   9.164   1.040   9.948  0.2291 -0.1333  0.8368
42307SOL    HW230420   9.014   1.023   9.958  0.0593  1.7178  1.8733
42308SOL     OW30421   0.117   5.302   6.006 -0.1234  0.0518 -0.1251
42308SOL    HW130422   0.070   5.371   5.960 -0.7285  0.3052  0.8400
42308SOL    HW230423   0.195   5.287   5.953 -0.7398  0.3983 -1.1672
42309SOL     OW30424   4.147   2.620   8.674  1.1043 -0.2991 -0.1813
42309SOL    HW130425   4.118   2.712   8.675  0.6522 -0.4421  0.2512
42309SOL    HW230426   4.205   2.613   8.750  3.5788  0.3694 -1.8451
42310SOL     OW30427   3.923   8.790  10.062  0.5144 -0.3497  0.2133
42310SOL    HW130428   3.873   8.779  10.143  1.2356  1.3296  0.9238
42310SOL    HW230429   3.880   8.863  10.017  0.7689 -0.5795 -0.4210
42311SOL     OW30430   6.278   1.311   2.035 -0.3781  0.2275 -0.1388
42311SOL    HW130431   6.210   1.262   2.082 -0.8419  0.4249 -0.5989
42311SOL    HW230432   6.357   1.257   2.044  0.0805  1.1933  2.5777
42312SOL     OW30433   9.557   5.489   1.607  0.2320 -0.0527 -0.3074
42312SOL    HW130434   9.493   5.462   1.673  0.1271  0.4509 -0.1963
42312SOL    HW230435   9.571   5.411   1.554 -0.4734 -0.1766 -0.3271
42313SOL     OW30436   8.154   1.570   9.604 -0.1570  0.3220 -0.2277
42313SOL    HW130437   8.074   1.622   9.611 -0.5077 -0.3095  0.6331
42313SOL    HW230438   8.189   1.569   9.693 -1.3255 -2.7009  0.3015
42314SOL     OW30439   0.640   2.794   4.192 -0.3038  0.4005 -0.4669
42314SOL    HW130440   0.665   2.864   4.252 -0.9434  0.3190 -0.0883
42314SOL    HW230441   0.558   2.825   4.153  0.3896  0.7002 -1.7240
42315SOL     OW30442   5.116   9.548   7.835 -0.0389  0.1978 -0.8849
42315SOL    HW130443   5.124   9.581   7.925 -0.5797 -2.9336  0.4499
42315SOL    HW230444   5.023   9.526   7.826  0.1178 -0.0593 -2.0113
42316SOL     OW30445   9.516   5.740   1.692 -0.1923 -0.4120  0.4332
42316SOL    HW130446   9.555   5.663   1.652  0.4112 -0.3200  0.8302
42316SOL    HW230447   9.509   5.803   1.621 -0.0445 -0.5924  0.2560
42317SOL     OW30448   6.102   3.045   1.284 -0.3342 -0.0262  0.8396
42317SOL    HW130449   6.181   3.098   1.275 -0.4923  0.0844  0.0212
42317SOL    HW230450   6.044   3.097   1.341 -0.6151  0.8497 -0.2099
42318SOL     OW30451   4.177   2.029   5.229 -0.5129  0.0167 -0.2992
42318SOL    HW130452   4.205   1.980   5.151  0.3246  0.2921 -0.1789
42318SOL    HW230453   4.131   1.965   5.282  2.2508 -1.2272  0.7874
42319SOL     OW30454   4.004   4.907   2.966 -0.1779  0.3290  0.4009
42319SOL    HW130455   3.932   4.965   2.941 -1.5677 -0.4267  2.4066
42319SOL    HW230456   4.064   4.964   3.015  0.0955  0.7269 -0.3704
42320SOL     OW30457   7.324   4.997   8.907  0.2382 -0.3376  0.1207
42320SOL    HW130458   7.389   5.067   8.916 -0.1345 -0.0708  0.8096
42320SOL    HW230459   7.242   5.035   8.939  0.2229 -1.3649  1.3963
42321SOL     OW30460   6.063   8.938   8.127 -0.2430 -0.2608  0.0088
42321SOL    HW130461   6.060   8.896   8.040 -0.5483  0.2160 -0.2157
42321SOL    HW230462   6.020   8.875   8.185  1.0622 -1.1519  0.0736
42322SOL     OW30463   1.417   6.376   7.288 -0.5780  0.0977 -0.0025
42322SOL    HW130464   1.430   6.306   7.352 -0.2739  0.2884  0.1499
42322SOL    HW230465   1.331   6.413   7.309  1.1333  2.9319  3.0786
42323SOL     OW30466   2.043   6.320   1.004  0.4886 -0.5296 -0.1129
42323SOL    HW130467   2.002   6.257   0.945 -2.0957 -0.2391  1.2661
42323SOL    HW230468   2.039   6.279   1.090 -0.7655  1.2506  0.7302
42324SOL     OW30469   4.938   3.376   1.535  0.3622 -0.8281 -0.0754
42324SOL    HW130470   4.911   3.300   1.483  0.1574 -0.4277 -0.5536
42324SOL    HW230471   4.955   3.445   1.471 -0.2578 -0.2118  0.4060
42325SOL     OW30472   7.007   0.429   9.726  0.4535 -0.1912  0.0280
42325SOL    HW130473   6.963   0.489   9.667 -0.4175 -0.9174 -0.0856
42325SOL    HW230474   7.037   0.357   9.670  0.5464 -0.3762  0.3091
42326SOL     OW30475   5.073   1.894   2.209  0.1911  0.3568 -0.3318
42326SOL    HW130476   5.166   1.915   2.200 -0.0336  1.6237  0.1040
42326SOL    HW230477   5.038   1.903   2.121  0.2573  1.1112 -0.2918
42327SOL     OW30478   0.930   1.968   4.105  0.1517  0.2539 -0.4288
42327SOL    HW130479   0.953   1.911   4.179 -2.2425 -1.2219 -0.7071
42327SOL    HW230480   0.897   2.048   4.146  0.7708  0.2941  0.0213
42328SOL     OW30481   7.683   0.416   0.955  0.1122 -0.2814 -0.6695
42328SOL    HW130482   7.712   0.435   1.044 -2.3499 -0.5746  0.2817
42328SOL    HW230483   7.691   0.499   0.909  1.0248 -0.0194 -0.0616
42329SOL     OW30484   5.843   1.731   1.981  0.0584  0.0529 -0.1053
42329SOL    HW130485   5.756   1.755   1.947  0.2527 -0.8835 -1.3361
42329SOL    HW230486   5.876   1.811   2.021 -0.9361  0.7154 -0.5743
42330SOL     OW30487  10.667   7.650   9.464  0.5382 -0.0020 -0.3855
42330SOL    HW130488  10.730   7.631   9.533  0.0038  0.4368  0.2397
42330SOL    HW230489  10.652   7.567   9.420 -0.7115 -0.7617  1.3843
42331SOL     OW30490   0.862   7.766   4.371 -0.0524 -0.0784  0.9095
42331SOL    HW130491   0.880   7.859   4.383  0.0925 -0.0284  0.3466
42331SOL    HW230492   0.948   7.726   4.359  0.0065 -0.5144  2.5855
42332SOL     OW30493   6.483  10.854   6.474  0.1240  0.3250 -0.4774
42332SOL    HW130494   6.468  10.948   6.472 -0.5142  0.2202 -0.9041
42332SOL    HW230495   6.403  10.816   6.439  0.1944 -0.4022  0.1157
42333SOL     OW30496   2.101  10.829   7.022  0.4092 -0.3325  0.1498
42333SOL    HW130497   2.126  10.835   7.115  0.0917  0.2335  0.2011
42333SOL    HW230498   2.078  10.737   7.010  0.5387 -0.4285  0.6122
42334SOL     OW30499   9.269   3.446   0.907 -0.1114  0.2731 -0.2821
42334SOL    HW130500   9.346   3.437   0.964  0.0976 -0.6505 -0.6949
42334SOL    HW230501   9.198   3.405   0.957  0.2261 -1.2036 -0.9585
42335SOL     OW30502   7.877   5.304   7.285  0.6392  0.3528  0.2017
42335SOL    HW130503   7.835   5.389   7.297 -0.4894 -0.3121  1.1459
42335SOL    HW230504   7.884   5.293   7.190 -3.0235 -0.2599 -0.1440
42336SOL     OW30505   8.719   7.226   7.098 -0.1440  0.7338 -0.4909
42336SOL    HW130506   8.786   7.158   7.094 -0.1655  0.6784 -0.0194
42336SOL    HW230507   8.730   7.264   7.185 -2.4041 -0.9758  0.6280
42337SOL     OW30508   3.579   4.935   4.396  0.5806  0.3835 -0.3992
42337SOL    HW130509   3.609   4.939   4.487  0.5650 -2.6161 -0.1715
42337SOL    HW230510   3.491   4.899   4.401  0.8801 -0.5726 -1.6403
42338SOL     OW30511   4.037   6.453   3.973 -0.2607  0.2878 -0.1130
42338SOL    HW130512   4.128   6.447   4.002 -0.4712 -2.6011  0.2776
42338SOL    HW230513   4.039   6.417   3.884 -0.8562  1.3771 -0.5757
42339SOL     OW30514   9.570   3.418  10.930  0.2706 -0.0023 -0.1443
42339SOL    HW130515   9.636   3.436  10.997 -1.1978  0.5063  1.2352
42339SOL    HW230516   9.593   3.333  10.895  1.0132 -0.3452  1.1146
42340SOL     OW30517   9.293   6.610   4.991  0.3564 -0.3217  0.2863
42340SOL    HW130518   9.270   6.536   5.047  0.4480 -1.7497 -1.4848
42340SOL    HW230519   9.265   6.687   5.041  0.5167 -1.5018  2.3064
42341SOL     OW30520   0.609   3.186  10.626 -0.1186 -0.0412  0.2267
42341SOL    HW130521   0.625   3.219  10.537 -1.1404  1.2759  0.4946
42341SOL    HW230522   0.647   3.253  10.683 -3.5104  1.6244  0.8154
42342SOL     OW30523   0.067   4.552   8.075  0.5412  0.3135 -0.4212
42342SOL    HW130524   0.091   4.629   8.126 -0.8610  1.8737 -1.9912
42342SOL    HW230525  -0.011   4.579   8.026 -0.1031 -2.1750 -0.9121
42343SOL     OW30526   9.370   7.218   8.426 -1.0343 -0.0947 -0.3063
42343SOL    HW130527   9.444   7.170   8.464 -1.0455 -0.2962 -0.5378
42343SOL    HW230528   9.317   7.245   8.501 -1.9922 -1.9846 -0.2511
42344SOL     OW30529   5.616   3.198   3.846  0.5502 -0.5545 -0.5398
42344SOL    HW130530   5.625   3.105   3.868  0.4896 -0.6416 -0.8855
42344SOL    HW230531   5.596   3.199   3.753  0.3645 -0.2015 -0.4960
42345SOL     OW30532   3.945  10.291  10.194 -0.0031 -0.3050 -0.2264
42345SOL    HW130533   3.969  10.200  10.176  0.3705  0.0007 -1.3974
42345SOL    HW230534   3.902  10.288  10.279 -0.1630 -1.6017 -0.3252
42346SOL     OW30535   8.901   5.959   7.210  0.2001 -0.0736  0.1122
42346SOL    HW130536   8.899   5.991   7.120  0.9488 -0.2000  0.0438
42346SOL    HW230537   8.874   6.034   7.263  0.0699  0.0943 -0.1868
42347SOL     OW30538   8.888  10.274   1.335 -0.3139 -0.4269  0.1677
42347SOL    HW130539   8.806  10.244   1.373 -0.4232  1.6704  1.7170
42347SOL    HW230540   8.866  10.301   1.246 -1.8371  2.0503  1.1985
42348SOL     OW30541   6.379   5.740   5.173  0.2630 -0.6813 -0.6344
42348SOL    HW130542   6.286   5.759   5.187  0.5049  0.4296 -0.4737
42348SOL    HW230543   6.413   5.721   5.261 -0.1288 -2.7147 -0.8672
42349SOL     OW30544   4.134   6.966   5.614  0.0764  0.1525 -0.3599
42349SOL    HW130545   4.184   6.936   5.538 -1.7733 -1.2888 -1.0741
42349SOL    HW230546   4.075   6.893   5.634 -0.5880  1.1432  1.4701
42350SOL     OW30547   5.150   8.247   9.192  0.0254  0.2871 -0.2733
42350SOL    HW130548   5.085   8.261   9.123 -2.8196 -0.1593  2.1069
42350SOL    HW230549   5.111   8.287   9.270  0.8120 -3.2140  2.1487
42351SOL     OW30550   1.816  10.398   2.743 -0.5230  0.0408  0.0331
42351SOL    HW130551   1.821  10.360   2.655 -1.6477  0.2187 -0.1252
42351SOL    HW230552   1.724  10.422   2.753 -0.4803 -0.2879  1.3974
42352SOL     OW30553   5.602   8.736   7.885 -0.1420  0.0057  0.6248
42352SOL    HW130554   5.606   8.803   7.953 -0.7055 -1.3221  2.0432
42352SOL    HW230555   5.522   8.687   7.904  0.1917 -1.0089 -0.4131
42353SOL     OW30556   3.800   7.891  10.418 -0.3097 -0.2442 -0.3542
42353SOL    HW130557   3.833   7.818  10.366  1.5358 -0.8379  1.5025
42353SOL    HW230558   3.852   7.966  10.390  2.1299 -0.9676  1.8445
42354SOL     OW30559   9.392   3.968   9.985  0.5341 -0.5561 -0.3447
42354SOL    HW130560   9.371   4.055  10.019  1.4737 -0.6718  0.6049
42354SOL    HW230561   9.427   3.921  10.060  2.1311 -1.0274 -1.3236
42355SOL     OW30562   0.308   1.543   2.254  0.0663 -0.6641 -0.0505
42355SOL    HW130563   0.219   1.520   2.282 -0.7703  0.5021 -1.5466
42355SOL    HW230564   0.325   1.628   2.294 -0.5931  0.3567 -1.7984
42356SOL     OW30565   3.280  10.108   5.602  0.4745  0.0221 -0.2457
42356SOL    HW130566   3.307  10.167   5.531  0.0255  0.1737 -0.2922
42356SOL    HW230567   3.187  10.126   5.614  0.8618  1.1435  1.4535
42357SOL     OW30568   6.398   0.530   4.084 -0.4028 -0.0018 -0.1865
42357SOL    HW130569   6.365   0.498   4.000  0.2178  2.1955 -1.3556
42357SOL    HW230570   6.492   0.539   4.071 -0.4395  1.4022  0.3410
42358SOL     OW30571   1.380   5.292   4.009  0.3519 -0.0990 -0.3674
42358SOL    HW130572   1.463   5.280   4.056  0.0830 -0.1590  0.0918
42358SOL    HW230573   1.339   5.205   4.011  0.7959 -0.3544 -1.5892
42359SOL     OW30574   7.232   7.780   4.710  0.6145  0.0364  0.6061
42359SOL    HW130575   7.240   7.740   4.624 -1.1311 -0.9116  0.8427
42359SOL    HW230576   7.138   7.789   4.724  0.8857  1.7090  1.7426
42360SOL     OW30577   5.091   5.522   1.543  0.2041  0.4774  0.2042
42360SOL    HW130578   5.089   5.427   1.536 -2.4671  0.5646 -3.3437
42360SOL    HW230579   5.100   5.540   1.636  1.0869 -3.2104  0.9514
42361SOL     OW30580   3.649   9.816   5.373 -0.4520 -0.0252  0.0444
42361SOL    HW130581   3.657   9.859   5.288  1.1761  0.4433  0.3945
42361SOL    HW230582   3.566   9.769   5.369 -0.4913  0.1359 -1.7335
42362SOL     OW30583   6.723   2.354   1.632 -0.4364  0.2395 -0.2150
42362SOL    HW130584   6.760   2.384   1.715  1.6704 -1.3771 -0.4725
42362SOL    HW230585   6.767   2.406   1.566  0.0120 -0.4204 -0.4432
42363SOL     OW30586   1.784   4.847   3.577  0.1307 -0.2900  0.2467
42363SOL    HW130587   1.828   4.787   3.517 -0.3674  1.3897 -1.9202
42363SOL    HW230588   1.851   4.912   3.599 -0.0130 -0.2686  0.6370
42364SOL     OW30589   4.022   4.247   3.867  0.1824 -0.1616  0.1629
42364SOL    HW130590   3.958   4.237   3.798  1.9896  0.0802 -1.6408
42364SOL    HW230591   3.990   4.190   3.938 -1.0484 -1.4672 -1.3554
42365SOL     OW30592   0.427   0.427   3.533  0.0496 -0.4146  0.2040
42365SOL    HW130593   0.474   0.485   3.592  0.3792 -0.2459 -0.2210
42365SOL    HW230594   0.358   0.388   3.587  0.2793 -0.1795  0.6676
42366SOL     OW30595   7.047   1.652   1.633 -0.6944 -0.5960 -0.0159
42366SOL    HW130596   7.037   1.744   1.609  0.8414 -0.4066 -0.0426
42366SOL    HW230597   6.961   1.626   1.668 -1.2389  0.7426 -0.3216
42367SOL     OW30598   4.198   7.400   7.985 -0.0773  0.3576  0.2425
42367SOL    HW130599   4.113   7.415   8.026 -0.5953 -1.8060  0.0681
42367SOL    HW230600   4.188   7.433   7.896 -0.5027  0.7420  0.4290
42368SOL     OW30601   9.533  10.322   8.678  0.2387  0.6153 -0.3021
42368SOL    HW130602   9.491  10.360   8.755 -0.6066  0.2323 -0.5602
42368SOL    HW230603   9.537  10.394   8.615 -2.0684  0.1740 -1.0748
42369SOL     OW30604   9.500   7.789   4.265  0.7191 -0.3469 -0.2843
42369SOL    HW130605   9.571   7.743   4.311  0.0486  0.1620  1.3573
42369SOL    HW230606   9.446   7.824   4.336  0.0052  1.0911 -1.5058
42370SOL     OW30607   0.585   9.003   5.754  0.2446  0.1346 -0.0000
42370SOL    HW130608   0.572   8.946   5.829  2.0653  1.5324  1.4706
42370SOL    HW230609   0.508   9.060   5.754 -0.0508 -0.2605  0.4323
42371SOL     OW30610   2.133   0.686   2.482  0.3827  0.3832  0.2682
42371SOL    HW130611   2.061   0.646   2.433  0.4979 -1.1306  1.2406
42371SOL    HW230612   2.153   0.621   2.550  2.1024  1.1497  0.5303
42372SOL     OW30613   1.944   7.197   7.343  0.0639 -0.1907  0.1989
42372SOL    HW130614   1.913   7.286   7.362  0.3895  0.2097 -1.0657
42372SOL    HW230615   1.881   7.163   7.280  1.3798  0.1200 -1.3315
42373SOL     OW30616   8.177   2.350   8.953  0.1527 -0.0286  0.8253
42373SOL    HW130617   8.247   2.314   9.007  0.7211 -0.7179 -0.3305
42373SOL    HW230618   8.134   2.273   8.916 -0.6376  0.4177  0.8125
42374SOL     OW30619   5.060   5.369  10.769  0.0608 -0.5843  0.5705
42374SOL    HW130620   4.975   5.380  10.812  0.4076  0.2868  1.0657
42374SOL    HW230621   5.108   5.308  10.824 -0.1037 -0.7859  0.4933
42375SOL     OW30622   4.229   4.006  10.855 -0.1045 -0.0907 -0.1270
42375SOL    HW130623   4.251   4.084  10.907 -2.6846  1.1200 -0.6769
42375SOL    HW230624   4.191   3.946  10.919  1.1429 -0.6243  0.1522
42376SOL     OW30625   2.973   2.372   7.086  0.2911  0.0754 -0.0290
42376SOL    HW130626   3.030   2.395   7.159 -0.3762 -1.9258  1.2007
42376SOL    HW230627   3.008   2.420   7.011  0.3040  3.1451  1.7994
42377SOL     OW30628  10.953   9.028   0.300  0.3132 -0.1182  0.1047
42377SOL    HW130629  10.858   9.022   0.305  0.2350 -2.6066 -2.0326
42377SOL    HW230630  10.984   8.948   0.343  1.3971  0.3514  0.2271
42378SOL     OW30631   1.131   9.732   1.956  0.1550 -0.1501 -0.1648
42378SOL    HW130632   1.037   9.734   1.973  0.3452  0.5404  0.9275
42378SOL    HW230633   1.141   9.669   1.884 -1.1322 -0.2240 -0.3066
42379SOL     OW30634   6.078   6.267   2.381  0.2476  0.6706  0.2337
42379SOL    HW130635   6.143   6.253   2.312 -0.6911 -0.2344 -0.5042
42379SOL    HW230636   6.129   6.300   2.456  1.7754 -1.1975  0.1096
42380SOL     OW30637   7.427   1.772   2.191 -0.6620  0.3642 -0.6634
42380SOL    HW130638   7.404   1.865   2.197 -1.8561  0.0079  3.3081
42380SOL    HW230639   7.352   1.726   2.228 -0.6733 -2.4195 -3.6903
42381SOL     OW30640   3.884  10.388   0.542  0.8739  0.1971  0.2471
42381SOL    HW130641   3.952  10.421   0.601  0.4144 -0.0476  0.9208
42381SOL    HW230642   3.909  10.297   0.525  0.1544 -0.2270  1.3549
42382SOL     OW30643   2.312   9.623   8.407 -0.2615  0.3009  0.4443
42382SOL    HW130644   2.219   9.644   8.419 -0.0090  1.2919  0.7184
42382SOL    HW230645   2.322   9.613   8.312 -0.3882  1.4726  0.2992
42383SOL     OW30646   2.113   9.897   0.806 -0.1116  0.1577  0.0652
42383SOL    HW130647   2.036   9.866   0.853  0.0460  1.4618  1.2650
42383SOL    HW230648   2.104   9.993   0.805  0.7743  0.2532 -1.0473
42384SOL     OW30649   9.714   5.331   0.119 -0.6473 -0.0267  0.2871
42384SOL    HW130650   9.668   5.256   0.083 -2.7526  1.3895 -0.1449
42384SOL    HW230651   9.697   5.327   0.213  0.4936 -0.8625  0.4795
42385SOL     OW30652   3.969   0.593   8.103  0.1294  0.1088  0.2917
42385SOL    HW130653   3.903   0.531   8.136  0.1086  0.4453  0.8907
42385SOL    HW230654   3.969   0.578   8.008  0.9358 -1.6088  0.5157
42386SOL     OW30655   3.610   8.246   3.412 -0.3995  0.3617  0.6645
42386SOL    HW130656   3.575   8.161   3.388  1.0729 -0.3158  0.8080
42386SOL    HW230657   3.636   8.236   3.504 -0.3866  1.0343  0.7425
42387SOL     OW30658   8.424   2.011   7.073 -0.0202  0.1949  0.2977
42387SOL    HW130659   8.433   2.102   7.102  1.6512  0.8755 -2.0432
42387SOL    HW230660   8.503   1.994   7.022  0.0225 -2.8391  1.1689
42388SOL     OW30661   8.199   3.126   9.237  0.5791 -0.4840 -0.0891
42388SOL    HW130662   8.210   3.206   9.288  0.1640 -0.3768 -0.1587
42388SOL    HW230663   8.174   3.156   9.150 -0.1340 -0.6967  0.0328
42389SOL     OW30664   8.831   8.896   6.495  0.1209  0.3361  0.0315
42389SOL    HW130665   8.895   8.875   6.563 -0.0894  1.3721  0.5711
42389SOL    HW230666   8.752   8.920   6.543 -0.0592  0.9991 -0.5700
42390SOL     OW30667   2.681   0.253   0.765 -0.3223 -0.0985  0.2230
42390SOL    HW130668   2.744   0.319   0.736 -0.5108  0.1856  0.4616
42390SOL    HW230669   2.671   0.268   0.859  0.7766 -1.4262  0.5871
42391SOL     OW30670   1.290   1.387   5.572 -0.2724  0.2913  0.6700
42391SOL    HW130671   1.248   1.301   5.584 -0.5458  0.3511  0.1502
42391SOL    HW230672   1.272   1.433   5.654 -2.4806  0.8388 -0.0605
42392SOL     OW30673   9.759   9.429   3.425 -0.0189 -0.2439 -0.0715
42392SOL    HW130674   9.795   9.370   3.491  0.1232 -0.3107 -0.2065
42392SOL    HW230675   9.807   9.511   3.437  1.5388 -0.8928 -1.4660
42393SOL     OW30676   8.620   2.039   2.381 -0.3451  0.3327 -0.0241
42393SOL    HW130677   8.603   1.997   2.297  0.8871 -0.2475 -0.0046
42393SOL    HW230678   8.621   1.966   2.444 -1.8233  0.8210  0.5967
42394SOL     OW30679   2.331  10.469   6.871  0.2409 -0.0215 -0.5474
42394SOL    HW130680   2.267  10.419   6.820 -0.6935  1.1861 -0.6229
42394SOL    HW230681   2.415  10.429   6.850 -0.3286 -0.7430 -1.5691
42395SOL     OW30682   9.001   1.892   6.675 -0.1387  0.1421 -0.4387
42395SOL    HW130683   8.918   1.849   6.653  0.0961 -0.0703 -0.9227
42395SOL    HW230684   8.984   1.985   6.659  0.1862 -0.0503 -2.1205
42396SOL     OW30685   5.706  10.198   8.489 -0.1460 -0.0025  0.5562
42396SOL    HW130686   5.717  10.286   8.454 -1.8107 -0.0468 -0.1800
42396SOL    HW230687   5.637  10.207   8.555  1.1540 -0.3975  2.0414
42397SOL     OW30688   9.871  10.735   6.723  0.3241  0.1771  0.3072
42397SOL    HW130689   9.826  10.779   6.651  1.2176  0.5254 -0.0490
42397SOL    HW230690   9.961  10.724   6.693  0.1802 -1.7678  0.4561
42398SOL     OW30691  10.737  10.351   3.980 -0.4823 -0.6818 -0.0516
42398SOL    HW130692  10.708  10.431   4.024 -0.0403 -0.8127  0.4945
42398SOL    HW230693  10.833  10.356   3.983 -0.4409 -1.6428  0.7695
42399SOL     OW30694   4.319   9.657   4.003  0.1552 -0.4809 -0.1852
42399SOL    HW130695   4.327   9.577   3.950  0.4022 -0.8940  0.4660
42399SOL    HW230696   4.333   9.627   4.093 -2.0738 -0.1185  0.3513
42400SOL     OW30697   8.120   4.593   3.391  0.0504 -0.3991  0.0759
42400SOL    HW130698   8.144   4.608   3.482 -0.8596  0.9569  0.1351
42400SOL    HW230699   8.150   4.672   3.346  0.5274 -1.0754 -0.8155
42401SOL     OW30700   0.202   8.430   6.227  0.3371 -0.0255 -0.3628
42401SOL    HW130701   0.149   8.460   6.301  0.1483 -1.9237  0.3416
42401SOL    HW230702   0.142   8.430   6.153 -0.0700 -0.1004 -0.0389
42402SOL     OW30703   4.569   5.465   5.247 -0.3882 -0.3972 -0.2377
42402SOL    HW130704   4.611   5.397   5.300  0.3739 -0.2361 -0.6086
42402SOL    HW230705   4.562   5.540   5.305  3.5242  0.9426 -1.1468
42403SOL     OW30706   7.567   9.522   1.722 -0.2041 -0.2691 -0.2601
42403SOL    HW130707   7.569   9.593   1.658  0.3684  2.0627  2.1230
42403SOL    HW230708   7.478   9.487   1.716 -0.1743 -0.1311 -2.2482
42404SOL     OW30709   1.378   8.229   4.084  0.2373 -0.2137 -0.6120
42404SOL    HW130710   1.411   8.311   4.119  0.1997  0.6708 -2.5416
42404SOL    HW230711   1.405   8.163   4.148 -1.5296  1.4749  2.0913
42405SOL     OW30712   2.911   8.684   8.719  0.1258 -0.4614 -0.5370
42405SOL    HW130713   2.851   8.643   8.657 -1.7215  0.0838  0.8262
42405SOL    HW230714   2.895   8.638   8.801 -1.9143  2.7229  1.0270
42406SOL     OW30715   7.680   0.784   0.140  0.8479  0.0423 -0.0172
42406SOL    HW130716   7.745   0.761   0.206  1.7317 -1.1664 -1.2600
42406SOL    HW230717   7.707   0.869   0.108  0.6869  0.4198  0.8129
42407SOL     OW30718   3.816  10.976   8.890  0.1055  0.0070  0.4837
42407SOL    HW130719   3.866  10.965   8.971 -0.1846  2.1918  1.0048
42407SOL    HW230720   3.876  11.017   8.829 -0.5025  1.0527  0.5591
42408SOL     OW30721   8.180   9.456   7.260 -0.3372 -0.0741  0.2901
42408SOL    HW130722   8.127   9.525   7.221  0.7268 -0.3671 -1.7947
42408SOL    HW230723   8.144   9.374   7.225  0.5270 -0.3685  0.0651
42409SOL     OW30724   6.002   0.037   8.190  0.2534  0.0440  0.1525
42409SOL    HW130725   5.955  -0.041   8.218  0.3335  0.2061  0.7488
42409SOL    HW230726   6.095   0.013   8.198  0.2789  0.2246  0.4223
42410SOL     OW30727   3.567   2.910   8.479 -0.4499  0.1951  0.2200
42410SOL    HW130728   3.562   3.004   8.496  0.0890  0.3282 -0.3283
42410SOL    HW230729   3.653   2.884   8.511 -0.3145  0.0269 -0.2677
42411SOL     OW30730   7.065   8.152   7.827  0.3846 -0.0106  0.0280
42411SOL    HW130731   7.051   8.246   7.811  0.7393  0.1427  0.5874
42411SOL    HW230732   7.052   8.142   7.921  1.1126 -0.3796  0.0963
42412SOL     OW30733   8.195   4.193   8.423 -0.1690  0.2045 -0.4166
42412SOL    HW130734   8.105   4.161   8.415  0.0604 -0.4838 -0.3263
42412SOL    HW230735   8.186   4.279   8.463 -0.6976 -0.6652  1.4620
42413SOL     OW30736   2.773   5.085  10.580 -0.2813  0.0780  0.5287
42413SOL    HW130737   2.682   5.115  10.573 -0.4347 -0.6987 -1.3652
42413SOL    HW230738   2.806   5.086  10.490  1.3213 -0.4994  1.0723
42414SOL     OW30739   8.471   3.204   9.595 -0.1319 -0.5702  0.2312
42414SOL    HW130740   8.555   3.250   9.596 -0.1226 -0.4979  2.3608
42414SOL    HW230741   8.410   3.266   9.637 -0.9672 -1.0854 -0.2056
42415SOL     OW30742   0.804   3.706   4.405 -0.1778  0.1782 -0.1451
42415SOL    HW130743   0.787   3.800   4.407 -0.4531  0.1157  1.0041
42415SOL    HW230744   0.718   3.665   4.409  0.0136 -0.1194  1.3717
42416SOL     OW30745   0.677  10.500  10.169 -0.2381  0.0161  0.1676
42416SOL    HW130746   0.673  10.414  10.211  0.1348 -1.2914 -2.3316
42416SOL    HW230747   0.770  10.516  10.154 -0.3816  0.2895 -0.4617
42417SOL     OW30748   1.198   0.606   5.285  0.1209 -0.3266 -0.1101
42417SOL    HW130749   1.231   0.548   5.354  0.4819  0.5112  0.4357
42417SOL    HW230750   1.232   0.568   5.204 -1.1700 -1.9355  0.0236
42418SOL     OW30751   7.636   6.282   9.582  0.0830 -0.3848 -0.3543
42418SOL    HW130752   7.561   6.250   9.531 -0.3624 -0.8627  0.5633
42418SOL    HW230753   7.694   6.322   9.518 -2.5547  3.2481 -0.7597
42419SOL     OW30754   9.619   8.141   1.195  0.1447  0.1281 -0.4474
42419SOL    HW130755   9.691   8.105   1.142  1.1407  1.6190 -0.1599
42419SOL    HW230756   9.662   8.204   1.253 -0.9082 -1.3558  2.0995
42420SOL     OW30757   6.257   6.899   4.971 -0.4490  0.4913 -0.5331
42420SOL    HW130758   6.277   6.957   5.044  0.4679 -1.2466  0.6489
42420SOL    HW230759   6.257   6.811   5.009 -3.0651 -0.2554 -1.9862
42421SOL     OW30760   0.241   7.646   3.854  0.2222  0.2908 -0.6799
42421SOL    HW130761   0.232   7.572   3.795 -0.2518  0.5979 -0.9887
42421SOL    HW230762   0.261   7.606   3.939 -0.2068 -0.1950 -0.8064
42422SOL     OW30763   2.584   6.378   7.059 -1.0973  0.7538 -0.4869
42422SOL    HW130764   2.501   6.411   7.025  0.0993  1.8549 -2.5405
42422SOL    HW230765   2.646   6.448   7.041  0.0100  0.6786  2.5673
42423SOL     OW30766   1.615   5.437   5.028  0.0764 -0.4061  0.3038
42423SOL    HW130767   1.523   5.411   5.034  0.0783 -0.9553 -1.2933
42423SOL    HW230768   1.616   5.507   4.963  0.7208 -0.0197  0.7216
42424SOL     OW30769   8.137   6.916   3.509  0.1432 -0.1061  0.3749
42424SOL    HW130770   8.127   6.970   3.431 -1.0234 -1.0350 -0.1362
42424SOL    HW230771   8.163   6.830   3.476 -1.6495 -0.8810  0.8647
42425SOL     OW30772  10.133   2.794  10.170 -0.7284 -0.2822 -0.2623
42425SOL    HW130773  10.207   2.845  10.202 -0.9003  0.5376 -1.1248
42425SOL    HW230774  10.145   2.707  10.208  1.2634 -0.4848 -1.2547
42426SOL     OW30775   0.666   1.603   8.668  0.1521 -0.2163  0.0125
42426SOL    HW130776   0.610   1.576   8.741  1.5864 -2.2386  0.4448
42426SOL    HW230777   0.605   1.632   8.601 -1.4322 -1.9877  0.5822
42427SOL     OW30778   6.140   5.839   6.288  0.4401 -0.3880 -0.0392
42427SOL    HW130779   6.076   5.903   6.256 -0.3540 -0.7828  0.7288
42427SOL    HW230780   6.100   5.803   6.367  1.5105 -0.8246  0.3090
42428SOL     OW30781   5.322   5.077   9.411  0.3392  0.1094  0.3146
42428SOL    HW130782   5.414   5.059   9.426  0.4179 -1.2164 -1.5205
42428SOL    HW230783   5.276   4.997   9.436 -0.2846  0.5343  0.5972
42429SOL     OW30784  10.435  10.079   2.364 -0.4465 -0.1378  0.0270
42429SOL    HW130785  10.392  10.006   2.321  1.1665 -1.1201 -0.0053
42429SOL    HW230786  10.444  10.145   2.295  1.5114 -1.4373 -1.0481
42430SOL     OW30787   1.622   0.227   6.078  0.0259  0.1033 -0.4947
42430SOL    HW130788   1.658   0.172   6.008  1.1579 -0.4421  0.4846
42430SOL    HW230789   1.583   0.301   6.032  1.3509  0.1113 -1.6892
42431SOL     OW30790   9.396   5.586   5.039  0.2586  0.8095  0.4124
42431SOL    HW130791   9.361   5.544   4.961  2.2768  0.9969 -0.6711
42431SOL    HW230792   9.340   5.663   5.053  0.1211  1.0238 -1.1347
42432SOL     OW30793   6.351   3.937   9.918 -0.3646 -0.1500  0.0401
42432SOL    HW130794   6.439   3.953   9.954 -0.9928  1.7632  0.8789
42432SOL    HW230795   6.292   3.949   9.993 -1.3513 -1.9251 -0.3811
42433SOL     OW30796  10.016   8.452   3.933 -0.1700 -0.1571 -0.5075
42433SOL    HW130797  10.058   8.515   3.992 -0.5682 -0.1381 -0.2440
42433SOL    HW230798  10.070   8.454   3.854 -0.4725  0.8943 -0.6998
42434SOL     OW30799   4.999   9.399   3.270  0.3816  0.4877 -0.0976
42434SOL    HW130800   5.007   9.306   3.251 -0.1694  0.5586 -0.7148
42434SOL    HW230801   5.005   9.405   3.365  0.1333 -0.2073 -0.0371
42435SOL     OW30802   8.817   3.898   0.080  0.1979 -0.1036  0.2159
42435SOL    HW130803   8.843   3.979   0.123 -0.3116 -0.2667  0.8518
42435SOL    HW230804   8.870   3.895   0.001 -0.1788  1.1191 -0.1006
42436SOL     OW30805   0.679   6.777   3.177 -0.0558  0.5292 -0.1798
42436SOL    HW130806   0.730   6.806   3.102 -0.9806  1.6243 -0.4089
42436SOL    HW230807   0.624   6.706   3.143  0.3005  0.2915 -0.2659
42437SOL     OW30808  10.693   6.431   3.274 -0.0706 -0.4540 -0.0019
42437SOL    HW130809  10.722   6.407   3.186 -1.1560  1.8072 -1.0604
42437SOL    HW230810  10.602   6.400   3.278 -0.2748  0.1297 -0.0009
42438SOL     OW30811   3.474   5.632   4.741 -0.2840  0.1124  0.0837
42438SOL    HW130812   3.469   5.693   4.814  0.0159  1.4249 -0.9633
42438SOL    HW230813   3.383   5.619   4.716 -0.3051  0.7782 -0.2033
42439SOL     OW30814   2.707   4.173   9.729  0.0453 -0.2013 -0.0746
42439SOL    HW130815   2.782   4.219   9.767  0.2854 -1.2102  0.7094
42439SOL    HW230816   2.635   4.236   9.734 -0.0306 -0.3902  2.4163
42440SOL     OW30817   6.781   3.973   4.917 -0.5589 -0.3972  0.2341
42440SOL    HW130818   6.823   4.031   4.979 -0.3280 -1.3744  1.0199
42440SOL    HW230819   6.772   3.890   4.963 -2.0577 -0.6333 -0.4061
42441SOL     OW30820   6.907   5.672   2.847  0.1293 -0.2528 -0.6171
42441SOL    HW130821   6.859   5.606   2.897 -0.2916 -0.5384 -1.3866
42441SOL    HW230822   6.849   5.694   2.774 -0.6297  2.4280  0.6630
42442SOL     OW30823   5.608  10.017   1.863  0.0071 -0.1527 -0.4141
42442SOL    HW130824   5.601  10.053   1.775 -1.5696  0.9092  0.0967
42442SOL    HW230825   5.521  10.029   1.901  0.6179 -0.6780  1.2582
42443SOL     OW30826   8.906   0.310   8.603 -0.7583  0.0917  0.4083
42443SOL    HW130827   8.999   0.315   8.581 -1.0999 -1.0052 -1.5827
42443SOL    HW230828   8.905   0.278   8.693  0.8447 -2.2032 -0.2776
42444SOL     OW30829   0.105  10.165   4.869 -0.4229 -0.4599 -0.0439
42444SOL    HW130830   0.054  10.169   4.950  0.4813  0.0725  0.5150
42444SOL    HW230831   0.112  10.072   4.849  1.1560 -0.7490  1.6706
42445SOL     OW30832   8.051   1.548   1.661  0.4103  0.5565 -0.9470
42445SOL    HW130833   7.987   1.601   1.709  0.6914  0.9942 -1.0518
42445SOL    HW230834   8.041   1.460   1.697  2.7643  1.3836  2.2303
42446SOL     OW30835   7.948   4.258   5.528 -0.5275  0.2723 -0.3211
42446SOL    HW130836   8.021   4.305   5.569  0.4931  0.1816 -1.9410
42446SOL    HW230837   7.885   4.326   5.507 -1.3934  0.2542  1.8950
42447SOL     OW30838   4.092   6.878   6.269 -0.1651  0.4319 -0.2154
42447SOL    HW130839   4.119   6.791   6.298  0.8001  0.9199  0.3579
42447SOL    HW230840   4.173   6.926   6.257 -0.6598  1.0647 -1.1777
42448SOL     OW30841   8.949   0.091   7.580 -0.1282  0.2872 -0.3423
42448SOL    HW130842   8.854   0.078   7.578 -0.1642  0.2947  0.7277
42448SOL    HW230843   8.967   0.121   7.669  0.9878 -0.5420 -0.2697
42449SOL     OW30844   1.239   8.498   9.177 -0.0365  0.0289 -0.1947
42449SOL    HW130845   1.286   8.569   9.221 -0.2944  1.6177 -2.3188
42449SOL    HW230846   1.231   8.429   9.243  1.1510  1.5560  1.6271
42450SOL     OW30847   5.468   2.575   7.325  0.2992 -0.1258 -0.3856
42450SOL    HW130848   5.442   2.502   7.269 -0.9795  0.2299 -0.2834
42450SOL    HW230849   5.389   2.596   7.376  0.5059  1.5762 -0.6951
42451SOL     OW30850   6.453   3.130   0.119 -0.0105 -0.5794 -0.0299
42451SOL    HW130851   6.447   3.049   0.067  1.6864  0.6381 -2.3459
42451SOL    HW230852   6.535   3.121   0.168 -0.9791 -1.1861  1.5371
42452SOL     OW30853   0.689   4.647   6.291  0.0740 -0.6413 -0.6613
42452SOL    HW130854   0.780   4.635   6.318 -0.2630  1.6202  2.0390
42452SOL    HW230855   0.669   4.738   6.316 -1.9367  0.1344 -4.4172
42453SOL     OW30856   3.553   8.312   5.525  0.1900 -0.3214  0.4243
42453SOL    HW130857   3.515   8.227   5.548 -0.6632 -0.1465 -0.2824
42453SOL    HW230858   3.644   8.292   5.501 -0.3441 -1.2454 -0.9913
42454SOL     OW30859   6.097   0.560   5.816  0.4303  0.0312  0.0616
42454SOL    HW130860   6.018   0.598   5.854  0.7561  1.2632 -0.4593
42454SOL    HW230861   6.163   0.570   5.884  0.6299  0.8450 -0.2394
42455SOL     OW30862   7.700   7.925   8.455  0.0351  0.6441 -0.1091
42455SOL    HW130863   7.665   7.904   8.368 -0.4237 -0.2670  0.2758
42455SOL    HW230864   7.770   7.861   8.469 -0.8272 -0.1470  0.7490
42456SOL     OW30865   8.673   4.766   2.845 -0.1809  0.2933 -0.3841
42456SOL    HW130866   8.675   4.845   2.899 -0.6602 -0.3968  0.6546
42456SOL    HW230867   8.750   4.716   2.872 -0.8435 -0.4147  0.2389
42457SOL     OW30868   3.033   5.903   7.476 -0.3345 -0.1145 -0.0876
42457SOL    HW130869   3.066   5.971   7.417  0.8682  0.1116  0.8223
42457SOL    HW230870   2.956   5.868   7.430 -1.0430  1.8918 -0.5515
42458SOL     OW30871   3.449   6.810   7.739  0.2097  0.7422  0.2748
42458SOL    HW130872   3.438   6.721   7.771  1.5550  0.8713  1.1980
42458SOL    HW230873   3.365   6.853   7.758 -0.5253 -0.3633 -0.3755
42459SOL     OW30874   1.371   1.757   0.110 -0.1568  0.3648  0.1814
42459SOL    HW130875   1.342   1.839   0.150 -1.9952 -0.1897  0.1113
42459SOL    HW230876   1.414   1.784   0.029 -1.5666  1.2595 -0.3197
42460SOL     OW30877   9.131   1.985   5.760 -0.0020 -0.4511  0.2598
42460SOL    HW130878   9.194   1.939   5.815  0.0775 -0.7500 -0.0796
42460SOL    HW230879   9.177   2.064   5.731  1.3709 -2.0950 -2.4661
42461SOL     OW30880   1.348  10.163  10.424 -0.2519 -0.9056 -0.2025
42461SOL    HW130881   1.429  10.117  10.401  0.1491 -0.4745  0.2992
42461SOL    HW230882   1.292  10.152  10.348  0.6228 -0.4467 -0.9378
42462SOL     OW30883   8.747   5.425   5.590  0.1745 -0.0568 -0.4683
42462SOL    HW130884   8.818   5.487   5.574 -0.3711  0.6919 -0.0522
42462SOL    HW230885   8.790   5.339   5.589  0.9438  0.3173 -1.0349
42463SOL     OW30886   3.838   1.665   5.963  0.0058  0.1946 -0.2455
42463SOL    HW130887   3.856   1.759   5.957  0.1456  0.0838 -2.2001
42463SOL    HW230888   3.900   1.633   6.029  2.9203  0.8579 -2.4014
42464SOL     OW30889   3.386   4.573  10.657 -0.3415  0.5688  0.3135
42464SOL    HW130890   3.456   4.577  10.591  0.8048  0.4130  1.4734
42464SOL    HW230891   3.373   4.480  10.672 -0.2884  0.6119  0.6256
42465SOL     OW30892   5.766   5.042  10.954 -0.2112 -0.4199 -0.0733
42465SOL    HW130893   5.828   4.974  10.979  0.3547  0.8591  2.2429
42465SOL    HW230894   5.700   5.041  11.023 -1.8931 -0.5942 -1.5996
42466SOL     OW30895   3.492   5.368   4.877  0.1369  0.4434  0.0376
42466SOL    HW130896   3.468   5.457   4.850  0.1239  0.9077  1.4916
42466SOL    HW230897   3.420   5.341   4.935  0.1458 -0.5224 -0.3880
42467SOL     OW30898   0.119   6.323  10.244  0.0551 -0.2191  0.3450
42467SOL    HW130899   0.185   6.271  10.290 -1.0522 -0.0323  2.2853
42467SOL    HW230900   0.038   6.275  10.258 -0.3600 -0.0414 -1.3335
42468SOL     OW30901   0.996   5.211   5.071 -0.2107  0.5003 -0.3306
42468SOL    HW130902   0.951   5.293   5.090  2.0309  1.3195  2.1473
42468SOL    HW230903   0.958   5.148   5.132  1.8216  1.2186  1.8406
42469SOL     OW30904   5.896   5.682   1.361  0.1202 -0.0857 -0.5258
42469SOL    HW130905   5.934   5.720   1.283 -0.9873  0.6042 -0.7449
42469SOL    HW230906   5.971   5.668   1.420  0.7567  0.8286 -1.0967
42470SOL     OW30907   8.365   8.685   0.697 -0.3766 -0.2685 -0.0678
42470SOL    HW130908   8.453   8.722   0.700 -0.0648 -0.8919 -0.9549
42470SOL    HW230909   8.310   8.751   0.738  0.4903  0.1614  0.4415
42471SOL     OW30910   5.826   0.300   3.819 -0.6171  0.4726 -0.0654
42471SOL    HW130911   5.856   0.226   3.872 -0.2905 -1.3636 -2.5927
42471SOL    HW230912   5.901   0.322   3.764 -1.4696  1.0517 -1.0433
42472SOL     OW30913  10.007   7.984   0.469  0.1440  0.4764 -0.0110
42472SOL    HW130914   9.991   8.025   0.554  0.5304 -0.5332  0.5776
42472SOL    HW230915  10.076   7.920   0.486  2.0132  1.9503 -1.6245
42473SOL     OW30916   9.206   9.580   2.525 -0.2152  0.1146 -0.0230
42473SOL    HW130917   9.233   9.610   2.612 -0.6157  1.3902 -0.3043
42473SOL    HW230918   9.288   9.571   2.477  0.0313 -0.8659  0.5449
42474SOL     OW30919   1.246   7.159   0.880  0.0530 -0.1573 -0.7482
42474SOL    HW130920   1.277   7.097   0.946 -1.1743 -1.7993 -1.6316
42474SOL    HW230921   1.287   7.130   0.799 -0.3404  0.3311 -1.1272
42475SOL     OW30922   6.219  10.974   9.316  0.0134  0.3291 -0.1508
42475SOL    HW130923   6.294  10.979   9.258 -0.4537  0.2569 -0.7758
42475SOL    HW230924   6.148  10.940   9.261 -0.6264  0.9355  0.2784
42476SOL     OW30925   2.808   3.663   1.106 -0.1975 -0.0387 -0.2754
42476SOL    HW130926   2.883   3.708   1.145 -0.9775  0.1158  1.0995
42476SOL    HW230927   2.762   3.731   1.056 -1.2672  0.7257  1.6363
42477SOL     OW30928   6.450   8.348   4.707  0.1301 -0.0614  0.4037
42477SOL    HW130929   6.532   8.299   4.710  0.2344  0.1440  0.9365
42477SOL    HW230930   6.397   8.310   4.777  0.3080  0.7605  0.9880
42478SOL     OW30931   6.193   6.647   4.283  0.6096  0.2898  0.1115
42478SOL    HW130932   6.215   6.724   4.232  0.8936 -0.5431 -1.0730
42478SOL    HW230933   6.140   6.680   4.356  2.6338  1.8675  0.9589
42479SOL     OW30934   2.125   3.430   7.572  0.6147  0.1851 -0.0096
42479SOL    HW130935   2.204   3.394   7.532  0.2296  1.2709 -1.8476
42479SOL    HW230936   2.057   3.366   7.550  0.5305  0.4610 -0.5847
42480SOL     OW30937   3.336   6.992   0.957  0.2539 -0.3064  0.5251
42480SOL    HW130938   3.322   7.048   1.034 -0.6005 -0.3063  0.3784
42480SOL    HW230939   3.426   6.961   0.967  1.2217  2.0450 -0.0233
42481SOL     OW30940   9.130   7.048   3.816 -0.1968  0.0753 -0.1104
42481SOL    HW130941   9.220   7.073   3.837 -0.1196 -0.2012 -0.1085
42481SOL    HW230942   9.107   6.983   3.883 -0.4160  0.1809 -0.0815
42482SOL     OW30943   2.674   1.241   5.940 -0.0858 -0.3895  0.4597
42482SOL    HW130944   2.626   1.302   5.997  0.1024 -1.1252  1.4329
42482SOL    HW230945   2.664   1.278   5.853 -0.2726  0.8534  0.9774
42483SOL     OW30946   6.580   8.838   7.738 -0.3905  0.5830  0.1327
42483SOL    HW130947   6.565   8.746   7.760 -0.5292  0.4293 -0.5967
42483SOL    HW230948   6.641   8.836   7.665 -0.4226  1.0702  0.0888
42484SOL     OW30949   7.814   1.726   6.056 -0.2663 -0.3985 -0.3935
42484SOL    HW130950   7.726   1.724   6.018  0.4898 -1.4576 -2.2520
42484SOL    HW230951   7.810   1.665   6.130 -1.3228  0.3130  0.1542
42485SOL     OW30952   3.286   9.210   0.431  0.3622 -0.0516 -0.5389
42485SOL    HW130953   3.339   9.245   0.503 -2.5931 -0.4961  2.0347
42485SOL    HW230954   3.285   9.116   0.446 -2.0091  0.0449  0.1720
42486SOL     OW30955   8.236   5.631  10.635  0.4278 -0.2878  0.0851
42486SOL    HW130956   8.157   5.665  10.594 -0.0098 -0.4648  0.7699
42486SOL    HW230957   8.266   5.562  10.576  0.1356 -0.1528 -0.2263
42487SOL     OW30958   0.329   2.812   9.951 -0.3711  0.2019  0.1126
42487SOL    HW130959   0.306   2.787   9.862 -0.5313  1.0406 -0.0889
42487SOL    HW230960   0.369   2.734   9.989 -0.0950 -0.0867 -0.7660
42488SOL     OW30961   2.084   8.592   7.966  0.3409 -0.0500  0.3583
42488SOL    HW130962   2.098   8.534   7.891  0.5821 -1.4744  1.4627
42488SOL    HW230963   2.171   8.611   7.998  0.1854 -1.0524  1.4319
42489SOL     OW30964   2.197   9.524   1.588  0.2499 -0.2384 -0.3137
42489SOL    HW130965   2.143   9.445   1.580 -0.4474  0.3823 -2.4172
42489SOL    HW230966   2.223   9.526   1.680 -1.2210 -1.9323  0.1999
42490SOL     OW30967   5.919   0.511   2.962 -0.3005 -0.4218 -0.0884
42490SOL    HW130968   5.851   0.548   2.905  1.8038 -1.1906 -3.4544
42490SOL    HW230969   5.918   0.566   3.040 -3.1799  1.0089 -0.9975
42491SOL     OW30970   3.660   6.095   8.048 -0.3687  0.3222  0.3540
42491SOL    HW130971   3.692   6.005   8.053  0.7023  0.6215 -0.5962
42491SOL    HW230972   3.738   6.147   8.031 -1.0795  1.3571  0.1569
42492SOL     OW30973   5.931   0.603   1.498  0.0920 -1.0628 -0.1473
42492SOL    HW130974   5.970   0.677   1.451 -0.2231 -0.7042  0.1419
42492SOL    HW230975   5.859   0.574   1.442 -1.4897  0.5614  0.9206
42493SOL     OW30976   6.935   7.816   3.467  0.3638  0.6459 -0.0375
42493SOL    HW130977   6.998   7.744   3.468 -0.5413 -0.1558  0.7142
42493SOL    HW230978   6.946   7.856   3.380  1.2450 -0.0503 -0.2633
42494SOL     OW30979   0.281   7.150  10.143  0.2989 -0.3875 -0.4785
42494SOL    HW130980   0.270   7.160  10.237  1.9228 -0.0993 -0.2899
42494SOL    HW230981   0.251   7.061  10.124  1.0166 -0.8491  0.5053
42495SOL     OW30982   4.241   9.448   2.111  0.3696  0.4040 -0.4599
42495SOL    HW130983   4.301   9.378   2.137 -2.4048 -1.2039  2.2343
42495SOL    HW230984   4.203   9.418   2.028  1.6065  0.3930 -1.0453
42496SOL     OW30985   2.208   7.042   3.283 -0.1749 -0.0884 -0.1414
42496SOL    HW130986   2.203   6.966   3.226  1.1828 -0.3146 -0.0031
42496SOL    HW230987   2.247   7.111   3.229 -0.9735  0.3767 -0.1350
42497SOL     OW30988  10.269   0.382   6.458  0.3182  0.0124 -0.3785
42497SOL    HW130989  10.181   0.346   6.469  0.4118  0.3195  1.6951
42497SOL    HW230990  10.327   0.306   6.465  0.3353  0.1159  0.7830
42498SOL     OW30991   1.539   4.675   4.522 -0.3669 -0.2077  0.1724
42498SOL    HW130992   1.456   4.663   4.476  0.6728 -2.7088 -1.2781
42498SOL    HW230993   1.604   4.632   4.466  1.9550  1.6699  1.2259
42499SOL     OW30994   3.632   7.190  10.132 -0.8646 -0.0814  0.3813
42499SOL    HW130995   3.569   7.183  10.203 -0.5015  2.3622  1.0729
42499SOL    HW230996   3.624   7.281  10.102 -1.2137 -1.0881 -2.9568
42500SOL     OW30997   0.354   3.388   4.545  0.3424  0.2715 -0.3337
42500SOL    HW130998   0.296   3.435   4.604  0.3948  0.3657 -0.3562
42500SOL    HW230999   0.312   3.304   4.532 -0.4721  0.8274 -1.4177
42501SOL     OW31000  10.538   0.536   1.556  0.0208  0.1463 -0.2183
42501SOL    HW131001  10.532   0.465   1.619  0.3337 -0.1829 -0.5505
42501SOL    HW231002  10.543   0.492   1.471  0.8883  0.5408 -0.3831
42502SOL     OW31003   6.716   1.674   1.452 -0.1805  0.0709 -0.0800
42502SOL    HW131004   6.768   1.630   1.520  0.5596  0.4272 -0.4094
42502SOL    HW231005   6.780   1.698   1.385 -0.9223 -0.3679 -0.9585
42503SOL     OW31006   9.153  10.739  10.361 -0.0822  0.2851 -0.3463
42503SOL    HW131007   9.183  10.674  10.424  0.5668  2.0987  1.3094
42503SOL    HW231008   9.057  10.740  10.371  0.0062  0.4688  0.5469
42504SOL     OW31009   5.965   4.312   8.746  0.0013 -0.2248 -0.2196
42504SOL    HW131010   6.029   4.341   8.811  0.4718 -1.2620 -0.1930
42504SOL    HW231011   5.907   4.254   8.796  0.1218 -0.7037 -0.6280
42505SOL     OW31012   7.001   8.929   4.636 -0.1964 -0.1666 -0.1639
42505SOL    HW131013   7.047   8.862   4.686 -0.3729  1.3759  2.2215
42505SOL    HW231014   6.908   8.905   4.644 -0.2994  0.5585  1.1002
42506SOL     OW31015   4.376   9.730   4.438  0.0368 -0.0163  0.7858
42506SOL    HW131016   4.398   9.670   4.367 -1.7717  1.2350 -0.9359
42506SOL    HW231017   4.320   9.678   4.497  0.2048 -0.6001  0.4406
42507SOL     OW31018   8.565   4.106   0.204  0.1127 -0.2094  0.4730
42507SOL    HW131019   8.537   4.073   0.119  0.2859  0.7925  0.0077
42507SOL    HW231020   8.560   4.201   0.195 -1.3591 -0.0975  2.1011
42508SOL     OW31021   6.496   7.136   4.369  0.3272 -0.3409  0.1612
42508SOL    HW131022   6.495   7.226   4.402 -1.0577 -0.6061  0.9272
42508SOL    HW231023   6.562   7.136   4.300 -0.1304  1.4275 -0.3193
42509SOL     OW31024   1.053   9.157   0.278  0.4922  0.2727  0.1826
42509SOL    HW131025   0.960   9.180   0.269  0.0775 -1.5938 -0.7929
42509SOL    HW231026   1.100   9.235   0.250 -0.8099  0.3998 -1.8342
42510SOL     OW31027   8.111   7.082   8.776  0.3654  0.0423 -1.1928
42510SOL    HW131028   8.039   7.121   8.726 -1.5398 -2.1178 -0.3326
42510SOL    HW231029   8.162   7.034   8.711  0.4249  0.7009 -1.6484
42511SOL     OW31030  10.121   2.550   7.451 -0.1292  0.1533  0.2333
42511SOL    HW131031  10.034   2.511   7.447 -0.2870  0.4756  0.4416
42511SOL    HW231032  10.145   2.565   7.360 -0.8636  1.2990  0.2107
42512SOL     OW31033   7.694   0.788   5.961 -0.2517 -0.4833 -0.2121
42512SOL    HW131034   7.696   0.880   5.934  2.8014  0.2356  1.9687
42512SOL    HW231035   7.767   0.748   5.914 -0.1490 -1.2423  0.5808
42513SOL     OW31036   8.298   7.075   5.220  0.5712  0.6325 -0.0542
42513SOL    HW131037   8.357   7.001   5.205 -0.1893  0.2340 -1.2230
42513SOL    HW231038   8.219   7.053   5.170 -1.4118  0.1990  2.9854
42514SOL     OW31039   8.770   1.730   2.184 -0.0330  0.0573  0.3904
42514SOL    HW131040   8.797   1.697   2.098 -2.6715 -0.4437 -0.3447
42514SOL    HW231041   8.695   1.787   2.165 -0.5864  0.0349  2.3479
42515SOL     OW31042   4.873   4.504   4.789  0.1932  0.4113 -0.0526
42515SOL    HW131043   4.841   4.482   4.701 -0.2401 -1.9875  0.6398
42515SOL    HW231044   4.948   4.445   4.802 -2.9163 -3.3893  3.1178
42516SOL     OW31045   5.416   7.986   9.577  0.1229 -0.3166 -0.3715
42516SOL    HW131046   5.461   7.903   9.590 -1.6193 -1.1214  1.0432
42516SOL    HW231047   5.431   8.034   9.658 -2.1707 -0.9820  0.5403
42517SOL     OW31048   0.181   4.293   3.438  0.8498  0.3749 -0.5184
42517SOL    HW131049   0.094   4.268   3.408  1.3863 -0.1126 -1.7188
42517SOL    HW231050   0.235   4.215   3.423  1.0801 -0.0909  2.1729
42518SOL     OW31051   2.988   3.890   1.194  0.2169  0.1707 -0.3530
42518SOL    HW131052   2.919   3.947   1.227  0.6695 -0.1035  1.1504
42518SOL    HW231053   3.065   3.912   1.247  1.0641 -0.1358 -1.4028
42519SOL     OW31054   9.874   1.523  10.748  0.1171  0.3253 -0.3358
42519SOL    HW131055   9.961   1.487  10.735  0.1356  0.2901 -0.1150
42519SOL    HW231056   9.882   1.577  10.827 -0.4683 -1.0507  0.7090
42520SOL     OW31057   8.160   0.096   2.107  0.3785  0.2112 -0.2067
42520SOL    HW131058   8.212   0.104   2.187 -1.1778  2.0997  0.7075
42520SOL    HW231059   8.167   0.182   2.066  1.1160 -0.7146 -2.1338
42521SOL     OW31060   8.975   9.101   5.686  0.2124  0.3317 -0.3251
42521SOL    HW131061   8.996   9.195   5.691  0.9962  0.2461 -1.4817
42521SOL    HW231062   8.880   9.097   5.693  0.2603  1.1113  0.9238
42522SOL     OW31063   0.071   4.822   6.202  0.0397  0.0644 -0.2373
42522SOL    HW131064   0.075   4.849   6.110 -0.7233 -0.9372 -0.5864
42522SOL    HW231065   0.120   4.739   6.204  2.8098  1.5807  0.9127
42523SOL     OW31066   4.813   3.724   4.213  0.2250 -0.3482  0.2827
42523SOL    HW131067   4.719   3.743   4.210  0.4584  0.8901  0.0406
42523SOL    HW231068   4.842   3.760   4.297  0.2437 -2.0502  1.0437
42524SOL     OW31069   8.345   4.397   7.564 -0.5047  0.0494  0.5679
42524SOL    HW131070   8.417   4.334   7.571 -0.7362 -0.9753 -3.6944
42524SOL    HW231071   8.388   4.482   7.560  0.3496 -0.4098 -0.2673
42525SOL     OW31072   6.182   9.671   8.174  0.3369 -0.0303 -0.8942
42525SOL    HW131073   6.216   9.719   8.099  0.9200 -1.2755 -1.4637
42525SOL    HW231074   6.139   9.737   8.228  0.2982  0.9641 -2.0981
42526SOL     OW31075   4.794   1.970  10.486  0.5581 -0.2694 -0.1888
42526SOL    HW131076   4.831   1.969  10.398 -1.5492  0.2949 -1.1448
42526SOL    HW231077   4.838   1.898  10.531  1.6906 -0.5600 -1.6773
42527SOL     OW31078   3.113   2.353   2.224 -0.3249 -0.2490  0.0889
42527SOL    HW131079   3.131   2.423   2.161  0.0059 -1.0376 -0.7232
42527SOL    HW231080   3.179   2.286   2.205 -1.4966 -1.3904 -0.1183
42528SOL     OW31081   3.775   8.347  10.559 -0.3601 -0.1028 -0.2109
42528SOL    HW131082   3.808   8.293  10.630  0.6030  1.1023  0.3015
42528SOL    HW231083   3.680   8.349  10.572 -0.5822 -2.4985 -0.8975
42529SOL     OW31084   7.903   5.887   4.381  0.0672 -0.1243  0.0719
42529SOL    HW131085   7.922   5.975   4.347  0.2059 -0.3870 -0.5569
42529SOL    HW231086   7.893   5.899   4.475 -0.9357  0.7367 -0.1209
42530SOL     OW31087  10.088   6.850   9.345 -0.1546  0.4279  0.4771
42530SOL    HW131088  10.145   6.779   9.315  1.2271  1.2236  1.0969
42530SOL    HW231089  10.121   6.927   9.300 -0.9526  0.8596  0.6175
42531SOL     OW31090   6.262   9.694   2.567  0.0219 -0.0606 -0.2030
42531SOL    HW131091   6.195   9.761   2.577 -1.3633 -1.2286 -1.2381
42531SOL    HW231092   6.326   9.713   2.637 -0.7997  1.7339  0.1024
42532SOL     OW31093   6.213   8.104   6.610 -0.3855  0.0448 -0.4291
42532SOL    HW131094   6.295   8.096   6.561 -1.0588  2.6185 -2.1961
42532SOL    HW231095   6.240   8.118   6.700  1.0004 -1.4369 -0.5668
42533SOL     OW31096  11.009   8.690   6.638  0.3105  0.2505  0.4983
42533SOL    HW131097  11.076   8.757   6.653  1.5190 -0.6777 -0.5407
42533SOL    HW231098  11.012   8.634   6.715  0.9227  0.0633  0.3412
42534SOL     OW31099   6.016   6.427   9.155 -0.2566  0.0138  0.4545
42534SOL    HW131100   5.931   6.392   9.126 -2.2848  1.9714  3.3930
42534SOL    HW231101   6.052   6.358   9.212 -0.2310 -0.5219 -0.2011
42535SOL     OW31102   9.537   1.461  10.862 -0.0686 -0.1317 -0.6056
42535SOL    HW131103   9.607   1.526  10.861 -0.0330 -0.0441  1.5357
42535SOL    HW231104   9.457   1.511  10.845 -0.1086  0.6699  1.5139
42536SOL     OW31105   0.332   4.839   2.820 -0.2366 -0.0999 -0.4742
42536SOL    HW131106   0.386   4.888   2.881 -0.5501  0.5854 -0.7361
42536SOL    HW231107   0.329   4.750   2.856  2.3093 -0.5768 -1.2319
42537SOL     OW31108   3.454   3.897   1.531 -0.0056 -0.7152  0.3445
42537SOL    HW131109   3.541   3.896   1.492  0.0456 -1.3663  0.4710
42537SOL    HW231110   3.395   3.879   1.457 -0.1598  1.0498 -0.0141
42538SOL     OW31111   5.446   1.449  10.424 -0.4779  1.1190 -0.1507
42538SOL    HW131112   5.483   1.460  10.336  0.9368  0.5204  0.3425
42538SOL    HW231113   5.436   1.538  10.457 -0.3080  1.3168 -0.6237
42539SOL     OW31114  10.711   8.994   9.263 -0.0558 -0.6498  0.5874
42539SOL    HW131115  10.745   8.994   9.353 -0.5212  1.5399  0.8305
42539SOL    HW231116  10.624   8.955   9.271  0.2046 -1.1776  0.9379
42540SOL     OW31117   5.423   5.405   3.242 -0.5466  0.2087  0.0105
42540SOL    HW131118   5.519   5.404   3.237 -0.5846  0.2430 -0.8883
42540SOL    HW231119   5.398   5.314   3.231 -0.6300  0.2429 -0.0796
42541SOL     OW31120   8.942   2.280   0.131 -0.2020 -0.1021  0.0337
42541SOL    HW131121   8.974   2.358   0.086 -1.4618  1.5086  1.8223
42541SOL    HW231122   8.851   2.298   0.152 -0.3345 -1.7528  1.1493
42542SOL     OW31123   5.319   9.474   1.776 -0.1219  0.6258 -0.0820
42542SOL    HW131124   5.260   9.523   1.833 -1.5871 -0.1853 -0.8318
42542SOL    HW231125   5.302   9.382   1.796 -0.5495  0.3299 -1.6668
42543SOL     OW31126   0.997  10.151   5.191 -0.4014 -0.0077  0.3770
42543SOL    HW131127   1.033  10.146   5.103 -0.6579  0.5068  0.2372
42543SOL    HW231128   0.934  10.079   5.196 -0.9472  0.4186 -0.1315
42544SOL     OW31129   0.954   8.470   8.700 -0.3625 -0.4535 -0.5830
42544SOL    HW131130   0.926   8.383   8.673  0.2627 -1.1399  0.8778
42544SOL    HW231131   0.949   8.469   8.796  0.3439  0.8735 -0.4983
42545SOL     OW31132   6.965   6.691   0.759 -0.5146 -0.5125  0.0313
42545SOL    HW131133   7.006   6.758   0.704 -1.0783 -1.4980 -1.6374
42545SOL    HW231134   6.877   6.681   0.724 -0.7019 -1.5701  0.7564
42546SOL     OW31135   9.550   7.933   5.657 -0.3262  0.6341 -0.5502
42546SOL    HW131136   9.525   8.019   5.689  0.4784  0.2342  1.2716
42546SOL    HW231137   9.596   7.892   5.730 -0.4996 -1.2683 -1.4393
42547SOL     OW31138  10.562   3.248   2.033 -0.5082  0.3601  0.1073
42547SOL    HW131139  10.643   3.231   2.081 -0.7665 -0.6710  0.2010
42547SOL    HW231140  10.499   3.276   2.100  0.1184  2.5902 -0.1395
42548SOL     OW31141   8.254  10.716   1.924  0.2076 -0.0771  0.2427
42548SOL    HW131142   8.332  10.740   1.874 -0.5554  0.9723 -0.4665
42548SOL    HW231143   8.186  10.704   1.858 -0.9816  1.9435  1.0115
42549SOL     OW31144  10.271   2.434   2.246 -0.3538 -0.5433  0.2344
42549SOL    HW131145  10.356   2.435   2.290  0.8155  0.6489 -1.8840
42549SOL    HW231146  10.219   2.499   2.294  0.9416  0.8502 -0.1452
42550SOL     OW31147   7.583   6.936   2.824  0.1633  0.0892 -0.0695
42550SOL    HW131148   7.659   6.989   2.850  1.7976 -0.8094 -2.6317
42550SOL    HW231149   7.542   6.986   2.754  0.3494 -0.9547 -0.9319
42551SOL     OW31150   7.502   3.724   8.011  0.3153  0.0186 -0.2107
42551SOL    HW131151   7.545   3.783   8.072 -0.4258 -0.6445  0.9762
42551SOL    HW231152   7.563   3.718   7.937  2.2687 -0.8094  1.3646
42552SOL     OW31153   1.600   2.884   1.465  0.0152  0.1013 -0.2071
42552SOL    HW131154   1.555   2.865   1.383  2.8039 -2.1393 -1.4029
42552SOL    HW231155   1.672   2.941   1.440  0.1052  0.5241  0.9459
42553SOL     OW31156  10.346   8.435   7.649 -0.2266 -0.1745 -0.3235
42553SOL    HW131157  10.260   8.411   7.613 -0.2216  0.8646 -1.0778
42553SOL    HW231158  10.394   8.470   7.574  0.7408 -0.4216  0.1704
42554SOL     OW31159   4.880   7.593   7.672  0.5343 -0.5228 -0.0435
42554SOL    HW131160   4.924   7.543   7.603  1.6160 -1.7866  1.4862
42554SOL    HW231161   4.928   7.675   7.677 -0.3724  0.1515 -1.6294
42555SOL     OW31162   1.827   4.758   9.654  0.1115  0.2213  0.7072
42555SOL    HW131163   1.880   4.687   9.619  0.7378  0.2376  1.6036
42555SOL    HW231164   1.737   4.727   9.646  0.3653 -0.5626  0.8472
42556SOL     OW31165   5.835   1.994   3.649 -0.2200  0.1673  0.1591
42556SOL    HW131166   5.816   1.907   3.684  3.1550 -1.2022 -1.0106
42556SOL    HW231167   5.825   1.985   3.554  0.8766  0.8293 -0.0357
42557SOL     OW31168   4.482   0.714   7.192  0.2201  0.1085 -0.2478
42557SOL    HW131169   4.523   0.689   7.275  0.8966  1.9049 -0.0026
42557SOL    HW231170   4.555   0.742   7.136 -0.2786 -0.6264 -1.2906
42558SOL     OW31171   4.870   0.929   4.618  0.2246  0.7484 -0.7201
42558SOL    HW131172   4.965   0.940   4.627  0.3404 -0.8156  0.4170
42558SOL    HW231173   4.833   1.012   4.647  1.1994  0.7443  0.6380
42559SOL     OW31174   6.663   3.688   6.392  0.0077 -0.0164 -0.1278
42559SOL    HW131175   6.675   3.772   6.348  1.4750 -0.7213 -1.1588
42559SOL    HW231176   6.711   3.625   6.337 -0.4194 -1.3971  1.0246
42560SOL     OW31177   3.018   3.879   2.369  0.0174 -0.5059 -0.0769
42560SOL    HW131178   3.011   3.783   2.372 -0.5635 -0.4824 -0.4874
42560SOL    HW231179   3.085   3.900   2.435  1.0010 -1.2689 -0.7998
42561SOL     OW31180   1.064   9.148   7.133  0.2884 -0.1720 -0.2677
42561SOL    HW131181   1.086   9.060   7.102  3.4080 -0.2571  1.6822
42561SOL    HW231182   0.999   9.134   7.202 -0.3803 -0.7538 -1.0006
42562SOL     OW31183   1.637   3.631   3.254  0.2384 -0.3588 -0.5942
42562SOL    HW131184   1.614   3.608   3.164  0.7388 -1.9638 -0.3377
42562SOL    HW231185   1.573   3.584   3.308 -0.1287  0.6830 -0.0896
42563SOL     OW31186   4.268   1.430   6.336 -0.5462 -0.9844 -0.3027
42563SOL    HW131187   4.306   1.480   6.408  1.8508 -1.9901 -0.7568
42563SOL    HW231188   4.285   1.484   6.259  0.2652 -1.5549 -0.5406
42564SOL     OW31189   4.922   4.419   3.665  0.2126 -0.1162  0.8835
42564SOL    HW131190   4.938   4.442   3.757  1.0070 -1.7024  1.1784
42564SOL    HW231191   5.008   4.400   3.630 -0.0781  0.5932 -0.2526
42565SOL     OW31192   3.833   1.488   4.997 -0.3510 -0.1485 -0.7247
42565SOL    HW131193   3.766   1.468   4.932 -1.9497  1.3889  0.3681
42565SOL    HW231194   3.849   1.582   4.988  0.4283 -0.1728  0.1740
42566SOL     OW31195  10.080   2.464   6.687 -0.5521  0.4934  0.5581
42566SOL    HW131196   9.990   2.433   6.675 -0.3675 -0.1979  0.8792
42566SOL    HW231197  10.078   2.557   6.664 -1.5971  0.7670  1.6714
42567SOL     OW31198   8.710   9.106   0.287  0.2870  0.8535  0.3443
42567SOL    HW131199   8.646   9.083   0.355  2.8811  0.8138  2.9962
42567SOL    HW231200   8.668   9.083   0.205 -2.5509 -0.3881  2.0045
42568SOL     OW31201   9.120   6.020   2.790  0.3512  0.6041 -0.8583
42568SOL    HW131202   9.201   5.978   2.818 -1.2390 -1.5261  0.9645
42568SOL    HW231203   9.058   5.947   2.782 -1.3438  2.1407 -2.3407
42569SOL     OW31204   0.688   1.885   2.484  0.3368 -0.0536 -0.0813
42569SOL    HW131205   0.756   1.870   2.550 -0.8018 -1.6486  0.8031
42569SOL    HW231206   0.697   1.978   2.461  1.2796  0.3517  1.7363
42570SOL     OW31207   3.658   7.252   2.340 -0.5212  0.0836 -0.1993
42570SOL    HW131208   3.590   7.280   2.401  0.1385  1.7039 -0.1723
42570SOL    HW231209   3.677   7.162   2.365 -1.5883  0.1022  0.7571
42571SOL     OW31210   4.792   7.566   2.120 -0.0759  0.4374 -0.0310
42571SOL    HW131211   4.706   7.565   2.078  0.3325  0.9159 -0.8940
42571SOL    HW231212   4.801   7.655   2.154 -0.0882  0.2698  0.4164
42572SOL     OW31213   7.137   7.449   8.765 -0.2411 -0.0746 -0.6736
42572SOL    HW131214   7.071   7.511   8.795 -1.0248 -1.8479  1.5694
42572SOL    HW231215   7.117   7.435   8.672 -2.0769  0.5900 -0.4215
42573SOL     OW31216   2.668   5.642   9.474  1.1266  0.3458  0.2004
42573SOL    HW131217   2.623   5.573   9.522  2.9793 -0.2633  1.1792
42573SOL    HW231218   2.684   5.605   9.387  1.7047 -0.3149  0.5743
42574SOL     OW31219   2.717  10.641   6.582 -0.3940 -0.0987 -0.0757
42574SOL    HW131220   2.771  10.693   6.642  2.3876 -3.0484  0.2583
42574SOL    HW231221   2.775  10.625   6.507 -1.6694 -1.4822 -0.8049
42575SOL     OW31222  10.129   5.610   0.699  0.3616  0.5792  0.0206
42575SOL    HW131223  10.166   5.615   0.787  0.9892 -0.8858 -0.1341
42575SOL    HW231224  10.204   5.617   0.640  0.1024  0.2372 -0.3620
42576SOL     OW31225   6.763  10.059   2.464  0.0173  0.1218  0.0199
42576SOL    HW131226   6.696   9.991   2.472 -0.3659  0.4291 -0.5459
42576SOL    HW231227   6.769  10.076   2.370 -0.9932  1.9529  0.2395
42577SOL     OW31228   6.998   4.187   9.627  0.1246 -0.0943 -0.0821
42577SOL    HW131229   6.973   4.147   9.710 -1.9037  0.8560 -0.1681
42577SOL    HW231230   6.973   4.123   9.560 -0.2982  0.0505 -0.0649
42578SOL     OW31231   5.283   2.565   3.657  0.3818 -0.3642  0.3717
42578SOL    HW131232   5.222   2.572   3.584  0.5783 -0.2624  0.2173
42578SOL    HW231233   5.370   2.561   3.616  0.4012 -2.0551  0.4983
42579SOL     OW31234   8.595   6.893   0.224 -0.3616  0.3779 -0.3738
42579SOL    HW131235   8.556   6.948   0.292  0.6448 -0.5607  0.9976
42579SOL    HW231236   8.531   6.824   0.209 -1.1799  1.3054 -1.3862
42580SOL     OW31237   2.989   5.703   5.855  0.4434 -0.3266 -0.4950
42580SOL    HW131238   2.937   5.778   5.828 -1.3499 -1.1080  0.5847
42580SOL    HW231239   2.961   5.632   5.796  0.7499 -0.5932 -0.3243
42581SOL     OW31240   7.238   0.701   3.757 -0.0262 -0.4346  0.1357
42581SOL    HW131241   7.324   0.665   3.737 -0.7192 -1.4070 -1.3763
42581SOL    HW231242   7.239   0.788   3.717  0.4891 -0.1655  0.7339
42582SOL     OW31243   2.335   0.677   2.792  0.2280 -0.0180 -0.6126
42582SOL    HW131244   2.266   0.618   2.761  0.8082 -0.1752 -1.6391
42582SOL    HW231245   2.405   0.668   2.727  0.8942  0.7412 -0.0130
42583SOL     OW31246   9.807   5.719   7.205 -0.5315  0.3463 -0.1079
42583SOL    HW131247   9.782   5.696   7.115  0.1841  1.5637 -0.6481
42583SOL    HW231248   9.738   5.777   7.235 -0.5470  0.2880 -0.0325
42584SOL     OW31249   5.633   4.680   5.799 -0.7256  0.0800 -0.5311
42584SOL    HW131250   5.637   4.756   5.857  0.3005  0.1273 -0.6387
42584SOL    HW231251   5.600   4.610   5.855 -0.9017  0.4151 -0.2111
42585SOL     OW31252  10.277   9.863   3.841  0.3293 -0.1141 -0.0906
42585SOL    HW131253  10.333   9.786   3.831 -1.0785 -1.1260 -0.4719
42585SOL    HW231254  10.251   9.884   3.751 -2.7137 -1.8674  0.2578
42586SOL     OW31255   5.149   3.236   7.879 -0.1445 -0.0714  0.0244
42586SOL    HW131256   5.116   3.203   7.962  0.3870 -0.5269  0.0587
42586SOL    HW231257   5.216   3.173   7.853  1.3606  1.3130  0.3988
42587SOL     OW31258  10.797   0.432   5.529 -0.2592  0.2763 -0.5075
42587SOL    HW131259  10.836   0.476   5.454  0.8658  0.7682  0.3270
42587SOL    HW231260  10.871   0.391   5.574 -0.8575  0.2842  0.5194
42588SOL     OW31261   8.489   4.055   0.464 -0.0471 -0.2631 -0.7014
42588SOL    HW131262   8.570   4.094   0.498 -1.3976  1.7206  0.4534
42588SOL    HW231263   8.500   4.057   0.369  1.0918  0.3057 -0.5827
42589SOL     OW31264   6.876   3.573   5.525 -0.3603  0.1020  0.4073
42589SOL    HW131265   6.901   3.659   5.492 -0.5886  0.3506  0.8846
42589SOL    HW231266   6.799   3.589   5.579 -0.0703 -0.3197  0.9515
42590SOL     OW31267   8.177   6.457   3.907 -0.0760  0.5550  0.3035
42590SOL    HW131268   8.115   6.441   3.835 -1.4113  0.2587  1.4705
42590SOL    HW231269   8.175   6.551   3.920 -1.0092  0.4586  0.9349
42591SOL     OW31270   5.098   4.124   7.581 -0.2011  0.1760  0.8699
42591SOL    HW131271   5.024   4.168   7.540  0.2618  0.6682  0.5625
42591SOL    HW231272   5.149   4.194   7.622  0.0163 -0.1760  1.2091
42592SOL     OW31273   0.935   0.948   4.174 -0.4298 -0.1298 -0.3296
42592SOL    HW131274   0.879   0.970   4.100  1.8926 -0.4531 -2.3269
42592SOL    HW231275   0.941   1.029   4.225 -1.0215  0.4823 -1.2146
42593SOL     OW31276   6.657   4.224   5.171 -0.4607  0.6766 -0.0034
42593SOL    HW131277   6.635   4.189   5.085  0.1477  2.5459 -0.9652
42593SOL    HW231278   6.752   4.235   5.169 -0.2180 -0.7032  1.5134
42594SOL     OW31279   2.665   9.071   9.570  0.0909  0.2933 -0.1519
42594SOL    HW131280   2.642   9.026   9.651  0.2733  1.6511  0.6911
42594SOL    HW231281   2.583   9.113   9.542 -0.6431 -2.1645 -2.0902
42595SOL     OW31282   4.539   6.115   3.164 -0.3038  0.2731  0.3988
42595SOL    HW131283   4.537   6.097   3.070  3.0652 -1.7385  0.5403
42595SOL    HW231284   4.558   6.208   3.171 -2.7440  0.9329 -0.7879
42596SOL     OW31285   9.273   6.333   7.915  0.5027  0.2678  0.2485
42596SOL    HW131286   9.235   6.375   7.837 -0.1450 -0.3739  0.2010
42596SOL    HW231287   9.360   6.306   7.888  0.1783 -0.1988 -0.3557
42597SOL     OW31288  10.802   0.608   6.643  0.4279  0.8315  0.1329
42597SOL    HW131289  10.850   0.560   6.710 -0.1211 -1.1118 -0.7796
42597SOL    HW231290  10.850   0.591   6.562 -0.7059  0.3877 -0.4791
42598SOL     OW31291   3.465   4.790   1.888  0.5247  0.2865  0.3576
42598SOL    HW131292   3.496   4.771   1.799  2.0452 -0.7203  1.0771
42598SOL    HW231293   3.542   4.781   1.944 -0.0500  2.4141  1.6340
42599SOL     OW31294   3.951  10.077   3.399 -0.2800  0.7498 -0.1129
42599SOL    HW131295   4.023  10.125   3.441  0.7835 -0.0261 -0.9933
42599SOL    HW231296   3.987  10.049   3.315 -0.7988 -1.7028  0.4084
42600SOL     OW31297   1.738   0.853   0.626 -0.0434  0.4886  0.0233
42600SOL    HW131298   1.825   0.873   0.590  0.5715 -0.4552  0.9449
42600SOL    HW231299   1.680   0.915   0.582  1.0555  0.9888 -0.7820
42601SOL     OW31300   3.210   2.300   8.387 -0.4399 -0.1159  0.0817
42601SOL    HW131301   3.231   2.214   8.352 -0.5359  0.2781 -0.9854
42601SOL    HW231302   3.255   2.303   8.471  0.2959 -0.8750 -0.2701
42602SOL     OW31303   9.479   6.791   8.372  0.2500  0.5963 -0.6549
42602SOL    HW131304   9.546   6.821   8.311  1.1979 -0.7916 -0.3586
42602SOL    HW231305   9.439   6.716   8.329 -0.3664  0.7498 -0.3558
42603SOL     OW31306   8.270   3.329   1.643 -0.3558  0.8845  0.3962
42603SOL    HW131307   8.333   3.283   1.587 -1.9915  0.9702 -1.6094
42603SOL    HW231308   8.286   3.422   1.626 -0.5256  0.9250  0.4575
42604SOL     OW31309   1.224  10.415  10.138 -0.1061  0.1583  0.2082
42604SOL    HW131310   1.248  10.330  10.102  0.5259  0.3814  0.1013
42604SOL    HW231311   1.161  10.394  10.208 -0.6599 -0.3298 -0.4174
42605SOL     OW31312   8.852   1.068   5.039 -0.2416  0.2120  0.4015
42605SOL    HW131313   8.819   1.001   5.099 -1.6610  0.9551  0.5081
42605SOL    HW231314   8.797   1.144   5.057  2.5198  2.0991  1.6488
42606SOL     OW31315  10.322   9.244   3.918  0.4119  0.0153  0.3951
42606SOL    HW131316  10.229   9.224   3.927  0.4834 -0.2063  0.6681
42606SOL    HW231317  10.352   9.259   4.008  0.4825  0.8146  0.2472
42607SOL     OW31318   6.978   1.406   7.779 -0.1549 -0.3456  0.0776
42607SOL    HW131319   7.045   1.453   7.730  0.0217 -1.6735 -1.0080
42607SOL    HW231320   6.972   1.453   7.863  2.3148 -0.3532  0.3304
42608SOL     OW31321   9.528   0.306   3.840 -0.2185 -0.6317  0.1788
42608SOL    HW131322   9.571   0.372   3.785  0.8547 -2.0222 -0.7254
42608SOL    HW231323   9.440   0.299   3.804 -1.0538  1.6618  1.5354
42609SOL     OW31324   0.143   4.323   7.942  0.2968  0.0158  0.0726
42609SOL    HW131325   0.125   4.406   7.987 -0.0053 -0.8049  1.5214
42609SOL    HW231326   0.167   4.349   7.853 -2.2103  1.5229 -0.2411
42610SOL     OW31327   1.666   6.393   9.436 -0.0559 -0.0910  0.2364
42610SOL    HW131328   1.751   6.378   9.477  0.8490 -0.5431 -1.6764
42610SOL    HW231329   1.603   6.358   9.498  1.1103  0.4533  1.8058
42611SOL     OW31330   0.669   5.690   9.243  0.1501 -0.0179  0.3011
42611SOL    HW131331   0.764   5.704   9.246  0.7021 -2.3231 -1.9849
42611SOL    HW231332   0.635   5.735   9.320  3.0673  1.0612  1.0870
42612SOL     OW31333   3.570  10.112   9.012  0.4115 -0.0988 -0.4156
42612SOL    HW131334   3.637  10.175   9.039  0.5453 -0.1239 -0.6892
42612SOL    HW231335   3.560  10.054   9.088  1.2772 -0.5865 -0.6656
42613SOL     OW31336   0.943   1.213  10.758 -0.2445 -0.1118 -0.2115
42613SOL    HW131337   0.899   1.296  10.775  1.7976  1.5357 -2.2289
42613SOL    HW231338   1.001   1.232  10.684  1.4979 -2.9386  0.2842
42614SOL     OW31339   4.153   6.022  10.114 -0.3701  0.3788 -0.0957
42614SOL    HW131340   4.134   6.110  10.080 -0.1156  1.1633  1.6621
42614SOL    HW231341   4.108   6.019  10.198  1.2333 -0.4530  0.7725
42615SOL     OW31342  10.882  10.328   0.624  0.3139 -0.5189  0.6520
42615SOL    HW131343  10.860  10.245   0.582  0.8829 -0.1997 -0.3144
42615SOL    HW231344  10.807  10.347   0.681  0.9293 -2.5368  2.2416
42616SOL     OW31345   2.103   0.946   3.191  0.2691  0.3204  0.1254
42616SOL    HW131346   2.043   0.882   3.229  1.5328 -2.7081 -2.5023
42616SOL    HW231347   2.082   1.028   3.235 -3.8122 -1.1357  1.3270
42617SOL     OW31348  10.194   5.857  10.505 -0.1526  0.0616  0.0179
42617SOL    HW131349  10.265   5.820  10.453 -0.1546  1.1033 -0.7721
42617SOL    HW231350  10.128   5.882  10.441 -1.2315 -0.8503  0.7398
42618SOL     OW31351   7.743   1.831   4.917 -0.4947  0.4903 -0.0142
42618SOL    HW131352   7.803   1.799   4.984 -2.3119 -1.0409  0.9905
42618SOL    HW231353   7.727   1.755   4.860 -4.2859 -0.4242  1.9517
42619SOL     OW31354   1.109   1.157   3.622  0.1917  0.5115 -0.0671
42619SOL    HW131355   1.101   1.252   3.617 -0.6667  0.6147  2.2750
42619SOL    HW231356   1.195   1.142   3.660 -0.6586  0.5011  1.9679
42620SOL     OW31357   1.158   4.426   2.882 -0.1127 -0.7899 -0.4042
42620SOL    HW131358   1.182   4.359   2.817  0.5809  0.5458 -1.5835
42620SOL    HW231359   1.226   4.419   2.949  0.5520 -0.5748 -1.0487
42621SOL     OW31360   7.410   0.509   7.643 -0.2678  0.0024 -0.4488
42621SOL    HW131361   7.424   0.493   7.550  0.9806  1.4186 -0.5459
42621SOL    HW231362   7.445   0.597   7.658  1.6115 -0.9831  1.7640
42622SOL     OW31363  10.541   1.674   0.589 -0.2099  0.1042 -0.4267
42622SOL    HW131364  10.515   1.606   0.652  0.1494 -1.0376 -1.4669
42622SOL    HW231365  10.470   1.676   0.525 -0.2052  0.7080 -0.4166
42623SOL     OW31366  10.015   7.036  10.930  0.0880  0.7208 -0.6729
42623SOL    HW131367  10.063   6.995  11.002 -2.0626  0.3095  0.6137
42623SOL    HW231368  10.014   7.129  10.952 -1.0330  0.5279  0.1623
42624SOL     OW31369   7.059   5.636   6.363  0.0432 -0.0334 -0.1158
42624SOL    HW131370   6.965   5.649   6.376 -0.4950 -3.1064 -0.0232
42624SOL    HW231371   7.072   5.643   6.269 -0.0044  1.5427 -0.0332
42625SOL     OW31372   9.988  10.005   3.791  0.5401 -0.3441  0.4457
42625SOL    HW131373  10.024  10.005   3.702  0.9745  1.9736  0.5477
42625SOL    HW231374   9.922  10.075   3.789  0.1523 -0.6536  1.7975
42626SOL     OW31375   4.948   2.174   5.706 -0.0706 -0.1010 -0.6699
42626SOL    HW131376   4.882   2.125   5.657 -0.6990  0.4506 -0.3804
42626SOL    HW231377   4.908   2.259   5.723 -0.3894 -0.6750  1.9075
42627SOL     OW31378   0.545   2.486   4.032  0.0896  0.4540  0.0118
42627SOL    HW131379   0.453   2.469   4.007  0.6920  0.9684 -2.9528
42627SOL    HW231380   0.589   2.403   4.016  0.3416  0.4995  0.4578
42628SOL     OW31381   3.961   5.866   4.893  0.5887 -0.0840  0.0125
42628SOL    HW131382   3.985   5.846   4.984 -0.6507 -0.3694  0.2982
42628SOL    HW231383   3.940   5.959   4.893  1.4000  0.1053 -0.1779
42629SOL     OW31384   1.370   0.553   2.064  0.3308  0.5267  0.5710
42629SOL    HW131385   1.456   0.526   2.033 -0.5161  0.3737 -1.8256
42629SOL    HW231386   1.371   0.648   2.058 -0.4065  0.4454 -1.8043
42630SOL     OW31387   1.238   6.837   0.339  0.9654 -0.3136 -0.1318
42630SOL    HW131388   1.330   6.863   0.340  0.8036  0.2776 -0.3066
42630SOL    HW231389   1.190   6.920   0.335  0.3814 -0.5094  1.7937
42631SOL     OW31390  10.849   1.683   6.739  0.0269  0.1351  0.2056
42631SOL    HW131391  10.762   1.656   6.710  0.9137 -1.2879 -1.3034
42631SOL    HW231392  10.862   1.635   6.822 -0.3593 -0.1767  0.0912
42632SOL     OW31393   8.247   1.404   6.077  0.2655  0.5631  0.2801
42632SOL    HW131394   8.315   1.415   6.144  0.2121  0.3523  0.3693
42632SOL    HW231395   8.256   1.482   6.021  2.5337 -0.8070 -1.4655
42633SOL     OW31396   0.752   5.606   2.285  0.0745  0.1620 -0.2911
42633SOL    HW131397   0.785   5.552   2.213 -0.5487 -0.3495 -0.2042
42633SOL    HW231398   0.684   5.552   2.326  1.5584 -0.2792  1.7627
42634SOL     OW31399   2.274   2.598   5.251  0.1673 -0.4594  0.2138
42634SOL    HW131400   2.221   2.519   5.266 -0.5281  0.1467  0.9975
42634SOL    HW231401   2.363   2.565   5.240 -0.1892 -1.3980  0.0421
42635SOL     OW31402   5.412   0.069  10.782  0.1224  0.5600  0.0373
42635SOL    HW131403   5.433   0.130  10.853 -1.4941 -0.5858  1.5902
42635SOL    HW231404   5.485   0.007  10.781  0.1769  0.6020  0.7128
42636SOL     OW31405   4.561   1.785   8.132  0.1782 -0.1288 -0.0755
42636SOL    HW131406   4.613   1.863   8.113 -0.6254 -0.1465 -2.7406
42636SOL    HW231407   4.545   1.745   8.046 -0.3338 -2.6619  1.1086
42637SOL     OW31408   2.615   5.039   3.530  0.0116  0.2628  0.1126
42637SOL    HW131409   2.607   5.104   3.600  1.3683  1.7945 -1.0953
42637SOL    HW231410   2.528   5.035   3.491 -0.6187 -0.2160  1.5184
42638SOL     OW31411  10.239   6.255   7.447 -0.3423 -0.2448 -0.1353
42638SOL    HW131412  10.174   6.325   7.448 -0.4857 -0.2698 -2.3529
42638SOL    HW231413  10.275   6.254   7.536  0.1149  3.0506 -0.1644
42639SOL     OW31414   0.319   1.938   2.871  0.1053 -0.3873 -0.3338
42639SOL    HW131415   0.321   2.013   2.931  0.5426  0.4712 -1.3931
42639SOL    HW231416   0.398   1.888   2.894 -0.6898 -1.0726  1.0240
42640SOL     OW31417   1.725  10.209   7.895  0.4661 -0.1886 -0.0770
42640SOL    HW131418   1.810  10.193   7.853  1.1664  0.8255  0.8807
42640SOL    HW231419   1.688  10.283   7.846  0.3521 -0.3172 -0.1868
42641SOL     OW31420   0.316   9.531   7.189 -1.1028 -0.4391  0.4136
42641SOL    HW131421   0.380   9.461   7.175 -0.3879  0.3006 -0.1448
42641SOL    HW231422   0.361   9.610   7.160 -1.8303  0.2825  1.2143
42642SOL     OW31423   1.287  10.303   2.023  1.2036 -0.0444  0.1145
42642SOL    HW131424   1.283  10.209   2.006 -2.7797  0.3266 -2.1347
42642SOL    HW231425   1.240  10.315   2.106 -1.0139  0.0798 -1.0807
42643SOL     OW31426   6.226   4.198   5.614 -0.1448  0.9014  0.8746
42643SOL    HW131427   6.276   4.278   5.601 -1.5655  1.8552  1.0095
42643SOL    HW231428   6.134   4.227   5.613 -0.7200 -0.8056  0.2797
42644SOL     OW31429   5.461   3.704   2.639  0.0407 -0.2892 -0.0263
42644SOL    HW131430   5.400   3.738   2.704  1.6323 -0.3367  1.5579
42644SOL    HW231431   5.539   3.680   2.689  3.0644  3.5670 -2.3726
42645SOL     OW31432  10.266   2.684   6.351 -0.5375  0.4285  0.5404
42645SOL    HW131433  10.301   2.769   6.324 -1.6143  0.2006 -1.8371
42645SOL    HW231434  10.197   2.706   6.413  1.1695  1.0632  2.3375
42646SOL     OW31435   2.863   4.811   5.657 -0.3195  0.6266  0.4322
42646SOL    HW131436   2.878   4.842   5.746  0.3203  2.2531 -0.1852
42646SOL    HW231437   2.934   4.852   5.606 -1.0270  0.2262 -0.9117
42647SOL     OW31438   3.360   0.259   8.770 -0.1805 -0.5240 -0.3592
42647SOL    HW131439   3.412   0.336   8.748 -0.0386  0.2475  2.3240
42647SOL    HW231440   3.423   0.196   8.805 -0.9055  0.4205  2.9386
42648SOL     OW31441   4.046   8.743   5.654  0.2814 -0.0285 -0.2016
42648SOL    HW131442   4.057   8.835   5.677 -1.4094 -0.0060  0.6122
42648SOL    HW231443   4.114   8.697   5.704  1.5606  0.8075 -1.1056
42649SOL     OW31444   7.934   4.303  10.476 -0.1662 -0.2267  0.4285
42649SOL    HW131445   8.023   4.300  10.439 -0.0102 -0.5641  0.8155
42649SOL    HW231446   7.928   4.223  10.528  0.0160  0.7241  1.9925
42650SOL     OW31447   2.184   2.048   4.665 -0.2542 -0.4752  0.3377
42650SOL    HW131448   2.112   2.075   4.607 -1.0865 -2.6088  0.2701
42650SOL    HW231449   2.256   2.027   4.605 -0.9636 -2.2396  0.0579
42651SOL     OW31450   8.406   8.021   5.733 -0.2139 -0.0970 -0.1678
42651SOL    HW131451   8.431   8.110   5.708  2.5503 -1.0585 -1.1796
42651SOL    HW231452   8.398   8.024   5.829  1.1758  0.9785 -0.0585
42652SOL     OW31453   8.828   4.761   6.789  0.7777 -0.0565 -0.3287
42652SOL    HW131454   8.919   4.782   6.812  0.8735 -0.8652  0.0845
42652SOL    HW231455   8.829   4.667   6.773  0.1653  0.0620 -1.1232
42653SOL     OW31456   4.219   4.181   0.726 -0.3378  1.1103  0.2254
42653SOL    HW131457   4.161   4.241   0.681 -0.1619  0.6696 -0.6222
42653SOL    HW231458   4.301   4.186   0.677 -0.1542  0.5837  0.4691
42654SOL     OW31459   9.619   5.232   4.987  0.0251  0.2458 -0.5433
42654SOL    HW131460   9.600   5.323   5.009  1.7862 -0.0201  2.6461
42654SOL    HW231461   9.714   5.228   4.980 -0.0291 -1.3606 -0.6752
42655SOL     OW31462   9.675   5.887   4.145 -0.6169 -0.0327  0.4519
42655SOL    HW131463   9.761   5.845   4.147 -1.1436 -1.1287  0.9567
42655SOL    HW231464   9.645   5.883   4.236 -0.4621  1.9539  0.6276
42656SOL     OW31465   9.862   0.286   3.457 -0.0437 -0.0652 -0.3236
42656SOL    HW131466   9.858   0.346   3.531 -1.7857  0.5472 -0.8737
42656SOL    HW231467   9.885   0.201   3.495 -1.8185  0.0314  1.0827
42657SOL     OW31468   6.437   2.998   4.657  0.5053  0.2083 -0.1388
42657SOL    HW131469   6.475   2.929   4.712 -2.3455  0.2992  2.1231
42657SOL    HW231470   6.499   3.071   4.664  1.3246 -0.5666  1.1052
42658SOL     OW31471   5.005   2.567   1.120 -0.3015  0.6010 -0.2474
42658SOL    HW131472   5.012   2.488   1.174 -0.8828  0.5484 -0.2467
42658SOL    HW231473   5.095   2.596   1.110 -0.0465 -0.2446 -0.5158
42659SOL     OW31474   5.060   5.012   8.892  0.3214 -0.1592 -0.1518
42659SOL    HW131475   5.063   4.936   8.834  0.1906 -1.0044  0.9297
42659SOL    HW231476   4.975   5.052   8.873 -0.9577 -1.9985  1.3523
42660SOL     OW31477   3.833   8.269   4.682 -0.0667  0.2528 -0.4408
42660SOL    HW131478   3.925   8.265   4.709 -0.1599 -0.9753 -0.1998
42660SOL    HW231479   3.816   8.183   4.643 -2.3242 -1.5245  3.7436
42661SOL     OW31480   8.012   3.710   9.160 -0.1065  0.1262  0.0650
42661SOL    HW131481   8.084   3.699   9.223  0.2600  0.3365 -0.3140
42661SOL    HW231482   7.934   3.715   9.215  0.1266 -0.4633  0.4629
42662SOL     OW31483   0.149   6.797   4.179 -0.0048 -0.2170 -0.1181
42662SOL    HW131484   0.071   6.760   4.138  1.3473 -1.4491 -1.7150
42662SOL    HW231485   0.174   6.733   4.246  0.3273 -0.4454 -0.4571
42663SOL     OW31486  10.090   5.694   1.097  0.3715  0.2540 -0.0632
42663SOL    HW131487  10.031   5.633   1.142 -0.8145  0.8494 -0.7591
42663SOL    HW231488  10.113   5.759   1.164  0.4071 -0.0979  0.2678
42664SOL     OW31489   4.624   1.303   5.010  0.0676  0.3463  0.3616
42664SOL    HW131490   4.575   1.329   5.088 -3.5719  0.3763 -1.6732
42664SOL    HW231491   4.583   1.221   4.982 -0.0979  1.2808 -2.4857
42665SOL     OW31492   4.471   2.960   3.050  0.0082 -0.1460 -0.0909
42665SOL    HW131493   4.424   2.996   3.125  1.9379  0.0591  1.1164
42665SOL    HW231494   4.419   2.985   2.974 -1.5634  0.4045  1.1090
42666SOL     OW31495   2.721   7.759   8.824 -0.7327  0.0901  0.0287
42666SOL    HW131496   2.683   7.673   8.839 -0.3972 -1.1708 -4.7347
42666SOL    HW231497   2.648   7.815   8.798 -0.3731 -0.4648 -2.4449
42667SOL     OW31498   4.864   3.304   0.789 -0.7399  0.0642 -0.1685
42667SOL    HW131499   4.843   3.211   0.780 -0.2780 -0.0033 -0.6500
42667SOL    HW231500   4.787   3.350   0.755 -0.6018 -0.1617 -0.8080
42668SOL     OW31501   3.539   1.426   5.733 -0.5754  0.5019  0.4156
42668SOL    HW131502   3.512   1.465   5.650  2.0547  1.8361  0.0839
42668SOL    HW231503   3.612   1.368   5.711 -1.7744 -1.5401  1.4737
42669SOL     OW31504   2.788   2.785   7.537  0.0397 -0.2690  0.4175
42669SOL    HW131505   2.733   2.811   7.463  0.7025 -0.0689 -0.0119
42669SOL    HW231506   2.809   2.868   7.581 -0.7537 -0.4298  1.1298
42670SOL     OW31507   1.171  10.545   1.941  0.3335 -0.0865 -0.0772
42670SOL    HW131508   1.266  10.545   1.950  0.3573 -0.0788 -0.3141
42670SOL    HW231509   1.149  10.453   1.925  0.4096  0.0646 -1.0922
42671SOL     OW31510   4.458   1.902   2.582  0.1927 -0.0828  0.0122
42671SOL    HW131511   4.489   1.992   2.590  1.0485 -0.3911  0.2789
42671SOL    HW231512   4.444   1.889   2.489 -2.1026  1.0216  0.1474
42672SOL     OW31513   2.013   9.570   6.682  0.4043  0.1989 -0.2287
42672SOL    HW131514   2.017   9.614   6.597  1.5474 -0.2654 -0.4295
42672SOL    HW231515   2.082   9.505   6.679 -0.5519 -0.8936  0.4759
42673SOL     OW31516   1.561   3.773   9.497  0.1066  0.2308 -0.1543
42673SOL    HW131517   1.591   3.804   9.411  1.1338  0.4370  0.2641
42673SOL    HW231518   1.469   3.750   9.483  0.5071 -0.7035 -1.5809
42674SOL     OW31519   7.010   4.695   1.871  0.0930  0.1865  0.4526
42674SOL    HW131520   6.939   4.731   1.819  0.9917  1.7110  0.2038
42674SOL    HW231521   7.082   4.685   1.809 -0.0956 -2.0842  0.5238
42675SOL     OW31522   7.546   5.992   9.191 -0.5251 -0.2467 -0.1648
42675SOL    HW131523   7.636   5.994   9.225 -0.1700  0.4023 -1.0801
42675SOL    HW231524   7.522   5.900   9.192  0.3761 -0.4973 -0.4588
42676SOL     OW31525   9.583   7.618   5.379 -0.2131 -0.2904  0.8887
42676SOL    HW131526   9.661   7.658   5.341 -0.4413  1.3450  2.0549
42676SOL    HW231527   9.525   7.603   5.304 -0.5013  2.4992  0.4632
42677SOL     OW31528   0.105   1.792   2.080 -0.1127 -0.4073  0.2942
42677SOL    HW131529   0.032   1.730   2.082  0.4054 -1.0801 -0.8815
42677SOL    HW231530   0.124   1.804   1.987  0.6877  0.4644  0.5529
42678SOL     OW31531   5.021   9.940   2.179 -0.6214 -0.3520 -0.6173
42678SOL    HW131532   4.975   9.996   2.242 -0.3905 -0.9952  0.1376
42678SOL    HW231533   5.114   9.951   2.200 -0.2826  1.5648 -2.6431
42679SOL     OW31534   4.232   0.878   2.362  1.1305  0.1774  0.3796
42679SOL    HW131535   4.255   0.968   2.341  0.1911 -0.2220 -2.9952
42679SOL    HW231536   4.141   0.882   2.390  1.9019  0.5193  3.0579
42680SOL     OW31537   6.642   6.458   7.126 -0.1697 -0.1734 -0.8057
42680SOL    HW131538   6.591   6.535   7.101 -0.5650 -0.2942 -0.3880
42680SOL    HW231539   6.665   6.473   7.218  0.1790 -0.3248 -0.8632
42681SOL     OW31540  10.253   2.698   8.006  0.4031  0.0276 -0.6393
42681SOL    HW131541  10.166   2.681   8.042 -0.1570  0.0139 -1.9221
42681SOL    HW231542  10.277   2.616   7.961  1.1466 -0.0152 -0.1855
42682SOL     OW31543   0.589   2.770   8.143  0.0873  0.3054 -0.7802
42682SOL    HW131544   0.595   2.829   8.218  0.7298 -1.6657  0.8152
42682SOL    HW231545   0.661   2.796   8.086  1.5517 -0.0888  0.8107
42683SOL     OW31546   6.360   0.327   5.757 -0.5581  0.4451 -0.3685
42683SOL    HW131547   6.356   0.313   5.852 -2.3153  1.2530 -0.2815
42683SOL    HW231548   6.426   0.396   5.746 -0.7687  0.7656  0.3297
42684SOL     OW31549  10.120   9.004   6.142  0.0334  0.2405  0.4792
42684SOL    HW131550  10.032   8.968   6.130 -0.1334  1.6191 -4.9102
42684SOL    HW231551  10.107   9.099   6.145  1.3347  0.4577 -0.2076
42685SOL     OW31552   6.734  10.703   6.546  0.0614  0.0673 -0.4725
42685SOL    HW131553   6.821  10.717   6.511  0.7954  1.3785  1.6773
42685SOL    HW231554   6.742  10.722   6.640 -1.7851 -2.9728  0.4566
42686SOL     OW31555   6.652   2.374   4.639 -0.3651 -0.2296  0.7494
42686SOL    HW131556   6.669   2.289   4.681  0.1937  0.2931  1.5963
42686SOL    HW231557   6.736   2.419   4.641 -0.4825  0.0677 -0.3673
42687SOL     OW31558   3.717   1.141   6.605 -0.3643  0.4341 -0.0642
42687SOL    HW131559   3.770   1.066   6.578 -0.3806  0.0302  0.9736
42687SOL    HW231560   3.737   1.153   6.697 -0.7902  1.3628 -0.0798
42688SOL     OW31561   9.268   4.442   8.858 -0.2203  0.1302 -0.0147
42688SOL    HW131562   9.255   4.410   8.947  1.3576 -2.1309 -0.5152
42688SOL    HW231563   9.227   4.377   8.802  0.2941  0.6235 -1.0068
42689SOL     OW31564   9.459   9.463   3.125 -0.5654  0.0947  0.4955
42689SOL    HW131565   9.489   9.541   3.173 -1.5527 -0.0184  1.3296
42689SOL    HW231566   9.533   9.402   3.131 -0.6047  0.1472  1.7638
42690SOL     OW31567   5.096  10.272   5.845 -0.5501 -0.5623  0.6793
42690SOL    HW131568   5.032  10.203   5.824  0.5817 -2.1851  2.3022
42690SOL    HW231569   5.141  10.240   5.923  3.2915 -0.2448 -1.1615
42691SOL     OW31570   5.621   0.721   1.684 -0.0427  0.0760 -0.1048
42691SOL    HW131571   5.557   0.650   1.692 -1.3892  1.2748  0.2726
42691SOL    HW231572   5.698   0.689   1.731 -0.4088 -1.3248 -0.3829
42692SOL     OW31573   7.695   5.619   5.483 -0.3889 -0.0562  0.4170
42692SOL    HW131574   7.670   5.558   5.552  1.7533  0.5069  1.7983
42692SOL    HW231575   7.702   5.565   5.405 -1.2815 -1.0349  0.9897
42693SOL     OW31576   6.607   2.991   6.035  0.2834  0.7709  0.1222
42693SOL    HW131577   6.626   2.990   5.941  1.2326  2.4699  0.2535
42693SOL    HW231578   6.532   3.050   6.043 -0.3659 -0.0671  0.3672
42694SOL     OW31579   7.545   9.408   6.626  0.1719  0.3782 -0.1453
42694SOL    HW131580   7.624   9.457   6.645 -0.1954  0.9383 -0.0488
42694SOL    HW231581   7.509   9.387   6.713  0.3628 -0.1205 -0.1842
42695SOL     OW31582  10.077  10.012   5.119  0.4284  0.0142  0.8765
42695SOL    HW131583  10.069  10.095   5.168 -3.0374  0.3276  0.0198
42695SOL    HW231584  10.010  10.018   5.050  0.1380 -3.4351  0.6847
42696SOL     OW31585   5.117   0.600   9.082 -0.2263 -0.5320 -0.1594
42696SOL    HW131586   5.185   0.533   9.090 -0.3592 -0.7016 -0.4246
42696SOL    HW231587   5.143   0.669   9.143 -0.4345 -1.1213  0.6106
42697SOL     OW31588   3.005   3.627   2.637 -0.9105 -0.2660  0.3853
42697SOL    HW131589   3.089   3.594   2.604 -0.2217  0.5349  1.2846
42697SOL    HW231590   2.959   3.657   2.559  0.2930  0.7265  0.0163
42698SOL     OW31591   9.621   3.397   5.438 -0.2248 -0.1661  0.4146
42698SOL    HW131592   9.651   3.462   5.374  1.0858 -1.1472 -0.0208
42698SOL    HW231593   9.560   3.342   5.390  2.0254 -1.9424 -0.5797
42699SOL     OW31594  10.456   0.991   1.147  0.8401  0.3371 -0.6323
42699SOL    HW131595  10.406   0.914   1.175 -0.4464  1.0502 -0.9258
42699SOL    HW231596  10.471   0.977   1.054  2.0491 -0.3289 -0.3615
42700SOL     OW31597   0.847   3.834   7.248 -0.2946 -0.0865  0.1524
42700SOL    HW131598   0.898   3.849   7.328 -1.7570 -1.2357  1.3623
42700SOL    HW231599   0.756   3.850   7.275 -0.7743  0.0096 -1.4379
42701SOL     OW31600   3.831   0.354   1.558 -0.5440  0.3605  0.3351
42701SOL    HW131601   3.862   0.273   1.518  1.2082  1.1419  0.0007
42701SOL    HW231602   3.774   0.325   1.629 -0.0616 -1.1619  0.1399
42702SOL     OW31603   8.438   5.249  10.475 -0.3578 -0.0160 -0.0029
42702SOL    HW131604   8.413   5.175  10.530  0.3824  1.1333  1.9841
42702SOL    HW231605   8.360   5.305  10.473 -0.1652  0.2743  0.4741
42703SOL     OW31606  10.001   3.914   4.526  0.3834 -1.0904  0.1706
42703SOL    HW131607   9.989   3.943   4.616 -3.1219 -1.6897  0.0199
42703SOL    HW231608  10.005   3.995   4.475 -0.0299 -0.7845  0.6200
42704SOL     OW31609  10.767   4.461   7.158 -0.0062  0.6658  0.2603
42704SOL    HW131610  10.776   4.556   7.170  1.1859  0.7033 -0.7497
42704SOL    HW231611  10.681   4.450   7.119  0.0308  1.3829 -0.0421
42705SOL     OW31612   4.334   3.981   5.181  0.4315 -0.3453 -0.2168
42705SOL    HW131613   4.289   3.900   5.203 -0.7848  0.3276 -0.1770
42705SOL    HW231614   4.355   3.973   5.088 -2.1466  0.4193 -0.9227
42706SOL     OW31615   9.220   0.948   4.788 -0.0188  0.6169 -0.1131
42706SOL    HW131616   9.289   0.988   4.841  1.4500 -1.0413 -0.6663
42706SOL    HW231617   9.192   1.017   4.727  0.8475  1.4384  0.3990
42707SOL     OW31618  10.084   4.114   0.848 -0.4442 -0.3326  0.3419
42707SOL    HW131619  10.039   4.159   0.776 -0.3932  0.0326  0.5362
42707SOL    HW231620  10.060   4.163   0.926 -1.7961 -1.6729  0.8194
42708SOL     OW31621   9.260   2.266   0.148  0.0555 -0.5907 -0.0672
42708SOL    HW131622   9.167   2.252   0.130 -0.0630  0.1536 -0.0680
42708SOL    HW231623   9.271   2.236   0.238 -0.6307  1.1392  0.6498
42709SOL     OW31624   5.435   3.174   3.097 -0.4029  0.1437  0.4242
42709SOL    HW131625   5.449   3.092   3.145 -0.9856  0.8554  1.8647
42709SOL    HW231626   5.523   3.211   3.088 -0.4193  0.7649  2.3969
42710SOL     OW31627   6.502   3.833   4.076 -0.0070 -0.0998  0.0502
42710SOL    HW131628   6.440   3.890   4.122 -1.0220 -0.6184 -0.6112
42710SOL    HW231629   6.586   3.850   4.118 -0.5305  0.8788  0.7644
42711SOL     OW31630   9.157   7.704   2.774 -0.0914 -0.1317 -0.3809
42711SOL    HW131631   9.225   7.689   2.708  0.0501  1.4114 -0.6258
42711SOL    HW231632   9.142   7.798   2.772  1.0822  0.2300  2.9535
42712SOL     OW31633   3.240   3.584   7.443 -0.1605 -0.5201 -0.7176
42712SOL    HW131634   3.214   3.599   7.534  1.6854 -0.7822 -0.1126
42712SOL    HW231635   3.186   3.511   7.414 -0.2452 -0.9247  0.4180
42713SOL     OW31636   5.374   8.002   3.935 -0.1207  0.2662 -0.0659
42713SOL    HW131637   5.397   8.091   3.961  2.1218  0.3109 -1.8337
42713SOL    HW231638   5.445   7.975   3.877 -1.5553 -2.1013 -0.8809
42714SOL     OW31639   2.606   3.072   6.911 -0.2307 -0.3055  0.4185
42714SOL    HW131640   2.529   3.054   6.965 -0.2118 -0.6966  0.3213
42714SOL    HW231641   2.579   3.144   6.854 -1.1695 -1.5943 -0.8705
42715SOL     OW31642   6.120   9.829   9.119 -0.0812  0.3300 -0.0222
42715SOL    HW131643   6.156   9.790   9.199  0.5905  1.0664  0.0425
42715SOL    HW231644   6.140   9.765   9.051 -0.7150 -0.3341  0.3913
42716SOL     OW31645   8.028   8.066   6.885  0.0747 -0.1152  0.5066
42716SOL    HW131646   8.077   8.148   6.880 -0.7808  0.4499  1.1402
42716SOL    HW231647   8.074   8.007   6.824  1.7181  0.2706  1.3155
42717SOL     OW31648   0.052   0.666   0.598 -0.2165  0.0667 -0.0689
42717SOL    HW131649   0.045   0.760   0.579 -0.7681  0.2966  1.2221
42717SOL    HW231650   0.139   0.656   0.636 -0.7148  0.3233  1.1819
42718SOL     OW31651   8.566  10.816   4.484 -0.2907  0.0681  0.6801
42718SOL    HW131652   8.502  10.833   4.415 -0.1994  0.6385  0.7305
42718SOL    HW231653   8.624  10.892   4.482  0.1645 -0.2678  0.8839
42719SOL     OW31654   2.655   6.908   2.646  0.2539 -0.5993  0.3878
42719SOL    HW131655   2.720   6.978   2.632 -0.3039 -0.2668 -0.6007
42719SOL    HW231656   2.588   6.949   2.700  0.6649 -0.8339  1.0947
42720SOL     OW31657   0.243   8.605   2.049  0.0189 -0.3178  0.1274
42720SOL    HW131658   0.149   8.589   2.045 -0.0437  0.1192 -0.3579
42720SOL    HW231659   0.257   8.680   1.990  0.4425  0.6529  1.4069
42721SOL     OW31660   6.657   2.870   0.760 -0.3833  0.3230  0.4113
42721SOL    HW131661   6.653   2.966   0.750  0.6049  0.3348  0.0154
42721SOL    HW231662   6.750   2.852   0.775 -0.4268 -0.6624 -0.4544
42722SOL     OW31663   3.144   5.783   8.137  0.4196 -0.3797 -0.1217
42722SOL    HW131664   3.070   5.729   8.108 -0.0009 -0.5906  1.2961
42722SOL    HW231665   3.104   5.865   8.164  1.1061  0.9233 -2.7557
42723SOL     OW31666   4.401   5.778   5.572 -0.1014 -0.0364 -0.3723
42723SOL    HW131667   4.317   5.821   5.558 -0.0131  0.1678 -0.2906
42723SOL    HW231668   4.423   5.740   5.486 -0.8173 -1.0940 -0.0957
42724SOL     OW31669   2.610   5.704   4.364  0.4444  0.1638 -0.0464
42724SOL    HW131670   2.535   5.756   4.335  0.4481  0.2167  0.0391
42724SOL    HW231671   2.583   5.667   4.448  1.1033  1.5004  0.8010
42725SOL     OW31672   4.408   9.326   4.536  0.2033  0.4037  0.0218
42725SOL    HW131673   4.453   9.383   4.473  1.2749 -0.2064  0.2048
42725SOL    HW231674   4.317   9.353   4.532  0.4942  1.3389 -0.7510
42726SOL     OW31675   8.035   9.841  10.910 -0.3122 -0.2539  0.6646
42726SOL    HW131676   7.950   9.881  10.891 -0.6518 -1.5095 -0.6659
42726SOL    HW231677   8.013   9.759  10.955  0.0862 -1.1528 -0.7064
42727SOL     OW31678  10.930   1.225   1.596 -0.0652  0.0865 -0.0119
42727SOL    HW131679  10.966   1.288   1.659  2.1530 -1.2243  0.1439
42727SOL    HW231680  10.872   1.169   1.648  1.8513 -1.0749  0.9915
42728SOL     OW31681   7.243   7.101   2.010 -0.1654 -0.0384 -0.0909
42728SOL    HW131682   7.221   7.079   1.919 -1.2743  0.0146  0.1514
42728SOL    HW231683   7.215   7.025   2.060  2.8434 -1.2159 -0.0373
42729SOL     OW31684   7.764   7.717   6.292 -0.3827 -0.6873 -0.2898
42729SOL    HW131685   7.844   7.770   6.297 -1.4946  1.2928 -1.9545
42729SOL    HW231686   7.787   7.644   6.234  0.1886 -0.0085 -0.9416
42730SOL     OW31687   0.308   2.587   6.253  0.1617  0.4949  1.0986
42730SOL    HW131688   0.226   2.633   6.236  0.0412  0.1649  0.7600
42730SOL    HW231689   0.296   2.501   6.211  1.6260  1.3134 -1.2163
42731SOL     OW31690   9.868  10.678   0.939 -0.1059  0.0807  0.5285
42731SOL    HW131691   9.858  10.697   0.845 -0.8358  0.6798  0.7156
42731SOL    HW231692   9.892  10.762   0.978  0.4990 -0.2355  0.8434
42732SOL     OW31693   8.467   3.374   4.697  0.2277  0.0448  0.1406
42732SOL    HW131694   8.427   3.461   4.699 -1.0959 -0.4944 -1.0944
42732SOL    HW231695   8.556   3.390   4.663  0.2115  0.9638  0.4832
42733SOL     OW31696   4.517   1.463   2.387 -0.6364 -0.3060  0.1956
42733SOL    HW131697   4.594   1.408   2.402  0.0454  0.6788  0.4066
42733SOL    HW231698   4.506   1.513   2.468  0.9008  2.4338 -1.1435
42734SOL     OW31699   4.430   0.903   7.421 -0.1179 -0.1521  0.5997
42734SOL    HW131700   4.462   0.831   7.366  0.0854  0.3277  0.0826
42734SOL    HW231701   4.421   0.977   7.361 -0.6612  0.1624  1.0577
42735SOL     OW31702   6.843   6.988   9.676 -0.0879  0.7044  0.4083
42735SOL    HW131703   6.753   7.016   9.692 -0.4885  0.0574 -0.6747
42735SOL    HW231704   6.851   6.903   9.720 -0.4656  0.0577 -0.7539
42736SOL     OW31705   4.155   7.323   0.960  0.2013  0.3597 -0.0157
42736SOL    HW131706   4.162   7.408   0.916 -0.8214 -0.3835 -1.7177
42736SOL    HW231707   4.197   7.261   0.899  0.5180 -0.4399  0.9884
42737SOL     OW31708   3.889   4.718   5.016 -0.7510  0.4650 -0.3740
42737SOL    HW131709   3.797   4.740   5.007 -0.5262  2.2695  1.0932
42737SOL    HW231710   3.892   4.651   5.085 -0.9867 -0.0271 -0.8335
42738SOL     OW31711   9.227  10.958   0.209 -0.0523  0.5748 -0.3026
42738SOL    HW131712   9.233  11.035   0.266  1.2054 -1.1647  2.0742
42738SOL    HW231713   9.133  10.937   0.208 -0.0908  0.5131  1.3948
42739SOL     OW31714  10.207   4.273   9.964  0.5636 -0.2940 -0.1604
42739SOL    HW131715  10.115   4.292   9.942  0.0306 -1.0675  1.2969
42739SOL    HW231716  10.206   4.184   9.998  1.7029  0.0103  0.7352
42740SOL     OW31717   1.801   9.553   5.512 -0.9290  0.3252  0.4013
42740SOL    HW131718   1.822   9.620   5.577  0.1951  1.6027 -1.2087
42740SOL    HW231719   1.818   9.594   5.428  2.5313 -2.7355 -0.6755
42741SOL     OW31720   7.584   3.207   6.492  0.2150 -0.4603 -0.2563
42741SOL    HW131721   7.577   3.283   6.551 -1.1457 -0.4855 -0.3522
42741SOL    HW231722   7.596   3.132   6.551 -0.6598 -0.4281 -0.0228
42742SOL     OW31723   2.473   7.496   5.492 -0.0185 -0.2105  0.4609
42742SOL    HW131724   2.457   7.410   5.530 -1.5810 -0.0411  0.2408
42742SOL    HW231725   2.409   7.554   5.534  1.4656  1.0284  1.1381
42743SOL     OW31726   6.957   8.224   9.389 -0.1173 -0.7805 -0.2861
42743SOL    HW131727   7.047   8.221   9.420 -0.8911 -1.0231  2.1936
42743SOL    HW231728   6.956   8.295   9.325  1.2000  1.6041  2.1226
42744NA      NA31729   7.647   9.692   7.353  0.3364 -0.1584 -0.1124
42745NA      NA31730   3.169   7.719   7.911  0.0531 -0.6704 -0.7265
42746NA      NA31731   9.254   4.784   9.154  0.4033  0.1493  0.3112
42747NA      NA31732   0.678   4.553   9.495 -0.3145 -0.3543 -0.0320
42748NA      NA31733   2.610  10.022   2.761  0.0383  0.0972  0.0584
42749NA      NA31734   3.100   3.402   0.361  0.1013 -0.7711 -0.0170
42750NA      NA31735   9.404   3.254   2.613  0.3671  0.0620 -0.2810
42751NA      NA31736   9.242   6.201   0.286  0.2447 -0.1227  0.0324
42752NA      NA31737   9.609   1.558   3.069  0.0000 -0.0091  0.4393
42753NA      NA31738  10.430  10.628   4.745 -0.1158 -0.0461 -0.1235
42754NA      NA31739   7.761   2.453   3.797 -0.2272  0.1579 -0.0322
42755NA      NA31740  10.251   8.874   6.264 -0.3522  0.0969  0.0775
42756NA      NA31741   8.184  10.920   5.168  0.0691  0.4125 -0.2572
42757NA      NA31742   6.956   0.884   8.347  0.3336 -0.2732  0.2119
42758NA      NA31743   2.042   6.295   2.219 -0.3994 -0.0843 -0.7562
42759NA      NA31744   8.486   5.333   5.483 -0.0293 -0.0424 -0.5039
42760NA      NA31745   2.474   6.284   9.074  0.3240  0.3811 -0.1329
42761NA      NA31746   7.025   8.721   9.990 -0.2593  0.3107  0.1189
42762NA      NA31747   9.747   3.805   5.488  0.2041  0.2211  0.2247
42763NA      NA31748   5.689   1.436   5.712 -0.0856 -0.6516  0.2014
42764NA      NA31749   2.422   3.861   8.437 -0.4189 -0.2402  0.1424
42765NA      NA31750   9.092   2.252   2.354  0.3252  0.1249 -0.3261
42766NA      NA31751   2.698   7.233   7.583 -0.4872  0.0612  0.1600
42767NA      NA31752   7.682   8.808   7.606 -0.0208  0.0560  0.0547
42768NA      NA31753   5.562  10.611   6.172 -0.2029 -0.1098  0.4625
42769NA      NA31754   4.500   6.601   5.687 -0.0481 -0.1978  0.1633
42770NA      NA31755   8.388   7.118   6.505  0.2420 -0.1336 -0.1724
42771NA      NA31756   3.418   2.250   2.978 -0.0978  0.4864 -0.6185
42772NA      NA31757   1.410   7.946   1.666 -0.0960 -0.5996  0.0689
42773NA      NA31758   4.806   1.582   5.618  0.0270 -0.2659 -0.0005
42774NA      NA31759   9.841   7.016   3.342  0.3095  0.2349 -0.5616
42775NA      NA31760   3.398   6.921   3.691  0.3360 -0.3487  0.2979
42776NA      NA31761   4.754   0.551   8.834  0.1308 -0.4655 -0.0973
42777NA      NA31762   6.396   6.865   7.772  0.3658  0.0666  0.1532
42778NA      NA31763   5.119   3.801  10.650 -0.1762  0.0054 -0.3373
42779NA      NA31764  10.926   6.029   6.735  0.4095  0.3532  0.0291
42780NA      NA31765   4.941   7.134   2.274 -0.4206 -0.5665  0.3428
42781NA      NA31766  10.158   2.157   5.771  0.1601  0.0152 -0.0840
42782NA      NA31767   1.083   9.275   1.853  0.0759  0.6549 -0.0218
42783NA      NA31768   8.054  10.055   8.882 -0.2337 -0.4587  0.6347
42784NA      NA31769   5.269   9.052   2.010 -0.0639  0.4904  0.3316
42785NA      NA31770  10.059   2.564   1.272  0.3295  0.5204  0.1431
42786NA      NA31771   6.421   9.096   7.037 -0.0884  0.3736  0.0982
42787NA      NA31772   6.488   1.843   9.088  0.0182  0.4010  0.0508
42788NA      NA31773   1.840   9.309   3.387  0.3135  0.6163 -0.1253
42789NA      NA31774   7.526   4.868   1.766  0.0412  0.2410  0.2780
42790NA      NA31775  10.666   4.107   1.959  0.5373 -0.3145 -0.3133
42791NA      NA31776  10.104   5.645   8.945 -0.1565  0.1722  0.0977
42792NA      NA31777   4.811   7.859   6.339  0.2376  0.4402  0.5372
42793NA      NA31778   5.262   5.219   0.636  0.3385 -0.0214 -0.0390
42794NA      NA31779   9.132  10.825   5.649  0.3255 -0.0012 -0.1638
42795NA      NA31780  10.364   6.869   5.543  0.2703  0.2538  0.3448
42796NA      NA31781   5.293   3.268   9.578  0.3315  0.3034  0.0324
42797NA      NA31782   9.943   8.913   2.040 -0.3096  0.1953  0.4989
42798NA      NA31783   5.589   4.666   5.580  0.0099  0.2039  0.1215
42799NA      NA31784   3.876   7.125   6.451  0.5306  0.0757  0.3643
42800NA      NA31785   0.935   5.445   4.218  0.6270 -0.2018 -0.0771
42801NA      NA31786   7.429   4.491   5.784 -0.1137  0.1574 -0.2318
42802NA      NA31787   6.586   5.085   7.551 -0.0622  0.2439 -0.4460
42803NA      NA31788   1.184  10.076   3.495 -0.2503  0.0785  0.6536
42804NA      NA31789   7.125   4.349   9.593 -0.2727 -0.1301 -0.6024
42805NA      NA31790  10.943   4.564   4.456  0.0189  0.0611  0.0645
42806NA      NA31791   3.337  10.038   4.081  0.4790 -0.2888 -0.2704
42807NA      NA31792   0.051   3.838   8.417  0.3587  0.3565 -0.3077
42808NA      NA31793   9.582   2.947  10.308 -0.1173  0.3316 -0.2492
42809NA      NA31794   6.529   9.276   2.066 -0.2767 -0.6971  0.1232
42810NA      NA31795  10.850   7.591   8.752 -0.6953  0.4314  0.1172
42811NA      NA31796   3.774   1.887   3.997  0.1391 -0.1474  0.0151
42812NA      NA31797   2.149   9.277   1.326 -0.2510  0.1111  0.3970
42813NA      NA31798   9.904   5.587   0.659  0.2133  0.3196  0.2576
42814NA      NA31799   4.219   4.945  10.544 -0.1202 -0.0051 -0.0636
42815NA      NA31800   8.612   7.817   0.342 -0.3415 -0.5471  0.2113
42816NA      NA31801  10.067   9.848   3.959 -0.1767  0.1511  0.1186
42817NA      NA31802   6.768   7.565  10.813  0.2879 -0.4771 -0.5491
42818NA      NA31803   6.712   9.074   9.533  0.1493 -0.2030 -0.1650
42819NA      NA31804   9.587   6.805   2.100  0.1091  0.1947  0.5058
42820NA      NA31805   3.601   2.314   0.751 -0.4655  0.7559 -0.0186
42821NA      NA31806   5.953   7.524   1.683  0.0250 -0.0489 -0.5126
42822NA      NA31807   0.894   6.173   9.970  0.1024 -0.6460  0.1522
42823NA      NA31808   7.984   3.007  10.372  0.4980  0.3470 -0.2681
42824NA      NA31809   8.023   3.493   5.649 -0.1514  0.1331  0.2079
42825NA      NA31810   4.250   0.449   7.263  0.1558  0.2192 -0.0133
42826NA      NA31811   8.055  10.739   9.268  0.4384 -0.5372  0.2187
42827NA      NA31812   4.756   0.167   6.315 -0.1758 -0.2406 -0.5379
42828NA      NA31813   5.219   7.474   8.465 -0.0575 -0.0831 -0.5821
42829NA      NA31814   5.407   5.931   5.918 -0.0425 -0.1778 -0.3802
42830NA      NA31815   4.006   4.305   1.619  0.1282 -0.6938 -0.4029
42831NA      NA31816   8.861   3.931   4.670  0.1096  0.0438 -0.0731
42832NA      NA31817   7.997   2.324   1.031 -0.6842  0.3079  0.5874
42833NA      NA31818   5.771   5.400   7.956  0.0260 -0.9706 -0.3618
42834NA      NA31819   4.172   5.598   9.936 -0.0164 -0.3757 -0.2800
42835NA      NA31820   2.469   8.431   6.002 -0.3515  0.1686  0.2586
42836NA      NA31821   8.575   0.038   1.602  0.2807  0.2294  0.2043
42837NA      NA31822   2.970   6.051   1.967  0.2728 -0.4008  0.1957
42838NA      NA31823   9.669   6.780   9.098  0.1550  0.3289  0.0010
42839NA      NA31824   8.045   7.444   7.883 -0.1963 -0.2670  0.2763
42840NA      NA31825   3.611   9.569   5.010  0.0496 -0.0316  0.3467
42841NA      NA31826   4.943   3.774   1.404 -0.4014 -0.0394  0.5580
42842NA      NA31827   6.541   0.060   4.178  0.2438  0.3545  0.2998
42843NA      NA31828   6.350   9.441   5.994 -0.0317  0.4242 -0.0253
42844NA      NA31829   4.618   6.229   1.381 -0.5632  0.4613  0.1593
42845NA      NA31830   9.294   6.784   0.900 -0.2303  0.3582 -0.4085
42846NA      NA31831   5.583  10.020   3.888  0.4240 -0.0847 -0.3015
42847NA      NA31832   1.816   1.587   4.329  0.1656  0.0648  0.2673
42848NA      NA31833   3.146   9.542   0.818  0.6243 -0.1054  0.5133
42849NA      NA31834   2.635   4.167   8.388  0.0066  0.1156  0.1615
42850NA      NA31835  10.039   2.732   8.922 -0.0298 -0.3614 -0.2503
42851NA      NA31836   8.183   7.363   2.043 -0.4125 -0.2324  0.0444
42852NA      NA31837   1.505   7.402   8.145 -0.2485  0.4126  0.5367
42853NA      NA31838   9.636  10.249   0.063  0.4016  0.0620  0.1143
42854NA      NA31839   0.185   4.327   4.659 -0.1871 -0.0477 -0.3274
42855NA      NA31840   7.615   6.863  10.624 -0.3037  0.1992  0.4305
42856NA      NA31841   5.605   5.759   2.800 -0.2763 -0.4382 -0.5449
42857NA      NA31842   0.039   3.294   7.746  0.1762  0.1508  0.2036
42858NA      NA31843   6.626   2.474   0.265  0.3202 -0.4388 -0.2700
42859NA      NA31844   8.092   0.783   6.369  0.0887  0.0798 -0.2936
42860NA      NA31845   6.221   9.051   5.650  0.2182 -0.2094 -0.1676
42861NA      NA31846   0.159   5.141   8.337 -0.3030 -0.1116 -0.0419
42862NA      NA31847   1.267   8.218   2.964  0.1821  0.1889 -0.0953
42863NA      NA31848   5.356   3.892   7.780 -0.3396 -0.0294 -0.2206
42864NA      NA31849   2.555   6.803   0.198  0.3841 -0.2694 -0.2642
42865NA      NA31850   2.006   4.660   5.430 -0.3853  0.4691  0.4639
42866NA      NA31851   8.434   4.560   2.511  0.3306  0.1608 -0.2620
42867CL      CL31852   8.622   6.849   9.289 -0.1842 -0.3511 -0.0700
42868CL      CL31853  10.739   6.751   2.800 -0.3592 -0.1927 -0.2406
42869CL      CL31854   3.175   0.797   5.306 -0.0560  0.2857 -0.2556
42870CL      CL31855  10.357   8.729   6.083  0.2751 -0.2194  0.0129
42871CL      CL31856   3.582  10.383   1.607 -0.0215  0.4158  0.3335
42872CL      CL31857   5.238   0.662   4.762  0.1321  0.1692  0.1046
42873CL      CL31858   9.310   6.744   7.734 -0.1713  0.1780  0.0055
42874CL      CL31859   8.161   3.892   7.400  0.6860  0.4467  0.1414
42875CL      CL31860  10.034   2.258   4.413 -0.3904 -0.0897  0.0306
42876CL      CL31861   2.285   0.219   1.306  0.1099  0.0416  0.0373
42877CL      CL31862   6.113   9.577   5.619 -0.1437  0.3624 -0.1775
42878CL      CL31863   5.850   3.032   8.690 -0.2236 -0.1260 -0.3294
42879CL      CL31864   3.330   9.722   5.331 -0.0785 -0.1907  0.1800
42880CL      CL31865   0.911   4.420   8.208 -0.0123  0.4948  0.0987
42881CL      CL31866   1.440   4.729   7.780  0.3042  0.1278  0.1634
42882CL      CL31867   8.278   7.821   7.716 -0.2955 -0.4494  0.1401
42883CL      CL31868  10.591   6.998   8.784  0.5326  0.2512 -0.0542
42884CL      CL31869   2.512   2.389   4.485  0.0558  0.0760 -0.1483
42885CL      CL31870   4.188   1.492   8.108  0.0650  0.3902 -0.3480
42886CL      CL31871  10.966   0.223   9.061  0.6563 -0.0507 -0.3977
42887CL      CL31872  10.978   4.738   4.286 -0.0578  0.3827  0.0394
42888CL      CL31873   3.800   9.333  10.121  0.0498  0.5032  0.1289
42889CL      CL31874   9.100   2.368   6.629 -0.1912  0.0223 -0.1340
42890CL      CL31875   1.850   6.342   9.673  0.1667  0.0420 -0.4065
42891CL      CL31876  10.132   4.188   8.898 -0.1255  0.3907 -0.1250
42892CL      CL31877   7.124   3.109  10.719 -0.0149 -0.0734 -0.2307
42893CL      CL31878   4.493   4.669   2.084 -0.1854  0.6018  0.3123
42894CL      CL31879   3.360   2.776   6.944 -0.2821  0.4445 -0.3813
42895CL      CL31880   3.453   8.028   5.578  0.2905  0.2675  0.0086
42896CL      CL31881   9.265   9.117   7.884 -0.2452 -0.2504  0.0932
42897CL      CL31882   9.982  10.129   9.044  0.2932  0.2366  0.1669
42898CL      CL31883   2.931   4.612   6.615 -0.1967 -0.2457 -0.0729
42899CL      CL31884   2.601   2.758   0.052  0.6786  0.2120  0.0878
42900CL      CL31885   3.165   9.313   3.340 -0.2739 -0.1605  0.0826
42901CL      CL31886   0.524   3.340   6.873 -0.2169  0.4799 -0.0106
42902CL      CL31887  10.093   2.910   8.358 -0.0273 -0.2637 -0.0769
42903CL      CL31888   9.979   5.639   5.904 -0.3120 -0.2877 -0.3379
42904CL      CL31889  10.501   0.152  10.028 -0.0047 -0.0575 -0.0605
42905CL      CL31890   2.231  10.469   7.323 -0.2366 -0.1089  0.3185
42906CL      CL31891   1.303  10.991   5.966  0.1632 -0.0463 -0.5464
42907CL      CL31892   2.501   4.012   8.251  0.3999 -0.0271  0.1268
42908CL      CL31893   2.180   8.642   6.632  0.2432  0.0760  0.0185
42909CL      CL31894   1.558   2.016   0.425  0.0577 -0.0680  0.2491
42910CL      CL31895   3.189   9.902  10.350 -0.0244 -0.0246 -0.0373
42911CL      CL31896   4.518   6.693   8.892  0.0140 -0.1178 -0.3205
42912CL      CL31897   3.026   6.495   8.124 -0.0995  0.0855 -0.0170
42913CL      CL31898   1.498   2.754   7.658  0.0633 -0.6659 -0.0405
42914CL      CL31899   3.559   1.519   8.621 -0.3138 -0.2299  0.2345
42915CL      CL31900   7.474   1.062   4.092 -0.1354  0.3182  0.1950
42916CL      CL31901   2.341   3.941   8.653  0.4197 -0.1558  0.0220
42917CL      CL31902   2.608   6.816   3.205 -0.2058  0.3501 -0.0797
42918CL      CL31903   1.428   9.430   1.982  0.1968  0.1144  0.0126
42919CL      CL31904   7.770   2.778   1.318 -0.8320 -0.1437 -0.0503
42920CL      CL31905   3.350   2.578   9.062  0.2052  0.2228  0.3155
42921CL      CL31906   9.883   3.249   4.804 -0.3023 -0.0941 -0.1159
42922CL      CL31907   9.956   7.098   4.149 -0.3275 -0.0603 -0.0829
42923CL      CL31908   6.054   8.687   5.874 -0.1669  0.1193 -0.0129
42924CL      CL31909   8.823  10.479   7.382  0.1268  0.5453 -0.0582
42925CL      CL31910   8.488   7.067   0.871  0.0835 -0.2529 -0.1767
42926CL      CL31911   2.013   9.290   3.765 -0.0186  0.2756 -0.0585
42927CL      CL31912   2.213   1.199   0.582  0.3320 -0.2073 -0.2442
42928CL      CL31913   1.930   9.336   9.516 -0.5296 -0.0145 -0.1233
42929CL      CL31914   7.083   4.397   9.331  0.2733 -0.0607  0.5196
42930CL      CL31915   8.579   4.056   6.934  0.1614  0.3947  0.3985
42931CL      CL31916   8.954   6.086   5.116  0.0231  0.1227  0.2147
42932CL      CL31917   4.077   8.423   5.038  0.3269 -0.0679 -0.3074
42933CL      CL31918   4.166  10.648   7.880 -0.1190 -0.2197  0.1827
42934CL      CL31919   1.360   9.161   6.685  0.2429 -0.3631 -0.1731
42935CL      CL31920   6.438   7.001   8.205  0.1822  0.2372 -0.4378
42936CL      CL31921   0.015   0.893   8.690  0.3514 -0.0691 -0.1942
42937CL      CL31922   0.698   9.581   4.043 -0.3929  0.2899  0.0783
42938CL      CL31923   2.005   9.162   1.159 -0.0179 -0.3752 -0.3808
42939CL      CL31924   9.742   0.708   6.344  0.1380 -0.1703  0.1747
42940CL      CL31925   9.509  10.121   1.257 -0.3866 -0.0265  0.3292
42941CL      CL31926   7.661   8.951   7.396  0.3374 -0.3642  0.0866
42942CL      CL31927   9.096   1.793   8.810 -0.0757 -0.1924  0.3524
42943CL      CL31928   2.759   4.562   8.480 -0.5396  0.1616 -0.4061
42944CL      CL31929   7.799   4.232   2.124  0.1308 -0.0641  0.2625
42945CL      CL31930   1.665   4.220   4.324  0.1203  0.1445 -0.6013
42946CL      CL31931   6.136   1.064   1.599  0.6507 -0.0511 -0.5555
42947CL      CL31932   9.404   1.025   9.103  0.2194  0.7415  0.0230
42948CL      CL31933  10.933   3.884   5.066  0.2797  0.1512  0.1743
42949CL      CL31934   5.881   5.669   7.554  0.1724 -0.3865 -0.2709
42950CL      CL31935   1.000   9.788   9.547 -0.0366  0.0457  0.0410
42951CL      CL31936   3.849  10.393   8.827 -0.2518 -0.0175  0.5282
42952CL      CL31937   2.029   9.804   7.438  0.0538 -0.5517  0.0758
42953CL      CL31938   2.995   4.559   3.965  0.3198 -0.0748 -0.1752
42954CL      CL31939  10.106   9.392   4.486  0.0039 -0.1484  0.0760
42955CL      CL31940  10.208   6.875   0.809 -0.0738 -0.0614 -0.0749
42956CL      CL31941   1.992  10.778   0.496 -0.2214 -0.0005  0.2742
42957CL      CL31942   4.573   7.089   5.753 -0.1802 -0.2201  0.2343
42958CL      CL31943   7.175   7.152   0.012 -0.2901 -0.1522  0.2636
42959CL      CL31944  10.006   8.816   0.617 -0.1977  0.3459  0.2184
42960CL      CL31945   1.448   4.003   0.294  0.3404 -0.1178  0.1077
42961CL      CL31946   5.806   1.698   3.695  0.2554  0.3397 -0.2951
42962CL      CL31947   3.799   4.083   2.113  0.1978 -0.1905  0.2056
42963CL      CL31948   2.105   9.897   0.023  0.5071 -0.2226 -0.2864
42964CL      CL31949   7.776   4.318   3.370  0.1445  0.1146 -0.2399
42965CL      CL31950   5.228   0.577   2.299 -0.0652  0.6525 -0.4962
42966CL      CL31951   2.289   3.700   8.326 -0.4767  0.4167  0.5695
42967CL      CL31952   2.760   0.877   8.532  0.2579 -0.3282  0.2373
42968CL      CL31953  10.727   0.019  10.564 -0.2556  0.2677 -0.2897
42969CL      CL31954   7.222   4.808   6.147  0.2218  0.0292  0.0134
42970CL      CL31955   2.847  10.300   1.356 -0.4313  0.2354  0.4401
42971CL      CL31956   3.478   9.270   7.668 -0.1575 -0.1635 -0.3840
42972CL      CL31957   4.765   9.358   9.579 -0.1094 -0.1770 -0.1509
42973CL      CL31958   5.106   9.773   6.455 -0.1384 -0.1323 -0.3912
42974CL      CL31959   9.992   1.634   0.034 -0.1057 -0.1905  0.1676
42975CL      CL31960   0.577   1.611   8.221  0.2084 -0.1486  0.0209
42976CL      CL31961   0.042   4.822   5.611  0.4543 -0.4037  0.0148
42977CL      CL31962   6.175   4.230   2.782 -0.0054 -0.2405  0.2082
42978CL      CL31963   0.331  10.339   0.263  0.0013 -0.0383 -0.0881
42979CL      CL31964   2.429   6.443   8.058  0.4651 -0.1116 -0.7668
42980CL      CL31965   8.116   4.936   2.082  0.0004 -0.3081 -0.0075
42981CL      CL31966   5.612   0.477   0.987  0.0766 -0.0307 -0.0704
42982CL      CL31967   9.517   9.876   9.140 -0.2781  0.2120  0.1081
42983CL      CL31968   0.137   3.229   8.665  0.2334  0.0343  0.3465
42984CL      CL31969   5.486   0.554   6.201  0.0923 -0.0255 -0.1077
42985CL      CL31970   6.904   9.347   1.048  0.5909 -0.1907 -0.3505
42986CL      CL31971   2.514   1.822   8.940 -0.1001  0.3567  0.5005
42987CL      CL31972  10.650   1.348   7.873  0.3047 -0.0424 -0.1019
42988CL      CL31973   6.693   9.613   8.021  0.6854 -0.4484 -0.4201
42989CL      CL31974   2.242   8.433   9.313  0.2768  0.4052  0.1224
42990CL      CL31975   3.447   3.363   0.010 -0.4008 -0.3127 -0.4200
42991CL      CL31976   6.293   7.856   5.354 -0.2478 -0.3841  0.5424
42992CL      CL31977   4.749   5.806   7.147 -0.1168  0.0035 -0.4130
42993CL      CL31978  10.714   8.377   7.201 -0.5744 -0.0329  0.0509
42994CL      CL31979   1.001  10.766   9.275 -0.0239  0.4450  0.0587
42995CL      CL31980   1.785  10.193   0.916 -0.4552  0.2942  0.1074
42996CL      CL31981  10.687   4.691   2.049 -0.2744 -0.5404 -0.0063
42997CL      CL31982   4.055   3.609   0.979 -0.0644 -0.3821  0.4781
42998CL      CL31983  10.836   1.139   6.840  0.1809  0.3887 -0.0865
42999CL      CL31984   7.266   2.294   0.373  0.0324 -0.3347  0.2304
43000CL      CL31985   3.024   5.436   5.171 -0.2576  0.0089  0.2348
43001CL      CL31986   1.682   1.670   4.502  0.2344 -0.4086 -0.0780
43002CL      CL31987   1.262   2.931   5.149 -0.1258 -0.1750 -0.1088
43003CL      CL31988   6.191   6.917  10.949 -0.1728 -0.1775  0.5327
43004CL      CL31989   3.024   3.712   4.331 -0.3227 -0.2306 -0.7081
43005CL      CL31990   1.272  10.683   8.202 -0.0633 -0.0454  0.1112
43006CL      CL31991   0.137   4.556   4.602  0.2392  0.0031  0.2703
43007CL      CL31992   0.720   0.729   0.078 -0.1912  0.0265  0.3348
43008CL      CL31993  10.259  10.870   6.415 -0.2596  0.4530 -0.4688
43009CL      CL31994   0.358  10.766  10.334  0.2009 -0.2442 -0.2147
43010CL      CL31995  10.039   0.745  10.175  0.2287 -0.2455 -0.4392
43011CL      CL31996   2.030   8.810   8.538  0.6078 -0.1238 -0.2235
43012CL      CL31997   3.209   0.789   2.719  0.2606  0.1058  0.0751
43013CL      CL31998  10.067   9.852   8.631  0.0647  0.0223 -0.0545
43014CL      CL31999   3.848   5.075   2.069 -0.0192  0.2210  0.4705
43015CL      CL32000   9.562   8.047   6.436  0.0130 -0.2471 -0.0116
43016CL      CL32001   0.460   3.754   7.112 -0.0158 -0.3739 -0.0218
43017CL      CL32002   7.924   7.629   9.001 -0.5881  0.2606  0.3002
43018CL      CL32003   8.265   0.591   5.728  0.0967 -0.1727 -0.4829
43019CL      CL32004   6.533   6.466   5.722  0.1773  0.2121  0.1096
43020CL      CL32005   9.642   9.763   0.014  0.1795 -0.0612  0.4495
43021CL      CL32006   1.823   9.097  10.880  0.2336  0.1647  0.0710
43022CL      CL32007   5.140   6.152   5.327 -0.0101  0.2616  0.2751
43023CL      CL32008   3.151   8.450   1.891 -0.0658 -0.0828 -0.2012
43024CL      CL32009   6.000   2.121  10.023  0.3092  0.2075 -0.1228
43025CL      CL32010   2.521   8.773   7.221  0.1014 -0.0410 -0.3594
43026CL      CL32011   7.308   6.228   6.212 -0.2745  0.1936  0.0780
43027CL      CL32012   3.749   0.497   7.604  0.4986  0.3030 -0.0883
43028CL      CL32013   2.979   5.679   1.609 -0.1442 -0.2204  0.0902
43029CL      CL32014  10.881   6.377   2.439  0.2468 -0.3987 -0.0458
43030CL      CL32015   3.680   2.281   5.696 -0.2777 -0.1399 -0.0057
43031CL      CL32016   9.080   2.959   7.740 -0.2476 -0.1333 -0.1885
43032CL      CL32017   1.972   9.607   8.835  0.0137 -0.2430 -0.2627
43033CL      CL32018   3.327   7.291   8.109  0.0199  0.1280 -0.0244
43034CL      CL32019   2.798   7.141   7.379 -0.0220  0.3339  0.5278
43035CL      CL32020  10.335   5.601   7.471 -0.1282 -0.2299 -0.1605
43036CL      CL32021  10.764   9.333   7.485 -0.2502  0.2026 -0.0706
43037CL      CL32022   2.451   0.602   6.430 -0.1821  0.2279  0.2487
43038CL      CL32023   4.279   2.315   5.894 -0.0902 -0.2494 -0.0136
43039CL      CL32024   0.580   4.499   5.526  0.2777  0.1920  0.4182
43040CL      CL32025   8.472  10.988   0.585 -0.0364  0.4146  0.1097
43041CL      CL32026   3.011   7.776  10.922  0.0838 -0.5644 -0.0710
43042CL      CL32027   3.984   0.441   6.588  0.5653  0.3326  0.0244
43043CL      CL32028   0.638   4.343   9.599 -0.0890 -0.3146 -0.3657
43044CL      CL32029   9.752   3.155   4.049 -0.0486 -0.4540  0.0025
43045CL      CL32030   2.354   2.191  10.921  0.0819 -0.4436 -0.1355
43046CL      CL32031   6.069   5.849   2.381 -0.1845  0.2416  0.1860
43047CL      CL32032   2.586   1.463   6.139 -0.0303 -0.0904 -0.0340
43048CL      CL32033   6.963   4.170   5.075  0.2206  0.4722 -0.1345
43049CL      CL32034   3.795  10.071  10.698  0.0618  0.0102  0.4846
43050CL      CL32035   0.567   1.192   6.541  0.1707  0.5706 -0.2114
43051CL      CL32036   9.799   6.723   1.148  0.0048  0.5789 -0.0380
43052CL      CL32037   3.226   7.745   8.294  0.0075 -0.1408 -0.1553
43053CL      CL32038   6.676   2.526   5.074 -0.3689  0.1564 -0.5183
43054CL      CL32039   2.031   6.225   0.394 -0.1443 -0.0601  0.0759
43055CL      CL32040   2.819   0.422   8.343 -0.2876  0.1345 -0.2244
43056CL      CL32041   2.518  10.795   8.014  0.1281  0.1470 -0.2350
43057CL      CL32042   3.352  10.308  10.682 -0.5931  0.0253  0.0590
43058CL      CL32043   0.476   5.412   6.768 -0.0500 -0.1677 -0.1309
43059CL      CL32044  10.391   8.384   9.074  0.3939  0.1995  0.0376
43060CL      CL32045   3.146   4.628   9.563  0.4934 -0.0461 -0.3118
43061CL      CL32046   8.104   9.461   7.970  0.2831  0.0254 -0.3261
43062CL      CL32047   6.769   1.344   6.990  0.3155  0.3375  0.0410
43063CL      CL32048   2.233   2.739   7.095  0.3907  0.5568  0.0483
43064CL      CL32049  10.196   9.933   3.547  0.3372  0.4357  0.0548
43065CL      CL32050   1.610   9.691  10.368 -0.2667 -0.3272 -0.0018
43066CL      CL32051   8.377   5.553   2.484 -0.0648 -0.2263 -0.0295
43067CL      CL32052   3.540   0.650   8.547 -0.0015  0.0456  0.0933
43068CL      CL32053   6.768   4.371  10.059 -0.0417 -0.1843 -0.0278
43069CL      CL32054   6.957   0.066   4.237 -0.1926  0.0154 -0.0153
43070CL      CL32055   0.960  10.081  10.958  0.0928  0.2787  0.1275
43071CL      CL32056   8.323   0.302   8.596 -0.6168  0.3309 -0.1802
43072CL      CL32057  10.616  10.704   4.882 -0.5464 -0.2084  0.1820
43073CL      CL32058   1.199   8.256   9.384  0.1631  0.0172  0.0958
43074CL      CL32059  10.716   2.184   6.566  0.0330  0.4756  0.2366
43075CL      CL32060   3.004  10.914   6.470 -0.0508 -0.1906  0.0699
43076CL      CL32061   4.384   6.331   1.417 -0.2483 -0.6989 -0.1272
43077CL      CL32062   4.057   5.818   5.188 -0.1837  0.1618 -0.0707
43078CL      CL32063  10.571   2.337   5.837  0.1774 -0.0584 -0.2172
43079CL      CL32064   1.729   1.375   4.245 -0.4082 -0.3498 -0.0121
43080CL      CL32065   9.790   3.598   1.824  0.1411 -0.3036 -0.0686
43081CL      CL32066  10.823   1.276   8.773 -0.1450 -0.0622 -0.0903
43082CL      CL32067   7.908  10.263   8.910 -0.1271 -0.0464  0.1764
43083CL      CL32068   5.953   6.643   3.387 -0.2062 -0.2639 -0.0580
43084CL      CL32069   5.025   1.915   0.015  0.0868 -0.0403  0.0808
43085CL      CL32070   7.125   6.341   7.517  0.2481  0.1598 -0.0098
  11.00861  11.00861  11.00861
